default_name
296967
  96.1560342  66.3431608  81.4668544  95.6686639  65.6021823  80.9836138
  97.1614850  66.4129436  81.4012903  95.6690342  67.6541608  81.0018544
  94.9037898  67.5022757  80.2406499  96.5007271  68.2136420  80.5736399
  95.1230342  68.3011608  82.2518544  94.0354078  68.3233981  82.1834980
  95.5038981  69.3208544  82.3090273  95.5800342  67.4941608  83.4248544
  94.7989610  67.4790292  84.1849826  96.5087550  67.8559340  83.8661002
  95.7840342  66.0851608  82.8598544  96.6104416  65.5537049  83.3317690
  94.4990342  65.2531608  82.9918544  93.5390342  65.4811608  82.2488544
  94.4910342  64.3161608  83.9418544  95.3056053  64.2122391  84.5298796
  93.3670342  63.3841608  84.1348544  93.0380226  63.0020028  83.1685181
  93.7870342  62.1961608  85.0158544  94.1454756  62.5848913  85.9690111
  92.9168321  61.5623866  85.1866721  94.8880342  61.3521608  84.3898544
  95.0540342  61.3151608  83.1688544  95.6450342  60.6641608  85.2318544
  96.3925314  60.0852456  84.8766010  95.4711239  60.7217727  86.2251000
  92.1540342  64.0831608  84.7518544  92.3010342  65.0901608  85.4468544
  90.9690342  63.5211608  84.5048544  90.9494304  62.6540641  83.9873041
  89.6830342  64.1591608  84.8508544  89.7089304  65.1261456  84.3484911
  88.5240342  63.3471608  84.2848544  88.4794938  62.3794728  84.7845506
  87.5895124  63.8836383  84.4490525  88.6730463  63.1968337  83.2156040
  89.4610342  64.4201608  86.3498544  88.7920342  65.3951608  86.7138544
  90.0130342  63.5511608  87.2028544  90.4651197  62.7276297  86.8320248
  89.9350342  63.7061608  88.6658544  88.8931578  63.7980593  88.9726888
  90.5480342  62.4851608  89.3688544  91.5834418  62.4204585  89.0344235
  90.5245963  62.6968923  90.4378354  89.8300342  61.1361608  89.0928544
  90.0520597  60.4961798  89.9468039  88.7671883  61.3778759  89.0872386
  90.1940342  60.4021608  87.7958544  91.0790342  60.8931608  87.0608544
  89.5790342  59.3371608  87.5648544  90.6130342  64.9801608  89.1898544
  90.1450342  65.5661608  90.1638544  91.6940342  65.4051608  88.5308544
  91.9723657  64.9083938  87.6966761  92.5370342  66.5221608  88.9928544
  92.3582898  66.7215243  90.0494545  94.0220342  66.1501608  88.8058544
  94.2343244  66.1680241  87.7368768  94.6216741  66.9096374  89.3075788
  94.3690342  64.7701608  89.3718544  93.9080342  64.4431608  90.4858544
  95.1060342  64.0141608  88.7008544  92.2600342  67.8731608  88.2938544
  93.0170342  68.8271608  88.4878544  91.1790342  67.9671608  87.5118544
  90.5310537  67.1939857  87.4626528  90.9340342  69.1411608  86.6518544
  91.8843754  69.5400254  86.2970898  90.0780342  68.7581608  85.4358544
  89.2533177  68.1448630  85.7989078  89.6840309  69.6816959  85.0116560
  90.8430342  67.9961608  84.3668544  91.6847780  68.6179449  84.0619727
  91.2158637  67.0792048  84.8232447  89.8590342  67.5781608  82.9158544
  89.7120342  69.1791608  82.1258544  90.7049430  69.5574492  81.8826897
  89.1270581  69.0813012  81.2113452  89.2145262  69.8742989  82.8021458
  90.2730342  70.3191608  87.3758544  89.3600342  70.1331608  88.1798544
  90.7490342  71.5271608  87.0668544  91.5978420  71.5736186  86.5214496
  90.1420342  72.7841608  87.5168544  89.4086274  72.5958726  88.3009215
  91.2250342  73.7441608  88.0718544  90.7391682  74.6434628  88.4503914
  92.0110342  73.0761608  89.2008544  92.4975926  72.1769727  88.8229372
  92.7661280  73.7666526  89.5765585  91.3304066  72.8080545  90.0089173
  92.1310342  74.1281608  87.0278544  92.7961602  74.7219225  87.3837403
  89.3790342  73.4291608  86.3418544  89.2620342  72.8221608  85.2708544
  88.8570342  74.6441608  86.5428544  88.8459748  75.0244807  87.4784471
  88.1720342  75.3961608  85.4738544  87.4190460  74.7614910  85.0066262
  87.4780342  76.6491608  86.0378544  86.9885197  77.1696192  85.2146911
  86.7285241  76.3292620  86.7617324  88.3990342  77.5221608  86.6668544
  87.9323311  78.2897479  87.0053777  89.0500342  75.7771608  84.2548544
  88.5060342  75.9901608  83.1648544  90.3600342  75.9261608  84.4838544
  90.6931127  75.8234305  85.4318019  91.3290342  76.2691608  83.4408544
  90.8954247  77.0005140  82.7587954  92.5940342  76.8701608  84.0638544
  92.9781491  76.1406947  84.7769002  93.3156731  77.0046670  83.2580967
  92.3690342  78.1991608  84.7698544  92.1393554  78.9531854  84.0169963
  91.5200741  78.0899019  85.4447108  93.5950342  78.6311608  85.5628544
  93.8459469  77.8373393  86.2664091  94.4215094  78.7734874  84.8665920
  93.3460342  79.9251608  86.3258544  93.1874663  80.7189493  85.5958841
  92.4425239  79.7940650  86.9213224  94.4810342  80.2921608  87.2198544
  95.3182513  80.4141049  86.6682232  94.2659585  81.1540781  87.7004175
  94.6278574  79.5569420  87.8966080  91.6950342  75.0391608  82.6118544
  91.9180342  75.1391608  81.4038544  91.7670342  73.8811608  83.2638544
  91.7239195  73.8546376  84.2725848  91.9450342  72.6271608  82.5478544
  92.8165568  72.6984924  81.8971168  92.1560342  71.4671608  83.5218544
  91.3477360  71.4955854  84.2525700  92.1023416  70.5362009  82.9574691
  93.4870342  71.5461608  84.2388544  94.5000342  71.8521608  83.5768544
  93.5260342  71.2991608  85.4608544  90.7140342  72.3801608  81.6838544
  90.8100342  71.8311608  80.5868544  89.5550342  72.7951608  82.1858544
  89.5094332  73.1322629  83.1368444  88.3150342  72.7081608  81.4228544
  88.2541361  71.7380460  80.9296324  87.1010342  72.8661608  82.3438544
  87.3532497  73.6630945  83.0434138  86.2494299  73.1726332  81.7364462
  86.7450342  71.6101608  83.1158544  86.6020342  70.3911608  82.4688544
  86.7532985  70.3482703  81.3902539  86.2740342  69.2441608  83.1668544
  86.1761104  68.2916686  82.6460171  86.0700342  69.3091608  84.5238544
  85.7400342  68.1691608  85.2138544  85.6803490  67.3939270  84.6507825
  86.1960342  70.5071608  85.1898544  86.0374737  70.5565958  86.2671265
  86.5250342  71.6501608  84.4868544  86.6157085  72.6032826  85.0078507
  88.2720342  73.7461608  80.2948544  87.6170342  73.5281608  79.2718544
  88.9630342  74.8711608  80.4868544  89.3283748  75.0851838  81.4038167
  89.1600342  75.8511608  79.4138544  88.3072076  75.8199100  78.7357620
  89.2910342  77.2711608  79.9698544  89.2947836  77.1954397  81.0572143
  90.2466649  77.6709711  79.6307058  88.1750342  78.1941608  79.5328544
  86.8420342  77.8531608  79.7368544  86.6114645  76.9053326  80.2232276
  85.8170342  78.6921608  79.3348544  84.7769231  78.4104177  79.4988408
  86.1190342  79.8911608  78.7178544  85.1000342  80.7341608  78.3148544
  84.2266619  80.3881479  78.5125803  87.4370342  80.2521608  78.5068544
  87.6763652  81.1989933  78.0227787  88.4540342  79.4061608  78.9128544
  89.4944393  79.6862982  78.7479898  90.3900342  75.4961608  78.5818544
  91.1470342  76.3761608  78.1568544  90.5810342  74.1921608  78.3878544
  90.0285552  73.5499698  78.9378153  91.5590342  73.6391608  77.4508544
  91.5945082  74.2622516  76.5572110  92.9620342  73.5881608  78.0688544
  92.9227794  73.0519341  79.0170207  93.6575830  73.0858968  77.3965131
  93.5500342  74.9421608  78.3638544  93.5760342  75.9301608  77.3898544
  93.1643119  75.7152604  76.4037497  94.1160342  77.1761608  77.6578544
  94.1252094  77.9449213  76.8851813  94.6440342  77.4451608  78.9068544
  95.0703902  78.4247538  79.1229977  94.6300342  76.4671608  79.8828544
  95.0458641  76.6753304  80.8686795  94.0880342  75.2231608  79.6088544
  94.0811296  74.4503819  80.3775319  91.0850342  72.2331608  77.0698544
  91.6340342  71.6011608  76.1668544  90.0530342  71.7691608  77.7788544
  89.6967906  72.3456707  78.5277376  89.4520342  70.4471608  77.5728544
  89.4916438  70.1855132  76.5154657  90.2090342  69.3801608  78.3698544
  91.2753437  69.5525377  78.2236712  89.9617406  69.5092761  79.4235503
  89.8610342  67.9651608  77.9378544  89.0830342  67.8161608  76.9728544
  90.3630342  67.0061608  78.5658544  87.9610342  70.4831608  77.9678544
  87.5370342  69.9101608  78.9738544  87.1970342  71.1831608  77.1368544
  87.6902085  71.6346391  76.3798565  85.7310342  71.3671608  77.2278544
  85.4832994  71.8846848  78.1546205  85.2150342  72.1951608  76.0538544
  85.5096144  71.7064552  75.1251517  84.1274896  72.2417841  76.1101841
  85.7410342  73.4961608  76.0848544  85.4026177  73.9959994  75.3383724
  84.9330342  70.0781608  77.2348544  83.9520342  69.9631608  77.9608544
  85.3460342  69.1231608  76.4058544  86.0774842  69.3234735  75.7388049
  84.6750342  67.8211608  76.3318544  83.5944583  67.9626325  76.3528448
  85.0500342  67.0901608  75.0308544  86.1098780  67.2678351  74.8484748
  84.8824746  66.0245533  75.1873936  84.2480342  67.5561608  73.8358544
  82.8950342  67.2471608  73.7248544  82.4245195  66.6608943  74.5141623
  82.1500342  67.6691608  72.6398544  81.0885843  67.4307240  72.5722243
  82.7550342  68.4061608  71.6458544  82.0140342  68.8091608  70.5678544
  81.0987231  68.5233541  70.6138944  84.0940342  68.7271608  71.7238544
  84.5697937  69.3113938  70.9361837  84.8350342  68.3011608  72.8138544
  85.8946211  68.5474933  72.8823824  84.8940342  66.9121608  77.5568544
  84.2550342  65.8661608  77.6568544  85.7830342  67.3011608  78.4748544
  86.4192906  68.0550940  78.2583782  85.9360342  66.6081608  79.7618544
  85.9903208  65.5455415  79.5252272  87.2340342  67.0221608  80.4418544
  87.1911901  68.0819241  80.6931831  87.3700124  66.4385590  81.3523593
  88.0713770  66.8427780  79.7674819  84.7540342  66.8111608  80.7208544
  84.5720342  66.0191608  81.6488544  83.9750342  67.8711608  80.5118544
  84.2122696  68.5237583  79.7784137  82.7670342  68.1211608  81.2988544
  83.0189450  68.1197404  82.3593440  82.1420342  69.4781608  80.9448544
  82.2178325  69.6202795  79.8668209  81.0945096  69.5188675  81.2434095
  82.8140342  70.6541608  81.5798544  83.0580342  71.8271608  80.8938544
  82.8268498  71.9855846  79.9235166  83.6360342  72.6951608  81.7068544
  83.9110364  73.6886008  81.3525244  83.7750342  72.1281608  82.8928544
  84.1875351  72.5542002  83.7104321  83.2650342  70.8531608  82.8408544
  83.2836244  70.2220819  83.7293898  81.7160342  67.0551608  81.0248544
  81.3880342  66.8131608  79.8648544  81.1730342  66.4601608  82.0898544
  81.5547294  66.6245040  83.0103974  80.1130342  65.4581608  81.9458544
  80.4158158  64.7322580  81.1912104  79.8260342  64.7071608  83.2668544
  79.1017773  63.9057612  83.1208754  80.7669431  64.2858248  83.6207845
  79.2930342  65.5731608  84.3838544  77.9460342  65.8911608  84.4628544
  77.2665827  65.5142871  83.6983861  77.4620342  66.6731608  85.4908544
  76.4031539  66.9290348  85.5282931  78.3170342  67.1311608  86.4708544
  77.9382784  67.7459473  87.2873600  79.6570342  66.8081608  86.4148544
  80.3361736  67.1697609  87.1869394  80.1380342  66.0281608  85.3828544
  81.1946646  65.7629397  85.3469388  78.8420342  66.0731608  81.3568544
  78.1150342  65.3991608  80.6318544  78.5930342  67.3451608  81.6718544
  79.2497311  67.8377640  82.2602341  77.4130342  68.0601608  81.2048544
  76.5384598  67.5395360  81.5949423  77.4526113  69.0661993  81.6224900
  77.2980342  68.1561608  79.7008544  76.1870342  68.1271608  79.1718544
  78.4390342  68.2501608  79.0148544  79.3155097  68.3203224  79.5118127
  78.4640342  68.3071608  77.5508544  77.7571125  69.0476459  77.1766317
  79.8800342  68.6161608  76.9938544  80.5753460  67.8638704  77.3662804
  79.8810342  68.5981608  75.4658544  79.1862515  69.3505594  75.0926603
  80.8841409  68.8174015  75.1000522  79.5734233  67.6136646  75.1133747
  80.4190342  69.9671608  77.5228544  80.4522594  69.8790315  78.6087780
  81.4332410  70.0645159  77.1355483  79.6120342  71.1931608  77.1398544
  78.5977684  71.0967369  77.5272395  80.0788764  72.0827396  77.5627103
  79.5787482  71.2822199  76.0540089  77.9600342  66.9801608  76.9748544
  77.1110342  66.9671608  76.0808544  78.4780342  65.8761608  77.5028544
  79.2382487  65.9512983  78.1635568  78.0670342  64.5421608  77.0678544
  78.0071109  64.5103756  75.9799674  79.0790342  63.4921608  77.5328544
  79.2017536  63.6087974  78.6096251  78.7785789  62.4682016  77.3107413
  80.4300342  63.6821608  76.9258544  80.7730342  63.1551608  75.7028544
  80.1654603  62.5857137  75.1312919  82.0100342  63.5121608  75.4048544
  82.4744822  63.1820137  74.4756666  82.4730342  64.2651608  76.3838544
  83.3918052  64.6820873  76.4300292  81.5000342  64.3961608  77.3428544
  81.6887024  64.9976661  78.2320657  76.6500342  64.1981608  77.5098544
  75.9300342  63.4981608  76.7988544  76.2520342  64.7121608  78.6678544
  76.9272031  65.1657385  79.2666145  74.8730342  64.5911608  79.1438544
  74.6070808  63.5395186  79.2507028  74.7230342  65.2741608  80.5048544
  75.5607951  64.9511521  81.1228524  74.7896801  66.3489972  80.3363757
  73.4190342  64.9531608  81.2128544  72.6114984  65.2679047  80.5518530
  73.3682839  63.8742509  81.3594048  73.2780342  65.6501608  82.5478544
  74.3060342  66.0091608  83.1788544  72.1200342  65.8251608  82.9718544
  73.8640342  65.1781608  78.1448544  72.8610342  64.5371608  77.8268544
  74.1430342  66.3891608  77.6628544  74.9346475  66.8913614  78.0386767
  73.3180342  67.0511608  76.6508544  72.2885241  67.1193115  77.0023704
  73.8390342  68.4761608  76.3718544  73.9100723  68.9876887  77.3317461
  74.8344876  68.3770289  75.9390201  72.9510342  69.2871608  75.4268544
  72.8940266  68.7343353  74.4891791  71.9611603  69.3347964  75.8807043
  73.4520342  70.6981608  75.1538544  74.5510342  71.0751608  75.6258544
  72.7310342  71.4421608  74.4538544  73.2650342  66.2541608  75.3388544
  72.2130342  66.1681608  74.7048544  74.4080342  65.7011608  74.9338544
  75.2548104  65.8898298  75.4510328  74.5010342  64.8741608  73.7228544
  74.0412534  65.4001743  72.8861881  75.9700342  64.5751608  73.3688544
  76.4627477  64.2636984  74.2898994  75.9649514  63.7456907  72.6617098
  76.7230342  65.7531608  72.7638544  76.1048361  66.1676550  71.9675338
  76.8544105  66.4997447  73.5470880  78.3430342  65.3071608  72.0888544
  79.2670342  64.9571608  73.5788544  78.7874854  64.1424704  74.1214514
  80.2848934  64.6686903  73.3164650  79.2928637  65.8466347  74.2083543
  73.7280342  63.5651608  73.8718544  73.0190342  63.1581608  72.9568544
  73.8740342  62.9161608  75.0228544  74.5248101  63.2712402  75.7087907
  73.1910342  61.6461608  75.3028544  73.2829612  60.9783647  74.4462932
  73.8170342  60.9651608  76.5238544  73.8225634  61.7524875  77.2776351
  73.1720873  60.1509702  76.8543648  75.2440342  60.4381608  76.3248544
  75.7888365  61.1458049  75.6999295  75.9700342  60.2711608  77.6538544
  75.4260372  59.5632575  78.2791855  76.9775217  59.8962736  77.4734954
  76.0266871  61.2343045  78.1610476  75.2380342  59.1291608  75.5488544
  74.7846587  59.2882604  74.5704693  76.2616855  58.7770153  75.4214461
  74.6634541  58.3832557  76.0980195  71.6750342  61.8061608  75.4958544
  70.9100342  60.9301608  75.0928544  71.2490342  62.9131608  76.1078544
  71.9131694  63.5013660  76.5905949  69.8150342  63.2411608  76.2178544
  69.2495792  62.3330487  76.4268816  69.5630342  64.2441608  77.3448544
  70.2885022  65.0522244  77.2508930  68.5563011  64.6447897  77.2261751
  69.6940342  63.6041608  78.7138544  68.9658189  62.7953130  78.7735909
  70.7003531  63.1929693  78.7935156  69.4570342  64.5811608  79.8468544
  70.2042939  65.3734116  79.8016806  68.4620369  65.0147617  79.7465054
  69.5630342  63.8611608  81.1798544  68.6853275  63.2233429  81.2843528
  70.4600571  63.2424864  81.1535664  69.6380342  64.7921608  82.3338544
  68.8067279  65.3652357  82.3586461  69.7068887  64.2615987  83.1905124
  70.4515058  65.3829793  82.2374352  69.1750342  63.7261608  74.9108544
  67.9470342  63.7711608  74.8108544  69.9950342  64.0941608  73.9258544
  70.9709595  64.2539595  74.1311193  69.5250342  64.3301608  72.5578544
  68.6183327  64.9348714  72.5756484  70.6010342  65.0791608  71.7458544
  70.8565383  65.9791774  72.3051280  71.4762090  64.4328662  71.6789776
  70.1450342  65.4661608  70.3388544  69.1090342  64.9641608  69.8488544
  70.8490342  66.2881608  69.7098544  69.1820342  62.9671608  71.9388544
  70.0510342  62.2771608  71.4048544  67.9090342  62.5901608  72.0268544
  67.2360715  63.2061340  72.4602105  67.4600342  61.2561608  71.6008544
  68.1771601  60.5054785  71.9329776  66.0920342  60.9241608  72.1998544
  65.4378846  61.7785609  72.0261075  65.7010694  60.0545505  71.6716267
  66.1520342  60.6271608  73.6888544  66.7216907  59.7077075  73.8237544
  66.6778978  61.4532968  74.1674628  64.7830342  60.4691608  74.3168544
  64.6010342  60.9451608  75.4578544  63.8900342  59.8751608  73.6718544
  67.4220342  61.0701608  70.0858544  67.7270342  59.9861608  69.6008544
  67.0480342  62.1171608  69.3508544  66.7032643  62.9470971  69.8117652
  67.0550342  62.0881608  67.8808544  66.4297743  61.2875612  67.4856461
  66.5700342  63.4351608  67.2858544  67.0759145  64.2434670  67.8138937
  66.8680342  63.5391608  65.7898544  66.3620790  62.7313982  65.2610540
  66.5117639  64.4981575  65.4136932  67.9430133  63.4621737  65.6267755
  65.0780342  63.6181608  67.5458544  64.8928463  63.6152938  68.6200049
  64.7488525  64.5675428  67.1234651  64.5248228  62.8025855  67.0801346
  68.4580342  61.7461608  67.3668544  68.6200342  60.8891608  66.4938544
  69.4580342  62.4241608  67.9248544  69.2419520  63.1642953  68.5772413
  70.8610342  62.1671608  67.6088544  71.0376157  62.2950312  66.5408809
  71.7450342  63.1541608  68.3718544  71.4001191  64.1518768  68.1003853
  71.5578523  62.9814470  69.4316812  73.2360342  63.0411608  68.0958544
  73.4986325  61.9886474  67.9892781  73.4666937  63.5681923  67.1700380
  74.0360342  63.6501608  69.2388544  75.0035558  63.9951642  68.8741990
  73.4904027  64.4895864  69.6698420  74.2590342  62.6461608  70.2868544
  73.4379507  62.3668840  70.8044698  75.4270342  62.0751608  70.5888544
  76.5450342  62.4131608  69.9588544  76.5199684  63.1164437  69.2343788
  77.4158437  61.9655670  70.2067461  75.4790342  61.1611608  71.5548544
  74.6369130  60.9068284  72.0510871  76.3603785  60.7260630  71.7872783
  71.2790342  60.7381608  67.9578544  71.6980342  59.9841608  67.0858544
  71.1530342  60.3791608  69.2318544  70.7174381  61.0138958  69.8856639
  71.7270342  59.1371608  69.7488544  72.7444465  59.0147913  69.3773747
  71.7620342  59.1361608  71.2968544  70.7372906  59.1137958  71.6676651
  72.5220342  57.9281608  71.8318544  73.5470671  57.9500876  71.4618188
  72.5289783  57.9560213  72.9214758  72.0343404  57.0132496  71.4954129
  72.3980342  60.3331608  71.7668544  72.4179942  60.3292076  72.7266389
  71.0060342  57.8921608  69.2128544  71.6690342  56.9291608  68.8138544
  69.6690342  57.9231608  69.1848544  69.1792513  58.7103553  69.5855247
  68.8740342  56.7931608  68.6718544  69.2592649  55.8676680  69.0998258
  67.3850342  56.9171608  69.0298544  67.1173984  57.9029169  68.6493873
  66.8583455  56.1525735  68.4587982  66.9890342  56.8151608  70.5048544
  67.5081531  57.5865168  71.0737360  65.4860342  57.0071608  70.6448544
  64.9662005  56.2358402  70.0765796  65.2062317  56.9341643  71.6957982
  65.2075107  57.9892074  70.2626116  67.4060342  55.4811608  71.1088544
  68.4880180  55.3711246  71.0360351  67.1075715  55.4469861  72.1566394
  66.9214638  54.6690180  70.5669000  69.0130342  56.5851608  67.1618544
  68.9150342  55.4431608  66.6988544  69.2220342  57.6601608  66.3978544
  69.1526358  58.5866607  66.7939366  69.4800342  57.5361608  64.9558544
  68.7148008  56.8993240  64.5120573  69.4640342  58.9031608  64.2348544
  70.1910364  59.5585146  64.7145205  69.8140342  58.7511608  62.7558544
  69.0871524  58.0962655  62.2753811  69.7947714  59.7291812  62.2750176
  70.8103003  58.3194092  62.6602243  68.1580342  59.4891608  64.3398544
  68.1511227  60.3378713  63.8912533  70.8160342  56.8241608  64.7058544
  70.9080342  55.9691608  63.8208544  71.8380342  57.1831608  65.4818544
  71.7684063  58.0148327  66.0506893  73.1120342  56.4571608  65.4648544
  73.4795863  56.4132827  64.4396328  74.1820342  57.1331608  66.3428544
  73.6619933  57.5951270  67.1820468  74.8448518  56.3509753  66.7129339
  74.9990342  58.1851608  65.6128544  74.5640342  59.5051608  65.5308544
  73.6215574  59.7743626  66.0076849  75.3030342  60.4701608  64.8598544
  74.9511399  61.5006000  64.8101839  76.4940342  60.1191608  64.2618544
  77.2190342  61.0721608  63.5958544  76.8044252  61.9378696  63.6115781
  76.9510342  58.8121608  64.3248544  77.8909988  58.5342963  63.8480333
  76.2070342  57.8571608  64.9978544  76.5631812  56.8284923  65.0535362
  72.9080342  55.0001608  65.8798544  73.4140342  54.0971608  65.2088544
  72.1540342  54.7671608  66.9548544  71.8027338  55.5288964  67.5173899
  71.8920342  53.3931608  67.4018544  72.8421692  52.8696936  67.5082725
  71.1560342  53.3481608  68.7428544  71.6115509  54.0868409  69.4023660
  70.1141632  53.6143530  68.5646787  71.2240342  51.9731608  69.3968544
  70.8410896  51.2430480  68.6838400  72.2700573  51.7554720  69.6126077
  70.4170342  51.8981608  70.6798544  70.6657288  50.9721194  71.1982147
  70.6784969  52.7481990  71.3100700  68.9730342  51.9241608  70.4318544
  68.6801456  51.8986882  69.4655901  68.0350342  51.9711608  71.3808544
  68.3630342  51.9991608  72.6728544  69.3357980  51.9847735  72.9441912
  67.6372376  52.0346286  73.3743250  66.7530342  51.9981608  71.0368544
  66.4948880  51.9830157  70.0605188  66.0417916  52.0337237  71.7530722
  71.1150342  52.5941608  66.3508544  71.4610342  51.4501608  66.0718544
  70.0820342  53.2041608  65.7738544  69.7976471  54.1156491  66.1031148
  69.2770342  52.5591608  64.7318544  68.9007082  51.6049432  65.1005640
  68.0800342  53.4391608  64.3348544  68.4369157  54.4541699  64.1602370
  67.6503523  53.0423803  63.4150508  66.9910342  53.4821608  65.4028544
  67.0410342  52.7621608  66.3998544  66.0020342  54.3351608  65.1918544
  65.2513184  54.4093728  65.8634332  66.0022836  54.9082184  64.3601659
  70.0880342  52.1861608  63.4878544  69.8540342  51.1351608  62.9008544
  71.0450342  53.0301608  63.1028544  71.1469653  53.9196519  63.5703102
  71.9120342  52.7451608  61.9498544  71.2964569  52.5675521  61.0680274
  72.8550342  53.9201608  61.6608544  73.3079548  53.7671345  60.6812906
  72.2690521  54.8391866  61.6500631  73.8740342  54.0211608  62.6418544
  74.4460568  54.7635206  62.4337874  72.7230342  51.4511608  62.1218544
  72.9550342  50.7341608  61.1508544  73.1260342  51.1541608  63.3558544
  72.9570322  51.8114780  64.1038328  73.8710342  49.9301608  63.6618544
  74.4410784  49.6189788  62.7864604  74.8460342  50.1631608  64.8248544
  74.2525420  50.2400428  65.7358733  75.4933648  49.2883533  64.8862965
  75.6980342  51.4141608  64.6678544  76.1147266  51.3954089  63.6608208
  75.0326088  52.2714993  64.7692537  77.0380342  51.5611608  65.8598544
  77.0950342  53.3431608  66.0288544  76.1333949  53.7050864  66.3926657
  77.8771526  53.6166444  66.7370904  77.3092970  53.7938763  65.0598094
  72.9210342  48.7731608  63.9838544  73.0340342  47.6951608  63.3908544
  71.9810342  49.0071608  64.8998544  71.9193170  49.9265209  65.3134572
  71.0810342  47.9491608  65.4058544  71.6735690  47.0946184  65.7325944
  70.2430342  48.4521608  66.5978544  69.9439633  49.4903716  66.4537224
  69.3541868  47.8268827  66.6819830  70.9470342  48.3861608  67.9358544
  72.3390342  48.4831608  68.0538544  72.9427418  48.6014606  67.1540532
  72.9520342  48.4301608  69.2998544  74.0376652  48.4948014  69.3728453
  72.1850342  48.2951608  70.4508544  72.6668722  48.2560432  71.4277894
  70.8040342  48.2101608  70.3548544  70.1979229  48.1067918  71.2548789
  70.1920342  48.2571608  69.1048544  69.1067378  48.1930171  69.0266425
  70.1510342  47.3621608  64.3398544  69.9010342  46.1571608  64.3468544
  69.6500342  48.2051608  63.4368544  69.7983105  49.1980335  63.5478375
  68.8050342  47.7461608  62.3228544  68.2340294  46.8715602  62.6345057
  67.8220342  48.8451608  61.8878544  68.3707366  49.7139981  61.5243346
  67.1710286  48.4706157  61.0979128  66.9270342  49.3321608  62.9858544
  66.4970342  48.7301608  64.1198544  65.6870342  49.6271608  64.7738544
  65.2264121  49.3541615  65.7232740  65.6180342  50.7391608  64.0658544
  65.0907972  51.5690549  64.2969317  66.3640342  50.5911608  62.9838544
  66.4499635  51.4063765  62.2654250  69.5860342  47.2491608  61.0908544
  68.9700342  46.8901608  60.0918544  70.9210342  47.2351608  61.1548544
  71.3676462  47.5851433  61.9904077  71.7730342  46.7741608  60.0508544
  71.2030241  46.1248723  59.3863153  72.2850342  47.9731608  59.2438544
  72.8658919  48.6127997  59.9083584  72.9246129  47.6096635  58.4395479
  71.1680342  48.7921608  58.6398544  70.7070342  48.5021608  57.5448544
  70.7320342  49.8241608  59.3498544  69.9867139  50.4025297  58.9891790
  71.1473555  50.0268885  60.2479137  72.9550342  45.9541608  60.5788544
  74.1050342  46.2021608  60.2158544  72.6550342  44.9681608  61.4248544
  71.6888743  44.8316340  61.6856125  73.6780342  44.1111608  62.0558544
  74.3908871  44.7306559  62.6000656  73.0310342  43.1271608  63.0408544
  72.2238712  42.6205510  62.5117669  73.7928740  42.4001462  63.3221904
  72.4790342  43.7901608  64.2898544  73.3112768  43.9805834  64.9675065
  72.0251996  44.7370984  63.9975440  71.4440342  42.9281608  64.9898544
  70.7975098  42.4673408  64.2430278  71.9521310  42.1501331  65.5596000
  70.6140342  43.7171608  65.9078544  69.6922958  43.9545348  65.5699917
  70.9730342  44.1321608  67.1268544  72.1790342  43.8591608  67.6308544
  72.8422410  43.3272265  67.0855996  72.4225179  44.1858471  68.5550251
  70.1090342  44.8371608  67.8528544  69.1956737  45.0508134  67.4783880
  70.3705570  45.1553911  68.7750442  74.5300342  43.3321608  61.0548544
  75.7080342  43.0761608  61.3198544  73.9390342  42.9551608  59.9198544
  72.9362802  43.0412053  59.8351195  74.6770342  42.2831608  58.8348544
  75.1413868  41.3773245  59.2246447  73.7430342  41.8951608  57.6618544
  74.2589963  41.2587946  56.9428826  72.8865912  41.3595306  58.0713733
  73.1920342  43.0591608  56.8878544  72.1820342  43.8691608  57.3688544
  71.8960342  44.7971608  56.4698544  71.1271040  45.5440075  56.6675036
  72.6740342  44.6111608  55.4178544  72.6767945  45.1679171  54.5751714
  73.4900342  43.5281608  55.6508544  74.2041924  43.2104256  54.8911678
  75.8900342  43.0821608  58.3388544  76.9100342  42.4951608  57.9858544
  75.7790342  44.4101608  58.3408544  74.8861192  44.8321520  58.5523383
  76.8930342  45.2881608  57.9768544  77.3800238  44.9114557  57.0773914
  76.3910342  46.7131608  57.7028544  75.9673327  47.0101007  58.6622307
  77.2632483  47.3295322  57.4850728  75.3420342  46.9041608  56.5998544
  74.4316214  46.3673514  56.8664723  75.0310342  48.3841608  56.4478544
  75.9409357  48.9216016  56.1807671  74.2857293  48.5207427  55.6642941
  74.6430928  48.7730044  57.3893439  75.7930342  46.3141608  55.2688544
  75.9700762  45.2450451  55.3861033  75.0181591  46.4735128  54.5190033
  76.7138584  46.8013863  54.9482407  77.9960342  45.3261608  59.0428544
  79.1570342  45.5631608  58.7168544  77.6300342  45.0961608  60.3048544
  76.6518523  44.9451887  60.5060183  78.5740342  45.1511608  61.4328544
  79.4740356  45.6920856  61.1404555  77.9300342  45.8771608  62.6228544
  76.8915562  45.5602131  62.7188061  78.4612423  45.6653131  63.5507761
  77.9110342  47.3641608  62.4708544  76.9010342  47.9871608  61.7518544
  76.1103970  47.3841514  61.3053430  76.8920342  49.3671608  61.5988544
  76.0919990  49.8485255  61.0364201  77.9030342  50.1341608  62.1628544
  77.8994598  51.2175266  62.0428314  78.9170342  49.5201608  62.8788544
  79.7113663  50.1177345  63.3261153  78.9200342  48.1431608  63.0258544
  79.7206409  47.6562490  63.5826720  79.1350342  43.8101608  61.9048544
  80.1420342  43.8001608  62.6078544  78.5060342  42.6951608  61.5348544
  77.6948932  42.7464625  60.9352564  78.8980342  41.3831608  62.0648544
  78.8963757  41.4142184  63.1544102  77.9230342  40.2911608  61.6038544
  76.9434905  40.5461054  62.0083250  77.8881342  40.3330050  60.5152171
  78.3040342  38.8831608  62.0458544  78.9325555  38.4493933  61.2680963
  78.8765438  38.9683346  62.9694779  77.0920342  37.9851608  62.2798544
  76.2634760  38.3675425  61.6837215  77.3438253  36.9781218  61.9473289
  76.6850342  37.9481608  63.7528544  77.5413554  37.5878210  64.3229157
  76.4506225  38.9685135  64.0562199  75.5070342  37.0681608  64.0148544
  75.7241896  36.1225468  63.7342168  75.2870294  37.0847416  65.0004623
  74.7133235  37.4021397  63.4870473  80.3440342  41.0101608  61.7068544
  80.7140342  40.9951608  60.5338544  81.1380342  40.7301608  62.7458544
  80.7547880  40.9000676  63.6647414  82.5570342  40.3431608  62.6408544
  82.9949248  40.2808419  63.6370810  82.7000342  38.9701608  61.9528544
  82.2588450  39.0589346  60.9600954  83.7610481  38.7387743  61.8589935
  82.0040342  37.8551608  62.7188544  82.1810342  37.7781608  63.9598544
  81.2910342  37.0441608  62.0798544  83.4810342  41.3891608  61.9868544
  84.5090342  41.0351608  61.4088544  83.1300342  42.6681608  62.1118544
  82.2778957  42.9031928  62.6004433  83.9190342  43.7561608  61.5288544
  84.6180671  43.3521409  60.7965838  83.0080342  44.7691608  60.8288544
  82.3827880  45.2106766  61.6048893  83.6612094  45.5346734  60.4099836
  82.1250342  44.2001608  59.7298544  81.4636804  43.4610302  60.1819582
  81.5305505  45.0177969  59.3222244  82.9220342  43.5501608  58.6148544
  83.6836774  44.2525221  58.2761995  83.4033592  42.6544479  59.0074409
  82.0270342  43.1731608  57.4478544  81.1342577  42.6876130  57.8419280
  81.7424640  44.0856015  56.9238593  82.7160342  42.2521608  56.5018544
  82.9794248  41.4064287  56.9870991  82.0928277  42.0234223  55.7406761
  83.5430982  42.7020516  56.1362556  84.7560342  44.4841608  62.5788544
  84.4870342  44.4041608  63.7818544  85.7750342  45.1881608  62.0908544
  85.9823394  45.1068640  61.1057073  86.6200342  46.0521608  62.9058544
  86.5484384  45.8121474  63.9666875  88.1000342  45.9551608  62.4768544
  88.1832438  46.2535880  61.4318106  88.9770342  46.8651608  63.3378544
  88.8947008  46.5670313  64.3830534  90.0152038  46.7797510  63.0169033
  88.6471910  47.8982517  63.2281814  88.5690342  44.5071608  62.5518544
  87.9616795  43.8930770  61.8869308  89.6140116  44.4469466  62.2477226
  88.4673461  44.1442760  63.5746325  86.1100342  47.4831608  62.7408544
  86.1620342  48.0281608  61.6418544  85.6160342  48.0721608  63.8298544
  85.6427168  47.5694440  64.7054475  85.0050342  49.4051608  63.8118544
  84.8719651  49.7833748  62.7982736  83.6310342  49.4001608  64.5218544
  83.7726875  49.0760764  65.5528747  82.9980342  50.7901608  64.5078544
  82.8556352  51.1147510  63.4770952  82.0332705  50.7557295  65.0139630
  83.6528310  51.4933556  65.0224998  82.7050342  48.3771608  63.8788544
  83.1486010  47.3846249  63.9577413  81.7422917  48.3859703  64.3898816
  82.5602405  48.6273618  62.8278858  85.9240342  50.4221608  64.4938544
  86.4830342  50.1391608  65.5568544  86.0770342  51.5951608  63.8718544
  85.6991641  51.7020338  62.9413214  86.7860342  52.7311608  64.4688544
  87.2871662  52.4145727  65.3835882  87.8380342  53.2761608  63.4978544
  88.5203474  52.4344942  63.3789200  87.3364462  53.4732832  62.5504093
  88.6300342  54.5201608  63.9258544  87.9319129  55.3330122  64.1258544
  89.4410342  54.2311608  65.1758544  90.1397538  53.4186709  64.9764805
  89.9956548  55.1240862  65.4642655  88.7709343  53.9428862  65.9857706
  89.5340342  55.0001608  62.8028544  88.9294242  55.2526147  61.9317556
  90.0843204  55.8821607  63.1305166  90.2377756  54.2105303  62.5395469
  85.7840342  53.8321608  64.8148544  85.0830342  54.3321608  63.9288544
  85.7190342  54.2011608  66.0958544  86.2156992  53.6556129  66.7856376
  84.9110342  55.3371608  66.5568544  84.1606362  55.5884752  65.8072925
  84.1960342  54.9811608  67.8658544  83.6112364  54.0809469  67.6768418
  84.9616819  54.7665482  68.6113912  83.2680342  56.0961608  68.3888544
  83.1320342  57.1921608  67.7788544  82.6610342  55.8581608  69.4548544
  85.8170342  56.5611608  66.7318544  86.6280342  56.6121608  67.6528544
  85.6710342  57.5381608  65.8418544  84.9812977  57.4393162  65.1106960
  86.5100342  58.7351608  65.8458544  87.4965990  58.5367549  66.2646912
  86.6840342  59.2931608  64.4148544  85.6966146  59.4172285  63.9702098
  87.4090342  60.6321608  64.4218544  88.3967829  60.5087900  64.8659639
  87.5137220  60.9945907  63.3992179  86.8363180  61.3529728  65.0054020
  87.4340342  58.2871608  63.5578544  86.8712739  57.3546626  63.5148425
  87.5539985  58.6853349  62.5503002  88.4155904  58.0988259  63.9928006
  85.8810342  59.7811608  66.7688544  84.8340342  60.3511608  66.4428544
  86.5290342  60.0331608  67.9058544  87.4246022  59.5969977  68.0726452
  85.9930342  60.9201608  68.9268544  86.8006281  61.2568249  69.5768917
  85.5266558  61.7828563  68.4510951  84.9570342  60.1981608  69.7618544
  83.7760342  60.5391608  69.7298544  85.4070342  59.2021608  70.5198544
  86.4027294  59.0495637  70.5933702  84.5040342  58.2281608  71.1508544
  83.6584162  58.0261919  70.4934063  85.2470342  56.9051608  71.4178544
  84.6226883  56.2814376  72.0575894  85.4077848  56.4009335  70.4649567
  86.4970342  57.1291608  72.0508544  86.9339021  56.2879896  72.2030954
  83.7940342  58.7111608  72.4218544  82.7720342  58.1361608  72.7988544
  84.3380342  59.7441608  73.0728544  85.2322292  60.0949189  72.7606310
  83.6980342  60.3951608  74.2218544  84.3428655  61.2172471  74.5324440
  82.7419683  60.7927047  73.8812722  83.4570342  59.4771608  75.4128544
  84.4070342  58.9521608  75.9928544  82.1840342  59.2781608  75.7668544
  81.4514427  59.7829194  75.2887041  81.8070342  58.3711608  76.8548544
  82.4908655  58.4815509  77.6964528  80.3660342  58.6301608  77.3518544
  80.1244068  57.8937516  78.1182864  80.2280342  60.0241608  77.9298544
  80.4690697  60.7611767  77.1638198  79.2040932  60.1769190  78.2708952
  80.9115384  60.1385087  78.7711910  79.4430342  58.4591608  76.2718544
  78.5501979  58.6209683  76.5853221  81.8950342  56.8901608  76.4708544
  81.7580342  56.0251608  77.3418544  82.1000342  56.6011608  75.1828544
  82.2367957  57.3610661  74.5317480  82.1360342  55.2331608  74.6688544
  82.8573882  55.2008677  73.8523345  82.4713710  54.5809348  75.4752352
  80.7920342  54.7401608  74.1608544  80.6720342  53.5741608  73.8028544
  79.7880342  55.6211608  74.1098544  79.9548987  56.5718946  74.4071097
  78.4040342  55.2231608  73.7798544  78.0880762  54.3883636  74.4054609
  77.3920342  56.4011608  73.9348544  77.4726604  56.7855723  74.9516275
  77.6630342  57.5311608  72.9398544  77.5821258  57.1475942  71.9227845
  76.9335146  58.3276827  73.0863287  78.6668246  57.9244752  73.1005023
  75.9360342  55.9291608  73.7808544  75.3080516  56.8161082  73.8648955
  75.8451947  55.5140797  72.7770838  75.4900342  54.8971608  74.7958544
  75.5801576  55.3117098  75.7999095  74.4512299  54.6263672  74.6070273
  76.1173028  54.0096817  74.7120992  78.2730342  54.5621608  72.4028544
  77.6410342  53.5091608  72.2868544  78.8860342  55.1521608  71.3788544
  79.3687650  56.0300520  71.5068280  78.7850342  54.6061608  70.0228544
  77.7619708  54.2747090  69.8451463  79.1530342  55.6511608  68.9618544
  80.2128809  55.8261016  69.1468409  79.0255327  55.2068368  67.9747275
  78.3950342  56.9871608  69.0238544  78.6024735  57.4663873  69.9806259
  78.8320342  57.9081608  67.8888544  78.6244716  57.4297770  66.9316890
  78.2835043  58.8480138  67.9512410  79.9007981  58.1056596  67.9715488
  76.8870342  56.7941608  68.9968544  76.5818669  56.1922549  69.8528227
  76.3949966  57.7657098  69.0426002  76.6016909  56.2859680  68.0757582
  79.6280342  53.3371608  69.8598544  79.2590342  52.4561608  69.0798544
  80.7410342  53.2421608  70.5928544  81.0493325  54.0350239  71.1372987
  81.5530342  52.0161608  70.6248544  81.8870278  51.7820089  69.6140525
  82.7820342  52.1721608  71.5218544  82.4887050  52.5372010  72.5061322
  83.2973556  51.2175183  71.6276924  84.0070342  53.3341608  70.9038544
  84.8608377  53.1857611  71.9127624  80.7620342  50.8281608  71.1348544
  80.8600342  49.7311608  70.5818544  80.0000342  51.0541608  72.2028544
  80.0330379  51.9559485  72.6564941  79.2010342  49.9991608  72.8178544
  79.7922781  49.0860650  72.8870350  78.7540342  50.4031608  74.2318544
  78.2433525  51.3635582  74.1615676  78.0568707  49.6471087  74.5930308
  79.9260342  50.5201608  75.2038544  80.5026561  49.6003970  75.1056570
  80.5272607  51.3633570  74.8637824  79.4890342  50.7641608  76.9378544
  78.5960342  52.3171608  76.8338544  77.7346799  52.1982729  76.1765620
  78.2565061  52.6089017  77.8276897  79.2537156  53.0889843  76.4340483
  78.0160342  49.6031608  71.9358544  77.6550342  48.4281608  71.8988544
  77.4300342  50.5641608  71.2198544  77.6691546  51.5330413  71.3753899
  76.4110342  50.2531608  70.2148544  75.5952656  49.7111938  70.6932815
  75.8390342  51.5221608  69.5558544  76.6886842  52.1524221  69.2932428
  75.2698407  51.2872609  68.6564430  74.9320342  52.3611608  70.4368544
  74.2210342  51.8311608  71.5178544  74.3356172  50.7752364  71.7627919
  73.3770342  52.6321608  72.2758544  72.8371346  52.2063776  73.1216190
  73.2210342  53.9711608  71.9578544  72.5610432  54.6018622  72.5534444
  73.9030342  54.5061608  70.8848544  73.7810178  55.5595161  70.6325555
  74.7440342  53.7041608  70.1268544  75.2719223  54.1240985  69.2706497
  76.9900342  49.3581608  69.1208544  76.3700342  48.3581608  68.7458544
  78.1720342  49.7221608  68.6148544  78.5799355  50.6022399  68.8962378
  78.8700342  48.9241608  67.5918544  78.2035635  48.8468512  66.7328205
  80.1530342  49.6191608  67.1518544  80.8343150  49.6958445  67.9992482
  80.6256805  49.0415711  66.3574389  79.9180170  50.6178391  66.7837406
  79.1720342  47.4981608  68.0688544  78.9820342  46.5351608  67.3208544
  79.6250342  47.3731608  69.3138544  79.8528474  48.2043891  69.8404093
  79.8830342  46.0691608  69.9288544  80.5744437  45.5318005  69.2797811
  80.5330342  46.2431608  71.2938544  79.8490409  46.7717114  71.9578479
  80.7633222  45.2643731  71.7146186  81.4529555  46.8182009  71.1881524
  78.6100342  45.2201608  70.0478544  78.6260342  44.0351608  69.7128544
  77.5160342  45.8301608  70.5048544  77.5794896  46.7720153  70.8639962
  76.2320342  45.1271608  70.6178544  76.3907226  44.1525094  71.0793432
  75.2400342  45.9211608  71.4778544  75.1744484  46.9243755  71.0567154
  74.2710117  45.4289449  71.3952775  75.6410342  46.0121608  72.9498544
  76.3411354  45.2014559  73.1516383  76.1419334  46.9690614  73.0966307
  74.4550342  45.9081608  73.9028544  74.6908852  46.4861635  74.7963789
  73.5873304  46.3438153  73.4074811  74.1450342  44.4671608  74.2968544
  73.1815347  44.4659011  74.8065284  74.0706201  43.8842666  73.3788152
  75.1800342  43.8621608  75.1878544  75.2488405  44.4018855  76.0387731
  74.9182378  42.9126931  75.4116261  76.0728255  43.8628420  74.7156019
  75.6030342  44.7631608  69.2648544  74.8510342  43.7931608  69.1818544
  75.9310342  45.5241608  68.2178544  76.4358492  46.3831527  68.3833657
  75.5080342  45.2181608  66.8438544  74.4628352  44.9179293  66.9181467
  75.5950342  46.4661608  65.9778544  76.6367262  46.7738129  65.8865958
  75.1922163  46.2510516  64.9881241  75.0185757  47.2689419  66.4375688
  76.2790342  44.0651608  66.1778544  75.9590342  43.7031608  65.0448544
  77.2930342  43.5151608  66.8558544  77.6047982  43.9664862  67.7039157
  77.9780342  42.2841608  66.4278544  77.9422604  41.6068166  67.2810978
  77.3805469  41.8739769  65.6136938  79.4230342  42.4201608  65.9628544
  79.9830342  41.4611608  65.4218544  80.0390342  43.5831608  66.1758544
  79.5419132  44.3418913  66.6200368  81.4060342  43.8251608  65.7158544
  81.4626730  43.5360824  64.6664141  81.7610342  45.3021608  65.8338544
  81.7175855  45.6043476  66.8802269  82.7681002  45.4660851  65.4503871
  81.0517424  45.8941871  65.2554867  82.4160342  42.9731608  66.4798544
  82.2500342  42.7161608  67.6658544  83.4530342  42.5331608  65.7728544
  83.4941311  42.7580525  64.7890688  84.5210342  41.7051608  66.3418544
  84.0943549  40.9103655  66.9536913  85.3440342  41.0661608  65.2098544
  84.6725784  40.3832977  64.6893312  85.6270986  41.8778285  64.5396529
  86.5920342  40.3131608  65.6498544  87.3746275  41.0403164  65.8664031
  86.3556963  39.7540499  66.5551949  87.0770342  39.3511608  64.5708544
  87.9981145  38.8811390  64.9155131  86.3141287  38.5872990  64.4205551
  87.3390342  40.0141608  63.2858544  86.6104796  39.9279024  62.5916880
  88.4460342  40.6981608  62.9688544  89.4440342  40.8621608  63.8438544
  89.3707175  40.4641910  64.7692434  90.2664991  41.3832386  63.5752858
  88.5530342  41.2391608  61.7538544  87.8022649  41.1287247  61.0873340
  89.3843072  41.7566280  61.5062425  85.4220342  42.5481608  67.2428544
  85.7330342  42.1591608  68.3708544  85.8340342  43.6981608  66.7118544
  85.5224949  43.9218024  65.7774953  86.7180342  44.6381608  67.3888544
  86.7766199  44.4077342  68.4526074  88.1240342  44.5301608  66.7858544
  88.3430039  43.4671477  66.6850840  88.0788694  44.9866169  65.7970632
  89.2200342  45.1981608  67.6028544  88.8946338  46.2108025  67.8411233
  89.3472506  44.6314790  68.5252371  90.5490342  45.2541608  66.8528544
  90.3423495  45.6002652  65.8401392  91.1848371  45.9789605  67.3613025
  91.2610342  43.9071608  66.7938544  90.5918061  43.1986358  66.3057697
  92.1597364  44.0324897  66.1899287  91.6360342  43.3891608  68.1408544
  90.8033752  43.2725493  68.7004797  92.1022251  42.4987358  68.0413079
  92.2564956  44.0453472  68.5931221  86.1670342  46.0591608  67.2178544
  85.7680342  46.4411608  66.1208544  86.1260342  46.8261608  68.3038544
  86.3328623  46.4179027  69.2042137  85.7660342  48.2461608  68.2508544
  85.6945753  48.5979941  67.2216770  84.4270342  48.5441608  68.9698544
  84.5261088  48.2845612  70.0238428  84.0660342  50.0221608  68.8418544
  83.9663273  50.2824174  67.7880869  83.1223339  50.2118248  69.3532816
  84.8513588  50.6288887  69.2926849  83.3020342  47.6701608  68.4228544
  83.5513991  46.6197777  68.5732361  82.3743394  47.9013691  68.9463280
  83.1756568  47.8641637  67.3577288  86.8910342  49.0401608  68.9078544
  87.2760342  48.7451608  70.0318544  87.4240342  50.0291608  68.1978544
  87.1205573  50.1694885  67.2448018  88.4540342  50.9181608  68.7358544
  88.6908288  50.6322679  69.7606924  89.7420342  50.8951608  67.8848544
  89.4866459  51.1254033  66.8505113  90.7480342  51.9251608  68.4028544
  91.0042755  51.6952894  69.4370692  91.6490483  51.8937479  67.7902472
  90.3084367  52.9212237  68.3507781  90.3660342  49.4901608  67.9018544
  90.8706550  49.3756104  68.8611963  89.5461688  48.7749580  67.8354828
  91.3510342  49.2341608  66.7798544  92.1714797  49.9487334  66.8458475
  91.7444064  48.2211979  66.8650827  90.8469936  49.3480834  65.8201334
  87.8960342  52.3331608  68.7728544  87.4450342  52.8431608  67.7538544
  87.9150342  52.9521608  69.9508544  88.1971370  52.4385841  70.7735065
  87.5420342  54.3541608  70.1048544  87.0382576  54.7005702  69.2024638
  86.8732336  54.4637727  70.9585466  88.7770342  55.1991608  70.3348544
  89.6520342  54.8011608  71.1028544  88.8640342  56.3431608  69.6568544
  88.1882117  56.5405010  68.9326859  89.9270342  57.3261608  69.9038544
  90.6070381  56.9281251  70.6570221  90.7220342  57.6841608  68.6318544
  90.0387645  58.0891163  67.8853600  91.7950342  58.7221608  68.9558544
  92.4790001  58.3177256  69.7019934  92.3497350  58.9669828  68.0500564
  91.3230533  59.6234499  69.3470207  91.3800342  56.4341608  68.0308544
  92.1776814  56.1304540  68.7088086  90.6194305  55.6543187  67.9930682
  91.9520342  56.6501608  66.6418544  92.7130902  57.4295959  66.6789287
  92.3995849  55.7227848  66.2844031  91.1548390  56.9534630  65.9631885
  89.2950342  58.5921608  70.4718544  88.3580342  59.1351608  69.8818544
  89.8240342  59.0511608  71.6058544  90.5998826  58.5474409  72.0113478
  89.3190342  60.2331608  72.3098544  88.8613966  60.9251628  71.6028889
  88.2570342  59.8091608  73.3408544  87.4337946  59.3792690  72.7702681
  88.7188976  59.0336329  73.9518689  87.7250342  60.9181608  74.2438544
  86.9167610  60.4929852  74.8388510  88.5278901  61.2460678  74.9041563
  87.2030342  62.1031608  73.4568544  86.1530342  61.9661608  72.7948544
  87.8510342  63.1651608  73.4878544  90.4790342  60.9521608  73.0038544
  91.2150342  60.3271608  73.7758544  90.6160342  62.2521608  72.7308544
  89.9662315  62.6780358  72.0854970  91.7020342  63.0771608  73.2698544
  92.5922559  62.4674845  73.4244485  92.0440342  64.2031608  72.2878544
  92.7820454  64.8702646  72.7332882  92.4458837  63.7807199  71.3668980
  90.6520342  65.2521608  71.7938544  91.3540690  66.0448448  70.9890579
  91.3790342  63.6691608  74.6428544  92.2820342  63.8861608  75.4518544
  90.0990342  63.9441608  74.8898544  89.4217441  63.7807439  74.1586415
  89.6250342  64.4831608  76.1688544  90.2205837  65.3504586  76.4538358
  88.1680342  64.9131608  76.0418544  88.0916768  65.6687459  75.2599594
  87.5683096  64.0452991  75.7675435  87.6940342  65.4461608  77.2578544
  86.7766631  65.7099339  77.1556104  89.7230342  63.4671608  77.3008544
  89.6820342  62.2581608  77.0638544  89.7980342  63.9801608  78.5318544
  89.8675269  64.9818371  78.6410089  89.8830342  63.1421608  79.7328544
  90.5653609  62.3114155  79.5528773  90.4030342  63.9541608  80.9278544
  90.6638431  63.2591122  81.7259681  91.2951320  64.4947773  80.6116338
  89.4350342  64.8761608  81.4018544  89.7950740  65.3636480  82.1463860
  88.5520342  62.4571608  80.0888544  88.4960342  61.6601608  81.0318544
  87.4780342  62.7631608  79.3468544  87.4926018  63.5826524  78.7566674
  86.2300342  61.9811608  79.4268544  85.8432643  61.9365104  80.4449480
  85.1310342  62.5441608  78.4788544  85.0444552  63.6164885  78.6541189
  85.4650342  62.2941608  77.0098544  85.5513220  61.2219543  76.8337055
  84.6730007  62.7023958  76.3820585  86.4095202  62.7794331  76.7637728
  83.7400342  61.9811608  78.8198544  83.1107999  62.1234742  77.9412693
  83.8619760  60.9148081  79.0099113  83.0880342  62.6351608  80.0178544
  82.9653310  63.7015233  79.8283424  82.1117637  62.1830465  80.1927479
  83.7165088  62.4928589  80.8969845  86.5130342  60.4971608  79.1208544
  85.8370342  59.6101608  79.6368544  87.5220342  60.2561608  78.2798544
  87.9002534  61.0453205  77.7755960  88.0700342  58.9211608  77.9978544
  87.3657441  58.3384855  77.4040834  89.3780342  59.0681608  77.2038544
  89.1940409  59.7205491  76.3502531  90.1280142  59.5215337  77.8519925
  89.8470342  57.8131608  76.7458544  90.6627419  57.9361800  76.2548481
  88.3350342  58.0411608  79.2298544  88.1450342  56.8321608  79.1708544
  88.7850342  58.6471608  80.3248544  89.0080511  59.6313371  80.2829050
  89.0110342  57.9311608  81.5978544  89.7573609  57.1509278  81.4484148
  89.5130342  58.8881608  82.6908544  88.7456913  59.6460832  82.8484545
  89.6388678  58.3041973  83.6025849  90.8290342  59.5651608  82.3368544
  91.5710342  59.0481608  81.4668544  91.1140342  60.6271608  82.9358544
  87.7480342  57.2341608  82.1068544  87.8150342  56.1241608  82.6388544
  86.6080342  57.9011608  81.9398544  86.6444328  58.8588302  81.6210382
  85.3090342  57.3401608  82.2988544  85.3950195  56.7719338  83.2250422
  84.2810342  58.4581608  82.5038544  84.1837669  59.0682199  81.6058198
  83.3298552  57.9696954  82.7154203  84.6640342  59.3341608  83.6658544
  84.5020342  58.8861608  84.9768544  84.0709365  57.8993818  85.1457377
  84.8790342  59.6731608  86.0568544  84.7421201  59.3148977  87.0771504
  85.4370342  60.9201608  85.8298544  85.8130342  61.7061608  86.9028544
  85.6421796  61.2898756  87.7508609  85.6150342  61.3831608  84.5378544
  86.0468683  62.3683482  84.3617135  85.2410342  60.5871608  83.4638544
  85.3971807  60.9391915  82.4441521  84.8190342  56.3161608  81.2798544
  84.2140342  55.3161608  81.6648544  85.0870342  56.5551608  79.9958544
  85.4919603  57.4400464  79.7254626  84.7340342  55.5981608  78.9378544
  83.6490135  55.4957498  78.9563282  85.1490342  56.1261608  77.5738544
  86.2338692  56.2254562  77.5367936  84.8215939  55.4319418  76.7999403
  84.6895915  57.1001639  77.4055407  85.3350342  54.2081608  79.1648544
  84.6700342  53.2021608  78.9298544  86.5810342  54.1681608  79.6318544
  87.0986733  55.0298362  79.7301632  87.2680342  52.9071608  79.9268544
  87.2102155  52.2196789  79.0829795  88.7650342  53.1321608  80.2828544
  88.8247102  53.9075923  81.0465585  89.4170342  51.8541608  80.8038544
  89.3581539  51.0783503  80.0404723  90.4624658  52.0500910  81.0421499
  88.8967428  51.5201089  81.7015224  89.5330342  53.6491608  79.0708544
  89.1021036  54.5953471  78.7435436  90.5784196  53.8003866  79.3399266
  89.4682381  52.9217682  78.2616558  86.5410342  52.1541608  81.0498544
  86.2810342  50.9611608  80.9198544  86.2110342  52.8571608  82.1318544
  86.5355279  53.8095295  82.2201544  85.4360342  52.2791608  83.2398544
  85.9204940  51.3671781  83.5886888  85.3420342  53.2621608  84.4108544
  84.9633495  54.2021139  84.0093755  84.6192185  52.8512862  85.1157086
  86.6600342  53.5111608  85.1248544  86.9361316  52.6142179  85.6792590
  87.4278183  53.7296422  84.3826445  86.5370342  54.6801608  86.0838544
  86.2822739  55.5718939  85.5111345  85.7376755  54.4634281  86.7924812
  87.8310342  54.9171608  86.8388544  88.0101012  54.0775895  87.5105356
  88.6511792  54.9918516  86.1247936  87.7460342  56.1741608  87.6288544
  86.9864014  56.1049898  88.2908763  88.6134374  56.3188766  88.1256130
  87.5805354  56.9523072  87.0066025  84.0240342  51.8601608  82.8228544
  83.5410342  50.8061608  83.2478544  83.3720342  52.6861608  82.0048544
  83.7831058  53.5814720  81.7822847  82.0260342  52.3901608  81.4918544
  81.3625225  52.1588704  82.3251347  81.4480342  53.5851608  80.6868544
  82.2225066  53.9496232  80.0119766  80.2160342  53.1831608  79.8778544
  79.4409014  52.8190026  80.5521381  79.8428056  54.0480183  79.3293814
  80.4841307  52.3952316  79.1740142  81.0720342  54.7181608  81.6478544
  80.1090582  54.4544927  82.0851839  81.8325542  54.7352536  82.4285058
  80.9770342  56.0851608  81.0068544  80.2163349  56.0689738  80.2263582
  80.7063919  56.8231168  81.7620185  81.9398310  56.3497337  80.5696779
  82.0250342  51.1061608  80.6588544  81.1850342  50.2271608  80.8708544
  82.9700342  51.0111608  79.7248544  83.5554563  51.8122468  79.5360651
  83.1350342  49.8141608  78.8868544  82.2264382  49.5745001  78.3344820
  84.3010342  49.9911608  77.8728544  85.1362258  50.4575491  78.3953831
  84.7540342  48.6611608  77.2748544  83.9194425  48.1943633  76.7517314
  85.5695187  48.8366442  76.5732198  85.0969617  48.0017401  78.0721416
  83.8950342  50.9531608  76.7648544  83.6490386  51.9230679  77.1971371
  84.7203300  51.0679359  76.0621360  83.0246461  50.5581915  76.2409035
  83.3360342  48.5581608  79.7468544  82.7190342  47.5261608  79.4828544
  84.1900342  48.6601608  80.7638544  84.7193611  49.5128544  80.8771067
  84.4400342  47.5581608  81.6968544  84.7106042  46.6583223  81.1444218
  85.5900342  47.9151608  82.6448544  86.4210895  48.2409719  82.0193199
  85.2450839  48.7506833  83.2539614  86.0530342  46.7791608  83.5548544
  85.1814182  46.3313758  84.0322169  86.5619672  46.0278964  82.9509577
  87.0050342  47.3011608  84.6238544  87.9837190  47.4349584  84.1630146
  86.6289900  48.2661890  84.9635760  87.1290342  46.3571608  85.8138544
  87.5220357  46.9165862  86.6627911  86.1385626  45.9738696  86.0591155
  88.0350342  45.2241608  85.5068544  88.9529966  45.5790889  85.2799824
  88.0983505  44.6163137  86.3109769  87.6708265  44.7054017  84.7205079
  83.1870342  47.1921608  82.5088544  82.8710342  46.0121608  82.6608544
  82.4840342  48.2061608  83.0138544  82.8244478  49.1482950  82.8850093
  81.2770342  48.0061608  83.8318544  81.5669516  47.3528429  84.6547899
  80.7990342  49.3361608  84.4098544  80.4966267  49.9979166  83.5982333
  79.9502031  49.1614982  85.0709739  81.6085632  49.7998496  84.9735519
  80.1350342  47.3171608  83.0758544  79.3350342  46.6031608  83.6838544
  80.0710342  47.5221608  81.7608544  80.6962784  48.1917646  81.3356488
  79.0560342  46.8861608  80.9168544  78.2130919  46.5532972  81.5224526
  78.5490342  47.8961608  79.8868544  79.3915375  48.2839402  79.3142161
  77.8578329  47.3866457  79.2154863  77.8270342  49.0591608  80.5328544
  76.7010342  48.9161608  80.9878544  78.4760342  50.2111608  80.5868544
  78.0354392  51.0162068  81.0086087  79.4089642  50.2800261  80.2060656
  79.5410342  45.5961608  80.2338544  78.8850342  45.1031608  79.3158544
  80.6650342  45.0451608  80.7028544  81.2006731  45.5775596  81.3734823
  81.2300342  43.7791608  80.2048544  82.2195540  43.6252533  80.6352756
  80.3360342  42.5921608  80.5928544  79.3960342  42.7137665  80.0546061
  80.8388204  41.6895459  80.2455900  80.0550342  42.4741608  82.0828544
  80.8856890  42.9252342  82.6256677  79.1380191  43.0204662  82.3036160
  79.8960342  41.0171608  82.5148544  79.4631512  40.4656430  81.6802650
  80.8881136  40.6227907  82.7347413  79.0050342  40.8631608  83.7418544
  77.9726547  40.9925942  83.4169850  79.1414339  39.8509015  84.1224140
  79.3130342  41.8451608  84.8208544  79.1862880  42.7831998  84.4685508
  78.6919383  41.6922911  85.6025005  80.2694869  41.7251068  85.1223249
  81.5340342  43.7641608  78.6968544  81.3360342  42.7481608  78.0208544
  82.0260342  44.8921608  78.1858544  82.1061012  45.7045245  78.7806265
  82.3650342  45.0341608  76.7638544  82.1584007  44.1057764  76.2314033
  81.5180342  46.1531608  76.1448544  81.6862881  47.0021143  76.8074763
  81.8999668  46.3872340  75.1511556  80.0140342  45.8621608  76.0588544
  79.6572380  45.5409072  77.0374214  79.2570342  47.1101608  75.6278544
  79.6129829  47.4317690  74.6490963  78.1914111  46.8879957  75.5713676
  79.4237831  47.9057943  76.3539829  79.7120342  44.7001608  75.1188544
  80.2130273  43.8014581  75.4786306  78.6362041  44.5278385  75.0872976
  80.0706823  44.9393566  74.1177271  83.8620342  45.2731608  76.5028544
  84.2510342  45.5381608  75.3668544  84.6970342  45.1511608  77.5358544
  84.3229908  45.0131373  78.4638309  86.1440342  45.3971608  77.3948544
  86.2953310  46.2878777  76.7850742  86.8320342  45.6121608  78.7628544
  87.8975273  45.7016626  78.5511630  86.4684729  46.5443526  79.1952219
  86.6040342  44.4711608  79.7498544  85.5170342  43.8451608  79.7288544
  87.5100342  44.2211608  80.5778544  86.8980342  44.3561608  76.5398544
  88.0080342  44.6371608  76.0808544  86.3000342  43.1791608  76.3318544
  85.4746980  42.9650603  76.8732234  86.8340342  42.1421608  75.4338544
  87.9151789  42.0731153  75.5540965  86.2120342  40.7651608  75.7588544
  86.7551811  39.9572964  75.2685017  86.2523954  40.6260824  76.8391915
  84.7700342  40.6181608  75.3598544  83.7610342  41.3991608  75.8848544
  82.6050342  41.0331608  75.3628544  81.6828382  41.5408905  75.6454565
  82.8230342  40.0331608  74.5268544  82.1230772  39.5497405  73.9823686
  84.1670342  39.7491608  74.5128544  84.5470284  38.9420711  73.8865064
  86.6540342  42.4741608  73.9448544  87.3340342  41.9071608  73.0908544
  85.7160342  43.3751608  73.6348544  85.1287256  43.7249992  74.3783468
  85.4500342  43.8361608  72.2558544  86.0231392  43.2735745  71.5188696
  83.9400342  43.7091608  71.9128544  83.3722235  44.2450086  72.6734840
  83.6130342  44.2851608  70.5318544  84.1801612  43.7494715  69.7706022
  82.5467195  44.1746598  70.3347174  83.8791786  45.3418548  70.5060362
  83.5070342  42.2551608  71.9888544  83.6772729  41.8770354  72.9968931
  82.4470971  42.1780288  71.7466075  84.0855842  41.6655784  71.2776769
  85.9150342  45.2881608  72.0218544  86.4970342  45.5891608  70.9718544
  85.6440342  46.1751608  72.9828544  85.2105070  45.8449602  73.8332197
  85.9320342  47.6101608  72.8598544  86.0778439  47.9200733  71.8250631
  84.7860342  48.4561608  73.4738544  84.6485065  48.1530586  74.5117920
  85.1060342  49.9471608  73.4178544  85.2432502  50.2511228  72.3801262
  84.2834399  50.5125426  73.8557842  86.0203151  50.1443469  73.9775952
  83.4530342  48.1731608  72.7838544  83.2020760  47.1183713  72.8958422
  82.6715965  48.7822531  73.2382345  83.5328330  48.4166157  71.7243910
  87.2390342  47.9631608  73.5738544  87.4020342  47.6401608  74.7488544
  88.1630342  48.6161608  72.8698544  88.0723261  48.6719407  71.8654840
  89.3270342  49.2511608  73.4998544  89.2783453  49.1056885  74.5790052
  90.6820342  48.7091608  72.9888544  91.4777311  49.3537464  73.3623195
  90.9200342  47.2811608  73.4648544  90.1249326  46.6358530  73.0913696
  91.8804610  46.9278384  73.0895640  90.9251786  47.2569615  74.5545739
  90.7160342  48.7481608  71.5618544  91.5597212  48.4103564  71.2525312
  89.2830342  50.7471608  73.2288544  88.9440342  51.1701608  72.1288544
  89.6280342  51.5351608  74.2418544  89.8556166  51.1134687  75.1309446
  89.6830342  52.9841608  74.1318544  89.2478344  53.3409232  73.1983551
  88.9730342  53.6631608  75.3228544  89.4466322  53.3354163  76.2482672
  89.0660342  55.1761608  75.2148544  88.5922047  55.5047192  74.2898487
  88.5590222  55.6334374  76.0645236  90.1136743  55.4770667  75.2126164
  87.5090342  53.2021608  75.4418544  87.5398188  52.1277940  75.6232081
  87.0991787  53.7062484  76.3170765  86.6320342  53.4861608  74.2388544
  87.0410271  52.9819871  73.3632783  85.6230575  53.1205969  74.4297161
  86.6003890  54.5604420  74.0571453  91.1530342  53.4001608  74.1018544
  91.9500342  52.9321608  74.9198544  91.4970342  54.2671608  73.1498544
  90.8113749  54.5083086  72.4485568  92.8210342  54.8781608  73.0628544
  93.4997242  54.4222783  73.7837221  93.4190342  54.7501608  71.6378544
  92.7016172  55.1465933  70.9193459  94.7340342  55.5251608  71.5258544
  95.4521560  55.1289645  72.2437892  95.1336348  55.4199058  70.5172209
  94.5541771  56.5793453  71.7366755  93.6370342  53.2721608  71.2788544
  94.5012944  52.9303508  71.8483463  92.7495120  52.7307425  71.6063754
  93.8700342  53.0141608  69.8048544  94.7577214  53.5549190  69.4766899
  94.0143787  51.9462966  69.6407509  93.0059392  53.3553131  69.2347186
  92.6760342  56.3541608  73.4308544  91.8960342  57.0711608  72.8018544
  93.4250342  56.8011608  74.4438544  93.9541089  56.1507793  75.0070447
  93.4530342  58.2121608  74.8078544  92.4983044  58.6697945  74.5486989
  93.6940342  58.4001608  76.3028544  92.9588684  57.7975480  76.8362288
  94.6955336  58.0327450  76.5266953  93.5760342  59.8531608  76.7448544
  94.4082273  60.4110391  76.3155209  92.6363001  60.2525633  76.3634367
  93.6050342  59.9851608  78.2538544  92.8412297  59.3329183  78.6772707
  94.5863462  59.6759400  78.6137275  93.3390342  61.4171608  78.6788544
  94.0998778  62.0637828  78.2417073  92.3558425  61.7175755  78.3166609
  93.3790342  61.5371608  80.1638544  94.2901396  61.2592461  80.4996373
  93.2002606  62.4951656  80.4291218  92.6738088  60.9383872  80.5691029
  94.5230342  58.9481608  74.0008544  95.7170342  58.7921608  74.2448544
  94.0820342  59.7531608  73.0408544  93.0925058  59.8027757  72.8447135
  94.9850342  60.5781608  72.2498544  95.4633389  61.3022074  72.9094606
  95.7446810  59.9353681  71.8050469  94.2600342  61.3201608  71.1468544
  93.0690342  61.1091608  70.9188544  94.9910342  62.2001608  70.4718544
  95.9037328  62.4604799  70.8172739  94.5050342  62.8371608  69.2468544
  93.4836614  63.1845520  69.4024694  95.3800342  64.0421608  68.8508544
  96.3255776  63.9290337  69.3811838  95.5540829  63.9623289  67.7778055
  94.7820342  65.4031608  69.1668544  93.9042749  65.5543626  68.5385412
  94.4849075  65.4201373  70.2154389  95.7940342  66.5201608  68.9058544
  96.2628404  66.7705169  69.8575064  96.5476322  66.1302550  68.2216300
  95.1610342  67.7741608  68.3048544  94.1691727  67.8936600  68.7407800
  95.7816215  68.6283934  68.5755152  95.0450342  67.6951608  66.8218544
  94.4696671  66.9039258  66.5708571  94.6227414  68.5431374  66.4715625
  95.9640479  67.5848576  66.4176933  94.4990342  61.8111608  68.1138544
  95.4470342  61.0361608  67.9758544  93.4460342  61.8271608  67.2978544
  92.6699257  62.4386675  67.5071733  93.3420342  60.9441608  66.1248544
  93.3756113  59.8896866  66.3988177  92.0370342  61.2091608  65.3388544
  91.9173184  62.2872448  65.2316062  92.0580342  60.5601608  63.9578544
  92.1772657  59.4819437  64.0643101  91.1217074  60.7724489  63.4417863
  92.8901533  60.9618707  63.3796601  90.8300342  60.7261608  66.1318544
  90.7840201  61.2560492  67.0832760  89.9201507  60.9204298  65.5639890
  90.9207619  59.6557898  66.3167200  94.5480342  61.1181608  65.2008544
  95.1150342  60.1341608  64.7228544  94.9570342  62.3691608  64.9978544
  94.4535245  63.1267041  65.4368367  96.0500342  62.7001608  64.0868544
  95.9646575  62.1037111  63.1785275  96.0060342  64.1901608  63.7028544
  96.1004424  64.7559391  64.6297208  96.8757422  64.3776738  63.0731347
  94.7380342  64.6281608  62.9648544  95.0345913  65.4601473  62.3261422
  94.4143885  63.7921737  62.3447914  93.5820342  65.0681608  63.8738544
  93.6460342  64.8321608  65.1078544  92.5940342  65.6381608  63.3438544
  97.4500342  62.3431608  64.6198544  98.4250342  62.4801608  63.8788544
  97.5510342  61.9051608  65.8818544  96.7085718  61.8481634  66.4360274
  98.8350342  61.5551608  66.5218544  99.6602636  61.7229058  65.8297870
  99.0470342  62.4341608  67.7588544  98.1471601  62.3459361  68.3675761
  99.8948536  62.0166897  68.3020120  99.3120342  63.9011608  67.4558544
 100.2796139  63.9694689  66.9586378  98.5306078  64.2439896  66.7776655
  99.3200342  64.7761608  68.7058544  99.4090342  64.2321608  69.8358544
  99.2390342  66.0211608  68.5558544  99.0010342  60.0861608  66.9478544
 100.0840342  59.7161608  67.3878544  97.9640342  59.2571608  66.8278544
  97.0800995  59.5999562  66.4796447  98.0350342  57.8611608  67.3038544
  98.9751751  57.6447719  67.8112105  96.8590342  57.4791608  68.2508544
  96.9793898  56.4416009  68.5624364  96.8440342  58.3811608  69.4818544
  96.7232372  59.4189117  69.1710780  96.0150999  58.0978248  70.1304599
  97.7830399  58.2718785  70.0244660  95.5060342  57.4971608  67.5468544
  95.5152931  56.7840993  66.7225003  94.7238372  57.2231676  68.2548058
  95.3107270  58.4970978  67.1594504  98.1290342  56.8591608  66.1518544
  97.7850342  57.1741608  65.0088544  98.6190342  55.6621608  66.4748544
  99.0150533  55.5424684  67.3962349  98.6120342  54.5131608  65.5678544
  98.2812645  54.8275912  64.5779938 100.0170342  53.9121608  65.4468544
 100.3212573  53.6347719  66.4561130  99.9161549  53.0134280  64.8384114
 101.0710342  54.8261608  64.8318544 101.1292686  55.7110395  65.4656518
 102.0208807  54.2925411  64.8656309 100.7760342  55.2481608  63.3958544
 101.2680342  56.3211608  62.9848544 100.0550342  54.5271608  62.6708544
  97.6620342  53.4611608  66.1238544  97.5240342  53.3361608  67.3378544
  96.9950342  52.7231608  65.2388544  97.0648455  52.9424018  64.2554119
  96.1260342  51.6071608  65.6448544  95.7232062  51.7993066  66.6392933
  94.9570342  51.4431608  64.6658544  95.4488277  51.3075476  63.7026060
  94.4399954  50.5241321  64.9418203  93.9430342  52.5891608  64.5648544
  94.4575129  53.4989018  64.2553648  92.8730342  52.2431608  63.5478544
  92.3577730  51.3337205  63.8569224  92.1561471  53.0615335  63.4812238
  93.3348703  52.0851355  62.5732592  93.2880342  52.9091608  65.8968544
  94.0521092  53.2016377  66.6170947  92.5798249  53.7274657  65.7667857
  92.7613127  52.0284154  66.2642110  96.9440342  50.3141608  65.7008544
  98.0050342  50.2351608  65.0888544  96.4600342  49.3001608  66.4438544
  95.2690342  49.3051608  67.3158544  94.4105158  49.6614863  66.7465756
  95.4465691  49.9715834  68.1599286  95.1260342  47.8741608  67.7378544
  94.4173119  47.3702867  67.0806462  94.7618452  47.8323809  68.7643641
  96.4820342  47.2781608  67.6318544  96.4021931  46.2124781  67.4172740
  97.0786816  47.4232163  68.5324489  97.1340342  47.9971608  66.4538544
  98.1985170  48.1819098  66.5982240  96.9260342  47.1871608  65.1668544
  97.6840342  46.2481608  64.9058544  95.8910342  47.5401608  64.4018544
  95.2517876  48.2360832  64.7584426  95.5960342  46.9261608  63.1088544
  96.2908810  46.1166250  62.8853839  94.1520342  46.3711608  63.0428544
  93.9659732  45.9720744  62.0457533  93.9720342  45.2681608  64.0708544
  94.1574915  45.6666265  65.0683170  92.9535240  44.8836137  64.0173670
  94.6756980  44.4613570  63.8658506  93.1000342  47.4611608  63.2518544
  93.2045416  48.2209913  62.4773625  92.1043005  47.0212178  63.1964986
  93.2403445  47.9193190  64.2308871  95.8380342  47.9541608  62.0088544
  95.7260342  49.1611608  62.2398544  96.1710342  47.4681608  60.8188544
  96.2293342  46.4672805  60.6966289  96.5280342  48.3271608  59.6888544
  97.2206418  49.1063660  60.0070260  97.2080342  47.4791608  58.6048544
  98.0091672  46.9362561  59.1063917  96.4533518  46.7733744  58.2578386
  97.7790342  48.2401608  57.4118544  98.1331298  47.4858077  56.7092389
  96.9627562  48.8029824  56.9590618  98.9180342  49.1871608  57.7548544
  99.2470342  50.0391608  56.9048544  99.4990342  49.0831608  58.8528544
  95.3230342  49.0821608  59.1008544  95.4490342  50.2511608  58.7238544
  94.1750342  48.4041608  59.0158544  94.1556680  47.4488347  59.3430797
  92.9380342  48.9781608  58.4678544  93.0223380  50.0644996  58.4385275
  92.6770342  48.4681608  57.0448544  92.5870417  47.3844317  57.1192306
  91.7205824  48.8914416  56.7380430  93.7380342  48.8181608  56.0168544
  94.7099279  48.5217635  56.4114075  93.5307429  48.2585276  55.1047453
  93.7500342  50.3081608  55.7058544  92.7841490  50.5810632  55.2807792
  93.9045814  50.8549193  56.6360532  94.8530342  50.6601608  54.7228544
  95.7759516  50.1711128  55.0345534  94.5715547  50.3056347  53.7313002
  95.0620342  52.1341608  54.6818544  95.3232872  52.4628127  55.6004591
  95.7974656  52.3517467  54.0246657  94.2070787  52.5874850  54.3926360
  91.7320342  48.6131608  59.3188544  91.7620342  47.6411608  60.0788544
  90.6680342  49.4001608  59.1548544  90.7795630  50.2494551  58.6197283
  89.3700342  49.1341608  59.7688544  89.3363289  48.1465966  60.2289414
  88.9970342  50.1921608  60.8388544  88.0794982  49.8842323  61.3402594
  90.1170342  50.3231608  61.8648544  91.0348485  50.6315309  61.3642290
  89.8420991  51.0693046  62.6103613  90.2760601  49.3624385  62.3545738
  88.6790342  51.5511608  60.2148544  87.8372121  51.4490500  59.5300107
  88.4231316  52.2615535  61.0009560  89.5497174  51.9131622  59.6680760
  88.3070342  49.0641608  58.6788544  88.4530342  49.6711608  57.6128544
  87.2440342  48.3171608  58.9638544  87.1922880  47.8790278  59.8724034
  86.1580342  48.0721608  58.0118544  86.5540140  48.0451822  56.9966838
  85.4810342  46.7281608  58.3098544  85.0400471  46.7965201  59.3043174
  84.6925124  46.5750346  57.5730466  86.4540342  45.5531608  58.2648544
  87.1290342  45.3771608  57.2208544  86.5330342  44.8071608  59.2718544
  85.1110342  49.1781608  58.0558544  84.5410342  49.5361608  57.0318544
  84.8440342  49.6971608  59.2528544  85.3495202  49.3593299  60.0593614
  83.8230342  50.7201608  59.4548544  83.5206066  51.1699617  58.5091716
  82.5790342  50.1391608  60.1708544  82.8812763  49.7420316  61.1398944
  81.5200342  51.2251608  60.3728544  81.2169373  51.6224737  59.4041567
  80.6530956  50.7986188  60.8774136  81.9346708  52.0290490  60.9810808
  82.0080342  48.9501608  59.3818544  81.6457825  49.3460709  58.4331028
  82.8370549  48.2670202  59.1970758  80.8880342  48.2071608  60.0788544
  80.0584107  48.8895882  60.2635638  80.5485325  47.3856819  59.4479739
  81.2496830  47.8105392  61.0275384  84.3910342  51.8721608  60.2818544
  85.1020342  51.6491608  61.2598544  84.0870342  53.0971608  59.8668544
  83.7173415  53.2255488  58.9357566  84.3170342  54.2801608  60.6888544
  84.8430440  53.9953643  61.6000645  85.1260342  55.3681608  59.9458544
  84.7158976  55.4857183  58.9428247  85.0540342  56.7091608  60.6878544
  85.4644476  56.5925005  61.6908758  85.6312885  57.4571648  60.1443765
  84.0151433  57.0318579  60.7562012  86.5870342  54.9191608  59.8018544
  86.9969897  54.8574275  60.8099349  86.5670124  53.9243707  59.3567798
  87.4560342  55.8331608  58.9578544  87.4769179  56.8280856  59.4025885
  88.4693108  55.4338034  58.9144554  87.0469389  55.8950305  57.9494334
  82.9560342  54.8201608  61.1258544  82.0610342  55.0011608  60.3028544
  82.8180342  55.0701608  62.4248544  83.5265668  54.7401802  63.0645370
  81.6440342  55.7341608  62.9768544  80.9875584  56.0696136  62.1739783
  80.8490342  54.8251608  63.9478544  80.0086401  55.3883023  64.3536987
  80.3270342  53.5881608  63.2148544  81.1669386  53.0242232  62.8091012
  79.7709703  52.9603222  63.9110673  79.6707072  53.8972397  62.4013409
  81.6900342  54.3981608  65.1618544  82.5793945  53.8971447  64.7795953
  81.9833029  55.3064633  65.6882379  80.9620342  53.4751608  66.1158544
  80.6688371  52.5663732  65.5902687  81.6196330  53.2179375  66.9462154
  80.0727437  53.9756913  66.4989096  82.1220342  57.0121608  63.6528544
  83.1980342  57.0361608  64.2578544  81.3510342  58.0851608  63.5178544
  80.5102144  58.0532654  62.9591917  81.7180342  59.3501608  64.1428544
  82.0527123  59.1649318  65.1635307  82.8460342  60.0451608  63.3768544
  83.6746766  59.3478737  63.2533968  82.4770928  60.3474038  62.3967364
  83.2940342  61.1921608  64.0888544  84.0005982  61.6178416  63.5977709
  80.5490342  60.3021608  64.2348544  79.7760342  60.4431608  63.2878544
  80.4330342  60.9471608  65.3888544  80.9029152  60.5935371  66.2099887
  79.5840342  62.1071608  65.5318544  78.9480559  62.2064837  64.6522149
  78.6950342  61.9791608  66.7638544  78.3862740  60.9364204  66.8377385
  79.2995289  62.2409575  67.6322718  77.4660342  62.8681608  66.7168544
  77.1070130  62.9394307  65.6901484  76.7067770  62.3880533  67.3342072
  77.7460342  64.2571608  67.2508544  77.5570342  64.4651608  68.4748544
  78.1830342  65.1221608  66.4568544  80.5160342  63.3111608  65.5758544
  81.1430342  63.5921608  66.5908544  80.5960342  63.9931608  64.4368544
  79.9597234  63.7329009  63.6969405  81.5770342  65.0541608  64.1708544
  82.2503034  65.1643584  65.0209511  82.4100342  64.6951608  62.9268544
  83.0531612  65.5277656  62.6417998  83.0234453  63.8206838  63.1439184
  81.5840342  64.3521608  61.7118544  81.2030342  63.1061608  61.3118544
  81.5342394  62.2708708  61.9288581  80.4520342  63.1831608  60.1678544
  80.0573159  62.3974626  59.6708883  80.3280342  64.4961608  59.8048544
  79.6630342  65.0711608  58.7178544  79.1449268  64.4155770  58.0179450
  79.7060342  66.4401608  58.6008544  79.1986564  66.9256738  57.7672209
  80.3940342  67.2351608  59.5378544  80.4224199  68.3203571  59.4396574
  81.0580342  66.6591608  60.6168544  81.5777157  67.3166152  61.3138376
  81.0300342  65.2661608  60.7588544  80.9490342  66.4371608  63.9718544
  81.6710342  67.4331608  63.8398544  79.6180342  66.4991608  63.9688544
  79.0828711  65.6996391  64.2762060  78.8980342  67.6771608  63.5158544
  79.3913993  68.0967622  62.6391419  77.4590342  67.3151608  63.1408544
  77.0115387  66.8381919  64.0128336  76.9383625  68.2495340  62.9312175
  77.3410342  66.3901608  61.9418544  76.3586393  66.5669506  61.5039659
  78.1132826  66.6924212  61.2344838  77.5220342  64.6321608  62.3018544
  76.0290342  64.3301608  63.2408544  75.1593899  64.5634887  62.6265451
  75.9922382  63.2822909  63.5387059  76.0247342  64.9604824  64.1301111
  78.8770342  68.7431608  64.5998544  78.4450342  68.4801608  65.7218544
  79.3380342  69.9421608  64.2568544  79.7884190  70.0697234  63.3618792
  79.2150342  71.0941608  65.1378544  79.1163875  70.7515872  66.1679085
  80.1059631  71.7153525  65.0458437  78.0030342  71.9171608  64.7758544
  77.2340342  71.5581608  63.8738544  77.8400342  73.0311608  65.4808544
  78.4238884  73.2079557  66.2858123  76.8170342  74.0141608  65.1388544
  75.8325872  73.5491627  65.1911999  76.8500342  75.2031608  66.1088544
  77.8163183  75.6878668  65.9693752  76.0552248  75.8842270  65.8046723
  76.6730342  74.8411608  67.5698544  75.5970342  74.0591608  67.9908544
  74.8827853  73.7028734  67.2485558  75.4280342  73.7341608  69.3258544
  74.5798446  73.1268961  69.6419333  76.3440342  74.1881608  70.2638544
  76.1870342  73.8631608  71.5948544  75.4124488  73.3205149  71.7596346
  77.4180342  74.9641608  69.8728544  78.1372740  75.3222848  70.6094288
  77.5780342  75.2871608  68.5328544  78.4225111  75.8996688  68.2169543
  77.0660342  74.5031608  63.7048544  78.2190342  74.6771608  63.2958544
  75.9910342  74.6971608  62.9448544  75.0774871  74.5241965  63.3393343
  76.0790342  75.0551608  61.5248544  75.0856735  75.0523533  61.0761611
  76.6810342  76.4591608  61.3748544  76.3243378  77.1038190  62.1781493
  77.7689537  76.4024583  61.4111338  76.2750342  77.3081608  59.8338544
  76.9567094  78.4180535  60.1028442  76.8690342  74.0061608  60.7188544
  77.5620342  74.3361608  59.7538544  76.7550342  72.7451608  61.1498544
  76.2220853  72.6239803  61.9991953  77.4600342  71.5791608  60.5968544
  77.1428783  70.6826238  61.1295201  77.1620342  71.3921608  59.0978544
  76.0764150  71.4823859  59.0605790  77.6141388  72.2289381  58.5654023
  77.5900342  70.0701608  58.4338544  78.6794297  70.0514611  58.4027316
  77.0820342  68.8401608  59.1778544  75.9926242  68.8579222  59.2089868
  77.4156330  67.9395629  58.6623584  77.4741455  68.8423865  60.1948815
  77.1180342  70.0421608  56.9918544  77.5595023  70.8774265  56.4482217
  77.4235878  69.1047331  56.5271312  76.0315084  70.1241833  56.9629960
  78.9700342  71.5381608  60.8718544  79.4530342  70.5751608  61.4788544
  79.7070342  72.5691608  60.4488544  79.2438959  73.3841458  60.0728205
  81.1810342  72.5171608  60.3998544  81.5260706  71.4839345  60.4384879
  81.6670342  73.1471608  59.0898544  81.3350687  74.1839063  59.0345653
  82.7547352  73.1107554  59.0291800  81.1430342  72.4601608  57.8548544
  81.4420342  71.1271608  57.6088544  82.0579190  70.5804935  58.3229558
  80.9670342  70.4891608  56.4698544  81.2118607  69.4420114  56.2919815
  80.1860342  71.1791608  55.5638544  79.8114248  70.6793319  54.6705802
  79.8790342  72.5101608  55.7928544  79.2618150  73.0581119  55.0808922
  80.3570342  73.1451608  56.9278544  80.1201487  74.1940672  57.1061252
  81.9500342  73.1331608  61.5848544  83.1740342  73.0071608  61.6398544
  81.2630342  73.7741608  62.5328544  80.2644285  73.8989558  62.4473438
  81.9450342  74.3801608  63.6858544  82.7059600  75.0760745  63.3325907
  80.9590342  75.1431608  64.5748544  80.3878498  75.8091017  63.9280390
  80.2906227  74.4026081  65.0140671  81.6120342  75.9481608  65.6758544
  82.3930342  77.0631608  65.3788544  82.5292391  77.3464943  64.3351735
  82.9930342  77.8091608  66.3848544  83.5980624  78.6810896  66.1362928
  82.8140342  77.4471608  67.7038544  83.4170342  78.1881608  68.6888544
  83.9301169  78.9228869  68.3445821  82.0420342  76.3451608  68.0268544
  81.8996658  76.0592450  69.0690079  81.4480342  75.6031608  67.0168544
  80.8402558  74.7330680  67.2651368  82.6840342  73.3001608  64.4868544
  82.2280342  72.1591608  64.5598544  83.8350342  73.6741608  65.0478544
  84.0754459  74.6524866  64.9758811  84.8220342  72.7521608  65.6498544
  85.4918787  73.3366524  66.2805502  84.1900342  71.6371608  66.5038544
  83.6973494  70.9593164  65.8067978  85.0159648  71.1190778  66.9912235
  83.1910342  72.0981608  67.5538544  83.7146760  72.7299938  68.2712714
  82.4219832  72.6828145  67.0490379  82.5460342  70.9371608  68.2808544
  83.2830342  70.0101608  68.6948544  81.3050342  70.9551608  68.4428544
  85.7850342  72.1181608  64.6358544  86.8810342  71.7191608  65.0198544
  85.3790342  72.0171608  63.3668544  84.4263880  72.2792838  63.1574360
  86.1990342  71.4481608  62.2868544  85.6054212  71.3843407  61.3749060
  87.4310342  72.3191608  62.0098544  88.0948951  72.2780506  62.8733924
  87.9502275  71.9295736  61.1342059  87.0500342  73.6551608  61.7738544
  87.8318018  74.1853569  61.6025901  86.6070342  70.0011608  62.5518544
  87.7380342  69.6011608  62.2688544  85.6720342  69.2221608  63.0898544
  84.7789412  69.6119186  63.3555101  85.9340342  67.8211608  63.3978544
  86.9728600  67.7035621  63.7062548  85.0310342  67.3311608  64.5278544
  84.9088850  68.1511581  65.2355148  84.0632374  67.0785774  64.0946443
  85.5930342  66.1211608  65.2488544  85.8018413  65.3548708  64.5023291
  86.5235957  66.4217973  65.7302847  84.4810342  65.4531608  66.4828544
  84.9000342  63.7121608  66.3748544  85.9553969  63.5765615  66.6113318
  84.2940038  63.1474423  67.0833181  84.7056450  63.3531538  65.3641972
  85.7970342  66.9091608  62.1798544  86.3160342  65.7991608  62.2018544
  85.1140342  67.3551608  61.1228544  84.5726788  68.2060746  61.1774377
  85.0790342  66.5861608  59.8708544  84.6366683  65.6089698  60.0645277
  84.2530342  67.2921608  58.7898544  83.2881735  67.4498035  59.2718210
  84.7239718  68.2560398  58.5968389  84.0460342  66.5481608  57.4608544
  85.0090258  66.4744104  56.9555734  83.4780342  65.1501608  57.6778544
  82.5147605  65.2231240  58.1827097  83.3463961  64.6573470  56.7145752
  84.1662566  64.5690388  58.2916522  83.1310342  67.3421608  56.5488544
  83.5762419  68.3159935  56.3450421  82.9939080  66.8026248  55.6117319
  82.1642992  67.4794177  57.0332953  86.4930342  66.3231608  59.3498544
  86.7780342  65.2211608  58.8878544  87.3620342  67.3301608  59.4608544
  87.0271776  68.2186223  59.8052472  88.7770342  67.2201608  59.0758544
  88.8530960  67.0971025  57.9954978  89.5570342  68.4811608  59.4828544
  89.5315968  68.5840250  60.5676913  90.5884926  68.3527365  59.1546762
  89.0040342  69.7541608  58.8608544  87.8020342  70.0241608  58.9308544
  89.8820342  70.5511608  58.2668544  89.5697222  71.4101073  57.8370035
  90.8589402  70.2954958  58.2470842  89.4640342  66.0001608  59.7098544
  90.2780342  65.3271608  59.0678544  89.1410342  65.7421608  60.9758544
  88.5646015  66.4055978  61.4735249  89.6410342  64.5781608  61.7018544
  90.7235091  64.5064481  61.5960026  89.2970342  64.6781608  63.2068544
  88.2138243  64.7412905  63.3106382  89.8120342  63.4661608  63.9788544
  90.8953011  63.4026316  63.8759154  89.5531385  63.5691164  65.0326439
  89.3559276  62.5600623  63.5800400  89.8860342  65.8631608  63.7538544
  89.6723926  65.9249196  64.6877406  89.1000342  63.2641608  61.1248544
  89.8500342  62.3031608  60.9858544  87.8070342  63.2281608  60.8008544
  87.2185267  64.0169935  61.0277930  87.1800342  62.0401608  60.1958544
  87.3880997  61.1482264  60.7868375  85.6390342  62.1971608  60.0588544
  85.4336833  63.1191652  59.5149444  85.0180342  61.0181608  59.3138544
  85.2225843  60.0957880  59.8574431  83.9403922  61.1629058  59.2374547
  85.4471190  60.9528131  58.3139956  84.9900342  62.3351608  61.4268544
  85.3901230  63.2140597  61.9323916  83.9119141  62.4438803  61.3088003
  85.2021329  61.4466163  62.0215003  87.8110342  61.7261608  58.8308544
  88.0330342  60.5601608  58.5108544  88.1060342  62.7661608  58.0448544
  87.8459661  63.6973038  58.3371498  88.7370342  62.6001608  56.7288544
  88.1884248  61.8508036  56.1582488  88.7400342  63.9191608  55.9338544
  89.4028138  64.5337381  56.5430483  89.2158409  63.7128865  54.9751266
  87.4180342  64.6691608  55.6988544  87.0436344  65.0345613  56.6551013
  87.6300342  65.8431608  54.7558544  88.0040157  65.4784779  53.7991710
  86.6836519  66.3615160  54.6016818  88.3546108  66.5321906  55.1898212
  86.3130342  63.7641608  55.1728544  86.1210046  62.9683847  55.8925519
  85.4040774  64.3474992  55.0258340  86.6215767  63.3275824  54.2229598
  90.1640342  62.0651608  56.8648544  90.5850342  61.2031608  56.0868544
  90.9040342  62.5821608  57.8468544  90.5726871  63.3948210  58.3467462
  92.2290342  62.0441608  58.1908544  92.8895366  62.1174505  57.3268727
  92.8530342  62.8301608  59.3538544  92.9480213  63.8618745  59.0152640
  92.1519877  62.7849060  60.1872725  94.2070342  62.3201608  59.8048544
  94.3140342  61.2101608  60.6548544  93.4010628  60.7205612  60.9937864
  95.5470342  60.7341608  61.0638544  95.6137099  59.8575330  61.7081990
  96.7010342  61.3741608  60.6438544  97.9250342  60.9051608  61.0668544
  97.8550636  60.1397698  61.6420765  96.6260342  62.4801608  59.8118544
  97.5354856  62.9840680  59.4846294  95.3850342  62.9461608  59.3948544
  95.3212487  63.8132559  58.7374523  92.1410342  60.5551608  58.5418544
  92.9580342  59.7571608  58.0688544  91.1560342  60.2021608  59.3708544
  90.5815782  60.9262343  59.7780609  90.9170342  58.8141608  59.7778544
  91.8466025  58.4378927  60.2049660  89.8320342  58.7511608  60.8428544
  88.8927690  59.1162450  60.4274095  89.7061143  57.7201630  61.1734418
  90.1188975  59.3718819  61.6916854  90.5510342  57.9121608  58.6048544
  90.9910342  56.7631608  58.5388544  89.7490342  58.4461608  57.6858544
  89.3647930  59.3644827  57.8565673  89.3540342  57.7451608  56.4638544
  88.9129570  56.7794379  56.7106932  88.3150342  58.5781608  55.6998544
  87.4498045  58.6551220  56.3583023  88.7597877  59.5645728  55.5683798
  87.8750342  58.0341608  54.3438544  88.7359931  57.5903427  53.8439783
  87.1123484  57.2710320  54.4989250  87.3090342  59.1461608  53.4828544
  86.8756698  58.7061759  52.5846854  86.5311682  59.6620925  54.0457383
  88.3250342  60.1221608  53.0838544  89.2846365  59.8757934  53.2802365
  88.0760342  61.2931608  52.4888544  86.8300342  61.6791608  52.2088544
  86.0531242  61.0798165  52.4482227  86.6693733  62.5689550  51.7587945
  89.0870342  62.0961608  52.1668544  90.0353776  61.8168020  52.3735029
  88.9014284  62.9813336  51.7172788  90.5520342  57.4481608  55.5628544
  90.7240342  56.3111608  55.1278544  91.3570342  58.4711608  55.2798544
  91.1603563  59.3803722  55.6732394  92.5180342  58.3341608  54.3848544
  92.1851226  57.9413017  53.4241615  93.2190342  59.6861608  54.1478544
  93.4874674  60.0821173  55.1272733  94.1251055  59.4969707  53.5722312
  92.3470342  60.7051608  53.4068544  91.3430342  60.3291608  52.7598544
  92.6880342  61.9041608  53.4708544  93.5480342  57.3561608  54.9428544
  94.1270342  56.5771608  54.1938544  93.7630342  57.4001608  56.2558544
  93.2338291  58.0460157  56.8241084  94.7870342  56.5851608  56.9048544
  95.6777909  56.5345647  56.2786821  95.1700342  57.2041608  58.2508544
  95.3574447  58.2624433  58.0691551  94.3049325  57.0959971  58.9050713
  96.3870342  56.5811608  58.9138544  96.1618308  55.5416649  59.1522501
  97.2238321  56.6203774  58.2164782  96.7540342  57.3241608  60.1868544
  97.1057262  58.3184194  59.9114246  95.8570118  57.4134544  60.7996160
  97.8370342  56.6041608  60.9758544  97.6939040  56.8250617  62.0335959
  97.7255327  55.5325328  60.8106873  99.2000342  57.0301608  60.5608544
  99.3037073  58.0230502  60.7142236  99.8890369  56.5315783  61.1056395
  99.3330195  56.8251661  59.5808589  94.3490342  55.1321608  57.1108544
  95.1100342  54.2101608  56.8038544  93.1340342  54.9391608  57.6288544
  92.5035731  55.7227384  57.7217211  92.7030342  53.6341608  58.1448544
  93.5189662  52.9149847  58.0731605  92.2940342  53.7641608  59.6118544
  91.5525211  54.5578574  59.7029760  91.8735435  52.8302404  59.9847890
  93.4110342  54.1201608  60.5218544  94.5960342  53.4581608  60.6708544
  94.7465335  52.5753057  60.0495519  95.3710342  54.0801608  61.6138544
  96.2925063  53.7883982  61.9068790  94.6870342  55.1621608  62.1008544
  95.0530342  56.0951608  63.0718544  96.0265834  55.9967822  63.5520859
  94.1510342  57.0881608  63.3618544  94.4007292  57.8396947  64.1108198
  92.9040342  57.1601608  62.7118544  92.1928126  57.9506678  62.9513579
  92.5450342  56.2341608  61.7538544  91.5706575  56.3381286  61.2764851
  93.4440342  55.2121608  61.4348544  91.5740342  52.9281608  57.4088544
  91.4450342  51.7221608  57.5618544  90.7400342  53.6351608  56.6498544
  90.8637544  54.6275682  56.5087157  89.5700342  52.9861608  56.0438544
  89.0639318  52.3868593  56.8006881  88.5780342  54.0031608  55.4828544
  88.4240243  54.6922826  56.3132105  89.0544578  54.5311235  54.6567939
  87.2220342  53.4471608  55.0208544  87.4025926  52.6785854  54.2693283
  86.4390342  52.8491608  56.1788544  86.2576783  53.6173069  56.9306259
  85.4859086  52.4660909  55.8142865  87.0113775  52.0347621  56.6230148
  86.4160342  54.5391608  54.3348544  86.9655091  54.9071064  53.4683714
  85.4569426  54.1347232  54.0113196  86.2471299  55.3594565  55.0324827
  89.9900342  52.0211608  54.9388544  90.6770342  52.4121608  53.9948544
  89.5680342  50.7651608  55.0698544  89.0698381  50.4976336  55.9067111
  89.8330342  49.7361608  54.0598544  90.9004299  49.7023576  53.8416275
  89.3960342  48.3661608  54.5698544  88.3274154  48.3815750  54.7841351
  89.6029376  47.6122087  53.8103496  89.9451143  48.1245865  55.4799380
  89.1040342  50.0651608  52.7558544  88.1360342  50.8271608  52.7738544
  89.5700342  49.5051608  51.6178544  90.8200342  48.7531608  51.3998544
  90.9449771  48.0235526  52.1999553  91.6618938  49.4455046  51.4054639
  90.6180342  48.1111608  50.0628544  90.2332082  47.1020836  50.2104049
  91.5766031  48.0619770  49.5463004  89.6500342  48.9581608  49.3088544
  89.0030309  48.2970541  48.7322925  90.1322025  49.6693714  48.6381884
  88.8210342  49.7111608  50.3648544  88.7769641  50.7804551  50.1580554
  87.3990342  49.1531608  50.4688544  87.2000342  48.0741608  51.0328544
  86.4280342  49.9151608  49.9668544  86.6851629  50.7943747  49.5414522
  84.9970342  49.6021608  50.1118544  84.4017199  50.4244666  49.7149750
  84.6320342  48.3131608  49.3438544  85.1334865  47.4839371  49.8428864
  83.5526568  48.1744133  49.4054454  85.0570342  48.3561608  47.8758544
  85.0270342  49.4471608  47.2658544  85.4140342  47.2901608  47.3258544
  84.5410342  49.5261608  51.5818544  83.5780342  48.8231608  51.9038544
  85.2250342  50.2651608  52.4608544  86.0310274  50.7816668  52.1388360
  84.8590342  50.3611608  53.8738544  84.5225097  49.3909998  54.2394199
  85.7161198  50.6924203  54.4601741  83.7360342  51.3641608  54.0328544
  83.5210342  52.1991608  53.1508544  83.0290342  51.2881608  55.1568544
  83.3059240  50.6267478  55.8681661  81.8280342  52.0981608  55.3898544
  81.5168827  52.5786141  54.4622508  80.6830342  51.2111608  55.8898544
  81.0009854  50.9321867  56.8944338  79.7805665  51.8193929  55.9507296
  80.3920342  49.9471608  55.0778544  81.2863128  49.3244215  55.0541376
  79.2490342  49.1681608  55.7088544  78.3542208  49.7901323  55.7325011
  79.0520763  48.2712985  55.1215331  79.5201749  48.8837596  56.7255644
  80.0790342  50.2841608  53.6278544  80.9316790  50.7953586  53.1808944
  79.8766511  49.3659727  53.0764263  79.2041766  50.9329695  53.5857797
  82.0910342  53.2161608  56.3948544  82.9340342  53.0761608  57.2798544
  81.3630342  54.3221608  56.2418544  80.7779387  54.4035478  55.4226239
  81.4130342  55.4511608  57.1748544  81.9826842  55.1580895  58.0567315
  82.0560342  56.7051608  56.5398544  81.3960372  57.0810275  55.7580433
  82.2740342  57.7941608  57.5888544  82.9343519  57.4191642  58.3708127
  82.7274849  58.6667405  57.1186547  81.3160298  58.0746779  58.0266178
  83.4030342  56.3511608  55.8948544  84.0427101  55.9656997  56.6887910
  83.2088796  55.5610090  55.1695519  84.0950342  57.5081608  55.2068544
  84.2899478  58.2985702  55.9316727  85.0380947  57.1664405  54.7802828
  83.4561157  57.8938811  54.4124346  79.9810342  55.7371608  57.6378544
  79.0560342  55.7381608  56.8238544  79.8110342  55.9521608  58.9438544
  80.6253048  55.9394664  59.5412669  78.5030342  56.2031608  59.5568544
  77.7363026  56.2711274  58.7851017  78.1400342  55.0591608  60.5078544
  79.0007440  54.7626042  61.1072976  77.3362969  55.3897691  61.1657332
  77.6470342  53.8151608  59.8168544  78.5090342  53.0351608  59.0528544
  79.5510862  53.3381541  58.9507635  78.0560342  51.8821608  58.4238544
  78.7410615  51.2844638  57.8225253  76.7340342  51.4921608  58.5608544
  76.3745025  50.5872129  58.0710523  75.8680342  52.2571608  59.3238544
  74.8260724  51.9556168  59.4310319  76.3250342  53.4051608  59.9508544
  75.6451075  54.0011236  60.5596465  78.5340342  57.5221608  60.3508544
  79.2430342  57.6021608  61.3518544  77.8110342  58.5651608  59.9298544
  77.6190342  59.7831608  60.7378544  78.5877539  60.1403193  61.0873114
  76.9870863  59.5511477  61.5951237  76.9630342  60.7371608  59.7858544
  77.7140887  61.3070713  59.2388459  76.3082134  61.4226064  60.3238835
  76.1780342  59.8561608  58.8748544  76.0541963  60.3933920  57.9345641
  75.2029228  59.5327449  59.2390789  77.0850342  58.6431608  58.6648544
  76.5652179  57.6995531  58.4990416  78.0380342  58.9061608  57.5088544
  79.2200342  59.1771608  57.7298544  77.5150342  58.8301608  56.2898544
  76.5721369  58.4852853  56.1798327  78.3070342  59.0891608  55.0808544
  79.3111714  59.4053123  55.3634423  78.4160342  57.8261608  54.2128544
  78.8820964  58.1106402  53.2694792  79.0650004  57.1285830  54.7423147
  77.0760342  57.1611608  53.9358544  76.0160342  57.8221608  54.0068544
  77.0940342  55.9491608  53.6328544  77.8450342  60.2891608  54.2378544
  78.4960342  60.6171608  53.2468544  76.7440342  60.9341608  54.6218544
  76.2201605  60.5994228  55.4178482  76.2240342  62.0821608  53.8838544
  77.0256834  62.5490540  53.3116057  75.1260342  61.6381608  52.9148544
  75.5408015  60.8239336  52.3206309  74.3032971  61.2613190  53.5224678
  74.6130342  62.7311608  51.9888544  74.1643053  63.5149794  52.5990769
  75.4604139  63.1401337  51.4385900  73.5790342  62.1991608  51.0058544
  74.0865479  61.6780136  50.1941066  72.9130563  61.5069604  51.5210548
  72.7770342  63.2871608  50.4368544  71.8681629  63.4269821  50.8545890
  73.1480342  64.0891608  49.4308544  74.3310342  63.9521608  48.8298544
  74.9678785  63.2296510  49.1340073  74.5844698  64.5715706  48.0734144
  72.3170342  65.0501608  49.0168544  71.4186739  65.1639604  49.4641780
  72.5910701  65.6583507  48.2584956  75.7010342  63.1571608  54.8348544
  74.9770342  62.8571608  55.7848544  76.0940342  64.4011608  54.5718544
  76.7817130  64.5447662  53.8461997  75.6060342  65.5651608  55.3018544
  74.7024349  65.3196301  55.8598169  76.6580342  66.0631608  56.2768544
  77.5659026  66.3216980  55.7318466  76.2836617  66.9448117  56.7970823
  76.8808369  65.2809920  57.0025749  75.2430342  66.6611608  54.3048544
  75.9320342  66.8491608  53.2998544  74.1540342  67.3711608  54.5908544
  73.6200777  67.1405031  55.4165582  73.6790342  68.4551608  53.7418544
  74.4513582  68.7191725  53.0194192  72.4020342  68.0581608  52.9748544
  71.9426963  68.9595822  52.5692088  72.7260342  67.0951608  51.8348544
  73.1850095  66.1932390  52.2397968  71.8080899  66.8308067  51.3098838
  73.4166009  67.5730840  51.1400108  71.4820342  67.4281608  53.8698544
  70.6875051  67.1815998  53.3907600  73.3970342  69.6851608  54.5968544
  72.8460342  69.5621608  55.6858544  73.7810342  70.8581608  54.0898544
  74.2449620  70.8568780  53.1927097  73.5810342  72.1361608  54.7628544
  73.2038498  71.9717372  55.7722087  74.9070342  72.8931608  54.8538544
  75.5916235  72.1379769  55.2400332  75.1884501  73.1496634  53.8325261
  74.9800342  74.1451608  55.7328544  74.2179580  74.8458888  55.3917961
  74.7520342  73.8241608  57.2018544  75.5140548  73.1237947  57.5437767
  74.8125592  74.7409721  57.7882796  73.7658471  73.3773250  57.3278431
  76.3260342  74.8331608  55.5618544  76.4567252  75.1228679  54.5192188
  76.3634228  75.7213230  56.1926248  77.1237365  74.1489448  55.8510232
  72.5640342  72.9541608  53.9718544  72.7060342  73.1211608  52.7598544
  71.5360342  73.4441608  54.6628544  71.4591362  73.2233392  55.6454143
  70.4970342  74.2711608  54.0558544  70.6981572  74.3869203  52.9908434
  69.1210342  73.6311608  54.2258544  68.9320318  73.5502625  55.2962902
  68.3882636  74.3022373  53.7777433  69.0080342  72.2711608  53.5928544
  69.4130342  71.1321608  54.2818544  69.8120859  71.2405188  55.2903760
  69.3160342  69.8781608  53.7078544  69.6383285  68.9939115  54.2577011
  68.8120342  69.7501608  52.4298544  68.7190342  68.5011608  51.8688544
  69.0299313  67.8042468  52.4513092  68.4010342  70.8631608  51.7228544
  68.0002061  70.7604266  50.7144483  68.5010342  72.1161608  52.3038544
  68.1807716  72.9999105  51.7520226  70.4790342  75.6541608  54.6818544
  70.9540342  75.8461608  55.7948544  69.9260342  76.6081608  53.9408544
  69.7186831  76.4116113  52.9721062  69.6740342  77.9551608  54.4428544
  69.7543361  77.9988101  55.5290153  70.6350342  79.0091608  53.8318544
  71.6582252  78.6700216  53.9936074  70.3950342  79.2081608  52.3348544
  69.3721187  79.5477672  52.1723358  71.0904448  79.9545553  51.9509275
  70.5512157  78.2642122  51.8126762  70.5070342  80.3331608  54.5708544
  70.7592792  80.1893143  55.6214650  71.1871616  81.0625881  54.1310110
  69.4828399  80.6973340  54.4902023  68.2140342  78.3191608  54.1698544
  67.6370342  77.9031608  53.1668544  67.6280342  79.0741608  55.0888544
  68.1100209  79.2474792  55.9593422  66.2700342  79.5891608  54.9348544
  66.0108290  79.7261603  53.8850244  65.2340342  78.6381608  55.5798544
  65.3597360  77.6488061  55.1399946  65.4070342  78.5461608  57.1078544
  65.2810020  79.5351243  57.5484979  64.6590408  77.8679695  57.5185386
  66.4036432  78.1702022  57.3392119  63.9080342  79.0771608  55.2608544
  63.2691898  78.4841595  55.6631325  66.2310342  80.9991608  55.5208544
  67.2630342  81.5111608  55.9428544  65.0620342  81.6301608  55.5208544
  64.2435189  81.1633061  55.1572905  64.9210342  83.0051608  55.9988544
  65.8102956  83.2938546  56.5591841  64.7570342  83.9551608  54.8258544
  63.8654570  83.6844175  54.2602679  64.6562599  84.9756264  55.1954416
  65.6314828  83.8884076  54.1785655  63.7350342  83.1251608  56.9278544
  62.7190342  82.4501608  56.7288544  63.8600342  83.9981608  57.9288544
  64.7095111  84.5372926  58.0173142  62.8260342  84.1611608  58.9498544
  61.8668498  83.7830524  58.5961619  63.2070342  83.4471608  60.2658544
  62.4168817  83.6039900  61.0001323  63.3820342  81.9541608  60.0198544
  64.1723938  81.7965073  59.2859759  63.6504572  81.4605142  60.9538581
  62.4486593  81.5355630  59.6434420  64.4860342  84.0461608  60.8908544
  65.3235403  83.7430600  60.2625119  64.3822779  85.1307364  60.8587624
  64.7400342  83.6061608  62.3158544  64.8443697  82.5216625  62.3486783
  65.6558896  84.0700148  62.6821161  63.9031055  83.9093371  62.9449286
  62.4900342  85.6081608  59.2868544  63.3040342  86.5211608  59.1108544
  61.2690342  85.7801608  59.7848544  60.5874230  85.0479018  59.6459220
  60.8660342  86.9641608  60.5178544  61.3100902  87.8537723  60.0711947
  59.3440342  87.1021608  60.4718544  59.0536608  87.0339893  59.4234579
  58.9345892  86.2521818  61.0177395  58.8010342  88.3961608  61.0658544
  59.4918110  89.1922953  60.7881892  57.8288425  88.5840347  60.6101727
  58.6530342  88.3591608  62.5748544  58.3320342  87.2811608  63.1208544
  58.8550342  89.4141608  63.2098544  61.3520342  86.7701608  61.9538544
  61.2550342  85.6671608  62.4968544  61.8770342  87.8331608  62.5628544
  61.9546564  88.7045615  62.0581416  62.4280342  87.7641608  63.9168544
  61.7408101  87.2405893  64.5814559  63.7650342  86.9921608  63.8818544
  63.7160131  86.2457621  63.0890208  64.5390751  87.7222775  63.6454430
  64.0970342  86.3111608  65.1978544  63.1810342  86.0251608  65.9908544
  65.2890342  86.0351608  65.4318544  62.6120342  89.1521608  64.5718544
  63.6280342  89.4081608  65.2158544  61.6130342  90.0261608  64.4378544
  60.8060787  89.7714964  63.8864307  61.6870342  91.3941608  64.9758544
  62.5765386  91.8929767  64.5910638  60.4430342  92.2121608  64.5598544
  60.5176315  92.3192752  63.4776987  59.5886112  91.5808960  64.8039158
  60.2560342  93.5951608  65.1988544  59.4900708  94.1070768  64.6163229
  59.8885833  93.4242853  66.2107257  61.5180342  94.4601608  65.2538544
  61.2562303  95.4067236  65.7266931  62.2551568  93.9404756  65.8659632
  62.1110342  94.7391608  63.9378544  61.4921350  94.6400566  63.1458686
  63.3850342  95.0871608  63.7138544  63.7880342  95.3291608  62.4738544
  63.1334550  95.2496674  61.7088009  64.7476908  95.5918500  62.3002075
  64.2730342  95.1791608  64.6998544  63.9906174  94.9833637  65.6495935
  65.2256580  95.4443953  64.4942887  61.8800342  91.4131608  66.4998544
  62.8380342  92.0101608  66.9928544  60.9760342  90.7591608  67.2258544
  60.2273669  90.2812246  66.7450493  60.9620342  90.7751608  68.6958544
  60.8097749  91.7911527  69.0601025  59.8120342  89.8891608  69.2128544
  58.8983771  90.3065235  68.7896072  59.9858613  88.8978043  68.7944089
  59.6680342  89.7831608  70.7278544  60.4330718  89.1013202  71.0992190
  59.8173098  90.7696778  71.1667199  58.2980342  89.2601608  71.1568544
  57.3180342  90.0091608  71.1838544  58.2270342  87.9741608  71.4998544
  57.3436923  87.5803235  71.7908881  59.0568987  87.3993934  71.4671637
  62.3050342  90.3491608  69.3108544  62.8440342  91.0381608  70.1728544
  62.8500342  89.2331608  68.8468544  62.3656255  88.6800103  68.1544152
  64.0980342  88.7161608  69.3948544  64.1017130  88.8491278  70.4767072
  64.2650342  87.2231608  69.0838544  63.2721192  86.7735189  69.0902657
  64.6909144  87.1479678  68.0833185  65.1570342  86.4921608  70.0688544
  64.7240342  86.2281608  71.3748544  63.7296106  86.5585505  71.6749607
  65.5370342  85.5581608  72.2818544  65.1924843  85.3661649  73.2979867
  66.8030342  85.1391608  71.8858544  67.6200342  84.4721608  72.7668544
  67.2186084  84.3476507  73.6299617  67.2510342  85.3811608  70.5998544
  68.2401272  85.0441804  70.2896289  66.4340342  86.0571608  69.7018544
  66.7853479  86.2574024  68.6896380  65.3100342  89.5221608  68.9128544
  66.2750342  89.6721608  69.6628544  65.2660342  90.0501608  67.6878544
  64.5430316  89.7844093  67.0345990  66.3190342  90.9601608  67.2268544
  67.2871859  90.4880274  67.3938026  66.1920342  91.3041608  65.7388544
  65.9603139  90.3843364  65.2018925  65.3663319  92.0069866  65.6277169
  67.4620342  91.9191608  65.1668544  67.7860734  92.7125024  65.8404332
  68.2254705  91.1421613  65.1276250  67.2510342  92.4901608  63.7788544
  66.9619579  91.6831346  63.1056215  66.4531706  93.2316592  63.8200027
  68.5240342  93.1441608  63.2678544  68.8758566  93.8357887  64.0333428
  69.2665223  92.3603163  63.1181935  68.3170342  93.8801608  61.9928544
  67.6293773  94.6068142  62.1314269  69.1896673  94.2942784  61.6976967
  67.9914350  93.2393804  61.2832878  66.3520342  92.2431608  68.0578544
  67.4370342  92.7421608  68.3648544  65.1790342  92.7741608  68.4128544
  64.3179431  92.4191738  68.0222068  65.1080342  93.9211608  69.3268544
  65.6673230  94.7517560  68.8962656  63.6570342  94.3801608  69.5748544
  63.0576458  93.4787952  69.7028106  63.6384932  94.9620475  70.4963554
  63.0800342  95.2181608  68.4308544  63.8350342  95.6701608  67.5448544
  61.8440342  95.4411608  68.4278544  65.7790342  93.5781608  70.6578544
  66.5650342  94.3661608  71.1768544  65.4760342  92.3881608  71.1748544
  64.8074684  91.8132867  70.6822706  65.9950342  91.9061608  72.4558544
  65.8321753  92.6442398  73.2412305  65.2490342  90.6181608  72.8308544
  64.1847725  90.8105081  72.6950287  65.5805328  89.8803772  72.1001806
  65.4910342  90.0891608  74.2258544  65.0670342  90.8041608  75.3478544
  64.5631066  91.7600530  75.2049333  65.2780342  90.3161608  76.6288544
  64.9519468  90.8871600  77.4981810  65.9100342  89.0901608  76.7998544
  66.1180342  88.6001608  78.0668544  65.7883650  89.1842263  78.7537207
  66.3340342  88.3541608  75.7038544  66.8319287  87.3938821  75.8382662
  66.1190342  88.8511608  74.4268544  66.4399916  88.2773067  73.5574995
  67.5220342  91.6791608  72.4628544  68.1890342  92.0131608  73.4428544
  68.0640342  91.1311608  71.3728544  67.4653888  90.9300804  70.5846351
  69.4840342  90.7511608  71.2858544  69.8990342  90.6223448  72.2854947
  69.6250342  89.4291608  70.5228544  69.1988975  89.5970825  69.5337594
  70.6943531  89.2394425  70.4297732  68.9530342  88.2301608  71.1658544
  67.8996914  88.4786655  71.2955275  69.0459437  87.3946214  70.4720649
  69.5540342  87.8401608  72.5158544  69.6280410  88.7434454  73.1214110
  68.8716652  87.1375653  72.9942178  70.9260342  87.2041608  72.3868544
  70.8402767  86.3062862  71.7748353  71.5965611  87.9123630  71.9000869
  71.4730342  86.8421608  73.7258544  70.8520746  86.1855999  74.1768940
  72.3845555  86.4216081  73.6146591  71.5529796  87.6740751  74.2929755
  70.4140342  91.7771608  70.6288544  71.6020342  91.8231608  70.9628544
  69.8990342  92.5671608  69.6828544  68.9210810  92.4868823  69.4435593
  70.7300342  93.4961608  68.9098544  71.7804448  93.3866749  69.1795758
  70.5640342  93.2811608  67.3878544  69.5404907  93.5297014  67.1073430
  71.5340342  94.1631608  66.6058544  72.5578717  93.9148641  66.8855081
  71.3986888  93.9945424  65.5375145  71.3391380  95.2107459  66.8353756
  70.7700342  91.8031608  67.0128544  69.9827873  91.2436055  67.5180681
  70.6283140  91.7354305  65.9342314  72.1220342  91.2201608  67.3828544
  72.2642860  91.2871205  68.4614557  72.1641115  90.1752320  67.0755230
  72.9098134  91.7789474  66.8776204  70.4400342  94.9491608  69.2728544
  71.3310342  95.6551608  69.7548544  69.2050342  95.3911608  69.0558544
  68.5149973  94.7845461  68.6363702  68.8500342  96.7971608  69.2818544
  69.6357460  97.4416362  68.8876365  67.5330342  97.1451608  68.5798544
  66.7632979  96.4551174  68.9254631  67.2173175  98.1695133  68.7776543
  67.6030342  96.9981608  67.0898544  68.3310342  97.8571608  66.2908544
  68.8553046  98.6504498  66.6313435  68.2300342  97.4761608  65.0288544
  68.7287663  98.0350075  64.2369860  67.4740342  96.3941608  64.9818544
  67.0720342  96.0711608  66.2568544  66.4404123  95.1987983  66.4246001
  68.8200342  97.1911608  70.7628544  68.9380342  98.3741608  71.0878544
  68.6850342  96.2041608  71.6468544  68.4598467  95.2826691  71.3000937
  68.7700342  96.4001608  73.1028544  67.9481389  97.0243267  73.4535739
  68.6790342  95.0351608  73.7958544  67.7014282  94.5912177  73.6079705
  69.4563958  94.3817855  73.3997361  68.8570342  95.0621608  75.2688544
  67.8860342  95.2191608  76.2068544  66.8656567  95.3414506  75.8435713
  68.4330342  95.1871608  77.4618544  67.9216282  95.2798043  78.3278686
  69.7850342  95.0061608  77.3528544  70.7660342  94.9091608  78.3438544
  70.4632355  94.9837042  79.3882944  72.0620342  94.7241608  77.9318544
  72.8553745  94.6462048  78.6752480  72.3940342  94.6321608  76.5678544
  73.4259187  94.4807595  76.2510083  71.4200342  94.7311608  75.5868544
  71.7282532  94.6646804  74.5434551  70.0870342  94.9191608  75.9788544
  70.0390342  97.1491608  73.5568544  69.9830342  97.9401608  74.4988544
  71.1640342  96.9081608  72.8798544  71.1657203  96.1893673  72.1703247
  72.4360342  97.5951608  73.1838544  72.6556180  97.5123537  74.2482910
  73.5890342  96.9621608  72.3948544  73.3601498  96.9598230  71.3291595
  74.4944890  97.5431130  72.5702001  73.9100342  95.5421608  72.7688544
  73.5440342  94.4141608  72.0918544  72.9537572  94.5565777  71.1866527
  74.0220342  93.3001608  72.7298544  73.8839513  92.3455043  72.4304156
  74.7230342  93.6921608  73.8388544  75.3980342  92.9261608  74.7948544
  75.3982573  91.8416637  74.6854716  76.0220342  93.5941608  75.8178544
  76.5532726  93.0291364  76.5837742  75.9930342  94.9941608  75.9028544
  76.4939696  95.5168350  76.7177010  75.3220342  95.7601608  74.9468544
  75.3229835  96.8444723  75.0580673  74.6750342  95.1021608  73.8938544
  72.4380342  99.1251608  72.9328544  73.3190342  99.8281608  73.4238544
  71.4680342  99.6311608  72.1738544  70.8181266  99.0074119  71.7170647
  71.3410342 101.0741608  71.9248544  72.3122362 101.4886248  71.6545109
  70.3580342 101.3381608  70.7758544  69.3975955 100.9276049  71.0874641
  70.2756939 102.4207490  70.6792993  70.7560342 100.7361608  69.4298544
  71.5653368 101.3408848  69.0206613  71.1189534  99.7264551  69.6219049
  69.6080342 100.6811608  68.4298544  69.7450342  99.9831608  67.4038544
  68.5640342 101.3261608  68.6638544  70.8910342 101.8791608  73.1568544
  71.1310342 103.0861608  73.2158544  70.2250342 101.2231608  74.1118544
  70.0175514 100.2441863  73.9752559  69.7120342 101.8831608  75.3248544
  70.3285419 102.7479313  75.5701897  68.2660342 102.3601608  75.0898544
  68.2123730 102.8073240  74.0972494  67.6019606 101.4970044  75.1353215
  67.7990342 103.3881608  76.1128544  68.1230342 103.3161608  77.3018544
  67.0210342 104.3561608  75.6468544  66.6773261 105.0695410  76.2737940
  66.7759336 104.3753877  74.6672337  69.8050342 100.9371608  76.5358544
  68.8540342 100.2211608  76.8618544  70.9680342 100.9471608  77.1858544
  71.7102468 101.5279912  76.8227348  71.2410342 100.1321608  78.3748544
  70.4682338  99.3844560  78.5532252  72.6070342  99.4121608  78.2498544
  73.3816898 100.1602938  78.0816138  72.9300342  98.6211608  79.5158544
  72.1560076  97.8724695  79.6845112  73.8942660  98.1263360  79.3996389
  72.9706678  99.2993699  80.3681941  72.6160342  98.5051608  77.0178544
  72.4460825  99.1045928  76.1234833  73.5814571  98.0049586  76.9413296
  71.8269809  97.7588006  77.1097353  71.2150342 101.0571608  79.5908544
  72.2280342 101.6871608  79.9138544  70.0440342 101.1481608  80.2328544
  69.2700903 100.6195866  79.8563979  69.7860342 102.0531608  81.3698544
  68.7198218 102.0569954  81.5962953  70.5530342 101.6021608  82.6238544
  71.6197159 101.6615803  82.4076165  70.3046583 102.3036881  83.4202644
  70.2060342 100.1991608  83.0628544  69.1040342  99.9541608  83.8888544
  68.5000973 100.7986365  84.2208492  68.7740342  98.6671608  84.2858544
  67.9113642  98.4891277  84.9278874  69.5500342  97.6021608  83.8568544
  69.2360342  96.3181608  84.2468544  68.4623835  96.2769295  84.8137444
  70.6460342  97.8231608  83.0368544  71.2553798  96.9845605  82.6998855
  70.9660342  99.1131608  82.6458544  71.8265168  99.2893823  82.0003965
  70.0830342 103.5161608  81.0258544  70.6760342 104.2521608  81.8168544
  69.6530342 103.9211608  79.8308544  69.1328669 103.2691472  79.2612900
  69.8970342 105.2661608  79.3008544  69.0468940 105.5005058  78.6601961
  69.8995862 105.9368497  80.1600804  71.1850342 105.4681608  78.5098544
  71.3500342 106.5161608  77.8838544  72.0910342 104.4851608  78.5258544
  71.8842294 103.6394308  79.0377840  73.4040342 104.6061608  77.8848544
  73.6033358 105.6519128  77.6508013  74.5090342 104.0931608  78.8118544
  74.3471058 103.0431320  79.0554071  75.4806859 104.2085417  78.3315624
  74.5850342 104.8291608  80.1158544  74.8580342 106.1921608  80.1418544
  75.0235120 106.7188932  79.2020300  74.9210342 106.8811608  81.3428544
  75.1336802 107.9501931  81.3500865  74.7130342 106.2081608  82.5358544
  74.7634161 106.7462446  83.4824416  74.4410342 104.8511608  82.5248544
  74.2771677 104.3206309  83.4628235  74.3770342 104.1671608  81.3218544
  74.1617903 103.0986592  81.3132268  73.4800342 103.8721608  76.5488544
  72.9200342 102.7891608  76.3828544  74.1940342 104.4861608  75.6118544
  74.5929965 105.3851939  75.8413493  74.4070342 103.9591608  74.2748544
  73.5304947 103.4137190  73.9251818  74.6560342 105.1471608  73.3298544
  73.8288699 105.8471455  73.4478367  75.5821645 105.6219996  73.6537539
  74.7760342 104.7481608  71.8718544  74.3830342 103.6241608  71.4908544
  75.2670342 105.5911608  71.0938544  75.5950342 102.9921608  74.2688544
  76.7340342 103.4091608  74.4608544  75.3170342 101.7021608  74.0648544
  74.3513579 101.4062880  74.0701424  76.3600342 100.6771608  73.8968544
  77.3432062 101.1340151  74.0097977  76.2110342  99.5651608  74.9488544
  75.2702052  99.0578942  74.7352647  77.0394575  98.8743837  74.7918766
  76.2140342 100.0401608  76.3948544  77.0192124 100.7653125  76.5129389
  75.2580212 100.5235646  76.5960058  76.4550342  98.6881608  77.5698544
  76.4860342  99.6031608  79.1088544  75.5424678 100.1339142  79.2356703
  76.6283528  98.9124717  79.9399950  77.3061805 100.3208427  79.0890054
  76.3220342 100.0821608  72.4788544  76.5460342  98.8871608  72.2908544
  76.0600342 100.9341608  71.4868544  75.8404513 101.8922990  71.7189189
  76.0190342 100.5331608  70.0758544  75.2759641  99.7481855  69.9352850
  75.6430342 101.7261608  69.1938544  76.3094068 102.5575170  69.4238407
  75.7640921 101.4426648  68.1483521  74.3080342 102.1171608  69.4228544
  74.0928427 102.8652306  68.8609967  77.3190342  99.9321608  69.5388544
  77.2770342  99.1361608  68.6028544  78.4650342 100.3181608  70.0998544
  78.4814240 101.0578085  70.7874240  79.7410342  99.7511608  69.6598544
  79.8291919  99.8582856  68.5787200  80.9250342 100.4581608  70.3188544
  81.8635222 100.0274120  69.9698630  80.9058032 101.5228646  70.0861832
  80.9590342 100.3401608  72.1158544  82.0762238 101.0428514  72.2802065
  79.8030342  98.2441608  69.9048544  80.4750342  97.5341608  69.1588544
  79.0980342  97.7651608  70.9358544  78.7439046  98.4132231  71.6248441
  78.9060342  96.3261608  71.1688544  79.8243237  95.7798889  70.9533763
  78.4560342  96.0281608  72.6278544  77.6338654  96.6969988  72.8824021
  77.9980342  94.5781608  72.7788544  78.8198676  93.9086827  72.5249063
  77.6895157  94.3994294  73.8088894  77.1575606  94.3906007  72.1106296
  79.6100342  96.3401608  73.5918544  80.4228870  95.6606752  73.3355918
  79.9171902  97.3661238  73.3889883  79.2760342  96.1951608  75.0598544
  78.9692149  95.1692695  75.2635914  80.1543229  96.4368500  75.6584314
  78.4635159  96.8747169  75.3169873  77.9240342  95.7251608  70.1528544
  78.1790342  94.6441608  69.6198544  76.8080342  96.4141608  69.9008544
  76.6089926  97.2381348  70.4499887  75.8300342  96.0051608  68.8718544
  75.3052006  95.1078306  69.1996462  74.7990342  97.1161608  68.6318544
  74.3666152  97.3613417  69.6019056  75.3460434  97.9782316  68.2501283
  73.6880342  96.7501608  67.6598544  74.1449708  96.4464480  66.7180113
  73.1300202  95.9128859  68.0790123  72.7430342  97.9151608  67.4118544
  71.8251776  97.5242276  66.9727537  72.5164139  98.3824118  68.3701963
  73.3520342  98.9471608  66.4768544  74.1442147  99.4682853  67.0144229
  73.7782242  98.4224971  65.6217583  72.3430342  99.9341608  66.0008544
  71.9483058 100.4207386  66.7930231  72.7875734 100.5994125  65.3844738
  71.6091126  99.4515256  65.5023351  76.4870342  95.6621608  67.5348544
  76.1770342  94.6361608  66.9268544  77.3970342  96.5321608  67.0998544
  77.6108417  97.3408612  67.6658838  78.0450342  96.4091608  65.7908544
  77.2859157  96.2990476  65.0164428  78.8900342  97.6541608  65.4768544
  79.6633228  97.7321392  66.2410817  79.3559678  97.4989347  64.5037610
  78.0710342  98.9421608  65.4488544  76.8430342  98.8931608  65.2038544
  78.6740342 100.0161608  65.6788544  78.9110342  95.1521608  65.6588544
  79.1340342  94.6841608  64.5408544  79.3950342  94.6231608  66.7848544
  79.3044790  95.1403377  67.6476563  80.1270342  93.3571608  66.8088544
  80.5576572  93.1424803  65.8308077  81.2650342  93.3861608  67.8538544
  80.8253235  93.4173897  68.8507388  82.1510342  92.1511608  67.7278544
  82.5914965  92.1194886  66.7313150  82.9444315  92.1948921  68.4739836
  81.5512824  91.2552113  67.8880853  82.1110342  94.6471608  67.6768544
  81.4829336  95.5281806  67.8087476  82.9096614  94.6565980  68.4186126
  82.5445516  94.6570620  66.6768216  79.2010342  92.1621608  67.0688544
  79.3690342  91.1091608  66.4488544  78.2380342  92.3181608  67.9788544
  78.1952341  93.1815874  68.5011205  77.2770342  91.2531608  68.3108544
  77.8624545  90.3901746  68.6280880  76.3920342  91.6921608  69.4678544
  75.7929294  92.5500364  69.1625302  75.7328021  90.8723186  69.7531123
  77.0154059  91.9690994  70.3180379  76.4040342  90.8171608  67.1308544
  76.0190342  89.6491608  67.0308544  76.0990342  91.7581608  66.2418544
  76.3541600  92.7160793  66.4352513  75.3020342  91.4801608  65.0458544
  74.4477608  90.8317588  65.2405104  74.8090342  92.8071608  64.4008544
  74.4549191  93.4628694  65.1963097  75.9210342  93.5091608  63.6188544
  76.2753639  92.8542023  62.8228767  75.5343451  94.4312281  63.1848451
  76.7467360  93.7428832  64.2909330  73.5760342  92.5781608  63.5258544
  73.8869678  91.9777835  62.6708876  72.8522863  92.0184014  64.1182713
  72.9410342  93.8631608  63.0358544  73.6640849  94.4232819  62.4429279
  72.0720322  93.6282739  62.4212302  72.6294053  94.4639011  63.8903123
  76.0560342  90.5971608  64.0318544  75.4290342  89.9811608  63.1728544
  77.3880342  90.5401608  64.1568544  77.8119011  91.1179538  64.8686068
  78.2630342  89.7121608  63.3218544  77.7977230  89.5558764  62.3486330
  79.6290342  90.3921608  63.1108544  80.1928019  90.1929354  64.0222130
  80.0882270  89.8614322  62.2768465  79.6370342  91.8901608  62.8258544
  79.0009224  92.3644617  63.5731838  80.6629277  92.2369828  62.9497866
  79.1440342  92.2551608  61.4368544  79.5486332  91.5444436  60.7162438
  78.0551709  92.2080906  61.4207128  79.5970342  93.6641608  61.0698544
  79.2097928  94.3432043  61.8294889  80.6867045  93.6766800  61.0935446
  79.1250342  94.1011608  59.7268544  78.1153358  94.0900435  59.7048286
  79.4555415  95.0375008  59.5421049  79.4841019  93.4723225  59.0227721
  78.5320342  88.3191608  63.9168544  79.3120342  87.5521608  63.3538544
  77.9380342  88.0031608  65.0658544  77.3931844  88.6965031  65.5583120
  78.0810342  86.6831608  65.6658544  78.8608831  86.1305531  65.1418699
  78.4610342  86.7811608  67.1458544  77.7377112  87.4392382  67.6273491
  78.3814350  85.7810234  67.5718698  79.8770342  87.3231608  67.3758544
  80.4790421  86.9971180  66.5276896  79.8042916  88.4107250  67.3724158
  80.5370342  86.8601608  68.6778544  81.6560342  87.3551608  68.9698544
  79.9600342  86.0101608  69.4128544  76.7570342  85.9541608  65.4898544
  75.7230342  86.4671608  65.9198544  76.7730342  84.7751608  64.8328544
  77.8800342  84.1101608  64.1208544  78.4867049  83.5498114  64.8322330
  78.4988606  84.8597678  63.6276585  77.1760342  83.2281608  63.1508544
  77.7896397  82.3498605  62.9504150  77.0091021  83.7737553  62.2221125
  75.8860342  82.8551608  63.7858544  76.0440208  81.9555844  64.3807507
  75.0838349  82.6798506  63.0690265  75.5210342  84.0291608  64.7028544
  74.7729124  84.6916909  64.2675776  75.0210342  83.5131608  66.0478544
  75.8270342  83.1571608  66.9008544  73.7040342  83.4991608  66.2258544
  73.1058589  83.8867313  65.5102605  73.0830342  82.9551608  67.4238544
  73.7910403  83.0016922  68.2512971  71.8270342  83.7451608  67.8088544
  71.2992066  83.8557864  66.8616168  71.2315353  83.1336719  68.4867647
  72.0520342  85.1261608  68.4318544  72.7763913  85.0247174  69.2400109
  72.5720342  86.1301608  67.4058544  71.8479518  86.2324915  66.5975649
  72.7192004  87.0976912  67.8857791  73.5207151  85.7780896  67.0006989
  70.7610342  85.6261608  69.0678544  70.4443434  84.9296559  69.8441838
  70.9293528  86.6087414  69.5086554  69.9844613  85.6983126  68.3063903
  72.7100342  81.5031608  67.1528544  72.0720342  81.2071608  66.1388544
  73.1220342  80.6041608  68.0418544  73.7833726  80.8677757  68.7582608
  72.6670342  79.2271608  67.9988544  72.3491926  78.9489262  66.9940353
  73.7530342  78.2351608  68.4648544  74.0876455  78.5221559  69.4617337
  73.2050342  76.8111608  68.5028544  72.8706278  76.5232697  67.5061639
  73.9878044  76.1287812  68.8341090  72.3647532  76.7630261  69.1954672
  74.9660342  78.3221608  67.5538544  75.3705419  79.3339276  67.5821997
  75.7262020  77.6179015  67.8918830  74.6727350  78.0771538  66.5330469
  71.4480342  79.1671608  68.9038544  71.5780342  79.2791608  70.1218544
  70.2690342  79.0211608  68.3038544  70.2173414  79.0117356  67.2952225
  69.0170342  78.9561608  69.0648544  69.1499666  78.3363191  69.9515474
  68.5990342  80.3701608  69.5108544  69.4513172  81.0308446  69.3520785
  67.7691956  80.6907140  68.8810024  68.1770342  80.4281608  70.9758544
  67.4720342  79.4951608  71.4468544  68.5500342  81.4161608  71.6548544
  67.8850342  78.2781608  68.2768544  67.9930342  78.0751608  67.0608544
  66.8120342  77.9261608  68.9858544  66.7820039  78.1446506  69.9714810
  65.6760342  77.2131608  68.3978544  66.0094664  76.4999939  67.6439876
  64.8480342  76.4581608  69.4588544  64.5087482  77.1700798  70.2112875
  63.6370342  75.7751608  68.8208544  63.9755658  75.0627086  68.0685850
  63.0692519  75.2496868  69.5887091  63.0021615  76.5257259  68.3500145
  65.7110342  75.4341608  70.1818544  66.5400174  75.9408951  70.6759285
  65.1096476  74.9119911  70.9260134  66.1024242  74.7151369  69.4621882
  64.7670342  78.2041608  67.6798544  64.2720342  79.1521608  68.2898544
  64.5480342  77.9671608  66.3878544  65.0209950  77.1907753  65.9478168
  63.6880342  78.8031608  65.5688544  63.5137953  79.7762735  66.0279749
  64.2930342  79.0211608  64.1648544  64.4868204  78.0480465  63.7136397
  63.3440342  79.8131608  63.2748544  63.1501272  80.7866469  63.7252162
  63.7963600  79.9513377  62.2928111  62.4055176  79.2690796  63.1687236
  65.6400342  79.7291608  64.2768544  66.3230216  79.1202080  64.8691439
  66.0570586  79.8774826  63.2807666  65.5036301  80.6962762  64.7607784
  62.3150342  78.1401608  65.4648544  62.2050342  76.9731608  65.0918544
  61.2790342  78.8991608  65.8068544  61.4529935  79.8158530  66.1935234
  59.8980342  78.4641608  65.6568544  59.7585690  77.4845557  66.1140442
  58.9660342  79.4671608  66.3518544  59.4037288  79.6661748  67.3300753
  58.9464087  80.3880375  65.7690157  57.5460342  78.9481608  66.5278544
  56.9840342  78.3431608  65.5928544  56.9730342  79.1751608  67.6128544
  59.5810342  78.3881608  64.1558544  59.7890342  79.3721608  63.4388544
  59.0710342  77.2331608  63.6718544  58.7820342  75.9751608  64.3888544
  58.2923522  76.2021201  65.3358503  59.7148451  75.4449104  64.5806809
  57.8880342  75.2341608  63.4418544  56.8481755  75.4866666  63.6493000
  58.0329642  74.1612235  63.5679584  58.2900342  75.6671608  62.0778544
  57.4689904  75.6093031  61.3632647  59.1203461  75.0543776  61.7268864
  58.7450342  77.1271608  62.2338544  59.6778228  77.2936957  61.6950873
  57.6680342  78.1111608  61.7158544  57.5800342  78.3311608  60.5058544
  56.8760342  78.6981608  62.6148544  56.8746952  78.3712007  63.5704666
  55.9530342  79.7781608  62.2478544  55.3084261  79.4458552  61.4341268
  55.0730342  80.1781608  63.4378544  55.7562218  80.4640270  64.2376259
  54.5059816  81.0514939  63.1156113  54.1130342  79.1091608  63.9478544
  53.4576867  78.7987138  63.1340712  54.6863050  78.2513295  64.2994055
  53.2690342  79.6651608  65.0988544  53.8273788  80.4930115  65.5359054
  52.3424425  80.0413224  64.6652306  52.9440342  78.6421608  66.1838544
  53.6742578  77.8368715  66.1039589  53.0564425  79.1396038  67.1471892
  51.5690342  78.0781608  66.0738544  51.4648050  77.6168010  65.1814514
  51.4182273  77.4113123  66.8172724  50.8922276  78.8241440  66.1482911
  56.6740342  81.0351608  61.7168544  56.0770342  81.8171608  60.9758544
  57.9380342  81.2301608  62.1038544  58.3512118  80.5998083  62.7761931
  58.7290342  82.3801608  61.6508544  58.0976846  83.2673535  61.6020081
  59.8810342  82.6521608  62.6228544  60.4120204  81.7100278  62.7590105
  60.5405368  83.3739860  62.1410612  59.4450342  83.1901608  63.9808544
  59.0441650  84.1974520  63.8678540  58.6666106  82.5308487  64.3648677
  60.5870342  83.2311608  64.9858544  60.5700342  82.5121608  65.9858544
  61.5970342  84.0521608  64.7128544  62.3788149  84.1150988  65.3492184
  61.5776571  84.6089563  63.8704147  59.2890342  82.2501608  60.2248544
  59.7180342  83.2511608  59.6508544  59.2920342  81.0361608  59.6658544
  58.9597969  80.2461402  60.2002561  59.7940342  80.7961608  58.3098544
  60.8268098  81.1368841  58.2364954  59.7450342  79.3011608  57.9648544
  58.7035060  79.0397122  58.1518379  59.9576089  79.2054241  56.9000791
  60.6560342  78.3591608  58.7528544  60.5780085  78.5908434  59.8150860
  60.2430342  76.9151608  58.5178544  60.3212481  76.6825832  57.4558332
  60.8981647  76.2526775  59.0835582  59.2131369  76.7733676  58.8454312
  62.1170342  78.5691608  58.3748544  62.4052242  79.5974107  58.5933677
  62.7432766  77.8868822  58.9496742  62.2492704  78.3736352  57.3107199
  58.9900342  81.5721608  57.2658544  57.7820342  81.3931608  57.1548544
  59.6780342  82.4371608  56.5218544  60.6471190  82.5946687  56.7588466
  59.0890342  83.2331608  55.4438544  58.0002959  83.2543724  55.4917927
  59.6150342  84.6851608  55.5148544  60.7043060  84.6515640  55.4934645
  59.1100342  85.5411608  54.3568544  58.0207808  85.5756120  54.3778571
  59.5068932  86.5519288  54.4514665  59.4412040  85.1082323  53.4129258
  59.2110342  85.3061608  56.8418544  59.6369088  84.7253587  57.6600242
  59.5817160  86.3299520  56.8923148  58.1243145  85.3091842  56.9263056
  59.3470342  82.6131608  54.0538544  58.6040342  82.8871608  53.1038544
  60.3760342  81.7721608  53.9378544  60.9116365  81.5299372  54.7591687
  60.7740342  81.1961608  52.6578544  60.0405731  81.4330226  51.8871208
  62.1530342  81.7391608  52.2118544  62.3842065  81.3344722  51.2265185
  62.1520342  83.2611608  52.1478544  61.9213794  83.6666060  53.1330002
  63.1341622  83.6126839  51.8316974  61.3998422  83.5947792  51.4330072
  63.1780342  81.3081608  53.1218544  64.0268935  81.6516150  52.8336228
  60.8630342  79.6771608  52.7158544  60.7390342  79.0711608  53.7788544
  61.0930342  79.0761608  51.5518544  60.8869803  79.5662748  50.6931173
  61.5380342  77.6841608  51.4668544  60.9769992  77.0758672  52.1763033
  61.3110342  77.1231608  50.0498544  61.5703923  76.0648374  50.0778604
  60.2598183  77.2321589  49.7830877  62.1580342  77.8041608  48.9808544
  62.7270342  78.8751608  49.1948544  62.2190342  77.1891608  47.8068544
  62.7644013  77.5907361  47.0575802  61.7198243  76.3222373  47.6678080
  63.0100342  77.5651608  51.9128544  63.5990342  78.5291608  52.4158544
  63.5870342  76.3771608  51.7628544  63.0360269  75.5931604  51.4437405
  64.9940342  76.1491608  52.0868544  65.4112308  77.0270470  52.5801718
  65.1360342  74.9551608  53.0178544  64.7308688  74.0663772  52.5341140
  66.1897350  74.7953354  53.2464826  64.5894246  75.1467280  53.9412282
  65.7890342  75.9241608  50.8098544  65.2630342  75.3971608  49.8258544
  67.0550342  76.3291608  50.8368544  67.3930994  76.8301217  51.6460821
  67.9710342  76.1161608  49.7238544  67.4808787  75.5301189  48.9464217
  68.4000342  77.4561608  49.1278544  67.5354875  78.0899446  48.9304303
  69.0873440  77.9773280  49.7942552  69.2620342  77.2841608  47.5568544
  69.4629953  78.5848764  47.3654078  69.1970342  75.3281608  50.1868544
  69.8300342  75.6681608  51.1908544  69.5110342  74.2701608  49.4458544
  68.9096670  74.0232071  48.6728921  70.6820342  73.4341608  49.7078544
  70.7293365  73.1743938  50.7653906  70.5890342  72.1401608  48.8888544
  69.7080379  71.6640069  49.3192290  70.3700780  72.4530786  47.8679525
  71.7530342  71.1451608  48.8788544  72.6537346  71.6634441  48.5498831
  71.9820342  70.5611608  50.2628544  71.0818598  70.0422870  50.5923311
  72.8139908  69.8577933  50.2278799  72.2147537  71.3638862  50.9625500
  71.4730342  70.0421608  47.8698544  71.3605226  70.4773844  46.8768685
  72.3025352  69.3350557  47.8642079  70.5550864  69.5224112  48.1443195
  71.9280342  74.2221608  49.3228544  72.0550342  74.6351608  48.1748544
  72.8280342  74.4421608  50.2798544  72.5987031  74.2095994  51.2355854
  74.0870342  75.1631608  50.0188544  74.1666409  75.4228085  48.9632290
  74.2160342  76.4491608  50.8788544  75.1856898  76.9110902  50.6931404
  73.1100342  77.4281608  50.5138544  72.1400113  76.9670762  50.6997499
  73.2061039  78.3284414  51.1207861  73.1905114  77.6913252  49.4591663
  74.1830342  76.1451608  52.3788544  73.1687928  75.8304601  52.6245751
  74.8724610  75.3202597  52.5586552  74.5700342  77.3251608  53.2478544
  73.8807284  78.1503547  53.0689348  74.5236829  77.0347685  54.2974368
  75.5843964  77.6401558  53.0030130  75.3670342  74.3171608  50.1298544
  76.4350342  74.7871608  49.7458544  75.2750342  73.0881608  50.6378544
  74.4076995  72.7639440  51.0412317  76.4370342  72.1941608  50.6768544
  76.9911938  72.2664635  49.7410239  77.3710342  72.5811608  51.8308544
  77.4841176  73.6645851  51.7920834  76.8612231  72.3023580  52.7530592
  78.7470342  71.9251608  51.7928544  79.2497716  72.1364105  52.7366391
  78.6071538  70.8491547  51.6891891  79.5980342  72.4401608  50.6378544
  79.1163591  72.1649328  49.6995913  79.6615718  73.5260310  50.7081984
  80.9970342  71.8471608  50.6818544  81.5295621  72.2877675  51.5246950
  80.9084858  70.7710689  50.8311345  81.7500342  72.1131608  49.4258544
  81.8325700  73.1102384  49.2875658  82.6715095  71.7051397  49.4929524
  81.2569693  71.7045987  48.6447890  76.0200342  70.7341608  50.8168544
  75.2650342  70.3941608  51.7258544  76.4990342  69.8961608  49.8958544
  76.9742205  70.2907028  49.0967086  76.4120342  68.4371608  50.0018544
  75.6840501  68.1709168  50.7681784  75.9760342  67.8141608  48.6768544
  76.7578766  68.0311908  47.9490359  75.9158741  66.7372967  48.8344763
  74.6470342  68.3231608  48.1568544  73.9141576  68.2732311  48.9621492
  74.7963682  69.3630107  47.8661473  74.1420342  67.5321608  46.9638544
  73.9940342  66.2951608  47.0958544  73.8740342  68.1471608  45.9048544
  77.7880342  67.8981608  50.3268544  78.7540342  68.2481608  49.6478544
  77.8790342  67.0411608  51.3408544  77.0676894  66.8621002  51.9150984
  79.1330342  66.3741608  51.6858544  79.9432477  66.6943291  51.0307623
  79.5360342  66.6631608  53.1448544  78.7246942  66.3481126  53.8010337
  80.8100342  65.9151608  53.5178544  81.6219934  66.2300425  52.8623601
  81.0723048  66.1365697  54.5524039  80.6484664  64.8430193  53.4060053
  79.7270342  68.1571608  53.3438544  78.7951311  68.6761698  53.1196041
  80.0117488  68.3530654  54.3776139  80.5114519  68.5156588  52.6773194
  78.9990342  64.8671608  51.4718544  78.1630342  64.2291608  52.1078544
  79.8080342  64.3231608  50.5588544  80.2993324  64.9353130  49.9232483
  80.0060342  62.8741608  50.4228544  79.1630056  62.3479406  50.8706202
  80.1100342  62.4671608  48.9458544  79.1759510  62.7479199  48.4592723
  80.9319504  63.0330418  48.5072971  80.3600342  60.9611608  48.7458544
  80.4460342  60.1961608  49.7348544  80.4700342  60.5401608  47.5708544
  81.2940342  62.5381608  51.1688544  82.3900342  62.8481608  50.7028544
  81.1590342  61.8771608  52.3128544  80.2391220  61.6019812  52.6261228
  82.2880342  61.6861608  53.2238544  82.8878246  62.5962328  53.2347886
  81.8020342  61.3681608  54.6678544  81.2320676  60.4393315  54.6451704
  82.9760342  61.2201608  55.6288544  83.5462471  62.1488169  55.6524279
  82.6022650  60.9984362  56.6284721  83.6202552  60.4072525  55.2938041
  80.8930342  62.5071608  55.1738544  81.5420397  63.3602097  55.3718446
  80.2131377  62.7503490  54.3573376  80.0920342  62.1831608  56.4178544
  80.7713089  61.9403046  57.2349876  79.4851295  63.0452358  56.6946081
  79.4424082  61.3304418  56.2204810  83.3070342  60.6561608  52.6828544
  84.4610342  60.6521608  53.1228544  82.9040342  59.8191608  51.7188544
  81.9234773  59.7573524  51.4847877  83.8430342  58.9051608  51.0428544
  84.4657793  58.4138523  51.7904531  83.1040342  57.8271608  50.2338544
  82.5097333  58.3336046  49.4733149  83.8667485  57.2162303  49.7510181
  82.2040342  56.9421608  51.0708544  82.7370342  56.0091608  51.9638544
  83.8201500  55.9182467  52.0456737  81.9120342  55.2051608  52.7398544
  82.3400132  54.4817837  53.4338727  80.5340342  55.3281608  52.6278544
  79.6940342  54.5461608  53.3868544  80.1649276  53.9431240  53.9666869
  79.9840342  56.2411608  51.7478544  78.9016544  56.3318163  51.6565526
  80.8140342  57.0431608  50.9798544  80.3842391  57.7688838  50.2894181
  84.8520342  59.6271608  50.1328544  85.9940342  59.1801608  50.0068544
  84.4300342  60.7281608  49.5048544  83.4924063  61.0619852  49.6766524
  85.2590342  61.4481608  48.5208544  86.2322341  60.9695654  48.4116410
  84.5640342  61.4691608  47.1468544  85.1765572  62.0412730  46.4500018
  84.3800342  60.0551608  46.6168544  83.7671819  59.4825364  47.3129959
  83.8872938  60.0920029  45.6452842  85.3536001  59.5763362  46.5119872
  83.2870342  62.1121608  47.2638544  82.8551929  62.1243945  46.4065542
  85.6330342  62.8971608  48.8648544  86.5080342  63.4601608  48.2098544
  84.9850342  63.5031608  49.8598544  84.2676884  63.0081857  50.3702602
  85.2070342  64.9271608  50.1698544  85.2097891  65.5502607  49.2755177
  84.1460342  65.4821608  51.1578544  83.1568503  65.2029451  50.7950141
  84.3470342  64.9261608  52.5658544  85.3358940  65.2053822  52.9295752
  83.5867994  65.3359693  53.2308360  84.2620840  63.8397037  52.5435796
  84.1520342  67.0051608  51.1698544  83.9263129  67.3777876  50.1707042
  83.3992487  67.3664712  51.8704744  85.1348440  67.3627335  51.4769822
  86.6280342  65.1801608  50.6948544  87.2070342  64.3281608  51.3658544
  87.1740342  66.3491608  50.3588544  86.6384070  66.9748229  49.7742607
  88.5220342  66.7511608  50.7498544  88.9925586  65.9620474  51.3363747
  89.3720342  67.0071608  49.5038544  88.9665393  67.8828293  48.9970233
  90.3903150  67.2166769  49.8314323  89.3810342  65.8201608  48.5408544
  89.1209315  64.9375587  49.1252011  88.6027731  66.0078328  47.8011309
  90.7150342  65.5851608  47.8288544  91.4991813  66.0388451  48.4349755
  90.8764760  64.5086135  47.7733393  90.7520342  66.1771608  46.4248544
  90.5310357  67.2403733  46.5188725  91.7672890  66.0494448  46.0492941
  89.7860342  65.5501608  45.4718544  88.8451819  65.6687715  45.8194577
  89.8693526  65.9930471  44.5679685  89.9909117  64.5650454  45.3842648
  88.4640342  67.9931608  51.6288544  87.4640342  68.7181608  51.6218544
  89.5390342  68.2391608  52.3788544  90.3065826  67.5827859  52.3669845
  89.6170342  69.3901608  53.2988544  88.7907641  69.3841150  54.0097273
  90.9530342  69.4101608  54.0908544  91.7735442  69.2863741  53.3840734
  91.1350342  70.7191608  54.8578544  90.3150902  70.8434281  55.5652089
  92.0807691  70.6951750  55.3992514  91.1392534  71.5539647  54.1570076
  91.0190342  68.2281608  55.0538544  90.9542327  67.2966532  54.4915409
  91.9612878  68.2568343  55.6010615  90.1887869  68.2855371  55.7577707
  89.4150342  70.7111608  52.5448544  88.6810342  71.5821608  53.0138544
  90.0490342  70.8381608  51.3778544  90.7431188  70.1500475  51.1232056
  89.8670342  72.0051608  50.4978544  90.1813098  72.9088029  51.0201195
  90.7070342  71.8621608  49.2098544  90.6400551  72.8152317  48.6851938
  91.7366939  71.6930579  49.5249817  90.2690342  70.7351608  48.2758544
  90.0048791  69.8907862  48.9125290  89.3862687  71.0680709  47.7299653
  91.3470342  70.3071608  47.2858544  91.5990342  71.0471608  46.3038544
  91.9350342  69.2131608  47.4748544  88.3920342  72.3111608  50.1498544
  88.0200342  73.4791608  50.0288544  87.5650342  71.2711608  50.0158544
  87.9329829  70.3351115  50.1081850  86.1410342  71.4311608  49.6798544
  86.0448008  72.1008100  48.8252152  85.4930342  70.0821608  49.3228544
  85.5557631  69.4526763  50.2104994  84.4460637  70.2658237  49.0815649
  86.1690342  69.3761608  48.1498544  86.7210342  70.0441608  47.2468544
  86.1330342  68.1281608  48.1338544  85.3180342  72.0831608  50.8008544
  84.2470342  72.6371608  50.5398544  85.8130342  72.0051608  52.0378544
  86.6703008  71.4923996  52.1870837  85.1290342  72.5701608  53.2048544
  84.0499943  72.4698217  53.0877902  85.5540342  71.8311608  54.4768544
  86.5942251  72.1311564  54.6037590  84.9613447  72.2171434  55.3062135
  85.4630342  70.2991608  54.4528544  86.1128109  69.9156902  53.6661896
  85.8960342  69.7241608  55.7928544  85.2463859  70.1068411  56.5800086
  85.8265730  68.6368210  55.7617395  86.9258699  70.0161950  55.9984143
  84.0570342  69.8331608  54.0978544  83.7863427  70.2115362  53.1121275
  84.0261304  68.7436318  54.0893174  83.3510402  70.2103628  54.8377125
  85.3700342  74.0741608  53.3708544  84.7830342  74.6921608  54.2578544
  86.2530342  74.6421608  52.5498544  86.8790410  74.0431838  52.0307769
  86.3700342  76.0831608  52.3718544  85.8317467  76.6125959  53.1580123
  87.8490342  76.5301608  52.3988544  88.4064855  75.9131458  51.6941269
  88.0040342  78.0051608  52.0188544  87.4471965  78.6228716  52.7234569
  89.0583542  78.2800216  52.0498375  87.6170572  78.1641940  51.0123467
  88.3880342  76.3141608  53.7108544  89.3069234  76.5914986  53.7289338
  85.7280342  76.3801608  51.0158544  86.3120342  76.0841608  49.9648544
  84.5230342  76.9511608  51.0448544  84.1496269  77.2832817  51.9225571
  83.7000342  77.0961608  49.8398544  84.3341479  77.1678849  48.9561946
  82.7910342  75.8771608  49.6908544  82.2117248  75.9236752  48.7687176
  83.4006583  74.9735798  49.6911550  81.8030342  75.7291608  50.8118544
  82.1600342  75.0901608  51.9888544  83.1646810  74.6799696  52.0914608
  81.2520342  74.9701608  53.0308544  81.5440388  74.4629461  53.9504017
  79.9750342  75.4941608  52.9038544  79.2598369  75.3974326  53.7206998
  79.6090342  76.1411608  51.7368544  78.6080277  76.5595549  51.6318189
  80.5200342  76.2561608  50.6998544  80.2360762  76.7654351  49.7789269
  82.8370342  78.3481608  49.8728544  82.6220342  78.9311608  50.9268544
  82.3500342  78.7391608  48.6988544  82.7336905  78.3271884  47.8602926
  81.2970342  79.7391608  48.5588544  80.9038876  80.0027600  49.5407151
  81.8160342  81.0201608  47.8758544  82.1269443  80.7742206  46.8604980
  80.7360342  82.0881608  47.8298544  80.4249246  82.3349738  48.8449375
  81.1280086  82.9812788  47.3432381  79.8793809  81.7153955  47.2683460
  82.9490342  81.5251608  48.5938544  83.2695466  82.3225402  48.1660014
  80.1890342  79.1161608  47.7178544  80.4440342  78.6851608  46.5968544
  78.9770342  79.0511608  48.2698544  78.8440547  79.4133783  49.2032430
  77.8170342  78.4871608  47.5708544  78.1381297  78.0421841  46.6290515
  77.1470342  77.4121608  48.4128544  76.8188610  77.8540737  49.3536597
  76.2826037  77.0275066  47.8716510  78.0420342  76.3581608  48.6768544
  77.6022911  75.6905162  49.2083395  76.7830342  79.5601608  47.2938544
  76.5570342  80.4261608  48.1378544  76.1140342  79.4831608  46.1308544
  76.2030342  78.4701608  45.0568544  75.8987845  77.5010496  45.4522729
  77.2327806  78.4111303  44.7043820  75.2590342  78.9861608  43.9948544
  74.3587287  78.3717831  43.9854118  75.7472555  78.9293686  43.0219638
  74.9500342  80.3981608  44.3528544  73.9255471  80.5909261  44.0344732
  75.6085884  81.1611676  43.9378523  75.0310342  80.4131608  45.8738544
  75.2850229  81.3838414  46.2997266  73.7370342  79.9041608  46.5048544
  73.6270342  78.7181608  46.7998544  72.7820342  80.8011608  46.7258544
  72.9807517  81.7824347  46.5927673  71.4530342  80.4211608  47.2148544
  71.2229946  79.4080578  46.8850008  71.3860342  80.4651608  48.7558544
  70.4600954  80.0027143  49.0977312  72.2363614  79.9330440  49.1823465
  71.4130342  81.8591608  49.3368544  70.2400342  82.5901608  49.4968544
  69.2928219  82.1362557  49.2055490  70.2620342  83.8751608  50.0168544
  69.3330086  84.4342006  50.1285979  71.4600342  84.4461608  50.3928544
  71.4833638  85.4559912  50.8024860  72.6370342  83.7301608  50.2478544
  73.5851952  84.1764952  50.5476486  72.6100342  82.4441608  49.7208544
  73.5372899  81.8829760  49.6052321  70.3850342  81.3331608  46.6188544
  70.6720342  82.4731608  46.2358544  69.1620342  80.8091608  46.5518544
  69.0545967  79.8309202  46.7790150  67.9750342  81.5631608  46.1608544
  68.1264842  82.6207274  46.3769908  67.6950342  81.4051608  44.6658544
  68.4510885  81.9321112  44.0837853  67.6967230  80.3500544  44.3922714
  66.0980342  82.0611608  44.1248544  66.2437889  81.7415311  42.8420876
  66.8060342  81.0221608  46.9768544  66.6020342  79.8081608  47.0208544
  66.0620342  81.9111608  47.6348544  66.2774319  82.8941225  47.5483134
  64.9280342  81.5211608  48.4708544  64.8428578  80.4354873  48.5173001
  65.1460342  82.0551608  49.8868544  65.1458991  83.1376938  49.7594913
  64.2872358  81.7607059  50.4900638  66.4370342  81.6241608  50.5918544
  67.2793257  81.7974306  49.9220608  66.6390342  82.4151608  51.8748544
  65.7973056  82.2420213  52.5453874  67.5609508  82.0934715  52.3592990
  66.7038385  83.4777607  51.6407984  66.4080342  80.1341608  50.8858544
  66.3124303  79.5807587  49.9516673  67.3317583  79.8440379  51.3865178
  65.5590745  79.9069783  51.5306446  63.6550342  82.1221608  47.9018544
  63.6210342  83.3181608  47.6348544  62.6300342  81.2891608  47.7068544
  62.7707418  80.3000292  47.8549065  61.3100342  81.7441608  47.2568544
  61.4241240  82.6122049  46.6075609  60.5870342  80.6381608  46.4748544
  61.3085814  80.2162277  45.7752535  60.2924884  79.8758366  47.1961065
  59.3540342  81.1171608  45.7078544  58.6593545  81.5754206  46.4117854
  59.6757111  81.8612003  44.9791355  58.6340342  79.9981608  44.9738544
  58.5910342  78.8571608  45.4368544  58.0570342  80.3241608  43.8258544
  57.5639957  79.6209182  43.2943807  58.1130898  81.2742940  43.4879105
  60.4730342  82.1561608  48.4688544  60.3070342  81.3761608  49.4068544
  59.9420342  83.3781608  48.4368544  60.1597020  83.9791188  47.6548253
  59.1070342  83.9161608  49.5158544  59.4797313  83.6478072  50.5043798
  59.0270342  85.4661608  49.4188544  58.7309177  85.7315366  48.4039702
  58.0230342  86.0421608  50.4068544  58.3187569  85.7775735  51.4220601
  57.9966350  87.1273315  50.3078189  57.0335725  85.6347212  50.1993449
  60.4040342  86.0901608  49.6388544  61.0948918  85.7242105  48.8793163
  60.3275061  87.1751062  49.5671856  60.7735744  85.8170108  50.6272521
  57.7040342  83.2821608  49.4598544  57.0640342  83.2901608  48.4088544
  57.2340342  82.7561608  50.5928544  57.8156029  82.7870103  51.4180366
  55.9340342  82.0551608  50.6768544  55.6388324  81.7010052  49.6891657
  56.0400342  80.8511608  51.6168544  56.5597369  81.1829818  52.5156887
  55.0254634  80.5480171  51.8754081  56.7800342  79.6741608  51.0108544
  56.2814348  79.3911769  50.0838055  57.8027013  79.9822976  50.7933555
  56.8000342  78.4811608  51.9618544  57.5421642  78.6689354  52.7377944
  55.8146980  78.3849522  52.4178762  57.1480342  77.1911608  51.2278544
  56.3419339  76.9653246  50.5297850  58.0734425  77.3502025  50.6742981
  57.3230342  76.0501608  52.1698544  56.4655035  75.9023471  52.6825842
  57.5519974  75.2156657  51.6489957  58.0702247  76.2590441  52.8165175
  54.7460342  82.9231608  51.1128544  53.5960342  82.5981608  50.8008544
  55.0220342  84.0031608  51.8428544  55.9845558  84.2125412  52.0660389
  53.9760342  84.8971608  52.3608544  53.1207271  84.8996667  51.6851750
  53.5090342  84.4211608  53.7398544  52.5754455  84.9400049  53.9573677
  53.3192926  83.3507258  53.6606894  54.5060342  84.6781608  54.8628544
  55.5023087  84.4462852  54.4863284  54.4533273  85.7354509  55.1225882
  54.2240342  83.8401608  56.0958544  53.1904066  83.9877710  56.4087827
  54.3867740  82.7870924  55.8663719  55.1060342  84.2211608  57.1978544
  55.5564749  85.1206541  57.1077743  55.3510342  83.4941608  58.2858544
  54.7850342  82.3061608  58.4648544  54.1547199  81.9400066  57.7657586
  54.9875038  81.7742993  59.2992578  56.1850342  83.9651608  59.2118544
  56.6227715  84.8659986  59.0815570  56.3757446  83.4192368  60.0399216
  54.5040342  86.3181608  52.4638544  55.7170342  86.5321608  52.4548544
  53.5920342  87.2791608  52.5788544  52.6109925  87.0633143  52.4736552
  53.9700342  88.6591608  52.8558544  54.7308940  88.9740752  52.1416972
  52.7700342  89.6051608  52.7418544  51.9653361  89.2301519  53.3742534
  53.0819513  90.5876877  53.0960417  52.2440342  89.7451608  51.3138544
  52.6720342  89.0471608  50.3898544  51.2960342  90.6521608  51.1378544
  50.9037475  90.7963023  50.2183795  50.9693908  91.1958548  51.9238580
  54.5240342  88.7211608  54.2728544  53.8710342  88.2621608  55.2128544
  55.7360342  89.2551608  54.4248544  56.2887023  89.5082819  53.6182647
  56.3270342  89.4311608  55.7558544  55.6004813  89.8947622  56.4231578
  56.7430342  88.0681608  56.3498544  56.2455034  87.2955390  55.7636652
  57.8229065  87.9664509  56.2420074  56.3620342  87.9151608  57.8208544
  56.3500342  88.9311608  58.5628544  56.0840342  86.7641608  58.2348544
  57.5310342  90.3731608  55.7368544  57.8980342  90.9211608  54.6888544
  58.1000342  90.5801608  56.9228544  57.5836282  90.3293501  57.7538286
  59.4130342  91.1781608  57.0828544  59.7100539  91.6744742  56.1589759
  59.3900342  92.2131608  58.2078544  59.1213792  91.7277436  59.1460942
  60.4010148  92.6136203  58.2830242  58.4230342  93.3381608  57.9288544
  58.7800342  94.3951608  57.0918544  59.7763981  94.4046810  56.6499631
  57.8880342  95.4261608  56.8178544  58.1852062  96.2503793  56.1694297
  56.6120342  95.4031608  57.3738544  55.7270342  96.4291608  57.0998544
  56.0967300  97.0984047  56.5193053  56.2310342  94.3551608  58.1998544
  55.2324679  94.3320331  58.6362383  57.1320342  93.3301608  58.4698544
  56.8374764  92.5009982  59.1131469  60.4110342  90.0691608  57.3858544
  60.0900342  89.1331608  58.1138544  61.6110342  90.1731608  56.8178544
  61.7927681  90.9496945  56.1981225  62.6690342  89.1771608  57.0128544
  62.3480280  88.3701253  57.6714499  63.1180342  88.5671608  55.6678544
  63.3914482  89.3788891  54.9937319  64.3110342  87.6341608  55.8498544
  64.0382233  86.8218638  56.5235374  64.6013711  87.2220123  54.8834494
  65.1471982  88.1909697  56.2728146  61.9570342  87.8281608  55.0178544
  61.1369679  88.5237765  54.8397759  62.2829002  87.4010162  54.0694565
  61.6185936  87.0296991  55.6781707  63.8480342  89.8331608  57.7278544
  64.3850342  90.8371608  57.2478544  64.2420342  89.2541608  58.8658544
  63.7491871  88.4332600  59.1872931  65.3110342  89.8011608  59.7128544
  65.6500607  90.7625087  59.3268876  64.7730342  90.0051608  61.1218544
  64.4415644  89.0698343  61.5728437  65.5585940  90.4456287  61.7358445
  63.6120342  90.9411608  61.1778544  62.3080342  90.5111608  61.0718544
  61.4990342  91.5521608  61.1408544  60.4185296  91.4186696  61.0880456
  62.2320342  92.6431608  61.2718544  61.8833792  93.5881667  61.3460389
  63.5590342  92.2891608  61.2918544  64.3266013  93.0571850  61.3871474
  66.5990342  88.9801608  59.7848544  67.6400342  89.4921608  60.2248544
  66.5400342  87.7181608  59.3698544  65.6799966  87.3408220  58.9983035
  67.6890342  86.8321608  59.4858544  68.5863541  87.4039937  59.2493731
  67.8090342  86.3051608  60.9088544  66.9218116  85.7226872  61.1571697
  68.6927865  85.6722006  60.9891265  67.8985548  87.1426861  61.6006901
  67.6130342  85.6701608  58.5218544  66.5340342  85.3001608  58.0498544
  68.7840342  85.1191608  58.2228544  69.6342355  85.6100669  58.4600638
  68.8940342  83.8381608  57.5558544  67.9636501  83.6191618  57.0319041
  70.0340342  83.8441608  56.5428544  70.9060001  84.1096222  57.1406044
  70.1590176  82.8365250  56.1464336  69.8900342  84.8321608  55.3858544
  69.8231020  85.8486154  55.7737214  71.1080342  84.7131608  54.4858544
  71.1753800  83.6970313  54.0972103  71.0169677  85.4137812  53.6558311
  72.0069470  84.9431620  55.0578296  68.5960342  84.6061608  54.6068544
  67.7430960  84.7329029  55.2735869  68.5306099  85.3280424  53.7927857
  68.5895260  83.5960061  54.1974106  69.1480342  82.8031608  58.6308544
  69.7260342  83.1111608  59.6758544  68.6950342  81.5841608  58.3788544
  68.2042477  81.4028440  57.5149377  68.8510342  80.4931608  59.3238544
  69.5283241  80.7683481  60.1323404  67.4980342  80.0711608  59.9358544
  66.8263281  79.7788521  59.1287201  67.6710342  78.9031608  60.9008544
  68.3422958  79.1948835  61.7085713  66.7016666  78.6277844  61.3162996
  68.0929777  78.0507474  60.3684478  66.8560342  81.2481608  60.6498544
  66.6891276  82.0577183  59.9393188  65.9024559  80.9382644  61.0773497
  67.5151744  81.5943063  61.4459816  69.4880342  79.3271608  58.5838544
  68.9950342  78.9121608  57.5318544  70.5880342  78.8191608  59.1308544
  71.0053740  79.2706473  59.9321575  71.2460342  77.6451608  58.5808544
  70.8538102  77.4247245  57.5880466  72.7450342  77.8701608  58.4718544
  73.1537818  78.0830557  59.4596303  73.2188751  76.9753445  58.0682719
  72.9391240  78.7136918  57.8093713  70.9480342  76.4421608  59.4628544
  70.8910342  76.5601608  60.6918544  70.7360342  75.2941608  58.8258544
  70.6165908  75.3007513  57.8229640  70.6180342  74.0231608  59.5268544
  71.2463545  74.0366555  60.4174333  69.1690342  73.7681608  59.9538544
  69.1681085  72.8583347  60.5541167  68.8742174  74.6134117  60.5757338
  68.1890342  73.6181608  58.8088544  67.9930342  72.3821608  58.1888544
  68.5560460  71.5203746  58.5472422  67.1020342  72.2391608  57.1358544
  66.9667395  71.2693614  56.6570159  66.3820342  73.3321608  56.6968544
  65.4960342  73.1791608  55.6588544  65.4629602  72.2803165  55.3233180
  66.5530342  74.5681608  57.2928544  65.9884834  75.4321156  56.9421910
  67.4510342  74.7051608  58.3448544  67.5876098  75.6756369  58.8219533
  71.1210342  72.9121608  58.6208544  71.3660342  73.1391608  57.4328544
  71.2480342  71.7101608  59.1728544  71.0442677  71.5830847  60.1538897
  71.7720342  70.5731608  58.4218544  71.6711323  70.7567698  57.3521789
  73.2610342  70.3601608  58.7458544  73.6961703  69.5895398  58.1095376
  73.7861903  71.3018440  58.5860301  73.5360342  69.9491608  60.1708544
  73.4700342  68.6141608  60.5408544  73.2040954  67.8760782  59.7841440
  73.7330342  68.2111608  61.8378544  73.6648374  67.1585595  62.1125914
  74.0840342  69.1521608  62.7878544  74.2963191  68.8443179  63.8117039
  74.1660342  70.4961608  62.4338544  74.4433040  71.2398740  63.1809235
  73.8950342  70.8891608  61.1308544  73.9628597  71.9411275  60.8536077
  70.9890342  69.2891608  58.6468544  70.2770342  69.1511608  59.6408544
  71.1340342  68.3651608  57.6978544  71.6521659  68.6146557  56.8675585
  70.5970342  67.0071608  57.7988544  70.1045788  66.8857578  58.7636592
  69.5770342  66.7201608  56.6878544  70.0889995  66.7944680  55.7284435
  69.1987823  65.7064331  56.8196942  68.4000342  67.6811608  56.6858544
  68.1420342  68.3871608  57.6608544  67.6740342  67.7061608  55.5768544
  66.8776222  68.3239271  55.5121045  67.9206983  67.1073258  54.8018355
  71.7440342  66.0161608  57.6608544  72.7480342  66.3101608  57.0068544
  71.5750342  64.8401608  58.2648544  70.7460403  64.7142681  58.8278991
  72.5500342  63.7441608  58.2068544  73.3293334  64.0178476  57.4955967
  73.1910342  63.5021608  59.6158544  72.5584338  64.0039333  60.3480712
  73.3310342  62.0271608  59.9898544  73.9639249  61.5247889  59.2582995
  73.7826012  61.9437267  60.9784022  72.3465818  61.5593474  60.0000149
  74.5990342  64.0811608  59.6708544  75.0310808  63.7884989  60.6278212
  75.1677162  63.6240585  58.8610656  74.6490342  65.5731608  59.5358544
  74.0809171  66.0310095  60.3456182  75.6850436  65.9084084  59.5847715
  74.2175501  65.8665692  58.5788629  71.8160342  62.5111608  57.6828544
  70.6890342  62.2591608  58.0948544  72.4700342  61.7601608  56.7948544
  73.3736291  62.0774346  56.4739914  71.9310342  60.5141608  56.2358544
  71.0330221  60.2235253  56.7810190  71.5680342  60.7001608  54.7568544
  72.5021758  60.8918465  54.2289004  71.1475772  59.7532635  54.4181784
  70.5830342  61.8241608  54.4688544  69.6183159  61.5425248  54.8908740
  70.9477372  62.7232893  54.9655020  70.4250342  62.0961608  52.9798544
  70.3050342  61.1251608  52.2048544  70.4180342  63.2791608  52.5748544
  72.9520342  59.3751608  56.3768544  74.1540342  59.5881608  56.1868544
  72.4630342  58.1801608  56.7188544  71.4802821  58.1136876  56.9421904
  73.2710342  56.9601608  56.7718544  74.3300435  57.2151878  56.7323603
  72.9980342  56.1931608  58.0788544  71.9415381  55.9430983  58.1757252
  73.5883178  55.2768821  58.0689208  73.3810342  56.9391608  59.3308544
  72.6300342  58.0241608  59.7808544  71.7557952  58.3380735  59.2105345
  72.9830342  58.7021608  60.9388544  72.3945595  59.5576870  61.2703254
  74.0850342  58.2911608  61.6748544  74.3641172  58.8176146  62.5875750
  74.8320342  57.2061608  61.2448544  75.7003089  56.8798556  61.8173264
  74.4740342  56.5351608  60.0848544  75.0546070  55.6749525  59.7515724
  72.8330342  56.1251608  55.5598544  71.9720342  55.2481608  55.6778544
  73.4180342  56.4121608  54.3958544  74.1998058  57.0513115  54.3753872
  72.9040342  55.8911608  53.1098544  71.8161113  55.9492237  53.0759188
  73.4780342  56.6491608  51.8888544  73.0113128  56.2557627  50.9857989
  73.2080342  58.1541608  51.9888544  73.6748747  58.5483857  52.8914874
  73.6239421  58.6572280  51.1159036  72.1329466  58.3289757  52.0304107
  74.8850342  56.4011608  51.7788544  75.2349003  56.8738267  51.0200521
  73.1260342  54.3951608  52.8688544  72.4590342  53.8121608  52.0138544
  74.0590342  53.7861608  53.5998544  74.6613534  54.3376735  54.1941142
  74.3080342  52.3391608  53.5048544  74.2087454  52.0162635  52.4685252
  75.7270342  51.9991608  53.9918544  75.8117129  52.3622592  55.0161045
  75.8189869  50.9130810  53.9831648  76.8360342  52.6091608  53.1438544
  76.5885809  53.6561878  52.9689197  77.7656556  52.5456567  53.7094279
  77.0060342  51.8951608  51.8028544  77.6863125  51.0542437  51.9376837
  76.0335188  51.5264185  51.4767528  77.5480342  52.7761608  50.7618544
  78.5161690  52.6271026  50.5156918  76.8680342  53.7331608  50.1238544
  75.5890342  53.9811608  50.4038544  75.1159540  53.4385801  51.1123043
  75.0985832  54.7105698  49.9063407  77.4770342  54.4651608  49.1938544
  78.4481868  54.2932550  48.9761133  76.9652074  55.1891616  48.7101657
  73.2810342  51.4861608  54.2568544  73.2670342  50.2701608  54.0858544
  72.4400342  52.1101608  55.0848544  72.5729482  53.0926447  55.2776198
  71.3500342  51.4081608  55.7708544  71.7328085  50.5010373  56.2385189
  70.7360342  52.2971608  56.8568544  70.3875820  53.2365639  56.4276667
  69.9021983  51.7874069  57.3395226  71.8820342  52.7451608  58.1788544
  71.0137130  53.4737718  58.8745861  70.2600342  50.9661608  54.7928544
  69.9770342  51.6581608  53.8158544  69.6530342  49.8141608  55.0728544
  69.9528254  49.2847235  55.8790310  68.6120342  49.2401608  54.2108544
  68.9948577  49.1324551  53.1959924  68.1800342  47.8531608  54.7238544
  69.0294619  47.1703880  54.7040215  67.8008035  47.9309760  55.7427896
  67.0950342  47.2121608  53.9098544  67.1830342  47.0511608  52.5418544
  66.0860342  46.4631608  52.0968544  65.9615484  46.2511559  51.0349428
  65.2910342  46.2311608  53.1258544  64.3831039  45.7903793  53.0874606
  65.8980342  46.6881608  54.2718544  65.3952496  46.5845169  55.2333984
  67.4140342  50.1841608  54.1098544  66.9590342  50.4931608  53.0098544
  66.9270342  50.6401608  55.2628544  67.2916342  50.2608198  56.1249835
  65.8610342  51.6421608  55.3408544  65.2387639  51.5984746  54.4470030
  64.9770342  51.3681608  56.5688544  64.8375498  50.2879126  56.6101730
  65.5503942  51.6934201  57.4369355  63.6170342  52.0561608  56.5718544
  63.2158873  52.0071088  57.5841665  63.7652631  53.0987268  56.2904538
  62.6350342  51.4031608  55.6038544  63.1589073  51.2054737  54.6686668
  62.3025346  50.4610120  56.0396286  61.4260342  52.2911608  55.3308544
  60.7095152  51.7029293  54.7575441  60.9896181  52.5565698  56.2937657
  61.7640342  53.5371608  54.5768544  62.1680454  53.2914464  53.6843864
  60.9247396  54.0791398  54.4287220  62.4276404  54.0825801  55.1081206
  66.4950342  53.0351608  55.4218544  67.6480342  53.1741608  55.8458544
  65.7480342  54.0561608  54.9958544  64.8477060  53.8772328  54.5745551
  66.2150342  55.4421608  55.0738544  67.1733550  55.5280029  54.5616517
  65.2200342  56.4111608  54.4188544  64.8931405  55.9574845  53.4832169
  64.3685882  56.5067617  55.0926497  65.8040342  57.7951608  54.1368544
  66.4039568  58.0872896  54.9987445  66.4450353  57.7154436  53.2588653
  64.7290342  58.8461608  53.8868544  65.2059445  59.7623244  53.5385731
  64.0474443  58.4778347  53.1201273  63.9560342  59.1491608  55.0968544
  64.1790886  58.6027841  55.9164998  62.9950342  60.0741608  55.1888544
  62.6590342  60.8291608  54.1378544  63.1358384  60.7032329  53.2564351
  61.9299425  61.5219898  54.2301188  62.3610342  60.2531608  56.3488544
  62.6103133  59.6898624  57.1492637  61.6346493  60.9511604  56.4213819
  66.4370342  55.8191608  56.5398544  65.5130342  55.7431608  57.3498544
  67.6700342  56.2091608  56.8598544  68.3510970  56.3136285  56.1213835
  68.0950342  56.4581608  58.2328544  67.2273233  56.5476576  58.8864347
  68.9790342  55.3061608  58.7438544  69.8973650  55.2891834  58.1569296
  69.3230342  55.4771608  60.2218544  68.4051612  55.4937638  60.8095049
  69.9479845  54.6459945  60.5485025  69.8618409  56.4139539  60.3640045
  68.2870342  54.0641608  58.5648544  68.8357960  53.3434193  58.8826476
  68.8590342  57.7801608  58.3028544  69.8000342  58.0111608  57.5408544
  68.4460342  58.6381608  59.2278544  67.7261955  58.3654269  59.8817258
  69.0010342  59.9741608  59.3338544  69.9849765  59.9047970  59.7976921
  69.1012539  60.3883144  58.3305936  68.1320342  60.8921608  60.1598544
  67.0460342  60.5111608  60.5868544  68.6260342  62.0991608  60.4038544
  69.5946923  62.2959238  60.1962845  67.8390342  63.1291608  61.0778544
  66.7797518  62.9313936  60.9138173  68.1050342  63.1591608  62.5948544
  67.4664447  63.8838784  63.0999158  67.9003311  62.1618255  62.9841089
  69.5220342  63.4901608  62.9818544  69.9320342  64.8101608  63.1228544
  69.2178094  65.6102761  62.9284366  71.2320342  65.1171608  63.5058544
  71.5411829  66.1580918  63.6006725  72.1340342  64.1011608  63.7668544
  73.1550859  64.3354230  64.0679768  71.7340342  62.7811608  63.6438544
  72.4405781  61.9773112  63.8505467  70.4350342  62.4811608  63.2578544
  70.1195253  61.4417145  63.1678242  68.0660342  64.4901608  60.4468544
  69.0440342  64.6981608  59.7258544  67.1300342  65.3961608  60.7178544
  66.3207155  65.1049180  61.2472693  67.2070342  66.7781608  60.2838544
  68.1130208  66.9391821  59.6995945  65.9980342  67.1121608  59.4118544
  66.0477035  66.5082243  58.5058230  65.0928538  66.8622566  59.9652948
  65.9740342  68.4861608  59.0628544  65.2049765  68.6641487  58.5165300
  67.2300342  67.6741608  61.5088544  66.6330342  67.3401608  62.5308544
  67.9170342  68.8081608  61.4008544  68.4935504  68.9558998  60.5848265
  67.9350342  69.8231608  62.4568544  67.4272101  69.4531515  63.3475322
  69.3810342  70.2061608  62.8368544  69.3513278  70.9506858  63.6324047
  70.1540342  68.9831608  63.3148544  70.1845668  68.2383307  62.5196214
  71.1707667  69.2751904  63.5776717  69.6605207  68.5598403  64.1896942
  70.0450342  70.7801608  61.7088544  70.9432881  71.0158753  61.9521217
  67.1410342  71.0761608  62.0588544  67.3360342  72.1491608  62.6288544
  66.2120342  70.9261608  61.1168544  66.0594630  70.0150060  60.7086653
  65.4160342  72.0441608  60.6278544  66.0723389  72.8756927  60.3711094
  64.6200342  71.6441608  59.3788544  64.3477878  72.5495407  58.8363894
  65.2539139  71.0203681  58.7486328  63.4450342  70.9281608  59.7228544
  62.9687877  70.6918268  58.9235201  64.4480342  72.5281608  61.7018544
  64.1030342  71.7611608  62.6068544  63.9890342  73.7931608  61.5968544
  64.5170342  74.8471608  60.7078544  64.2071246  74.6430504  59.6829665
  65.6056055  74.8536818  60.7632531  63.9090342  76.1051608  61.2538544
  63.7545572  76.8220957  60.4474797  64.5691768  76.5399391  62.0043749
  62.6220342  75.6861608  61.8598544  61.8366307  75.5912621  61.1100314
  62.2989464  76.3774584  62.6381998  62.9260342  74.3151608  62.4718544
  63.3533323  74.3879187  63.4719649  61.6460342  73.4651608  62.5228544
  61.0080342  73.4051608  63.5678544  61.2890342  72.8221608  61.4088544
  61.8182880  72.9796096  60.5631596  60.0970342  71.9561608  61.3368544
  59.3086547  72.3539188  61.9758735  59.5750342  71.8941608  59.8948544
  60.4188986  71.6452249  59.2514081  58.8352045  71.0950426  59.8483561
  58.9430342  73.2001608  59.4218544  57.9296003  73.2161197  59.8228504
  59.5121997  74.0298658  59.8410674  58.8910342  73.3351608  57.9088544
  59.9670342  73.3531608  57.2778544  57.7770342  73.4471608  57.3488544
  60.3160342  70.5311608  61.8718544  59.3550342  69.7671608  61.9928544
  61.5670342  70.1761608  62.1698544  62.3087550  70.8423537  62.0081860
  61.9200342  68.8621608  62.7048544  61.1647686  68.1279522  62.4244780
  63.2690342  68.4161608  62.1388544  64.0414524  69.1001860  62.4903924
  63.4853361  67.4096757  62.4970462  63.2460342  68.4181608  60.7248544
  64.1004811  68.1357613  60.3905329  61.9980342  68.9221608  64.2308544
  62.1140342  70.0131608  64.7968544  61.9490342  67.7531608  64.9078544
  61.6760342  66.4061608  64.3728544  62.5853377  66.0021647  63.9278211
  60.8972499  66.4693801  63.6128562  61.2350342  65.6361608  65.5798544
  61.4813310  64.5811535  65.4598685  60.1592926  65.7441026  65.7185266
  61.9790342  66.2411608  66.7138544  62.9856025  65.8286529  66.7828222
  61.4629974  66.0994299  67.6634427  62.0500342  67.7351608  66.3748544
  61.1968102  68.2939412  66.7593950  63.3410342  68.3351608  66.9268544
  64.3290342  68.4581608  66.2058544  63.3130342  68.7051608  68.2048544
  62.4665753  68.5776454  68.7409015  64.4540342  69.3391608  68.8548544
  64.6905200  70.2758640  68.3501162  64.1410342  69.6411608  70.3298544
  63.3151286  70.3524599  70.3355638  63.8234624  68.7126334  70.8042858
  65.3140342  70.2231608  71.0938544  65.5740342  71.5961608  71.0658544
  64.9122036  72.2435419  70.4905481  66.6510342  72.1391608  71.7528544
  66.8349464  73.2132220  71.7269578  67.4970342  71.3071608  72.4738544
  68.5650342  71.8601608  73.1448544  68.6202141  72.8129987  73.0416329
  67.2650342  69.9371608  72.5168544  67.9281361  69.2821067  73.0819213
  66.1770342  69.4031608  71.8318544  65.9855496  68.3306080  71.8644769
  65.7050342  68.4631608  68.7628544  65.6230342  67.2361608  68.8968544
  66.8400342  69.1041608  68.4908544  66.7825711  70.0292407  68.0895759
  68.1650342  68.5331608  68.7298544  68.0909915  67.6631762  69.3823449
  68.8940342  68.1161608  67.4308544  69.6834812  67.4105323  67.6896249
  67.9390342  67.4671608  66.4368544  67.1495170  68.1723986  66.1772360
  68.4859304  67.1872080  65.5365044  67.4974501  66.5769043  66.8846796
  69.5270342  69.2531608  66.8308544  69.9756082  68.9822470  66.0264991
  68.9910342  69.5921608  69.4528544  68.6300342  70.7701608  69.4578544
  70.1090342  69.1811608  70.0428544  70.3412195  68.1983620  70.0600588
  70.9710342  70.1131608  70.7808544  70.3561802  70.7919489  71.3718708
  71.9080342  69.3541608  71.7248544  72.3104140  70.0404813  72.4699409
  71.3728503  68.5476258  72.2260325  73.0790342  68.7301608  71.0428544
  72.9750342  67.5831608  70.2868544  72.1187008  67.0688581  70.1375711
  74.1620342  67.2731608  69.7978544  74.2903785  66.3951906  69.1647706
  75.0310342  68.1741608  70.2148544  76.0179936  68.1899839  70.0009368
  74.3790342  69.0981608  70.9938544  74.9320669  69.9290393  71.4319148
  71.7640342  71.0601608  69.8668544  72.3200342  72.0521608  70.3438544
  71.8270342  70.7521608  68.5718544  71.5439255  69.8338963  68.2608252
  72.3550342  71.6941608  67.5738544  73.2940648  72.1167545  67.9312552
  72.6120342  70.9901608  66.2398544  71.7571268  70.3751732  65.9587444
  72.8040829  71.7240235  65.4571266  73.7870342  70.0911608  66.2748544
  75.0960342  70.4661608  66.2408544  75.2998617  71.5354691  66.1848728
  75.9060342  69.3611608  66.2868544  76.9159079  69.3709256  66.2742310
  75.1230342  68.2411608  66.3568544  75.4870342  66.9011608  66.4238544
  76.5488307  66.6548193  66.4255078  74.4850342  65.9701608  66.4838544
  74.7361711  64.9108451  66.5375243  73.1320342  66.3501608  66.4778544
  72.3372919  65.6056848  66.5251791  72.7660342  67.6971608  66.4108544
  71.7052422  67.9466717  66.3870786  73.7780342  68.6631608  66.3558544
  71.4320342  72.8891608  67.3348544  71.9000342  73.9701608  66.9818544
  70.1310342  72.6851608  67.5408544  69.8448895  71.7330706  67.7190254
  69.0940342  73.6801608  67.2538544  68.1472175  73.1653836  67.0906314
  68.9130342  74.6951608  68.4128544  68.6869192  75.6479367  67.9341172
  68.0401146  74.3519203  68.9680997  70.0830342  74.8731608  69.3678544
  70.4398529  73.8784689  69.6350049  70.8656997  75.4066289  68.8284579
  69.7250342  75.6421608  70.6358544  70.3536292  76.5316989  70.6769565
  68.6790754  75.9400824  70.5629686  69.9310342  74.8151608  71.9018544
  69.0668768  74.1647272  72.0370160  70.8270942  74.2069790  71.7781987
  70.0860342  75.6901608  73.0988544  69.2556534  76.2534901  73.2138646
  70.2204726  75.1171150  73.9196131  70.8869815  76.2926501  72.9739978
  69.2820342  74.2411608  65.8288544  69.3610342  73.4351608  64.9008544
  69.3420342  75.5591608  65.6298544  69.1287938  76.1867552  66.3919260
  69.6670342  76.1381608  64.3228544  70.2057169  75.4025861  63.7254851
  68.3970342  76.5531608  63.5628544  67.8877561  77.2828915  64.1923208
  68.7329389  77.0368542  62.6456256  67.4310342  75.4161608  63.2158544
  66.8643766  75.7050728  62.3306823  68.0263550  74.5308187  62.9925506
  66.4480342  75.0741608  64.3348544  65.9850342  75.9551608  65.0578544
  66.1210342  73.7881608  64.4738544  65.4749808  73.5100289  65.1986709
  66.5210387  73.0986578  63.8536259  70.5830342  77.3451608  64.5218544
  70.7220342  77.8331608  65.6358544  71.2090342  77.8091608  63.4438544
  71.0807831  77.3353469  62.5611589  72.1190342  78.9451608  63.4918544
  72.2803944  79.2254712  64.5327618  73.4860342  78.6061608  62.8538544
  73.3266042  78.3666943  61.8025038  74.4610342  79.7741608  62.9668544
  74.6213307  80.0139206  64.0180061  75.4112155  79.5006335  62.5081197
  74.0481327  80.6435920  62.4552860  74.0630342  77.4801608  63.5238544
  74.9115162  77.2714842  63.1261954  71.4750342  80.1361608  62.7808544
  71.1520342  80.0541608  61.5938544  71.3340342  81.2421608  63.5158544
  71.6975526  81.2290559  64.4580763  70.6470342  82.4471608  63.0548544
  70.0944772  82.2761677  62.1309815  69.6600342  82.9581608  64.1348544
  70.2223207  83.1804253  65.0417897  68.9300342  84.2141608  63.6688544
  68.3671123  83.9925456  62.7621535  68.2452839  84.5474705  64.4486762
  69.6554157  85.0010967  63.4623229  68.6640342  81.8621608  64.4918544
  69.1999990  80.9951740  64.8780896  67.9745231  82.2304605  65.2514789
  68.1039144  81.5755243  63.6017948  71.6660342  83.5351608  62.7078544
  72.5380342  83.8411608  63.5148544  71.5390342  84.1021608  61.5048544
  70.7741873  83.7946830  60.9212741  72.4300342  85.1461608  60.9898544
  73.2384847  85.3254541  61.6986287  73.0390342  84.7161608  59.6508544
  72.2556923  84.4433472  58.9437142  73.6270428  85.5377406  59.2417669
  73.9620342  83.5331608  59.7478544  73.4580342  82.2371608  59.7228544
  72.3821812  82.0881846  59.6309505  74.3030342  81.1441608  59.8128544
  73.8920509  80.1346396  59.8050843  75.6720342  81.3341608  59.9128544
  76.3417440  80.4765814  59.9772464  76.1890342  82.6201608  59.9308544
  77.2652964  82.7732800  60.0103180  75.3380342  83.7111608  59.8478544
  75.7452166  84.7221706  59.8605682  71.6300342  86.4231608  60.7738544
  70.8830342  86.5311608  59.7978544  71.7760342  87.3871608  61.6798544
  72.3151931  87.2233690  62.5180545  71.0930342  88.6721608  61.5348544
  70.0740611  88.5008112  61.1878208  71.0360342  89.4361608  62.8698544
  72.0361560  89.4571774  63.3027677  70.7179562  90.4534679  62.6417917
  70.0720342  88.8161608  63.8578544  68.7060342  88.7911608  63.5958544
  68.3412219  89.2379669  62.6709892  67.8150342  88.2131608  64.4838544
  66.7471792  88.2081068  64.2653094  68.2830342  87.6451608  65.6508544
  67.3910342  87.0691608  66.5238544  66.4818964  87.1213017  66.2199640
  69.6370342  87.6521608  65.9378544  70.0085895  87.2035804  66.8591702
  70.5230342  88.2351608  65.0438544  71.5908256  88.2445089  65.2625649
  71.7460342  89.5291608  60.4548544  72.9290342  89.3911608  60.1668544
  70.9480342  90.4111608  59.8668544  69.9749393  90.4291366  60.1367850
  71.4040342  91.3611608  58.8508544  72.4396514  91.1474022  58.5864614
  70.5410342  91.2561608  57.5818544  69.7357668  91.9828367  57.6894915
  71.1782436  91.5420296  56.7449892  69.9490342  89.8781608  57.3208544
  70.7773674  89.1815825  57.1914569  69.3707126  89.5948189  58.2002653
  68.8890342  89.8121608  55.8698544  67.4280342  90.6761608  56.4258544
  67.6937723  91.6940083  56.7112817  66.6939028  90.7050810  55.6206741
  67.0035567  90.1574132  57.2854014  71.2590342  92.7371608  59.4938544
  70.4630342  92.8881608  60.4208544  72.0170342  93.7301608  59.0258544
  72.7034370  93.5652797  58.3035215  71.9340342  95.0751608  59.6148544
  72.0223809  94.9853192  60.6975467  73.0350342  96.0221608  59.1088544
  73.9268931  95.4299593  58.9039534  72.6879858  96.4866492  58.1858658
  73.3700342  97.1121608  60.1348544  72.4509958  97.3385769  60.6754142
  74.0991677  96.6835576  60.8224320  73.9320342  98.3911608  59.5328544
  73.5160342  99.4851608  59.9848544  74.7860342  98.3121608  58.6188544
  70.5580342  95.6871608  59.3638544  69.9240342  96.1951608  60.2858544
  70.1140342  95.6191608  58.1118544  70.7428559  95.2971621  57.3900514
  68.7680342  96.0411608  57.7218544  68.3568215  96.7210335  58.4680289
  68.8220342  96.7681608  56.3738544  69.3907868  96.1499331  55.6792939
  67.8019035  96.8815048  56.0069941  69.4720342  98.1301608  56.4848544
  68.9030342  98.9901608  57.1918544  70.5400342  98.3441608  55.8718544
  67.8500342  94.8291608  57.6578544  68.2820342  93.7141608  57.9078544
  66.5790342  95.0591608  57.3498544  66.2497954  96.0126272  57.2988354
  65.6150342  93.9791608  57.1298544  66.1222800  93.0175250  57.2076848
  64.4890342  94.0241608  58.1678544  63.7936389  93.2229274  57.9177551
  64.9505891  93.8158572  59.1330884  63.7420342  95.3341608  58.2398544
  62.6470342  95.5831608  57.4098544  62.3341367  94.8134186  56.7043818
  61.9590342  96.7891608  57.4728544  61.1111129  96.9788175  56.8147043
  62.3610342  97.7571608  58.3838544  61.6810342  98.9451608  58.4558544
  60.9508334  98.9976385  57.8348451  63.4420342  97.5311608  59.2198544
  63.7574761  98.2920908  59.9337048  64.1250342  96.3251608  59.1438544
  64.9771020  96.1392382  59.7976995  65.0450342  94.0771608  55.7268544
  65.1740342  95.1071608  55.0638544  64.4230342  92.9911608  55.2818544
  64.4280460  92.1536762  55.8463841  63.7280342  92.9571608  54.0018544
  64.0395419  93.8065783  53.3939465  64.0460342  91.6741608  53.2448544
  63.5751241  90.8963789  53.8460185  63.5424492  91.7421854  52.2805542
  65.5120342  91.3291608  53.0278544  66.0222813  91.2781605  53.9897004
  65.6110342  89.9881608  52.3328544  65.1013774  90.0385187  51.3706627
  66.6598254  89.7366173  52.1751723  65.1432918  89.2222935  52.9515342
  66.2010342  92.4051608  52.2148544  66.1379870  93.3566224  52.7429124
  67.2481361  92.1384575  52.0715073  65.7135908  92.4959531  51.2441564
  62.2290342  93.0261608  54.2238544  61.7170342  92.5361608  55.2318544
  61.5410342  93.6501608  53.2728544  62.0491991  94.1537975  52.5599604
  60.0900342  93.6601608  53.2208544  59.6797427  93.1521322  54.0935898
  59.5470342  95.0971608  53.1888544  59.8541740  95.5661105  52.2540541
  58.0230342  95.1101608  53.2878544  57.7151355  94.6417585  54.2226792
  57.6655616  96.1395724  53.2628694  57.5991901  94.5584403  52.4487708
  60.1030342  95.8371608  54.2848544  59.7658166  96.7358265  54.2679871
  59.7300342  92.8971608  51.9568544  59.9880342  93.3671608  50.8538544
  59.1490342  91.7141608  52.1328544  58.8771041  91.4347843  53.0645744
  58.9620342  90.7601608  51.0408544  59.2519307  91.1756279  50.0757398
  59.7670342  89.4541608  51.2808544  59.6165429  88.7855510  50.4332622
  61.2550342  89.7591608  51.4298544  61.4063743  90.4273976  52.2775906
  61.8016877  88.8311329  51.5972899  61.6212528  90.2370891  50.5212455
  59.2650342  88.6721608  52.4938544  58.2203914  88.3994286  52.3440526
  59.8619439  87.7684307  52.6166156  59.3541613  89.2900046  53.3874014
  57.4860342  90.4391608  50.8188544  56.6860342  90.4641608  51.7528544
  57.1450342  90.1371608  49.5698544  57.8450599  90.2170097  48.8461918
  55.8070342  89.6981608  49.1918544  55.1591109  89.6981021  50.0683786
  55.2080342  90.6331608  48.1418544  55.8098687  90.5263557  47.2393650
  54.1942940  90.2841486  47.9453315  55.1690342  92.0941608  48.5538544
  54.7340623  92.1606395  49.5510910  56.1904099  92.4740768  48.5774662
  54.3410342  92.9251608  47.5828544  54.6884248  93.9572184  47.6305611
  54.4975296  92.5358024  46.5768680  52.8570342  92.8731608  47.9218544
  52.5889253  91.8366486  48.1264535  52.6888801  93.4745438  48.8152534
  52.0180342  93.3911608  46.8118544  52.1733789  92.8337748  45.9840327
  51.0439936  93.3403289  47.0740775  52.2660162  94.3517383  46.6223951
  55.8990342  88.2941608  48.6218544  56.9430342  87.9111608  48.0898544
  54.8000342  87.5451608  48.7348544  54.0092219  87.9379639  49.2251817
  54.6760342  86.1861608  48.1878544  55.2783059  85.4777173  48.7566038
  53.2030342  85.7201608  48.2208544  52.6301897  86.3434373  47.5342135
  53.0640342  84.2481608  47.8118544  53.6362736  83.6241826  48.4983622
  52.0139161  83.9582035  47.8475743  53.4430118  84.1147139  46.7986079
  52.6780342  85.9081608  49.5398544  51.7627475  85.6196061  49.5640770
  55.1550342  86.1131608  46.7378544  54.7740342  86.9501608  45.9178544
  56.0020342  85.1251608  46.4468544  56.3112741  84.5152009  47.1901033
  56.5070342  84.8821608  45.0938544  56.6030266  83.8015295  44.9883992
  55.7428193  85.2471957  44.4076880  57.8360342  85.5331608  44.7458544
  58.4530342  85.1631608  43.7448544  58.2860342  86.4941608  45.5538544
  57.7200115  86.7993293  46.3326931  59.5470342  87.1971608  45.2928544
  59.6822263  87.3244999  44.2187934  59.5400342  88.5821608  45.9538544
  59.4234924  88.4386934  47.0280678  60.5025007  89.0526961  45.7529692
  58.4180342  89.4781608  45.4358544  58.5385499  89.5704715  44.3564770
  57.4847041  88.9589603  45.6536271  58.3850342  90.8671608  46.0638544
  58.1430342  91.8461608  45.3178544  58.5820342  90.9921608  47.2988544
  60.7260342  86.3411608  45.7588544  60.5380342  85.3641608  46.4888544
  61.9310342  86.7071608  45.3228544  62.0231718  87.5740531  44.8128469
  63.1250342  85.8751608  45.5008544  62.8945896  85.0163830  46.1313266
  63.6090342  85.3661608  44.1368544  63.7283635  86.2335492  43.4876263
  64.5782418  84.8915197  44.2899968  62.6540342  84.3721608  43.4858544
  62.7009042  83.4671683  44.0915710  61.6477166  84.7883710  43.5326842
  62.9980342  84.0321608  42.0338544  63.4950342  84.9081608  41.2828544
  62.7430342  82.8731608  41.6308544  64.2640342  86.6121608  46.2118544
  64.6450342  87.7121608  45.8098544  64.7990342  85.9921608  47.2638544
  64.3790191  85.1290268  47.5779982  65.9900342  86.4801608  47.9638544
  66.1835350  87.5252584  47.7221365  65.8640342  86.3211608  49.4938544
  65.7480876  85.2635351  49.7306765  67.1070342  86.8671608  50.1968544
  67.2233917  87.9249275  49.9608648  66.9983775  86.7456885  51.2746016
  67.9867988  86.3206956  49.8570173  64.6000342  87.0081608  50.0208544
  64.7956446  88.0802813  50.0407289  63.7965238  86.7989892  49.3146549
  64.1900342  86.5441608  51.4038544  64.9929150  86.7534361  52.1107393
  63.2880455  87.0726536  51.7124170  63.9937963  85.4721429  51.3846656
  67.1550342  85.6241608  47.4908544  67.0560342  84.4061608  47.5378544
  68.2460342  86.2411608  47.0378544  68.2587578  87.2459434  46.9361226
  69.3950342  85.4781608  46.5428544  69.3966740  84.4901234  47.0031572
  69.3430342  85.3081608  45.0118544  70.0488497  84.5525185  44.6669943
  68.3297668  85.0057569  44.7473906  69.6370342  86.5621608  44.2288544
  70.9430342  86.8791608  43.8528544  71.7549339  86.2147412  44.1486001
  71.2160342  88.0231608  43.1118544  72.2436420  88.2631757  42.8388784
  70.1810342  88.8591608  42.7198544  70.3909149  89.7556009  42.1363776
  68.8750342  88.5511608  43.0728544  68.0593480  89.2063033  42.7670041
  68.6060342  87.4051608  43.8178544  67.5788718  87.1583284  44.0863892
  70.7330342  86.0461608  46.9898544  70.8100342  87.1411608  47.5388544
  71.7810342  85.2651608  46.7598544  71.6496243  84.3652693  46.3205071
  73.1270342  85.6631608  47.1218544  73.4893688  86.3571980  46.3634843
  73.0814817  86.1702558  48.0856380  74.0860342  84.5011608  47.2228544
  73.9040342  83.4831608  46.5618544  75.1150342  84.6741608  48.0478544
  75.2201401  85.5662889  48.5095465  76.1140342  83.6401608  48.3038544
  75.7245455  82.6693866  47.9972680  77.4270342  83.9091608  47.5378544
  78.1564856  83.1493786  47.8184466  77.2050342  83.8661608  46.0458544
  76.4759951  84.6260289  45.7644261  78.1468424  84.0590566  45.5321544
  76.8316810  82.8822926  45.7617570  77.9410342  85.1951608  47.8958544
  78.7571707  85.3580918  47.4173409  76.4350342  83.5561608  49.7908544
  76.3750342  84.5581608  50.4998544  76.7700342  82.3501608  50.2458544
  76.6805423  81.5588825  49.6245902  77.2420342  82.1111608  51.6098544
  77.3371286  83.0681302  52.1229486  76.2930342  81.1891608  52.4108544
  76.1723489  80.2507332  51.8696621  76.8620342  80.9061608  53.7988544
  76.9825746  81.8441387  54.3408582  76.1795948  80.2559526  54.3462175
  77.8307908  80.4160366  53.7019618  74.9140342  81.8421608  52.5488544
  75.0181105  82.6517030  53.2712880  74.6612327  82.2569391  51.5730728
  73.8150342  80.9041608  52.9978544  74.0669251  80.4893164  53.9738436
  72.8752726  81.4519060  53.0680148  73.7100488  80.0945507  52.2756290
  78.6200342  81.4731608  51.4978544  78.7670342  80.4061608  50.8968544
  79.6200342  82.1461608  52.0628544  79.4157938  83.0359326  52.4949323
  80.9960342  81.6641608  52.0898544  81.1082416  80.8358921  51.3902261
  81.6727871  82.4709689  51.8084906  81.3520342  81.1851608  53.4818544
  80.9020342  81.7661608  54.4688544  82.1490342  80.1201608  53.5508544
  82.4915402  79.7154694  52.6911952  82.5690342  79.5201608  54.8138544
  82.4131908  80.2262903  55.6294481  81.7590342  78.2621608  55.0978544
  81.6605894  77.7261746  54.1538594  82.3388552  77.6605979  55.7978757
  80.3880342  78.5221608  55.6738544  80.4828122  79.1865432  56.5327572
  79.7670124  78.9972687  54.9144425  79.6100342  76.9841608  56.1978544
  80.5920342  76.6171608  57.6518544  80.4944843  77.4300167  58.3714711
  80.2411972  75.6890500  58.1031021  81.6384101  76.5089317  57.3663982
  84.0290342  79.1321608  54.7328544  84.4770342  78.6151608  53.7168544
  84.7620342  79.3711608  55.8108544  84.3769086  79.9107279  56.5728550
  86.1450342  78.9201608  55.9128544  86.2405009  77.9239561  55.4809266
  87.0830342  79.8761608  55.1558544  88.0601585  79.3939466  55.1276250
  86.6897292  79.9586188  54.1426358  87.2210342  81.2681608  55.7618544
  86.2683270  81.5371524  56.2180268  87.9933022  81.2302642  56.5301435
  87.5960342  82.3121608  54.7158544  87.9206255  83.2243712  55.2164657
  88.4080707  81.9287298  54.0980543  86.4550342  82.6321608  53.8478544
  86.4324685  82.1453553  52.9632016  85.4690342  83.4961608  54.1278544
  84.4830342  83.6711608  53.2468544  84.4871124  83.1535791  52.3795640
  83.7368333  84.3204592  53.4510490  85.4430342  84.1931608  55.2678544
  86.1820608  84.0741373  55.9459202  84.6844772  84.8357436  55.4461163
  86.5310342  78.8231608  57.3818544  85.9030342  79.4771608  58.2248544
  87.5520342  78.0041608  57.7028544  88.3280342  77.0861608  56.8508544
  88.5706593  77.5827058  55.9113458  87.7358704  76.1939642  56.6473199
  89.5440342  76.7891608  57.6758544  90.3272916  77.5182604  57.4684402
  89.9131288  75.7875267  57.4554009  89.0750342  76.8831608  59.0778544
  89.9372789  77.1571745  59.6857603  88.6131577  75.9847912  59.4873685
  88.0640342  78.0291608  59.0638544  87.2339341  77.9006790  59.7584943
  88.7590342  79.3521608  59.3448544  89.3650342  79.9301608  58.4388544
  88.6530342  79.8261608  60.5838544  88.0381935  79.3661838  61.2399729
  89.3540342  81.0341608  61.0198544  89.1549180  81.8501027  60.3250950
  88.8760342  81.4511608  62.4148544  87.7875191  81.5080146  62.4161345
  89.2004842  80.6911626  63.1256532  89.4300342  82.7881608  62.8508544
  90.4040342  82.8481608  63.6028544  88.8220342  83.8681608  62.3728544
  89.1523320  84.7865400  62.6328213  88.0322507  83.7659739  61.7516454
  90.8700342  80.7841608  61.0028544  91.3350342  79.7241608  61.4298544
  91.6250342  81.7541608  60.4878544  91.1836013  82.6090661  60.1806522
  93.0690342  81.5941608  60.2598544  93.1920150  80.6768024  59.6841561
  93.6130342  82.7601608  59.4408544  93.5051861  83.6847506  60.0079545
  94.6670463  82.5900862  59.2212332  93.0561969  82.8401224  58.5072391
  93.8700342  81.4321608  61.5578544  94.8500342  80.6901608  61.5818544
  93.4390342  82.1121608  62.6238544  92.6368359  82.7184324  62.5289238
  94.1110342  82.0451608  63.9288544  95.1906422  82.0295153  63.7795192
  93.7540342  83.2561608  64.8038544  92.6985074  83.1453991  65.0522373
  94.3521886  83.1578221  65.7097467  93.9890342  84.6301608  64.1868544
  93.3297053  84.7198585  63.3235233  93.7143249  85.3764870  64.9322630
  95.4310342  84.8561608  63.7498544  96.0856612  84.6968351  64.6066962
  95.6764123  84.1381433  62.9673328  95.6250342  86.2721608  63.2188544
  95.4126291  86.9705657  64.0283080  96.6649065  86.3797539  62.9103279
  94.7290342  86.5661608  62.0598544  93.7654066  86.4669384  62.3456451
  94.8900807  87.5108792  61.7409954  94.9259870  85.9193859  61.3095272
  93.7440342  80.7631608  64.6808544  94.5950342  80.1511608  65.3328544
  92.4690342  80.3791608  64.6028544  91.8167069  80.9553598  64.0904453
  91.9610342  79.1871608  65.2718544  92.7825895  78.5368439  65.5722442
  91.1910342  79.6111608  66.5228544  91.8190296  80.2964751  67.0921217
  90.2802188  80.1246100  66.2148199  90.8120342  78.4461608  67.4158544
  90.9080342  77.2731608  67.0358544  90.3670342  78.7711608  68.6218544
  90.0963380  78.0449761  69.2695265  90.3008126  79.7434104  68.8872712
  91.0760342  78.3901608  64.3018544  89.9300342  78.7651608  64.0408544
  91.6130342  77.2841608  63.7828544  92.5493561  77.0199627  64.0541476
  90.9360342  76.4881608  62.7458544  90.6504501  77.1355034  61.9167052
  91.8620342  75.3821608  62.2098544  92.2497945  74.8042382  63.0487506
  91.2722835  74.7323002  61.5633443  93.0390342  75.9281608  61.4088544
  94.1880342  75.2661608  61.5268544  92.9190342  76.9211608  60.6848544
  93.7148163  77.2623074  60.1648066  92.0256883  77.3873476  60.6162709
  89.5930342  75.8731608  63.1748544  88.7690342  75.5621608  62.3168544
  89.3740342  75.7001608  64.4788544  90.1292609  75.8421780  65.1342651
  88.0910342  75.1941608  64.9918544  87.7355493  74.3806418  64.3594648
  88.2550342  74.6671608  66.4218544  88.5864542  75.4966198  67.0465606
  87.2790797  74.3227369  66.7638850  89.2610342  73.5231608  66.5198544
  89.1239845  72.8812207  65.6496641  90.2618231  73.9545156  66.4984855
  89.0910342  72.7021608  67.7858544  89.2625711  73.3386674  68.6539174
  88.0774037  72.3030895  67.8232008  90.0360342  71.5861608  67.8288544
  90.8391234  71.7105382  68.4285856  89.9190342  70.4401608  67.1478544
  88.8800342  70.2161608  66.3338544  88.1655244  70.9218330  66.2261396
  88.8154371  69.3425194  65.8311839  90.8550342  69.4971608  67.2808544
  91.6428862  69.6547217  67.8928707  90.7708742  68.6306480  66.7688276
  86.9430342  76.2171608  64.9178544  85.7760342  75.8311608  64.9408544
  87.2740342  77.5061608  64.8258544  88.2355275  77.7799513  64.9696208
  86.2790342  78.5591608  64.5818544  85.3428084  78.3028718  65.0777338
  86.7700342  79.9021608  65.1278544  87.7371770  80.1075863  64.6690141
  86.0570026  80.6713658  64.8311904  86.9170342  79.9041608  66.6438544
  86.2540342  79.0961608  67.3348544  87.7000342  80.7321608  67.1458544
  85.9420342  78.6981608  63.1028544  86.6870342  78.2261608  62.2398544
  84.8110342  79.3431608  62.8248544  84.2558876  79.7025982  63.5882130
  84.3320342  79.5561608  61.4578544  85.0362051  79.1243578  60.7466662
  82.9710342  78.8901608  61.2628544  82.3853359  79.2942966  62.0885244
  82.5734459  79.2635026  60.3191175  82.8910342  77.3671608  61.2808544
  83.2999278  76.9898354  62.2181550  81.4350342  76.9411608  61.1548544
  81.0255576  77.3177519  60.2175141  81.3719177  75.8530591  61.1671718
  80.8635913  77.3472060  61.9895283  83.7320342  76.7651608  60.1678544
  84.7728530  77.0619708  60.2970812  83.6576777  75.6782629  60.2028585
  83.3697702  77.1227556  59.2040133  84.1820342  81.0361608  61.1488544
  83.5850342  81.7751608  61.9318544  84.7230342  81.4541608  60.0048544
  85.3818432  80.8552853  59.5279705  84.4110342  82.7561608  59.4098544
  83.9899648  83.4106438  60.1730397  85.6630342  83.4201608  58.8328544
  86.1042892  82.7226323  58.1209223  85.3516468  84.3242171  58.3095761
  86.6910342  83.7781608  59.8948544  86.3910342  83.7061608  61.1098544
  87.8180342  84.1431608  59.4998544  83.3900342  82.5491608  58.2978544
  83.5040342  81.6021608  57.5198544  82.3890342  83.4251608  58.2438544
  82.3348082  84.1427877  58.9524942  81.3810342  83.4161608  57.1908544
  81.5644272  82.5759385  56.5211584  79.9740342  83.2801608  57.7708544
  79.7507102  84.0848739  58.4713274  79.2658410  83.3128786  56.9429100
  79.7220342  81.9931608  58.5008544  80.1750342  81.8151608  59.8028544
  80.7333970  82.6168245  60.2862447  79.9240342  80.6341608  60.4868544
  80.2934253  80.5044029  61.5041124  79.2040342  79.6201608  59.8768544
  79.0068982  78.6912686  60.4120148  78.7340342  79.7881608  58.5838544
  78.1656096  78.9939295  58.0999223  78.9890342  80.9721608  57.9048544
  78.6132277  81.1108826  56.8911357  81.4290342  84.7241608  56.4258544
  81.8260342  85.7541608  56.9738544  81.0220342  84.6751608  55.1618544
  80.9651259  83.7828780  54.6920754  80.6730342  85.8781608  54.4088544
  80.5314369  86.7087699  55.1003296  81.7510342  86.2721608  53.3798544
  81.7940740  85.5077726  52.6039945  81.4230342  87.6291608  52.7428544
  81.3802802  88.3941914  53.5180962  82.1964828  87.8881518  52.0198053
  80.4590238  87.5704043  52.2375504  83.0310342  86.3441608  54.0218544
  83.6988712  86.5897261  53.3774231  79.3550342  85.6101608  53.6938544
  79.2550342  84.6531608  52.9188544  78.3470342  86.4311608  53.9808544
  78.4591898  87.1134079  54.7171012  77.0600342  86.3511608  53.3038544
  77.0726818  85.5118550  52.6085091  75.8910342  86.1801608  54.2938544
  75.8680699  87.0357458  54.9687968  74.5670342  86.0911608  53.5408544
  74.5890690  85.2354791  52.8660033  73.7507741  85.9705890  54.2530921
  74.4140428  87.0037406  52.9647547  76.1000342  84.9141608  55.1338544
  76.1710902  84.0838204  54.4312972  77.0532076  85.0368428  55.6481589
  75.0090342  84.6241608  56.1518544  74.0555768  84.5008872  55.6382179
  75.2504087  83.7094439  56.6932698  74.9376927  85.4539113  56.8550786
  76.8630342  87.6091608  52.4668544  76.8140342  88.7121608  53.0088544
  76.7780342  87.4311608  51.1478544  77.0560615  86.5436024  50.7541028
  76.3180342  88.4811608  50.2368544  76.4154757  89.4508586  50.7250045
  77.1370342  88.4991608  48.9478544  77.2687565  87.4689224  48.6171623
  76.5685992  89.0507127  48.1990072  78.4900342  89.1461608  49.1298544
  79.3380342  88.5821608  49.8438544  78.7140342  90.2291608  48.5528544
  74.8520342  88.2201608  49.9238544  74.4920342  87.1151608  49.5388544
  74.0150342  89.2401608  50.0938544  74.3865522  90.1435823  50.3505709
  72.5660342  89.1031608  49.9438544  72.3234642  88.1409404  49.4928655
  71.8960342  89.1821608  51.3178544  72.4969436  88.5116243  51.9321736
  72.0019036  90.2030446  51.6848530  70.4230342  88.7621608  51.3938544
  70.2161072  88.0493255  50.5956389  70.1210342  88.1191608  52.7378544
  70.3272943  88.8315979  53.5365965  69.0714193  87.8274351  52.7739856
  70.7475440  87.2367533  52.8680191  69.4770342  89.9331608  51.1568544
  69.6582643  90.3528065  50.1673330  68.4456453  89.5863421  51.2205323
  69.6495937  90.6990967  51.9129394  72.0300342  90.2031608  49.0438544
  72.3850342  91.3691608  49.2278544  71.1850342  89.8201608  48.0868544
  71.0159729  88.8322640  47.9620443  70.4970342  90.7581608  47.2018544
  70.6506286  91.7777859  47.5552276  71.0350342  90.6491608  45.7828544
  71.0213427  89.5955611  45.5038572  70.3700207  91.2076012  45.1240666
  72.4380342  91.1851608  45.6518544  72.8390342  92.0451608  46.4638544
  73.1400342  90.7451608  44.7258544  69.0050342  90.4601608  47.1908544
  68.5960342  89.2971608  47.2048544  68.1990342  91.5171608  47.1778544
  68.5924196  92.4424436  47.2737658  66.7470342  91.3901608  47.0568544
  66.5047625  90.4902635  46.4915327  66.0900342  91.2931608  48.4358544
  66.4725277  90.4118477  48.9507187  66.2887246  92.1798275  49.0378879
  64.5990342  91.1411608  48.3748544  64.0370342  89.9321608  48.0048544
  64.6915042  89.0922685  47.7717238  62.6650342  89.7811608  47.9288544
  62.2353163  88.8204965  47.6450107  61.8370342  90.8521608  48.2138544
  60.7548841  90.7374396  48.1514850  62.3830342  92.0681608  48.5778544
  61.7343875  92.9142290  48.8048481  63.7580342  92.2101608  48.6538544
  64.1921221  93.1695409  48.9353814  66.2150342  92.6011608  46.3038544
  66.5320342  93.7301608  46.6668544  65.4370342  92.3531608  45.2488544
  65.3574386  91.4021904  44.9180686  64.7190342  93.4051608  44.5208544
  64.8161419  94.3476557  45.0597168  65.2810342  93.5901608  43.1028544
  65.1854067  92.6291552  42.5974605  64.6485679  94.3258770  42.6060567
  66.7340342  94.0501608  43.0488544  66.7806683  94.9171210  42.3898354
  67.0237441  94.3450797  44.0574143  67.6890342  92.9721608  42.5398544
  68.6761289  93.1581879  42.9631002  67.3259450  92.0018919  42.8787407
  67.7800342  92.9771608  41.0148544  66.7626024  92.9315877  40.6264525
  68.2398902  93.9197197  40.7178453  68.5740342  91.8411608  40.4628544
  68.1478447  90.9676737  40.7375952  68.5948111  91.9033194  39.4549831
  69.5169611  91.8834504  40.8222979  63.2350342  93.0371608  44.4588544
  62.8470342  92.1531608  43.7008544  62.4210342  93.7021608  45.2758544
  62.8107604  94.4019946  45.8910336  60.9780342  93.4631608  45.3228544
  60.7213453  92.7252882  44.5627531  60.7204270  93.0740169  46.3078950
  60.1850342  94.7271608  45.0698544  60.7580342  95.7911608  44.8178544
  58.8600342  94.5951608  45.1298544  58.4664341  93.6718092  45.2421050
  57.9390342  95.7341608  44.9948544  58.1074852  96.2278678  44.0377876
  56.4770342  95.2701608  45.0568544  56.4105302  94.5397008  45.8631450
  55.8776183  96.1448316  45.3093450  55.9550342  94.6531608  43.7708544
  56.0856446  95.3692177  42.9594949  56.5240305  93.7495016  43.5523474
  54.4830342  94.2891608  43.8648544  53.6300342  95.1591608  44.0458544
  54.1790342  92.9981608  43.7458544  53.2148846  92.7023774  43.8008915
  54.9140047  92.3206896  43.6011041  58.1520342  96.8021608  46.0628544
  58.0640342  97.9921608  45.7678544  58.4290342  96.3641608  47.2918544
  58.5912820  95.3763136  47.4257684  58.4690342  97.2401608  48.4658544
  58.0836804  98.2285083  48.2153135  57.5970342  96.6411608  49.5758544
  58.1243571  95.7231289  49.8351752  57.6115969  97.3209503  50.4277782
  56.1480342  96.3111608  49.2118544  56.1402294  95.6941482  48.3133360
  55.4690342  95.5591608  50.3498544  55.4760408  96.1757693  51.2486557
  54.4393171  95.3328976  50.0731082  56.0053151  94.6300877  50.5430550
  55.3780342  97.5751608  48.8578544  55.8514846  98.0630196  48.0058345
  54.3505722  97.3158231  48.6025762  55.3797485  98.2532694  49.7112387
  59.8690342  97.4851608  49.0298544  60.0180342  98.2831608  49.9548544
  60.8860342  96.8151608  48.4878544  60.7469392  96.2693448  47.6495008
  62.2140342  96.8171608  49.1018544  62.4691132  97.8132665  49.4635272
  62.2080342  95.8521608  50.2898544  61.5284789  96.2292972  51.0541004
  61.8682891  94.8725233  49.9537239  63.7880342  95.5771608  51.1168544
  63.3229493  94.7240878  52.0250729  63.3110342  96.4151608  48.1158544
  63.1720342  95.4251608  47.3938544  64.3870342  97.2011608  48.0898544
  64.3515377  98.0787118  48.5885964  65.6150342  96.8611608  47.3708544
  65.5308960  95.8513251  46.9692926  65.8690342  97.8281608  46.2128544
  65.4674866  98.7978240  46.5071534  66.9489792  97.9056958  46.0871278
  65.2360342  97.3951608  44.8998544  65.6696599  96.4364588  44.6153193
  64.1676613  97.2717927  45.0772206  65.4510342  98.4021608  43.7778544
  66.5950342  98.8901608  43.6148544  64.4750342  98.7001608  43.0528544
  66.7630342  96.9341608  48.3558544  66.9520342  97.9591608  49.0058544
  67.5200342  95.8491608  48.4748544  67.3006341  95.0224820  47.9376717
  68.6660342  95.8031608  49.3798544  69.0491618  96.8112335  49.5382897
  68.2650342  95.2151608  50.7318544  67.3538629  95.7511233  50.9975802
  68.0413871  94.1547006  50.6156379  69.3100342  95.3991608  51.8438544
  70.3056578  95.2760402  51.4176199  69.1920342  96.7851608  52.4658544
  68.1967612  96.9088633  52.8927362  69.9399462  96.8965319  53.2509180
  69.3548641  97.5429621  51.6994838  69.1820342  94.3191608  52.9138544
  69.3291864  93.3387923  52.4607282  69.9359013  94.4794533  53.6846281
  68.1894367  94.3665458  53.3617424  69.7650342  94.9571608  48.7758544
  69.5020342  93.8881608  48.2438544  70.9930342  95.4521608  48.8628544
  71.1104651  96.3976772  49.1979782  72.1780342  94.7041608  48.4838544
  71.9357445  93.6464586  48.3806021  72.7110342  95.2151608  47.1478544
  71.9637947  95.0219740  46.3781719  72.8798377  96.2890053  47.2282492
  73.9210342  94.5731608  46.8008544  74.2332229  94.9124055  45.9588027
  73.2030342  94.9011608  49.5958544  73.6110342  96.0301608  49.8608544
  73.6040342  93.8151608  50.2568544  73.2161944  92.9111310  50.0279226
  74.5440342  93.9041608  51.3768544  75.1659389  94.7930054  51.2706044
  73.7810342  93.9961608  52.7018544  74.4776284  94.1331341  53.5289542
  73.0801750  94.8305575  52.6758076  72.8030342  92.5331608  53.1078544
  72.3306127  92.9974153  54.2611904  75.5380342  92.7501608  51.4298544
  75.3010342  91.6821608  50.8798544  76.6580342  93.0081608  52.0988544
  76.7740027  93.9364102  52.4796479  77.7250342  92.0371608  52.3078544
  77.3765151  91.0385700  52.0443206  78.9290342  92.3811608  51.4318544
  78.5665440  92.7265822  50.4636684  79.4924892  93.1798254  51.9142996
  79.7700342  91.2551608  51.2468544  80.5158339  91.5001569  50.6942609
  78.1010342  92.0971608  53.7858544  78.3400342  93.1851608  54.3228544
  78.1390342  90.9381608  54.4398544  78.0167295  90.0755368  53.9289524
  78.3470342  90.8641608  55.8868544  78.7870062  91.7920292  56.2523459
  77.0120342  90.6251608  56.6278544  76.6649280  89.6164183  56.4041221
  77.1830342  90.7801608  58.1298544  77.5297010  91.7888705  58.3544126
  76.2275177  90.6063296  58.6246978  77.9147158  90.0566194  58.4893408
  76.0260342  91.5581608  56.1698544  75.1998681  91.4042015  56.6339087
  79.2990342  89.7241608  56.2308544  79.0550342  88.5821608  55.8468544
  80.3720342  90.0441608  56.9518544  80.5935127  91.0182545  57.1008111
  81.2670342  89.0371608  57.5138544  81.2465672  88.1412976  56.8932824
  82.7070342  89.5601608  57.5718544  82.6753257  90.5262852  58.0755383
  83.3052353  88.8639790  58.1597204  83.3320342  89.7271608  56.1928544
  82.8840342  89.0671608  55.2238544  84.2950342  90.5151608  56.0828544
  80.7970342  88.6551608  58.9138544  80.5350342  89.5311608  59.7348544
  80.6750342  87.3501608  59.1718544  80.7932598  86.6900015  58.4166645
  80.3550342  86.8311608  60.5048544  80.2075576  87.6691773  61.1860872
  79.0850342  85.9751608  60.4998544  79.2947432  85.0780879  59.9172897
  78.9316853  85.7021409  61.5439063  77.8390342  86.6421608  59.9658544
  77.6060342  86.7251608  58.5938544  78.3456498  86.3119634  57.9080438
  76.4580342  87.3201608  58.0978544  76.2921952  87.3821067  57.0223257
  75.5170342  87.8301608  58.9728544  74.3940342  88.4121608  58.4568544
  74.3753566  88.4055988  57.4970587  75.7160342  87.7571608  60.3438544
  74.9777887  88.1644433  61.0346618  76.8670342  87.1591608  60.8328544
  77.0279436  87.0850003  61.9083582  81.4900342  85.9801608  61.0558544
  82.3090342  85.4511608  60.3068544  81.5100342  85.8451608  62.3768544
  80.8614783  86.3850564  62.9318205  82.4620342  84.9871608  63.0678544
  82.9180601  84.2957993  62.3592227  83.5690342  85.8261608  63.7148544
  83.0929650  86.6798599  64.1971978  84.0512274  85.2052342  64.4698643
  84.6130342  86.3211608  62.7228544  84.8950676  85.4862510  62.0813844
  84.1611014  87.1070871  62.1177274  85.8510342  86.8661608  63.4188544
  86.2117351  86.1264905  64.1336143  86.6230496  87.0569453  62.6734063
  85.5710342  88.1151608  64.1358544  84.6145283  88.4384116  64.1093071
  86.4710342  88.8391608  64.8108544  87.7500342  88.4571608  64.8878544
  88.0485746  87.6076434  64.4303678  88.4117986  89.0198614  65.4031558
  86.0910342  89.9661608  65.4168544  85.1278689  90.2652259  65.3623328
  86.7684110  90.5146836  65.9271309  81.7280342  84.1581608  64.1128544
  81.1200342  84.7081608  65.0288544  81.7540342  82.8381608  63.9358544
  82.0500201  82.4660197  63.0447861  81.3350342  81.9041608  64.9678544
  80.6228331  82.3932435  65.6324346  80.6660342  80.6671608  64.3578544
  79.9827565  81.0131362  63.5822696  81.4502823  80.0598546  63.9059315
  79.8980342  79.8301608  65.3748544  80.6429485  79.4099171  66.0505753
  79.2607619  80.5237121  65.9234641  78.8800342  78.4901608  64.7028544
  77.7650342  79.3901608  63.6378544  78.3373871  79.9199383  62.8763776
  77.0792523  78.6928678  63.1566203  77.1967562  80.1079339  64.2294312
  82.5990342  81.5421608  65.7448544  83.5170342  80.9231608  65.2008544
  82.6560342  81.9751608  67.0028544  81.8895903  82.5262391  67.3619863
  83.8170342  81.7481608  67.8718544  84.3163069  80.8219097  67.5874518
  84.8200342  82.9071608  67.7418544  85.6093029  82.7313356  68.4727715
  85.2387123  82.8573188  66.7367054  84.2150342  84.2831608  67.9708544
  83.3672442  84.3924933  67.2945414  83.8645411  84.3269767  69.0020366
  85.2080342  85.4091608  67.7248544  85.9786907  85.3927377  68.4955150
  85.6708291  85.2820588  66.7461995  84.5350342  86.7121608  67.7608544
  83.5376125  86.6900742  67.6034968  85.1190342  87.8931608  67.9878544
  84.3720342  89.0001608  67.9918544  83.3781252  88.9356169  67.8242864
  84.8044136  89.8968506  68.1624272  86.4330342  87.9951608  68.2208544
  87.0075784  87.1645263  68.2275977  86.8440842  88.9023014  68.3888795
  83.3700342  81.5651608  69.3248544  82.1930342  81.3081608  69.6008544
  84.1610342  81.6541608  70.2638544  81.3360342  59.7181608  70.2898544
  80.5280342  60.2351608  71.4388544  79.0340342  60.2011608  71.0868544
  78.6680342  60.3171608  69.9028544  80.9810342  61.6551608  71.8048544
  80.9760342  62.6511608  70.6238544  81.4780342  64.3341608  71.0608544
  80.2860342  65.4061608  70.2118544  82.9250342  64.5811608  70.0058544
  84.2160342  64.1451608  70.6778544  85.2300342  64.1361608  69.6838544
  84.6330342  65.1691608  71.7238544  84.6440342  64.6311608  73.0348544
  86.0020342  65.6631608  71.2688544  86.9260342  65.7261608  72.3248544
  86.4180342  64.5521608  70.3258544  78.1710342  60.0641608  71.9678544
  90.9910342  63.0681608  68.3378544  90.1970342  62.3781608  69.2388544
  89.0100342  62.9551608  69.6448544  88.6220342  64.1651608  69.1698544
  89.4200342  64.8611608  68.2608544  90.6220342  64.2961608  67.8378544
  91.4300342  64.9191608  66.9758544  88.7920342  66.0181608  67.9698544
  87.6270342  66.0741608  68.6598544  87.5140342  64.9281608  69.4088544
  83.8924627  64.2974643  73.2069237  86.7340859  65.1453050  72.9004788
  92.1664795  64.5477574  66.7310650  91.2139187  65.6917643  66.6656336
  82.8097753  64.0839635  69.1809470  82.9889447  65.5187394  69.7656531
  82.1928103  59.6809890  70.3488637  80.9436089  59.4587510  69.5705089
  81.5682235  62.3177250  69.9321938  80.0839810  62.6796398  70.2438598
  80.4932160  66.3348215  70.4010577  80.3363819  65.2526807  69.2553054
  79.3904234  65.2054255  70.5238425  80.4028134  61.9975060  72.5042173
  81.8773504  61.6115852  72.1739283  80.6688016  59.6666864  72.2120759
  86.9837793  66.7996626  68.6304557  84.0897335  63.2778156  71.0924838
  83.9988816  65.9009392  71.7841270  85.9711129  66.5564317  70.8911747
  90.4677231  61.5106043  69.5765928  86.8159886  63.8127112  70.8103847
  95.0470342  89.4851608  74.3328544  94.4239272  89.9630939  74.9680063
  96.0308902  89.4128613  74.5494178  94.6100342  88.0881608  74.1528544
  93.7869870  87.8808091  74.8367396  95.4435019  87.4219917  74.3756779
  94.1920342  88.0211608  72.7078544  93.1031285  88.0173477  72.6591927
  94.5777933  87.0981807  72.2749584  94.7640342  89.2131608  72.0168544
  94.0908405  89.5611406  71.2333881  95.7442451  89.0061122  71.5874157
  94.8870342  90.2811608  73.1108544  95.7883416  90.8837345  72.9983916
  93.6550342  91.2001608  73.1198544  92.8080342  91.1001608  74.0138544
  93.5770342  92.0881608  72.1268544  94.3520760  92.1724079  71.4847391
  92.4220342  92.9811608  71.9468544  92.1721979  93.4481446  72.8995386
  92.7290342  94.0881608  70.9218544  93.0825070  93.6320502  69.9971277
  91.8039451  94.6310904  70.7281084  93.7800342  95.0761608  71.4098544
  94.7140342  95.4241608  70.5338544  93.7430342  95.5301608  72.5518544
  94.4502460  96.1843806  72.8550833  93.0056105  95.2466361  73.1810768
  91.2000342  92.1811608  71.4878544  91.3450342  91.1341608  70.8518544
  90.0090342  92.6961608  71.7978544  89.9775522  93.5777001  72.2897859
  88.7390342  91.9841608  71.5558544  88.8724607  91.0091861  72.0245984
  87.5910342  92.7031608  72.2478544  87.4392849  93.6775501  71.7834865
  86.6810133  92.1106449  72.1535833  87.8289899  92.8372487  73.3030780
  88.3960342  91.7451608  70.0768544  87.7150342  90.7661608  69.7558544
  88.8580342  92.6331608  69.1928544  89.2984384  93.4778337  69.5285197
  88.6810342  92.4681608  67.7418544  87.6353589  92.2559803  67.5190503
  89.0900342  93.7491608  67.0018544  90.1421501  93.9185880  67.2308651
  88.9791109  93.5426964  65.9373505  88.2690342  95.0161608  67.3718544
  88.3127306  95.6682982  66.4995538  87.2472535  94.6624911  67.5096260
  88.7120342  95.7971608  68.6168544  89.6930342  95.3751608  69.2658544
  88.0570342  96.8261608  68.8948544  89.4510342  91.2661608  67.1638544
  89.0320342  90.6941608  66.1528544  90.5610342  90.8881608  67.8078544
  90.8315857  91.3976214  68.6369208  91.4390342  89.8011608  67.3378544
  91.3368246  89.6740377  66.2601290  92.9060342  90.1451608  67.6558544
  93.0019900  90.1707199  68.7413213  93.5360138  89.3513336  67.2545264
  93.3460342  91.4861608  67.0748544  93.0030342  91.7871608  65.9108544
  94.0510342  92.2381608  67.7858544  91.1310342  88.4051608  67.9198544
  91.7110342  87.4171608  67.4648544  90.2240342  88.3171608  68.8968544
  89.6689864  89.1260743  69.1370213  90.0690342  87.0951608  69.7108544
  91.0511305  86.6927254  69.9591120  89.3190342  87.4021608  71.0178544
  88.4044389  87.9311936  70.7500130  89.0644276  86.4470941  71.4773357
  90.1190342  88.2401608  72.0018544  91.0127427  87.6736968  72.2635882
  90.4082465  89.1583824  71.4906525  89.2200342  88.6581608  73.5078544
  89.2750342  87.0901608  74.3698544  90.3130851  86.8067210  74.5436682
  88.7591250  87.1820885  75.3256199  88.7864274  86.3255857  73.7658763
  89.3820342  85.9181608  69.0038544  88.5140342  86.1061608  68.1458544
  89.8000342  84.7111608  69.3918544  90.5896933  84.6816891  70.0208769
  89.2140342  83.4411608  68.9518544  88.4198438  83.6146725  68.2257315
  90.2970342  82.5511608  68.2968544  89.8365412  81.6191775  67.9690532
  90.9210342  83.2541608  67.1038544  91.3821625  84.1860698  67.4309720
  91.6797443  82.6107554  66.6583349  90.1496510  83.4708913  66.3648711
  91.3230342  82.2381608  69.2508544  91.9892550  81.6862365  68.8347657
  88.5960342  82.7241608  70.1668544  88.5570342  83.2921608  71.2648544
  88.1220342  81.4891608  69.9788544  88.0451534  81.1301179  69.0379629
  87.5590342  80.6841608  71.0848544  86.8523911  81.2879180  71.6542681
  86.8200342  79.4421608  70.5398544  86.3946847  78.9050403  71.3876035
  86.0166939  79.7875036  69.8890989  87.6780342  78.5751608  69.8128544
  87.1762727  77.8208756  69.4952240  88.5430342  80.2701608  72.2168544
  88.0900342  79.8941608  73.3088544  89.8460342  80.2951608  71.9158544
  90.1103764  80.5060904  70.9641553  90.9050342  79.9911608  72.8788544
  90.5518445  79.2530497  73.5989573  92.1300342  79.4231608  72.1568544
  91.7856874  78.5864462  71.5490442  92.5137401  80.2098140  71.5072034
  93.2360342  78.9511608  73.0888544  93.4860325  79.7657305  73.7686175
  92.8655914  78.1011589  73.6618910  94.4770342  78.5381608  72.3158544
  94.2104217  77.7247836  71.6409956  94.8239702  79.3926798  71.7348792
  95.5820342  78.0791608  73.2488544  95.7908431  78.8778577  73.9606006
  95.2391208  77.1949180  73.7860921  96.8210342  77.7511608  72.4948544
  97.1391918  78.5705050  71.9973099  97.5375389  77.4494129  73.1395786
  96.6278677  77.0107962  71.8355775  91.3040342  81.2341608  73.6768544
  91.5490342  81.1491608  74.8808544  91.3820342  82.3841608  73.0098544
  91.2716672  82.4095617  72.0062244  91.6380342  83.6391608  73.7098544
  92.5540190  83.5483010  74.2936485  91.7980342  84.7981608  72.7278544
  90.8621821  84.8966537  72.1777825  91.9790661  85.7071162  73.3015507
  92.9310342  84.5831608  71.7568544  94.0040342  84.1251608  72.1948544
  92.7520342  84.8771608  70.5588544  90.4680342  83.9191608  74.6358544
  90.6400342  84.4281608  75.7418544  89.2730342  83.5781608  74.1648544
  89.2000432  83.1703882  73.2437175  88.0500342  83.8051608  74.9168544
  87.9947090  84.8470485  75.2323037  86.8340342  83.4931608  74.0488544
  87.1845744  82.7824466  73.3004520  86.0755738  83.0193177  74.6720001
  86.2370342  84.6991608  73.3578544  86.0470342  85.8871608  74.0428544
  86.3437794  85.9432143  75.0901842  85.4920342  86.9901608  73.4218544
  85.3616157  87.9229817  73.9704326  85.1020342  86.9061608  72.1048544
  84.5450342  88.0001608  71.4828544  84.4763669  88.7647819  72.0592561
  85.2680342  85.7331608  71.4068544  84.9602321  85.6665786  70.3633386
  85.8270342  84.6371608  72.0328544  85.9529135  83.7026438  71.4861072
  87.9690342  82.9691608  76.1878544  87.1320342  83.2281608  77.0448544
  88.8250342  81.9621608  76.3148544  89.4865157  81.7441407  75.5834114
  88.7340342  81.0581608  77.4578544  87.6854968  80.8934258  77.7059087
  89.3810342  79.7091608  77.1528544  89.8970477  79.8122965  76.1982904
  90.1011047  79.4472620  77.9281012  88.3440342  78.6271608  77.0468544
  87.0070342  78.9221608  77.2758544  86.7318124  79.9482295  77.5198529
  86.0360342  77.9481608  77.1998544  84.9873753  78.1969212  77.3627485
  86.3970342  76.6591608  76.9098544  85.4150342  75.7061608  76.8488544
  84.5392091  76.0583145  77.0235478  87.7200342  76.3301608  76.6918544
  88.0041231  75.3032233  76.4620860  88.6880342  77.3151608  76.7668544
  89.7359788  77.0628970  76.6047578  89.2820342  81.6371608  78.7598544
  88.5420342  81.7671608  79.7398544  90.5660342  81.9841608  78.7858544
  91.1904275  81.7631572  78.0233652  91.1140342  82.6651608  79.9528544
  90.9369770  82.0559711  80.8392166  92.6210342  82.9021608  79.8148544
  93.1516815  81.9602595  79.6758053  92.8073672  83.5531000  78.9606541
  93.2410342  83.5731608  81.0108544  92.9200342  83.1631608  82.2948544
  92.2099249  82.3471218  82.4287390  93.4880342  83.7751608  83.3998544
  93.2192118  83.4479561  84.4042310  94.3960342  84.8011608  83.2278544
  94.8475323  85.2859885  84.0934129  94.7320342  85.2131608  81.9508544
  95.4488887  86.0222671  81.8109727  94.1590342  84.5991608  80.8518544
  94.4281035  84.9210341  79.8458230  90.3720342  83.9851608  80.1088544
  90.1280342  84.4431608  81.2288544  89.9890342  84.5771608  78.9778544
  90.2567730  84.1781503  78.0894818  89.2580342  85.8421608  78.9768544
  89.2591747  86.2725240  79.9782961  89.9170342  86.8331608  78.0188544
  90.9921660  86.6561247  78.0479936  89.5442893  86.6378253  77.0133668
  89.6330342  88.2711608  78.3908544  88.8620342  88.4761608  79.3508544
  90.1680342  89.1861608  77.7258544  87.7760342  85.6311608  78.6248544
  87.2730342  86.1241608  77.6158544  87.1120342  84.8771608  79.4938544
  87.6813874  84.4069553  80.1829430  85.6550342  84.6171608  79.4918544
  85.3613716  84.1738569  78.5403592  85.2780342  83.6501608  80.6198544
  85.4860847  84.1308728  81.5757467  84.2129709  83.4294539  80.5489424
  86.0180342  82.4431608  80.5268544  85.7640532  81.8561472  81.2427515
  84.7850342  85.8711608  79.6018544  83.7390342  85.9511608  78.9598544
  85.2170342  86.8431608  80.4028544  85.9951974  86.6708765  81.0232410
  84.5150342  88.1291608  80.5068544  83.4421971  87.9525521  80.5838549
  84.9740342  88.9121608  81.7468544  86.0533790  88.7869796  81.8331311
  84.7432680  89.9636074  81.5756615  84.3110342  88.4531608  83.0228544
  82.9550342  88.6941608  83.2508544  82.3796923  89.2262256  82.4932343
  82.3390342  88.2691608  84.4168544  81.2774507  88.4534139  84.5817574
  83.0840342  87.6021608  85.3768544  82.4860342  87.1901608  86.5348544
  81.5535383  87.4145832  86.5759100  84.4270342  87.3511608  85.1768544
  85.0078321  86.8217756  85.9321860  85.0350342  87.7761608  84.0088544
  86.0955861  87.5846425  83.8456046  84.6080342  89.0181608  79.2548544
  83.9000342  90.0151608  79.1688544  85.4730342  88.6731608  78.2998544
  86.1882724  87.9876215  78.4962458  85.4800342  89.3301608  76.9858544
  85.5531944  90.3983813  77.1899418  86.6940342  88.9061608  76.1798544
  86.6306135  87.8404834  75.9598329  86.7254157  89.4681116  75.2464055
  87.5992375  89.1049262  76.7536127  84.2070342  89.0971608  76.1628544
  83.8980342  89.8971608  75.2778544  83.4900342  88.0051608  76.4378544
  83.8398043  87.3388797  77.1115233  82.2130342  87.7181608  75.7738544
  82.3403752  87.7725985  74.6926884  81.7180342  86.3171608  76.1378544
  81.7998003  86.1390638  77.2100927  80.6765773  86.2177520  75.8319371
  82.4690342  85.2151608  75.4628544  82.3710342  84.9721608  74.1098544
  81.8063606  85.5105233  73.4684425  83.1260342  83.9351608  73.7968544
  83.1840038  83.5813037  72.7675227  83.7110342  83.4981608  74.8978544
  84.3497123  82.7182939  74.9610836  83.3120342  84.2771608  75.9558544
  83.6842182  84.0666984  76.9584939  81.1160342  88.7161608  76.1378544
  80.7930342  88.8611608  77.3138544  80.5300342  89.3551608  75.1218544
  80.8912081  89.2550894  74.1839640  79.4640342  90.3321608  75.3548544
  79.7988058  91.0430090  76.1103158  79.0850342  91.1131608  74.0748544
  78.3356921  91.8772933  74.2814632  79.9900362  91.5861812  73.6936417
  78.5380342  90.2641608  72.9558544  77.2040342  89.8861608  72.9328544
  76.5481239  90.2020228  73.7440959  76.7030342  89.1181608  71.8978544
  75.6555197  88.8168085  71.8987245  77.5310342  88.7331608  70.8628544
  77.1401540  88.1275601  70.0451990  78.8580342  89.1171608  70.8648544
  79.5150436  88.8144137  70.0495121  79.3520342  89.8851608  71.9008544
  80.3951737  90.2012814  71.8955966  78.2370342  89.7051608  76.0238544
  77.5600342  90.3811608  76.7958544  77.9730342  88.4311608  75.7298544
  78.5724462  87.9564975  75.0699306  76.8590342  87.6861608  76.3148544
  75.9422558  88.1607539  75.9650289  76.9152794  86.6713143  75.9211254
  76.8370342  87.6271608  77.8288544  75.7630342  87.6571608  78.4248544
  78.0180342  87.5581608  78.4468544  78.8627438  87.5203690  77.8944625
  78.1390342  87.4991608  79.9068544  77.4582353  86.7647394  80.3372464
  79.5930342  87.1901608  80.3668544  80.2605461  87.9400363  79.9423371
  79.7040342  87.2141608  81.8908544  79.0371052  86.4641793  82.3161003
  80.7306311  86.9949934  82.1843935  79.4236481  88.2004510  82.2606035
  80.1030342  85.8461608  79.7958544  80.1983479  85.9860936  78.7190838
  81.0897370  85.6827558  80.2292318  79.2240342  84.6421608  80.0728544
  78.2372360  84.8046434  79.6393471  79.6734444  83.7537668  79.6291362
  79.1286233  84.5013070  81.1494959  77.6900342  88.8301608  80.5148544
  76.9650342  88.8481608  81.5108544  78.1240342  89.9311608  79.9078544
  78.7907628  89.8521754  79.1533124  77.7450342  91.2721608  80.3628544
  77.8108641  91.3280275  81.4494291  78.6830342  92.3201608  79.7618544
  78.6800781  92.1831925  78.6804987  78.4000311  93.3458525  79.9984250
  80.0980342  92.1531608  80.2098544  80.5780342  92.7121608  81.3738544
  80.0371259  93.2927581  81.9986941  81.8420342  92.3681608  81.5338544
  82.4072086  92.7201011  82.3968810  82.1960342  91.5971608  80.5228544
  83.1076227  91.1868499  80.3788012  81.1200342  91.4371608  79.6868544
  81.2101706  90.8167677  78.7951767  76.2900342  91.5811608  80.0528544
  75.6050342  92.1991608  80.8568544  75.8260342  91.1271608  78.8918544
  76.4821277  90.7871675  78.2033450  74.3990342  91.1421608  78.5458544
  74.0514016  92.1713577  78.4563871  74.1640342  90.4291608  77.2128544
  74.9352735  90.7744564  76.5243342  74.2905627  89.3617301  77.3936367
  72.7920342  90.6811608  76.6048544  72.0468391  90.4367834  77.3618648
  72.7217125  91.7397979  76.3549715  72.5400342  89.8511608  75.3618544
  73.5040342  89.5561608  74.6088544  71.3660342  89.4961608  75.1328544
  73.5520342  90.4831608  79.6438544  72.5610342  91.0551608  80.0948544
  73.9580342  89.2921608  80.0778544  74.7344948  88.8268251  79.6298912
  73.2560342  88.5911608  81.1528544  72.2055988  88.4779938  80.8847540
  73.8530342  87.1981608  81.3958544  74.0001697  86.7260427  80.4244869
  74.8182457  87.3313289  81.8844577  72.9620342  86.3111608  82.2628544
  72.7159137  86.8730210  83.1638753  72.0528848  86.1269297  81.6904861
  73.5930342  84.9861608  82.6498544  72.9590342  84.2511608  83.4328544
  74.7020342  84.6661608  82.1768544  73.2640342  89.4011608  82.4548544
  72.2380342  89.5151608  83.1228544  74.4210342  89.9591608  82.7998544
  75.2444354  89.7874378  82.2407292  74.5610342  90.7701608  84.0108544
  74.1772442  90.2190197  84.8693693  76.0290342  91.1091608  84.2648544
  76.4565564  91.4392551  83.3180906  76.0553955  91.9305887  84.9808581
  76.8350342  89.9431608  84.8038544  76.2972115  89.4970321  85.6404050
  76.9573539  89.2016805  84.0143311  78.4560342  90.4831608  85.3638544
  79.2160342  90.9571608  83.8088544  78.6301440  91.7503153  83.3443789
  80.2290853  91.3147705  83.9930920  79.2511576  90.0947134  83.1432328
  73.7440342  92.0541608  83.9568544  73.0980342  92.4171608  84.9338544
  73.7820342  92.7331608  82.8128544  74.3998023  92.4219955  82.0768937
  73.0350342  93.9771608  82.6128544  73.1768688  94.6350828  83.4702463
  73.5250342  94.7001608  81.3548544  73.5005457  93.9292824  80.5846297
  72.8454032  95.5074498  81.0819330  74.9520342  95.2531608  81.4798544
  75.5415786  94.5517607  82.0702578  75.6060342  95.4431608  80.1138544
  75.0172680  96.1448380  79.5230056  76.6144006  95.8358212  80.2446818
  75.6541307  94.4846978  79.5970026  74.9660342  96.5541608  82.2788544
  74.5733498  96.3711285  83.2790532  75.9884136  96.9248232  82.3526850
  74.3463475  97.2966345  81.7760422  71.5180342  93.7551608  82.5598544
  70.7620342  94.5681608  83.0818544  71.0820342  92.6541608  81.9518544
  71.7240978  92.1038262  81.3995994  69.6550342  92.2741608  81.9518544
  69.0436439  93.1565966  81.7631535  69.3600342  91.2301608  80.8628544
  70.1181157  90.4494382  80.9251756  68.3785144  90.7994520  81.0608664
  69.3740342  91.8401608  79.4688544  68.6218120  92.6287885  79.4507200
  70.3608529  92.2764015  79.3139837  69.0840342  90.8381608  78.3628544
  69.8615525  90.0743102  78.3530239  68.1168503  90.3690756  78.5434472
  69.0580342  91.5531608  77.0178544  68.1877868  92.2093974  77.0289684
  69.9654632  92.1547735  76.9655665  68.9880342  90.6551608  75.8288544
  68.1470436  90.0979115  75.8768932  68.9751116  91.2122820  74.9865071
  69.7945525  90.0472854  75.8181350  69.1410342  91.7941608  83.3228544
  67.9280342  91.7431608  83.5398544  70.0510342  91.4331608  84.2278544
  71.0043430  91.2720425  83.9357197  69.7090342  91.2131608  85.6368544
  68.8225600  90.5831522  85.7100101  70.8680342  90.5151608  86.3618544
  71.1258927  89.6334755  85.7751352  71.7139614  91.2024289  86.3748810
  70.5340342  90.0971608  87.7828544  69.5540342  90.5701608  88.3998544
  71.2950342  89.2661608  88.2998544  69.3890342  92.5771608  86.2608544
  70.2790342  93.2731608  86.7438544  68.1080342  92.9421608  86.2338544
  67.4239569  92.3194023  85.8285035  67.6610342  94.2661608  86.6908544
  68.3393703  95.0299106  86.3105315  66.2460342  94.5751608  86.1908544
  65.5988483  93.7528459  86.4958917  65.9162889  95.4948587  86.6740973
  66.1750342  94.7421608  84.6848544  66.8790464  95.5224917  84.3958020
  66.4852203  93.7933541  84.2470763  64.7960342  95.0991608  84.1858544
  64.1640342  96.0191608  84.7478544  64.3480342  94.4641608  83.2128544
  67.7260342  94.4291608  88.2038544  68.0100342  95.5221608  88.6908544
  67.4700342  93.3461608  88.9338544  67.1483602  92.5048358  88.4769108
  67.5750342  93.3461608  90.3948544  66.9428611  94.1148073  90.8394203
  67.1850342  91.9741608  90.9988544  67.7351952  91.1940154  90.4727409
  67.5120342  91.9111608  92.4858544  66.9618469  92.6907694  93.0127370
  67.2265422  90.9359167  92.8801813  68.5819522  92.0616700  92.6298129
  65.7010342  91.6911608  90.7718544  65.4925106  91.6785697  89.7020594
  65.4451360  90.7232222  91.2027960  65.1051290  92.4694886  91.2485132
  69.0010342  93.7341608  90.7908544  69.1990342  94.5931608  91.6468544
  69.9800342  93.1191608  90.1338544  69.7483794  92.3751607  89.4912819
  71.3900342  93.4471608  90.3348544  71.6510367  93.3551304  91.3891349
  72.2630342  92.4851608  89.5298544  71.9504279  91.4784412  89.8071489
  72.0297554  92.6611850  88.4797608  73.7620342  92.6281608  89.7468544
  74.0102032  93.6841078  89.8540407  74.0460044  92.0948208  90.6540542
  74.5170342  92.0481608  88.5608544  75.5455076  91.8259070  88.8453622
  74.0299576  91.1351649  88.2183719  74.5330342  93.0151608  87.4568544
  73.6319928  93.2150399  87.0466447  75.6040342  93.6511608  86.9808544
  76.8250342  93.4161608  87.4618544  76.9511773  92.7426117  88.2038245
  77.6182920  93.9127581  87.0820745  75.4560342  94.5241608  85.9828544
  74.5381725  94.6954288  85.5977606  76.2625343  95.0097702  85.6170132
  71.7180342  94.8891608  89.9338544  72.2130342  95.6651608  90.7488544
  71.4370342  95.2321608  88.6798544  70.9600545  94.5770860  88.0769724
  71.8890342  96.4991608  88.1068544  72.9328781  96.6786887  88.3642624
  71.7520342  96.5051608  86.5688544  70.6938870  96.4489139  86.3133922
  72.3600342  97.7841608  85.9598544  73.4183487  97.8408688  86.2145193
  72.2485192  97.7595630  84.8758533  71.8437511  98.6576921  86.3579690
  72.4140342  95.3521608  86.0258544  72.3292457  95.3552570  85.0696109
  71.1800342  97.7211608  88.6998544  71.8370342  98.7251608  88.9758544
  69.8620342  97.6361608  88.8948544  69.3562995  96.8207228  88.5795886
  69.0950342  98.7541608  89.4708544  69.4316011  99.6844618  89.0132934
  67.5820342  98.6101608  89.2358544  67.3719727  97.6034184  89.5970236
  67.0852225  99.3371340  89.8783402  67.0610342  98.7571608  87.7988544
  67.6382222  98.1075148  87.1408917  65.5900342  98.3691608  87.7318544
  65.0121025  99.0187159  88.3892522  65.2314739  98.4773045  86.7082138
  65.4720956  97.3333382  88.0500720  67.2530342 100.1701608  87.2658544
  68.3140536 100.4197898  87.2706147  66.8708744 100.2296882  86.2467805
  66.7118433 100.8741551  87.8979962  69.3660342  98.9581608  90.9598544
  69.2960342 100.0921608  91.4288544  69.6680342  97.8921608  91.7028544
  69.5853222  96.9571723  91.3299541  70.0550342  98.0481608  93.1078544
  69.2916381  98.6456744  93.6061545  70.1930342  96.7011608  93.8538544
  70.9790398  96.1151390  93.3775415  70.5460342  96.9261608  95.3268544
  69.7602082  97.5117593  95.8039828  70.6376460  95.9636781  95.8301768
  71.4918717  97.4634304  95.3963776  68.9560342  95.9871608  93.7918544
  69.0452939  95.1515316  94.2559200  71.3630342  98.8371608  93.1938544
  71.4590342  99.7891608  93.9708544  72.3540342  98.4541608  92.3878544
  72.2970871  97.5759576  91.8922583  73.5980342  99.2341608  92.2848544
  74.0505390  99.3147620  93.2732076  74.6110342  98.5781608  91.3328544
  74.0368971  98.1013553  90.5384223  75.2332053  99.3659752  90.9081762
  75.4900342  97.5501608  92.0048544  75.0790342  96.2251608  92.1288544
  74.1092592  95.9388722  91.7218229  75.8760342  95.2771608  92.7548544
  75.5429950  94.2428860  92.8412399  77.1050342  95.6541608  93.2698544
  77.8880342  94.7151608  93.8908544  77.4859681  93.8435870  93.9082228
  77.5370342  96.9661608  93.1608544  78.5044091  97.2629654  93.5660621
  76.7310342  97.9041608  92.5318544  77.0650412  98.9379379  92.4432868
  73.3370342 100.6941608  91.8768544  73.9230342 101.6041608  92.4618544
  72.4500342 100.9131608  90.9038544  72.0389964 100.1393749  90.4014576
  72.1200342 102.2761608  90.4728544  73.0447833 102.8234576  90.2900854
  71.2800342 102.2901608  89.1888544  71.7031398 101.5523021  88.5072053
  70.2637037 101.9986160  89.4537582  71.2560342 103.6591608  88.5068544
  70.9155640 104.3913767  89.2390024  72.2746472 103.8982421  88.2012896
  70.3410342 103.6941608  87.2918544  70.4925775 104.6340022  86.7609761
  70.5924359 102.8616532  86.6347183  68.9300342 103.5881608  87.6638544
  68.7299955 103.5624244  88.6535117  67.9100342 103.5311608  86.8068544
  68.1060342 103.5701608  85.4868544  69.0444003 103.6444106  85.1207177
  67.3150513 103.5252391  84.8604139  66.6730342 103.4261608  87.2778544
  66.5169716 103.3906381  88.2750919  65.8938535 103.3822955  86.6367211
  71.4080342 103.0721608  91.5748544  71.7620342 104.2221608  91.8178544
  70.4200342 102.4561608  92.2288544  70.1250750 101.5417460  91.9174960
  69.6950342 103.0801608  93.3528544  69.2332608 104.0080156  93.0152898
  68.5930342 102.1501608  93.8928544  69.0239439 101.1618495  94.0530320
  68.2423915 102.5515245  94.8436735  67.4000342 102.0151608  92.9508544
  67.2570342 102.7571608  91.9808544  66.5360342 101.0551608  93.2398544
  65.7256080 100.9159970  92.6533882  66.6911016 100.4661460  94.0455321
  70.6200342 103.4791608  94.5058544  70.4390342 104.5431608  95.0978544
  71.6120342 102.6421608  94.8108544  71.6875944 101.7567345  94.3308437
  72.5610342 102.9301608  95.8938544  72.0114129 103.0948359  96.8206217
  73.5410342 101.7691608  96.1048544  74.0216811 101.8946147  97.0750808
  72.9780085 100.8358666  96.0968504  74.5270342 101.7331608  95.0918544
  75.1232144 100.9978711  95.2515986  73.3400342 104.2291608  95.6698544
  73.7430342 104.8751608  96.6368544  73.5410342 104.6071608  94.4078544
  73.2796242 103.9817962  93.6590666  74.1870342 105.8721608  94.0608544
  74.8043932 106.2129138  94.8920310  75.0780342 105.6951608  92.8308544
  74.4217164 105.5943760  91.9664537  75.6750211 106.6014807  92.7294100
  76.0000342 104.4871608  92.9108544  76.5855742 104.5808411  93.8254405
  75.3722104 103.5981915  92.9714590  77.1140342 104.3291608  91.5098544
  77.0910342 102.5551608  91.2868544  76.0722158 102.2276430  91.0798760
  77.7358865 102.2851815  90.4505665  77.4509611 102.0697193  92.1939930
  73.1510342 106.9751608  93.8178544  73.2290342 108.0421608  94.4268544
  72.1780342 106.7031608  92.9498544  72.1498234 105.7881490  92.5231732
  71.1840342 107.7061608  92.5208544  71.6965907 108.6032046  92.1734390
  70.3140342 107.1621608  91.3748544  70.0428363 106.1212922  91.5513295
  69.4096275 107.7676247  91.3151717  70.9620342 107.2151608  90.0068544
  72.3460342 107.1191608  89.8318544  72.9870203 107.0102124  90.7067070
  72.9050342 107.1611608  88.5638544  73.9869455 107.1002095  88.4461526
  72.0930342 107.2801608  87.4488544  72.5308772 107.3085946  86.4510644
  70.7200342 107.3631608  87.6048544  70.0763693 107.4559663  86.7301071
  70.1630342 107.3281608  88.8758544  69.0817552 107.3897276  88.9989195
  70.2710342 108.2121608  93.6438544  69.8430342 109.3621608  93.6018544
  69.9670342 107.3611608  94.6278544  70.2258052 106.3889187  94.5390724
  69.1870342 107.7721608  95.8108544  68.5609648 108.6266408  95.5539495
  68.2810342 106.6291608  96.3048544  68.8665341 105.7829952  96.6644277
  67.6596839 107.0108519  97.1149999  67.3460342 106.0921608  95.2638544
  66.9130342 106.8411608  94.1878544  66.0940342 106.1141608  93.4478544
  65.6527321 106.5246705  92.5396511  65.9660342 104.9271608  94.0138544
  65.3991177 104.1643557  93.6720445  66.7330342 104.8901608  95.1538544
  66.7529751 103.9900957  95.7683351  70.0600342 108.2751608  96.9738544
  69.5390342 108.5511608  98.0518544  71.3740342 108.3901608  96.7588544
  71.7451451 108.0910436  95.8684023  72.3130342 108.8921608  97.7718544
  71.7783604 109.4993882  98.5022638  72.9880342 107.7241608  98.5048544
  73.5940638 107.1641135  97.7926926  73.6300260 108.1324492  99.2853973
  71.9910342 106.7761608  99.1438544  71.4580342 107.0481608 100.2208544
  71.7310342 105.6611608  98.4788544  71.0748850 104.9927485  98.8567341
  72.1900487 105.4841716  97.5967652  73.3640342 109.7831608  97.1058544
  74.5690342 109.5841608  97.2798544  72.8920342 110.7701608  96.3448544
  71.8932855 110.8749745  96.2370845  73.7720342 111.6621608  95.5798544
  74.4400292 111.0674575  94.9567895  72.9590342 112.5971608  94.6738544
  72.1693161 113.0331481  95.2857037  73.6324431 113.3846607  94.3355284
  72.3410342 111.9041608  93.4658544  73.1310103 111.3565013  92.9519403
  71.5899950 111.2024499  93.8286822  71.6920342 112.8871608  92.4978544
  70.6539495 113.0447258  92.7905184  72.2282015 113.8353274  92.5379060
  71.7210342 112.3881608  91.1168544  72.4786891 112.7345811  90.5458453
  70.8480342 111.5351608  90.5698544  69.8210342 111.0451608  91.2628544
  69.6895446 111.3184626  92.2262425  69.1786925 110.4026484  90.8216349
  71.0040342 111.1621608  89.3008544  71.7778276 111.5248957  88.7625540
  70.3478264 110.5182772  88.8826392  74.7100342 112.4801608  96.4638544
  75.8120342 112.8181608  96.0388544  74.2670342 112.8051608  97.6778544
  73.2947105 112.6522089  97.9043311  75.1130342 113.5011608  98.6638544
  75.4947553 114.4226394  98.2242348  74.3200342 113.8551608  99.9408544
  74.9218327 114.4692827 100.6107738  73.4209651 114.4020646  99.6568279
  73.8660342 112.6671608 100.7388544  72.7710342 111.9021608 100.3868544
  72.6090342 110.9341608 101.2718544  71.7968357 110.2151847 101.1645884
  73.5520342 111.0461608 102.1908544  73.6771297 110.4432864 102.9914751
  74.3480342 112.1261608 101.8838544  75.1840023 112.3888340 102.5321301
  76.4020342 112.7421608  99.0188544  77.4290342 113.3681608  99.2758544
  76.3480342 111.4091608  99.0228544  75.4614590 110.9433029  98.8922396
  77.5360342 110.5851608  99.2838544  78.0564926 110.9654210 100.1628450
  77.1490342 109.1221608  99.5378544  76.6078598 108.8469909  98.6325859
  78.0687928 108.5407145  99.6016083  76.2770342 108.8321608 100.7608544
  75.3665606 109.4282574 100.6991501  75.9140342 107.3571608 100.8108544
  76.8240424 106.7604052 100.8730380  75.2934131 107.1646522 101.6859948
  75.3639394 107.0870735  99.9094394  76.9690342 109.2541608 102.0508544
  77.1753986 110.3239991 102.0198851  76.3218170 109.0339251 102.8997993
  77.9056890 108.7069115 102.1571328  78.5720342 110.6391608  98.1608544
  79.7680342 110.5651608  98.4378544  78.1160342 110.7681608  96.9118544
  77.1181609 110.8129651  96.7623863  78.9980342 110.7241608  95.7318544
  79.9425625 110.2440060  95.9876217  78.3280342 109.9211608  94.6098544
  77.2882706 110.2367080  94.5237109  78.8304233 110.0620547  93.6528517
  78.3080342 108.4431608  94.8708544  77.3570342 107.8891608  95.7208544
  76.6123583 108.5391877  96.1802263  77.3480342 106.5281608  95.9868544
  76.5951343 106.1044795  96.6514870  78.3000342 105.7061608  95.4048544
  78.2964192 104.6359245  95.6114484  79.2580342 106.2461608  94.5588544
  80.0061179 105.6009678  94.0982059  79.2630342 107.6071608  94.2998544
  80.0205336 108.0340787  93.6425602  79.4670342 112.0861608  95.2108544
  80.4620342 112.1491608  94.4878544  78.7580342 113.1541608  95.5848544
  77.9432270 112.9904318  96.1587720  79.0550342 114.5351608  95.1728544
  78.8445668 114.6731208  94.1123028  78.1660342 115.4951608  95.9788544
  77.1403855 115.2059115  95.7497720  78.3782147 115.2804991  97.0262320
  78.3430342 116.9901608  95.7198544  77.8014746 117.5314002  96.4956597
  79.4061665 117.2195447  95.7922064  77.8260342 117.4111608  94.3538544
  78.5173539 117.0574905  93.5889404  76.8458155 116.9626250  94.1923419
  77.7100342 118.9271608  94.2708544  76.8842541 119.2396713  94.9100139
  78.6394799 119.3592840  94.6416636  77.4650342 119.3971608  92.8778544
  76.6036125 118.9972006  92.5342206  77.3951582 120.4047093  92.8698996
  78.2303148 119.1080529  92.2855188  80.5320342 114.9161608  95.3498544
  81.0380342 114.9441608  96.4718544  81.2040342 115.2051608  94.2308544
  80.7438924 115.0200548  93.3510222  82.6120342 115.6451608  94.2048544
  82.9657756 115.6811459  93.1744801  82.7590342 117.0521608  94.8268544
  82.4009774 116.9800341  95.8538365  83.8143353 117.3249899  94.8288684
  81.9600342 118.1181608  94.0838544  81.9300342 118.0961608  92.8328544
  81.3760342 119.0001608  94.7548544  83.6150342 114.6561608  94.8438544
  84.6500342 115.0671608  95.3678544  83.3110342 113.3621608  94.7778544
  82.4458168 113.0829564  94.3379192  84.1780342 112.3181608  95.3298544
  84.9039582 112.7640781  96.0097745  83.3560342 111.2881608  96.1008544
  82.6882379 110.8209257  95.3770874  84.0618064 110.5464733  96.4748670
  82.5430342 111.8391608  97.2558544  81.8978372 112.6247759  96.8626235
  81.9294271 111.0275416  97.6468310  83.4060342 112.4041608  98.3718544
  84.0960207 111.6319882  98.7121003  83.9720275 113.2526882  97.9874688
  82.5390342 112.8591608  99.5378544  82.0514677 113.7908331  99.2508595
  81.7834631 112.0935141  99.7139126  83.3250342 113.0741608 100.7808544
  84.0249393 113.7838991 100.6180534  82.7076935 113.3738140 101.5219336
  83.7765607 112.2108629 101.0471993  84.9400342 111.5981608  94.2278544
  84.5390342 111.6201608  93.0598544  86.0370342 110.9591608  94.6218544
  86.3576810 111.0845581  95.5713598  86.8110342 110.1001608  93.7408544
  86.6388810 110.3342056  92.6902900  88.3190342 110.2151608  94.0298544
  88.5046828 109.9224952  95.0632859  89.1160342 109.3081608  93.0928544
  88.9312452 109.6005344  92.0591854  90.1795247 109.4030129  93.3121523
  88.8065539 108.2731474  93.2380128  88.7670342 111.6671608  93.9018544
  88.2181521 112.2815522  94.6155445  89.8349944 111.7379607  94.1081265
  88.5686345 112.0213233  92.8902679  86.3420342 108.6621608  93.9578544
  86.4120342 108.1551608  95.0838544  85.8720342 108.0201608  92.8828544
  85.9039583 108.4916948  91.9902538  85.2860342 106.6721608  92.9388544
  85.2463051 106.2837504  93.9565273  83.8540342 106.6571608  92.3468544
  83.9069785 106.9457834  91.2970958  83.2270342 105.2701608  92.4618544
  83.1733254 104.9810247  93.5114337  82.2226656 105.2886718  92.0387688
  83.8367584 104.5489674  91.9175952  82.9810342 107.7001608  93.0278544
  83.4134056 108.6896573  92.8793497  81.9797774 107.6734721  92.5978868
  82.9234507 107.4858192  94.0950201  86.1540342 105.6721608  92.1668544
  86.6470342 105.9971608  91.0898544  86.3320342 104.4701608  92.7248544
  85.9800904 104.3185026  93.6593247  87.0410342 103.3691608  92.0608544
  87.4041402 103.7003312  91.0879313  88.2380342 102.9101608  92.8998544
  88.9281836 103.7471173  92.7935683  87.9127582 102.8376667  93.9376599
  88.9480342 101.6041608  92.4918544  88.2227795 100.7908836  92.5180578
  89.5390342 101.7121608  91.0918544  90.2647711 102.5249848  91.0649855
  90.0331177 100.7758943  90.8322635  88.7426602 101.9129853  90.3752246
  90.0200342 101.2291608  93.5048544  89.5619800 101.0874149  94.4837282
  90.5063331 100.3043429  93.1944893  90.7606919 102.0267524  93.5629305
  86.0930342 102.1881608  91.8298544  85.5900342 101.6061608  92.7888544
  85.8660342 101.8411608  90.5628544  86.2422589 102.4276373  89.8316912
  85.0750342 100.6651608  90.1748544  84.3778180 100.4013582  90.9700883
  84.2750342 100.9771608  88.9058544  83.6693553 101.8567306  89.1240498
  84.9881984 101.2144682  88.1164356  83.3590342  99.8241608  88.4418544
  83.2650342  98.7481608  89.0938544  82.7260342 100.0191608  87.3768544
  86.0320342  99.4961608  89.9438544  86.7430342  99.4611608  88.9378544
  86.0490342  98.5511608  90.8838544  85.4557381  98.6558362  91.6944974
  86.9100342  97.3701608  90.8018544  87.8729487  97.5963022  90.3438642
  87.1600342  96.7551608  92.2028544  86.1954158  96.5610810  92.6718359
  87.9500342  95.4551608  92.1098544  88.9150333  95.6485374  91.6413640
  88.1067352  95.0522437  93.1104558  87.3941434  94.7336211  91.5111328
  87.8750342  97.7521608  93.0998544  87.2626141  98.6471269  93.2097607
  88.0430020  97.3049022  94.0795718  88.8330089  98.0205142  92.6544649
  86.2290342  96.3501608  89.8998544  85.1710342  95.8301608  90.2498544
  86.8390342  96.0681608  88.7488544  87.7217891  96.5109110  88.5371580
  86.2780342  95.1351608  87.7698544  87.0635001  94.8285316  87.0791148
  85.8922678  94.2597635  88.2923133  85.1500342  95.7771608  86.9818544
  83.9980342  95.3411608  87.0648544  85.4910342  96.8051608  86.2038544
  86.4715405  97.0088095  86.0725762  84.5010342  97.7361608  85.6318544
  83.6968994  97.9105914  86.3467253  85.1670342  99.0791608  85.3058544
  84.4905805  99.6602005  84.6790350  85.3469661  99.6140349  86.2383962
  86.3950342  98.8901608  84.6258544  86.7895595  99.7441641  84.4344701
  83.7080342  97.2391608  84.4138544  82.6480342  97.7931608  84.1118544
  84.2200342  96.2241608  83.7188544  85.1491357  95.8968125  83.9418184
  83.4880342  95.5561608  82.6358544  84.1055770  94.7336912  82.2749056
  82.5635233  95.1589332  83.0548880  83.1500342  96.4691608  81.4698544
  84.0430342  97.0491608  80.8478544  81.8520342  96.6031608  81.1908544
  81.1816758  96.0383858  81.6925995  81.3570342  97.5171608  80.1638544
  81.9589444  97.4335016  79.2589763  79.8860342  97.2251608  79.8058544
  79.5370898  97.9874284  79.1092296  79.7440342  95.8571608  79.1698544
  80.0923731  95.0942811  79.8661117  78.6970517  95.6757619  78.9269116
  80.3403890  95.8159855  78.2583907  79.0790342  97.2951608  80.9838544
  78.1643676  97.1127866  80.7564231  81.4440342  98.9871608  80.5688544
  81.2530342  99.8681608  79.7258544  81.7060342  99.2491608  81.8488544
  81.8551652  98.4754166  82.4806607  81.7880342 100.6031608  82.3828544
  82.5603914 100.6179097  83.1518446  82.0725543 101.2713110  81.5700057
  80.4810342 101.0871608  82.9858544  80.3860342 102.2501608  83.3488544
  79.4840342 100.2041608  83.1048544  79.6291180  99.2595262  82.7781810
  78.1340342 100.5861608  83.5648544  77.7360293 101.3928853  82.9493166
  77.1430342  99.3801608  83.5458544  77.1273443  98.9697929  82.5361750
  77.5470342  98.2861608  84.5338544  77.5624978  98.6956856  85.5438796
  76.8282351  97.4682134  84.4849600  78.5388868  97.9133037  84.2783055
  75.6940342  99.8201608  83.8468544  75.0749630  98.9268346  83.7642722
  75.6849467 100.1738417  84.8778378  75.1460342 100.8981608  82.9398544
  75.1543754 100.5450127  81.9086819  74.1236584 101.1358744  83.2336896
  75.7643609 101.7920196  83.0222459  78.1070342 101.2761608  84.9338544
  77.4680342 102.3181608  85.0778544  78.8090342 100.7121608  85.9178544
  79.3235149  99.8608035  85.7429267  78.8060342 101.2551608  87.2798544
  77.7863815 101.5174770  87.5619851  79.3460342 100.2371608  88.2878544
  80.3795107 100.1097226  87.9656973  79.3275297 100.7184621  89.2656615
  78.6670342  98.8651608  88.3808544  78.7578462  98.3543270  87.4222602
  79.3310342  98.0251608  89.4698544  79.2402154  98.5351655  90.4288883
  78.8419770  97.0527871  89.5282769  80.3854908  97.8871589  89.2307370
  77.1710342  98.9891608  88.6478544  76.7019906  99.5479796  87.8380279
  76.7282647  97.9948705  88.7065343  77.0118369  99.5134064  89.5901504
  79.6140342 102.5511608  87.3618544  79.2800342 103.4301608  88.1578544
  80.6700342 102.6581608  86.5498544  80.9729569 101.8500688  86.0251405
  81.4330342 103.9011608  86.4128544  81.8274798 104.1897922  87.3871253
  82.6090342 103.7391608  85.4348544  82.2453085 103.3389257  84.4884851
  83.0778539 104.7080286  85.2627980  83.9300342 102.6321608  85.9718544
  84.6873756 102.7839741  84.8891333  80.5580342 105.0491608  85.9258544
  80.6700342 106.1711608  86.4188544  79.7040342 104.7611608  84.9448544
  79.7187761 103.8448606  84.5202652  78.8090342 105.7741608  84.3798544
  79.3573129 106.7032407  84.2239689  78.2440342 105.3071608  83.0338544
  77.8009746 104.3221811  83.1808663  77.4690613 106.0124614  82.7337411
  79.3060342 105.2281608  81.9468544  79.8359656 106.1805001  81.9288707
  79.9999331 104.4318661  82.2161520  78.6300342 104.8961608  80.3118544
  77.9840342 103.2391608  80.5588544  77.2341466 103.2551341  81.3497479
  77.5286326 102.8845982  79.6341948  78.7966080 102.5704214  80.8427781
  77.6810342 106.1771608  85.3388544  77.2680342 107.3381608  85.3398544
  77.1900342 105.2241608  86.1378544  77.4500755 104.2606823  85.9823324
  76.2460342 105.5241608  87.2218544  75.3752054 106.0314484  86.8066248
  75.7740342 104.2451608  87.9428544  76.6659446 103.6502291  88.1394541
  75.2749753 104.4729618  88.8847391  74.8250342 103.3581608  87.1508544
  74.0370342 103.8361608  86.0948544  74.1123749 104.8846522  85.8066020
  73.1660342 102.9891608  85.4168544  72.5738741 103.3727287  84.5859978
  73.0500342 101.6591608  85.7958544  72.3674045 100.9955456  85.2650706
  73.8040342 101.1761608  86.8508544  73.7143085 100.1322995  87.1515255
  74.6740342 102.0201608  87.5258544  75.2563720 101.6433184  88.3666710
  76.8820342 106.4711608  88.2498544  76.2860342 107.4911608  88.6118544
  78.0910342 106.1351608  88.7008544  78.4927299 105.2531834  88.4165027
  78.8310342 106.9581608  89.6628544  78.2180235 107.0265427  90.5615429
  80.1460342 106.2851608  90.0218544  80.7745371 106.2176476  89.1338644
  80.6581403 106.8710529  90.7851224  79.9496309 105.2835499  90.4043470
  79.0860342 108.3931608  89.1658544  78.9810342 109.3501608  89.9388544
  79.4120342 108.5341608  87.8818544  79.5926425 107.7159625  87.3179115
  79.5840342 109.8541608  87.2668544  80.2718328 110.4302845  87.8858163
  80.1780342 109.7231608  85.8728544  79.4964024 109.1563151  85.2386903
  80.3293724 110.7151120  85.4471435  81.1346322 109.2040378  85.9322753
  78.2640342 110.6231608  87.2068544  78.2350342 111.8281608  87.4758544
  77.1840342 109.9271608  86.8528544  77.2871010 108.9791058  86.5201859
  75.8390342 110.5241608  86.8528544  75.8602675 111.4666529  86.3057192
  74.8190342 109.5931608  86.1858544  74.9682676 108.5996185  86.6085866
  73.8281079 109.9575945  86.4566923  74.9360342 109.5221608  84.6728544
  75.9875041 109.3985219  84.4135759  74.3720698 108.6573179  84.3234363
  74.3970342 110.7771608  84.0128544  73.3574232 110.9070081  84.3135994
  74.9835799 111.6286677  84.3578175  74.4780342 110.6871608  82.5028544
  75.4443068 110.2667817  82.2241083  73.6815897 110.0356105  82.1433305
  74.3290342 112.0371608  81.8908544  75.0671943 112.6409347  82.2235351
  74.3853461 111.9590812  80.8854527  73.4335490 112.4266918  82.1486740
  75.3560342 110.8981608  88.2588544  74.6120342 111.8591608  88.4238544
  75.7950342 110.1371608  89.2578544  76.3041807 109.2919670  89.0421772
  75.4890342 110.4231608  90.6568544  74.4245762 110.6557356  90.6874704
  75.7410342 109.1851608  91.5058544  76.8041638 108.9450031  91.4924417
  75.4252774 109.3768029  92.5313646  75.1743743 108.3458945  91.1025829
  76.2460342 111.6281608  91.2448544  75.9890342 111.9941608  92.3928544
  77.1720342 112.2231608  90.4828544  77.4406032 111.7768248  89.6175485
  77.8190342 113.4951608  90.8418544  77.6862076 114.1539065  89.9836526
  77.2604034 113.8885894  91.6911158  79.2990342 113.4431608  91.2028544
  79.8340342 114.4191608  91.7308544  79.9660342 112.3281608  90.9048544
  79.4754245 111.5603433  90.4691277  81.3760342 112.1431608  91.2518544
  81.5011834 112.4257815  92.2971115  81.7690342 110.6811608  91.0928544
  81.6576888 110.3858559  90.0495437  82.8066853 110.5479733  91.3988637
  81.1245389 110.0612895  91.7161398  82.3040342 113.0351608  90.4188544
  82.0890342 113.2221608  89.2238544  83.3240342 113.5831608  91.0768544
  83.3788852 113.4442129  92.0757459  84.3560342 114.4011608  90.4308544
  83.8922203 115.1975014  89.8487742  85.2670342 115.0381608  91.4988544
  84.6196093 115.6263785  92.1491929  85.7018499 114.2159968  92.0672572
  86.3780342 115.9221608  90.9568544  87.1073110 115.2789559  90.4643670
  85.9392317 116.6000533  90.2247232  87.0710342 116.7331608  92.0498544
  87.3824165 117.6866936  91.6233392  86.3537498 116.9110429  92.8510787
  88.2540342 116.0601608  92.6158544  89.0787732 116.0902367  92.0336169
  88.3300342 115.4391608  93.7998544  87.2820342 115.3461608  94.6198544
  86.3971848 115.7525842  94.3515982  87.3781771 114.8697491  95.5052290
  89.4840342 114.8871608  94.1738544  90.2873978 114.9416393  93.5641503
  89.5498987 114.4168977  95.0652652  85.2110342 113.5761608  89.4698544
  85.6290342 114.0671608  88.4228544  85.4750342 112.3321608  89.8528544
  84.9676702 111.9473833  90.6368362  86.4560342 111.4891608  89.1848544
  86.5060813 111.7285714  88.1226505  87.8330342 111.7371608  89.8078544
  87.7588802 112.6922343  90.3278880  87.9810233 110.9386895  90.5349327
  89.0110342 111.7731608  88.8488544  89.1420667 110.7875506  88.4021959
  88.8145051 112.5038367  88.0642583  90.2860342 112.1651608  89.6038544
  89.9795814 112.7335722  90.4819741  90.7707786 111.2416452  89.9204634
  91.2630342 112.9941608  88.7778544  90.6849598 113.6225592  88.1003251
  91.8328374 113.6247978  89.4602916  92.2030342 112.1401608  87.9858544
  91.6752646 111.5560288  87.3531232  92.8290308 112.7300985  87.4565135
  92.7390899 111.5581015  88.6135091  86.0390342 110.0391608  89.3968544
  85.6770342 109.6541608  90.5118544  86.0620342 109.2541608  88.3248544
  86.2795658 109.6518250  87.4222789  85.7510342 107.8281608  88.3968544
  85.7712476 107.4756901  89.4280940  84.3650342 107.5001608  87.7888544
  84.3889368 107.7171658  86.7209421  84.0150342 106.0321608  88.0008544
  83.9904855 105.8144920  89.0686178  83.0374357 105.8246759  87.5657089
  84.7664937 105.4058464  87.5200836  83.2800342 108.3881608  88.3898544
  83.5117285 109.4337181  88.1868036  82.3168833 108.1370718  87.9455638
  83.2351054 108.2291159  89.4672526  86.8370342 107.0591608  87.6518544
  87.1750342 107.4041608  86.5208544  87.3830342 106.0291608  88.2948544
  87.1018517 105.8402014  89.2463428  88.3940342 105.1681608  87.6878544
  88.5495184 105.4483836  86.6460296  89.7380342 105.2391608  88.4458544
  89.5763857 104.9349663  89.4799897  90.7730342 104.3161608  87.7988544
  90.9355668 104.6200421  86.7647655  91.7123241 104.3812193  88.3480381
  90.4094782 103.2888445  87.8222523  90.2660342 106.6801608  88.4798544
  90.7400533 106.8752892  87.5179129  89.4058344 107.3386164  88.6006515
  91.2580342 106.9381608  89.5918544  92.1187833 106.2803497  89.4714569
  91.5867429 107.9766703  89.5525119  90.7845646 106.7436745  90.5541960
  87.8760342 103.7351608  87.6958544  87.4980342 103.2241608  88.7388544
  87.8480342 103.1061608  86.5258544  88.0845687 103.6204499  85.6893991
  87.4890342 101.6981608  86.3938544  87.0884268 101.3294391  87.3381304
  86.7396962 101.5802634  85.6111079  88.7140342 100.8881608  86.0288544
  89.4590342 101.2781608  85.1278544  88.9380342  99.7821608  86.7348544
  88.3760893  99.5997780  87.5540331  89.9890342  98.8271608  86.3888544
  90.5859915  99.2359553  85.5736071  90.9070342  98.4921608  87.5788544
  90.3123291  98.0338837  88.3690495  92.0090342  97.5251608  87.1448544
  92.6044915  97.9829537  86.3549450  92.6498362  97.2977598  87.9967713
  91.5594909  96.6044303  86.7730139  91.5390342  99.7641608  88.1558544
  92.3087133 100.0917076  87.4569925  90.7558662 100.5200875  88.2134920
  92.1550342  99.5671608  89.5318544  92.9386603  98.8116556  89.4749163
  92.5828746 100.5083582  89.8771069  91.3858130  99.2400331  90.2314157
  89.3360342  97.5431608  85.8798544  88.4380342  96.9911608  86.5248544
  89.8010342  97.0741608  84.7248544  90.5519430  97.5688265  84.2649184
  89.2610342  95.8811608  84.0798544  88.8683207  95.1917472  84.8272393
  88.1190342  96.2831608  83.1348544  87.3548536  96.7476575  83.7580477
  88.5326381  97.0265390  82.4533702  87.4980342  95.1491608  82.3318544
  86.6656691  95.5401963  81.7467387  88.2735680  94.7824555  81.6594157
  87.0110342  94.0151608  83.2048544  87.6290342  92.9341608  83.1648544
  86.0300342  94.2271608  83.9468544  90.3750342  95.1931608  83.3048544
  91.0020342  95.8321608  82.4678544  90.6160342  93.9071608  83.5808544
  90.0803375  93.4538109  84.3072167  91.6780342  93.1441608  82.9228544
  92.5246899  93.7974764  82.7120180  92.1560342  91.9971608  83.8238544
  92.8549034  91.3670576  83.2737171  92.6518738  92.4061232  84.7041912
  90.8640342  90.8911608  84.4438544  91.6789006  90.0990777  85.1348649
  91.2170342  92.6091608  81.5658544  91.9880342  92.5831608  80.6058544
  89.9570342  92.1761608  81.5008544  89.3940263  92.1822386  82.3393557
  89.3600342  91.6551608  80.2658544  89.9241133  90.7913745  79.9140203
  87.9140342  91.2231608  80.5238544  87.9242458  90.4004812  81.2388322
  87.3745833  92.0684775  80.9510925  87.2710342  90.8061608  79.3348544
  86.3694108  90.5433852  79.5339124  89.3650342  92.6621608  79.1138544
  89.2960342  93.8751608  79.3268544  89.4040342  92.1341608  77.8928544
  89.5355738  91.1377499  77.7930446  89.3550342  92.9521608  76.6808544
  90.0219027  93.8082307  76.7834698  89.7970342  92.1311608  75.4698544
  89.9776078  92.8030176  74.6307472  90.7176266  91.6016661  75.7153031
  88.7950342  91.1961608  75.1178544  89.0849249  90.6877410  74.3568863
  87.9780342  93.5901608  76.4098544  87.8540342  94.3901608  75.4808544
  86.9590342  93.2381608  77.2038544  87.0310802  92.3861391  77.7414116
  85.6920342  93.9941608  77.2568544  85.2066250  94.0520973  76.2826263
  84.7050342  93.3751608  78.2928544  84.6729223  92.2978397  78.1302247
  85.1300342  93.6601608  79.7328544  85.1619287  94.7373516  79.8963882
  84.4132566  93.2099888  80.4196409  86.1184801  93.2367089  79.9110747
  83.2630342  93.8471608  78.0558544  82.6978249  93.6335687  78.9630575
  83.2960818  94.9245995  77.8941968  82.5920342  93.1811608  76.8758544
  82.5581976  92.1036712  77.0370103  81.5770452  93.5643130  76.7705408
  83.1564564  93.3947004  75.9681494  85.9210342  95.4861608  77.5548544
  85.1450342  96.3351608  77.1228544  86.9910342  95.7841608  78.2928544
  87.4983988  95.0174860  78.7110533  87.4390342  97.1531608  78.5778544
  86.6867201  97.6831188  79.1620352  88.7400342  97.1081608  79.3818544
  88.6397859  96.3677404  80.1754709  89.5558332  96.8208275  78.7185207
  89.0170342  98.3681608  79.9478544  89.8352571  98.3214755  80.4477860
  87.6560342  98.0351608  77.3408544  87.5060342  99.2541608  77.4248544
  88.0300342  97.4191608  76.2178544  88.2600767  96.4361669  76.2479032
  88.1510342  98.1231608  74.9358544  88.8852337  98.9230551  75.0318722
  88.6030342  97.1721608  73.8098544  87.8488681  96.3909832  73.7144906
  88.6415232  97.7536941  72.8887477  89.9710342  96.5321608  74.0668544
  90.6970342  96.9641608  74.9918544  90.3140342  95.5811608  73.3288544
  86.8210342  98.7641608  74.5328544  86.7980342  99.8991608  74.0608544
  85.7250342  98.0321608  74.7288544  85.8168788  97.0688038  75.0180037
  84.3850342  98.5451608  74.4398544  84.3937344  99.0716616  73.4854853
  83.3650342  97.4021608  74.3598544  83.3373171  96.8320826  75.2884780
  82.3955430  97.8716724  74.1932844  83.6790342  96.4761608  73.2108544
  83.4210342  96.8591608  71.8938544  82.9619990  97.8305252  71.7099054
  83.7380342  96.0281608  70.8278544  83.5240053  96.3347925  69.8040036
  84.3350342  94.8051608  71.0728544  84.6530342  93.9741608  70.0198544
  84.4166600  94.3435497  69.1658762  84.6100342  94.4081608  72.3678544
  85.0748879  93.4409273  72.5588283  84.2920342  95.2461608  73.4268544
  84.5223685  94.9445829  74.4486651  83.9500342  99.5991608  75.4488544
  83.3050342 100.5731608  75.0748544  84.3150342  99.4091608  76.7168544
  84.8055663  98.5625783  76.9674053  83.9650342 100.3511608  77.7838544
  82.8775044 100.4197032  77.8099316  84.4510342  99.8361608  79.1268544
  85.5390419  99.7707141  79.1193623  84.1340734 100.5193133  79.9148510
  84.0294007  98.8481931  79.3119064  84.5100342 101.7531608  77.5358544
  83.8250342 102.7351608  77.8178544  85.7310342 101.8361608  77.0058544
  86.2797717 100.9968359  76.8853539  86.3470342 103.1241608  76.6688544
  86.3184263 103.8063316  77.5185154  87.8220342 102.9601608  76.2138544
  87.8614253 102.1924118  75.4411260  88.3880342 104.2691608  75.6608544
  88.3494000 105.0373222  76.4332121  89.4222348 104.1167348  75.3521538
  87.7963767 104.5875603  74.8025626  88.6880342 102.4701608  77.3698544
  88.3170682 101.5066895  77.7194390  89.7185254 102.3611795  77.0317558
  88.6482623 103.1919428  78.1856667  85.5170342 103.8411608  75.5988544
  85.2690342 105.0341608  75.7138544  85.0910342 103.1031608  74.5748544
  85.4363503 102.1596141  74.4720153  84.1870342 103.6301608  73.5438544
  84.5886640 104.5599732  73.1410621  84.0360342 102.6251608  72.3978544
  83.7562631 101.6712165  72.8448641  83.2229273 102.9819521  71.7656701
  85.2880342 102.4421608  71.5568544  85.4618586 103.3517159  70.9818801
  86.1346918 102.2647973  72.2200400  85.1330342 101.2651608  70.6078544
  85.2324444 100.3450024  71.1836366  84.1380480 101.3103801  70.1650711
  86.1780342 101.2881608  69.5068544  85.8681683 101.9995728  68.7413633
  87.1308323 101.6042491  69.9315464  86.3300342  99.9401608  68.8978544
  85.4473674  99.6472637  68.5038870  87.0283986  99.9767794  68.1691251
  86.6175734  99.2808860  69.6069221  82.7980342 104.0011608  74.0778544
  82.2150342 104.9901608  73.6388544  82.2740342 103.1961608  75.0018544
  82.7671849 102.3480710  75.2419492  80.9660342 103.4421608  75.6258544
  80.2270381 103.6532168  74.8529124  80.4980342 102.2251608  76.4708544
  81.3325918 101.9016591  77.0929161  79.3040342 102.5691608  77.3598544
  78.4688729 102.8923283  76.7384295  79.0110740 101.6890357  77.9322659
  79.5791118 103.3718869  78.0440052  80.1160342 101.0671608  75.5458544
  79.1156441 101.2813644  75.1697732  80.8249760 101.0783794  74.7179805
  80.1270342  99.7041608  76.1998544  79.4179466  99.6920274  77.0275907
  79.8438208  98.9473128  75.4683693  81.1272788  99.4890435  76.5758003
  80.9990342 104.7151608  76.4748544  80.0930342 105.5461608  76.3878544
  82.0410342 104.8531608  77.2908544  82.6896577 104.0863224  77.3973714
  82.2340342 106.0451608  78.1178544  81.3817221 106.2429158  78.7678976
  83.5080342 105.9151608  78.9958544  84.3103451 105.5216612  78.3717114
  83.9390342 107.2561608  79.5948544  83.1373562 107.6500896  80.2195410
  84.8340173 107.1133234  80.2004146  84.1530900 107.9613875  78.7917747
  83.2820342 104.8821608  80.0988544  83.0565385 103.9145657  79.6505092
  84.1814431 104.7985910  80.7089195  82.4466704 105.1953827  80.7250813
  82.2780342 107.3081608  77.2478544  81.6030342 108.2961608  77.5558544
  83.0540342 107.2581608  76.1618544  83.6072638 106.4313633  75.9873771
  83.1830342 108.3901608  75.2358544  83.4051819 109.2962452  75.7995570
  84.3100342 108.1541608  74.2238544  85.1758135 107.7898963  74.7768796
  83.9718510 107.3838340  73.5307968  84.6950342 109.4031608  73.4448544
  83.7982310 109.8050061  72.9732984  85.0960754 110.1358455  74.1451695
  85.7300342 109.1011608  72.3838544  86.5997026 108.6468738  72.8586166
  85.3036066 108.4027939  71.6637554  86.1520342 110.3751608  71.6658544
  85.2708295 110.9943525  71.4979843  86.8611086 110.9156063  72.2929360
  86.7890342 110.0551608  70.3598544  86.1320106 109.5547462  69.7784725
  87.0616286 110.9117629  69.8993926  87.6058439 109.4817639  70.5152153
  81.8930342 108.6901608  74.4778544  81.5410342 109.8541608  74.3018544
  81.1990342 107.6491608  74.0248544  81.5595704 106.7130124  74.1420692
  79.9520342 107.8261608  73.2648544  80.1788294 108.5004103  72.4389908
  79.4710342 106.4991608  72.6918544  79.2312919 105.8163926  73.5069932
  78.5812276 106.6661130  72.0848359  80.2559261 106.0641244  72.0731562
  78.8520342 108.4821608  74.0988544  78.0090342 109.1881608  73.5528544
  78.8840342 108.2641608  75.4148544  79.5417177 107.5890017  75.7777760
  77.9350342 108.8831608  76.3488544  77.0386291 109.2093622  75.8214554
  77.5320342 107.8551608  77.4088544  78.4207583 107.4646909  77.9046387
  76.8979317 108.3547067  78.1412941  76.7620342 106.6961608  76.8128544
  75.5790342 106.8251608  76.5058544  77.4300342 105.5671608  76.6238544
  76.9594052 104.7655981  76.2287527  78.4066371 105.5135690  76.8757981
  78.4490342 110.1801608  77.0018544  77.8610342 110.6471608  77.9748544
  79.5230342 110.7571608  76.4508544  80.0229704 110.2322273  75.7475707
  80.0690342 112.0591608  76.8698544  80.9816453 112.2687173  76.3118883
  79.0580342 113.1931608  76.6048544  78.2888391 113.0954655  77.3709443
  79.6041505 114.1243415  76.7557169  78.4050342 113.2051608  75.2288544
  79.1673980 113.3812885  74.4699860  77.9287510 112.2415745  75.0478632
  77.3570342 114.3101608  75.1618544  76.6854571 114.1830031  76.0109210
  77.8751887 115.2651634  75.2489490  76.5520342 114.2861608  73.8708544
  76.3055178 113.2497006  73.6404621  75.6333808 114.8508815  74.0298054
  77.3090342 114.8801608  72.7348544  78.1601082 114.3567599  72.5871239
  76.7433415 114.8459838  71.8988378  77.5371891 115.8406975  72.9479593
  80.5220342 112.1011608  78.3368544  80.3510342 113.1181608  79.0088544
  81.0990342 111.0021608  78.8208544  81.1718264 110.1879821  78.2276312
  81.5450342 110.8891608  80.2178544  81.3468901 111.8193706  80.7503465
  80.7890342 109.7531608  80.9178544  80.9227757 108.9018446  80.2504166
  81.2707806 109.5444709  81.8730869  79.2930342 109.9951608  81.1428544
  78.8442357 110.3261712  80.2063114  78.6070342 108.7201608  81.6108544
  79.0550140 108.3887704  82.5476540  77.5454432 108.9136221  81.7647957
  78.7285281 107.9434375  80.8558441  79.0520342 111.1211608  82.1358544
  79.4962425 112.0416391  81.7570430  77.9798921 111.2643187  82.2704589
  79.5069605 110.8658529  83.0929118  83.0630342 110.7041608  80.3768544
  83.5410342 110.4691608  81.4858544  83.8160342 110.8521608  79.2868544
  83.3705561 111.0037219  78.3931666  85.2720342 110.6321608  79.3128544
  85.4945226 109.7723254  79.9447415  85.8310342 110.3631608  77.8988544
  86.9126772 110.2900284  78.0119889  85.4389133 109.4124296  77.5376737
  85.4990342 111.4611608  76.8988544  84.3040342 111.7961608  76.7398544
  86.4320342 111.9661608  76.2438544  86.0890342 111.7251608  80.0338544
  87.2700342 111.5141608  80.3138544  85.4750342 112.8721608  80.3368544
  84.5811702 113.0889483  79.9195899  86.1160342 113.8931608  81.1868544
  87.1938958 113.8749087  81.0256698  85.5940342 115.2991608  80.8558544
  84.5055291 115.3269721  80.9056779  86.0080397 116.0198247  81.5610800
  85.9730342 115.7741608  79.4848544  85.1320342 115.6611608  78.3958544
  85.7290342 116.1571608  77.3258544  85.2230111 116.1640537  76.3604571
  86.9300342 116.5831608  77.6788544  87.6128625 117.0087001  77.0683123
  87.1080342 116.3541608  79.0238544  88.0436693 116.6376843  79.5058322
  85.9770342 113.6191608  82.6918544  86.6500342 114.2671608  83.4928544
  85.1000342 112.6851608  83.0638544  84.4842116 112.3044617  82.3596314
  84.9400342 112.2261608  84.4518544  85.5610249 112.7931040  85.1454287
  83.4610342 112.3431608  84.9018544  82.8428238 111.7690621  84.2116908
  83.2660342 111.8131608  86.3208544  83.8836200 112.3871104  87.0117021
  82.2181066 111.9101103  86.6046658  83.5570082 110.7634592  86.3603808
  82.9910342 113.7891608  84.8058544  83.0767594 114.1319165  83.7747037
  81.9509254 113.8556279  85.1250022  83.6086759 114.4159687  85.4490740
  85.4270342 110.7801608  84.6488544  86.0900342 110.4831608  85.6438544
  85.0860342 109.8941608  83.7158544  84.5798567 110.2165371  82.9034769
  85.3850342 108.4681608  83.8248544  85.5956973 108.1658280  84.8506785
  84.2120342 107.6141608  83.2888544  84.0213734 107.8944732  82.2529140
  84.5380342 106.1241608  83.3608544  84.7283750 105.8429838  84.3966202
  83.6955729 105.5484428  82.9775684  85.4232020 105.9159140  82.7598445
  82.9270342 107.9191608  84.0468544  82.6757619 108.9730963  83.9277571
  82.1171143 107.3061503  83.6514463  83.0671116 107.6968691  85.1047134
  86.6550342 108.1001608  83.0508544  86.7300342 108.3151608  81.8418544
  87.6340342 107.5391608  83.7628544  87.5388473 107.5208918  84.7681927
  88.8340342 106.9491608  83.1688544  88.8929909 107.2038223  82.1106622
  90.1120342 107.4531608  83.8688544  90.0919168 107.1219007  84.9071040
  91.3780342 106.9121608  83.1828544  91.3990876 107.2434175  82.1446226
  92.2608819 107.2864727  83.7010915  91.3725266 105.8226797  83.2160397
  90.1380342 108.8841608  83.8448544  90.9340080 109.1970915  84.2808596
  88.7680342 105.4271608  83.3088544  88.3860342 104.9071608  84.3598544
  89.1400342 104.7211608  82.2478544  89.3808897 105.2041910  81.3941743
  89.2050342 103.2631608  82.2598544  88.8977674 102.8514176  83.2211836
  88.3420342 102.6471608  81.1368544  88.6973757 103.0172769  80.1751648
  88.4340342 101.1271608  81.1608544  88.0784038 100.7562519  82.1221318
  87.8190142 100.7127610  80.3620278  89.4706233 100.8230466  81.0156066
  86.8780342 103.1171608  81.2268544  86.9061003 104.2067927  81.2307719
  86.3886809 102.7701003  80.3168094  86.1030342 102.6271608  82.4358544
  86.5915596 102.9742426  83.3463362  85.0858905 103.0171965  82.3985726
  86.0741422 101.5375494  82.4323748  90.6620342 102.8461608  82.0688544
  91.3350342 103.3381608  81.1708544  91.1350342 101.9451608  82.9248544
  90.5260745 101.6130342  83.6589929  92.4890342 101.4011608  82.8488544
  93.0309640 101.8619722  82.0229827  93.2570342 101.6371608  84.1608544
  92.6382507 101.2936144  84.9898196  94.5900342 100.8851608  84.1738544
  95.2095904 101.2285239  83.3453904  95.1055787 101.0747497  85.1153270
  94.4056022  99.8158983  84.0701156  93.5060342 103.1311608  84.3478544
  94.3855124 103.3993003  83.7624313  92.6373807 103.6655309  83.9631608
  93.7280342 103.5061608  85.7838544  94.5968638 102.9724994  86.1691342
  93.8999831 104.5800188  85.8570783  92.8487324 103.2387276  86.3698643
  92.3850342  99.9071608  82.6048544  91.7530342  99.1981608  83.3878544
  93.0120342  99.4431608  81.5238544  93.4386304 100.0950005  80.8810325
  93.0630342  98.0271608  81.2038544  92.1464167  97.5432198  81.5410673
  93.2030342  97.8121608  79.6958544  92.5182484  98.5019036  79.2024758
  94.2284839  98.0623663  79.4239166  92.8940342  96.3871608  79.2538544
  93.5320622  95.7039308  79.8144059  91.8488515  96.1734248  79.4774881
  93.1410342  96.2041608  77.7648544  92.4658777  96.8611330  77.2165388
  94.1726607  96.4801376  77.5464898  92.9020342  94.7671608  77.3418544
  93.6615118  94.1363502  77.8037769  91.9153966  94.4605064  77.6891417
  92.9730342  94.6251608  75.8588544  93.8873413  94.9088555  75.5368922
  92.8107564  93.6611949  75.6048158  92.2690829  95.2092780  75.4306504
  94.2280342  97.3781608  81.9518544  95.3890342  97.7151608  81.7148544
  93.9080342  96.4601608  82.8578544  92.9331739  96.2701150  83.0412371
  94.9130342  95.7081608  83.6058544  95.3739530  94.9825520  82.9356716
  95.6716736  96.4038090  83.9645175  94.3150342  94.9741608  84.7928544
  93.1300342  95.1381608  85.1058544  95.1390342  94.1561608  85.4458544
  96.0495141  93.9500773  85.0602959  94.7610342  93.5221608  86.7088544
  93.7353952  93.1609038  86.6336409  95.6730342  92.3391608  87.0498544
  96.6926392  92.6471825  86.8182780  95.5810032  92.1660170  88.1220725
  95.3490342  91.0581608  86.3008544  94.2663138  90.9330957  86.2875875
  95.7154739  91.1562860  85.2789956  95.9930342  89.8411608  86.9568544
  96.0437925  89.0423789  86.2169421  97.0020711  90.1145996  87.2653592
  95.2030342  89.3601608  88.1708544  94.9906234  90.2203902  88.8056675
  94.2658674  88.9268260  87.8215144  95.9590342  88.3431608  88.9508544
  96.8272734  88.7446312  89.2750178  95.4073484  88.0488147  89.7440147
  96.1555882  87.5457861  88.3629264  94.8370342  94.5431608  87.8358544
  95.7890342  95.3161608  87.9148544  93.8540342  94.5081608  88.7278544
  93.0778253  93.8797663  88.5771247  93.8130342  95.3951608  89.8918544
  93.8031985  96.4489281  89.6133281  92.5690342  95.1031608  90.7698544
  92.5091641  94.0273412  90.9345572  92.6480342  95.8191608  92.1138544
  92.7074666  96.8951301  91.9499678  91.7586618  95.5901610  92.7009457
  93.5345278  95.4847274  92.6527284  91.2850342  95.4831608  90.0338544
  91.2087157  94.9048881  89.1130514  90.4250261  95.2697623  90.6686352
  91.3041100  96.5462943  89.7940962  95.1030342  95.2591608  90.7138544
  95.6560342  96.2591608  91.1598544  95.5950342  94.0271608  90.8588544
  95.0941760  93.2534050  90.4458866  96.7800342  93.7331608  91.6758544
  96.7534561  94.3266105  92.5897528  96.8190342  92.2401608  92.0588544
  96.8115502  91.6798646  91.1239152  97.7664228  92.0763889  92.5724045
  95.6670342  91.7631608  92.9488544  96.0599701  90.9649463  93.5785813
  95.3850855  92.6116480  93.5722912  94.4370342  91.2561608  92.1908544
  93.5560342  90.6461608  92.8398544  94.3350342  91.4631608  90.9588544
  98.1300342  94.1351608  91.0408544  99.1700342  93.9871608  91.6858544
  98.1150342  94.6141608  89.7918544  97.2339762  94.6385893  89.2986615
  99.3290342  95.0421608  89.0748544 100.2073560  94.9157911  89.7078479
  99.5050342  94.1871608  87.8178544  98.6325805  94.3505666  87.1852232
 100.3980823  94.5411239  87.3028057  99.6460342  92.6981608  88.1138544
 100.5376592  92.5822634  88.7300309  98.7689949  92.3904933  88.6832768
  99.7730342  91.8301608  86.8698544  99.4350342  92.2881608  85.7528544
 100.2090342  90.6671608  87.0128544  99.3710342  96.5251608  88.6808544
 100.4610342  97.0721608  88.5168544  98.2160342  97.1731608  88.5208544
  97.3404232  96.6975813  88.6858660  98.1750342  98.5601608  88.0178544
  98.9717330  98.7854671  87.3089064  96.8110342  98.9461608  87.3728544
  96.8647629  99.9800095  87.0317250  96.4900342  98.0371608  86.1908544
  96.4356811  97.0031218  86.5313100  95.5326694  98.3274487  85.7580890
  97.2720326  98.1303892  85.4372705  95.6730342  98.9861608  88.3978544
  95.9023638  99.7230887  89.1675604  94.7434102  99.2599424  87.8989132
  95.5625469  98.0039488  88.8573683  98.5090342  99.6171608  89.0708544
  98.3140342  99.4121608  90.2698544  99.0030342 100.7511608  88.5808544
  99.2927358 100.7679506  87.6134401  99.1540342 101.9651608  89.3668544
  99.2038798 101.7171433  90.4270911 100.4420342 102.6951608  88.9738544
 101.2518572 101.9666277  89.0129145 100.3166929 103.0436987  87.9487149
 100.7780342 103.8741608  89.8718544  99.9672372 104.5951955  89.7678452
 100.8117568 103.5118200  90.8993130 102.1010342 104.5451608  89.5268544
 102.8160342 104.9361608  90.4728544 102.4260342 104.6931608  88.3258544
  97.9330342 102.8441608  89.0838544  97.6090342 103.0921608  87.9148544
  97.2470342 103.2881608  90.1398544  97.5274201 103.0195213  91.0722255
  96.0810342 104.1701608  89.9898544  95.4753057 103.8189020  89.1545046
  95.2100342 104.1931608  91.2508544  95.9194720 103.8770039  92.0156041
  94.9933346 105.2543430  91.3734662  93.9210342 103.3921608  91.3918544
  94.1437363 102.3413362  91.5769823  93.1540342 103.9631608  92.5738544
  92.9305522 105.0139096  92.3892428  92.2229270 103.4116371  92.7040913
  93.7579479 103.8738924  93.4768604  93.0280342 103.4311608  90.1688544
  93.5653949 103.0230886  89.3128053  92.1332088 102.8364951  90.3525972
  92.7420235 104.4620013  89.9598935  96.5240342 105.6071608  89.7128544
  97.4930342 106.0671608  90.3108544  95.7910342 106.3341608  88.8438544
  94.8720342 105.7651608  87.8428544  94.0262265 105.3106265  88.3587111
  95.4010996 105.0023747  87.2715872  94.4680342 106.9391608  86.9948544
  93.4112841 106.8547323  86.7413785  95.0611446 106.9450921  86.0803675
  94.7350342 108.1511608  87.8068544  93.8985137 108.3826136  88.4662192
  94.9572494 109.0181179  87.1846765  95.9640342 107.7761608  88.6378544
  96.9022975 107.9031345  88.0978193  95.9940342 108.6151608  89.9128544
  96.6230342 109.6701608  89.9218544  95.2980342 108.1551608  90.9538544
  94.6873975 107.3635261  90.8105481  95.3060342 108.7971608  92.2718544
  95.9889149 109.6463392  92.2977224  93.8910342 109.2861608  92.6798544
  93.9376471 109.7246183  93.6766901  93.3920342 110.3271608  91.6918544
  93.3447098 109.8892745  90.6948003  92.3983186 110.6631005  91.9881215
  94.0746096 111.1769326  91.6828898  92.8870342 108.1421608  92.7778544
  93.2241779 107.4253084  93.5265592  91.9127621 108.5368013  93.0662159
  92.8056433 107.6456556  91.8109216  95.8860342 107.8711608  93.3478544
  95.9050342 106.6441608  93.1898544  96.3540342 108.4711608  94.4398544
  96.3683451 109.4798877  94.4884800  96.8800342 107.7151608  95.5748544
  97.5114853 106.9047743  95.2106533  97.7110342 108.6061608  96.4908544
  97.0721995 109.4304151  96.8080203  97.9897891 108.0084775  97.3587083
  98.9540342 109.1561608  95.8398544  99.4679638 108.3515651  95.3139238
  98.6390490 109.9148078  95.1233782  99.8880342 109.7741608  96.8468544
  99.9820342 111.0121608  96.8878544 100.5150342 109.0151608  97.6138544
  95.7720342 107.0841608  96.3998544  95.9310342 105.9651608  96.8768544
  94.6770342 107.8231608  96.5948544  94.6377567 108.7454106  96.1849618
  93.5450342 107.3771608  97.4118544  93.6123633 106.3016390  97.5756195
  93.5460342 108.0821608  98.7758544  93.4612826 109.1496175  98.5722553
  92.6538354 107.7409931  99.3009125  94.7750342 107.8261608  99.6428544
  95.6585201 108.0699099  99.0528205  94.7208087 108.4896137 100.5059835
  94.8650342 106.3791608 100.1188544  93.9901584 106.1655670 100.7329139
  94.8611605 105.7297652  99.2434289  96.1280342 106.1281608 100.9308544
  96.9663961 106.6123621 100.4300560  95.9973791 106.5626796 101.9219254
  96.4030342 104.6681608 101.0608544  96.5245609 104.2654154 100.1426348
  97.2442748 104.5309841 101.6027002  95.6264968 104.2193702 101.5252634
  92.2080342 107.6271608  96.7258544  92.0930342 108.5011608  95.8648544
  91.2040342 106.8531608  97.1298544  91.4034173 106.0728274  97.7393014
  89.8360342 107.0251608  96.6508544  89.7000007 107.9803724  96.1437402
  89.4070342 105.8871608  95.6878544  88.3772555 106.0560889  95.3730239
  90.3140342 105.8601608  94.4638544  91.3439911 105.6908001  94.7778716
  90.0012988 105.0567459  93.7969050  90.2465877 106.8135962  93.9399141
  89.3950342 104.5241608  96.3738544  88.6939583 104.5429445  97.2082654
  89.0885121 103.7600066  95.6595630  90.3940495 104.2945401  96.7444534
  88.8720342 107.1451608  97.8348544  89.1000342 106.5671608  98.9018544
  87.8050342 107.9121608  97.6338544  87.6974152 108.3792288  96.7448297
  86.7910342 108.1411608  98.6658544  87.2659345 108.1965904  99.6453933
  86.0530342 109.4541608  98.4058544  85.5795609 109.3757426  97.4271957
  85.2861961 109.5716640  99.1715256  86.9780342 110.6611608  98.4258544
  87.6270342 110.9011608  99.4668544  87.0490342 111.3741608  97.4038544
  85.7850342 106.9911608  98.7168544  85.3260342 106.6161608  99.7928544
  85.4350342 106.4581608  97.5458544  85.8449973 106.8335233  96.7025676
  84.4550342 105.3781608  97.4198544  84.2434287 104.9183477  98.3852011
  83.1340342 105.8941608  96.7928544  83.3620915 106.3566352  95.8325380
  82.1370342 104.7531608  96.5848544  81.9081192 104.2904641  97.5448598
  81.2209762 105.1462686  96.1439410  82.5704497 104.0084187  95.9173146
  82.5190342 107.0011608  97.6648544  82.1694557 106.5293123  98.5831434
  83.3172631 107.7052274  97.8998447  81.3730342 107.7391608  97.0098544
  80.5741723 107.0357753  96.7749750  80.9957773 108.5026999  97.6901371
  81.7219796 108.2116887  96.0916745  85.0360342 104.2511608  96.5608544
  85.7430342 104.5101608  95.5848544  84.7590342 103.0081608  96.9518544
  84.3768801 102.8593447  97.8748448  85.0090342 101.8381608  96.1068544
  85.4554557 102.1631448  95.1670712  85.9360342 100.8021608  96.7868544
  85.6020362 100.6573639  97.8142684  85.9050342  99.4621608  96.0468544
  86.2393684  99.6060810  95.0194264  86.5657984  98.7545752  96.5476678
  84.8878351  99.0704924  96.0458948  87.3710342 101.3321608  96.8298544
  87.7145366 101.4087393  95.7982330  87.3312216 102.3268682  97.2737818
  88.3330342 100.4641608  97.6198544  88.3737335  99.4693611  97.1762137
  89.3269006 100.9112935  97.5998219  87.9904169 100.3874882  98.6517626
  83.6650342 101.1941608  95.7888544  82.8850342 100.9241608  96.6928544
  83.4090342 100.9491608  94.5058544  84.0082249 101.3509552  93.7990085
  82.2260342 100.2071608  94.0718544  81.6940227  99.8065799  94.9347553
  81.2610342 101.0761608  93.2288544  80.3553444 100.5066007  93.0204615
  80.8980342 102.3471608  93.9918544  81.8032290 102.9175182  94.2002182
  80.2189661 102.9513080  93.3902122  80.4122934 102.0816690  94.9308268
  81.8580342 101.4341608  91.8588544  82.8451100 101.8600296  92.0389042
  81.9605961 100.5044314  91.2992261  81.0220342 102.4161608  91.0588544
  80.9194149 103.3463673  91.6176790  81.5104979 102.6176427  90.1054880
  80.0348995 101.9907695  90.8780029  82.6700342  98.9481608  93.3248544
  83.6580342  98.9651608  92.5948544  81.9600342  97.8471608  93.5348544
  81.1733553  97.8519202  94.1682681  82.3150342  96.5951608  92.8858544
  82.5354674  96.7796571  91.8344413  83.5490342  95.9651608  93.5418544
  84.3369414  96.7159050  93.6025546  83.2836842  95.6356575  94.5464025
  84.0110342  94.8541608  92.7858544  84.7826536  94.4750703  93.2130473
  81.1740342  95.6031608  92.9368544  80.5640342  95.3841608  93.9868544
  80.8820342  95.0201608  91.7868544  81.1744594  95.4394717  90.9157831
  80.0750342  93.8241608  91.7338544  79.5336164  93.7049847  92.6723442
  79.0650342  93.9041608  90.5958544  78.6832834  94.9247713  90.5690278
  79.5990556  93.6920791  89.6696025  77.9070342  92.9351608  90.7448544
  77.6036378  92.8747189  91.7900330  77.0863637  93.3384216  90.1515756
  78.2600342  91.5551608  90.2428544  77.9340342  91.2511608  89.0688544
  78.8990342  90.7931608  91.0098544  81.0620342  92.6661608  91.6038544
  81.5680342  92.3801608  90.5198544  81.3210342  92.0291608  92.7428544
  80.7821180  92.2980522  93.5536356  82.3600342  91.0011608  92.9058544
  82.9466265  90.9203536  91.9907157  83.3070342  91.3701608  94.0678544
  84.0142605  90.5694609  94.2842108  83.8535101  92.2736657  93.7974049
  82.5900342  91.6701608  95.3548544  82.2150342  92.8971608  95.8018544
  82.4760175  93.7471104  95.1713203  81.5610342  92.7891608  97.0028544
  81.1946936  93.5583382  97.5453119  81.4920342  91.4671608  97.3508544
  80.9270342  90.8571608  98.4788544  80.4487987  91.4884400  99.2277710
  81.0130342  89.4911608  98.5688544  80.5876030  88.9815670  99.4333903
  81.6380342  88.7301608  97.5708544  81.6984975  87.6447509  97.6504094
  82.1990342  89.3351608  96.4508544  82.6764108  88.6983515  95.7060817
  82.1310342  90.7291608  96.3318544  81.7890342  89.6061608  93.1628544
  82.5460342  88.6381608  93.2298544  80.4710342  89.4991608  93.3158544
  79.8738409  90.2900710  93.1211225  79.8560342  88.2741608  93.8058544
  80.4668943  87.8487135  94.6020603  78.4610342  88.5561608  94.3588544
  77.8707582  88.9879746  93.5506401  78.0277120  87.6005596  94.6540801
  78.4590342  89.5031608  95.5498544  77.5223032  89.3508293  96.0859803
  79.2941404  89.2219512  96.1914313  78.6120342  91.2441608  95.1068544
  77.0340342  91.5041608  94.2938544  76.2252129  91.2963885  94.9943812
  76.9647792  92.5381761  93.9560429  76.9520168  90.8361062  93.4364878
  79.7710342  87.2281608  92.7038544  79.3920342  87.5301608  91.5718544
  80.1450342  86.0001608  93.0438544  80.5733206  85.8463841  93.9455322
  79.9610342  84.8521608  92.1598544  79.7136996  85.2091426  91.1601101
  80.8882081  84.2803183  92.1218522  78.8480342  83.9531608  92.6508544
  78.1670342  84.2571608  93.6358544  78.6730342  82.8341608  91.9558544
  79.1905859  82.6927461  91.1001433  77.7410342  81.7941608  92.3808544
  76.7309902  82.2020272  92.4202906  77.7550342  80.6191608  91.4058544
  78.7527974  80.1832815  91.4566204  77.0252943  79.8991480  91.7762074
  77.4320342  80.9711608  89.9728544  76.2860342  81.6941608  89.6488544
  75.6152398  82.0082151  90.4485444  75.9930342  82.0151608  88.3318544
  75.0918732  82.5789479  88.0907013  76.8550342  81.6161608  87.3178544
  76.5750342  81.9341608  86.0108544  75.7606180  82.4327764  85.9123235
  77.9970342  80.8971608  87.6118544  78.6726588  80.5806936  86.8171970
  78.2810342  80.5781608  88.9318544  79.1797516  80.0110195  89.1742551
  78.1570342  81.3181608  93.7738544  79.3510342  81.1401608  94.0398544
  77.1790342  81.1581608  94.6648544  76.2279905  81.3484697  94.3830786
  77.4330342  80.8171608  96.0668544  76.4978076  80.8106900  96.6266834
  78.0680342  79.4231608  96.1568544  77.6943998  78.7864923  95.3548882
  79.1530774  79.4980900  96.0849725  77.7280342  78.5421608  97.6948544
  78.4174453  77.4481700  97.3837358  78.2930342  81.8861608  96.7718544
  79.0500342  81.5751608  97.6928544  78.1590342  83.1391608  96.3158544
  77.5966631  83.2335329  95.4822286  78.8650342  84.3411608  96.8288544
  78.4465717  85.2285713  96.3539956  78.7240342  84.4871608  98.3558544
  77.6529947  84.3529617  98.5073934  79.2630422  83.6662207  98.8287475
  79.1670342  85.8191608  98.9828544  80.2530411  85.8829282  98.9148565
  78.5430342  87.0181608  98.2788544  77.4569728  86.9553301  98.3468369
  78.8837832  87.9375486  98.7550023  78.8414139  87.0203724  97.2304913
  78.8420342  85.8421608 100.4738544  79.3638477  85.0254406 100.9726312
  79.1624093  86.7922173 100.9014684  77.7674006  85.7252737 100.6138505
  80.3350342  84.4731608  96.4268544  80.7520342  85.5051608  95.8968544
  81.1060342  83.4241608  96.6698544  80.6748183  82.5492796  96.9320282
  82.5610342  83.4981608  96.6488544  82.8985569  84.5341359  96.6183054
  83.0900342  82.8481608  97.9328544  82.6740579  81.8451208  98.0275844
  84.1783036  82.7894200  97.9149848  82.7190342  83.5891608  99.1908544
  83.0400342  84.9321608  99.3488544  83.5615820  85.4515039  98.5448827
  82.7050342  85.6121608 100.5118544  82.9596013  86.6661779 100.6229588
  82.0460342  84.9481608 101.5318544  81.7800063  85.4790580 102.4458988
  81.7250342  83.6101608 101.3908544  81.2072385  83.0854666 102.1937764
  82.0610342  82.9391608 100.2318544  81.8113163  81.8839470 100.1211075
  83.2320342  82.8631608  95.4238544  84.4460342  83.0011608  95.2638544
  82.4720342  82.1771608  94.5638544  81.4908915  82.0218591  94.7464462
  83.0580342  81.5811608  93.3578544  83.8604194  80.9026665  93.6475485
  82.0210342  80.7961608  92.5518544  81.5174503  80.1199334  93.2426648
  81.3015097  81.5134255  92.1569926  82.6180342  79.9981608  91.4088544
  83.4190342  78.8851608  91.6588544  83.6096961  78.5958752  92.6923250
  83.9690342  78.1511608  90.6218544  84.5923105  77.2829352  90.8358939
  83.7240342  78.5191608  89.3148544  84.2810342  77.7791608  88.2958544
  84.8109649  77.0439761  88.6125192  82.9330342  79.6171608  89.0348544
  82.7368437  79.9065635  88.0024515  82.3870342  80.3531608  90.0778544
  81.7667729  81.2236745  89.8643552  83.6770342  82.6851608  92.5038544
  83.1570342  83.8001608  92.4698544  84.7940342  82.3531608  91.8468544
  85.0693434  81.3839008  91.9164203  85.7070342  83.2961608  91.1528544
  86.3411979  82.7181276  90.4806838  84.9830342  84.3831608  90.3338544
  84.5411940  85.0635492  91.0618297  85.7594363  84.9048456  89.7742609
  83.9040342  83.8971608  89.3728544  84.3777532  83.2587868  88.6270864
  83.1814107  83.3138007  89.9434729  83.1910342  85.0461608  88.6768544
  83.8900342  85.9421608  88.1488544  81.9360342  85.0591608  88.6538544
  86.7360342  83.9591608  92.0858544  87.7730342  84.4231608  91.6118544
  86.4450342  84.0121608  93.3888544  85.5347222  83.6804292  93.6741358
  87.3060342  84.6281608  94.3978544  86.7775603  84.6763556  95.3499530
  88.5960342  83.8091608  94.5918544  89.1529355  83.8059825  93.6548645
  89.1967504  84.2811120  95.3693518  88.2990342  82.4761608  94.9688544
  89.1166675  81.9863773  95.0836928  87.6200342  86.0951608  94.1118544
  88.7370342  86.5601608  94.3558544  86.6290342  86.8301608  93.6138544
  85.7443288  86.4023550  93.3806638  86.8200342  88.2471608  93.2968544
  87.8212791  88.3947291  92.8920934  85.8020342  88.7301608  92.2678544
  85.6755338  87.9381543  91.5297334  84.8583790  88.8957773  92.7876486
  86.2260342  90.0101608  91.5688544  86.3830911  90.7683334  92.3360625
  87.1679499  89.8103974  91.0579812  85.0270342  90.6141608  90.3798544
  85.3900342  92.3701608  90.4388544  86.4267956  92.5373973  90.1468668
  84.7298163  92.9014189  89.7533051  85.2343438  92.7400382  91.4522904
  86.7840342  89.1531608  94.5328544  87.3170342  90.2591608  94.4808544
  86.1800342  88.7111608  95.6368544  85.6441218  87.8550669  95.6362429
  86.2180342  89.5071608  96.8688544  85.7398355  90.4685130  96.6811659
  85.4960342  88.8201608  98.0318544  84.4856068  88.6803132  97.6476953
  85.9507475  87.8474503  98.2193916  85.4390342  89.6211608  99.3448544
  86.4565146  89.7417594  99.7167287  84.8050342  90.9941608  99.1448544
  83.7873052  90.8743608  98.7734054  84.7839387  91.5271441 100.0954250
  85.3902025  91.5634227  98.4226222  84.7080342  88.8461608 100.4258544
  85.2267152  87.9060095 100.6134310  84.6827823  89.4357225 101.3423044
  83.6888755  88.6393755 100.0992749  87.6580342  89.8221608  97.2628544
  87.9510342  90.9531608  97.6438544  88.5470342  88.8361608  97.1268544
  88.2165844  87.9114182  96.8907330  89.9910342  89.0231608  97.3658544
  90.1646830  89.1762966  98.4309810  90.7990342  87.7931608  96.9068544
  90.6547834  87.6581735  95.8349079  91.8533055  87.9808692  97.1102693
  90.3860342  86.5091608  97.6198544  89.1990342  86.2191608  97.7478544
  91.3670342  85.7341608  98.0798544  91.1440141  84.8735102  98.5590646
  92.3293299  86.0107761  97.9472958  90.5430342  90.2751608  96.6708544
  91.3600342  91.0001608  97.2458544  90.0960342  90.5161608  95.4388544
  89.4824109  89.8434904  95.0017270  90.5230342  91.6781608  94.6558544
  91.6096030  91.7585414  94.6875776  90.0800342  91.5531608  93.1808544
  88.9926419  91.4836910  93.1516619  90.5340342  92.7511608  92.3578544
  91.6214241  92.8210159  92.3861938  90.2050694  92.6293306  91.3258473
  90.1010587  93.6619194  92.7715591  90.6520342  90.3691608  92.6228544
  90.3811428  90.2844575  91.7057702  90.0180342  92.9961608  95.2418544
  90.7640342  93.9731608  95.2838544  88.7640342  93.0121608  95.6928544
  88.1741792  92.2052803  95.5475468  88.1800342  94.1941608  96.3408544
  88.3043517  95.0854857  95.7258876  86.6720342  94.0061608  96.6408544
  86.5476184  93.1118100  97.2513923  86.1010342  95.2131608  97.3838544
  86.2246776  96.1078812  96.7736999  85.0411165  95.0515168  97.5801861
  86.6294211  95.3422971  98.3284351  85.8920342  93.7631608  95.3518544
  86.2683601  92.8646952  94.8627321  84.8351616  93.6337161  95.5850151
  86.0146832  94.6172637  94.6858467  88.9420342  94.5201608  97.6338544
  89.2200342  95.6901608  97.9128544  89.2870342  93.4831608  98.3978544
  88.9844467  92.5564186  98.1338675  90.0280342  93.6411608  99.6528544
  89.5209180  94.3703028 100.2847437  90.1190342  92.3101608 100.4148544
  90.6922196  91.6972691  99.7192097  90.7061433  92.4801199 101.3173603
  88.8140342  91.5841608 100.7818544  88.3650356  91.1854929  99.8721484
  89.0850342  90.4461608 101.7538544  89.5336416  90.8441345 102.6640561
  88.1479244  89.9466471 101.9996432  89.7680292  89.7309807 101.2954487
  87.7670342  92.5391608 101.3458544  87.5338276  93.3028020 100.6038529
  86.8620911  91.9832767 101.5911546  88.1558858  93.0148616 102.2461889
  91.4290342  94.2081608  99.4328544  91.8760342  95.0611608 100.1968544
  92.1170342  93.7281608  98.3988544  91.7706996  92.9174503  97.9060054
  93.4040342  94.3001608  97.9808544  94.1271869  94.2116642  98.7916058
  93.9530342  93.5561608  96.7478544  94.1557199  92.5354213  97.0720590
  93.1595909  93.5486785  96.0005314  95.2110342  94.1541608  96.1438544
  95.1380342  95.2221608  95.2458544  94.1571796  95.6168198  94.9807734
  96.2810342  95.7791608  94.6948544  96.2064992  96.6193840  94.0045130
  97.5240342  95.2621608  95.0258544  98.6490342  95.8211608  94.4688544
  98.4516045  96.5503794  93.8765189  97.6260342  94.1961608  95.9068544
  98.6024559  93.7870846  96.1663883  96.4740342  93.6491608  96.4598544
  96.5471109  92.8113168  97.1532355  93.2550342  95.7971608  97.6868544
  94.0430342  96.6071608  98.1728544  92.2440342  96.1411608  96.8918544
  91.6672465  95.4097292  96.5014404  91.9690342  97.5291608  96.4988544
  92.8799950  97.9303728  96.0546939  90.8620342  97.5621608  95.4528544
  89.9408626  97.1718592  95.8855293  90.7020437  98.5891962  95.1246752
  91.1499891  96.9490723  94.5988616  91.5950342  98.4281608  97.6848544
  91.9530342  99.6091608  97.7138544  90.8630342  97.8621608  98.6418544
  90.5138204  96.9258219  98.4955038  90.5090342  98.5481608  99.8848544
  89.9655838  99.4675234  99.6668332  89.6120342  97.6381608 100.7378544
  88.7117610  97.4651526 100.1482143  90.1565567  96.7008637 100.8521763
  89.2240342  98.1711608 102.1128544  90.0898864  98.6614032 102.5578973
  88.4177248  98.8951627 101.9954307  88.7610342  97.0391608 103.0188544
  88.3537400  97.4671391 103.9348484  87.9830940  96.4744133 102.5050755
  89.8500342  96.1241608 103.3718544  90.7835401  96.4293623 103.1362312
  89.6980342  94.9351608 103.9648544  88.4910342  94.4761608 104.3068544
  87.6700006  95.0329141 104.1170400  88.4050098  93.5744713 104.7536826
  90.7700342  94.1951608 104.2278544  91.6879603  94.5350225 103.9788449
  90.6619330  93.2962783 104.6755409  91.7570342  98.9351608 100.6718544
  91.9380342 100.0961608 101.0278544  92.6060342  97.9461608 100.9378544
  92.3881587  97.0124268 100.6204109  93.8190342  98.1431608 101.7368544
  93.5590603  98.5865798 102.6980476  94.5240342  96.8001608 101.9898544
  94.7320224  96.3449003 101.0215682  95.4634739  97.0128420 102.5000699
  93.6880342  95.8341608 102.8398544  92.6140342  96.2251608 103.3508544
  94.1040342  94.6691608 102.9988544  94.7900342  99.1291608 101.0798544
  95.3840342  99.9651608 101.7618544  94.9220342  99.0421608  99.7568544
  94.3846002  98.3526390  99.2510642  95.8730342  99.8661608  99.0088544
  96.8137967  99.9337153  99.5552074  96.1490342  99.2481608  97.6318544
  96.2097103  98.1686748  97.7701575  95.2958842  99.4851119  96.9961743
  97.4260342  99.7471608  96.9728544  97.3016650 100.8035895  96.7349647
  98.2479403  99.6285681  97.6789055  97.7360342  98.9741608  95.6998544
  97.4426859  97.9368097  95.8609399  97.1347455  99.4007540  94.8970036
  99.2090342  99.0311608  95.3158544  99.7657571  98.4426167  96.0450843
  99.3131955  98.5793576  94.3293842  99.7450342 100.4161608  95.2848544
  99.6490040 100.8348421  96.1989572 100.7209473 100.3937340  95.0256427
  99.2295786 100.9615713  94.6088870  95.4030342 101.3111608  98.8408544
  96.1630342 102.2341608  99.1108544  94.1540342 101.4921608  98.4088544
  93.5322242 100.6977808  98.3597413  93.6600342 102.7961608  97.9338544
  94.4568384 103.5386976  97.9767672  93.1850342 102.6711608  96.4828544
  92.4284524 101.8874408  96.4445644  92.7562256 103.6072065  96.1250254
  94.2450342 102.2881608  95.5088544  95.4260342 102.9351608  95.2728544
  95.6289075 103.8214510  95.8740465  96.1290342 102.2941608  94.2828544
  97.0323279 102.5718198  93.9263918  95.4030342 101.2161608  93.8548544
  95.6950342 100.2651608  92.8738544  96.6360847 100.3492937  92.3303065
  94.7730342  99.2811608  92.6568544  94.9698744  98.5188165  91.9030738
  93.5700342  99.2261608  93.3848544  92.8393617  98.4384774  93.2010825
  93.2780342 100.1711608  94.3568544  92.3393475 100.0786417  94.9031219
  94.2050342 101.1881608  94.6028544  92.5290342 103.4591608  98.7368544
  92.2870342 104.6511608  98.5418544  91.8210342 102.7291608  99.5998544
  92.0110109 101.7487521  99.7508745  90.6800342 103.3321608 100.2978544
  90.0904622 103.9027464  99.5802640  89.7750342 102.2851608 100.9518544
  89.6218705 101.5534191 100.1586368  90.3162153 101.8194965 101.7754926
  88.4160342 102.7871608 101.4528544  88.5974356 103.5303155 102.2293307
  87.5770342 103.4091608 100.3398544  87.3948159 102.6664202  99.5631744
  86.6249661 103.7482827 100.7480986  88.1112991 104.2576116  99.9123118
  87.6540342 101.6531608 102.1188544  88.2293596 101.2752517 102.9640082
  86.6900745 102.0201840 102.4712418  87.4954288 100.8496492 101.3996101
  91.1630342 104.3361608 101.3388544  92.0120342 104.0191608 102.1698544
  90.6250342 105.5521608 101.2698544  90.0106297 105.7807444 100.5015082
  90.9290342 106.5941608 102.2468544  92.0090349 106.7171580 102.3279065
  90.3190342 107.9211608 101.8088544  89.2368039 107.8163940 101.7320329
  90.5578402 108.6911496 102.5424681  90.7257667 108.2059199 100.8385038
  90.4060342 106.1991608 103.6328544  89.5480342 105.3131608 103.7428544
  90.9290342 106.8371608 104.7008544  92.1270342 107.6951608 104.7868544
  91.8852890 108.6941433 104.4239584  92.9231283 107.2699274 104.1756999
  92.4580342 107.6781608 106.2498544  92.9443283 108.6126024 106.5299187
  93.1234636 106.8430531 106.4687157  91.1510342 107.5141608 106.9478544
  90.6956346 108.5015732 107.0235302  91.2077796 107.0638684 107.9388722
  90.3160342 106.6241608 106.0148544  90.3781712 105.5659333 106.2686099
  88.8460342 107.0591608 105.9968544  88.5190342 108.1031608 105.4228544
  87.9750342 106.2351608 106.5738544  88.3124733 105.3605389 106.9497145
  86.5240342 106.4791608 106.5698544  86.0009326 105.6177285 106.9850633
  86.1910342 107.7141608 107.4228544  86.6200096 108.5901735 106.9363556
  85.1060192 107.8127117 107.4564718  86.7360342 107.6041608 108.8448544
  86.3790342 106.6301608 109.5478544  87.5210342 108.4821608 109.2578544
  85.9070342 106.5841608 105.1558544  84.8970342 107.2651608 104.9598544
  86.5070342 105.8891608 104.1868544  87.3721715 105.4092381 104.3901055
  85.9630342 105.7921608 102.8368544  85.5502530 106.7565787 102.5408665
  86.7559909 105.5090493 102.1446356  84.8630342 104.7461608 102.7828544
  84.8090342 103.8481608 103.6268544  83.9920342 104.8611608 101.7828544
  84.1143036 105.6039278 101.1094699  82.8320342 103.9781608 101.6398544
  82.6006917 103.5057284 102.5945205  81.6140342 104.7881608 101.1868544
  81.8276764 104.9970829 100.1386141  80.7362316 104.1458094 101.2571919
  81.3450342 106.1001608 101.9228544  82.1934020 106.7712603 101.7886962
  80.0900342 106.7521608 101.3638544  79.2410932 106.0818012 101.4980779
  79.9005320 107.6875198 101.8904408  80.2276607 106.9551547 100.3018032
  81.2220342 105.8671608 103.4178544  82.1492134 105.4370173 103.7965559
  81.0307450 106.8158115 103.9194235  80.3977011 105.1811137 103.6125679
  83.0940342 102.8471608 100.6458544  83.8630342 103.0161608  99.7008544
  82.4480342 101.7021608 100.8738544  81.9538928 101.5935212 101.7479946
  82.4680342 100.5701608  99.9408544  82.9599642 100.8820837  99.0195465
  83.2040342  99.3411608 100.5278544  82.6465413  98.9840493 101.3937490
  83.3200342  98.2151608  99.4958544  83.8778452  98.5714022  98.6298061
  83.8416465  97.3671806  99.9396459  82.3232734  97.9045099  99.1827041
  84.6140342  99.7351608 100.9908544  85.1485609 100.0883625 100.1090208
  84.4961381 100.5570476 101.6970428  85.4020342  98.6161608 101.6448544
  85.5207454  97.7940466 100.9390670  86.3840935  98.9864505 101.9390388
  84.8683210  98.2627300 102.5270883  81.0180342 100.2301608  99.5888544
  80.1620342 100.1901608 100.4728544  80.7530342 100.0091608  98.2978544
  81.5228465 100.0252689  97.6442269  79.4110342  99.7111608  97.7848544
  78.7061311  99.6407576  98.6132590  78.9420342 100.8181608  96.8358544
  79.7366709 101.1288499  96.1575299  78.1041768 100.4274767  96.2583936
  78.4490342 102.0641608  97.5208544  79.3270342 102.8951608  98.2128544
  80.3812757 102.6240440  98.2691614  78.8760342 104.0531608  98.8248544
  79.5733890 104.6892140  99.3700455  77.5400342 104.4021608  98.7438544
  77.1815939 105.3102479  99.2286205  76.6580342 103.5961608  98.0458544
  75.6056925 103.8718870  97.9776479  77.1120342 102.4391608  97.4338544
  76.4188935 101.8099063  96.8755582  79.4540342  98.4011608  96.9908544
  80.1200342  98.3561608  95.9548544  78.7940342  97.3281608  97.4438544
  78.6580342  96.0971608  96.6508544  79.6446194  95.7699640  96.3226895
  78.0339477  96.2975086  95.7799493  78.0180342  95.1311608  97.6028544
  78.7870450  94.5304949  98.0885725  77.3363712  94.4771308  97.0590882
  77.2790342  95.9681608  98.5878544  77.2435950  95.4025063  99.5189173
  76.2703628  96.2748288  98.3110219  78.1680342  97.1971608  98.7608544
  77.6359765  98.1187691  98.9967590  79.2260342  96.9371608  99.8228544
  80.3770342  96.6711608  99.4828544  78.8290342  97.0081608 101.0908544
  77.8846799  97.3053566 101.2907765  79.7500342  96.7951608 102.2238544
  80.7319271  96.5126521 101.8441513  79.8990342  98.0731608 103.0718544
  80.4305385  97.8084659 103.9859327  80.5006786  98.7731489 102.4920780
  78.5750342  98.7191608 103.4268544  77.5320342  98.0341608 103.4668544
  78.5770342  99.9381608 103.6818544  79.4020342  95.6031608 103.1238544
  80.1360342  95.3171608 104.0698544  78.3040342  94.9071608 102.8288544
  77.7177015  95.1984083 102.0597718  77.8800342  93.7601608 103.6268544
  78.7407868  93.3226957 104.1326493  76.8590342  94.1931608 104.6838544
  77.3414398  94.9525539 105.2992455  76.0189710  94.6381753 104.1506041
  76.3550342  93.0651608 105.5728544  75.8344815  92.3427263 104.9441939
  77.2170985  92.5868338 106.0377744  75.4110342  93.5691608 106.6538544
  75.9771418  94.1255648 107.4008723  74.6610709  94.2216792 106.2067816
  74.7290342  92.4551608 107.3158544  73.7675667  92.2993491 107.0486423
  75.2760342  91.6471608 108.2288544  76.5380342  91.8021608 108.6298544
  77.1009786  92.5446148 108.2400395  76.9253530  91.1764181 109.3216130
  74.5480342  90.6621608 108.7538544  73.5906581  90.5334794 108.4589441
  74.9569858  90.0488149 109.4442630  77.3000342  92.6671608 102.7308544
  76.4770342  92.9481608 101.8628544  77.7490342  91.4321608 102.9528544
  78.5215076  91.3068733 103.5913583  77.2020342  90.2491608 102.2838544
  76.2445103  90.4894649 101.8217926  78.1540342  89.7581608 101.2028544
  79.1145615  89.5048946 101.6515677  77.7340108  88.8747287 100.7219924
  78.2963676  90.5426818 100.4596403  76.9510342  89.1451608 103.3118544
  77.7390342  88.9571608 104.2438544  75.8470342  88.4261608 103.1418544
  75.2049417  88.6696660 102.4012319  75.4970342  87.3161608 104.0248544
  76.3505051  87.0819320 104.6611118  74.2970342  87.6691608 104.9218544
  73.8973150  86.7531794 105.3569440  74.7250342  88.6131608 106.0338544
  75.1244609  89.5296240 105.5995122  73.8648170  88.8527933 106.6589158
  75.4931539  88.1349075 106.6416098  73.2850342  88.3091608 104.1408544
  72.5379948  88.5281714 104.7026077  75.1870342  86.0751608 103.1948544
  74.5600342  86.1791608 102.1518544  75.6520342  84.9171608 103.6608544
  76.2011337  84.9255916 104.5085088  75.4280342  83.6361608 102.9928544
  74.9365926  83.7972547 102.0333582  76.7640342  82.9301608 102.7458544
  77.3653968  83.7065683 102.2729341  77.1789075  82.6967382 103.7264125
  76.7780342  81.6681608 101.8708544  76.0310551  80.9773378 102.2618616
  76.4720342  81.9731608 100.4148544  77.2189076  82.6636120 100.0229921
  76.4937245  81.0490759  99.8371889  75.4835426  82.4260043 100.3379300
  78.1290342  80.9801608 101.9808544  78.3117254  80.7009119 103.0185169
  78.1335247  80.0855272 101.3581893  78.9119885  81.6599995 101.6448472
  74.5230342  82.7701608 103.8698544  74.7610342  82.6331608 105.0728544
  73.4840342  82.2021608 103.2598544  73.3698729  82.3510561 102.2674348
  72.4910342  81.3881608 103.9568544  72.7408135  81.3268022 105.0160733
  71.0990342  82.0081608 103.8178544  70.8945444  82.1015319 102.7512875
  70.3874269  81.3135898 104.2642693  70.9630342  83.3591608 104.4758544
  71.3850342  84.5151608 103.8228544  71.8135101  84.4301429 102.8242154
  71.2670342  85.7611608 104.4238544  71.6006722  86.6563681 103.8990769
  70.7210342  85.8651608 105.6938544  70.6120342  87.1071608 106.2818544
  70.9422796  87.8160582 105.7250762  70.2920342  84.7321608 106.3648544
  69.8609341  84.8117014 107.3628155  70.4140342  83.4881608 105.7578544
  70.0797108  82.5917559 106.2801439  72.4730342  79.9821608 103.3848544
  72.8830342  79.7641608 102.2448544  72.0010342  79.0311608 104.1858544
  71.8875087  79.2239738 105.1707577  71.7370342  77.6791608 103.7118544
  71.6979289  77.6313998 102.6236040  72.7970342  76.6641608 104.2148544
  73.7833175  77.1071555 104.0766508  72.6010342  76.3081608 105.6868544
  71.6150796  75.8646570 105.8257744  73.3661496  75.5950504 105.9937300
  72.6817708  77.2103075 106.2932491  72.7790342  75.4101608 103.3598544
  73.0022285  75.6717764 102.3255220  73.5286343  74.7089454 103.7265919
  71.7932925  74.9479551 103.4125789  70.3190342  77.2641608 104.1088544
  69.8170342  77.6591608 105.1608544  69.6810342  76.4821608 103.2388544
  70.1301182  76.2820842 102.3565890  68.3330342  75.9521608 103.4688544
  68.1608480  75.7793674 104.5312073  67.2490342  76.9231608 102.9438544
  67.3592358  77.8741336 103.4650133  67.3730342  77.1511608 101.4348544
  67.2624680  76.2006350 100.9129583  66.5939477  77.8386643 101.1055183
  68.3510876  77.5767211 101.2103312  65.9450342  76.4101608 103.2428544
  65.2788489  77.0181432 102.9139855  68.2300342  74.5791608 102.7998544
  69.1440342  74.1761608 102.0788544  67.1390342  73.8591608 103.0518544
  66.4051481  74.2515140 103.6241913  66.9830342  72.4761608 102.5668544
  67.8375633  72.2096553 101.9448784  66.9200342  71.5171608 103.7408544
  66.0639332  71.7656417 104.3681090  66.8155517  70.4968111 103.3719774
  67.8352918  71.5990812 104.3271068  65.7360342  72.3471608 101.7038544
  64.7440342  73.0311608 101.9548544  65.7940342  71.4771608 100.6898544
  66.6482566  70.9656525 100.5202585  64.6710342  71.2841608  99.7628544
  63.7403672  71.6234317 100.2176657  64.8910342  72.0281608  98.4198544
  64.0354803  71.8452064  97.7697348  65.0380342  73.5231608  98.6548544
  65.8937243  73.7069470  99.3045604  65.1915878  74.0280336  97.7011115
  64.1343230  73.9077615  99.1275989  66.1210342  71.4921608  97.6678544
  67.0041774  71.8021184  98.2265003  66.0542559  70.4042093  97.6691543
  66.2260342  71.9881608  96.2448544  66.2933223  73.0760798  96.2427697
  67.1172498  71.5686334  95.7781310  65.3433991  71.6781724  95.6854241
  64.3560342  69.8241608  99.4378544  65.2010342  68.9341608  99.5748544
  63.1180342  69.6191608  98.9958544  62.4439251  70.3587441  99.1325756
  62.6810342  68.4021608  98.3288544  63.1930915  67.5361011  98.7481839
  61.1690342  68.2231608  98.5298544  61.0028669  68.1977827  99.6068148
  60.6958392  69.1110675  98.1105596  60.5640342  66.9761608  97.8928544
  61.2328716  66.1450970  98.1166636  59.6021347  66.8083476  98.3772996
  60.3630342  67.0741608  96.3858544  60.0570342  68.1701608  95.8658544
  60.5170342  66.0361608  95.7108544  63.0230342  68.5921608  96.8478544
  62.7910342  69.6681608  96.2938544  63.5610342  67.5521608  96.2098544
  63.6993249  66.6881062  96.7142200  64.0360342  67.6321608  94.8218544
  63.3204169  68.1740175  94.2034837  65.3840342  68.3871608  94.7938544
  65.3918874  69.1129471  95.6070406  66.1616378  67.6426443  94.9645233
  65.6460342  69.1011608  93.4738544  64.6850342  69.3891608  92.7258544
  66.8260342  69.3961608  93.1968544  64.1700342  66.2531608  94.1428544
  65.1000342  66.0141608  93.3768544  63.2170342  65.3641608  94.4088544
  62.4588177  65.6354904  95.0184339  63.2500342  63.9771608  93.9088544
  64.1350823  63.4624733  94.2828676  61.9990342  63.2221608  94.3958544
  62.1299499  63.1032418  95.4714094  61.1606872  63.8919118  94.2042615
  61.7170342  61.8601608  93.7638544  60.9305089  61.3925750  94.3561738
  61.3483901  62.0487689  92.7555734  62.9230342  60.9311608  93.6978544
  62.5906507  59.9604002  93.3300989  63.6466604  61.3546362  93.0013394
  63.5750342  60.7431608  94.9948544  62.9968315  60.9127331  95.8054259
  64.8420342  60.3591608  95.1838544  65.6600342  60.1401608  94.1628544
  65.3269842  60.2637626  93.2173914  66.6121548  59.8508155  94.3356128
  65.3080342  60.2051608  96.4148544  64.7040280  60.3785416  97.2055602
  66.2650448  59.9151237  96.5566571  63.3530342  63.9011608  92.3828544
  64.2830342  63.2901608  91.8468544  62.3960342  64.5321608  91.7088544
  61.7123978  65.0672908  92.2249710  62.2430342  64.4271608  90.2588544
  62.1214774  63.3822061  89.9735599  61.0080342  65.2081608  89.7958544
  60.1923929  64.9275449  90.4622500  61.2381602  66.2652142  89.9291965
  60.5920342  64.9571608  88.3498544  61.3573854  65.3827063  87.7008170
  60.5316953  63.8817145  88.1828918  59.2450342  65.5831608  87.9918544
  58.4500342  65.9411608  88.8648544  58.9820342  65.7061608  86.6948544
  58.1070058  66.1128616  86.3964903  59.6584150  65.3923657  86.0135739
  63.4850342  64.9061608  89.5108544  63.9800342  64.2091608  88.6268544
  63.9960342  66.0771608  89.8808544  63.5465880  66.6335329  90.5939796
  65.1540342  66.6431608  89.1858544  65.0543196  66.4641459  88.1152892
  65.2680342  68.1501608  89.4208544  64.2592455  68.5626964  89.4047647
  65.7034510  68.2948372  90.4095814  66.1210342  68.8591608  88.3838544
  65.6600342  69.0401608  87.0758544  64.6726030  68.6632752  86.8093279
  66.4380342  69.6881608  86.1218544  66.0666777  69.8238388  85.1060849
  67.6960342  70.1661608  86.4718544  68.4800342  70.8081608  85.5418544
  68.0624610  70.8730245  84.6798655  68.1750342  69.9991608  87.7608544
  69.1619641  70.3721532  88.0346180  67.3900342  69.3521608  88.7068544
  67.7597024  69.2203156  89.7237430  66.4640342  65.9401608  89.5478544
  67.3380342  65.8041608  88.6878544  66.6020342  65.4911608  90.7968544
  65.9288058  65.7268464  91.5119174  67.7790342  64.7041608  91.1818544
  68.6754420  65.2814209  90.9553082  67.7890342  64.3491608  92.6718544
  67.5558391  65.2550898  93.2313291  67.0094049  63.6067056  92.8422611
  69.1300342  63.7941608  93.1398544  69.4318443  63.0154447  92.4394168
  69.8555132  64.6072217  93.1131284  69.0690342  63.2161608  94.5438544
  68.8932079  64.0299392  95.2473804  68.2410753  62.5089264  94.5928754
  70.3650342  62.5051608  94.9048544  70.6818039  61.9105992  94.0479682
  71.1217921  63.2586071  95.1233388  70.1930342  61.6191608  96.0858544
  69.4921540  60.9206615  95.8834551  71.0701577  61.1648527  96.2964692
  69.8999226  62.1699642  96.8800838  67.8760342  63.4301608  90.3468544
  68.9650342  63.0721608  89.9078544  66.7460342  62.7611608  90.1278544
  65.9014292  63.0325231  90.6106630  66.7080342  61.5631608  89.2768544
  67.4719857  60.8593466  89.6071919  65.3340342  60.8691608  89.3508544
  64.5655371  61.6403471  89.2980997  65.2495593  60.2129213  88.4846478
  65.1480342  60.0511608  90.6298544  66.0710342  60.0071608  91.4768544
  64.0670342  59.4461608  90.7978544  67.0800342  61.8451608  87.8198544
  67.7270342  61.0221608  87.1778544  66.6750342  63.0071608  87.3158544
  66.0798690  63.6005896  87.8759614  67.0040342  63.4391608  85.9558544
  66.8052197  62.6362409  85.2460011  66.1420342  64.6501608  85.5798544
  65.1152430  64.4274840  85.8700510  66.5223136  65.4688287  86.1908130
  66.1780342  65.0521608  84.1168544  65.7360342  64.1761608  83.1208544
  65.3742099  63.1900547  83.4120200  65.7520342  64.5421608  81.7818544
  65.4152360  63.8424450  81.0169579  66.2000342  65.8081608  81.4178544
  66.2100342  66.1641608  80.0858544  65.8899582  65.4668956  79.5088169
  66.6340342  66.7071608  82.3838544  66.9809000  67.7012407  82.1017381
  66.6230342  66.3271608  83.7258544  66.9633339  67.0235121  84.4922688
  68.4930342  63.7761608  85.7938544  69.0610342  63.5451608  84.7258544
  69.1120342  64.3061608  86.8518544  68.5721091  64.4807589  87.6873756
  70.5170342  64.7411608  86.8258544  70.8468529  64.8736746  85.7954375
  70.6710342  66.0831608  87.5688544  70.0462179  66.0273716  88.4602529
  71.7171440  66.1659387  87.8636461  70.2760342  67.3071608  86.7468544
  69.2179422  67.2361266  86.4948698  70.4475111  68.2029708  87.3436979
  71.0990342  67.3851608  85.4658544  72.0306399  66.8510945  85.6528920
  70.5329927  66.8671357  84.6916797  71.4080342  68.7901608  85.0078544
  70.4884606  69.2910596  84.7052238  71.8756387  69.3489043  85.8185645
  72.3410342  68.7231608  83.8488544  71.9077625  68.2058247  83.0973634
  72.5546357  69.6587930  83.5341057  73.1933669  68.2594316  84.1291815
  71.5370342  63.7291608  87.3768544  72.6660342  63.6761608  86.8858544
  71.1510342  62.9481608  88.3858544  70.2004359  63.0138442  88.7207393
  72.0740342  62.0421608  89.0828544  73.1009431  62.1940288  88.7504487
  71.9960342  62.2271608  90.6238544  70.9868334  61.9772505  90.9512059
  73.0020342  61.3321608  91.3468544  74.0115702  61.5818155  91.0203421
  72.9198257  61.4874445  92.4226004  72.7932059  60.2880024  91.1139955
  72.2160342  63.7001608  91.0048544  71.3551614  64.2526262  90.6283167
  72.2267744  63.7433530  92.0939451  73.4930342  64.3201608  90.4608544
  73.4828091  64.2777497  89.3717279  73.5587865  65.3594289  90.7828756
  74.3544225  63.7684747  90.8373548  71.7950342  60.5931608  88.7068544
  72.6320342  59.9371608  88.0908544  70.6070342  60.1061608  89.0558544
  69.9563502  60.6881477  89.5637922  70.2690342  58.6931608  88.8598544
  71.1245789  58.0679498  89.1153024  69.0880342  58.2991608  89.7578544
  68.2625121  58.9771469  89.5411815  68.7617485  57.2702116  89.6065227
  69.3890342  58.4431608  91.2198544  70.0240342  57.4581608  91.9498544
  70.3143946  56.5650792  91.5781074  70.1860342  57.8711608  93.1948544
  70.6642696  57.2290187  93.9344783  69.6890342  59.0911608  93.2978544
  69.1940342  59.4771608  92.0738544  68.7509493  60.4655902  91.9522639
  70.0330342  58.3071608  87.3908544  70.0440342  57.1301608  87.0558544
  69.8350342  59.3031608  86.5318544  69.6470956  60.2214709  86.9079992
  69.8020342  59.1281608  85.0778544  68.9642483  58.4941381  84.7876319
  69.6310342  60.5011608  84.4138544  68.6600009  60.9173645  84.6821230
  70.4195123  61.1765893  84.7458163  69.6880342  60.4781608  82.9328544
  68.6470342  60.3001608  82.0778544  67.6606113  60.1649279  82.5214552
  69.0940342  60.3321608  80.7788544  68.5159119  60.2322164  79.9567320
  70.4490342  60.5311608  80.7788544  71.3480342  60.6371608  79.7128544
  70.9629991  60.5523389  78.6966596  72.6700342  60.8431608  80.0178544
  73.4006913  60.9292262  79.2135951  73.1060342  60.9461608  81.3458544
  74.1583263  61.1115062  81.5770290  72.2140342  60.8411608  82.4058544
  72.6051368  60.9137201  83.4206818  70.8570342  60.6341608  82.1238544
  71.0420342  58.4111608  84.5058544  70.9290342  57.6461608  83.5448544
  72.2080342  58.6651608  85.0938544  72.2460544  59.3604437  85.8254523
  73.4670342  58.0361608  84.6628544  73.5963508  58.1664215  83.5884203
  74.6610342  58.6781608  85.3818544  74.4985955  58.6650749  86.4596028
  75.5715212  58.1274971  85.1454586  74.9130342  60.1051608  85.0038544
  74.5350342  61.2191608  85.6968544  73.9899597  61.0546687  86.6263359
  74.9430342  62.3501608  85.0408544  74.7891233  63.2989889  85.3509126
  75.6010342  61.9841608  83.8968544  76.2000342  62.7701608  82.9058544
  76.1659086  63.8544831  83.0115863  76.7980342  62.1191608  81.8538544
  77.2688707  62.7005045  81.0611045  76.8180342  60.7181608  81.7738544
  77.2962333  60.2096846  80.9366704  76.2280342  59.9371608  82.7608544
  76.2760380  58.8532690  82.6560932  75.6030342  60.5731608  83.8438544
  73.5200342  56.5071608  84.8518544  74.3160342  55.8401608  84.1948544
  72.6850342  55.9621608  85.7388544  72.1089222  56.5682519  86.3052887
  72.6230342  54.5041608  85.9848544  73.6266000  54.1188902  86.1651914
  71.7510342  54.1971608  87.2128544  70.7778843  54.6548129  87.0349976
  71.6391577  53.1140040  87.2613842  72.3210342  54.7101608  88.5358544
  73.1028732  54.0148004  88.8413091  72.7614377  55.6876172  88.3390732
  71.2840342  54.8341608  89.6538544  70.1790342  54.2431608  89.5538544
  71.5800342  55.5341608  90.6488544  72.1160342  53.6751608  84.7948544
  72.4380342  52.4881608  84.6958544  71.3220342  54.2901608  83.9118544
  71.0571723  55.2506046  84.0776710  70.7520342  53.6021608  82.7468544
  71.3971342  52.7754428  82.4493940  69.3620342  53.0411608  83.0928544
  69.4284415  52.5053792  84.0397585  68.6706281  53.8773683  83.1968473
  68.8190342  52.0881608  82.0298544  69.3560342  51.9771608  80.9258544
  67.7440342  51.3901608  82.3678544  67.3377855  50.7428446  81.7075185
  67.3361435  51.5088531  83.2841721  70.6890342  54.5381608  81.5318544
  69.6530342  55.1471608  81.2518544  71.8070342  54.6181608  80.8138544
  72.6150370  54.1042990  81.1350663  71.9440342  55.4491608  79.6168544
  71.1189858  56.1533126  79.5093156  73.2750342  56.2461608  79.6498544
  74.1049421  55.5395320  79.6551479  73.3960342  57.1611608  78.4398544
  72.5666677  57.8684226  78.4341291  74.3381326  57.7071500  78.4893208
  73.3700895  56.5642039  77.5282235  73.3800342  57.0481608  80.9418544
  73.3507696  56.3698366  81.7945689  74.3187221  57.6021299  80.9509665
  72.5457981  57.7468270  81.0052305  71.8670342  54.5361608  78.3858544
  72.8750342  53.9731608  77.9628544  70.6550342  54.3861608  77.8428544
  69.8899881  54.8692279  78.2916862  70.3480342  53.4821608  76.7208544
  69.2692864  53.4486292  76.5682836  71.0140342  53.9591608  75.4188544
  72.0937104  53.9367958  75.5668359  70.7394148  53.2453796  74.6421945
  70.5940342  55.3421608  74.9998544  69.4120342  55.5481608  74.2918544
  68.7940779  54.6869196  74.0378995  69.0170342  56.8211608  73.9108544
  68.0921604  56.9685559  73.3531942  69.8050342  57.9051608  74.2388544
  69.4120342  59.1701608  73.8638544  68.5810470  59.1777413  73.3832273
  70.9820342  57.7241608  74.9438544  71.6039946  58.5810365  75.2027557
  71.3680342  56.4511608  75.3198544  72.2933665  56.3044654  75.8769368
  70.7090342  52.0231608  77.0268544  71.2170342  51.3021608  76.1618544
  70.4330342  51.5971608  78.2618544  69.9864216  52.2305115  78.9095452
  70.7510342  50.2441608  78.7218544  70.0021960  49.9875424  79.4711791
  70.6393311  49.5888449  77.8580356  72.1380342  50.0451608  79.3188544
  72.4460342  48.9461608  79.7858544  72.9690342  51.0891608  79.3108544
  72.6409576  51.9696428  78.9404271  74.3480342  51.0061608  79.7768544
  74.6150811  49.9642294  79.9533880  75.3050342  51.5861608  78.7328544
  75.0177829  52.6106205  78.4960670  76.3281638  51.5738517  79.1085596
  75.3150342  50.8331608  77.4368544  75.7450342  49.5111608  77.3928544
  76.0781242  49.0321167  78.3135431  75.7540342  48.8041608  76.2018544
  76.0891988  47.7671145  76.1845220  75.3360342  49.4171608  75.0308544
  75.3405117  48.8645292  74.0913449  74.9120342  50.7351608  75.0568544
  74.5858430  51.2195012  74.1364666  74.9020342  51.4411608  76.2558544
  74.5688177  52.4788104  76.2745606  74.5320342  51.7431608  81.0998544
  74.0060342  52.8411608  81.2968544  75.2910342  51.1191608  81.9938544
  75.6655976  50.2127010  81.7527480  75.5960342  51.6631608  83.3038544
  74.7189047  52.1412682  83.7399236  76.0290342  50.5081608  84.2158544
  75.2581131  49.7389706  84.1697427  76.9605494  50.1129772  83.8106267
  76.2420342  50.9241608  85.6588544  75.9440342  52.0801608  86.0348544
  76.7110342  50.0611608  86.4288544  76.7110342  52.7011608  83.1848544
  77.8140342  52.3671608  82.7658544  76.4210342  53.9531608  83.5368544
  75.4607645  54.2079335  83.7187124  77.4440342  55.0041608  83.6008544
  78.4209316  54.5772652  83.3738502  77.1490342  56.1191608  82.5888544
  76.1904663  56.5549213  82.8705627  77.9348820  56.8656173  82.7043796
  77.0920342  55.6641608  81.1398544  77.9407159  55.0096973  80.9410638
  76.1645657  55.1149133  80.9778936  77.1520342  57.0711608  80.0138544
  77.2880342  56.2271608  78.4398544  76.4184747  55.5862306  78.2943422
  77.3358727  56.9617802  77.6360220  78.1926367  55.6191325  78.4299963
  77.5480342  55.5721608  85.0178544  77.7090342  56.7831608  85.1998544
  77.4860342  54.6821608  86.0118544  77.3419055  53.7095983  85.7806652
  77.5400342  55.0611608  87.4338544  76.7687030  55.8020945  87.6440080
  77.3070342  53.8411608  88.3358544  77.9407641  53.0255001  87.9877404
  77.5839140  54.1055675  89.3564065  75.9510342  53.4311608  88.3058544
  75.8346014  52.6685861  88.8772764  78.8390342  55.7481608  87.8598544
  78.8300342  56.5211608  88.8138544  79.9470342  55.4721608  87.1738544
  79.9464374  54.7538844  86.4637995  81.2160342  56.1341608  87.4918544
  81.4067590  56.0644493  88.5627716  82.3750342  55.4761608  86.7458544
  83.3196255  55.9546983  87.0044048  82.4301330  54.4134549  86.9819059
  82.2350342  55.5831608  84.9508544  83.3652769  54.9347552  84.6843586
  81.1890342  57.6431608  87.2058544  81.9440342  58.4011608  87.8238544
  80.3330342  58.0731608  86.2738544  79.9015418  57.4077369  85.6484548
  80.0790342  59.5051608  86.0518544  81.0041205  60.0613438  86.2034294
  79.5310342  59.7921608  84.6308544  78.7202377  59.0939831  84.4228703
  79.0110342  61.2241608  84.5178544  79.8214354  61.9229680  84.7252649
  78.6331967  61.3955801  83.5099085  78.2069226  61.3771248  85.2376499
  80.6420342  59.5601608  83.5998544  81.3575133  60.3738011  83.7189338
  81.1203255  58.6156019  83.8589790  80.1710342  59.5091608  82.1618544
  79.6930148  60.4536129  81.9018401  81.0246893  59.3416858  81.5051014
  79.4558248  58.6954146  82.0418859  79.1460342  60.0641608  87.1328544
  79.3520342  61.1811608  87.5988544  78.1290342  59.2961608  87.5228544
  77.9460033  58.4281344  87.0400198  77.2260342  59.6901608  88.6168544
  76.6574653  60.5732194  88.3252451  76.2450342  58.5611608  88.9378544
  75.7786770  58.2656189  87.9980325  76.8311049  57.7296626  89.3293030
  75.1690342  58.9371608  89.9398544  75.6540498  59.3179801  90.8386521
  74.5499979  59.7202762  89.5021029  74.2980342  57.7461608  90.3008544
  73.3830332  58.1164034  90.7632314  74.0503870  57.2104409  89.3844623
  75.0060342  56.8051608  91.2618544  75.8210422  56.3155277  90.7288235
  75.4122823  57.3929669  92.0849860  74.0760342  55.7751608  91.7998544
  73.6998153  55.2300953  91.0373174  74.5762452  55.1678322  92.4331324
  73.3209843  56.2286415  92.2941761  77.9680342  60.0691608  89.9008544
  77.6340342  61.0681608  90.5398544  78.9640342  59.2621608  90.2658544
  79.1806873  58.4588310  89.6932969  79.7000342  59.4391608  91.5238544
  78.9947305  59.5833899  92.3422943  80.5660342  58.2061608  91.8328544
  81.2477293  58.0641949  90.9942623  81.1399396  58.4162515  92.7354034
  79.7390342  56.9341608  92.0388544  78.5630342  57.0311608  92.4548544
  80.2690342  55.8311608  91.7878544  80.5600342  60.7011608  91.5608544
  80.9350342  61.1461608  92.6448544  80.8740342  61.2691608  90.3948544
  80.7304367  60.7490816  89.5410413  81.5260342  62.5831608  90.3088544
  81.9798801  62.8550019  91.2618631  82.6210342  62.5991608  89.2178544
  82.1415487  62.5621427  88.2396813  83.4760342  63.8641608  89.3188544
  83.9562424  63.9016479  90.2966559  84.2387933  63.8509050  88.5403151
  82.8429784  64.7423173  89.1916417  83.5060342  61.3611608  89.3448544
  82.8970059  60.4648880  89.2270337  84.2741169  61.3821098  88.5717375
  83.9795698  61.3515693  90.3265738  80.5180342  63.7271608  90.0908544
  80.7080342  64.8191608  90.6218544  79.4590342  63.4821608  89.3248544
  79.3979168  62.6042497  88.8292374  78.4030342  64.4841608  89.1028544
  78.8941107  65.3653696  88.6900421  77.3940342  63.9681608  88.0858544
  76.8875455  63.0910332  88.4886155  76.6600890  64.7458649  87.8746651
  77.9111658  63.6976886  87.1652464  77.6760342  64.9141608  90.3888544
  77.3010342  66.0821608  90.5338544  77.4810342  63.9701608  91.3078544
  77.7338725  63.0172914  91.0882820  76.8120342  64.2351608  92.5858544
  75.9361018  64.8747888  92.4776068  76.4020342  62.9101608  93.2868544
  75.9472240  62.2593112  92.5400995  77.5980342  62.1961608  93.9258544
  78.0531156  62.8462572  94.6731002  77.2601750  61.2761218  94.4028032
  78.3326904  61.9575423  93.1568026  75.2930342  63.1501608  94.3128544
  75.7204438  63.7229328  95.1358696  74.5136838  63.7380265  93.8279561
  74.6960342  61.8651608  94.8488544  75.4747482  61.2769336  95.3343368
  73.9152023  62.1006248  95.5720124  74.2679901  61.2920260  94.0264223
  77.6480342  65.1141608  93.5268544  77.0880342  65.7941608  94.3848544
  78.9740342  65.1081608  93.3418544  79.3572590  64.4723647  92.6570176
  79.9040342  65.9631608  94.0978544  79.5300088  66.0862270  95.1142494
  81.3180342  65.3541608  94.1638544  81.7566589  65.5350978  93.1825443
  81.8504232  65.9403285  94.9129001  81.4300342  63.8721608  94.5048544
  80.9050477  63.3195720  93.7256653  82.4886481  63.6134235  94.4826316
  80.8490342  63.5101608  95.8608544  81.1787140  64.2441694  96.5961377
  79.7610256  63.5244568  95.7965710  81.3140342  62.1231608  96.2848544
  81.2147673  61.4577385  95.4272649  82.3635884  62.1924455  96.5707474
  80.5250342  61.5841608  97.4238544  79.5525282  61.5194759  97.1590005
  80.8693745  60.6664744  97.6675374  80.6172274  62.2003869  98.2187537
  80.0430342  67.3671608  93.4998544  80.8630342  68.1431608  93.9758544
  79.2900342  67.6961608  92.4498544  78.7055124  67.0038094  92.0036670
  79.3580342  69.0291608  91.8588544  80.1242943  69.6142565  92.3673893
  79.7070342  68.9541608  90.3718544  78.9758358  68.3143852  89.8777538
  79.6514055  69.9590811  89.9533563  81.1120342  68.3871608  90.1518544
  81.7496409  68.7638146  90.9516609  81.0143999  67.3055130  90.2446161
  81.7340342  68.7261608  88.8058544  81.5310342  69.8491608  88.2888544
  82.4570342  67.8601608  88.2668544  78.0440342  69.7591608  92.1028544
  76.9800342  69.2341608  91.7738544  78.1090342  70.9541608  92.7198544
  79.2530342  71.5851608  93.4008544  79.8389477  72.1570437  92.6813021
  79.8814024  70.8169933  93.8515995  78.5960342  72.4491608  94.4178544
  79.2409867  73.2956439  94.6536545  78.4077409  71.8730657  95.3238133
  77.3250342  72.8931608  93.7998544  77.5185549  73.7645261  93.1742576
  76.5482301  73.1330797  94.5258804  76.8790342  71.7131608  92.9268544
  76.1617610  71.0626215  93.4272703  76.2810342  72.2171608  91.6218544
  77.0200342  72.5421608  90.6868544  74.9520342  72.2651608  91.5788544
  74.4295513  71.9256930  92.3737585  74.2110342  72.7741608  90.4308544
  74.8481691  72.7535879  89.5466965  72.9690342  71.9211608  90.1588544
  72.5977537  71.6967935  91.1588091  72.2427469  72.5406509  89.6326998
  73.1790342  70.6151608  89.3878544  73.6855893  70.8543653  88.4528229
  74.0090342  69.6021608  90.1708544  73.5028557  69.3620969  91.1058686
  74.1281039  68.6944255  89.5792973  74.9899102  70.0252793  90.3875419
  71.8200342  70.0331608  89.0228544  71.2749218  70.7437091  88.4015068
  71.9586712  69.1022155  88.4731073  71.2523527  69.8363698  89.9323103
  73.7890342  74.2081608  90.7098544  73.2480342  74.4951608  91.7738544
  74.0450342  75.1021608  89.7608544  74.6393588  74.8539444  88.9828658
  73.5230342  76.4591608  89.8248544  73.2355568  76.7148177  90.8447051
  74.5470342  77.5031608  89.3238544  74.8240602  77.2609071  88.2978578
  73.9540342  78.9071608  89.3718544  73.6771722  79.1503225  90.3976813
  74.6915715  79.6260409  89.0149923  73.0688620  78.9501604  88.7372500
  75.8190342  77.4421608  90.1578544  76.2587480  76.4479404  90.0786105
  76.5297064  78.1833773  89.7922827  75.5807503  77.6514210  91.2007023
  72.2590342  76.4851608  88.9778544  72.3410342  76.3851608  87.7598544
  71.1000342  76.5861608  89.6248544  71.0916717  76.5377317  90.6336577
  69.8120342  76.7011608  88.9208544  69.9239775  77.3546073  88.0556518
  69.3290342  75.3201608  88.4358544  70.2077324  74.6841593  88.3286588
  68.6728953  74.9063801  89.2016006  68.5750342  75.3841608  87.0938544
  67.8270342  76.3631608  86.8398544  68.7310342  74.4391608  86.2868544
  68.7600342  77.3521608  89.8178544  69.0080342  77.5831608  91.0028544
  67.5940342  77.6571608  89.2518544  67.4470860  77.4661646  88.2710251
  66.5180342  78.3071608  90.0008544  66.9174742  79.0097838  90.7322010
  65.5250342  79.0611608  89.0808544  65.0773096  78.3499293  88.3867422
  64.4240342  79.7291608  89.9068544  64.8709834  80.4409189  90.6009277
  63.7374527  80.2531166  89.2418908  63.8781438  78.9700385  90.4670675
  66.2530342  80.0951608  88.2258544  66.9959103  79.5952972  87.6042647
  65.5347782  80.6111687  87.5887173  66.7489917  80.8184022  88.8731942
  65.7650342  77.2581608  90.8148544  65.2580342  76.2861608  90.2578544
  65.7090342  77.4631608  92.1268544  66.2471947  78.2208063  92.5223995
  64.9300342  76.6231608  93.0298544  64.7785744  75.6178949  92.6366628
  65.6180342  76.5151608  94.4118544  65.7993602  77.5221335  94.7876551
  64.7520342  75.7491608  95.4078544  64.5706514  74.7418693  95.0329343
  65.2653417  75.6920669  96.3677274  63.8006618  76.2656307  95.5353339
  66.9880342  75.8611608  94.2668544  67.6102065  76.4629347  93.6043803
  67.4628415  75.7903887  95.2454498  66.8716583  74.8620453  93.8469427
  63.5340342  77.2261608  93.1738544  63.3930342  78.4051608  93.4858544
  62.5110342  76.4111608  92.9378544  62.6990236  75.4794287  92.5963363
  61.1190342  76.8041608  93.1488544  60.9245013  77.7734043  92.6896996
  60.1930342  75.7611608  92.5048544  60.5594225  75.6154858  91.4886666
  60.2829558  74.8276060  93.0602728  58.7260342  76.1881608  92.4608544
  58.2670342  76.9931608  93.2988544  58.0050342  75.6801608  91.5768544
  60.8980342  76.8691608  94.6668544  61.1880342  75.8941608  95.3578544
  60.3970342  78.0101608  95.1968544  60.0760342  79.2861608  94.5328544
  59.5627319  79.0901307  93.5914760  60.9951576  79.8383152  94.3368016
  59.2000342  79.9731608  95.5328544  58.1643874  79.6618642  95.3963658
  59.2731013  81.0538690  95.4110665  59.7230342  79.5521608  96.8588544
  58.9602514  79.5818245  97.6369171  60.5601216  80.1880584  97.1469837
  60.2070342  78.1081608  96.6568544  61.1907166  77.9599657  97.1023940
  59.2140342  77.1151608  97.2708544  59.2940342  76.8541608  98.4708544
  58.3060342  76.5611608  96.4678544  58.1637739  76.9395945  95.5423009
  57.4380342  75.4571608  96.9118544  56.8996437  75.7525899  97.8123856
  56.4180342  75.1001608  95.8268544  56.9588447  74.9916521  94.8867219
  55.9665078  74.1458279  96.0979128  55.3320342  76.1451608  95.6668544
  54.7527406  76.1835116  96.5893775  55.8066852  77.1114103  95.4960609
  54.4120342  75.8221608  94.5058544  54.9979863  75.7871993  93.5874118
  53.9499086  74.8502064  94.6786088  53.3290342  76.8821608  94.3758544
  52.6237148  76.7511961  95.1965086  53.7999310  77.8619996  94.4550453
  52.6030342  76.7831608  93.0758544  52.1662586  75.8754490  93.0024641
  51.8951512  77.5021170  93.0299904  53.2563494  76.9049141  92.3152924
  58.1900342  74.1851608  97.3288544  57.6220342  73.3411608  98.0208544
  59.4450342  74.0481608  96.8878544  59.7872602  74.7067984  96.2028892
  60.3170342  72.9371608  97.2798544  59.7242846  72.0374444  97.4449527
  61.3400342  72.6541608  96.1688544  61.8623198  73.5890065  95.9654323
  62.0462764  71.9215790  96.5595537  60.7210342  72.1251608  94.8758544
  60.2606598  71.1600199  95.0871822  59.9565831  72.8261867  94.5407736
  61.7400342  71.9441608  93.7568544  61.3670342  72.3501608  92.5458544
  62.8480342  71.4401608  93.9758544  63.5077473  71.3298982  93.2190702
  63.0876774  71.1413321  94.9103992  61.0390342  73.1441608  98.6188544
  61.6560342  72.2081608  99.1248544  60.9720342  74.3471608  99.1898544
  60.5400682  75.1148650  98.6957543  61.5720342  74.6141608 100.5028544
  62.6111018  74.2848951 100.4981776  61.5330342  76.1121608 100.8448544
  60.4890356  76.3801600 100.6825509  61.7836300  76.2497425 101.8966971
  62.4320342  77.0111608  99.9828544  62.3439551  76.6995608  98.9420622
  62.0250342  78.4721608 100.1108544  62.1133024  78.7846364 101.1513670
  62.6771793  79.0872087  99.4907548  60.9927312  78.5924238  99.7822398
  63.9090342  76.8341608 100.3278544  64.2003029  75.7973841 100.1594618
  64.5110435  77.4873310  99.6961467  64.0715301  77.0912453 101.3745643
  60.8780342  73.8101608 101.6018544  59.6580342  73.8831608 101.7528544
  61.6690342  73.0341608 102.3398544  62.6442141  72.9709776 102.0846456
  61.1900342  72.2191608 103.4568544  60.1036124  72.1335996 103.4784412
  61.7950342  70.8011608 103.3728544  62.8812480  70.8893398 103.3943817
  61.3330342  69.9201608 104.5318544  60.2468816  69.8311293 104.5107144
  61.7800932  68.9305631 104.4373284  61.6419556  70.3691790 105.4758098
  61.4320342  70.1721608 102.0368544  61.8286606  70.7842066 101.2267992
  61.8593079  69.1711294 101.9779225  60.3475597  70.1096341 101.9468191
  61.5100342  72.8541608 104.8178544  60.7970342  72.6091608 105.7978544
  62.5740342  73.6531608 104.8828544  63.1019959  73.8332826 104.0408853
  63.0220342  74.2741608 106.1278544  62.3281954  74.0504388 106.9381848
  64.4380342  73.7801608 106.5358544  64.6811174  74.1985879 107.5125476
  64.5020342  72.2621608 106.6048544  64.2595049  71.8430000 105.6283385
  65.5068000  71.9530692 106.8929641  63.7857279  71.9009540 107.3427809
  65.4160342  74.2541608 105.5998544  66.2859807  73.9435190 105.8611878
  63.0740342  75.7951608 106.0038544  62.8600342  76.3541608 104.9318544
  63.3750342  76.4471608 107.1228544  63.2686797  75.9716111 108.0075242
  63.7640342  77.8571608 107.1358544  63.1352852  78.4197280 106.4457153
  63.5980342  78.4511608 108.5498544  63.7986530  79.5206219 108.4857906
  62.5717635  78.2937717 108.8816633  64.5420342  77.8391608 109.5788544
  65.2700342  76.8791608 109.3068544  64.5190342  78.3891608 110.7788544
  65.1204871  78.0308536 111.5068449  63.9000930  79.1656807 110.9633250
  65.2030342  78.0101608 106.6038544  65.7940342  77.0441608 106.1068544
  65.7460342  79.2211608 106.6888544  65.1909831  79.9796993 107.0584986
  67.1080342  79.5101608 106.2498544  67.5279183  78.6696387 105.6972975
  67.1140342  80.7331608 105.3508544  66.7048044  81.5854636 105.8932664
  68.1364577  80.9548020 105.0448713  66.5051549  80.5387101 104.4679307
  67.9920342  79.7511608 107.4608544  67.5300342  80.2881608 108.4678544
  69.2590342  79.3541608 107.3528544  69.5483240  78.8451330 106.5298711
  70.2460342  79.5901608 108.4038544  69.8017772  80.2029842 109.1881900
  70.7200342  78.2761608 109.0208544  69.8760489  77.6712940 109.3524026
  71.3204176  77.7043783 108.3132496  71.7640342  78.5241608 110.4798544
  71.9697435  77.2331745 110.7246734  71.4440342  80.3571608 107.8538544
  72.0450342  79.9501608 106.8538544  71.7770342  81.4601608 108.5248544
  71.1696706  81.7688644 109.2704487  72.9660342  82.2551608 108.2258544
  72.9734626  82.5451281 107.1751580  72.9590342  83.5271608 109.0858544
  72.0365648  84.0062339 108.7577717  72.8420339  83.1792539 110.1121934
  74.1120342  84.5371608 109.0168544  75.0278551  84.0259811 109.3136176
  74.2860342  85.1201608 107.6198544  73.3707161  85.6319329 107.3225652
  75.1138545  85.8292515 107.6220218  74.4981787  84.3169374 106.9142147
  73.8430342  85.6391608 110.0328544  73.7842732  85.2067363 111.0316816
  74.6518240  86.3691721 110.0005462  72.9001889  86.1314751 109.7945936
  74.2240342  81.4411608 108.5128544  74.3530342  80.8711608 109.5918544
  75.1300342  81.3731608 107.5358544  74.8943199  81.7394504 106.6246080
  76.4160342  80.6611608 107.6938544  76.5399504  80.3504898 108.7312683
  76.5130342  79.4191608 106.7668544  77.5330823  79.0355942 106.7887407
  75.5550342  78.3371608 107.2378544  74.5346644  78.7198613 107.2158001
  75.6321268  77.4714356 106.5800722  75.8103347  78.0431619 108.2559337
  76.2070342  79.7741608 105.3118544  75.1359494  79.9644257 105.2434630
  76.7534583  80.6883393 105.0799109  76.5910342  78.6931608 104.3248544
  76.0446242  77.7787444 104.5558924  76.3433212  79.0183679 103.3144199
  77.6621334  78.5026564 104.3923420  77.6660342  81.5391608 107.5228544
  78.7590342  81.1171608 107.8938544  77.5230342  82.7451608 106.9698544
  76.6271737  83.0358783 106.6051401  78.6600342  83.6641608 106.8368544
  79.2973827  83.6018575 107.7189000  79.4930342  83.2891608 105.6018544
  79.6623032  82.2138376 105.6577760  78.8756866  83.5145264 104.7322612
  80.8280342  84.0061608 105.4748544  81.2928304  83.6954964 104.5391445
  80.6361877  85.0787601 105.4460836  81.7610342  83.6891608 106.6338544
  81.3349954  84.1103736 107.5444419  81.8312832  82.6059976 106.7334642
  83.1440342  84.2661608 106.4098544  83.5715891  83.8102678 105.5168488
  83.0529069  85.3419399 106.2598737  84.0290342  84.0021608 107.5718544
  84.1139528  83.0053658 107.7107368  84.9420672  84.3966038 107.3961114
  83.6332488  84.4248827 108.3993562  78.1950342  85.1101608 106.7248544
  77.3770342  85.4151608 105.8678544  78.7020342  85.9731608 107.6098544
  79.2388658  85.5997993 108.3796027  78.5580342  87.4301608 107.5038544
  77.7566769  87.6646883 106.8031958  78.2220342  88.0541608 108.8558544
  79.0969190  87.9032476 109.4882318  78.0846445  89.1202317 108.6749761
  76.9940342  87.4971608 109.5508544  76.1395389  87.6179092 108.8850028
  77.1687303  86.4359601 109.7281496  76.7070342  88.1931608 110.8768544
  76.7870342  89.4391608 110.9368544  76.3920342  87.4931608 111.8608544
  79.8810342  88.0321608 107.0488544  80.9250342  87.7261608 107.6228544
  79.8350342  88.9021608 106.0448544  78.9532470  89.0893929 105.5893385
  81.0250342  89.5881608 105.5558544  81.9094189  89.2998129 106.1240255
  81.2800342  89.2931608 104.0638544  80.3985120  89.5866995 103.4938959
  82.4950342  90.0621608 103.5528544  83.3770972  89.7687932 104.1220655
  82.6518821  89.8355978 102.4982604  82.3252106  91.1321577 103.6727218
  81.4700342  87.8031608 103.8498544  80.5735489  87.2723303 104.1702216
  81.6493182  87.6073572 102.7926799  82.3239280  87.4578344 104.4327061
  80.8430342  91.0851608 105.7548544  79.9420342  91.6751608 105.1658544
  81.6870342  91.6751608 106.6038544  82.2594248  91.0879253 107.1934500
  81.8140342  93.1261608 106.7378544  80.9157128  93.6103473 106.3548646
  81.9950342  93.5221608 108.2108544  81.0942420  93.2228226 108.7466429
  82.8495448  92.9686741 108.6001668  82.2280342  95.0201608 108.4038544
  81.8600342  95.8191608 107.5158544  82.7850342  95.4051608 109.4528544
  83.0290342  93.5271608 105.9058544  84.1650342  93.2571608 106.2928544
  82.7850342  94.1801608 104.7718544  81.8320494  94.4206551 104.5392995
  83.8260342  94.4041608 103.7608544  84.4482870  93.5111121 103.7028478
  83.2000342  94.6901608 102.3678544  82.5564666  95.5656350 102.4542610
  84.2680342  94.9471608 101.3098544  84.9117528  94.0718872 101.2225430
  83.7897838  95.1429896 100.3501522  84.8669436  95.8105413 101.5996490
  82.3720342  93.4791608 101.9258544  83.0821979  92.6896548 101.6799913
  81.7778165  93.1770060 102.7882390  81.4590342  93.7211608 100.7448544
  82.0526216  94.0229242  99.8818986  80.9172308  92.8049609 100.5100652
  80.7482412  94.5102775 100.9901458  84.8640342  95.4621608 104.1848544
  85.9610342  95.4981608 103.6258544  84.5440342  96.2871608 105.1858544
  83.5965497  96.3106716 105.5348811  85.5200342  97.2281608 105.7548544
  86.0402969  97.7430798 104.9472131  84.8310342  98.2771608 106.6428544
  84.3245971  97.7574379 107.4561863  85.6182638  98.9106391 107.0516024
  83.8370342  99.1301608 105.8958544  84.2610342 100.0361608 104.9288544
  85.3279506 100.1293779 104.7261241  83.3530342 100.8121608 104.2288544
  83.6992597 101.5209260 103.4766034  82.0000342 100.6831608 104.4868544
  81.0980342 101.4481608 103.7858544  81.5164043 102.0315639 103.1485107
  81.5560342  99.7941608 105.4428544  80.4904990  99.6984927 105.6516190
  82.4700342  99.0211608 106.1388544  82.1235699  98.3127670 106.8913442
  86.6250342  96.5371608 106.5558544  87.7520342  97.0311608 106.5958544
  86.2980342  95.4151608 107.1978544  85.3776438  95.0233926 107.0582172
  87.2050342  94.7471608 108.1488544  88.1453189  95.2924483 108.2302511
  86.5560342  94.6741608 109.5438544  87.2395683  94.1679167 110.2254690
  86.2560342  96.0751608 110.0718544  85.5721459  96.5818908 109.3909572
  85.7979713  96.0019020 111.0582167  87.1835297  96.6432031 110.1438310
  85.3400342  93.9191608 109.4658544  84.9353868  93.8735503 110.3352107
  87.6540342  93.3281608 107.7778544  88.6710342  92.8681608 108.2928544
  86.9030342  92.6401608 106.9138544  86.0723934  93.0708301 106.5335137
  87.1850342  91.2401608 106.5638544  87.3065390  90.6047854 107.4411423
  86.0660342  90.6381608 105.6648544  85.1032884  90.8310411 106.1381586
  86.0770342  91.2521608 104.2628544  87.0393660  91.0592775 103.7887083
  85.2820605  90.8071097 103.6644842  85.9175221  92.3279750 104.3355273
  86.1740342  89.1191608 105.5888544  86.0792760  88.6971416 106.5893657
  85.3786447  88.7291617 104.9537514  87.1415021  88.8437289 105.1690402
  88.5550342  91.0601608 105.8898544  89.0180342  91.9331608 105.1548544
  89.1850342  89.9201608 106.1568544  88.7530050  89.2738666 106.8016443
  90.4800342  89.5651608 105.5848544  90.8574226  90.3853333 104.9741219
  91.4840342  89.2871608 106.7038544  91.0559652  88.5151810 107.3433099
  92.3952055  88.9097335 106.2397256  91.8120342  90.5121608 107.5398544
  92.3872626  91.2035046 106.9240160  90.8759853  90.9844715 107.8379099
  92.6110342  90.1521608 108.7748544  92.0383919  89.4420444 109.3714400
  93.5501243  89.6926961 108.4664691  92.9020342  91.3901608 109.6038544
  93.5767490  92.0332557 109.0387973  91.9635374  91.9154747 109.7809651
  93.5280342  91.0391608 110.9088544  94.3978947  90.5527638 110.7449626
  93.7079031  91.8830931 111.4337595  92.9028080  90.4436050 111.4327862
  90.3380342  88.3381608 104.6998544  89.3240342  87.6401608 104.7458544
  91.3680342  88.0811608 103.9008544  92.1482088  88.7223778 103.8844935
  91.3790342  86.9511608 102.9708544  90.5062787  86.9623316 102.3179592
  92.6580342  86.9601608 102.0898544  93.5208243  87.0999315 102.7411275
  92.8180342  85.6601608 101.3058544  91.9557815  85.5199249 100.6539687
  93.7247690  85.7081732 100.7028392  92.8879603  84.8228042 102.0001497
  92.6290342  88.1431608 101.1308544  92.5819547  89.0716983 101.6998040
  93.5311632  88.1378342 100.5191072  91.7531989  88.0677329 100.4863981
  91.2320342  85.6231608 103.7308544  90.4610342  84.7541608 103.3168544
  91.9490342  85.4871608 104.8458544  92.6343869  86.1907566 105.0811076
  91.8880342  84.2681608 105.6708544  92.0342895  83.3966364 105.0327683
  92.9730342  84.2641608 106.7668544  92.8649149  83.3155367 107.2927078
  93.9287686  84.2817593 106.2430585  92.9230342  85.4131608 107.7738544
  91.9221936  85.8437396 107.7419063  93.1000925  84.9792806 108.7579771
  93.9540342  86.5041608 107.5068544  94.1430342  86.8781608 106.3188544
  94.5650342  86.9951608 108.4878544  90.5040342  83.9551608 106.2818544
  90.2240342  82.8001608 106.5948544  89.6550342  84.9771608 106.4348544
  89.9823947  85.9133858 106.2440217  88.2700342  84.8041608 106.9088544
  88.2632106  84.1521337 107.7823035  87.6450342  86.1551608 107.2988544
  87.6084836  86.7669073 106.3974503  86.6307267  85.9656160 107.6500708
  88.4280342  86.8911608 108.3808544  88.9890342  86.2331608 109.2858544
  88.4740342  88.1401608 108.3258544  87.3590342  84.1381608 105.8728544
  86.2970342  83.6261608 106.2178544  87.7680342  84.1671608 104.6078544
  88.6178166  84.6632201 104.3800511  86.9920342  83.5851608 103.5158544
  85.9260248  83.6809942 103.7221042  87.3040342  84.3131608 102.2078544
  88.3230017  84.0017251 101.9780450  86.6288483  83.9432651 101.4362320
  87.2360342  85.8481608 102.2548544  87.9485202  86.2132989 102.9945426
  87.5740342  86.4351608 100.8928544  86.8616497  86.0708176 100.1526780
  87.5216157  87.5227798 100.9422290  88.5813829  86.1331085 100.6062998
  85.8700342  86.3281608 102.7198544  85.6696201  85.9422744 103.7193669
  85.8553993  87.4178390 102.7419538  85.1045867  85.9689059 102.0320136
  87.2280342  82.0751608 103.3758544  86.5200342  81.4121608 102.6228544
  88.2220342  81.5401608 104.0868544  88.9234912  82.1514436 104.4797804
  88.3570342  80.1001608 104.3038544  87.7607565  79.5585347 103.5695567
  89.8260342  79.6411608 104.1818544  90.4299935  80.2335871 104.8691422
  89.9820342  78.1611608 104.5148544  89.3786854  77.5680284 103.8276399
  91.0292868  77.8748401 104.4179958  89.6497884  77.9812726 105.5372797
  90.2870342  79.8691608 102.8438544  91.2004851  79.5839797 102.7671757
  87.8110342  79.8311608 105.7048544  88.3690342  80.3161608 106.6918544
  86.7130342  79.0791608 105.7918544  86.3548576  78.6090280 104.9728403
  85.9800342  78.9321608 107.0548544  86.6799479  78.8669483 107.8879015
  85.0650342  80.1481608 107.2758544  84.6212569  80.1209079 108.2710520
  85.6423296  81.0655729 107.1610280  83.9230342  80.2321608 106.2968544
  84.1150342  80.7761608 105.0328544  85.1026210  81.1476830 104.7594616
  83.0680342  80.8501608 104.1218544  83.2323825  81.2854913 103.1361680
  81.8120342  80.3691608 104.4678544  80.9897884  80.4233262 103.7543575
  81.6050342  79.8191608 105.7238544  80.6212531  79.4389518 105.9990198
  82.6550342  79.7531608 106.6328544  82.4937548  79.3236002 107.6215741
  85.1240342  77.6771608 107.1128544  84.8520342  77.0451608 106.0988544
  84.6900342  77.3551608 108.3238544  85.0980242  77.8258602 109.1188925
  83.6910342  76.3231608 108.5698544  83.2153363  76.0540721 107.6267733
  84.3240342  75.0591608 109.1798544  84.8727953  75.3433056 110.0777538
  83.2600342  74.0281608 109.5398544  82.7111258  73.7431646 108.6423153
  83.7375044  73.1469280 109.9682820  82.5697319  74.4562777 110.2666963
  85.2210342  74.4771608 108.2268544  85.6188186  73.6881747 108.6021795
  82.6320342  76.9141608 109.4958544  82.9640342  77.6121608 110.4488544
  81.3670342  76.6511608 109.1878544  81.1698505  76.0675343 108.3874807
  80.2430342  77.1781608 109.9528544  80.6037396  77.6241281 110.8797330
  79.5040342  78.2511608 109.1488544  79.4590009  77.9390906 108.1054545
  78.4922185  78.3497031 109.5420699  80.1680342  79.4961608 109.2398544
  79.6883922  80.1526764 108.7294324  79.2760342  76.0571608 110.2908544
  79.0030342  75.2091608 109.4438544  78.7390342  76.0571608 111.5248544
  79.0340342  76.9551608 112.6598544  78.8873242  77.9884696 112.3454513
  80.0699115  76.8132591 112.9679474  78.0570342  76.5301608 113.7208544
  77.2305261  77.2401927 113.7498043  78.5612615  76.5207293 114.6871707
  77.5870342  75.1601608 113.3508544  76.5525924  75.0894425 113.6870508
  78.1566076  74.3211734 113.7505869  77.6390342  75.1451608 111.8238544
  77.8507440  74.1666788 111.3927509  76.3480342  75.6921608 111.2298544
  76.2690342  76.8861608 110.9558544  75.3590342  74.8331608 111.0148544
  75.5453967  73.8406046 111.0006869  74.0140342  75.2911608 110.6678544
  73.8547800  76.2837403 111.0891894  73.8100342  75.3651608 109.1438544
  72.8304221  75.7759276 108.8994572  74.5865660  76.0040485 108.7232346
  73.9110342  74.0391608 108.4338544  72.7910342  73.2241608 108.2858544
  71.8373055  73.5529407 108.6986559  72.8780342  72.0071608 107.6228544
  71.9965041  71.3732607 107.5270631  74.0890342  71.5981608 107.0818544
  74.1620638  70.6464065 106.5556126  75.2080342  72.4051608 107.2128544
  76.1612472  72.0875284 106.7902495  75.1150342  73.6191608 107.8828544
  75.9941672  74.2559407 107.9815275  72.9310342  74.4441608 111.3348544
  73.1490342  73.2681608 111.6398544  71.7790342  75.0721608 111.5728544
  71.7139540  76.0489905 111.3245246  70.6080342  74.4281608 112.1648544
  70.7205897  73.3451726 112.1141880  70.4470342  74.8351608 113.6318544
  70.1838523  75.8910518 113.6945339  69.6625313  74.2375315 114.0960681
  71.9190342  74.6221608 114.6658544  71.3655799  75.0695011 115.7894527
  69.3840342  74.8791608 111.3728544  69.1310342  76.0811608 111.2688544
  68.6420342  73.9211608 110.8128544  68.9115593  72.9575321 110.9502420
  67.4560342  74.2041608 109.9818544  67.2798709  75.2788148 109.9351173
  67.6780342  73.6821608 108.5588544  67.7664409  72.6051918 108.7017573
  66.7807100  73.8987931 107.9792169  68.9090342  74.2001608 107.8068544
  69.7815212  74.1112330 108.4541249  69.1380342  73.3971608 106.5338544
  68.2660974  73.4859866 105.8858305  70.0164268  73.7806998 106.0147927
  69.2957665  72.3490589 106.7882229  68.7880342  75.6811608 107.4778544
  68.6859444  76.2517822 108.4009298  69.6804280  76.0096197 106.9450792
  67.9109464  75.8442818 106.8515897  66.2090342  73.5511608 110.5688544
  66.1770342  72.3291608 110.7598544  65.1890342  74.3641608 110.8518544
  65.3025641  75.3609746 110.7353531  63.9140342  73.8671608 111.3678544
  64.0899076  72.9782998 111.9737372  63.2190342  74.9181608 112.2328544
  63.9568203  75.3153444 112.9300030  62.8756340  75.7160607 111.5744230
  62.0360342  74.3581608 113.0108544  61.2838054  74.0007794 112.3076254
  62.3969223  73.5232352 113.6114884  61.3920342  75.3771608 113.9338544
  61.1890342  76.5331608 113.5618544  61.0530342  74.9441608 115.1398544
  60.6206904  75.5773377 115.7973247  61.2286210  73.9830340 115.3957957
  62.9920342  73.4611608 110.2258544  62.7330342  74.2491608 109.3208544
  62.4860342  72.2351608 110.3018544  62.7569974  71.6517438 111.0805089
  61.5800342  71.6761608 109.2988544  61.8549409  71.9448131 108.2788782
  61.5450342  70.1281608 109.4118544  61.3325082  69.8628903 110.4475008
  60.4810342  69.5241608 108.5048544  60.6931604  69.7886324 107.4689209
  60.4858736  68.4393168 108.6106399  59.5014909  69.9116443 108.7849490
  62.9180342  69.5281608 109.1058544  63.6502259  69.9147100 109.8147811
  62.8680426  68.4426823 109.1915098  63.2158259  69.7988385 108.0928616
  60.1690342  72.2471608 109.4878544  59.5950342  72.1081608 110.5668544
  59.6090342  72.8691608 108.4468544  60.1519667  73.0389248 107.6122863
  58.2520342  73.4531608 108.5318544  57.9912105  73.6178193 109.5773006
  58.1820342  74.7971608 107.7908544  57.3431926  75.3398484 108.2266688
  59.1108561  75.3188440 108.0215849  58.0060342  74.7191608 106.2818544
  58.6717562  73.9487381 105.8927993  56.9725529  74.4488848 106.0651303
  58.3320342  76.0551608 105.6188544  57.5650593  76.7754923 105.9034084
  59.3011262  76.3929161 105.9861166  58.3780342  75.9361608 104.1028544
  59.1901636  75.2602734 103.8350433  57.4308954  75.5185126 103.7613912
  58.6000342  77.2631608 103.4528544  59.4778304  77.6501397 103.7687989
  58.6249401  77.1467868 102.4498904  57.8473818  77.8894709 103.7005417
  57.1100342  72.5221608 108.0788544  55.9430342  72.8121608 108.3498544
  57.4330342  71.4191608 107.4018544  58.3979046  71.2359765 107.1661256
  56.4120342  70.4701608 106.9418544  55.6031315  70.4126207 107.6701844
  55.8300342  70.9271608 105.5978544  54.8492203  70.4620665 105.4989070
  55.7145768  72.0097525 105.6504355  56.6870342  70.5661608 104.3908544
  57.7298757  70.7491646 104.6498760  56.5459715  69.5058689 104.1811296
  56.3240342  71.3721608 103.1698544  55.2856166  71.1812241 102.8990573
  56.4552823  72.4339682 103.3782731  57.1760342  71.0081608 102.0418544
  57.6484569  70.1177808 102.1061951  57.3670342  71.7531608 100.9508544
  56.7610342  72.9361608 100.8038544  56.1459062  73.2784605 101.5281116
  56.9212419  73.4819271  99.9692454  58.1800342  71.3131608  99.9918544
  58.6442458  70.4223376 100.0969342  58.3285538  71.8723715  99.1640114
  56.9750342  69.0561608 106.8008544  58.1840342  68.8761608 106.6558544
  56.0820342  68.0661608 106.8078544  55.1171055  68.2675523 107.0279754
  56.4540342  66.6801608 106.5248544  57.2968316  66.3957831 107.1548711
  55.2900342  65.7231608 106.8028544  54.4206594  66.0537503 106.2345260
  55.5831792  64.7271758 106.4709206  54.9110342  65.6531608 108.2738544
  55.4140342  66.4081608 109.0998544  54.0080342  64.7421608 108.6018544
  53.7162375  64.6484051 109.5642287  53.6151414  64.1451626 107.8881813
  56.8710342  66.5661608 105.0548544  56.1140342  66.9501608 104.1568544
  58.0880342  66.0751608 104.8198544  58.6915437  65.8331991 105.5927258
  58.6030342  65.9171608 103.4648544  57.8730388  65.3843581 102.8554882
  58.8770342  67.2931608 102.8168544  58.3596375  68.0501023 103.4062943
  59.9514220  67.4720075 102.8593364  58.4060342  67.3681608 101.3668544
  58.3370342  66.3121608 100.6998544  58.1030342  68.4861608 100.8968544
  59.8790342  65.0841608 103.4488544  60.4090342  64.7231608 104.5008544
  60.3460342  64.7721608 102.2438544  59.7522895  64.9101518 101.4385439
  61.6770342  64.2181608 102.0338544  62.0420592  63.7752817 102.9605227
  61.6450342  63.1351608 100.9538544  61.4228523  63.6133503  99.9998789
  62.6423636  62.6969417 100.9164608  60.6320342  62.0541608 101.2208544
  60.9300342  60.9891608 102.0668544  61.9156330  60.9433950 102.5301038
  59.9960342  59.9961608 102.3238544  60.2381976  59.1642638 102.9852213
  58.7470342  60.0681608 101.7308544  57.8220342  59.0911608 101.9808544
  58.1458644  58.4116287 102.5766479  58.4250342  61.1171608 100.8898544
  57.4409269  61.1721972 100.4244468  59.3640342  62.1021608 100.6408544
  59.1188333  62.9346667  99.9813770  62.6230342  65.3451608 101.6148544
  62.2330342  66.2261608 100.8428544  63.8550342  65.3151608 102.1258544
  64.0877498  64.6046207 102.8048799  64.8690342  66.3231608 101.7988544
  64.4742732  67.0892616 101.1315071  65.4150342  67.0091608 103.0688544
  65.6394737  66.2379925 103.8057572  66.6760342  67.8161608 102.7778544
  66.4522566  68.5878792 102.0413253  67.0291874  68.2834476 103.6971075
  67.4491652  67.1547292 102.3868576  64.3400342  67.9011608 103.6768544
  63.4714943  67.2970654 103.9391697  64.7309885  68.3828776 104.5730705
  64.0473886  68.6626492 102.9539472  65.9970342  65.6821608 100.9928544
  66.6100342  64.7081608 101.4348544  66.2580342  66.2501608  99.8158544
  65.7329196  67.0730453  99.5565959  67.2320342  65.7181608  98.8598544
  67.6190605  64.7581372  99.2014164  66.5470342  65.5161608  97.5198544
  66.1568909  66.4557099  97.1285300  67.2610239  65.0965558  96.8111581
  65.3970342  64.5681608  97.5788544  64.1050342  64.9811608  97.8188544
  63.3030342  63.9331608  97.8188544  62.2315555  64.0534116  97.9787668
  64.0320342  62.8511608  97.6048544  63.6889134  61.9023190  97.5593877
  65.3460342  63.2221608  97.4518544  66.1079845  62.4651787  97.2660828
  68.4740342  66.5761608  98.6398544  69.4630342  66.0871608  98.0908544
  68.4280342  67.8451608  99.0428544  67.6029542  68.2062376  99.4999821
  69.5340342  68.7571608  98.7948544  70.4670412  68.2187455  98.9613060
  69.4960342  69.2261608  97.3548544  68.5715737  69.7749797  97.1752141
  70.3481952  69.8778222  97.1618277  69.5409526  68.3636095  96.6899583
  69.5200342  69.9581608  99.7188544  68.4640342  70.3781608 100.2028544
  70.7120342  70.4941608  99.9618544  71.5408821  69.9879730  99.6845739
  70.8770342  71.7861608 100.6048544  69.9991288  72.0009833 101.2141430
  72.1140342  71.8081608 101.5048544  72.9140239  71.4875816 100.8375129
  72.2681930  72.8512208 101.7811893  72.1230342  70.9411608 102.7638544
  72.0944324  69.8876709 102.4855706  73.3940342  71.2231608 103.5498544
  73.4231250  72.2764324 103.8289089  73.4089960  70.6087729 104.4500791
  74.2622538  70.9866856 102.9347328  70.9060342  71.1891608 103.6428544
  69.9996143  70.9609594 103.0821169  70.9577401  70.5503391 104.5245202
  70.8877022  72.2340931 103.9524984  71.0380342  72.8251608  99.5078544
  71.6360342  72.5461608  98.4678544  70.5130342  74.0201608  99.7568544
  70.0233746  74.1582058 100.6293659  70.5840342  75.1321608  98.8228544
  71.1749429  74.8722787  97.9445678  69.1810342  75.5611608  98.3618544
  68.5819076  75.7963619  99.2415287  69.2500342  76.7831608  97.4528544
  69.8486575  76.5485686  96.5726739  68.2433145  77.0633155  97.1428074
  69.7075352  77.6125168  97.9922643  68.5060342  74.4011608  97.6398544
  68.4213750  73.5510610  98.3168073  67.5116046  74.7051845  97.3130839
  69.1016562  74.1163825  96.7725386  71.2910342  76.2901608  99.5138544
  70.9830342  76.6021608 100.6628544  72.2450342  76.9041608  98.8108544
  72.5068139  76.5232984  97.9127928  72.9550342  78.0851608  99.2958544
  72.6776784  78.2932663 100.3292300  74.4570342  77.8671608  99.2308544
  74.7513482  77.6666328  98.2006759  74.9700957  78.7603001  99.5874638
  74.7289015  77.0179082  99.8577176  72.5660342  79.2981608  98.4628544
  72.4070342  79.2001608  97.2458544  72.4060342  80.4341608  99.1308544
  72.4092573  80.4116199 100.1405974  72.1590342  81.7171608  98.4648544
  72.7027598  81.7518157  97.5207883  70.6620342  81.8991608  98.1758544
  70.5548678  82.7876746  97.5536343  70.3598597  81.0195648  97.6074342
  69.7850342  82.0331608  99.4008544  69.5750342  83.2711608  99.9968544
  70.0572838  84.1481212  99.5650265  68.7700342  83.4041608 101.1198544
  68.6201819  84.3803844 101.5809764  68.1520342  82.2861608 101.6508544
  67.3540342  82.4191608 102.7588544  67.2990505  83.3239064 103.0751007
  68.3390342  81.0451608 101.0748544  67.8566299  80.1634554 101.4967336
  69.1470342  80.9241608  99.9518544  69.2907481  79.9490987  99.4863435
  72.6990342  82.8561608  99.3328544  73.0230342  82.6431608 100.5018544
  72.7850342  84.0581608  98.7708544  72.5130531  84.1882155  97.8068983
  73.3380342  85.2021608  99.4958544  73.3444266  84.9896457 100.5649174
  74.7790342  85.4921608  99.0438544  75.2020194  86.3025725  99.6375004
  75.3925477  84.5987562  99.1601709  74.8940342  85.9081608  97.6048544
  74.8070342  87.2461608  97.2488544  74.6572428  87.9946931  98.0269044
  74.9080342  87.6351608  95.9248544  74.8292071  88.6889760  95.6577208
  75.1090342  86.6861608  94.9408544  75.1974461  86.9912477  93.8981631
  75.1980342  85.3481608  95.2798544  75.3521706  84.5971631  94.5050353
  75.0910342  84.9631608  96.6058544  75.1613050  83.9091795  96.8747138
  72.4960342  86.4531608  99.3458544  71.7570342  86.6071608  98.3708544
  72.6170342  87.3351608 100.3338544  73.1195355  87.0574952 101.1648139
  72.0400342  88.6731608 100.2898544  71.4435619  88.7819643  99.3840499
  71.1390342  88.9271608 101.5028544  71.7405504  88.8351785 102.4071867
  70.7431394  89.9402433 101.4319237  69.9720342  87.9541608 101.5938544
  69.7980342  87.0741608 100.7418544  69.1620342  88.1071608 102.6358544
  68.3697750  87.4912915 102.7504411  69.3422757  88.8386332 103.3085816
  73.1720342  89.6971608 100.2588544  74.2760342  89.4341608 100.7448544
  72.8790342  90.8601608  99.6808544  71.9592830  90.9671081  99.2774697
  73.8160342  91.9791608  99.5778544  74.7242938  91.8113787 100.1566573
  74.1850342  92.2051608  98.0958544  73.2653155  92.1663297  97.5121508
  74.8770342  93.5371608  97.8618544  75.7971394  93.5765525  98.4449114
  75.1135792  93.6432546  96.8031329  74.2176036  94.3487487  98.1693856
  75.0660342  91.0581608  97.5898544  74.5439126  90.1329650  97.8337859
  75.1266061  91.1658904  96.5068840  76.4640342  91.0171608  98.1718544
  76.4042770  90.9089694  99.2548242  77.0081995  90.1710763  97.7521827
  76.9869699  91.9418964  97.9279240  73.1380342  93.2121608 100.1718544
  71.9410342  93.4141608  99.9508544  73.9040342  94.0221608 100.9068544
  74.8731782  93.7756310 101.0485669  73.3890342  95.2301608 101.5658544
  72.4466818  95.5293012 101.1069579  73.1450342  94.9621608 103.0568544
  74.0816204  94.5828451 103.4655415  72.9121055  95.9233351 103.5150990
  72.0240342  93.9731608 103.3538544  71.1030177  94.3625348 102.9200142
  72.2855057  93.0336054 102.8670613  71.8210342  93.7331608 104.8438544
  71.2270342  94.6041608 105.5128544  72.2430342  92.6701608 105.3488544
  74.3510342  96.4151608 101.3948544  75.5690342  96.2621608 101.5418544
  73.7890342  97.5851608 101.0818544  72.7932621  97.6028072 100.9138490
  74.5310342  98.8391608 100.9788544  75.6018086  98.6377146 100.9478558
  74.1350342  99.5801608  99.6978544  73.0662982  99.7937751  99.6813775
  74.6927479 100.5154377  99.6497640  74.4440342  98.8281608  98.4288544
  73.6330342  97.7731608  98.0068544  72.7710621  97.4900233  98.6109547
  73.9130342  97.0881608  96.8348544  73.2770428  96.2591386  96.5244709
  75.0030342  97.4571608  96.0558544  75.2231302  96.9218827  95.1322013
  75.8120342  98.5101608  96.4568544  76.6696268  98.8031191  95.8512055
  75.5270342  99.1921608  97.6338544  76.1557921 100.0257912  97.9466223
  74.1470342  99.6571608 102.2128544  73.2170342 100.4591608 102.1698544
  74.8600342  99.4331608 103.3158544  75.6651946  98.8254969 103.2652497
  74.4720342  99.9731608 104.6348544  73.4004151  99.8510342 104.7923877
  75.2240342  99.2731608 105.7898544  74.9102503  99.7222543 106.7321680
  74.9260342  97.7761608 105.8158544  75.2399932  97.3262614 104.8739839
  75.4690224  97.3113199 106.6387675  73.8560086  97.6205109 105.9534005
  76.6340342  99.4801608 105.6468544  77.0961148  99.0436525 106.3662587
  74.6580342 101.4921608 104.7948544  74.0740342 102.0861608 105.7048544
  75.4660342 102.1091608 103.9298544  75.9957589 101.5644181 103.2644624
  75.6410342 103.5711608 103.9318544  75.8558338 103.9068601 104.9463820
  76.8010342 104.0021608 103.0148544  76.4923651 103.7319966 102.0049861
  76.8542108 105.0875409 103.0998386  78.1750342 103.4011608 103.3048544
  78.1296305 102.3382859 103.0675017  78.8962063 103.8888856 102.6490057
  78.6060342 103.5791608 104.7538544  79.6948768 103.5631909 104.8014553
  78.2412130 104.5411977 105.1137013  78.0840342 102.5261608 105.6218544
  77.6482305 101.7393608 105.1623761  78.1470342 102.5301608 106.9528544
  78.7130342 103.5391608 107.6138544  79.1032077 104.3179929 107.1026938
  78.7493034 103.5205379 108.6230310  77.6300342 101.5101608 107.6308544
  77.1963997 100.7453271 107.1337723  77.6732649 101.5047626 108.6399137
  74.3770342 104.3061608 103.4798544  74.1590342 105.4471608 103.8738544
  73.5590342 103.6551608 102.6508544  73.8020909 102.7201499 102.3562743
  72.3620342 104.2751608 102.0768544  72.6309858 105.2016488 101.5695240
  71.7100342 103.3311608 101.0598544  71.4333887 102.3901255 101.5352691
  70.8233509 103.7923022 100.6248357  72.7830342 102.8941608  99.6678544
  71.9011085 102.1112149  99.0529553  71.3280342 104.7131608 103.1238544
  71.1910342 104.0981608 104.1798544  70.6100342 105.7851608 102.7968544
  70.7897294 106.2200335 101.9031572  69.6250342 106.4051608 103.6848544
  70.0656870 106.6034901 104.6618855  69.1620342 107.7351608 103.0768544
  70.0164201 108.4093627 103.0170568  68.7481304 107.5846774 102.0797895
  68.1120342 108.4441608 103.8738544  68.2200342 108.6611608 105.2328544
  67.1550342 109.3201608 105.6568544  67.0488523 109.5845899 106.7089483
  66.3640342 109.5441608 104.6228544  65.4782140 110.0288131 104.6459736
  66.9410342 109.0081608 103.4948544  66.4374598 109.0936728 102.5319413
  68.4380342 105.4701608 103.9388544  68.0650342 105.2331608 105.0908544
  67.8500342 104.9641608 102.8568544  68.0772759 105.3487330 101.9510041
  66.8780342 103.8681608 102.9228544  66.3012052 103.9556551 103.8435673
  65.9070342 103.8961608 101.7298544  66.5039523 104.1643925 100.8581665
  65.5358308 102.8776667 101.6159342  64.7300342 104.8541608 101.8528544
  64.2850578 104.7443050 102.8418077  65.0894831 105.8756068 101.7281682
  63.6790342 104.5501608 100.7848544  64.1289702 104.7379849  99.8099807
  63.4155198 103.4955892 100.8657150  62.4220342 105.4011608 100.9368544
  61.6353073 104.9537990 100.3293770  62.1256521 105.3822538 101.9856153
  62.6390342 106.8111608 100.5078544  62.9132587 106.8289309  99.5359568
  61.7832581 107.3344435 100.6258473  63.3677009 107.2260126 101.0709192
  67.6230342 102.5361608 102.9138544  68.7860342 102.4611608 102.4988544
  66.9340342 101.4891608 103.3638544  66.0426455 101.6436752 103.8129098
  67.4290342 100.1151608 103.2578544  68.4034928 100.0317454 103.7390733
  66.4580342  99.1511608 103.9478544  66.3920498  99.4784221 104.9854696
  65.4932022  99.2924827 103.4607945  66.8390342  97.6701608 103.9038544
  67.1978879  97.4314131 102.9026929  67.6354220  97.4927545 104.6266238
  65.6430342  96.7861608 104.2388544  65.9230121  95.7391606 104.1226565
  65.3361800  96.9675003 105.2689301  64.5050342  97.0711608 103.3508544
  64.7477332  97.3841411 102.4217474  63.2080342  96.9541608 103.6678544
  62.2860342  97.2651608 102.7578544  62.5712960  97.5842951 101.8430435
  61.3060227  97.1803748 102.9869576  62.8080342  96.5361608 104.8728544
  63.4940959  96.2980871 105.5748091  61.8215639  96.4603046 105.0758834
  67.5730342  99.7701608 101.7728544  66.6130342  99.8811608 101.0118544
  68.7800342  99.3711608 101.3798544  69.4949207  99.2299042 102.0791993
  69.1270342  99.1461608  99.9808544  68.2240249  99.0354672  99.3805043
  69.9480342 100.3301608  99.4238544  70.8792790 100.3995631  99.9860526
  70.2600342 100.1461608  97.9488544  69.3292114 100.0771382  97.3859118
  70.8385715 100.9975573  97.5903607  70.8365474  99.2315473  97.8102351
  69.2100342 101.5471608  99.5978544  69.7202103 102.2830318  99.2517120
  69.9350342  97.8611608  99.8678544  70.9320342  97.6861608 100.5648544
  69.5040342  96.9701608  98.9838544  68.7164530  97.1905821  98.3912082
  70.1360342  95.6661608  98.8358544  71.0761940  95.7959061  98.2997901
  70.3370728  95.2641365  99.8288596  69.2680342  94.6901608  98.0768544
  68.1990342  95.0501608  97.5858544  69.7390342  93.4551608  97.9608544
  70.6961739  93.2501074  98.2097240  68.9390342  92.3941608  97.3478544
  67.8984369  92.5093270  97.6511582  69.0120342  92.4421608  95.8018544
  68.2842472  91.7726098  95.3434585  68.8054618  93.4674606  95.4949535
  70.3580342  92.0801608  95.2208544  70.7280342  90.7471608  95.0438544
  70.0349898  89.9606169  95.3424143  71.9620342  90.4151608  94.4948544
  72.2435449  89.3686992  94.3775060  72.8340342  91.4161608  94.0968544
  73.8032986  91.1627171  93.6674446  72.4690342  92.7431608  94.2468544
  73.1509123  93.5325351  93.9305782  71.2350342  93.0701608  94.7998544
  70.9457747  94.1155713  94.9073049  69.2960342  91.0121608  97.8758544
  70.3870342  90.7911608  98.3958544  68.3450342  90.0961608  97.7268544
  67.4579722  90.3875314  97.3417266  68.5090342  88.6981608  98.1028544
  69.4659142  88.5517296  98.6038912  67.3870342  88.2901608  99.0618544
  67.4731537  88.8902529  99.9677088  66.4309307  88.4952768  98.5803013
  67.4610342  86.9181608  99.3968544  66.7456529  86.6963745  99.9973876
  68.4670342  87.8361608  96.8488544  67.7510342  88.1571608  95.8988544
  69.2340342  86.7481608  96.8538544  69.9073846  86.6293035  97.5972060
  69.1770342  85.7321608  95.7988544  68.6219501  86.1102547  94.9403524
  70.5960342  85.3331608  95.3328544  70.5087977  84.5689316  94.5605567
  71.3420342  86.5301608  94.7768544  71.4300769  87.2946791  95.5487740
  72.3371932  86.2219072  94.4563276  70.7959418  86.9357232  93.9251486
  71.3340342  84.7861608  96.4308544  72.2135795  84.5407215  96.1346112
  68.4260342  84.4751608  96.2628544  68.6400342  83.3991608  95.7168544
  67.5250342  84.6101608  97.2368544  67.3450708  85.5157571  97.6462537
  66.8070342  83.4501608  97.7728544  67.5141537  82.6407215  97.9542085
  66.0990342  83.7881608  99.0928544  65.9885940  82.8714587  99.6721293
  66.7165486  84.4952121  99.6467989  64.8240342  84.3561608  98.8618544
  64.4060041  84.5566858  99.7024734  65.7770342  82.9251608  96.7668544
  65.3320342  83.6741608  95.8878544  65.3820342  81.6441608  96.8998544
  66.0050342  80.6021608  97.7398544  65.7421434  80.7737105  98.7836740
  67.0882597  80.6457842  97.6266349  65.4260342  79.3311608  97.2028544
  65.3611362  78.5859299  97.9956459  66.0501292  78.9484101  96.3953219
  64.0820342  79.7061608  96.7008544  63.3592819  79.7581719  97.5151166
  63.7190506  79.0186147  95.9369022  64.2860342  81.0971608  96.0968544
  64.6360102  81.0552247  95.0654202  62.9830342  81.9131608  96.1628544
  62.2630342  82.0011608  95.1628544  62.6980342  82.5031608  97.3238544
  63.2811307  82.3129784  98.1263060  61.5020342  83.3411608  97.5128544
  60.6649194  82.9296742  96.9489247  61.1210342  83.3831608  98.9908544
  62.0090633  83.6483819  99.5645803  60.3595408  84.1514144  99.1250710
  60.5850342  82.0501608  99.4768544  59.6382672  81.8774898  98.9650754
  61.2955893  81.2722084  99.1975682  60.3630342  82.0161608 100.9708544
  61.3530342  81.8111608 101.7118544  59.1940342  82.1811608 101.3998544
  61.6140342  84.7651608  96.9598544  60.6040342  85.4481608  96.8268544
  62.8320342  85.2101608  96.6538544  63.6293224  84.6217172  96.8492131
  63.0700342  86.5261608  96.0568544  62.3371525  87.2443609  96.4245120
  64.4630342  87.0161608  96.4328544  65.2046665  86.4066106  95.9165896
  64.5687629  88.0558793  96.1231661  64.6620342  86.9181608  97.8278544
  65.5427909  87.2301628  98.0481320  62.9540342  86.4621608  94.5318544
  63.0570342  85.3751608  93.9598544  62.7540342  87.6221608  93.8618544
  62.4430342  88.9451608  94.4438544  63.3499430  89.3709773  94.8731526
  61.6927073  88.8264259  95.2255260  61.9320342  89.7361608  93.2758544
  62.1775208  90.7899827  93.4073637  60.8508183  89.6225573  93.1973196
  62.6140342  89.1641608  92.0838544  63.6099982  89.5903328  91.9633049
  62.0406740  89.3175378  91.1696153  62.7220342  87.6631608  92.3888544
  61.8427342  87.1005296  92.0752052  63.9670342  87.0851608  91.7078544
  65.0190342  86.9481608  92.3368544  63.8430342  86.7771608  90.4188544
  62.9500587  86.8906243  89.9607933  64.9480342  86.2091608  89.6508544
  65.2373374  85.2529465  90.0868098  64.5510342  85.9801608  88.1848544
  63.7036368  85.2948466  88.2038635  64.2400111  86.9297233  87.7493137
  65.6710342  85.3791608  87.3448544  65.9280342  84.0081608  87.3708544
  65.3065630  83.3680316  87.9970394  66.9560342  83.4551608  86.6158544
  67.1342135  82.3799822  86.6344297  67.7520342  84.2771608  85.8298544
  68.7700342  83.7221608  85.0908544  68.8341627  82.7701260  85.1962913
  67.5300342  85.6451608  85.7948544  68.1564781  86.2919505  85.1805811
  66.4980342  86.1911608  86.5518544  66.3203483  87.2664612  86.5358268
  66.2200342  87.0621608  89.6918544  66.1750342  88.2931608  89.7268544
  67.3450342  86.3601608  89.6558544  67.2646484  85.3533970  89.6638678
  68.6710342  86.9431608  89.6488544  68.6821538  87.8988532  89.1248052
  69.1200342  87.1771608  91.1178544  68.5219933  86.5301949  91.7596351
  70.5430342  86.8871608  91.3218544  71.1417682  87.5341087  90.6807027
  70.8051141  87.0666693  92.3645384  70.7413877  85.8448510  91.0721610
  68.8860342  88.5341608  91.5078544  69.1691421  88.6592881  92.4165862
  69.5650342  85.9411608  88.8868544  69.3750342  84.7231608  89.0168544
  70.5390342  86.4301608  88.1198544  70.6706954  87.4277836  88.0331751
  71.3580342  85.5421608  87.2778544  70.7111747  84.8381849  86.7543184
  72.1500342  86.3431608  86.2408544  72.4219568  85.6944782  85.4081671
  71.5538019  87.1773989  85.8711873  73.4220342  86.9251608  86.7618544
  73.4510342  88.0161608  87.6008544  72.6339645  88.5111537  87.9286939
  74.7050342  88.3031608  87.9008544  74.9424163  89.1387054  88.5593481
  75.4870342  87.4381608  87.2838544  76.4959571  87.4162108  87.3249979
  74.7090342  86.5621608  86.5688544  75.1762913  85.7636148  85.9925763
  72.2910342  84.6031608  88.0678544  72.7660342  83.6091608  87.5198544
  72.5750342  84.9461608  89.3238544  72.3744464  85.8906484  89.6201769
  73.2100342  84.0311608  90.2888544  74.1347002  83.6379228  89.8664139
  73.5400342  84.7601608  91.5968544  72.7057887  85.3781308  91.9288887
  73.7879569  84.0372953  92.3740931  74.7020342  85.6551608  91.4678544
  76.0030342  85.2751608  91.3658544  76.2063613  84.2044753  91.3856165
  76.8060342  86.3731608  91.2558544  77.8119134  86.3606144  91.1655809
  76.0250342  87.4951608  91.2808544  76.3810342  88.8331608  91.1968544
  77.4369892  89.0811583  91.0893605  75.3730342  89.7681608  91.2548544
  75.6163213  90.8291261  91.1977228  74.0290342  89.3841608  91.3868544
  73.2294967  90.1235930  91.4324528  73.6830342  88.0501608  91.4628544
  72.6274974  87.8035914  91.5775116  74.6910342  87.0801608  91.4078544
  72.3740342  82.8061608  90.6338544  72.9350342  81.7631608  90.9618544
  71.0480342  82.9531608  90.5998544  70.6765890  83.8786833  90.4400551
  70.1070342  81.8681608  90.8988544  69.0888711  82.2573160  90.8999652
  70.2050342  80.7501608  89.8458544  71.1388832  80.2157556  90.0203148
  69.3649359  80.0742464  90.0054617  70.1760342  81.2631608  88.4218544
  69.2200716  81.7645212  88.2706129  70.9854422  81.9852162  88.3141662
  70.3390342  80.1631608  87.3888544  71.2815812  79.6416536  87.5553911
  69.5134885  79.4564818  87.4735802  70.3390342  80.7781608  85.9968544
  69.3408103  81.1676726  85.7970292  71.0571001  81.5981534  85.9872202
  70.7020342  79.7921608  84.9528544  70.0365328  79.0324662  84.9613269
  70.6899303  80.2402883  84.0477935  71.6271503  79.4314240  85.1375928
  70.3460342  81.3771608  92.3328544  70.4880342  82.2041608  93.2378544
  70.3610342  80.0581608  92.5448544  70.0233303  79.4447442  91.8169976
  70.8140342  79.4611608  93.7988544  71.3455383  80.2079040  94.3887503
  69.6290342  78.9461608  94.6158544  69.0865756  78.2507517  93.9753514
  70.0465387  78.4063413  95.4657867  68.6730342  80.0261608  95.1188544
  68.1624781  79.6489021  96.0049182  69.2736621  80.8948641  95.3884888
  67.6250342  80.4561608  94.0988544  67.0770342  79.6321608  93.3718544
  67.3360342  81.7531608  94.0538544  66.6484877  82.0916849  93.3959922
  67.8053698  82.3939352  94.6777403  71.7750342  78.3221608  93.4858544
  71.8740342  77.8911608  92.3368544  72.4870342  77.8541608  94.5088544
  72.3974625  78.3029689  95.4092141  73.4270342  76.7461608  94.3788544
  73.4978134  76.4511902  93.3319151  74.8260342  77.1461608  94.8718544
  74.7670699  77.3876340  95.9331339  75.8230342  76.0141608  94.6638544
  75.8828906  75.7724260  93.6026847  76.8050412  76.3239275  95.0213542
  75.4958582  75.1346652  95.2184208  75.2700342  78.2951608  94.1388544
  76.1442989  78.5502226  94.4425073  72.9030342  75.5541608  95.1698544
  72.6310342  75.6771608  96.3558544  72.7910342  74.4101608  94.4968544
  73.1898103  74.3791211  93.5694313  72.1420342  73.2061608  95.0128544
  71.6430115  73.3723532  95.9675562  71.0990342  72.6771608  93.9938544
  71.6084500  72.4737138  93.0519393  70.4250342  71.3991608  94.4948544
  69.9149838  71.6019463  95.4365696  69.7004147  71.0563900  93.7562508
  71.1786121  70.6269223  94.6493530  70.0650342  73.7521608  93.6918544
  70.5615402  74.6267175  93.2714566  69.3390798  73.3677133  92.9754118
  69.5528375  74.0331084  94.6120847  73.1960342  72.1271608  95.2438544
  73.9020342  71.7551608  94.3128544  73.2900342  71.6311608  96.4798544
  72.6978272  72.0181847  97.2006891  74.2040342  70.5471608  96.8408544
  74.9110542  70.3766629  96.0289724  74.9870342  70.9001608  98.1038544
  74.3161767  71.0807955  98.9437475  75.6530221  70.0711540  98.3432452
  75.8500342  72.1201608  97.9738544  75.3030342  73.3951608  98.1078544
  74.2343343  73.4984411  98.2957732  76.1010342  74.5241608  98.0048544
  75.6604143  75.5160651  98.1052571  77.4610342  74.3901608  97.7738544
  78.0909989  75.2756098  97.6888575  78.0200342  73.1271608  97.6508544
  79.0905299  73.0188435  97.4764795  77.2160342  72.0011608  97.7498544
  77.6544964  71.0080731  97.6517334  73.3950342  69.2801608  97.1028544
  72.6770342  69.1971608  98.1028544  73.5120342  68.2951608  96.2118544
  74.0465537  68.4373645  95.3667708  72.8180342  67.0171608  96.3878544
  71.8242817  67.2029914  96.7953124  72.6700342  66.2601608  95.0578544
  73.6322722  66.3052885  94.5477948  72.4322406  65.2226849  95.2927969
  71.5980342  66.8311608  94.1608544  70.2650342  66.8551608  94.5708544
  70.0108124  66.4471135  95.5491019  69.2740342  67.3831608  93.7628544
  68.2368803  67.4005938  94.0976822  69.6090342  67.8921608  92.5178544
  68.6280342  68.4121608  91.7168544  67.7563261  68.3715265  92.1169462
  70.9230342  67.8781608  92.0828544  71.1870671  68.2812398  91.1051456
  71.9080342  67.3451608  92.9028544  72.9445596  67.3236377  92.5663250
  73.5190342  66.1291608  97.4088544  74.7470342  66.0771608  97.4718544
  72.7140342  65.4331608  98.2008544  71.7190263  65.5957283  98.1406015
  73.1930342  64.4241608  99.1338544  74.2076037  64.6595827  99.4552958
  72.2880342  64.3901608 100.3618544  71.3076675  64.0636973 100.0148647
  72.7043949  63.6384557 101.0324387  72.1490342  65.7091608 101.1038544
  72.8960565  65.7253898 101.8974508  72.3537859  66.5126764 100.3963649
  70.5090342  65.9561608 101.8258544  70.3480342  64.5011608 102.8508544
  71.1473990  64.4877614 103.5917561  69.3834202  64.5183671 103.3581259
  70.4149434  63.6086244 102.2287586  73.1300342  63.0741608  98.4298544
  72.3060342  62.8871608  97.5328544  73.9890342  62.1401608  98.8368544
  74.7180450  62.3850824  99.4915727  73.9570342  60.7681608  98.3108544
  74.0413556  60.7897084  97.2243348  75.1200342  59.9411608  98.8768544
  76.0385732  60.3780798  98.4850801  75.0948053  60.0603256  99.9600272
  75.0740342  58.4531608  98.5268544  74.3888876  57.9738910  99.2261222
  74.6843893  58.3567498  97.5134537  76.4360342  57.7821608  98.6118544
  77.2060342  57.8821608  97.6288544  76.7360342  57.1501608  99.6538544
  72.6160342  60.0981608  98.6228544  71.9420342  59.5921608  97.7278544
  72.2500342  60.1121608  99.9008544  72.9087688  60.4610962 100.5823324
  70.9700342  59.5951608 100.3768544  70.5179231  58.9504767  99.6231454
  71.1950342  58.7731608 101.6548544  71.6695995  59.4260892 102.3873648
  70.2234574  58.4521972 102.0305149  72.0760342  57.5521608 101.4168544
  71.7890342  56.7881608 100.4688544  73.0500342  57.3481608 102.1788544
  70.0240342  60.7821608 100.6048544  70.3340342  61.8971608 100.1908544
  68.8720342  60.5411608 101.2278544  68.6525274  59.5935762 101.4998829
  67.8860342  61.5891608 101.5038544  68.3370772  62.5695822 101.3507748
  66.6810342  61.4531608 100.5678544  65.9991361  62.2717720 100.7980499
  67.0567127  61.5688867  99.5512064  65.9440342  60.1331608 100.6868544
  66.3400342  59.0211608  99.9448544  67.1898747  59.1181375  99.2692316
  65.6740342  57.8061608 100.0538544  65.9981495  56.9444829  99.4702773
  64.5920342  57.6951608 100.9088544  63.9260342  56.4971608 101.0138544
  64.2956684  55.8120115 100.4521243  64.1780342  58.7831608 101.6598544
  63.3283819  58.6937361 102.3367551  64.8520342  59.9931608 101.5468544
  64.5308159  60.8529200 102.1348450  67.4350342  61.5071608 102.9528544
  67.6030342  60.4721608 103.5998544  66.8730342  62.6041608 103.4518544
  66.8645243  63.4492506 102.8988173  66.2620342  62.6381608 104.7768544
  66.6253475  61.7964522 105.3664554  66.6080342  63.9331608 105.5098544
  66.0673524  64.6812764 104.9301257  66.1777266  63.8679568 106.5091961
  68.0750342  64.3341608 105.6138544  68.5069627  64.3670970 104.6136275
  68.2040342  65.7021608 106.2668544  67.7727093  65.6698859 107.2673623
  69.2571048  65.9752606 106.3343796  67.6748439  66.4428669 105.6673443
  68.8770342  63.2921608 106.3778544  68.8144506  62.3343137 105.8614131
  69.9193452  63.6057646 106.4356618  68.4729610  63.1884834 107.3848672
  64.7520342  62.5471608 104.6468544  64.1860342  63.0201608 103.6658544
  64.1160342  61.9421608 105.6458544  64.6651606  61.4399101 106.3287189
  62.6650342  61.9651608 105.8058544  62.2048717  62.4480180 104.9437648
  62.0890342  60.5421608 105.9388544  62.4201316  60.1174661 106.8865407
  60.5610342  60.5641608 105.8968544  60.2291644  60.9883278 104.9492024
  60.1797378  59.5475323 105.9926601  60.1831749  61.1723331 106.7187116
  62.5810342  59.7301608 104.8688544  62.2233113  58.8429876 104.9498379
  62.3910342  62.7661608 107.0748544  62.7870342  62.3571608 108.1588544
  61.7220342  63.9061608 106.9358544  61.3520379  64.1652496 106.0324857
  61.5690342  64.8501608 108.0458544  61.9651967  64.4411387 108.9752926
  62.2690342  66.2001608 107.7618544  62.0613003  66.8879492 108.5815452
  63.7720342  66.0011608 107.6358544  63.9805886  65.3138013 106.8160111
  64.2505245  66.9599354 107.4361077  64.1633807  65.5869623 108.5650418
  61.7250342  66.8791608 106.5098544  60.6591164  67.0704520 106.6336642
  62.2470480  67.8228820 106.3517674  61.8794601  66.2302741 105.6477641
  60.1070342  65.0901608 108.3818544  59.2370342  64.9351608 107.5258544
  59.8600342  65.4561608 109.6388544  60.6229831  65.4380977 110.3004299
  58.5380342  65.8541608 110.1168544  57.8261169  65.8214729 109.2921094
  58.0510342  64.9151608 111.2198544  58.8094283  64.9120680 112.0027516
  57.1237567  65.3303945 111.6146168  57.8070342  63.4921608 110.7458544
  57.2542526  63.5400386 109.8076428  58.7761395  63.0243064 110.5725069
  57.0200342  62.6691608 111.7568544  57.1792359  61.6142123 111.5336112
  57.4070616  62.8920260 112.7511583  55.5330342  62.9771608 111.7118544
  55.3843378  64.0186269 111.9970531  55.1766881  62.8255768 110.6929634
  54.7730342  62.0961608 112.6388544  55.1027847  62.2367828 113.5830947
  53.7900233  62.3225098 112.5883013  54.9103415  61.1310907 112.3744956
  58.5900342  67.2791608 110.6428544  59.6440342  67.7471608 111.0868544
  57.4430342  67.9551608 110.5958544  56.6306378  67.4932269 110.2128029
  57.3030342  69.3391608 111.0548544  57.8582493  70.0216419 110.4113834
  55.8210342  69.7661608 111.0638544  55.3191526  69.2601977 111.8886067
  55.6790342  71.2811608 111.2328544  56.1803060  71.7878312 110.4081658
  54.6226030  71.5495763 111.2351692  56.1329546  71.5862208 112.1757198
  55.1960342  69.3531608 109.8428544  54.2737175  69.6194089 109.8495004
  57.8650342  69.5241608 112.4638544  57.5870342  68.7211608 113.3508544
  58.6760342  70.5641608 112.6468544  58.8902559  71.1625716 111.8619258
  59.2760342  70.8811608 113.9468544  59.3710099  71.9662898 113.9865250
  58.5644678  70.5513250 114.7038094  60.6330342  70.2541608 114.2358544
  61.3090342  70.6661608 115.1738544  61.0430342  69.2681608 113.4408544
  60.4275652  68.9163192 112.7214764  62.3370342  68.6161608 113.6248544
  62.5444553  68.5013059 114.6887548  62.3370342  67.2321608 112.9748544
  62.1223475  67.3592120 111.9137857  63.3324018  66.8044707 113.0949568
  61.3070342  66.2991608 113.5918544  61.4730243  66.2787990 114.6689493
  60.3284264  66.7317001 113.3836823  61.3610342  64.8861608 113.0458544
  61.0440342  63.9511608 113.8088544  61.7000342  64.6941608 111.8608544
  63.4510342  69.4961608 113.0678544  63.1860342  70.4821608 112.3738544
  64.6920342  69.1311608 113.3758544  64.8503615  68.2216149 113.7854372
  65.8370342  70.0181608 113.1968544  65.5606356  70.8824841 112.5929933
  66.3080342  70.5121608 114.5758544  65.4066351  70.6859490 115.1635418
  66.8765505  69.6934690 115.0170267  67.1620342  71.7781608 114.5678544
  67.5900809  71.8973772 115.5631756  67.9611688  71.6009370 113.8480802
  66.4070342  73.0431608 114.1858544  65.1810342  73.1381608 114.4288544
  67.0590342  73.9641608 113.6508544  66.9730342  69.3121608 112.4508544
  67.4870342  68.2981608 112.9208544  67.3440342  69.8431608 111.2828544
  66.8262254  70.6245599 110.9068375  68.4730342  69.3221608 110.5098544
  68.6427623  68.2761254 110.7650046  68.2690342  69.4531608 108.9838544
  68.2121989  70.5094657 108.7210045  69.4360342  68.8031608 108.2348544
  69.4932258  67.7466644 108.4968569  69.2795452  68.9026403 107.1607428
  70.3671102  69.2968891 108.5131151  66.9370342  68.8201608 108.5468544
  67.0509851  67.7403836 108.6427564  66.1751526  69.1679668 109.2444695
  66.5170342  69.1601608 107.1288544  67.2782579  68.8122256 106.4305855
  65.5683042  68.6730183 106.9036815  66.4024277  70.2398098 107.0322982
  69.7100342  70.1031608 110.9218544  69.7220342  71.3281608 110.8478544
  70.7350342  69.3831608 111.3668544  70.6391657  68.3786477 111.4100049
  71.9940342  69.9761608 111.7988544  71.8863829  71.0587227 111.8664570
  72.4010342  69.4391608 113.1708544  72.3872113  68.3499610 113.1314579
  73.3981966  69.7794887 113.4500391  71.4820342  69.8401608 114.2878544
  71.4820342  71.1451608 114.7668544  72.1481952  71.8792223 114.3135520
  70.6450342  71.5181608 115.8118544  70.6484886  72.5472135 116.1712139
  69.8050342  70.5811608 116.3978544  69.1459245  70.8716370 117.2159607
  69.8060342  69.2731608 115.9398544  69.1524848  68.5332387 116.4019027
  70.6400342  68.9051608 114.8918544  70.6418293  67.8761800 114.5322778
  73.1000342  69.6521608 110.8078544  73.0110342  68.6891608 110.0438544
  74.1560342  70.4531608 110.8448544  74.1521239  71.2747575 111.4322749
  75.3400342  70.1801608 110.0518544  75.7672167  69.2423265 110.4069334
  75.0246280  70.0655302 109.0148018  76.3940342  71.2611608 110.1288544
  76.2140342  72.2691608 110.8118544  77.5070342  71.0231608 109.4418544
  77.6490579  70.1021061 109.0525128  78.5430342  72.0301608 109.2328544
  78.1893700  73.0030453 109.5741997  79.8550342  71.6921608 109.9778544
  80.5803549  72.4822482 109.7835041  79.6190342  71.5771608 111.4818544
  78.8941203  70.7869041 111.6770307  80.5585829  71.3388650 111.9804149
  79.2356678  72.5234939 111.8634095  80.3950342  70.4601608 109.4818544
  81.2089129  70.2566475 109.9485279  78.8400342  72.1311608 107.7438544
  78.7380342  71.1411608 107.0218544  79.2120342  73.3271608 107.2968544
  79.1452171  74.1248901 107.9126975  79.6000342  73.5551608 105.9098544
  79.8416862  72.6095973 105.4244543  78.5090342  74.2921608 105.0908544
  77.6331090  73.6455338 105.0386148  78.1170342  75.6301608 105.7128544
  78.9924074  76.2775422 105.7650061  77.3503768  76.1052475 105.1007845
  77.7280488  75.4643335 106.7174891  78.9760342  74.5021608 103.6478544
  79.6929848  75.3231689 103.6531769  79.4750799  73.5867417 103.3299535
  77.8500342  74.8221608 102.6878544  77.3507762  75.7377732 103.0048641
  78.2545843  74.9580889 101.6848778  77.1328697  74.0013464 102.6816425
  80.9400342  74.2851608 105.8888544  81.0840342  75.3441608 106.4988544
  81.9160342  73.6841608 105.2068544  81.7144257  72.7950052 104.7722790
  83.2560342  74.2401608 105.0548544  83.3833273  75.0684158 105.7519119
  83.9932675  73.4670758 105.2714789  83.4720342  74.7451608 103.6458544
  82.8860342  74.2201608 102.6998544  84.3350342  75.7481608 103.5108544
  84.8641438  76.0518570 104.3157836  84.5450342  76.4431608 102.2398544
  84.3105225  75.7943260 101.3959842  83.6120342  77.6481608 102.2018544
  82.7737693  77.4084376 102.8560287  84.1722092  78.4838135 102.6213644
  83.0910342  78.0271608 100.8338544  83.8225668  78.6469462 100.3153692
  82.8959164  77.1290908 100.2477645  81.5570342  78.9551608 101.0248544
  81.3910342  79.5481608  99.3508544  81.3255194  78.7000966  98.6692431
  80.4874622  80.1519564  99.2666578  82.2585367  80.1553282  99.0922265
  86.0010342  76.9031608 102.1068544  86.5420342  77.5041608 103.0288544
  86.6280342  76.5911608 100.9708544  86.1040464  76.1137604 100.2513928
  88.0260342  76.9521608 100.6918544  88.3296728  77.7684714 101.3472472
  88.9630342  75.7551608 100.9308544  88.5983087  74.9506959 100.2921755
  89.9502249  76.0687019 100.5913744  89.0540342  75.2621608 102.3618544
  89.6923483  75.9537723 102.9116994  88.0495099  75.2814266 102.7845385
  89.6240342  73.8491608 102.4688544  90.5405737  73.8001618 101.8809313
  89.8528549  73.6464871 103.5151163  88.6950342  72.8171608 101.9808544
  88.9327648  72.4086664 101.0882650  87.5860342  72.3901608 102.6058544
  86.8400342  71.4401608 102.0368544  87.1148873  71.0527042 101.1455446
  86.0042931  71.1133520 102.5003546  87.2000342  72.8921608 103.7838544
  87.7505118  73.6140868 104.2264574  86.3598199  72.5470442 104.2254800
  88.1750342  77.3341608  99.2278544  87.4090342  76.8511608  98.3968544
  89.1820342  78.1701608  98.8978544  90.0050342  79.0391608  99.7608544
  90.3804058  78.4569512 100.6024175  89.3917450  79.8600847 100.1324177
  91.1010342  79.5101608  98.8518544  91.9743519  78.8700156  98.9768727
  91.3645840  80.5369948  99.1053397  90.5620342  79.4271608  97.4738544
  91.4140966  79.2118422  96.8290857  90.0371728  80.3062895  97.1000191
  89.6160342  78.2281608  97.5018544  88.7455642  78.3265064  96.8532341
  90.3670342  76.9511608  97.1518544  91.0570342  76.4011608  98.0108544
  90.2210342  76.4811608  95.9138544  89.5788188  76.9360928  95.2808492
  90.9150342  75.2731608  95.4518544  90.7545961  74.4612872  96.1612345
  90.3810342  74.8371608  94.0768544  89.2932416  74.8203564  94.1441147
  90.6865234  75.5572440  93.3177387  90.8640342  73.4551608  93.6588544
  91.7630342  73.4131608  92.6848544  90.4130342  72.4401608  94.1838544
  90.7473148  71.5329716  93.8916832  89.7102169  72.5179371  94.9050336
  92.4280342  75.5381608  95.4108544  92.8580342  76.6371608  95.0558544
  93.2180342  74.5411608  95.8088544  92.7978955  73.6689458  96.0966456
  94.6770342  74.6831608  95.9228544  94.8679470  75.5869307  96.5015179
  95.2710342  73.4931608  96.6678544  95.0958331  72.5817449  96.0962551
  96.3434460  73.6415666  96.7943809  94.7991434  73.4040979  97.6463666
  95.3650342  74.8511608  94.5628544  96.3240342  75.6171608  94.4398544
  94.8850342  74.1191608  93.5588544  94.1698654  73.4322916  93.7508014
  95.4150342  74.2081608  92.1948544  96.4986772  74.3226013  92.2216954
  95.0760342  72.9301608  91.4158544  95.2599765  72.0879886  92.0829455
  94.0147735  72.9740894  91.1711180  95.8830342  72.7511608  90.1398544
  95.6453131  73.5735386  89.4651069  96.9420164  72.7862624  90.3956407
  95.5700342  71.4271608  89.4558544  96.0367205  70.6250366  90.0276059
  94.4889151  71.2883615  89.4519047  96.0910342  71.3991608  88.0228544
  95.7444391  72.2996655  87.5158399  97.1805413  71.3977693  88.0555904
  95.6150342  70.1971608  87.2808544  94.6055056  70.1984847  87.2500337
  95.9806405  70.2159760  86.3395372  95.9364504  69.3626275  87.7502635
  94.9190342  75.4501608  91.4328544  95.6210342  75.9561608  90.5508544
  93.7210342  75.9281608  91.7738544  93.1936031  75.4452334  92.4870843
  93.1120342  77.0951608  91.1298544  93.8888641  77.7657579  90.7625207
  92.2480342  76.6521608  89.9458544  92.8485919  76.0183698  89.2933679
  91.4050520  76.0793974  90.3324072  91.7080342  77.8231608  89.1268544
  91.8570342  78.9961608  89.4908544  91.0760342  77.5031608  88.0028544
  90.6954112  78.2318247  87.4161051  90.9791228  76.5327062  87.7403151
  92.2740342  77.8781608  92.1458544  91.1500342  77.4911608  92.4588544
  92.8140342  78.9991608  92.6248544  93.7270479  79.2852728  92.3013652
  92.1710342  79.7891608  93.6858544  91.9690211  79.1505445  94.5457725
  93.0800342  80.9471608  94.1358544  93.3778588  81.5111003  93.2519019
  92.5182550  81.5959340  94.8078644  94.3380342  80.4701608  94.8568544
  94.3970342  79.3501608  95.3808544  95.3560342  81.3311608  94.8928544
  96.2157199  81.0729155  95.3558336  95.2625673  82.2374551  94.4569700
  90.7860342  80.3411608  93.3298544  90.0180342  80.6741608  94.2298544
  90.4650342  80.4321608  92.0378544  91.1620735  80.2302466  91.3353829
  89.1530342  80.9281608  91.5958544  88.8380414  81.7510697  92.2374926
  89.2180342  81.4321608  90.1488544  89.3307996  80.5597936  89.5051474
  88.2690844  81.9227128  89.9321681  90.3680342  82.4091608  89.8898544
  90.4816982  83.0241604  90.7825787  91.2713420  81.8180605  89.7390644
  90.1410342  83.3091608  88.6778544  91.0003254  83.2256896  88.0124596
  89.2441575  82.9757592  88.1557865  89.9710342  84.7181608  89.0518544
  89.0225718  85.0062529  89.2455585  90.9490342  85.6281608  89.1538544
  92.2250342  85.3211608  88.9128544  92.4727761  84.3793084  88.6452016
  92.9372771  86.0320440  88.9991953  90.6470342  86.8751608  89.5048544
  89.6864457  87.1255362  89.6910852  91.3797040  87.5658890  89.5835195
  88.0310342  79.8881608  91.7648544  86.8590342  80.2571608  91.8578544
  88.3920342  78.6041608  91.8168544  89.3456230  78.3521583  91.5994550
  87.4360342  77.5251608  92.1178544  86.4510566  77.7837939  91.7292322
  87.8900342  76.2141608  91.4678544  88.8998357  76.0078559  91.8225918
  87.2202348  75.4200927  91.7978918  87.8900342  76.2781608  89.9448544
  87.2190342  77.1561608  89.3558544  88.5660342  75.4271608  89.3318544
  87.2470342  77.3231608  93.6208544  88.0830342  77.7481608  94.4128544
  86.1430342  76.6731608  93.9968544  85.5122666  76.3375813  93.2829791
  85.7890342  76.4411608  95.4048544  86.5534363  76.8693612  96.0532626
  84.4470342  77.0951608  95.7338544  83.7816093  76.6610991  94.9875975
  84.1677014  76.7332773  96.7233561  84.3290342  78.6161608  95.6968544
  84.6518704  78.9819283  94.7221279  82.8820342  79.0201608  95.9358544
  82.5586071  78.6551183  96.9106558  82.7984710  80.1066287  95.9092951
  82.2507378  78.5886219  95.1591051  85.2430342  79.2501608  96.7308544
  86.2761479  78.9718797  96.5226831  85.1437575  80.3347841  96.6879858
  84.9661178  78.8994935  97.7250620  85.6900342  74.9541608  95.7548544
  85.0790342  74.1761608  95.0198544  86.2860342  74.5821608  96.8858544
  86.9332091  75.2197082  97.3272128  86.0680342  73.2731608  97.5068544
  85.6016753  72.5985627  96.7888530  87.3950342  72.6631608  97.9598544
  87.8875276  73.3834194  98.6131362  87.1686903  71.7578978  98.5232081
  88.3160342  72.3201608  96.7978544  87.8720342  72.3621608  95.6308544
  89.4990342  72.0061608  97.0578544  85.1290342  73.4291608  98.7008544
  85.2390342  74.3881608  99.4628544  84.2000342  72.4881608  98.8448544
  84.1414043  71.7503404  98.1576259  83.2710342  72.4581608  99.9768544
  83.5016826  73.2772123 100.6580703  81.8270342  72.6061608  99.5078544
  81.5289290  71.7987325  98.8390554  81.1961298  72.5927201 100.3966058
  81.5300342  73.8901608  98.7898544  81.7990342  74.0261608  97.4368544
  82.2572904  73.1976392  96.8968052  81.4910342  75.2011608  96.7708544
  81.7160013  75.3017575  95.7090772  80.8970342  76.2481608  97.4548544
  80.6564400  77.1747778  96.9337065  80.6090342  76.1171608  98.8008544
  80.1375781  76.9372932  99.3423450  80.9200342  74.9441608  99.4588544
  80.6871233  74.8352113 100.5180911  83.3600342  71.1321608 100.7168544
  83.7020342  70.1071608 100.1278544  83.0360342  71.1631608 102.0058544
  82.9939451  72.0529558 102.4818719  82.7430342  69.9541608 102.7708544
  82.5932026  69.1168740 102.0892382  83.8730342  69.5981608 103.7428544
  83.9851030  70.4078621 104.4639124  83.5630342  68.2981608 104.4818544
  83.4512796  67.4878496 103.7614334  84.3788022  68.0652438 105.1662311
  82.6374438  68.4122032 105.0461037  85.1000342  69.4531608 103.0188544
  85.8070365  69.2301799 103.6287951  81.4650342  70.2011608 103.5538544
  81.3780342  71.1801608 104.2858544  80.4760342  69.3281608 103.3848544
  80.5795599  68.5956381 102.6972554  79.2190342  69.4121608 104.1228544
  79.2622364  70.2356588 104.8356543  78.0140342  69.6101608 103.1818544
  77.9719076  68.7745850 102.4831850  76.7120342  69.6751608 103.9758544
  76.7532290  70.5108344 104.6744625  75.8751943  69.8151945 103.2916101
  76.5765935  68.7459373 104.5292970  78.2010342  70.8941608 102.3628544
  78.2564279  71.7155612 103.0772308  79.1554235  70.7986836 101.8450468
  77.1060342  71.1751608 101.3548544  76.1513473  71.2712331 101.8720032
  77.3272680  72.1024037 100.8262947  77.0503415  70.3543537 100.6398201
  79.0480342  68.1371608 104.9478544  78.9820342  67.0411608 104.3898544
  79.0090342  68.3001608 106.2718544  79.2297360  69.2107486 106.6489749
  78.6310342  67.2381608 107.2018544  78.7737207  66.2698883 106.7220750
  79.4800342  67.2831608 108.4748544  79.4223056  68.2962290 108.8729240
  79.0396288  66.5871617 109.1888070  80.9340342  66.9141608 108.2398544
  81.4030342  66.9451608 107.0838544  81.6190342  66.5871608 109.2308544
  77.1840342  67.4741608 107.5818544  76.8510342  68.5641608 108.0278544
  76.3280342  66.4701608 107.3888544  76.6374770  65.6493323 106.8882697
  74.9380342  66.5141608 107.8628544  74.7047978  67.5248524 108.1978207
  73.9520342  66.1251608 106.7578544  74.4646151  65.3231513 106.2266851
  73.0637764  65.7261628 107.2476490  73.5410342  67.2121608 105.7648544
  74.4195264  67.7981633 105.4947554  72.9450342  66.5871608 104.5138544
  72.0661664  66.0013363 104.7831121  72.6571022  67.3734680 103.8160602
  73.6838727  65.9378913 104.0441021  72.5470342  68.1761608 106.3848544
  72.9975031  68.6536186 107.2550333  72.2740798  68.9373856 105.6540097
  71.6543606  67.6310531 106.6915960  74.7760342  65.5591608 109.0308544
  75.3950342  64.4961608 109.0628544  73.9400342  65.9511608 109.9858544
  73.5636398  66.8879289 109.9559883  73.5730342  65.0931608 111.1088544
  73.7058941  64.0461203 110.8365428  74.4620342  65.4011608 112.3218544
  75.4908888  65.4792881 111.9704949  74.1423318  66.3621170 112.7249097
  74.3770342  64.3381608 113.4138544  73.8870342  63.2091608 113.1558544
  74.8160342  64.6421608 114.5518544  72.0970342  65.3301608 111.4208544
  71.6880342  66.4611608 111.6818544  71.2970342  64.2671608 111.3518544
  71.6852013  63.3708761 111.0947563  69.8570342  64.3591608 111.5768544
  69.6282285  65.2517970 112.1590466  69.1160342  64.4441608 110.2388544
  69.4030132  65.3637495 109.7288555  69.3469068  63.5894447 109.6030413
  67.6230342  64.4811608 110.3828544  66.9920342  65.6191608 110.8728544
  67.5936798  66.4880831 111.1394937  65.6140342  65.6571608 111.0238544
  65.1279495  66.5558868 111.4034776  64.8540342  64.5461608 110.6898544
  63.7710945  64.5705968 110.8112809  65.4710342  63.4051608 110.2018544
  64.8742751  62.5337917 109.9322348  66.8490342  63.3731608 110.0568544
  67.3370226  62.4727273 109.6837770  69.3400342  63.1741608 112.3938544
  69.6130342  62.0181608 112.0618544  68.6080342  63.4861608 113.4658544
  68.5615755  64.4561527 113.7434451  67.8580342  62.5031608 114.2498544
  67.9974415  61.5140128 113.8136766  68.3280342  62.4661608 115.7068544
  68.2075328  63.4747874 116.1021404  67.6597090  61.7868576 116.2359939
  69.7650342  62.0151608 115.9008544  70.3561733  62.4141893 115.0765780
  70.1241810  62.4339448 116.8409266  69.9020342  60.4981608 115.9358544
  69.5223165  60.1339792 116.8904670  69.3104546  60.0741014 115.1244934
  71.3630342  60.0771608 115.7748544  71.9421521  60.6040530 116.5332130
  71.4176054  59.0039349 115.9573573  71.9210342  60.3811608 114.4218544
  71.8709559  61.3756382 114.2527198  72.8843387  60.0805533 114.3796689
  71.3848165  59.8926870 113.7190294  66.3950342  62.9161608 114.2148544
  66.0280342  63.9711608 114.7358544  65.5680342  62.0871608 113.5898544
  65.9334038  61.2461627 113.1663846  64.1410342  62.3451608 113.4898544
  63.8872864  63.1890497 114.1313859  63.8961687  62.5888214 112.4560412
  63.3330342  61.1441608 113.9158544  63.8760342  60.0981608 114.2698544
  62.0200342  61.3161608 113.8608544  61.6646613  62.2227807 113.5928064
  61.0630342  60.2751608 114.2108544  61.3259557  59.8231057 115.1672109
  59.6630342  60.8931608 114.3288544  59.8057454  61.9181450 114.6711118
  59.2434050  60.9016609 113.3229026  58.7120342  60.1751608 115.2668544
  58.2586557  59.3419644 114.7298883  59.2669769  59.7950655 116.1245655
  57.6060342  61.0881608 115.7698544  56.4310342  60.8931608 115.4518544
  57.9800342  62.1001608 116.5518544  57.2855638  62.7378082 116.9140947
  58.9562723  62.2249443 116.7787677  61.0830342  59.1611608 113.1558544
  61.0610342  57.9781608 113.4938544  61.1540342  59.5621608 111.8858544
  61.2223566  60.5531252 111.7030406  61.0930342  58.6491608 110.7448544
  60.6875109  57.6846531 111.0504277  60.1790342  59.2461608 109.6698544
  60.7200201  60.1401305 109.3596101  60.1192605  58.5497115 108.8335019
  58.7630342  59.6341608 110.1138544  58.8311059  60.2175594 111.0320663
  58.0630342  60.4561608 109.0418544  57.9941706  59.8732121 108.1234169
  57.0609342  60.7185758 109.3810219  58.6317965  61.3664239 108.8520365
  57.9460342  58.3961608 110.4748544  58.4345419  57.8629256 111.2904033
  56.9461226  58.6982114 110.7863724  57.8732603  57.7421394 109.6059131
  62.4540342  58.3291608 110.1108544  62.5230342  57.4781608 109.2328544
  63.5270342  58.9931608 110.5368544  63.4612405  59.6304190 111.3176697
  64.8150342  58.8641608 109.8528544  64.9899103  57.8274739 109.5651080
  64.8060342  59.7271608 108.5898544  64.1338010  59.2883214 107.8525473
  64.4664048  60.7329157 108.8372589  66.3990342  59.9261608 107.7598544
  65.9478839  60.7001213 106.7768251  66.0020342  59.2471608 110.7258544
  65.9010342  60.1221608 111.5928544  67.1300342  58.5901608 110.4578544
  67.1088634  57.8887851 109.7314088  68.3850342  58.8051608 111.1778544
  68.3951231  59.7931060 111.6382474  68.5210342  57.7521608 112.2778544
  67.5924121  57.7735952 112.8482058  68.6177710  56.7882659 111.7782059
  69.6970342  57.9551608 113.2178544  70.6022453  57.7745695 112.6381298
  69.6799411  58.9931908 113.5499700  69.6790342  57.0301608 114.4358544
  70.7320342  56.9111608 115.1008544  68.6310342  56.4111608 114.7368544
  69.5370342  58.7171608 110.1718544  69.7340342  57.6711608 109.5518544
  70.2670342  59.8201608 109.9868544  70.0544045  60.6505605 110.5210118
  71.3540342  59.8871608 108.9948544  71.7751241  58.8932392 108.8435187
  70.8300342  60.4071608 107.6508544  69.9317674  59.8149778 107.4761110
  70.5557686  61.4550214 107.7727831  71.7840342  60.2621608 106.4458544
  72.7936721  60.0897065 106.8186703  71.3680342  59.1021608 105.5548544
  70.3586033  59.2741343 105.1812596  72.0575116  59.0235468 104.7142941
  71.3893849  58.1761601 106.1294562  71.8600342  61.5371608 105.6208544
  72.2234245  62.3534021 106.2451917  72.5425364  61.3889079 104.7840073
  70.8687000  61.7844603 105.2411198  72.5040342  60.7791608 109.4558544
  72.2860342  61.8461608 110.0288544  73.7260342  60.3231608 109.1838544
  73.8125786  59.3915466 108.8034539  74.9450342  61.0861608 109.4288544
  74.7157763  62.1500570 109.4893919  75.5760342  60.6461608 110.7508544
  74.8194571  60.7160275 111.5323970  75.8981719  59.6098105 110.6493382
  76.6860342  61.4531608 111.0958544  77.0559951  61.1495928 111.9280655
  75.8970342  60.8411608 108.2578544  76.3330342  59.7131608 108.0458544
  76.1910342  61.8861608 107.4858544  75.7929721  62.7881782 107.7049671
  77.0460342  61.7721608 106.2948544  77.6554317  60.8707080 106.3590161
  76.1850342  61.6911608 105.0338544  76.8160456  61.6064644 104.1491226
  75.5164319  60.8319015 105.0862411  75.1280342  63.1331608 104.7598544
  74.5787261  62.6906495 103.6323161  78.0150342  62.9431608 106.1648544
  77.8190342  63.9911608 106.7788544  79.0530342  62.7391608 105.3518544
  79.1598629  61.8244378 104.9371632  80.0630342  63.7581608 105.0558544
  79.6678062  64.7499100 105.2756896  81.3100342  63.5271608 105.9138544
  80.9985928  63.3758482 106.9473959  81.8198021  62.6334418 105.5539890
  82.1920342  64.6341608 105.8438544  82.9634144  64.4636823 106.3892988
  80.4210342  63.7071608 103.5658544  80.8390342  62.6651608 103.0658544
  80.2590342  64.8341608 102.8708544  80.0051797  65.6781514 103.3641464
  80.4450342  64.9071608 101.4218544  80.8847879  63.9822567 101.0486677
  79.0980342  65.1371608 100.7048544  78.7580317  66.1494835 100.9232605
  79.2330342  64.9611608  99.1968544  79.5725777  63.9488605  98.9776328
  78.2661790  65.1301838  98.7228067  79.9570265  65.6783978  98.8101933
  78.1260342  64.2131608 101.1998544  77.2893193  64.3584763 100.7522030
  81.3660342  66.0621608 101.0558544  81.1480342  67.1851608 101.5028544
  82.3830342  65.7801608 100.2448544  82.5972560  64.8153926 100.0364542
  83.2290342  66.8191608  99.6618544  83.2031229  67.7073345 100.2931825
  84.6800342  66.3441608  99.5448544  84.6700385  65.4057882  98.9903670
  85.2367426  67.0927667  98.9811478  85.3480342  66.1271608 100.8988544
  84.8900342  66.6891608 101.9218544  86.3540342  65.3891608 100.9378544
  82.6920342  67.1941608  98.2808544  82.4510342  66.3191608  97.4518544
  82.4900342  68.4941608  98.0498544  82.6236910  69.1514115  98.8050078
  82.0550342  69.0081608  96.7528544  81.8500911  68.1729167  96.0831792
  80.7890342  69.8491608  96.8848544  81.0355556  70.7236681  97.4869868
  80.5368859  70.1650299  95.8725560  79.6150342  69.1371608  97.4938544
  79.4360342  69.1081608  98.8738544  80.1673319  69.6044798  99.5117969
  78.3500342  68.4621608  99.4388544  78.2228738  68.4471626 100.5213086
  77.4180342  67.8401608  98.6228544  76.3420342  67.1941608  99.1828544
  76.3365075  67.2367412 100.1418935  77.5730342  67.8611608  97.2478544
  76.8438351  67.3715462  96.6023727  78.6640342  68.5101608  96.6928544
  78.7898745  68.5364465  95.6104620  83.1340342  69.8601608  96.1008544
  83.9930342  70.4251608  96.7818544  83.0710342  69.9481608  94.7748544
  82.4064514  69.3699818  94.2807511  83.9610342  70.8011608  93.9938544
  84.4648569  71.5064452  94.6547900  85.0210342  69.9661608  93.2698544
  84.5335696  69.0599512  92.9103246  85.3727469  70.5506570  92.4197000
  86.2040342  69.5901608  94.1508544  86.5258234  70.4804384  94.6911861
  85.8746508  68.8330892  94.8625082  87.3610342  69.0481608  93.3368544
  87.6475214  69.7851923  92.5866487  88.2058329  68.8566645  93.9984765
  87.0050342  67.8001608  92.6568544  86.0668686  67.4565333  92.8047221
  87.8240342  67.0981608  91.8698544  89.0740342  67.5091608  91.6468544
  89.4068156  68.3602913  92.0768932  89.6815059  66.9671872  91.0490731
  87.3910342  65.9751608  91.2978544  86.4455428  65.6603429  91.4622796
  88.0103312  65.4439822  90.7025232  83.1620342  71.6301608  92.9948544
  82.4020342  71.0951608  92.1868544  83.3400342  72.9421608  93.0758544
  83.9149588  73.3069513  93.8218363  82.7350342  73.8811608  92.1528544
  81.9536385  73.3940719  91.5695326  82.1130342  75.0201608  92.9418544
  81.5926492  74.5681381  93.7862324  82.9365557  75.6326713  93.3089284
  81.1500342  75.8861608  92.1618544  81.6939713  76.6838709  91.6559968
  80.6218581  75.2825191  91.4237834  79.9550342  76.6121608  93.2978544
  79.3450342  77.9181608  92.2708544  78.9059038  77.4955152  91.3671763
  78.5866148  78.4831585  92.8127753  80.1663764  78.5812700  91.9992212
  83.8520342  74.3671608  91.2428544  84.7770342  75.0351608  91.6958544
  83.7720342  73.9871608  89.9698544  82.9292371  73.5288588  89.6540197
  84.8760342  74.1511608  89.0138544  85.4034214  75.0846865  89.2100476
  85.8730342  72.9841608  89.1508544  86.5378330  73.0358125  88.2886051
  86.4448280  73.1644439  90.0611565  85.2330342  71.5981608  89.2178544
  84.6965807  71.5182877  90.1633378  84.5272919  71.5108198  88.3917785
  86.2660342  70.4801608  89.1238544  86.8185168  70.5896454  88.1906475
  86.9540199  70.5656636  89.9649635  85.6500342  69.1451608  89.1528544
  84.7107918  69.1050730  89.5220643  86.2200342  68.0081608  88.7298544
  85.5410342  66.8641608  88.8128544  84.6051399  66.8623611  89.1925894
  85.9655388  66.0043549  88.4956330  87.4540342  67.9881608  88.2148544
  87.9797733  68.8470935  88.1378281  87.8546353  67.1142156  87.9052783
  84.3550342  74.2421608  87.5808544  83.1440342  74.2181608  87.3398544
  85.1300342  74.3491608  86.6288544  81.4480342  96.2031608  86.8168544
  80.5620342  95.6521608  85.7428544  79.1030342  95.6411608  86.2208544
  78.8430342  95.5221608  87.4328544  81.0280342  94.2441608  85.3468544
  81.1550342  93.2581608  86.5288544  81.6720342  91.5881608  86.0578544
  80.5920342  90.4851608  87.0108544  83.2110342  91.3951608  86.9868544
  84.4250342  91.8671608  86.2048544  85.5200342  91.9151608  87.1088544
  84.7850342  90.8491608  85.1318544  84.6670342  91.3771608  83.8228544
  86.2030342  90.4021608  85.4708544  87.0350342  90.3601608  84.3398544
  86.6610342  91.5331608  86.3698544  78.1640342  95.7441608  85.4168544
  91.3370342  93.1761608  87.9528544  90.4470342  93.8331608  87.1198544
  89.2490342  93.2161608  86.8198544  88.9420342  91.9981608  87.3318544
  89.8370342  91.3341608  88.1728544  91.0510342  91.9401608  88.4888544
  91.9500342  91.3501608  89.2808544  89.2730342  90.1601608  88.5218544
  88.0560342  90.0621608  87.9338544  87.8430342  91.1981608  87.1918544
  83.8930342  91.6851608  83.7138544  86.7760342  90.9301608  83.7798544
  92.6920342  91.7471608  89.4598544  91.7870342  90.5731608  89.6118544
  83.1500342  91.8951608  87.8158544  83.3260342  90.4621608  87.2258544
  82.2950342  96.2671608  86.6848544  81.1100342  96.4551608  87.5658544
  81.7930342  93.6151608  87.1658544  80.3000342  93.2041608  86.9838544
  80.8120342  89.5621608  86.8088544  80.7190342  90.6471608  87.9588544
  79.6670342  90.6551608  86.7758544  80.4040342  93.8781608  84.7008544
  81.8880342  94.3131608  84.9028544  80.6180342  96.2191608  84.9578544
  87.4410342  89.3171608  88.0218544  84.2360342  92.7271608  85.7988544
  84.1720342  90.0971608  85.1288544  86.2340342  89.5111608  85.8538544
  90.6600342  94.7061608  86.7558544  86.9920342  92.2821608  85.8508544
  44.8710342  37.0321608  90.0438544  43.8010342  36.7811608  90.8258544
  42.9710342  35.6981608  90.5178544  43.2680342  34.9001608  89.4078544
  44.3880342  35.1961608  88.6238544  45.1920342  36.2871608  88.9658544
  43.5420342  37.6111608  91.9318544  42.1070342  35.4741608  91.1268544
  42.6360342  34.0601608  89.1578544  44.6290342  34.5881608  87.7648544
  46.0740342  36.5921608  88.4228544  42.7430342  37.4321608  92.5238544
  44.1520342  38.3901608  92.1388544  45.4610342  37.8171608  90.2798544
  89.8140342  31.2551608  82.6268544  89.1660342  30.0981608  82.3798544
  87.7780342  30.1151608  82.2148544  87.0910342  31.3311608  82.3098544
  87.8020342  32.5071608  82.5668544  89.1890342  32.4461608  82.7258544
  89.9000342  28.9001608  82.2928544  87.2340342  29.2031608  82.0158544
  86.0180342  31.3601608  82.1848544  87.2840342  33.4521608  82.6428544
  89.8210342  33.3001608  82.9258544  89.4250342  28.0271608  82.1088544
  90.9030342  28.9061608  82.4158544  90.8170342  31.2261608  82.7438544
 121.5940342  89.9671608  62.0568544 122.1120342  88.8841608  62.6708544
 122.2400342  87.6901608  61.9528544 121.8290342  87.6461608  60.6168544
 121.2970342  88.7931608  60.0188544 121.1860342  89.9661608  60.7718544
 122.5120342  88.9761608  64.0168544 122.6520342  86.8061608  62.4198544
 121.9210342  86.7311608  60.0488544 120.9760342  88.7731608  58.9878544
 120.7900342  90.8991608  60.3968544 122.9010342  88.1701608  64.4858544
 122.4110342  89.8471608  64.5198544 121.5080342  90.8221608  62.5888544
 116.9670342  52.5491608  67.5778544 116.8630342  53.8741608  67.8038544
 115.6000342  54.4731608  67.7788544 114.4720342  53.6861608  67.5218544
 114.6250342  52.3151608  67.2928544 115.9060342  51.7551608  67.3268544
 118.0260342  54.6261608  68.0588544 115.4880342  55.5341608  67.9568544
 113.4900342  54.1351608  67.4988544 113.7630342  51.6951608  67.0928544
 116.1210342  50.7091608  67.1628544 117.9590342  55.6191608  68.2288544
 118.9310342  54.1761608  68.0718544 117.8860342  52.1311608  67.5998544
  82.9940342  38.9911608  34.5688544  84.0520342  38.1611608  34.6638544
  85.3420342  38.7001608  34.6908544  85.5060342  40.0881608  34.6198544
  84.3810342  40.9131608  34.5228544  83.1090342  40.3331608  34.4978544
  83.8370342  36.7711608  34.7318544  86.2080342  38.0581608  34.7668544
  86.4970342  40.5191608  34.6408544  84.4940342  41.9861608  34.4668544
  82.1850342  40.8881608  34.4248544  84.6230342  36.1401608  34.8038544
  82.8980342  36.3991608  34.7098544  82.0680342  38.5861608  34.5498544
  68.3040342 102.4271608  30.4858544  67.0600342 101.9081608  30.4738544
  66.9000342 100.5191608  30.4718544  68.0330342  99.6981608  30.4818544
  69.3060342 100.2791608  30.4938544  69.4220342 101.6721608  30.4958544
  65.9490342 102.7741608  30.4638544  65.9140342 100.0771608  30.4618544
  67.9260342  98.6241608  30.4798544  70.1890342  99.6571608  30.5018544
  70.3590342 102.2081608  30.5048544  65.0130342 102.3951608  30.4548544
  66.0840342 103.7751608  30.4648544  68.4030342 103.4331608  30.4878544
  65.7270342  30.5451608  93.0518544  66.3740342  30.3971608  91.8778544
  67.7720342  30.4161608  91.8628544  68.4690342  30.5881608  93.0648544
  67.7580342  30.7381608  94.2598544  66.3600342  30.7131608  94.2308544
  65.6300342  30.2271608  90.6948544  68.3160342  30.3001608  90.9368544
  69.5490342  30.6041608  93.0688544  68.2830342  30.8711608  95.1938544
  65.7280342  30.8211608  95.1008544  66.1050342  30.1161608  89.8108544
  64.6200342  30.2171608  90.7248544  64.7170342  30.5301608  93.0468544
 118.8820342 104.4191608  47.5098544 119.4420342 105.6451608  47.5258544
 120.6090342 105.8531608  48.2678544 121.1700342 104.7851608  48.9768544
 120.5570342 103.5291608  48.9328544 119.3910342 103.3641608  48.1788544
 118.8420342 106.6891608  46.7958544 121.0790342 106.8261608  48.2978544
 122.0720342 104.9301608  49.5548544 120.9790342 102.6961608  49.4758544
 118.8490342 102.4341608  48.0858544 119.2530342 107.6121608  46.8008544
 117.9980342 106.5211608  46.2668544 118.0400342 104.2851608  46.9698544
  92.8570342 112.0181608 130.4868544  93.6300342 111.1791608 131.2068544
  95.0080342 111.4111608 131.2738544  95.5530342 112.5061608 130.5958544
  94.7140342 113.3511608 129.8608544  93.3430342 113.0841608 129.8188544
  93.0360342 110.0901608 131.8728544  95.6510342 110.7551608 131.8438544
  96.6150342 112.6981608 130.6388544  95.1220342 114.2001608 129.3328544
  92.6200342 113.6781608 129.2798544  93.6070342 109.4561608 132.4138544
  92.0390342 109.9381608 131.8108544  91.8640342 111.8371608 130.4478544
  35.5810342  80.3151608  36.0208544  34.3990342  80.8231608  35.6158544
  33.4190342  79.9581608  35.1198544  33.6850342  78.5861608  35.0528544
  34.9250342  78.1011608  35.4838544  35.8770342  79.0001608  35.9738544
  34.1770342  82.2101608  35.7018544  32.4630342  80.3381608  34.7878544
  32.9380342  77.9051608  34.6718544  35.1430342  77.0441608  35.4388544
  36.8580342  78.7191608  36.3278544  33.2950342  82.6011608  35.4008544
  34.8970342  82.8201608  36.0628544  36.2780342  80.9521608  36.3778544
  96.5480342  84.7331608  24.4078544  95.3350342  84.2551608  24.7538544
  95.1530342  83.7211608  26.0338544  96.2310342  83.6951608  26.9258544
  97.4710342  84.2021608  26.5248544  97.6110342  84.7261608  25.2368544
  94.2810342  84.3031608  23.8228544  94.1920342  83.3311608  26.3378544
  96.1050342  83.2861608  27.9178544  98.3120342  84.1871608  27.2038544
  98.5280342  85.1391608  24.8398544  93.3690342  83.9471608  24.0728544
  94.4310342  84.6911608  22.9028544  96.6630342  85.1161608  23.4798544
  57.6430342 124.7101608  73.0528544  58.8480342 125.1011608  73.5148544
  58.9290342 126.2321608  74.3328544  57.7610342 126.9331608  74.6538544
  56.5320342 126.4921608  74.1528544  56.4940342 125.3561608  73.3378544
  59.9950342 124.3651608  73.1648544  59.8820342 126.5681608  74.7168544
  57.8090342 127.8091608  75.2838544  55.6230342 127.0231608  74.3928544
  55.5940342 124.9421608  72.9068544  60.9030342 124.6501608  73.5058544
  59.9170342 123.5501608  72.5718544  57.6000342 123.8911608  72.4628544
 109.0900342  73.9561608  45.0018544 110.0780342  74.8711608  45.0778544
 109.9080342  75.9921608  45.8968544 108.7190342  76.1401608  46.6188544
 107.7200342  75.1661608  46.5118544 107.9300342  74.0611608  45.6818544
 111.2560342  74.6801608  44.3318544 110.6830342  76.7411608  45.9758544
 108.5730342  77.0001608  47.2558544 106.7970342  75.2681608  47.0638544
 107.2180342  73.2611608  45.5358544 112.0020342  75.3601608  44.3808544
 111.3610342  73.8651608  43.7448544 109.2280342  73.1521608  44.4058544
  58.9170342 107.2401608  87.8838544  59.2690342 105.9381608  87.8928544
  58.2700342 104.9611608  87.8428544  56.9280342 105.3541608  87.7848544
  56.6070342 106.7151608  87.7778544  57.6360342 107.6601608  87.8288544
  60.6320342 105.5901608  87.9518544  58.5240342 103.9101608  87.8488544
  56.1450342 104.6111608  87.7458544  55.5760342 107.0331608  87.7338544
  57.4860342 108.7301608  87.8278544  60.9060342 104.6181608  87.9588544
  61.3400342 106.3101608  87.9888544  59.6500342 107.9341608  87.9208544
  64.3690342  34.6081608  94.6608544  65.1630342  35.2761608  95.5208544
  64.5820342  36.1491608  96.4468544  63.1920342  36.3091608  96.4608544
  62.4060342  35.5951608  95.5498544  63.0260342  34.7331608  94.6408544
  66.5560342  35.0831608  95.4698544  65.1950342  36.6971608  97.1488544
  62.7290342  36.9791608  97.1708544  61.3320342  35.7101608  95.5498544
  62.5030342  34.1431608  93.9028544  67.1600342  35.5791608  96.1108544
  66.9580342  34.4491608  94.7938544  64.8030342  33.9811608  93.9978544
  41.2080342  44.3381608  48.8918544  42.0020342  45.3871608  49.1898544
  41.4210342  46.6391608  49.4118544  40.0320342  46.7781608  49.3208544
  39.2460342  45.6631608  49.0098544  39.8660342  44.4281608  48.7958544
  43.3940342  45.2001608  49.2698544  42.0340342  47.4971608  49.6508544
  39.5690342  47.7391608  49.4898544  38.1720342  45.7561608  48.9368544
  39.3430342  43.5151608  48.5508544  43.9980342  45.9791608  49.4918544
  43.7960342  44.2871608  49.1048544  41.6420342  43.4391608  48.7348544
 115.1250342  88.7231608  34.5078544 113.9620342  89.0601608  35.1018544
 113.8740342  90.2731608  35.7918544 114.9930342  91.1111608  35.8508544
 116.1800342  90.7231608  35.2208544 116.2260342  89.5021608  34.5418544
 112.8620342  88.1851608  35.0148544 112.9540342  90.5671608  36.2768544
 114.9410342  92.0511608  36.3808544 117.0520342  91.3601608  35.2588544
 117.0950342  89.1201608  34.0268544 111.9860342  88.4271608  35.4568544
 112.9440342  87.3121608  34.5128544 115.1720342  87.8441608  34.0138544
 127.4500342  78.0671608 118.8388544 126.3520342  78.4881608 119.4978544
 125.8070342  79.7381608 119.1868544 126.4120342  80.5231608 118.1988544
 127.5500342  80.0471608 117.5398544 128.0630342  78.7931608 117.8808544
 125.7780342  77.6641608 120.4838544 124.9270342  80.1001608 119.6998544
 126.0020342  81.4911608 117.9478544 128.0270342  80.6431608 116.7748544
 128.9340342  78.3441608 117.4268544 124.9550342  77.9701608 120.9838544
 126.1860342  76.7641608 120.6968544 127.8320342  77.1621608 119.0748544
  36.3050342 101.3771608 112.0398544  35.3480342 102.3081608 112.2328544
  35.6940342 103.6621608 112.1848544  37.0230342 104.0221608 111.9388544
  37.9840342 103.0251608 111.7448544  37.5970342 101.6831608 111.7998544
  34.0240342 101.8971608 112.4778544  34.9470342 104.4281608 112.3368544
  37.3050342 105.0641608 111.8988544  39.0140342 103.2891608 111.5528544
  38.2670342 100.8461608 111.6628544  33.2990342 102.5861608 112.6238544
  33.7930342 100.9141608 112.5098544  36.0400342 100.4041608 112.0778544
  56.9940342 124.9071608  80.7268544  57.6110342 123.7511608  81.0478544
  56.8430342 122.6661608  81.4828544  55.4540342 122.8021608  81.5758544
  54.8550342 124.0191608  81.2328544  55.6580342 125.0791608  80.8028544
  59.0110342 123.6621608  80.9378544  57.3120342 121.7291608  81.7458544
  54.8480342 121.9731608  81.9098544  53.7830342 124.1371608  81.3008544
  55.2860342 126.0521608  80.5178544  59.4840342 122.8011608  81.1758544
  59.5500342 124.4571608  80.6228544  57.5610342 125.6811608  80.4148544
  91.4010342 113.9181608  38.5278544  91.7100342 112.6491608  38.8658544
  90.6780342 111.7441608  39.1318544  89.3490342 112.1731608  39.0428544
  89.0740342 113.4981608  38.6888544  90.1350342 114.3711608  38.4298544
  93.0620342 112.2641608  38.9438544  90.8980342 110.7221608  39.4058544
  88.5420342 111.4851608  39.2458544  88.0520342 113.8421608  38.6158544
  90.0190342 115.4081608  38.1508544  93.3040342 111.3161608  39.1958544
  93.7940342 112.9321608  38.7478544  92.1580342 114.5601608  38.3378544
  55.7920342  49.4511608  72.5618544  56.2980342  50.6251608  72.9908544
  56.5340342  51.6451608  72.0638544  56.2390342  51.4271608  70.7138544
  55.7140342  50.1951608  70.3118544  55.4940342  49.2011608  71.2708544
  56.5790342  50.7981608  74.3598544  56.9400342  52.5961608  72.3808544
  56.4160342  52.2061608  69.9868544  55.4820342  50.0131608  69.2728544
  55.0930342  48.2211608  71.0548544  56.9590342  51.6741608  74.6908544
  56.4040342  50.0491608  75.0138544  55.6270342  48.7241608  73.2428544
 108.6320342 119.2541608 103.7388544 109.3390342 120.1601608 103.0338544
 110.7190342 119.9861608 102.8898544 111.3360342 118.8771608 103.4798544
 110.5650342 117.9621608 104.2028544 109.1880342 118.1721608 104.3218544
 108.6750342 121.2601608 102.4578544 111.3100342 120.6971608 102.3298544
 112.4010342 118.7291608 103.3768544 111.0280342 117.1011608 104.6628544
 108.5140342 117.5211608 104.8598544 109.1960342 121.9441608 101.9278544
 107.6770342 121.3701608 102.5728544 107.6360342 119.3931608 103.8338544
  54.5720342  95.0161608  36.7468544  53.2670342  95.2121608  36.4658544
  52.5210342  94.1591608  35.9268544  53.1420342  92.9281608  35.6918544
  54.4970342  92.7691608  35.9978544  55.2080342  93.8461608  36.5348544
  52.6850342  96.4681608  36.7198544  51.4740342  94.2881608  35.6928544
  52.5780342  92.1051608  35.2758544  54.9900342  91.8231608  35.8208544
  56.2540342  93.8171608  36.8018544  51.7090342  96.6251608  36.5128544
  53.2410342  97.2171608  37.1088544  55.0970342  95.7861608  37.1358544
  93.5880342  95.4011608 123.5138544  94.8280342  95.0501608 123.9118544
  95.8500342  96.0041608 123.8818544  95.5640342  97.3011608 123.4408544
  94.2640342  97.6231608 123.0378544  93.2720342  96.6401608 123.0828544
  95.0680342  93.7331608 124.3468544  96.8520342  95.7501608 124.1948544
  96.3430342  98.0491608 123.4128544  94.0300342  98.6211608 122.6958544
  92.2430342  96.7951608 122.7928544  95.9930342  93.4591608 124.6468544
  94.3170342  93.0561608 124.3608544  92.8610342  94.7011608 123.5408544
  77.8450342 119.5601608  53.9208544  76.9890342 119.3901608  54.9488544
  76.0220342 120.3691608  55.1998544  75.9640342 121.5021608  54.3808544
  76.8710342 121.6381608  53.3248544  77.8220342 120.6361608  53.1078544
  77.0860342 118.2341608  55.7468544  75.3240342 120.2591608  56.0178544
  75.2230342 122.2661608  54.5618544  76.8370342 122.5071608  52.6848544
  78.5610342 120.6541608  52.3208544  76.4500342 118.0981608  56.5188544
  77.7920342 117.5381608  55.5508544  78.5380342 118.8451608  53.7528544
  72.8520342  42.1481608 124.5828544  72.0210342  43.0021608 125.2148544
  72.5020342  44.2541608 125.6098544  73.8320342  44.5941608 125.3408544
  74.6590342  43.6781608 124.6828544  74.1400342  42.4371608 124.3058544
  70.6900342  42.6161608 125.4638544  71.8570342  44.9581608 126.1178544
  74.2180342  45.5581608 125.6398544  75.6890342  43.9281608 124.4698544
  74.7020342  41.6681608 123.7948544  70.0600342  43.2481608 125.9358544
  70.3610342  41.7061608 125.1718544  72.4900342  41.2471608 124.3038544
 102.9470342 110.1901608 117.4318544 102.6350342 109.0101608 118.0058544
 101.9580342 109.0041608 119.2288544 101.6190342 110.2211608 119.8308544
 101.9620342 111.4221608 119.2018544 102.6390342 111.3841608 117.9788544
 102.9960342 107.8111608 117.3628544 101.6950342 108.0731608 119.7108544
 101.0960342 110.2331608 120.7768544 101.7070342 112.3691608 119.6558544
 102.9440342 112.2571608 117.4208544 102.7670342 106.9221608 117.7838544
 103.4860342 107.8341608 116.4788544 103.4360342 110.1771608 116.5478544
  49.2440342  40.1921608  61.9168544  49.5150342  40.6021608  60.6608544
  49.0350342  41.8431608  60.2298544  48.2850342  42.6311608  61.1098544
  48.0270342  42.1671608  62.4038544  48.5250342  40.9211608  62.7948544
  50.2730342  39.7751608  59.8108544  49.2370342  42.1961608  59.2288544
  47.9070342  43.5921608  60.7918544  47.4500342  42.7661608  63.0938544
  48.3780342  40.4821608  63.7708544  50.4820342  40.0731608  58.8688544
  50.6110342  38.8811608  60.1388544  49.5970342  39.2941608  62.2128544
  74.1950342  97.0651608  22.9148544  75.2700342  96.4881608  23.4878544
  76.2730342  97.3001608  24.0278544  76.1390342  98.6911608  23.9618544
  75.0060342  99.2471608  23.3588544  74.0270342  98.4011608  22.8308544
  75.3620342  95.0841608  23.5308544  77.1460342  96.8641608  24.4928544
  76.9050342  99.3311608  24.3748544  74.8900342 100.3201608  23.3008544
  73.1220342  98.7381608  22.3478544  76.1630342  94.6421608  23.9578544
  74.6280342  94.5131608  23.1348544  73.4790342  96.4651608  22.5298544
  94.6710342 103.2351608  38.8888544  95.8580342 102.5991608  38.9638544
  95.8820342 101.2011608  38.9948544  94.6760342 100.4941608  38.9478544
  93.4670342 101.1931608  38.8698544  93.4870342 102.5911608  38.8408544
  97.0450342 103.3541608  39.0088544  96.8190342 100.6661608  39.0548544
  94.6780342  99.4131608  38.9708544  92.5290342 100.6591608  38.8328544
  92.6070342 103.2141608  38.7818544  97.9400342 102.8881608  39.0658544
  97.0080342 104.3641608  38.9868544  94.6700342 104.2451608  38.8668544
  99.7170342  50.5921608  81.6048544  99.0640342  51.7581608  81.7768544
  97.6720342  51.7461608  81.9198544  96.9900342  50.5251608  81.8808544
  97.7080342  49.3381608  81.7008544  99.0980342  49.3951608  81.5618544
  99.7930342  52.9621608  81.8098544  97.1230342  52.6661608  82.0588544
  95.9150342  50.4991608  81.9898544  97.1930342  48.3891608  81.6688544
  99.7340342  48.5331608  81.4188544  99.3130342  53.8421608  81.9378544
 100.7980342  52.9521608  81.7038544 100.7220342  50.6171608  81.5038544
 123.4340342  95.0921608  43.6888544 122.1310342  95.4091608  43.8358544
 121.1720342  94.3921608  43.7858544 121.5840342  93.0701608  43.5848544
 122.9460342  92.7861608  43.4378544 123.8720342  93.8321608  43.4938544
 121.7640342  96.7531608  44.0358544 120.1210342  94.6181608  43.8998544
 120.8550342  92.2741608  43.5438544 123.2770342  91.7701608  43.2818544
 124.9400342  93.7091608  43.3918544 120.7910342  97.0011608  44.1468544
 122.4710342  97.4751608  44.0678544 124.1140342  95.8371608  43.7278544
 112.3130342  76.5621608  55.3648544 111.4450342  75.9321608  56.1828544
 110.9900342  76.5901608  57.3298544 111.4450342  77.8841608  57.6048544
 112.3450342  78.5001608  56.7288544 112.7750342  77.8081608  55.5928544
 111.0150342  74.6301608  55.8648544 110.2940342  76.1081608  58.0028544
 111.1020342  78.4051608  58.4868544 112.7040342  79.4991608  56.9288544
 113.4660342  78.2011608  54.8618544 110.3650342  74.1491608  56.4708544
 111.3550342  74.1701608  55.0318544 112.6320342  76.0741608  54.5398544
 101.2780342  73.4861608  52.1928544 102.3210342  72.7651608  51.7338544
 102.2200342  71.3711608  51.6908544 101.0400342  70.7551608  52.1238544
  99.9830342  71.5411608  52.5928544 100.1250342  72.9311608  52.6198544
 103.4870342  73.4291608  51.3088544 103.0400342  70.7691608  51.3268544
 100.9480342  69.6791608  52.0958544  99.0670342  71.0781608  52.9298544
  99.3650342  73.6181608  52.9638544 104.2740342  72.8981608  50.9628544
 103.5420342  74.4371608  51.3478544 101.3660342  74.4921608  52.2178544
  47.1110342  75.5931608  39.3858544  46.8990342  74.3631608  39.8968544
  47.2240342  74.1161608  41.2348544  47.7620342  75.1471608  42.0118544
  47.9660342  76.4071608  41.4408544  47.6270342  76.6141608  40.1008544
  46.3550342  73.3571608  39.0768544  47.0650342  73.1391608  41.6698544
  48.0190342  74.9711608  43.0468544  48.3800342  77.2131608  42.0298544
  47.7480342  77.5501608  39.5758544  46.1930342  72.4321608  39.4498544
  46.1270342  73.5541608  38.1118544  46.8710342  75.7561608  38.4178544
 115.2830342  58.7161608 118.6798544 116.3940342  58.9811608 119.3968544
 116.3200342  58.9841608 120.7928544 115.0970342  58.7131608 121.4158544
 113.9690342  58.4441608 120.6338544 114.0860342  58.4511608 119.2408544
 117.6030342  59.2471608 118.7268544 117.1950342  59.1931608 121.3918544
 115.0240342  58.7131608 122.4938544 113.0180342  58.2341608 121.1018544
 113.2720342  58.2551608 118.5568544 118.4410342  59.4461608 119.2538544
 117.6380342  59.2411608 117.7168544 115.3530342  58.7171608 117.6718544
  98.5410342 110.3451608  55.5558544  99.6080342 110.6821608  54.8028544
  99.4130342 111.4331608  53.6398544  98.1160342 111.8181608  53.2818544
  97.0370342 111.4471608  54.0908544  97.2760342 110.6961608  55.2458544
 100.8940342 110.2731608  55.2038544 100.2500342 111.7171608  53.0188544
  97.9490342 112.3991608  52.3858544  96.0310342 111.7371608  53.8258544
  96.5080342 110.3641608  55.9298544 101.7000342 110.5201608  54.6468544
 101.0160342 109.7291608  56.0468544  98.6990342 109.8031608  56.3928544
  93.2730342  29.4001608  88.7258544  92.4710342  29.8571608  89.7088544
  92.8930342  30.9411608  90.4848544  94.1370342  31.5281608  90.2248544
  94.9370342  31.0221608  89.1958544  94.4780342  29.9371608  88.4428544
  91.2290342  29.2351608  89.9328544  92.2700342  31.3271608  91.2788544
  94.4760342  32.3661608  90.8158544  95.8990342  31.4661608  88.9838544
  95.0250342  29.4811608  87.6308544  90.6200342  29.5691608  90.6668544
  90.9410342  28.4521608  89.3628544  92.9550342  28.6171608  88.1738544
  96.1200342  32.3531608 109.2788544  96.6950342  31.2331608 109.7638544
  96.3400342  29.9941608 109.2198544  95.3980342  29.9431608 108.1868544
  94.8270342  31.1281608 107.7138544  95.2090342  32.3461608 108.2838544
  97.6370342  31.3351608 110.8038544  96.7850342  29.0821608 109.5898544
  95.1140342  28.9931608 107.7568544  94.0980342  31.1031608 106.9168544
  94.8220342  33.3101608 107.9848544  98.0740342  30.5021608 111.1748544
  97.8810342  32.2391608 111.1848544  96.3860342  33.2401608 109.6808544
 106.8670342  40.4321608 115.3508544 108.0610342  40.8051608 115.8568544
 108.8490342  39.8561608 116.5158544 108.3830342  38.5431608 116.6368544
 107.1390342  38.1991608 116.0978544 106.3820342  39.1771608 115.4468544
 108.4880342  42.1391608 115.7108544 109.8090342  40.1281608 116.9298544
 108.9800342  37.7991608 117.1428544 106.7670342  37.1881608 116.1838544
 105.4130342  39.0061608 115.0008544 109.3800342  42.4291608 116.0848544
 107.9040342  42.8111608 115.2318544 106.3100342  41.1291608 114.8778544
  57.8480342  35.1161608 112.4748544  58.2870342  33.8451608 112.3598544
  59.6550342  33.5831608 112.4748544  60.5400342  34.6431608 112.7068544
  60.0420342  35.9451608 112.8198544  58.6670342  36.1641608 112.6988544
  57.3600342  32.8121608 112.1268544  60.0340342  32.5751608 112.3868544
  61.6000342  34.4561608 112.7988544  60.7130342  36.7721608 112.9988544
  58.1920342  37.1321608 112.7708544  57.6780342  31.8571608 112.0388544
  56.3740342  33.0201608 112.0448544  56.8570342  35.2891608 112.3898544
 102.5370342  85.7111608 134.7058544 103.7950342  85.5181608 134.2598544
 104.7760342  85.0771608 135.1538544 104.4310342  84.8451608 136.4898544
 103.1140342  85.0571608 136.9098544 102.1650342  85.4991608 135.9838544
 104.0950342  85.7641608 132.9058544 105.7920342  84.9141608 134.8228544
 105.1780342  84.5041608 137.1918544 102.8350342  84.8821608 137.9388544
 101.1270342  85.6901608 136.2158544 105.0340342  85.6231608 132.5618544
 103.3740342  86.0841608 132.2748544 101.8410342  86.0291608 134.0478544
 105.9840342 113.9061608  75.7998544 105.0450342 113.5641608  76.7058544
 105.4460342 113.1311608  77.9738544 106.8110342 113.0621608  78.2748544
 107.7510342 113.4261608  77.3048544 107.3080342 113.8541608  76.0498544
 103.6840342 113.6501608  76.3578544 104.7150342 112.8511608  78.7188544
 107.1360342 112.7301608  79.2498544 108.8080342 113.3781608  77.5248544
 107.9580342 114.1541608  75.2408544 102.9720342 113.3961608  77.0288544
 103.4120342 113.9641608  75.4358544 105.6780342 114.2171608  74.8888544
  31.0090342  84.5281608 117.5448544  31.1880342  85.8391608 117.2838544
  31.7210342  86.2221608 116.0498544  32.0580342  85.2391608 115.1128544
  31.8560342  83.8911608 115.4238544  31.3200342  83.5501608 116.6698544
  30.8340342  86.7921608 118.2578544  31.8750342  87.2661608 115.8148544
  32.4710342  85.5201608 114.1548544  32.1110342  83.1211608 114.7098544
  31.1300342  82.5381608 116.9978544  30.9640342  87.7771608 118.0728544
  30.4510342  86.4961608 119.1448544  30.6230342  84.2671608 118.4408544
  83.7220342  61.9921608 135.1538544  82.7790342  62.8461608 135.6008544
  81.4540342  62.6761608 135.1868544  81.1350342  61.6261608 134.3198544
  82.1450342  60.7631608 133.8798544  83.4570342  60.9681608 134.3178544
  83.1460342  63.8881608 136.4728544  80.6780342  63.3461608 135.5308544
  80.1160342  61.4821608 133.9908544  81.9130342  59.9481608 133.2098544
  84.3000342  60.3551608 134.0318544  82.4480342  64.5331608 136.8138544
  84.1090342  63.9961608 136.7608544  84.6740342  62.1281608 135.4618544
 130.8970342  65.7501608  76.4478544 130.0760342  64.9921608  75.6928544
 130.6260342  64.0091608  74.8638544 132.0140342  63.8331608  74.8358544
 132.8290342  64.6411608  75.6348544 132.2390342  65.6131608  76.4498544
 128.6860342  65.2051608  75.7538544 129.9910342  63.3871608  74.2488544
 132.4530342  63.0771608  74.2008544 133.9020342  64.5161608  75.6228544
 132.7860342  66.2811608  77.0988544 128.0630342  64.6431608  75.1928544
 128.3070342  65.9211608  76.3578544 130.4850342  66.4561608  77.0408544
  45.2930342  49.8861608  93.1168544  44.3480342  49.6471608  94.0488544
  43.6340342  50.7221608  94.5878544  43.9160342  52.0201608  94.1508544
  44.9050342  52.2241608  93.1828544  45.5950342  51.1221608  92.6688544
  44.0990342  48.3231608  94.4578544  42.8710342  50.5581608  95.3358544
  43.3730342  52.8611608  94.5578544  45.1320342  53.2211608  92.8358544
  46.3720342  51.1811608  91.9208544  43.3930342  48.1331608  95.1548544
  44.6250342  47.5591608  94.0568544  45.8000342  49.0991608  92.7368544
  73.5970342  99.1031608  32.9788544  73.7740342  98.3621608  34.0918544
  73.4470342  97.0021608  34.0648544  72.9450342  96.4411608  32.8858544
  72.7770342  97.2461608  31.7548544  73.1160342  98.6011608  31.8238544
  74.2820342  98.9701608  35.2548544  73.5790342  96.3851608  34.9428544
  72.6880342  95.3921608  32.8498544  72.3910342  96.8251608  30.8378544
  73.0210342  99.2981608  31.0038544  74.4180342  98.4241608  36.0938544
  74.5120342  99.9541608  35.2568544  73.8380342 100.0831608  33.0148544
  42.5810342  66.6171608  50.9378544  42.8470342  67.3011608  49.8058544
  42.7630342  66.6421608  48.5748544  42.4050342  65.2901608  48.5448544
  42.1370342  64.6191608  49.7418544  42.2330342  65.3141608  50.9508544
  43.2040342  68.6601608  49.8868544  42.9710342  67.1661608  47.6528544
  42.3350342  64.7671608  47.6018544  41.8600342  63.5751608  49.7328544
  42.0460342  64.8811608  51.9228544  43.4050342  69.1821608  49.0448544
  43.2600342  69.1201608  50.7848544  42.6460342  67.1071608  51.8188544
 126.3410342  68.3981608  54.2868544 126.3400342  68.8571608  55.5548544
 127.2930342  68.3731608  56.4558544 128.2260342  67.4251608  56.0238544
 128.1920342  66.9761608  54.6998544 127.2220342  67.4851608  53.8308544
 125.3810342  69.8121608  55.9438544 127.3150342  68.7241608  57.4788544
 128.9690342  67.0421608  56.7088544 128.9070342  66.2441608  54.3528544
 127.1190342  67.1991608  52.7938544 125.3710342  70.1621608  56.8918544
 124.6990342  70.1501608  55.2788544 125.6460342  68.7571608  53.6478544
  22.2420342  83.9541608  67.7508544  22.7630342  85.1811608  67.9548544
  22.6220342  85.7801608  69.2108544  21.9450342  85.0961608  70.2258544
  21.4210342  83.8251608  69.9708544  21.5830342  83.2611608  68.7018544
  23.4360342  85.8311608  66.9038544  23.0300342  86.7631608  69.4018544
  21.8290342  85.5461608  71.2008544  20.8960342  83.2851608  70.7458544
  21.2130342  82.2881608  68.4128544  23.8300342  86.7501608  67.0468544
  23.5270342  85.3831608  66.0028544  22.3520342  83.5341608  66.8388544
  44.1810342  96.7581608  63.1638544  44.0890342  96.2181608  64.3958544
  45.1740342  95.4991608  64.9068544  46.3300342  95.3561608  64.1308544
  46.3810342  95.9331608  62.8578544  45.2750342  96.6441608  62.3838544
  42.9070342  96.3881608  65.1408544  45.1280342  95.0551608  65.8918544
  47.1760342  94.8031608  64.5118544  47.2670342  95.8301608  62.2478544
  45.2230342  97.1221608  61.4168544  42.8280342  95.9881608  66.0648544
  42.1330342  96.9111608  64.7548544  43.3890342  97.2751608  62.8088544
  40.4000342  75.9301608  92.2008544  40.2710342  74.7731608  91.5208544
  39.0050342  74.3791608  91.0778544  37.9000342  75.1941608  91.3488544
  38.0780342  76.3861608  92.0568544  39.3610342  76.7431608  92.4828544
  41.4120342  73.9861608  91.2718544  38.8730342  73.4571608  90.5298544
  36.9150342  74.9031608  91.0118544  37.2330342  77.0241608  92.2738544
  39.5950342  77.6421608  93.0348544  41.3270342  73.1181608  90.7628544
  42.3190342  74.2861608  91.6008544  41.3210342  76.2011608  92.5148544
  28.3020342 101.0931608  56.8998544  28.7880342 100.6511608  55.7218544
  28.8820342  99.2751608  55.4958544  28.4700342  98.3861608  56.4948544
  27.9720342  98.8871608  57.7018544  27.8950342 100.2701608  57.8878544
  29.1900342 101.5831608  54.7468544  29.2670342  98.8931608  54.5608544
  28.5360342  97.3191608  56.3348544  27.6500342  98.2111608  58.4818544
  27.5260342 100.7471608  58.7838544  29.5560342 101.2631608  53.8608544
  29.1170342 102.5751608  54.9288544  28.2410342 102.0901608  57.0488544
  23.7250342  98.7531608 101.6098544  24.9660342  98.3421608 101.2748544
  25.2170342  96.9731608 101.1398544  24.1790342  96.0601608 101.3548544
  22.9080342  96.5301608 101.7008544  22.6980342  97.9061608 101.8258544
  25.9780342  99.2981608 101.0678544  26.2020342  96.6171608 100.8718544
  24.3590342  95.0001608 101.2548544  22.0970342  95.8361608 101.8698544
  21.7540342  98.3601608 102.0878544  26.9110342  99.0011608 100.8168544
  25.7780342 100.2831608 101.1708544  23.5590342  99.7451608 101.7028544
 122.9600342  88.1311608  81.1008544 123.9160342  88.3961608  80.1868544
 125.2520342  88.4591608  80.5968544 125.5670342  88.2451608  81.9428544
 124.5440342  87.9721608  82.8568544 123.2220342  87.9191608  82.4068544
 123.5500342  88.6051608  78.8438544 126.0380342  88.6701608  79.8858544
 126.5950342  88.2901608  82.2738544 124.7740342  87.8051608  83.8988544
 122.3690342  87.7151608  83.0368544 124.2590342  88.8041608  78.1518544
 122.5800342  88.5571608  78.5668544 122.0000342  88.0891608  80.7898544
 110.0450342  89.5811608  28.3448544 110.6160342  89.0371608  27.2508544
 110.3320342  89.5801608  25.9928544 109.4640342  90.6731608  25.8978544
 108.8950342  91.2061608  27.0588544 109.2040342  90.6341608  28.2968544
 111.4830342  87.9381608  27.3958544 110.7760342  89.1641608  25.0998544
 109.2360342  91.1031608  24.9338544 108.2230342  92.0501608  26.9998544
 108.8140342  90.9761608  29.2438544 111.9150342  87.5231608  26.5828544
 111.6750342  87.5581608  28.3128544 110.2600342  89.1781608  29.2458544
 107.7030342  59.6411608  93.7908544 107.0730342  59.3381608  92.6378544
 105.8370342  58.6871608  92.6868544 105.2800342  58.3631608  93.9288544
 105.9670342  58.6961608  95.1008544 107.2010342  59.3471608  95.0078544
 107.6720342  59.6831608  91.4118544 105.3100342  58.4321608  91.7778544
 104.3260342  57.8601608  93.9828544 105.5490342  58.4521608  96.0668544
 107.8020342  59.6431608  95.8558544 107.2080342  59.4611608  90.5418544
 108.5660342  60.1531608  91.3958544 108.5950342  60.1111608  93.7398544
  70.4010342  45.6311608 123.7938544  69.2950342  45.3151608 123.0898544
  68.4020342  46.3291608 122.7308544  68.6740342  47.6481608 123.1088544
  69.8340342  47.9321608 123.8378544  70.7000342  46.8891608 124.1768544
  69.0630342  43.9731608 122.7328544  67.5080342  46.1031608 122.1668544
  67.9940342  48.4431608 122.8388544  70.0560342  48.9471608 124.1358544
  71.6160342  47.0121608 124.7368544  68.2370342  43.7251608 122.2058544
  69.7190342  43.2531608 123.0018544  71.0370342  44.8871608 124.0458544
 111.7660342  95.7061608  66.7858544 112.2790342  95.3731608  67.9868544
 112.5840342  96.3851608  68.9028544 112.3500342  97.7191608  68.5538544
 111.8160342  98.0201608  67.2958544 111.5260342  96.9791608  66.4098544
 112.4970342  94.0161608  68.2948544 112.9960342  96.1461608  69.8728544
 112.5810342  98.5121608  69.2498544 111.6310342  99.0461608  67.0138544
 111.1130342  97.1141608  65.4208544 112.8810342  93.7561608  69.1918544
 112.2720342  93.2981608  67.6198544 111.5510342  94.9641608  66.1348544
  68.2110342  22.3291608  88.6668544  67.5690342  21.8641608  87.5758544
  66.2880342  21.3221608  87.7178544  65.7000342  21.2721608  88.9858544
  66.4010342  21.7651608  90.0908544  67.6800342  22.3001608  89.9068544
  68.2000342  21.9351608  86.3188544  65.7510342  20.9421608  86.8598544
  64.7110342  20.8561608  89.1118544  65.9600342  21.7331608  91.0768544
  68.2950342  22.7031608  90.6978544  67.7280342  21.5901608  85.4958544
  69.1270342  22.3301608  86.2368544  69.1350342  22.7181608  88.5488544
 103.8000342  97.2231608 110.0898544 103.7300342  98.3791608 109.3988544
 104.9020342  99.1061608 109.1668544 106.1200342  98.6201608 109.6548544
 106.1460342  97.4161608 110.3668544 104.9530342  96.7201608 110.5768544
 102.4830342  98.8291608 108.9268544 104.8750342 100.0361608 108.6158544
 107.0330342  99.1701608 109.4838544 107.0800342  97.0291608 110.7498544
 104.8760342  95.7851608 111.1138544 102.4190342  99.6931608 108.4088544
 101.6460342  98.2901608 109.1058544 102.9450342  96.7091608 110.2498544
  48.1980342  28.5641608  80.8358544  49.2290342  28.1611608  81.6058544
  50.5360342  28.4531608  81.2038544  50.7460342  29.1561608  80.0118544
  49.6480342  29.5551608  79.2438544  48.3570342  29.2431608  79.6818544
  48.9690342  27.4561608  82.7968544  51.3810342  28.1421608  81.8018544
  51.7500342  29.3891608  79.6878544  49.7960342  30.0991608  78.3218544
  47.4520342  29.5091608  79.1568544  49.7340342  27.1491608  83.3808544
  48.0180342  27.2531608  83.0708544  47.2600342  28.3451608  81.1398544
  88.5650342 116.7411608 124.6288544  89.2290342 117.8831608 124.9028544
  88.5040342 119.0621608 125.1018544  87.1080342 119.0321608 125.0128544
  86.4600342 117.8261608 124.7258544  87.2220342 116.6701608 124.5338544
  90.6340342 117.8641608 124.9828544  89.0100342 119.9911608 125.3228544
  86.5340342 119.9351608 125.1638544  85.3830342 117.7891608 124.6548544
  86.8110342 115.6961608 124.3098544  91.1410342 118.7141608 125.1868544
  91.1420342 117.0031608 124.8348544  89.1030342 115.8981608 124.4878544
  63.9310342  27.4001608  74.2828544  62.7470342  28.0271608  74.4338544
  62.0290342  27.8531608  75.6218544  62.5540342  27.0321608  76.6258544
  63.7860342  26.4001608  76.4278544  64.4710342  26.6011608  75.2258544
  62.2590342  28.8431608  73.3958544  61.0780342  28.3441608  75.7698544
  62.0110342  26.8871608  77.5488544  64.2030342  25.7631608  77.1948544
  65.4250342  26.1561608  74.9838544  61.3730342  29.3181608  73.4998544
  62.7910342  28.9571608  72.5448544  64.4370342  27.5361608  73.4198544
  98.7720342  56.6181608  97.2358544  98.1300342  57.7551608  96.8998544
  96.7550342  57.8561608  97.1328544  96.0760342  56.7781608  97.7108544
  96.7810342  55.6171608  98.0438544  98.1550342  55.5561608  97.7938544
  98.8550342  58.8141608  96.3218544  96.2150342  58.7561608  96.8728544
  95.0140342  56.8411608  97.8968544  96.2700342  54.7761608  98.4898544
  98.7810342  54.7041608  98.0168544  98.3840342  59.6701608  96.0658544
  99.8480342  58.7231608  96.1588544  99.7650342  56.5601608  97.0608544
  89.7210342  52.3521608 123.1608544  90.1980342  53.0241608 122.0928544
  91.3420342  53.8141608 122.2388544  91.9670342  53.8911608 123.4888544
  91.4390342  53.1781608 124.5698544  90.2940342  52.3991608 124.3808544
  89.5350342  52.9161608 120.8558544  91.7450342  54.3631608 121.3998544
  92.8520342  54.4971608 123.6168544  91.9120342  53.2281608 125.5398544
  89.8160342  51.8161608 125.1548544  89.8830342  53.4151608 120.0488544
  88.7080342  52.3401608 120.7688544  88.8940342  51.7861608 123.0388544
  49.8020342  96.6191608 102.9678544  48.9280342  97.1911608 102.1148544
  48.7100342  98.5701608 102.1858544  49.4020342  99.3261608 103.1378544
  50.3000342  98.6921608 104.0028544  50.4890342  97.3111608 103.8988544
  48.2550342  96.3891608 101.1738544  48.0140342  99.0541608 101.5148544
  49.2430342 100.3931608 103.2048544  50.8410342  99.2641608 104.7428544
  51.1600342  96.7371608 104.5218544  47.5980342  96.8081608 100.5298544
  48.4250342  95.3941608 101.1378544  49.9490342  95.6211608 102.9038544
  33.0940342  65.4231608 107.9388544  31.9180342  65.8251608 107.4138544
  31.9140342  66.8291608 106.4398544  33.1270342  67.3941608 106.0318544
  34.3240342  66.9461608 106.6018544  34.2840342  65.9411608 107.5728544
  30.7230342  65.2281608 107.8568544  30.9860342  67.1701608 106.0028544
  33.1400342  68.1701608 105.2798544  35.2680342  67.3741608 106.2958544
  35.1540342  65.5331608 108.0668544  29.8370342  65.5221608 107.4698544
  30.7450342  64.5051608 108.5618544  33.0800342  64.6971608 108.6408544
 116.9290342  59.1671608  53.0188544 117.2430342  59.1721608  51.7068544
 117.3780342  60.3961608  51.0428544 117.1860342  61.5861608  51.7528544
 116.8620342  61.5341608  53.1128544 116.7360342  60.2911608  53.7378544
 117.4270342  57.9491608  51.0348544 117.6290342  60.4291608  49.9928544
 117.2880342  62.5391608  51.2538544 116.7110342  62.4461608  53.6728544
 116.4890342  60.1521608  54.7808544 117.6620342  57.9421608  50.0518544
 117.3240342  57.0751608  51.5298544 116.8350342  58.2751608  53.4838544
  37.6620342  69.7121608  69.4308544  37.2180342  69.7221608  70.7038544
  35.9400342  70.2201608  70.9768544  35.1510342  70.6981608  69.9248544
  35.6510342  70.6701608  68.6188544  36.9330342  70.1631608  68.3888544
  38.0470342  69.2301608  71.7298544  35.5590342  70.2401608  71.9878544
  34.1620342  71.0871608  70.1198544  35.0520342  71.0361608  67.7968544
  37.4020342  70.1011608  67.4178544  37.7240342  69.2331608  72.6868544
  38.9680342  68.8751608  71.5138544  38.5870342  69.3491608  69.2498544
  83.8580342  53.7561608 123.2708544  85.1220342  53.8501608 122.8088544
  85.5820342  52.9071608 121.8848544  84.7230342  51.8871608 121.4598544
  83.4210342  51.8271608 121.9648544  83.0000342  52.7891608 122.8868544
  85.9490342  54.8931608 123.2658544  86.5900342  52.9591608 121.4978544
  85.0650342  51.1521608 120.7458544  82.7470342  51.0451608 121.6448544
  82.0150342  52.8231608 123.3298544  86.8970342  54.9731608 122.9258544
  85.6000342  55.5651608 123.9348544  83.5400342  54.4441608 123.9378544
  58.9650342  96.2471608  88.2468544  60.1730342  96.8411608  88.3328544
  60.3490342  97.9001608  89.2278544  59.2720342  98.3211608  90.0148544
  58.0360342  97.6761608  89.8938544  57.9020342  96.6211608  88.9868544
  61.2280342  96.3841608  87.5208544  61.3070342  98.3951608  89.3168544
  59.3930342  99.1381608  90.7108544  57.1960342  97.9901608  90.4958544
  56.9890342  96.0651608  88.8258544  62.1360342  96.8221608  87.5768544
  61.0810342  95.6171608  86.8788544  58.8530342  95.4831608  87.5958544
 103.0470342  80.4171608 133.3058544 102.4180342  79.6771608 134.2418544
 101.8040342  80.3211608 135.3208544 101.8550342  81.7171608 135.4058544
 102.5180342  82.4451608 134.4138544 103.1190342  81.7631608 133.3518544
 102.3920342  78.2751608 134.1138544 101.2920342  79.7521608 136.0848544
 101.3850342  82.2281608 136.2338544 102.5660342  83.5231608 134.4668544
 103.6520342  82.2391608 132.5408544 101.9230342  77.7121608 134.8088544
 102.8420342  77.8271608 133.3278544 103.4860342  79.9371608 132.5328544
 101.8750342 122.0101608  48.9108544 101.0880342 122.9721608  48.3898544
  99.7180342 122.7301608  48.2478544  99.1940342 121.4961608  48.6498544
 100.0470342 120.5261608  49.1858544 101.4110342 120.8081608  49.3098544
 101.6590342 124.1981608  47.9998544  99.0640342 123.4841608  47.8338544
  98.1380342 121.2941608  48.5468544  99.6560342 119.5691608  49.4998544
 102.1440342 120.1231608  49.7108544 101.0780342 124.9261608  47.6078544
 102.6520342 124.3551608  48.1088544 102.8630342 122.2001608  49.0068544
  59.1830342  19.7021608  99.3678544  58.8560342  21.0101608  99.4048544
  59.3870342  21.8731608  98.4408544  60.2440342  21.3621608  97.4598544
  60.5560342  19.9981608  97.4588544  60.0050342  19.1701608  98.4408544
  57.9900342  21.4791608 100.4108544  59.1420342  22.9261608  98.4468544
  60.6620342  22.0161608  96.7088544  61.2170342  19.5901608  96.7068544
  60.1880342  18.1081608  98.5188544  57.7390342  22.4571608 100.4478544
  57.6170342  20.8411608 101.0998544  58.7920342  19.0921608 100.0708544
  35.1690342 110.4441608  71.3638544  34.9130342 111.7671608  71.3958544
  33.6040342 112.2141608  71.1878544  32.5900342 111.2801608  70.9518544
  32.8990342 109.9161608  70.9268544  34.2210342 109.5111608  71.1388544
  35.9660342 112.6701608  71.6378544  33.3710342 113.2701608  71.2088544
  31.5740342 111.6101608  70.7898544  32.1260342 109.1841608  70.7448544
  34.5530342 108.4841608  71.1378544  35.7850342 113.6641608  71.6638544
  36.9060342 112.3291608  71.7848544  36.1190342 110.1371608  71.5158544
  88.8520342  33.7721608 105.7328544  89.4280342  33.2441608 106.8318544
  90.3160342  32.1731608 106.6888544  90.5860342  31.6721608 105.4108544
  89.9670342  32.2501608 104.2978544  89.0860342  33.3191608 104.4838544
  89.1250342  33.7811608 108.0968544  90.7910342  31.7311608 107.5528544
  91.2700342  30.8451608 105.2848544  90.1670342  31.8731608 103.3048544
  88.5620342  33.8261608 103.6868544  89.5510342  33.3931608 108.9268544
  88.4800342  34.5541608 108.1808544  88.2130342  34.5451608 105.8518544
  23.8460342  61.4121608  81.9618544  24.7330342  61.0251608  81.0228544
  24.2890342  60.7951608  79.7168544  22.9340342  60.9711608  79.4128544
  22.0480342  61.3741608  80.4168544  22.5330342  61.5931608  81.7098544
  26.0860342  60.8611608  81.3758544  24.9790342  60.4851608  78.9448544
  22.5760342  60.7981608  78.4088544  21.0000342  61.5131608  80.1958544
  21.9260342  61.9041608  82.5468544  26.7590342  60.5711608  80.6808544
  26.3890342  61.0301608  82.3248544  24.1820342  61.5741608  82.8998544
  90.5060342 116.8851608 115.8068544  90.7820342 115.6361608 116.2338544
  90.9400342 115.4021608 117.6038544  90.8080342 116.4681608 118.5008544
  90.5220342 117.7481608 118.0148544  90.3710342 117.9391608 116.6378544
  90.9040342 114.5951608 115.2938544  91.1610342 114.4111608 117.9728544
  90.9280342 116.3031608 119.5618544  90.4180342 118.5801608 118.6968544
  90.1500342 118.8881608 116.1728544  91.1110342 113.6561608 115.6028544
  90.7880342 114.7831608 114.3078544  90.3940342 117.0381608 114.8148544
  98.0660342 114.7081608 115.9068544  99.3950342 114.8351608 116.0938544
 100.2650342 114.5181608 115.0458544  99.7370342 114.0761608 113.8268544
  98.3520342 113.9581608 113.6768544  97.5180342 114.2861608 114.7488544
  99.8790342 115.2841608 117.3378544 101.3350342 114.6101608 115.1678544
 100.3960342 113.8261608 113.0078544  97.9310342 113.6181608 112.7408544
  96.4390342 114.2271608 114.7258544 100.8740342 115.3821608 117.4878544
  99.2360342 115.5081608 118.0838544  97.4510342 114.9421608 116.6738544
  76.4730342  49.4231608 124.5118544  76.4560342  48.9721608 125.7828544
  75.4780342  49.4481608 126.6618544  74.5400342  50.3791608 126.2048544
  74.5940342  50.8201608 124.8788544  75.5880342  50.3201608 124.0318544
  77.4210342  48.0351608 126.1978544  75.4420342  49.1031608 127.6858544
  73.7780342  50.7561608 126.8728544  73.8750342  51.5391608 124.5128544
  75.7070342  50.6011608 122.9958544  77.4180342  47.6901608 127.1468544
  78.1210342  47.7031608 125.5478544  77.1860342  49.0701608 123.8888544
  28.5840342  77.7891608  74.2428544  29.5350342  77.0781608  74.8808544
  30.6730342  76.6731608  74.1758544  30.8000342  77.0151608  72.8248544
  29.7900342  77.7551608  72.2018544  28.6690342  78.1391608  72.9428544
  29.3630342  76.7571608  76.2408544  31.4500342  76.1021608  74.6628544
  31.6740342  76.7101608  72.2678544  29.8760342  78.0251608  71.1598544
  27.8410342  78.7101608  72.5478544  30.0690342  76.2241608  76.7288544
  28.5330342  77.0571608  76.7338544  27.7680342  78.0741608  74.7648544
  43.7920342 108.1281608  38.6818544  44.4280342 108.1561608  37.4928544
  43.6740342 108.1411608  36.3158544  42.2780342 108.0961608  36.3948544
  41.6590342 108.0681608  37.6488544  42.4490342 108.0841608  38.8018544
  45.8350342 108.2011608  37.4618544  44.1580342 108.1631608  35.3488544
  41.6820342 108.0831608  35.4938544  40.5810342 108.0331608  37.7248544
  42.0610342 108.0651608  39.8098544  46.3210342 108.2221608  36.5768544
  46.3630342 108.2101608  38.3238544  44.3500342 108.1391608  39.5228544
  75.5370342  74.2611608 129.4528544  74.5110342  73.9501608 130.2708544
  73.2740342  73.6091608 129.7138544  73.1280342  73.5971608 128.3228544
  74.2190342  73.9271608 127.5118544  75.4380342  74.2621608 128.1078544
  74.7050342  73.9751608 131.6648544  72.4350342  73.3551608 130.3468544
  72.1790342  73.3361608 127.8778544  74.1200342  73.9221608 126.4358544
  76.3320342  74.5291608 127.5648544  73.9430342  73.7441608 132.2868544
  75.6050342  74.2251608 132.0498544  76.4240342  74.5051608 129.8708544
  86.9320342  51.7461608  37.1888544  88.1890342  52.0611608  36.8158544
  88.4930342  53.3891608  36.4978544  87.4890342  54.3601608  36.5718544
  86.1980342  53.9891608  36.9628544  85.9360342  52.6511608  37.2728544
  89.1670342  51.0511608  36.7558544  89.4930342  53.6691608  36.1958544
  87.7080342  55.3891608  36.3288544  85.4130342  54.7281608  37.0248544
  84.9730342  52.2721608  37.5838544  90.1120342  51.2761608  36.4778544
  88.9290342  50.0971608  36.9888544  86.7280342  50.7831608  37.4158544
 125.7430342  58.1521608 109.4078544 124.4550342  57.8711608 109.6948544
 124.0990342  56.5571608 110.0118544 125.0840342  55.5631608 110.0258544
 126.4070342  55.8991608 109.7218544 126.7220342  57.2251608 109.4088544
 123.4990342  58.9041608 109.6688544 123.0750342  56.3031608 110.2468544
 124.8240342  54.5431608 110.2688544 127.1780342  55.1411608 109.7278544
 127.7130342  57.5771608 109.1618544 122.5320342  58.7041608 109.8818544
 123.7750342  59.8481608 109.4358544 125.9840342  59.1061608 109.1798544
  63.2870342 129.3821608  89.7628544  62.9350342 129.4981608  91.0598544
  61.8160342 130.2661608  91.3958544  61.0870342 130.8971608  90.3808544
  61.4880342 130.7501608  89.0498544  62.6120342 129.9731608  88.7558544
  63.6990342 128.8451608  92.0458544  61.5110342 130.3761608  92.4268544
  60.2200342 131.4931608  90.6258544  60.9340342 131.2311608  88.2568544
  62.9960342 129.8031608  87.7608544  63.4430342 128.9251608  93.0198544
  64.5050342 128.2951608  91.7838544  64.0980342 128.8241608  89.5358544
  48.0100342  53.1431608  87.4148544  47.0580342  52.2381608  87.1108544
  45.7170342  52.5531608  87.3498544  45.3920342  53.7981608  87.8988544
  46.4110342  54.7071608  88.1998544  47.7390342  54.3531608  87.9458544
  47.4330342  50.9981608  86.5598544  44.9330342  51.8461608  87.1148544
  44.3600342  54.0551608  88.0898544  46.1740342  55.6721608  88.6248544
  48.5910342  54.9881608  88.1448544  46.7270342  50.3131608  86.3278544
  48.4070342  50.7881608  86.3948544  48.9740342  52.9011608  87.2368544
  58.6030342  80.0591608 129.1008544  58.9470342  81.2991608 128.6958544
  60.1280342  81.4751608 127.9688544  60.9270342  80.3641608 127.6768544
  60.5320342  79.0961608 128.1168544  59.3440342  78.9631608 128.8408544
  58.1120342  82.3871608 129.0128544  60.4280342  82.4571608 127.6318544
  61.8420342  80.4841608 127.1158544  61.1390342  78.2291608 127.8988544
  58.9600342  78.0271608 129.2208544  58.3610342  83.3201608 128.7148544
  57.2630342  82.2411608 129.5408544  57.7470342  79.9481608 129.6258544
 102.9720342  87.7561608  44.0898544 102.4300342  86.5211608  44.1068544
 103.2520342  85.4121608  43.8828544 104.6170342  85.6071608  43.6458544
 105.1380342  86.9051608  43.6358544 104.2820342  87.9861608  43.8648544
 101.0510342  86.3751608  44.3498544 102.8430342  84.4111608  43.8918544
 105.2640342  84.7601608  43.4708544 106.1900342  87.0691608  43.4538544
 104.5930342  89.0211608  43.8758544 100.6350342  85.4541608  44.3658544
 100.4720342  87.1881608  44.5088544 102.3660342  88.5471608  44.2528544
  38.4310342 128.1251608  69.5888544  38.0550342 126.8631608  69.2988544
  38.0750342 125.8961608  70.3098544  38.4840342 126.2591608  71.5978544
  38.8660342 127.5791608  71.8548544  38.8320342 128.5151608  70.8168544
  37.6510342 126.5451608  67.9888544  37.7780342 124.8771608  70.1048544
  38.5040342 125.5231608  72.3888544  39.1840342 127.8731608  72.8448544
  39.1080342 129.5541608  70.9198544  37.3670342 125.6031608  67.7608544
  37.6440342 127.2571608  67.2708544  38.4120342 128.8121608  68.8488544
  80.7310342  67.7121608 128.1648544  80.5540342  66.5051608 127.5908544
  81.2580342  65.4041608 128.0868544  82.1310342  65.5781608 129.1668544
  82.2840342  66.8481608 129.7328544  81.5610342  67.9221608 129.2068544
  79.6650342  66.3781608 126.5058544  81.1360342  64.4251608 127.6458544
  82.6820342  64.7371608 129.5608544  82.9540342  66.9961608 130.5668544
  81.6140342  68.9361608 129.5768544  79.5260342  65.4781608 126.0678544
  79.1650342  67.1851608 126.1598544  80.2140342  68.4981608 127.7948544
 120.8540342  95.5841608  63.9138544 119.9180342  95.9751608  63.0258544
 120.1720342  97.0841608  62.2118544 121.3900342  97.7621608  62.3368544
 122.3320342  97.3221608  63.2708544 122.0390342  96.2091608  64.0648544
 118.7080342  95.2621608  62.9358544 119.4400342  97.4201608  61.4908544
 121.6000342  98.6201608  61.7148544 123.2770342  97.8361608  63.3778544
 122.7030342  95.7981608  64.8118544 118.0000342  95.5471608  62.2738544
 118.5410342  94.4641608  63.5328544 120.6560342  94.7811608  64.4948544
  94.7480342 126.6121608  45.3568544  93.8560342 127.6241608  45.3848544
  92.4900342 127.3301608  45.3448544  92.0770342 125.9951608  45.2768544
  93.0350342 124.9761608  45.2498544  94.3910342 125.3131608  45.2918544
  94.3190342 128.9511608  45.4538544  91.7540342 128.1211608  45.3658544
  91.0250342 125.7521608  45.2458544  92.7300342 123.9411608  45.1978544
  95.2000342 124.5971608  45.2758544  93.6600342 129.7171608  45.4748544
  95.3100342 129.1451608  45.4808544  95.7310342 126.8401608  45.3868544
  68.4050342  71.2891608 122.7298544  68.8480342  72.4661608 123.2158544
  68.5420342  73.6461608 122.5288544  67.7840342  73.5791608 121.3548544
  67.3450342  72.3361608 120.8868544  67.6730342  71.1811608 121.6028544
  69.6080342  72.4841608 124.4008544  68.8850342  74.6031608 122.8958544
  67.5400342  74.4811608 120.8138544  66.7590342  72.2701608 119.9808544
  67.3790342  70.1811608 121.3188544  69.9440342  73.3611608 124.7728544
  69.8200342  71.6221608 124.8828544  68.6340342  70.4461608 123.2378544
  22.7850342  79.0811608  47.5788544  23.8930342  79.8021608  47.8458544
  24.7340342  80.1741608  46.7918544  24.4080342  79.7911608  45.4868544
  23.2490342  79.0441608  45.2548544  22.4350342  78.6921608  46.3358544
  24.1800342  80.1641608  49.1758544  25.6290342  80.7511608  46.9778544
  25.0480342  80.0711608  44.6618544  22.9850342  78.7421608  44.2518544
  21.5230342  78.1191608  46.2548544  25.0080342  80.7031608  49.3858544
  23.5610342  79.8851608  49.9238544  22.1870342  78.8201608  48.3508544
  35.4300342  54.0061608 109.6848544  35.1500342  55.2581608 110.1008544
  34.6560342  55.4521608 111.3948544  34.4640342  54.3451608 112.2288544
  34.7670342  53.0641608 111.7568544  35.2580342  52.9131608 110.4568544
  35.3600342  56.3411608 109.2268544  34.4240342  56.4451608 111.7538544
  34.0830342  54.4791608 113.2308544  34.6230342  52.2011608 112.3898544
  35.5190342  51.9671608 110.0068544  35.1540342  57.2831608 109.5278544
  35.7170342  56.1811608 108.2948544  35.7860342  53.8821608 108.7478544
  44.5710342 122.0461608  61.3448544  44.5050342 120.7411608  61.6798544
  45.0030342 119.7831608  60.7918544  45.5590342 120.1981608  59.5758544
  45.6070342 121.5611608  59.2688544  45.0980342 122.4871608  60.1848544
  43.9370342 120.3711608  62.9138544  44.9630342 118.7311608  61.0348544
  45.9480342 119.4691608  58.8798544  46.0330342 121.8951608  58.3338544
  45.0920342 123.5571608  60.0348544  43.8830342 119.3971608  63.1748544
  43.5810342 121.0771608  63.5428544  44.2070342 122.7261608  61.9968544
 117.8280342 113.6251608 113.8168544 117.9600342 113.1201608 112.5728544
 116.8210342 112.9611608 111.7768544 115.5710342 113.3301608 112.2868544
 115.4800342 113.8501608 113.5818544 116.6430342 113.9921608 114.3448544
 119.2380342 112.7641608 112.1028544 116.8980342 112.5591608 110.7768544
 114.6820342 113.2131608 111.6848544 114.5210342 114.1381608 113.9888544
 116.6700342 114.3831608 115.3518544 119.3480342 112.3841608 111.1728544
 120.0500342 112.8851608 112.6928544 118.6600342 113.7341608 114.3788544
  48.7180342  57.8951608 103.0978544  48.9300342  58.8481608 102.1658544
  47.8310342  59.4861608 101.5818544  46.5380342  59.1231608 101.9748544
  46.3650342  58.1301608 102.9438544  47.4890342  57.5171608 103.5038544
  50.2490342  59.1791608 101.8028544  47.9720342  60.2521608 100.8328544
  45.6800342  59.6071608 101.5318544  45.3720342  57.8401608 103.2568544
  47.4540342  56.7431608 104.2568544  50.4180342  59.8911608 101.1058544
  51.0300342  58.7071608 102.2348544  49.5220342  57.4441608 103.5108544
  68.9810342  30.7451608  72.7978544  69.8520342  30.2481608  71.8968544
  69.8700342  30.7781608  70.6028544  68.9860342  31.8111608  70.2708544
  68.0990342  32.2971608  71.2378544  68.1130342  31.7391608  72.5198544
  70.7220342  29.2091608  72.2758544  70.5580342  30.3981608  69.8598544
  68.9890342  32.2301608  69.2758544  67.4110342  33.0941608  70.9948544
  67.4670342  32.0491608  73.3278544  71.3780342  28.8291608  71.6078544
  70.6940342  28.8381608  73.2148544  68.9790342  30.3521608  73.7288544
 124.8380342  76.7811608  94.9008544 125.8760342  75.9881608  94.5668544
 127.0690342  76.5731608  94.1338544 127.1610342  77.9671608  94.0548544
 126.0590342  78.7521608  94.4108544 124.8840342  78.1271608  94.8398544
 125.7380342  74.5901608  94.6618544 127.9170342  75.9611608  93.8598544
 128.0760342  78.4341608  93.7218544 126.1160342  79.8301608  94.3548544
 123.9860342  78.6491608  95.1338544 126.5090342  73.9871608  94.4138544
 124.8670342  74.1841608  94.9768544 123.9820342  76.3431608  95.2118544
 112.1110342  74.4471608  49.0178544 111.5740342  74.3071608  50.2468544
 112.2430342  73.5311608  51.1988544 113.4520342  72.9161608  50.8558544
 113.9730342  73.0871608  49.5688544 113.2730342  73.8711608  48.6478544
 110.3550342  74.9451608  50.5468544 111.8350342  73.4021608  52.1918544
 113.9800342  72.3131608  51.5798544 114.9050342  72.6181608  49.2908544
 113.5960342  74.0601608  47.6338544 109.9450342  74.8471608  51.4638544
 109.8860342  75.5011608  49.8458544 111.6160342  75.0111608  48.3418544
  64.4700342  43.3731608 114.7018544  64.2530342  42.3471608 113.8538544
  64.1760342  42.6031608 112.4808544  64.3250342  43.9141608 112.0178544
  64.5480342  44.9481608 112.9328544  64.6190342  44.6511608 114.2968544
  64.1090342  41.0441608 114.3658544  64.0030342  41.7991608 111.7788544
  64.2680342  44.1271608 110.9598544  64.6650342  45.9661608 112.5888544
  64.7870342  45.3811608 115.0748544  63.9470342  40.2691608 113.7398544
  64.1670342  40.8791608 115.3618544  64.5230342  43.1731608 115.6908544
 120.1640342  54.0221608  98.7288544 119.0780342  53.2361608  98.5858544
 118.0000342  53.6931608  97.8208544 118.0720342  54.9551608  97.2208544
 119.2170342  55.7381608  97.3948544 120.2720342  55.2441608  98.1668544
 119.0510342  51.9731608  99.2078544 117.1180342  53.0831608  97.6898544
 117.2470342  55.3221608  96.6268544 119.2860342  56.7151608  96.9368544
 121.1940342  55.7751608  98.3568544 118.2430342  51.3761608  99.1068544
 119.8390342  51.6601608  99.7578544 120.9340342  53.6781608  99.2838544
  55.1400342  29.7331608  54.7168544  55.2270342  29.9671608  53.3918544
  54.5840342  29.1011608  52.5028544  53.8650342  28.0111608  53.0068544
  53.8010342  27.8061608  54.3888544  54.4580342  28.6951608  55.2428544
  55.9620342  31.0771608  52.9318544  54.6370342  29.2651608  51.4358544
  53.3620342  27.3331608  52.3318544  53.2490342  26.9681608  54.7908544
  54.4650342  28.6181608  56.3198544  56.0330342  31.2611608  51.9408544
  56.4210342  31.6911608  53.5888544  55.6110342  30.3681608  55.3468544
  82.3440342  30.5601608  67.5678544  81.4610342  31.3071608  68.2598544
  81.5360342  32.7011608  68.1788544  82.5240342  33.2901608  67.3828544
  83.4200342  32.4771608  66.6808544  83.3110342  31.0881608  66.7888544
  80.4840342  30.6711608  69.0488544  80.8410342  33.3251608  68.7238544
  82.5940342  34.3661608  67.3098544  84.1880342  32.9181608  66.0618544
  83.9560342  30.3821608  66.2858544  79.8170342  31.2211608  69.5708544
  80.4460342  29.6621608  69.0958544  82.2770342  29.5541608  67.6358544
  58.9880342  80.0141608  26.0358544  58.2150342  78.9091608  26.0458544
  58.8190342  77.6531608  25.9368544  60.2110342  77.5691608  25.8198544
  60.9750342  78.7411608  25.8138544  60.3320342  79.9771608  25.9248544
  56.8190342  79.0431608  26.1658544  58.2230342  76.7511608  25.9428544
  60.6920342  76.6061608  25.7348544  62.0510342  78.6901608  25.7238544
  60.8370342  80.9321608  25.9298544  56.2300342  78.2221608  26.1748544
  56.4000342  79.9601608  26.2428544  58.5370342  80.9141608  26.1158544
 116.9860342 111.2911608  40.2638544 118.0110342 110.4301608  40.1028544
 117.9220342 109.4391608  39.1198544 116.7710342 109.3611608  38.3268544
 115.7310342 110.2741608  38.5278544 115.8610342 111.2501608  39.5208544
 119.1480342 110.5471608  40.9238544 118.7290342 108.7361608  38.9698544
 116.6880342 108.6011608  37.5638544 114.8380342 110.2261608  37.9228544
 115.1120342 111.9951608  39.7478544 119.9220342 109.9071608  40.8118544
 119.1950342 111.2691608  41.6298544 117.0660342 112.0011608  40.9778544
  60.4700342  32.2251608  40.3968544  60.6360342  31.7121608  41.6338544
  61.7610342  30.9251608  41.8998544  62.6880342  30.6861608  40.8788544
  62.4760342  31.2371608  39.6108544  61.3390342  32.0191608  39.3868544
  59.6760342  31.9801608  42.6278544  61.9190342  30.5021608  42.8818544
  63.5610342  30.0801608  41.0698544  63.1840342  31.0611608  38.8148544
  61.0920342  32.4841608  38.4438544  59.7920342  31.6011608  43.5578544
  58.8690342  32.5501608  42.4168544  59.6520342  32.7911608  40.2208544
  73.7340342 115.7951608  30.0918544  73.8870342 115.4861608  31.3958544
  73.6140342 116.4581608  32.3628544  73.1890342 117.7281608  31.9588544
  73.0430342 118.0061608  30.5958544  73.3260342 117.0071608  29.6608544
  74.3170342 114.1951608  31.7548544  73.7280342 116.2371608  33.4148544
  72.9740342 118.4891608  32.6948544  72.7160342 118.9831608  30.2698544
  73.2430342 117.1291608  28.5908544  74.4340342 113.9531608  32.7278544
  74.5100342 113.5051608  31.0408544  73.9350342 115.0831608  29.4048544
  66.4220342  40.7891608  41.4348544  66.7550342  40.2761608  40.2328544
  66.3750342  38.9661608  39.9208544  65.6580342  38.2181608  40.8608544
  65.3330342  38.7891608  42.0958544  65.7320342  40.1011608  42.3678544
  67.4770342  41.0671608  39.3198544  66.6290342  38.5301608  38.9658544
  65.3570342  37.2051608  40.6348544  64.7800342  38.2221608  42.8308544
  65.5270342  40.6241608  43.2908544  67.7320342  40.6921608  38.4168544
  67.7440342  42.0101608  39.5628544  66.7030342  41.7351608  41.6448544
 101.2510342 108.9601608  75.3998544 101.7750342 109.7451608  74.4368544
 103.1070342 109.5561608  74.0548544 103.8650342 108.5591608  74.6778544
 103.2810342 107.7681608  75.6718544 101.9470342 107.9881608  76.0248544
 100.9740342 110.7351608  73.8388544 103.5530342 110.1711608  73.2858544
 104.8960342 108.4021608  74.3928544 103.8550342 106.9941608  76.1608544
 101.4130342 107.4291608  76.7788544 101.3570342 111.3281608  73.1168544
 100.0130342 110.8571608  74.1288544 100.2870342 109.1081608  75.6658544
  67.7290342  28.2641608  53.4278544  68.0960342  26.9791608  53.6078544
  67.4080342  25.9711608  52.9258544  66.3550342  26.3161608  52.0718544
  66.0070342  27.6611608  51.9138544  66.7200342  28.6381608  52.6148544
  69.1620342  26.6801608  54.4768544  67.6820342  24.9321608  53.0518544
  65.8140342  25.5481608  51.5378544  65.1950342  27.9421608  51.2578544
  66.5240342  29.6991608  52.5558544  69.4460342  25.7201608  54.6188544
  69.6470342  27.4211608  54.9628544  68.2350342  28.9811608  53.9268544
  97.2580342  38.8521608  80.5568544  97.2020342  39.4321608  81.7728544
  96.0620342  39.2511608  82.5628544  95.0050342  38.4741608  82.0748544
  95.1050342  37.8911608  80.8068544  96.2620342  38.0971608  80.0498544
  98.2890342  40.2051608  82.2218544  95.9910342  39.7041608  83.5418544
  94.1180342  38.3251608  82.6728544  94.2970342  37.2891608  80.4178544
  96.4280342  37.6881608  79.0638544  98.2580342  40.6431608  83.1318544
  99.1040342  40.3251608  81.6368544  98.0880342  38.9921608  79.9978544
  47.5740342 102.6481608  71.9498544  46.2800342 102.2681608  71.9638544
  45.9190342 101.0531608  71.3728544  46.9070342 100.2591608  70.7788544
  48.2370342 100.6921608  70.7868544  48.5550342 101.9131608  71.3888544
  45.3210342 103.1001608  72.5728544  44.8900342 100.7251608  71.3698544
  46.6440342  99.3191608  70.3178544  49.0100342 100.0891608  70.3318544
  49.5520342 102.3271608  71.4428544  44.3490342 102.8251608  72.5888544
  45.6000342 103.9751608  72.9948544  47.8180342 103.5281608  72.3808544
  47.0360342 104.9781608  69.0488544  47.5010342 105.4401608  70.2278544
  48.8770342 105.4041608  70.4788544  49.7390342 104.8911608  69.5038544
  49.2140342 104.4231608  68.2958544  47.8330342 104.4761608  68.0838544
  46.5950342 105.9471608  71.1788544  49.2760342 105.7681608  71.4158544
  50.8040342 104.8571608  69.6838544  49.8690342 104.0241608  67.5338544
  47.3380342 104.1391608  67.1848544  46.9330342 106.2951608  72.0648544
  45.6050342 105.9641608  70.9798544  46.0410342 105.0101608  68.8828544
  31.2000342  71.5041608  53.2968544  30.1980342  72.3261608  52.9228544
  28.8930342  71.8281608  52.8648544  28.6550342  70.4891608  53.1948544
  29.7230342  69.6721608  53.5778544  31.0130342  70.2091608  53.6238544
  30.4870342  73.6661608  52.5998544  28.0720342  72.4641608  52.5678544
  27.6520342  70.0901608  53.1548544  29.5530342  68.6361608  53.8358544
  31.8970342  69.6561608  53.9068544  29.7440342  74.2901608  52.3178544
  31.4360342  74.0081608  52.6468544  32.1370342  71.8791608  53.3348544
 118.0600342  47.0641608  98.1578544 118.4890342  48.1521608  97.4858544
 117.8560342  49.3801608  97.7008544 116.7920342  49.4541608  98.6068544
 116.3790342  48.3011608  99.2818544 117.0390342  47.0931608  99.0378544
 119.5640342  48.0291608  96.5838544 118.1800342  50.2681608  97.1758544
 116.2930342  50.3961608  98.7828544 115.5590342  48.3441608  99.9838544
 116.7910342  46.1541608  99.5108544 119.8930342  48.8381608  96.0758544
 120.0090342  47.1331608  96.4408544 118.5280342  46.1841608  97.9918544
 109.7340342  55.9271608  77.0698544 109.4520342  57.2321608  76.8808544
 110.1900342  57.9601608  75.9418544 111.2040342  57.3211608  75.2208544
 111.4630342  55.9651608  75.4478544 110.7020342  55.2731608  76.3948544
 108.4230342  57.8331608  77.6298544 109.9850342  59.0081608  75.7708544
 111.7820342  57.8701608  74.4918544 112.2430342  55.4591608  74.8978544
 110.8290342  54.2291608  76.6378544 108.2030342  58.8101608  77.4958544
 107.9000342  57.2911608  78.3038544 109.1920342  55.4151608  77.7508544
  64.1240342 120.2991608  62.6408544  64.3060342 120.6231608  63.9378544
  65.5300342 120.3311608  64.5478544  66.5380342 119.7101608  63.8018544
  66.3070342 119.3921608  62.4598544  65.0690342 119.7011608  61.8878544
  63.2630342 121.2461608  64.6478544  65.7030342 120.5801608  65.5858544
  67.4890342 119.4791608  64.2598544  67.0770342 118.9121608  61.8718544
  64.8010342 119.4931608  60.8618544  63.3890342 121.4931608  65.6188544
  62.3850342 121.4491608  64.1898544  63.2350342 120.5161608  62.2138544
 112.0860342  66.1961608 126.1698544 111.7220342  65.2411608 127.0498544
 111.9740342  65.4381608 128.4118544 112.5960342  66.6191608 128.8308544
 112.9570342  67.5831608 127.8828544 112.6870342  67.3471608 126.5318544
 111.0980342  64.0691608 126.5818544 111.6930342  64.6891608 129.1388544
 112.7970342  66.7851608 129.8788544 113.4380342  68.4991608 128.1928544
 112.9290342  68.0311608 125.7318544 110.8220342  63.3481608 127.2328544
 110.9260342  63.9441608 125.5938544 111.8970342  66.0391608 125.1898544
  38.3390342  97.1441608 109.9258544  37.3840342  98.0701608 110.1488544
  36.1730342  97.6761608 110.7268544  35.9780342  96.3311608 111.0598544
  36.9940342  95.4031608 110.8108544  38.1900342  95.8391608 110.2318544
  37.6260342  99.4111608 109.7968544  35.3920342  98.3981608 110.9168544
  35.0480342  96.0121608 111.5068544  36.8570342  94.3621608 111.0628544
  39.0280342  95.1971608 110.0028544  36.9180342 100.1131608 109.9598544
  38.5070342  99.6771608 109.3788544  39.2080342  97.4441608 109.5078544
  49.1640342  76.5391608 121.4038544  49.5810342  77.8111608 121.2458544
  48.6360342  78.8431608 121.2468544  47.2820342  78.5331608 121.4108544
  46.8930342  77.1991608 121.5708544  47.8690342  76.1981608 121.5638544
  50.9540342  78.0751608 121.0848544  48.9430342  79.8721608 121.1218544
  46.5410342  79.3191608 121.4128544  45.8510342  76.9461608 121.6978544
  47.6640342  75.1441608 121.6808544  51.2770342  79.0241608 120.9658544
  51.6220342  77.3161608 121.0858544  49.8580342  75.8041608 121.4008544
 110.5850342 113.5231608  56.2628544 109.2770342 113.1981608  56.3048544
 108.8940342 111.9811608  56.8778544 109.8760342 111.1281608  57.3948544
 111.2210342 111.5051608  57.3318544 111.5610342 112.7301608  56.7498544
 108.3250342 114.0881608  55.7718544 107.8530342 111.6951608  56.9238544
 109.5960342 110.1851608  57.8408544 111.9890342 110.8561608  57.7268544
 112.5700342 113.1041608  56.6568544 107.3430342 113.8541608  55.7978544
 108.6200342 114.9631608  55.3608544 110.8450342 114.4061608  55.8458544
  92.9720342  56.8931608 115.9698544  94.2900342  57.0461608 116.2118544
  94.7970342  58.3311608 116.4338544  93.9280342  59.4271608 116.3988544
  92.5690342  59.2221608 116.1438544  92.1020342  57.9221608 115.9278544
  95.1260342  55.9141608 116.2368544  95.8490342  58.4831608 116.6298544
  94.3060342  60.4251608 116.5688544  91.8870342  60.0591608 116.1148544
  91.0720342  57.6671608 115.7248544  96.1140342  56.0181608 116.4168544
  94.7420342  54.9941608 116.0728544  92.6210342  55.9591608 115.8118544
  70.3340342 113.5841608 118.7658544  69.0750342 113.1011608 118.7978544
  68.8360342 111.8591608 119.3938544  69.9060342 111.1451608 119.9438544
  71.1960342 111.6831608 119.8888544  71.3920342 112.9281608 119.2838544
  68.0300342 113.8561608 118.2318544  67.8370342 111.4481608 119.4328544
  69.7370342 110.1841608 120.4068544  72.0310342 111.1421608 120.3098544
  72.3490342 113.4211608 119.1958544  67.0830342 113.5031608 118.2498544
  68.2220342 114.7511608 117.8038544  70.4900342 114.4831608 118.3318544
  25.6650342  79.3661608 103.7168544  26.2480342  79.7901608 102.5768544
  27.4300342  80.5351608 102.6518544  27.9800342  80.8231608 103.9058544
  27.3420342  80.3641608 105.0618544  26.1630342  79.6231608 104.9428544
  25.6580342  79.4751608 101.3388544  27.9180342  80.8871608 101.7548544
  28.8920342  81.3971608 103.9798544  27.7560342  80.5801608 106.0368544
  25.6010342  79.2271608 105.7778544  26.0870342  79.7881608 100.4788544
  24.8030342  78.9371608 101.3038544  24.8120342  78.8291608 103.6458544
 116.1080342 110.7981608  89.2078544 117.0620342 111.7511608  89.2068544
 116.7850342 112.9921608  88.6238544 115.5260342 113.2171608  88.0558544
 114.5660342 112.2001608  88.0798544 114.8830342 110.9741608  88.6718544
 118.3140342 111.4781608  89.7898544 117.5310342 113.7741608  88.6088544
 115.2970342 114.1701608  87.6028544 113.5900342 112.3611608  87.6448544
 114.2090342 110.1331608  88.7368544 119.0350342 112.1861608  89.7938544
 118.4960342 110.5751608  90.2058544 116.3240342 109.9071608  89.6328544
  78.9090342  27.4771608  82.5098544  78.2110342  26.8681608  83.4898544
  76.9570342  27.3741608  83.8488544  76.4550342  28.4981608  83.1838544
  77.2140342  29.0981608  82.1728544  78.4620342  28.5611608  81.8448544
  78.7560342  25.7401608  84.1308544  76.3750342  26.9061608  84.6298544
  75.4880342  28.9001608  83.4488544  76.8380342  29.9671608  81.6508544
  79.1160342  28.9551608  81.0808544  78.2410342  25.2771608  84.8668544
  79.6640342  25.3891608  83.8598544  79.8130342  27.1001608  82.2628544
 109.0790342 123.0531608  73.1108544 109.9440342 122.6301608  72.1668544
 109.5490342 121.6241608  71.2798544 108.2650342 121.0771608  71.3918544
 107.4000342 121.5451608  72.3858544 107.8340342 122.5531608  73.2518544
 111.2250342 123.2101608  72.0928544 110.2220342 121.2661608  70.5138544
 107.9460342 120.2991608  70.7138544 106.4060342 121.1311608  72.4828544
 107.2380342 122.9761608  74.0468544 111.8810342 122.9011608  71.3898544
 111.4940342 123.9361608  72.7428544 109.3790342 123.7811608  73.7428544
  60.0440342  96.7671608 135.1648544  60.5310342  98.0241608 135.1628544
  61.9150342  98.2191608 135.2008544  62.7640342  97.1071608 135.2408544
  62.2160342  95.8201608 135.2418544  60.8270342  95.6691608 135.2028544
  59.6390342  99.1121608 135.1218544  62.3330342  99.2161608 135.1998544
  63.8350342  97.2421608 135.2718544  62.8590342  94.9531608 135.2728544
  60.3140342  94.7181608 135.1998544  59.9930342 100.0581608 135.1198544
  58.6410342  98.9521608 135.0948544  59.0420342  96.6421608 135.1368544
 121.4900342 114.8941608  64.6218544 122.0600342 114.1851608  65.6168544
 121.2410342 113.5451608  66.5538544 119.8510342 113.6561608  66.4378544
 119.3030342 114.4021608  65.3898544 120.1560342 115.0261608  64.4748544
 123.4630342 114.1021608  65.6928544 121.6710342 112.9701608  67.3608544
 119.2060342 113.1681608  67.1538544 118.2310342 114.4961608  65.2888544
 119.8250342 115.6211608  63.6358544 123.9000342 113.5721608  66.4338544
 124.0390342 114.5711608  65.0078544 122.0950342 115.3501608  63.9528544
  91.2730342 102.3611608  63.1558544  91.7780342 101.1131608  63.0788544
  93.1650342 100.9391608  63.0738544  93.9980342 102.0601608  63.1488544
  93.4320342 103.3371608  63.2268544  92.0400342 103.4681608  63.2288544
  90.9010342 100.0151608  63.0058544  93.5970342  99.9491608  63.0138544
  95.0720342 101.9411608  63.1458544  94.0640342 104.2111608  63.2848544
  91.5150342 104.4101608  63.2858544  91.2690342  99.0761608  62.9478544
  89.9010342 100.1611608  63.0088544  90.2690342 102.4711608  63.1578544
  28.7920342 108.0681608  57.7678544  28.1530342 109.2241608  58.0398544
  28.9030342 110.3881608  58.2348544  30.2980342 110.3291608  58.1428544
  30.9200342 109.1091608  57.8588544  30.1340342 107.9681608  57.6708544
  26.7480342 109.2351608  58.1228544  28.4170342 111.3281608  58.4548544
  30.8910342 111.2201608  58.2908544  31.9960342 109.0491608  57.7848544
  30.5240342 106.9861608  57.4478544  26.2600342 110.0951608  58.3268544
  26.2230342 108.3841608  57.9798544  28.2370342 107.2361608  57.6298544
  40.4410342  41.3811608 107.4888544  40.0270342  40.1041608 107.6128544
  40.9800342  39.0831608 107.6868544  42.3390342  39.4081608 107.6318544
  42.7240342  40.7461608 107.5028544  41.7400342  41.7371608 107.4318544
  38.6480342  39.8251608 107.6648544  40.6760342  38.0501608 107.7868544
  43.0870342  38.6301608 107.6878544  43.7710342  41.0111608 107.4588544
  41.9410342  42.7931608 107.3318544  38.3280342  38.8711608 107.7568544
  37.9740342  40.5751608 107.6088544  39.7400342  42.1071608 107.4368544
 135.8370342  84.0151608  88.0998544 134.6850342  84.1991608  88.7768544
 134.6570342  85.1051608  89.8418544 135.8230342  85.8011608  90.1818544
 136.9960342  85.5801608  89.4528544 136.9810342  84.6651608  88.3948544
 133.5380342  83.4761608  88.3988544 133.7470342  85.2711608  90.4018544
 135.8160342  86.5041608  91.0018544 137.9030342  86.1101608  89.7038544
 137.8360342  84.4301608  87.7778544 132.6700342  83.6061608  88.8998544
 133.5770342  82.8251608  87.6268544 135.8410342  83.3581608  87.3338544
  66.9770342 132.6331608  80.2638544  68.0330342 131.8341608  80.0078544
  67.8660342 130.4461608  80.0548544  66.6080342 129.9171608  80.3648544
  65.5400342 130.7831608  80.6228544  65.7500342 132.1631608  80.5658544
  69.2800342 132.4121608  79.6998544  68.6950342 129.7831608  79.8538544
  66.4630342 128.8481608  80.4038544  64.5630342 130.3871608  80.8638544
  64.9870342 132.9061608  80.7498544  70.0770342 131.8221608  79.5068544
  69.3820342 133.4171608  79.6718544  67.1140342 133.6331608  80.2258544
 106.7740342  41.8551608  56.2158544 108.0220342  41.3801608  56.4018544
 108.2020342  40.0161608  56.6508544 107.0850342  39.1751608  56.7018544
 105.8080342  39.7101608  56.5038544 105.6720342  41.0791608  56.2578544
 109.1150342  42.2651608  56.3408544 109.1920342  39.6081608  56.8028544
 107.2090342  38.1191608  56.8938544 104.9370342  39.0711608  56.5418544
 104.7290342  41.5801608  56.0938544 110.0550342  41.9191608  56.4778544
 108.9660342  43.2481608  56.1608544 106.6600342  42.8431608  56.0368544
 112.6290342  84.9671608  88.5048544 113.0620342  84.9831608  89.7818544
 114.3470342  84.5141608  90.0728544 115.1550342  84.0391608  89.0338544
 114.6660342  84.0401608  87.7238544 113.3760342  84.5171608  87.4758544
 112.2130342  85.4711608  90.7938544 114.7180342  84.5161608  91.0878544
 116.1500342  83.6731608  89.2438544 115.2800342  83.6751608  86.9118544
 112.9150342  84.5571608  86.4988544 112.5270342  85.4881608  91.7538544
 111.2870342  85.8051608  90.5648544 111.6990342  85.3091608  88.3098544
  65.3680342  81.9991608  22.1108544  66.4840342  81.3831608  21.6698544
  67.5830342  82.1561608  21.2828544  67.5020342  83.5511608  21.3608544
  66.3250342  84.1491608  21.8238544  65.2500342  83.3401608  22.2008544
  66.5190342  79.9771608  21.6088544  68.4890342  81.6881608  20.9258544
  68.3420342  84.1621608  21.0648544  66.2490342  85.2251608  21.8888544
  64.3040342  83.7111608  22.5698544  67.3500342  79.5051608  21.2798544
  65.7150342  79.4341608  21.8918544  64.5830342  81.4271608  22.3868544
  33.8040342  47.8391608 111.1738544  34.3180342  48.4321608 110.0778544
  33.8490342  49.6951608 109.7028544  32.8580342  50.3151608 110.4718544
  32.3530342  49.6641608 111.6018544  32.8490342  48.4021608 111.9418544
  35.3130342  47.7701608 109.3348544  34.2430342  50.1941608 108.8288544
  32.4860342  51.2911608 110.1948544  31.5880342  50.1311608 112.2048544
  32.5200342  47.8241608 112.7938544  35.7050342  48.2051608 108.5118544
  35.6390342  46.8571608 109.6198544  34.1530342  46.9261608 111.4318544
 109.8550342 124.3691608  60.6508544 109.5160342 123.1371608  60.2188544
 108.2410342 122.6401608  60.5068544 107.3450342 123.4301608  61.2348544
 107.7380342 124.7021608  61.6638544 109.0210342 125.1611608  61.3558544
 110.4510342 122.3791608  59.4888544 107.9440342 121.6561608  60.1718544
 106.3570342 123.0591608  61.4648544 107.0560342 125.3221608  62.2278544
 109.4110342 126.1271608  61.6428544 110.2080342 121.4551608  59.1608544
 111.3680342 122.7541608  59.2908544 110.7790342 124.7141608  60.4348544
 100.2790342  77.6051608 116.3488544 100.3330342  77.4841608 115.0068544
 101.5550342  77.6721608 114.3538544 102.6940342  77.9821608 115.1048544
 102.5930342  78.0981608 116.4948544 101.3530342  77.9021608 117.1098544
  99.1600342  77.1711608 114.2938544 101.6260342  77.5811608 113.2788544
 103.6450342  78.1301608 114.6148544 103.4650342  78.3371608 117.0878544
 101.1790342  77.9711608 118.1738544  99.1900342  77.0781608 113.2878544
  98.2860342  77.0391608 114.7828544  99.3890342  77.4661608 116.8068544
  71.3370342 102.8711608 117.0118544  70.3370342 101.9811608 116.8518544
  70.5110342 100.9121608 115.9668544  71.7170342 100.7891608 115.2688544
  72.7280342 101.7351608 115.4658544  72.5140342 102.7881608 116.3588544
  69.1410342 102.1461608 117.5758544  69.7250342 100.1841608 115.8198544
  71.8660342  99.9681608 114.5828544  73.6640342 101.6511608 114.9328544
  73.2340342 103.5641608 116.5748544  68.3850342 101.4851608 117.4628544
  69.0330342 102.9261608 118.2098544  71.1960342 103.6381608 117.6548544
  98.9340342  45.8361608  37.9168544 100.0280342  45.1981608  37.4518544
  99.8740342  43.9771608  36.7878544  98.5910342  43.4441608  36.6208544
  97.4850342  44.1381608  37.1188544  97.6810342  45.3561608  37.7768544
 101.2980342  45.7741608  37.6428544 100.7330342  43.4451608  36.4048544
  98.4570342  42.5011608  36.1108544  96.4880342  43.7381608  36.9968544
  96.8900342  45.9621608  38.1938544 102.1240342  45.3041608  37.2978544
 101.3900342  46.6571608  38.1258544  99.0610342  46.7171608  38.3938544
  48.8250342 103.2951608  97.1128544  48.3590342 104.2951608  97.8878544
  49.1780342 105.4011608  98.1388544  50.4600342 105.4451608  97.5818544
  50.9030342 104.3851608  96.7838544  50.0540342 103.2991608  96.5578544
  47.0610342 104.2071608  98.4268544  48.8300342 106.2171608  98.7568544
  51.1040342 106.2931608  97.7668544  51.8910342 104.4071608  96.3478544
  50.3080342 102.4381608  95.9568544  46.7030342 104.9511608  99.0088544
  46.4840342 103.3991608  98.2358544  48.2210342 102.5031608  96.9408544
  57.7690342  26.4191608  75.3538544  57.9340342  25.2201608  75.9508544
  56.9410342  24.2461608  75.8078544  55.8000342  24.5351608  75.0498544
  55.6710342  25.7911608  74.4488544  56.6860342  26.7371608  74.6158544
  59.0980342  24.9761608  76.7028544  57.0470342  23.2771608  76.2748544
  55.0250342  23.7921608  74.9308544  54.7950342  26.0271608  73.8608544
  56.6740342  27.7301608  74.1908544  59.2310342  24.0811608  77.1538544
  59.8040342  25.6921608  76.7958544  58.4950342  27.1121608  75.4668544
  97.3620342 116.9221608  57.9578544  97.7480342 117.4091608  59.1548544
  98.8490342 116.8371608  59.8008544  99.5260342 115.7751608  59.1908544
  99.0920342 115.3021608  57.9488544  97.9870342 115.9011608  57.3368544
  97.0360342 118.4791608  59.7298544  99.1800342 117.2071608  60.7608544
 100.3780342 115.3231608  59.6778544  99.6050342 114.4821608  57.4668544
  97.5810342 115.6041608  56.3808544  97.3170342 118.8501608  60.6258544
  96.2420342 118.8781608  59.2488544  96.5650342 117.3461608  57.5048544
  27.4720342  59.0511608  58.0768544  26.3040342  59.4451608  58.6238544
  26.1580342  60.7721608  59.0378544  27.2250342  61.6631608  58.8768544
  28.4200342  61.2121608  58.3048544  28.5250342  59.8771608  57.9038544
  25.2580342  58.5131608  58.7658544  25.2320342  61.1151608  59.4788544
  27.1270342  62.6911608  59.1928544  29.2520342  61.8891608  58.1748544
  29.4040342  59.4401608  57.4548544  24.3790342  58.7981608  59.1738544
  25.3820342  57.5581608  58.4608544  27.5620342  58.0891608  57.7828544
  45.5610342  71.2501608  72.1668544  46.1290342  70.6581608  71.0958544
  47.1940342  69.7731608  71.2918544  47.6470342  69.5211608  72.5908544
  47.0290342  70.1551608  73.6728544  45.9670342  71.0331608  73.4348544
  45.6400342  70.9441608  69.8078544  47.6680342  69.2861608  70.4508544
  48.4690342  68.8391608  72.7578544  47.3680342  69.9691608  74.6818544
  45.4300342  71.5671608  74.2048544  46.0580342  70.5061608  68.9988544
  44.8700342  71.5871608  69.6858544  44.7930342  71.8861608  72.0098544
  27.8910342  53.4261608 104.8018544  28.2960342  54.6551608 104.4208544
  29.6130342  54.8341608 103.9858544  30.4810342  53.7371608 103.9558544
  30.0190342  52.4801608 104.3598544  28.6960342  52.3431608 104.7878544
  27.3880342  55.7291608 104.4678544  29.9650342  55.8071608 103.6738544
  31.5010342  53.8591608 103.6218544  30.6790342  51.6241608 104.3418544
  28.2510342  51.4151608 105.1178544  27.6810342  56.6531608 104.1848544
  26.4400342  55.5801608 104.7858544  26.9370342  53.3131608 105.1138544
  69.4830342  87.1331608 117.2928544  68.5280342  86.5701608 116.5258544
  68.3950342  85.1781608 116.5158544  69.2540342  84.4011608 117.2998544
  70.2320342  85.0271608 118.0798544  70.3320342  86.4211608 118.0618544
  67.6850342  87.3931608 115.7538544  67.6370342  84.7001608 115.9108544
  69.1640342  83.3241608 117.3018544  70.9030342  84.4391608 118.6898544
  71.0530342  86.9901608 118.6298544  66.9660342  86.9811608 115.1768544
  67.7970342  88.3971608 115.7738544  69.5670342  88.1401608 117.2888544
  79.8680342  70.1401608  32.4318544  78.8770342  69.2961608  32.0808544
  79.0550342  68.4561608  30.9778544  80.2560342  68.5081608  30.2618544
  81.2580342  69.3991608  30.6608544  81.0400342  70.2221608  31.7688544
  77.6850342  69.2791608  32.8308544  78.2760342  67.7701608  30.6748544
  80.4080342  67.8651608  29.4078544  82.1910342  69.4491608  30.1168544
  81.7540342  70.9381608  32.1498544  76.9360342  68.6501608  32.5768544
  77.5740342  69.8941608  33.6248544  79.7250342  70.7411608  33.2308544
  31.6500342  45.8001608  88.6638544  31.8740342  44.9841608  89.7148544
  32.9280342  45.2701608  90.5878544  33.7270342  46.3951608  90.3528544
  33.4590342  47.2141608  89.2518544  32.3960342  46.8931608  88.4028544
  31.0440342  43.8641608  89.9098544  33.1300342  44.6331608  91.4378544
  34.5440342  46.6291608  91.0188544  34.0680342  48.0861608  89.0588544
  32.1140342  47.4641608  87.5308544  31.2030342  43.2461608  90.6938544
  30.2880342  43.6721608  89.2678544  30.8850342  45.5791608  88.0428544
  49.6110342 100.1561608  83.9828544  48.3490342  99.9281608  83.5658544
  48.1380342  99.4021608  82.2878544  49.2390342  99.1231608  81.4698544
  50.5310342  99.3751608  81.9428544  50.6980342  99.9021608  83.2268544
  47.2720342 100.2251608  84.4228544  47.1370342  99.2091608  81.9278544
  49.0920342  98.7161608  80.4808544  51.3900342  99.1641608  81.3228544
  51.6550342 100.1281608  83.6758544  46.3230342 100.0581608  84.1198544
  47.4440342 100.6061608  85.3428544  49.7470342 100.5371608  84.9088544
 127.9080342 111.1261608  97.0848544 127.8430342 109.8311608  97.4548544
 126.6650342 109.1141608  97.2238544 125.5810342 109.7541608  96.6138544
 125.6910342 111.0991608  96.2458544 126.8870342 111.7801608  96.4948544
 128.9600342 109.2301608  98.0658544 126.5860342 108.0751608  97.5108544
 124.6650342 109.2131608  96.4288544 124.8620342 111.6061608  95.7738544
 127.0640342 112.8161608  96.2458544 128.9220342 108.2601608  98.3468544
 129.8030342 109.7641608  98.2258544 128.7660342 111.6311608  97.2588544
  44.0350342  83.6751608 106.1528544  45.1270342  84.4651608 106.1958544
  44.9690342  85.8511608 106.0988544  43.6850342  86.3881608 105.9598544
  42.5800342  85.5321608 105.9188544  42.7800342  84.1521608 106.0188544
  46.3990342  83.8801608 106.3368544  45.8270342  86.5081608 106.1308544
  43.5470342  87.4571608 105.8828544  41.5820342  85.9331608 105.8118544
  41.9900342  83.4151608 105.9978544  47.2240342  84.4631608 106.3708544
  46.4940342  82.8761608 106.4048544  44.1650342  82.6761608 106.2238544
  93.8790342 121.4531608  47.6738544  94.6690342 120.4811608  47.1738544
  94.7670342 119.2641608  47.8558544  94.0440342 119.0811608  49.0408544
  93.2370342 120.1161608  49.5228544  93.1670342 121.3171608  48.8108544
  95.3770342 120.7101608  45.9788544  95.3920342 118.4681608  47.4778544
  94.1100342 118.1471608  49.5788544  92.6740342 119.9891608  50.4368544
  92.5720342 122.1701608  49.1058544  95.9710342 119.9891608  45.5968544
  95.2940342 121.5971608  45.5008544  93.8190342 122.3261608  47.1698544
  57.4400342 113.7281608  71.5478544  57.7580342 112.6861608  70.7538544
  58.1670342 112.9301608  69.4388544  58.2390342 114.2491608  68.9768544
  57.9000342 115.3001608  69.8338544  57.4950342 115.0131608  71.1408544
  57.6710342 111.3761608  71.2628544  58.4280342 112.1131608  68.7808544
  58.5530342 114.4531608  67.9638544  57.9500342 116.3231608  69.4898544
  57.2150342 115.7571608  71.8728544  57.9070342 110.5881608  70.6768544
  57.3720342 111.2191608  72.2148544  57.1450342 113.5351608  72.4948544
 107.9780342  63.6901608  30.6068544 109.2640342  63.6661608  30.2008544
 109.7940342  62.4801608  29.6838544 108.9810342  61.3451608  29.5988544
 107.6530342  61.4131608  30.0318544 107.1620342  62.6191608  30.5418544
 110.0440342  64.8341608  30.3058544 110.8220342  62.4341608  29.3508544
 109.3770342  60.4221608  29.2018544 107.0140342  60.5441608  29.9718544
 106.1530342  62.7661608  30.8988544 111.0090342  64.8271608  30.0048544
 109.6440342  65.6811608  30.6838544 107.6100342  64.5541608  30.9788544
 135.5150342  68.5221608  88.6798544 134.5760342  68.8461608  89.5918544
 134.6140342  70.1101608  90.1898544 135.6240342  71.0091608  89.8298544
 136.5770342  70.6321608  88.8788544 136.5040342  69.3591608  88.3048544
 133.5800342  67.9081608  89.9228544 133.8740342  70.3961608  90.9238544
 135.6660342  71.9891608  90.2828544 137.3620342  71.3171608  88.5908544
 137.1930342  68.9811608  87.5648544 132.8720342  68.1411608  90.6048544
 133.5690342  67.0001608  89.4808544 135.4740342  67.6061608  88.2568544
  39.7160342  75.4751608 123.8248544  38.4580342  75.8481608 123.5148544
  37.4170342  74.9271608 123.6648544  37.7020342  73.6401608 124.1328544
  39.0220342  73.2941608 124.4428544  40.0330342  74.2451608 124.2788544
  38.2190342  77.1541608 123.0468544  36.3990342  75.2001608 123.4238544
  36.9080342  72.9171608 124.2548544  39.2560342  72.3041608 124.8058544
  41.0780342  74.0701608 124.4918544  37.2810342  77.4441608 122.8118544
  38.9850342  77.8061608 122.9438544  40.4580342  76.1511608 123.7108544
 107.9450342  63.2321608 129.1978544 107.4110342  62.6571608 130.2948544
 106.0600342  62.2961608 130.2868544 105.2920342  62.5391608 129.1428544
 105.8850342  63.1381608 128.0278544 107.2390342  63.4841608 128.0758544
 108.2240342  62.4311608 131.4218544 105.6070342  61.8331608 131.1518544
 104.2470342  62.2661608 129.1218544 105.3030342  63.3321608 127.1378544
 107.7810342  63.9491608 127.2658544 107.8340342  62.0011608 132.2488544
 109.1980342  62.7001608 131.4098544 108.9220342  63.4871608 129.2188544
  65.0470342  29.3861608  82.0068544  65.8740342  28.5391608  81.3608544
  67.2470342  28.8041608  81.3468544  67.7320342  29.9411608  82.0018544
  66.8390342  30.7931608  82.6598544  65.4740342  30.4921608  82.6498544
  65.3390342  27.4071608  80.7158544  67.9320342  28.1421608  80.8368544
  68.7910342  30.1591608  81.9998544  67.2010342  31.6751608  83.1698544
  64.7120342  31.0891608  83.1288544  65.9500342  26.7661608  80.2298544
  64.3440342  27.2331608  80.7358544  64.0580342  29.1811608  82.0078544
  50.0990342  92.9181608  31.6728544  50.2740342  91.6161608  31.9778544
  49.1720342  90.7561608  31.9528544  47.9130342  91.2641608  31.6138544
  47.7770342  92.6211608  31.3048544  48.9040342  93.4471608  31.3408544
  51.5600342  91.1501608  32.3128544  49.2830342  89.7081608  32.1938544
  47.0520342  90.6121608  31.5908544  46.8100342  93.0261608  31.0408544
  48.8960342  94.5041608  31.1178544  51.7010342  90.1771608  32.5438544
  52.3440342  91.7861608  32.3268544  50.9050342  93.5261608  31.6948544
  64.5930342  36.2111608 107.4858544  63.9380342  35.5251608 108.4438544
  62.6010342  35.8361608 108.7118544  61.9730342  36.8501608 107.9808544
  62.6900342  37.5371608 106.9958544  64.0250342  37.1951608 106.7598544
  64.6110342  34.5121608 109.1538544  62.0510342  35.3011608 109.4738544
  60.9400342  37.1021608 108.1768544  62.2180342  38.3231608 106.4248544
  64.6570342  37.6691608 106.0218544  64.1290342  33.9921608 109.8728544
  65.5770342  34.3021608 108.9468544  65.5580342  35.9751608 107.3048544
 125.8210342  85.3291608  72.2058544 124.9920342  86.3841608  72.0728544
 125.4820342  87.6721608  72.3088544 126.8210342  87.8381608  72.6788544
 127.6470342  86.7171608  72.8048544 127.1180342  85.4471608  72.5598544
 123.6520342  86.1671608  71.6988544 124.8390342  88.5351608  72.2098544
 127.2150342  88.8271608  72.8648544 128.6830342  86.8311608  73.0898544
 127.6770342  84.5261608  72.6328544 123.0220342  86.9501608  71.5958544
 123.3150342  85.2291608  71.5328544 125.4520342  84.4051608  72.0318544
 103.5110342  50.0831608  48.1888544 103.5140342  51.3441608  47.7098544
 102.9000342  51.6081608  46.4818544 102.2970342  50.5611608  45.7758544
 102.3180342  49.2681608  46.3098544 102.9420342  49.0461608  47.5408544
 104.1330342  52.3651608  48.4548544 102.8880342  52.6101608  46.0748544
 101.8190342  50.7501608  44.8258544 101.8560342  48.4501608  45.7758544
 103.0070342  48.0851608  48.0288544 104.1410342  53.3131608  48.1058544
 104.5720342  52.1551608  49.3408544 103.9580342  49.9081608  49.0768544
  31.9840342  52.0261608 108.0688544  31.4120342  53.2041608 108.3898544
  30.0190342  53.3231608 108.3348544  29.2510342  52.2191608 107.9488544
  29.8860342  51.0161608 107.6248544  31.2810342  50.9391608 107.6928544
  32.2250342  54.2871608 108.7728544  29.5340342  54.2551608 108.5868544
  28.1750342  52.2951608 107.9018544  29.3050342  50.1551608 107.3248544
  31.8570342  50.0541608 107.4618544  31.8070342  55.1741608 109.0148544
  33.2300342  54.1831608 108.8058544  32.9910342  51.9561608 108.1138544
  72.1050342  32.7941608  73.2768544  72.3070342  33.6531608  72.2568544
  71.3440342  34.6321608  71.9888544  70.1940342  34.6971608  72.7828544
  70.0240342  33.7861608  73.8298544  71.0110342  32.8231608  74.0648544
  73.4800342  33.5491608  71.4858544  71.4810342  35.3331608  71.1778544
  69.4410342  35.4471608  72.5878544  69.1410342  33.8251608  74.4508544
  70.9670342  32.0801608  74.8478544  73.6410342  34.1881608  70.7198544
  74.1640342  32.8351608  71.6938544  72.8090342  32.0931608  73.4578544
  48.6140342  88.0591608 132.3308544  48.9620342  89.2031608 132.9548544
  48.0850342  90.2921608 132.9218544  46.8670342  90.1711608 132.2448544
  46.5450342  88.9661608 131.6118544  47.4500342  87.9021608 131.6678544
  50.1980342  89.2781608 133.6238544  48.3390342  91.2201608 133.4138544
  46.1780342  91.0031608 132.2108544  45.6080342  88.8591608 131.0848544
  47.2890342  86.9371608 131.2098544  50.4690342  90.1301608 134.0938544
  50.8200342  88.4821608 133.6358544  49.2580342  87.2821608 132.3638544
  28.5530342 103.3361608  77.2988544  27.8150342 102.5241608  76.5148544
  26.4300342 102.7091608  76.4548544  25.8400342 103.7311608  77.2068544
  26.6430342 104.5501608  78.0068544  28.0240342 104.3321608  78.0388544
  28.4520342 101.5091608  75.7768544  25.8150342 102.0721608  75.8338544
  24.7720342 103.8861608  77.1698544  26.2010342 105.3431608  78.5918544
  28.7210342 104.9121608  78.6258544  27.9090342 100.8951608  75.1858544
  29.4540342 101.3901608  75.8338544  29.5520342 103.1901608  77.3328544
 104.6960342 117.2511608  56.1418544 105.5950342 118.2561608  56.1008544
 106.3720342 118.4291608  54.9518544 106.2010342 117.5581608  53.8698544
 105.2570342 116.5291608  53.9548544 104.5010342 116.3901608  55.1218544
 105.7320342 119.1071608  57.2138544 107.1000342 119.2261608  54.8918544
 106.7940342 117.6791608  52.9748544 105.1150342 115.8491608  53.1278544
 103.7510342 115.6281608  55.2788544 106.4020342 119.8631608  57.1928544
 105.1620342 118.9661608  58.0358544 104.1420342 117.1391608  56.9788544
  48.0370342  33.0741608  91.1568544  48.5020342  34.0901608  91.9118544
  49.4080342  33.8171608  92.9408544  49.8120342  32.4961608  93.1658544
  49.3050342  31.4721608  92.3598544  48.4020342  31.7881608  91.3408544
  48.0670342  35.4031608  91.6478544  49.7960342  34.6121608  93.5608544
  50.5110342  32.2691608  93.9578544  49.6090342  30.4481608  92.5228544
  47.9580342  31.0661608  90.6698544  48.4090342  36.1711608  92.2068544
  47.4110342  35.5811608  90.8998544  47.3840342  33.2871608  90.4168544
  29.6080342 102.1521608  45.7888544  28.5430342 101.3761608  46.0758544
  27.7610342 100.8781608  45.0288544  28.1000342 101.1951608  43.7088544
  29.2130342 102.0031608  43.4568544  29.9680342 102.4811608  44.5318544
  28.2410342 101.0851608  47.4198544  26.9020342 100.2541608  45.2298544
  27.5050342 100.8171608  42.8898544  29.4860342 102.2551608  42.4418544
  30.8420342 103.1091608  44.4348544  27.4460342 100.5041608  47.6448544
  28.8170342 101.4541608  48.1628544  30.1630342 102.5041608  46.5558544
  94.3340342  45.9851608 127.2418544  94.3350342  46.0911608 125.8968544
  95.2720342  46.9251608 125.2798544  96.1880342  47.6301608 126.0688544
  96.1520342  47.4901608 127.4598544  95.1990342  46.6461608 128.0378544
  93.3940342  45.3621608 125.1448544  95.2950342  47.0281608 124.2038544
  96.9180342  48.2771608 125.6058544  96.8530342  48.0291608 128.0808544
  95.0950342  46.4761608 129.0988544  93.3860342  45.4351608 124.1378544
  92.7230342  44.7651608 125.6088544  93.6500342  45.3791608 127.6728544
 126.1600342 106.0341608  56.5738544 125.0860342 106.8051608  56.3088544
 123.8050342 106.2611608  56.4488544 123.6660342 104.9311608  56.8598544
 124.8080342 104.1671608  57.1238544 126.0700342 104.7491608  56.9718544
 125.2750342 108.1381608  55.8978544 122.9270342 106.8571608  56.2428544
 122.6840342 104.4971608  56.9728544 124.7150342 103.1391608  57.4428544
 127.0050342 104.2391608  57.1528544 124.4770342 108.7241608  55.6978544
 126.2080342 108.5141608  55.8018544 127.0790342 106.4421608  56.4688544
  43.0340342  90.0581608  72.4808544  42.7410342  91.3741608  72.5298544
  43.5560342  92.2261608  73.2808544  44.6560342  91.6981608  73.9648544
  44.9240342  90.3271608  73.8868544  44.0840342  89.5091608  73.1248544
  41.6230342  91.8601608  71.8258544  43.3440342  93.2851608  73.3378544
  45.2950342  92.3441608  74.5498544  45.7700342  89.9061608  74.4098544
  44.2120342  88.4431608  73.0058544  41.3950342  92.8441608  71.8558544
  41.0450342  91.2291608  71.2888544  42.4360342  89.4551608  71.9338544
 109.3400342  28.1151608  77.0648544 108.2130342  28.8531608  77.0238544
 108.0500342  29.9001608  77.9358544 109.0580342  30.1591608  78.8708544
 110.2120342  29.3691608  78.8778544 110.3360342  28.3321608  77.9488544
 107.2250342  28.5551608  76.0658544 107.1560342  30.5081608  77.9258544
 108.9470342  30.9641608  79.5818544 110.9990342  29.5581608  79.5938544
 111.1880342  27.6711608  77.8788544 106.3760342  29.1021608  76.0268544
 107.3600342  27.7941608  75.4148544 109.4430342  27.3621608  76.3988544
 113.3640342  89.2871608  97.0158544 112.0590342  89.5051608  96.7528544
 111.6400342  90.7921608  96.4018544 112.5820342  91.8251608  96.3308544
 113.9250342  91.5551608  96.6118544 114.3020342  90.2541608  96.9598544
 111.1480342  88.4351608  96.8368544 110.6010342  90.9951608  96.1848544
 112.2730342  92.8241608  96.0608544 114.6620342  92.3431608  96.5608544
 115.3130342  89.9521608  97.1928544 110.1690342  88.5881608  96.6418544
 111.4690342  87.5121608  97.0928544 113.6510342  88.3521608  97.2688544
 116.4200342  72.7091608  88.1778544 116.0570342  72.0951608  89.3228544
 116.6830342  70.8971608  89.6818544 117.6710342  70.3621608  88.8478544
 118.0170342  71.0321608  87.6698544 117.3670342  72.2271608  87.3468544
 115.0580342  72.6711608  90.1298544 116.4120342  70.3841608  90.5938544
 118.1630342  69.4381608  89.1118544 118.7780342  70.6301608  87.0158544
 117.5660342  72.8121608  86.4608544 114.7790342  72.2191608  90.9888544
 114.6160342  73.5371608  89.8538544 115.9590342  73.5731608  87.9318544
  41.4110342  85.1711608  99.2088544  40.1190342  85.5331608  99.0708544
  39.7260342  86.8171608  99.4608544  40.6790342  87.6971608  99.9848544
  42.0090342  87.2801608 100.1088544  42.3600342  85.9881608  99.7078544
  39.1950342  84.6141608  98.5398544  38.6970342  87.1341608  99.3628544
  40.3910342  88.6931608 100.2898544  42.7550342  87.9501608 100.5118544
  43.3580342  85.5801608  99.7658544  38.2250342  84.8751608  98.4328544
  39.4970342  83.6901608  98.2638544  41.6790342  84.2401608  98.9218544
  37.6540342  78.5591608  76.0418544  38.1750342  78.2651608  77.2498544
  37.6070342  78.8351608  78.3938544  36.5120342  79.6951608  78.2608544
  36.0030342  79.9731608  76.9878544  36.6000342  79.3831608  75.8698544
  39.2780342  77.3941608  77.3348544  38.0060342  78.6171608  79.3748544
  36.0630342  80.1431608  79.1358544  35.1580342  80.6351608  76.8708544
  36.2760342  79.5371608  74.8508544  39.6760342  77.1671608  78.2348544
  39.6750342  76.9931608  76.4968544  38.0750342  78.1401608  75.2248544
 128.6990342  50.5611608  61.0938544 129.9560342  51.0441608  61.0318544
 131.0280342  50.1491608  60.9658544 130.7740342  48.7731608  60.9658544
 129.4540342  48.3151608  61.0318544 128.4110342  49.2431608  61.0968544
 130.1630342  52.4371608  61.0338544 132.0460342  50.5091608  60.9138544
 131.5920342  48.0691608  60.9148544 129.2430342  47.2551608  61.0328544
 127.3640342  48.9851608  61.1508544 131.1010342  52.8091608  60.9868544
 129.3760342  53.0691608  61.0828544 127.9350342  51.2211608  61.1418544
  31.4960342  62.8751608  71.3108544  30.9400342  62.5011608  70.1398544
  31.1930342  61.2171608  69.6448544  32.0150342  60.3511608  70.3728544
  32.5720342  60.7801608  71.5818544  32.2940342  62.0701608  72.0418544
  30.1190342  63.4071608  69.4438544  30.7600342  60.8921608  68.7098544
  32.2190342  59.3561608  70.0028544  33.2090342  60.1211608  72.1538544
  32.6780342  62.4881608  72.9618544  29.6970342  63.1371608  68.5658544
  29.9490342  64.3311608  69.8168544  31.3050342  63.8051608  71.6548544
 114.0580342  79.0631608  61.3098544 115.3860342  78.9551608  61.1018544
 115.9450342  77.6891608  60.9038544 115.1150342  76.5621608  60.9258544
 113.7430342  76.7191608  61.1458544 113.2250342  78.0031608  61.3388544
 116.1810342  80.1171608  61.0868544 117.0060342  77.5731608  60.7348544
 115.5320342  75.5771608  60.7748544 113.0910342  75.8581608  61.1648544
 112.1810342  78.2221608  61.5138544 117.1770342  80.0471608  60.9318544
 115.7600342  81.0241608  61.2328544 113.6700342  79.9851608  61.4508544
  68.2380342  45.4291608 113.6578544  68.8730342  46.0641608 112.6518544
  70.2450342  46.3101608 112.7588544  70.9300342  45.8931608 113.9048544
  70.2320342  45.2381608 114.9258544  68.8610342  45.0111608 114.7798544
  68.1420342  46.4641608 111.5168544  70.7780342  46.8171608 111.9668544
  71.9900342  46.0771608 114.0018544  70.7490342  44.9111608 115.8168544
  68.2410342  44.5151608 115.5118544  68.6080342  46.9401608 110.7568544
  67.1510342  46.2781608 111.4578544  67.2470342  45.2581608 113.5658544
 121.5790342  77.0681608 117.7318544 121.5930342  77.0551608 119.0798544
 121.8620342  78.2421608 119.7698544 122.1110342  79.4141608 119.0478544
 122.0870342  79.3821608 117.6498544 121.8140342  78.1751608 116.9988544
 121.3360342  75.8521608 119.7638544 121.8800342  78.2601608 120.8508544
 122.3210342  80.3381608 119.5668544 122.2780342  80.2791608 117.0798544
 121.7740342  78.0541608 115.9258544 121.3440342  75.8321608 120.7738544
 121.1450342  75.0041608 119.2488544 121.3830342  76.2031608 117.2478544
 109.2050342  26.8961608  94.2308544 110.3030342  26.9271608  93.4498544
 110.3770342  26.0761608  92.3428544 109.3100342  25.2121608  92.0698544
 108.1900342  25.2121608  92.9068544 108.1560342  26.0791608  94.0028544
 111.3510342  27.8131608  93.7638544 111.2450342  26.0801608  91.6998544
 109.3520342  24.5491608  91.2178544 107.3590342  24.5501608  92.7078544
 107.3360342  26.1491608  94.7028544 112.1780342  27.8441608  93.1848544
 111.2810342  28.4201608  94.5688544 109.1670342  27.5171608  95.0278544
  41.1440342  54.0671608  86.3998544  40.8270342  55.0051608  85.4838544
  41.7960342  55.4101608  84.5598544  43.0700342  54.8341608  84.6048544
  43.3560342  53.8651608  85.5718544  42.3600342  53.4891608  86.4778544
  39.5320342  55.5551608  85.4758544  41.5690342  56.1591608  83.8148544
  43.8290342  55.1371608  83.8978544  44.3360342  53.4131608  85.6188544
  42.4880342  52.7511608  87.2568544  39.2840342  56.2581608  84.7938544
  38.8450342  55.2511608  86.1528544  40.4340342  53.7851608  87.0608544
  29.0570342  80.5561608  98.5488544  29.0000342  81.9021608  98.4778544
  30.1340342  82.6121608  98.0738544  31.3030342  81.9131608  97.7518544
  31.3180342  80.5171608  97.8398544  30.1630342  79.8451608  98.2478544
  27.8020342  82.5621608  98.8118544  30.1160342  83.6911608  98.0078544
  32.1870342  82.4481608  97.4378544  32.2140342  79.9651608  97.5938544
  30.0810342  78.7721608  98.3448544  27.7480342  83.5691608  98.7618544
  26.9920342  82.0311608  99.1028544  28.2290342  80.0571608  98.8428544
  74.7280342 131.1361608  59.5208544  75.8920342 131.7871608  59.3218544
  75.8710342 133.0621608  58.7478544  74.6440342 133.6341608  58.3928544
  73.4610342 132.9241608  58.6168544  73.5260342 131.6521608  59.1928544
  77.1020342 131.1721608  59.6948544  76.7890342 133.6071608  58.5768544
  74.6120342 134.6191608  57.9488544  72.5070342 133.3541608  58.3478544
  72.6670342 131.0311608  59.4038544  77.9790342 131.6511608  59.5498544
  77.0980342 130.2491608  60.1078544  74.7600342 130.2161608  59.9368544
  45.5460342  91.3101608 101.8718544  45.5040342  92.6451608 102.0558544
  44.9520342  93.4551608 101.0588544  44.4560342  92.8631608  99.8918544
  44.5190342  91.4741608  99.7408544  45.0790342  90.7011608 100.7628544
  46.0160342  93.1951608 103.2468544  44.9060342  94.5281608 101.1808544
  44.0270342  93.4761608  99.1118544  44.1400342  91.0051608  98.8458544
  45.1710342  89.6251608 100.7358544  45.9900342  94.1941608 103.3948544
  46.4120342  92.5951608 103.9568544  45.9480342  90.7391608 102.6008544
  51.2990342 104.8511608  49.4488544  51.5190342 106.1801608  49.5028544
  50.4900342 107.0251608  49.9298544  49.2560342 106.4741608  50.2918544
  49.0700342 105.0891608  50.2208544  50.1250342 104.2801608  49.7878544
  52.7770342 106.6891608  49.1288544  50.6390342 108.0941608  49.9828544
  48.4510342 107.1131608  50.6238544  48.1220342 104.6501608  50.4968544
  50.0750342 103.2041608  49.7018544  52.9530342 107.6831608  49.1658544
  53.5090342 106.0631608  48.8218544  52.0520342 104.2541608  49.1378544
  90.1320342  97.9221608  21.0078544  89.9750342  98.6731608  22.1168544
  91.0840342  98.9271608  22.9308544  92.3300342  98.3981608  22.5778544
  92.4480342  97.6241608  21.4178544  91.3150342  97.3941608  20.6318544
  88.7020342  99.1841608  22.4318544  90.9860342  99.5251608  23.8258544
  93.1950342  98.5851608  23.1958544  93.4040342  97.2101608  21.1338544
  91.3100342  96.8111608  19.7228544  88.5730342  99.7471608  23.2608544
  87.9120342  98.9891608  21.8328544  89.3220342  97.7471608  20.4298544
 105.5930342  34.3521608  64.2378544 106.1300342  33.2111608  63.7598544
 105.3190342  32.3231608  63.0448544 103.9700342  32.6371608  62.8428544
 103.4550342  33.8321608  63.3558544 104.3000342  34.6921608  64.0638544
 107.4910342  32.9371608  63.9878544 105.7230342  31.4011608  62.6508544
 103.3320342  31.9611608  62.2928544 102.4160342  34.0871608  63.2068544
 103.9920342  35.6331608  64.4958544 107.9030342  32.0851608  63.6348544
 108.0620342  33.5901608  64.5078544 106.1920342  34.9831608  64.7508544
  53.0910342  53.8861608  24.7718544  54.3530342  53.9131608  25.2478544
  55.0150342  52.7051608  25.4918544  54.3560342  51.4981608  25.2378544
  53.0470342  51.5161608  24.7448544  52.4210342  52.7451608  24.5138544
  54.9760342  55.1521608  25.4878544  56.0270342  52.6971608  25.8728544
  54.8540342  50.5571608  25.4208544  52.5260342  50.5911608  24.5438544
  51.4150342  52.8581608  24.1358544  55.9210342  55.1831608  25.8438544
  54.4820342  56.0141608  25.3068544  52.6270342  54.7671608  24.6008544
 131.8440342  67.1701608  46.9088544 132.3220342  68.4151608  46.7118544
 131.4230342  69.4721608  46.5408544 130.0480342  69.2161608  46.5768544
 129.5950342  67.9091608  46.7838544 130.5270342  66.8811608  46.9508544
 133.7140342  68.6251608  46.6828544 131.7790342  70.4801608  46.3808544
 129.3410342  70.0221608  46.4468544 128.5360342  67.6971608  46.8138544
 130.2720342  65.8441608  47.1148544 134.0830342  69.5541608  46.5358544
 134.3490342  67.8491608  46.8078544 132.5060342  66.4171608  47.0308544
  39.4830342  93.3761608  34.7018544  39.8610342  92.3061608  33.9738544
  39.0680342  91.1541608  33.9908544  37.9000342  91.1381608  34.7618544
  37.5450342  92.2701608  35.5008544  38.3660342  93.4011608  35.4568544
  41.0450342  92.3691608  33.2138544  39.3470342  90.2821608  33.4168544
  37.2770342  90.2561608  34.7848544  36.6450342  92.2711608  36.1008544
  38.1730342  94.3191608  35.9928544  41.3370342  91.5731608  32.6648544
  41.6060342  93.2091608  33.2148544  40.0670342  94.2001608  34.6788544
  76.5190342  50.2911608 104.6768544  76.7700342  51.5281608 105.1518544
  78.0150342  51.7961608 105.7298544  78.9710342  50.7771608 105.8028544
  78.6680342  49.5091608 105.2978544  77.4120342  49.2821608 104.7278544
  75.7770342  52.5211608 105.0568544  78.2430342  52.7781608 106.1188544
  79.9370342  50.9691608 106.2468544  79.3970342  48.7131608 105.3468544
  77.0890342  48.3381608 104.3128544  75.9550342  53.4511608 105.4098544
  74.8830342  52.3091608 104.6368544  75.6150342  50.1131608 104.2618544
 112.0680342 120.5871608  62.0338544 111.2570342 119.5991608  61.6028544
 111.8160342 118.3741608  61.2238544 113.2030342 118.2011608  61.2998544
 114.0060342 119.2521608  61.7528544 113.4080342 120.4601608  62.1218544
 109.8680342 119.8201608  61.5438544 111.1900342 117.5661608  60.8748544
 113.6490342 117.2601608  61.0108544 115.0780342 119.1311608  61.8158544
 113.9460342 121.3251608  62.4818544 109.2520342 119.0871608  61.2218544
 109.4820342 120.7121608  61.8198544 111.6490342 121.4661608  62.3038544
  96.8130342  48.4471608  48.1598544  97.1880342  47.3561608  48.8568544
  96.3400342  46.2441608  48.8918544  95.1230342  46.2881608  48.2038544
  94.7730342  47.4411608  47.4928544  95.6490342  48.5301608  47.4828544
  98.4220342  47.3581608  49.5338544  96.6160342  45.3561608  49.4428544
  94.4570342  45.4371608  48.2218544  93.8360342  47.4881608  46.9568544
  95.4650342  49.4591608  46.9638544  98.7130342  46.5451608  50.0588544
  99.0220342  48.1701608  49.4978544  97.4360342  49.2421608  48.1438544
 108.6700342  58.5861608 128.2368544 107.6260342  59.4401608 128.2568544
 106.5680342  59.2031608 129.1398544 106.6150342  58.0871608 129.9828544
 107.7160342  57.2271608 129.9288544 108.7530342  57.5001608 129.0318544
 107.6230342  60.5501608 127.3908544 105.7190342  59.8721608 129.1768544
 105.8050342  57.8911608 130.6698544 107.7650342  56.3621608 130.5738544
 109.6410342  56.8951608 128.9198544 106.8460342  61.1961608 127.3978544
 108.3960342  60.7051608 126.7588544 109.4260342  58.7711608 127.5928544
 125.1060342  70.2861608 116.4168544 124.1300342  69.4711608 115.9668544
 123.1460342  69.9901608 115.1198544 123.1950342  71.3401608 114.7568544
 124.2260342  72.1501608 115.2468544 125.1890342  71.5921608 116.0918544
 124.1210342  68.1191608 116.3588544 122.3520342  69.3601608 114.7438544
 122.4420342  71.7551608 114.1028544 124.2760342  73.1941608 114.9748544
 126.0190342  72.1371608 116.5178544 123.3950342  67.5011608 116.0278544
 124.8400342  67.7631608 116.9738544 125.8090342  69.8971608 117.0288544
 118.1860342 103.3321608  82.1658544 117.7160342 102.4411608  83.0628544
 116.7670342 102.8561608  84.0028544 116.3260342 104.1831608  83.9928544
 116.8400342 105.0741608  83.0448544 117.7870342 104.6201608  82.1228544
 118.1890342 101.1161608  83.0338544 116.3740342 102.1621608  84.7328544
 115.5930342 104.5181608  84.7128544 116.5080342 106.1021608  83.0268544
 118.2380342 105.2331608  81.3568544 117.8440342 100.4401608  83.7008544
 118.8760342 100.8351608  82.3478544 118.8710342 103.0181608  81.4938544
  94.6660342  27.3061608  99.0528544  95.7090342  27.9261608  99.6418544
  95.6980342  29.3201608  99.7548544  94.6090342  30.0401608  99.2538544
  93.5480342  29.3571608  98.6498544  93.5980342  27.9631608  98.5568544
  96.7830342  27.1591608 100.1308544  96.5210342  29.8421608 100.2218544
  94.5860342  31.1171608  99.3328544  92.7000342  29.9011608  98.2588544
  92.8280342  27.3521608  98.1088544  97.5690342  27.6131608 100.5738544
  96.7740342  26.1531608 100.0398544  94.6880342  26.2991608  98.9788544
  53.7530342 128.9251608  75.5788544  54.7690342 129.7491608  75.2528544
  55.2780342 130.6201608  76.2218544  54.7220342 130.6171608  77.5058544
  53.6690342 129.7451608  77.8008544  53.1900342 128.8911608  76.8038544
  55.2960342 129.7171608  73.9478544  56.0920342 131.2911608  75.9888544
  55.1050342 131.2841608  78.2658544  53.2310342 129.7331608  78.7878544
  52.3820342 128.1861608  76.9378544  56.0580342 130.3301608  73.6938544
  54.9150342 129.0821608  73.2608544  53.3960342 128.3021608  74.8678544
  45.3690342  36.5851608  79.0558544  46.3550342  37.3011608  79.6328544
  46.8620342  36.8911608  80.8698544  46.3360342  35.7481608  81.4818544
  45.3140342  35.0341608  80.8478544  44.8360342  35.4781608  79.6108544
  46.8530342  38.4451608  78.9798544  47.6520342  37.4471608  81.3548544
  46.7170342  35.4181608  82.4368544  44.8990342  34.1491608  81.3088544
  44.0510342  34.9931608  79.0488544  47.5910342  38.9891608  79.4038544
  46.4730342  38.7271608  78.0868544  45.0140342  36.8941608  78.1618544
 134.0660342 102.9861608  61.1148544 133.4210342 103.7261608  60.1898544
 132.1620342 104.2521608  60.4938544 131.5980342 104.0001608  61.7498544
 132.3020342 103.2271608  62.6788544 133.5580342 102.7201608  62.3348544
 134.0280342 103.9541608  58.9398544 131.6230342 104.8491608  59.7708544
 130.6260342 104.4001608  61.9988544 131.8780342 103.0251608  63.6528544
 134.1730342 102.1151608  62.9858544 133.5540342 104.5071608  58.2398544
 134.9380342 103.5651608  58.7368544 134.9750342 102.6131608  60.8798544
 110.7430342  59.0811608  35.1318544 110.2540342  60.3281608  35.2898544
 109.0390342  60.6641608  34.6848544 108.3580342  59.7031608  33.9298544
 108.9020342  58.4221608  33.7918544 110.1190342  58.1261608  34.4128544
 110.9740342  61.2621608  36.0588544 108.6230342  61.6561608  34.7948544
 107.4190342  59.9481608  33.4568544 108.3870342  57.6701608  33.2118544
 110.6150342  57.1671608  34.3628544 110.6160342  62.1981608  36.1828544
 111.8500342  61.0001608  36.4878544 111.6220342  58.8531608  35.5748544
  93.2890342 101.1711608  46.3098544  93.2680342 100.0741608  45.5258544
  94.2520342  99.0951608  45.6968544  95.2350342  99.2741608  46.6758544
  95.2190342 100.4271608  47.4668544  94.2180342 101.3821608  47.2648544
  92.2590342  99.9371608  44.5538544  94.2590342  98.2061608  45.0818544
  96.0020342  98.5271608  46.8188544  95.9730342 100.5781608  48.2268544
  94.1250342 102.3001608  47.8258544  92.2340342  99.1201608  43.9618544
  91.5560342 100.6561608  44.4448544  92.5710342 101.8691608  46.1748544
  52.8410342 123.1011608 116.6538544  52.2110342 122.0651608 117.2428544
  52.9300342 120.8981608 117.5208544  54.2850342 120.8301608 117.1808544
  54.9000342 121.9281608 116.5708544  54.1460342 123.0761608 116.3108544
  50.8460342 122.1791608 117.5668544  52.4490342 120.0521608 117.9928544
  54.8540342 119.9351608 117.3888544  55.9460342 121.8891608 116.3028544
  54.5330342 123.9701608 115.8438544  50.3640342 121.4091608 118.0088544
  50.3420342 123.0301608 117.3578544  52.3090342 123.9371608 116.4598544
 125.8350342  91.3281608 118.3458544 127.1510342  91.4681608 118.0828544
 127.9990342  90.3681608 118.2458544 127.4660342  89.1491608 118.6778544
 126.0960342  89.0481608 118.9398544 125.2820342  90.1721608 118.7638544
 127.6410342  92.7141608 117.6498544 129.0570342  90.4521608 118.0418544
 128.1090342  88.2911608 118.8088544 125.6710342  88.1131608 119.2748544
 124.2170342  90.1891608 118.9408544 128.6250342  92.8291608 117.4498544
 127.0130342  93.4981608 117.5388544 125.2350342  92.1321608 118.2228544
  97.5730342  40.7201608  99.1548544  98.3100342  41.4851608  99.9858544
  97.7610342  41.8881608 101.2068544  96.4630342  41.4891608 101.5408544
  95.7340342  40.6951608 100.6498544  96.3190342  40.3141608  99.4388544
  99.6120342  41.8621608  99.6068544  98.3300342  42.5021608 101.8918544
  96.0260342  41.7931608 102.4818544  94.7300342  40.3801608 100.8958544
  95.8340342  39.7031608  98.6908544 100.1720342  42.4361608 100.2208544
  99.9910342  41.5621608  98.7188544  97.9830342  40.4361608  98.2758544
 121.9640342  97.1741608  97.9798544 121.9160342  95.8291608  98.0568544
 120.6720342  95.1931608  98.1168544 119.5050342  95.9651608  98.0958544
 119.6010342  97.3581608  98.0158544 120.8640342  97.9541608  97.9578544
 123.1170342  95.0941608  98.0738544 120.6050342  94.1161608  98.1788544
 118.5370342  95.4881608  98.1418544 118.7080342  97.9661608  97.9988544
 121.0360342  99.0191608  97.8938544 123.0920342  94.0851608  98.1318544
 124.0070342  95.5701608  98.0308544 122.8700342  97.6191608  97.9368544
  78.9360342 123.9381608  45.7188544  77.6950342 124.1711608  46.1918544
  76.6100342 124.1241608  45.3108544  76.8340342 123.8351608  43.9598544
  78.1380342 123.5991608  43.5128544  79.1950342 123.6571608  44.4248544
  77.5180342 124.4581608  47.5578544  75.6040342 124.3071608  45.6628544
  76.0060342 123.7951608  43.2678544  78.3250342 123.3751608  42.4718544
  80.2320342 123.4891608  44.1718544  76.5920342 124.6341608  47.9228544
  78.3140342 124.4891608  48.1798544  79.7100342 123.9761608  46.3668544
  97.8540342 133.9671608  73.5978544  97.2110342 134.8011608  72.7558544
  95.8520342 134.5951608  72.4968544  95.1900342 133.5301608  73.1178544
  95.8950342 132.6901608  73.9848544  97.2530342 132.9301608  74.2158544
  97.9190342 135.8591608  72.1548544  95.3130342 135.2481608  71.8258544
  94.1400342 133.3591608  72.9278544  95.3960342 131.8641608  74.4708544
  97.8770342 132.3361608  74.8668544  97.4470342 136.4891608  71.5218544
  98.9020342 135.9921608  72.3518544  98.8350342 134.1291608  73.7738544
 112.9440342  49.7261608  97.4878544 112.8420342  50.9041608  98.1368544
 113.6950342  51.9541608  97.7828544 114.6350342  51.7601608  96.7648544
 114.7070342  50.5221608  96.1178544 113.8360342  49.4991608  96.5018544
 111.8800342  51.0521608  99.1538544 113.6350342  52.9081608  98.2858544
 115.3010342  52.5621608  96.4798544 115.4290342  50.3591608  95.3298544
 113.8180342  48.5131608  96.0608544 111.7950342  51.9301608  99.6458544
 111.2730342  50.2821608  99.3968544 112.3210342  48.9781608  97.7548544
  96.8360342  97.1971608  60.0938544  98.1160342  97.6071608  60.1998544
  98.3810342  98.9071608  60.6438544  97.3140342  99.7521608  60.9678544
  96.0010342  99.2851608  60.8428544  95.7800342  97.9791608  60.3958544
  99.1570342  96.7221608  59.8628544  99.3980342  99.2621608  60.7378544
  97.5030342 100.7581608  61.3118544  95.1680342  99.9271608  61.0898544
  94.8040342  97.5331608  60.2688544 100.1200342  97.0191608  59.9388544
  98.9470342  95.7871608  59.5428544  96.6610342  96.2561608  59.7718544
 108.0030342 130.2731608  59.7008544 107.9090342 131.6151608  59.7978544
 106.9850342 132.2931608  58.9958544 106.1800342 131.5661608  58.1118544
 106.3110342 130.1751608  58.0438544 107.2460342 129.5351608  58.8628544
 108.7400342 132.3041608  60.7008544 106.8890342 133.3681608  59.0528544
 105.4620342 132.0751608  57.4868544 105.6950342 129.6011608  57.3668544
 107.4170342 128.4691608  58.8798544 108.6770342 133.3091608  60.7808544
 109.4020342 131.7971608  61.2718544 108.6750342 129.7971608  60.2868544
  77.2140342  61.3271608 123.1458544  77.8220342  60.1541608 122.8778544
  79.2130342  60.1231608 122.7388544  79.9430342  61.3081608 122.8808544
  79.2720342  62.5031608 123.1588544  77.8800342  62.4911608 123.2898544
  77.0460342  58.9871608 122.7438544  79.7270342  59.1961608 122.5238544
  81.0190342  61.3001608 122.7758544  79.8230342  63.4261608 123.2698544
  77.2780342  63.3621608 123.5028544  77.4920342  58.1031608 122.5438544
  76.0420342  59.0281608 122.8468544  76.2090342  61.3331608 123.2438544
 104.2340342 129.9171608 101.4698544 103.5880342 128.7521608 101.2588544
 104.3280342 127.5691608 101.1638544 105.7200342 127.6191608 101.2898544
 106.3500342 128.8481608 101.5098544 105.5740342 130.0081608 101.5978544
 102.1850342 128.7521608 101.1368544 103.8350342 126.6221608 100.9938544
 106.3050342 126.7131608 101.2188544 107.4250342 128.9011608 101.6088544
 105.9710342 130.9981608 101.7648544 101.6910342 127.8851608 100.9788544
 101.6680342 129.6171608 101.2078544 103.6860342 130.7631608 101.5368544
  34.1680342  39.1161608  95.5228544  33.6670342  39.8671608  94.5208544
  32.3070342  39.7651608  94.2068544  31.4980342  38.8891608  94.9388544
  32.0600342  38.1291608  95.9698544  33.4230342  38.2601608  96.2508544
  34.5190342  40.7341608  93.8128544  31.8790342  40.3551608  93.4088544
  30.4470342  38.8001608  94.7078544  31.4460342  37.4491608  96.5428544
  33.9420342  37.7161608  97.0268544  34.1540342  41.3011608  93.0608544
  35.4990342  40.7941608  94.0528544  35.1510342  39.2001608  95.7368544
 101.2260342  60.2251608  39.9558544 100.4510342  60.7851608  39.0048544
  99.3040342  61.4881608  39.3878544  98.9860342  61.5951608  40.7468544
  99.8190342  60.9981608  41.6988544 100.9550342  60.3041608  41.2748544
 100.8100342  60.6511608  37.6508544  98.6650342  61.9481608  38.6468544
  98.1040342  62.1351608  41.0578544  99.5850342  61.0731608  42.7508544
 101.6550342  59.8131608  41.9348544 100.2360342  61.0671608  36.9308544
 101.6420342  60.1381608  37.3928544 102.0510342  59.7201608  39.6628544
  66.6700342  33.5691608  98.6548544  66.3820342  34.5241608  99.5638544
  65.0690342  34.6471608 100.0288544  64.0840342  33.7801608  99.5428544
  64.4270342  32.8051608  98.6008544  65.7510342  32.7141608  98.1618544
  67.4050342  35.3731608 100.0238544  64.8100342  35.4031608 100.7568544
  63.0650342  33.8641608  99.8928544  63.6760342  32.1291608  98.2178544
  66.1080342  31.9951608  97.4398544  67.2000342  36.0911608 100.7038544
  68.3480342  35.2691608  99.6748544  67.6230342  33.4921608  98.3288544
  63.6200342 126.1631608  83.1358544  62.5550342 126.9511608  83.3878544
  61.2970342 126.3641608  83.5568544  61.1700342 124.9741608  83.4608544
  62.3010342 124.1941608  83.1988544  63.5400342 124.8201608  83.0358544
  62.7310342 128.3451608  83.4748544  60.4270342 126.9721608  83.7598544
  60.2050342 124.5061608  83.5898544  62.2170342 123.1191608  83.1218544
  64.4650342 124.3011608  82.8308544  61.9400342 128.9441608  83.6628544
  63.6480342 128.7511608  83.3488544  64.5220342 126.6011608  83.0158544
  48.1040342  90.8101608  65.8268544  47.4490342  89.6531608  66.0528544
  47.9590342  88.7531608  66.9948544  49.1350342  89.0721608  67.6818544
  49.7830342  90.2831608  67.4158544  49.2410342  91.1541608  66.4668544
  46.2690342  89.3751608  65.3378544  47.4540342  87.8191608  67.1958544
  49.5410342  88.3871608  68.4118544  50.6920342  90.5421608  67.9388544
  49.6690342  92.1081608  66.1968544  45.7700342  88.5121608  65.4998544
  45.9160342  90.0371608  64.6608544  47.7240342  91.4491608  65.1438544
 132.6300342  61.7631608  68.5498544 131.2880342  61.8501608  68.6428544
 130.6840342  63.1121608  68.6408544 131.4850342  64.2551608  68.5428544
 132.8740342  64.1191608  68.4488544 133.4370342  62.8401608  68.4538544
 130.5230342  60.6721608  68.7388544 129.6100342  63.2101608  68.7138544
 131.0330342  65.2361608  68.5408544 133.5040342  64.9941608  68.3728544
 134.4960342  62.6371608  68.3858544 129.5170342  60.7261608  68.8088544
 130.9770342  59.7691608  68.7398544 133.0510342  60.8451608  68.5518544
  49.0390342 103.0011608 115.1268544  50.2080342 102.5251608 115.6008544
  50.8660342 103.2241608 116.6178544  50.2990342 104.4001608 117.1208544
  49.0840342 104.8581608 116.5998544  48.4590342 104.1301608 115.5828544
  50.7410342 101.3381608 115.0638544  51.8050342 102.8651608 117.0168544
  50.7950342 104.9501608 117.9068544  48.6350342 105.7641608 116.9788544
  47.5220342 104.4051608 115.1208544  51.6160342 100.9731608 115.4128544
  50.2520342 100.8471608 114.3288544  48.5760342 102.4851608 114.3918544
 120.8660342  39.1101608  60.7298544 120.8370342  38.0721608  59.8698544
 121.0920342  36.7831608  60.3498544 121.3720342  36.5991608  61.7078544
 121.3910342  37.7051608  62.5648544 121.1310342  38.9761608  62.0448544
 120.5510342  38.3051608  58.5118544 121.0750342  35.9321608  59.6828544
 121.5710342  35.6101608  62.0928544 121.6060342  37.5771608  63.6158544
 121.1240342  39.8861608  62.6278544 120.5270342  37.5341608  57.8598544
 120.3700342  39.2441608  58.1828544 120.6800342  40.0351608  60.3678544
 106.0430342  96.0871608  30.6928544 104.9380342  96.6891608  31.1788544
 104.7430342  98.0521608  30.9378544 105.6960342  98.7621608  30.1998544
 106.8270342  98.0981608  29.7138544 106.9840342  96.7341608  29.9768544
 104.0070342  95.9341608  31.9168544 103.8660342  98.5601608  31.3158544
 105.5580342  99.8161608  30.0058544 107.5710342  98.6341608  29.1418544
 107.8230342  96.1401608  29.6438544 103.1760342  96.3751608  32.2858544
 104.1650342  94.9491608  32.0818544 106.1700342  95.1011608  30.8748544
  34.6450342 109.8601608  67.2038544  34.4320342 111.0721608  66.6528544
  33.1450342 111.6191608  66.6838544  32.1080342 110.8991608  67.2858544
  32.3730342 109.6451608  67.8458544  33.6730342 109.1341608  67.7928544
  35.5070342 111.7601608  66.0578544  32.9470342 112.5891608  66.2488544
  31.1090342 111.3081608  67.3168544  31.5810342 109.0781608  68.3138544
  33.9710342 108.1781608  68.1978544  35.3580342 112.6691608  65.6418544
  36.4300342 111.3491608  66.0438544  35.5790342 109.4781608  67.1738544
 130.8340342  81.5441608  95.1098544 130.1760342  81.2761608  96.2568544
 130.8350342  80.5781608  97.2738544 132.1600342  80.1741608  97.0808544
 132.8050342  80.4731608  95.8758544 132.1110342  81.1721608  94.8848544
 128.8430342  81.7031608  96.4048544 130.3310342  80.3501608  98.2028544
 132.6820342  79.6341608  97.8578544 133.8280342  80.1671608  95.7138544
 132.5250342  81.4471608  93.9258544 128.3410342  81.5081608  97.2598544
 128.3830342  82.2061608  95.6588544 130.3450342  82.0491608  94.3848544
  30.5780342  77.7451608 106.1348544  29.7350342  76.9351608 106.8068544
  29.7560342  75.5611608 106.5448544  30.6500342  75.0581608 105.5928544
  31.5070342  75.9341608 104.9198544  31.4540342  77.3011608 105.2108544
  28.8540342  77.4871608 107.7558544  29.0920342  74.8891608 107.0688544
  30.6780342  73.9991608 105.3798544  32.2010342  75.5591608 104.1818544
  32.0750342  78.0511608 104.7428544  28.2190342  76.8881608 108.2648544
  28.8520342  78.4821608 107.9308544  30.5510342  78.7351608 106.3348544
  76.3960342  61.4271608 129.5798544  77.3340342  61.2221608 130.5268544
  78.6850342  61.2451608 130.1648544  79.0340342  61.4811608 128.8298544
  78.0280342  61.6891608 127.8808544  76.6900342  61.6581608 128.2838544
  76.9350342  60.9881608 131.8558544  79.4570342  61.0831608 130.9028544
  80.0730342  61.5021608 128.5358544  78.2840342  61.8721608 126.8468544
  75.8480342  61.8071608 127.6228544  77.6300342  60.8331608 132.5728544
  75.9550342  60.9741608 132.0988544  75.4250342  61.4071608 129.8568544
  62.6650342  27.3911608 108.1058544  64.0130342  27.4161608 108.1288544
  64.7060342  26.3361608 108.6838544  63.9870342  25.2531608 109.2028544
  62.5890342  25.2681608 109.1578544  61.9350342  26.3671608 108.5948544
  64.6930342  28.5271608 107.5938544  65.7860342  26.3301608 108.7148544
  64.5080342  24.4111608 109.6348544  62.0220342  24.4391608 109.5558544
  60.8620342  26.4671608 108.5168544  65.7030342  28.5561608 107.6068544
  64.1750342  29.2991608 107.1978544  62.1780342  28.1781608 107.7018544
  67.1550342  65.3381608  32.3368544  66.0630342  65.4731608  31.5568544
  65.1920342  64.3881608  31.4108544  65.4710342  63.1891608  32.0748544
  66.6150342  63.0931608  32.8738544  67.4600342  64.2001608  32.9938544
  65.8230342  66.6981608  30.9078544  64.3090342  64.4691608  30.7918544
  64.8080342  62.3431608  31.9718544  66.8430342  62.1731608  33.3928544
  68.3630342  64.2201608  33.5868544  65.0080342  66.8101608  30.3218544
  66.4640342  67.4711608  31.0248544  67.7750342  66.1301608  32.4328544
 113.6610342 116.5561608 114.1558544 114.4850342 116.5001608 113.0898544
 114.1050342 115.7471608 111.9738544 112.8810342 115.0691608 111.9868544
 112.0570342 115.1551608 113.1138544 112.4730342 115.9191608 114.2088544
 115.7070342 117.1981608 113.1218544 114.7470342 115.6841608 111.1058544
 112.5750342 114.4841608 111.1328544 111.1090342 114.6371608 113.1378544
 111.9060342 116.0431608 115.1198544 116.3310342 117.1621608 112.3288544
 115.9640342 117.7361608 113.9378544 113.9490342 117.1041608 114.9538544
 130.4170342 106.1221608  94.6248544 129.3820342 105.2611608  94.5498544
 129.3500342 104.1561608  95.4058544 130.3910342 103.9671608  96.3208544
 131.4460342 104.8841608  96.3658544 131.4400342 105.9751608  95.4918544
 128.3570342 105.4931608  93.6128544 128.5310342 103.4511608  95.3668544
 130.3800342 103.1181608  96.9888544 132.2560342 104.7501608  97.0668544
 132.2090342 106.7331608  95.4538544 127.5760342 104.8551608  93.5478544
 128.3970342 106.2961608  93.0008544 130.4260342 106.9151608  93.9998544
 105.6460342  90.3941608  32.1398544 104.9630342  89.9941608  31.0478544
 105.3590342  90.4541608  29.7888544 106.4540342  91.3201608  29.6878544
 107.1340342  91.7101608  30.8458544 106.7060342  91.2261608  32.0858544
 103.8670342  89.1221608  31.1988544 104.8290342  90.1501608  28.8978544
 106.7720342  91.6841608  28.7218544 107.9810342  92.3771608  30.7828544
 107.1680342  91.4711608  33.0308544 103.3490342  88.8161608  30.3878544
 103.5950342  88.8001608  32.1168544 105.3480342  90.0521608  33.0428544
  62.9640342 111.3331608  43.8578544  62.4370342 110.5621608  42.8848544
  62.9550342 109.2811608  42.6728544  64.0080342 108.8261608  43.4748544
  64.5250342 109.6581608  44.4728544  63.9780342 110.9321608  44.6518544
  61.3780342 111.0631608  42.1028544  62.5520342 108.6421608  41.8998544
  64.4190342 107.8381608  43.3238544  65.3380342 109.3201608  45.0988544
  64.3110342 111.6421608  45.3948544  60.9760342 110.4941608  41.3718544
  61.0170342 111.9921608  42.2698544  62.5790342 112.2561608  43.9978544
  60.4270342  23.5081608  67.0858544  59.4340342  23.6131608  67.9928544
  59.6250342  24.4151608  69.1218544  60.8390342  25.0901608  69.2878544
  61.8420342  24.9531608  68.3228544  61.6120342  24.1411608  67.2078544
  58.2300342  22.9151608  67.7838544  58.8460342  24.5181608  69.8648544
  61.0010342  25.7141608  70.1548544  62.7850342  25.4691608  68.4378544
  62.3250342  23.9761608  66.4138544  57.4800342  22.9871608  68.4568544
  58.1110342  22.3391608  66.9618544  60.2750342  22.9251608  66.2758544
  48.5420342  87.2221608  95.8498544  49.3870342  87.7461608  94.9388544
  50.4620342  88.5271608  95.3748544  50.6380342  88.7471608  96.7458544
  49.7380342  88.1841608  97.6558544  48.6760342  87.4101608  97.1778544
  49.1700342  87.4971608  93.5698544  51.1540342  88.9591608  94.6668544
  51.4630342  89.3481608  97.0978544  49.8610342  88.3461608  98.7168544
  47.9340342  86.9371608  97.8038544  49.7970342  87.8851608  92.8788544
  48.3870342  86.9311608  93.2728544  47.7710342  86.6601608  95.5188544
 103.5050342  26.6161608  61.8848544 103.4720342  27.5351608  62.8708544
 103.9070342  28.8371608  62.6028544 104.3650342  29.1581608  61.3208544
 104.3820342  28.1731608  60.3278544 103.9390342  26.8831608  60.6358544
 103.0020342  27.1661608  64.1448544 103.8910342  29.5941608  63.3748544
 104.7040342  30.1591608  61.0998544 104.7340342  28.4071608  59.3328544
 103.9150342  26.0611608  59.9358544 102.9740342  27.8471608  64.8908544
 102.6930342  26.2201608  64.3198544 103.1880342  25.6791608  62.0928544
  46.9700342  34.6711608  98.7998544  46.4060342  33.4461608  98.7698544
  45.0120342  33.3361608  98.7838544  44.2330342  34.4981608  98.8288544
  44.8590342  35.7481608  98.8588544  46.2550342  35.8141608  98.8438544
  47.2310342  32.3061608  98.7248544  44.5340342  32.3671608  98.7598544
  43.1550342  34.4291608  98.8398544  44.2690342  36.6531608  98.8938544
  46.8250342  36.7321608  98.8638544  46.8190342  31.3841608  98.7018544
  48.2370342  32.4051608  98.7158544  47.9780342  34.7341608  98.7888544
 102.4930342  88.0191608 125.1888544 103.2150342  86.8801608 125.1828544
 104.5230342  86.9051608 124.6898544 105.0540342  88.1081608 124.2138544
 104.2700342  89.2661608 124.2378544 102.9670342  89.1991608 124.7398544
 102.6380342  85.6921608 125.6728544 105.1240342  86.0061608 124.6728544
 106.0630342  88.1431608 123.8288544 104.6670342  90.2021608 123.8728544
 102.2890342  90.0381608 124.7978544 103.1710342  84.8341608 125.6728544
 101.6910342  85.6941608 126.0238544 101.5490342  87.9851608 125.5488544
  87.4170342 130.4981608  71.8228544  86.9320342 131.7511608  71.7008544
  85.5490342 131.9441608  71.6438544  84.6980342 130.8361608  71.7138544
  85.2430342 129.5541608  71.8398544  86.6310342 129.4041608  71.8938544
  87.8270342 132.8351608  71.6338544  85.1330342 132.9381608  71.5468544
  83.6260342 130.9701608  71.6718544  84.5970342 128.6891608  71.8958544
  87.1410342 128.4571608  71.9898544  87.4750342 133.7781608  71.5428544
  88.8240342 132.6761608  71.6758544  88.4190342 130.3751608  71.8628544
 108.5170342  54.6901608  34.3038544 108.9920342  53.4281608  34.3438544
 108.2860342  52.4561608  35.0588544 107.1040342  52.8121608  35.7168544
 106.6470342  54.1321608  35.6498544 107.3820342  55.0741608  34.9238544
 110.1860342  53.1171608  33.6668544 108.6440342  51.4371608  35.1078544
 106.5470342  52.0721608  36.2738544 105.7350342  54.4211608  36.1528544
 107.1080342  56.1131608  34.8158544 110.5510342  52.1751608  33.6898544
 110.6840342  53.8331608  33.1558544 109.0380342  55.3811608  33.7838544
  30.7080342  71.2091608 104.7408544  29.6000342  71.6711608 105.3558544
  29.7230342  72.3101608 106.5938544  30.9910342  72.4561608 107.1668544
  32.1130342  71.9621608 106.4948544  31.9470342  71.3301608 105.2598544
  28.3450342  71.5001608 104.7398544  28.8510342  72.6891608 107.1078544
  31.1010342  72.9481608 108.1228544  33.0980342  72.0691608 106.9268544
  32.7530342  70.9181608 104.6698544  27.5090342  71.8421608 105.1918544
  28.2760342  71.0351608 103.8458544  30.6030342  70.7501608 103.8478544
 108.8000342  62.2981608 101.8038544 107.6080342  61.6691608 101.7778544
 106.4370342  62.4311608 101.7018544 106.5290342  63.8261608 101.6538544
 107.7860342  64.4371608 101.6828544 108.9320342  63.6391608 101.7598544
 107.5650342  60.2631608 101.8278544 105.4680342  61.9531608 101.6788544
 105.6330342  64.4271608 101.5938544 107.8710342  65.5131608 101.6468544
 109.9420342  64.0201608 101.7868544 106.6770342  59.7821608 101.8088544
 108.4220342  59.7291608 101.8848544 109.6370342  61.7341608 101.8598544
  29.8020342  79.3371608  38.5508544  29.0020342  78.2721608  38.7618544
  27.7290342  78.4741608  39.3048544  27.3130342  79.7731608  39.6158544
  28.1760342  80.8491608  39.3808544  29.4400342  80.6041608  38.8368544
  29.4630342  76.9841608  38.4338544  27.0660342  77.6391608  39.4848544
  26.3330342  79.9451608  40.0358544  27.8680342  81.8571608  39.6158544
  30.1720342  81.3691608  38.6208544  28.8710342  76.1791608  38.5878544
  30.3860342  76.8571608  38.0428544  30.7190342  79.1751608  38.1578544
 113.0810342 103.8731608 120.5758544 114.3610342 104.2851608 120.4778544
 114.6330342 105.6551608 120.4088544 113.5720342 106.5681608 120.4428544
 112.2600342 106.0971608 120.5448544 112.0310342 104.7191608 120.6118544
 115.3950342 103.3301608 120.4468544 115.6500342 106.0131608 120.3288544
 113.7670342 107.6291608 120.3898544 111.4310342 106.7901608 120.5728544
 111.0540342 104.2641608 120.6928544 116.3570342 103.6281608 120.3738544
 115.1790342 102.3441608 120.4978544 112.9000342 102.8801608 120.6258544
 109.3270342  61.9191608 114.9688544 110.5790342  61.4311608 114.8528544
 110.7590342  60.0631608 114.6258544 109.6380342  59.2311608 114.5238544
 108.3580342  59.7801608 114.6508544 108.2210342  61.1521608 114.8768544
 111.6760342  62.3061608 114.9618544 111.7510342  59.6451608 114.5288544
 109.7610342  58.1721608 114.3488544 107.4840342  59.1491608 114.5738544
 107.2760342  61.6641608 114.9868544 112.6180342  61.9511608 114.8768544
 111.5270342  63.2921608 115.1268544 109.2140342  62.9091608 115.1318544
  35.6950342  44.3481608  52.2758544  36.2840342  43.3151608  52.9128544
  35.5820342  42.6451608  53.9188544  34.2860342  43.0591608  54.2438544
  33.7130342  44.1361608  53.5588544  34.4490342  44.7791608  52.5588544
  37.5900342  42.9341608  52.5508544  36.0300342  41.8141608  54.4448544
  33.7310342  42.5511608  55.0198544  32.7130342  44.4661608  53.7998544
  34.0900342  45.6161608  51.9778544  38.0410342  42.1621608  53.0218544
  38.0830342  43.4311608  51.8218544  36.2150342  44.8221608  51.5518544
 132.6990342 109.7231608  75.9978544 133.7790342 109.0911608  76.4998544
 133.6240342 108.2491608  77.6058544 132.3530342 108.0801608  78.1658544
 131.2590342 108.7541608  77.6128544 131.4580342 109.5871608  76.5078544
 135.0380342 109.2921608  75.9028544 134.4720342 107.7301608  78.0288544
 132.2170342 107.4321608  79.0198544 130.2720342 108.6331608  78.0348544
 130.6760342 110.1471608  76.0148544 135.8540342 108.8241608  76.2718544
 135.1310342 109.9061608  75.1058544 132.8270342 110.3281608  75.1988544
 134.6280342  78.0891608 110.0038544 133.5950342  78.9511608 109.9178544
 132.2930342  78.4491608 109.8298544 132.0900342  77.0641608 109.8328544
 133.1910342  76.2061608 109.9238544 134.4760342  76.7491608 110.0108544
 133.8470342  80.3361608 109.9188544 131.4460342  79.1171608 109.7588544
 131.0900342  76.6611608 109.7648544 133.0480342  75.1351608 109.9268544
 135.3830342  76.1671608 110.0838544 133.0800342  80.9911608 109.8538544
 134.7950342  80.6811608 109.9818544 135.5620342  78.4671608 110.0678544
  72.3370342 124.9601608  40.4848544  72.3780342 123.8011608  39.7968544
  71.8050342 123.7441608  38.5218544  71.2040342 124.8901608  37.9888544
  71.1840342 126.0711608  38.7368544  71.7680342 126.0851608  40.0068544
  72.9940342 122.6751608  40.3738544  71.8240342 122.8281608  37.9488544
  70.7580342 124.8611608  37.0048544  70.7230342 126.9631608  38.3368544
  71.8010342 126.9491608  40.6558544  73.0290342 121.8011608  39.8668544
  73.4010342 122.7341608  41.2968544  72.7550342 124.9851608  41.4038544
  88.2620342  38.2261608  51.7918544  89.1080342  37.2961608  52.2798544
  89.1030342  36.0131608  51.7248544  88.2230342  35.7211608  50.6778544
  87.3620342  36.7151608  50.2018544  87.3980342  37.9861608  50.7838544
  89.9750342  37.6361608  53.3348544  89.7710342  35.2481608  52.0978544
  88.2080342  34.7341608  50.2398544  86.6770342  36.5041608  49.3938544
  86.7730342  38.8141608  50.4838544  90.6130342  36.9471608  53.7078544
  89.9640342  38.5691608  53.7238544  88.2770342  39.1491608  52.2018544
  66.5060342  31.4831608  42.3848544  67.6960342  32.0861608  42.1828544
  67.7990342  33.4681608  42.3678544  66.6700342  34.1951608  42.7588544
  65.4560342  33.5291608  42.9588544  65.3940342  32.1471608  42.7628544
  68.8050342  31.3141608  41.7888544  68.7400342  33.9771608  42.2118544
  66.7340342  35.2631608  42.9058544  64.5760342  34.0781608  43.2608544
  64.5040342  31.5491608  42.8918544  69.7000342  31.7561608  41.6348544
  68.7110342  30.3161608  41.6588544  66.4470342  30.4841608  42.2468544
  94.2400342  52.9081608 101.2068544  94.9860342  54.0261608 101.3148544
  96.3640342  53.9081608 101.5228544  96.9380342  52.6361608 101.6138544
  96.1270342  51.5021608 101.4958544  94.7540342  51.6641608 101.2888544
  94.3640342  55.2851608 101.2168544  96.9860342  54.7881608 101.6128544
  98.0010342  52.5291608 101.7738544  96.5570342  50.5141608 101.5638544
  94.0500342  50.8501608 101.1858544  94.9140342  56.1291608 101.2968544
  93.3670342  55.3511608 101.0678544  93.2460342  53.0091608 101.0568544
 105.8700342  96.7841608  54.8998544 106.9160342  96.7031608  54.0518544
 107.9670342  95.8291608  54.3478544 107.9110342  95.0591608  55.5138544
 106.8080342  95.1741608  56.3658544 105.7780342  96.0591608  56.0338544
 106.9280342  97.4981608  52.8898544 108.8170342  95.7451608  53.6858544
 108.7160342  94.3801608  55.7558544 106.7520342  94.5851608  57.2698544
 104.8890342  96.2151608  56.6278544 107.7060342  97.4451608  52.2488544
 106.1590342  98.1241608  52.6938544 105.1180342  97.4191608  54.6728544
  35.0320342  43.8451608  64.4098544  34.1410342  44.7301608  63.9188544
  34.5120342  46.0731608  63.7928544  35.7970342  46.4681608  64.1788544
  36.6900342  45.5171608  64.6828544  36.2790342  44.1851608  64.7928544
  32.8590342  44.2861608  63.5428544  33.8170342  46.8031608  63.4028544
  36.0980342  47.5021608  64.0878544  37.6850342  45.8081608  64.9848544
  36.8970342  43.3831608  65.1688544  32.1840342  44.9411608  63.1738544
  32.6080342  43.3121608  63.6418544  34.7490342  42.8791608  64.4938544
  32.6970342  57.8521608  51.2828544  32.6470342  57.3961608  50.0148544
  32.5660342  58.3131608  48.9628544  32.5400342  59.6831608  49.2478544
  32.5940342  60.1131608  50.5778544  32.6740342  59.1621608  51.5998544
  32.6760342  56.0081608  49.7768544  32.5240342  57.9751608  47.9368544
  32.4780342  60.4041608  48.4458544  32.5740342  61.1671608  50.8118544
  32.7200342  59.3991608  52.6528544  32.6390342  55.6561608  48.8308544
  32.7330342  55.3601608  50.5498544  32.7550342  57.1771608  52.0318544
  40.5370342  65.7121608  39.6468544  41.8850342  65.7591608  39.6278544
  42.6080342  64.5621608  39.5848544  41.9190342  63.3451608  39.5618544
  40.5210342  63.3431608  39.5828544  39.8360342  64.5611608  39.6258544
  42.5350342  67.0071608  39.6518544  43.6890342  64.5701608  39.5688544
  42.4640342  62.4121608  39.5288544  39.9760342  62.4101608  39.5658544
  38.7600342  64.6581608  39.6448544  43.5440342  67.0531608  39.6378544
  41.9960342  67.8611608  39.6838544  40.0290342  66.5851608  39.6778544
  35.1740342 102.8501608  45.8198544  34.1370342 102.6181608  46.6498544
  33.3720342 101.4601608  46.4798544  33.6980342 100.5681608  45.4528544
  34.7820342 100.8471608  44.6138544  35.5210342 102.0161608  44.8178544
  33.8470342 103.5451608  47.6698544  32.5360342 101.2501608  47.1318544
  33.1160342  99.6691608  45.3088544  35.0440342 100.1661608  43.8168544
  36.3710342 102.3141608  44.2218544  33.0730342 103.3811608  48.2978544
  34.4100342 104.3771608  47.7768544  35.7170342 103.6911608  45.9548544
  28.1610342  57.6581608  88.4228544  27.3410342  57.3221608  87.4068544
  26.2230342  58.1191608  87.1398544  25.9800342  59.2471608  87.9318544
  26.8570342  59.5591608  88.9758544  27.9630342  58.7361608  89.2088544
  27.6250342  56.1781608  86.6378544  25.5490342  57.8721608  86.3318544
  25.1210342  59.8721608  87.7378544  26.6820342  60.4271608  89.5948544
  28.6920342  58.8971608  89.9898544  27.0170342  55.9171608  85.8738544
  28.4370342  55.6131608  86.8458544  28.9640342  57.0721608  88.6028544
  76.2620342  55.2371608  35.5948544  75.2990342  56.0941608  35.1978544
  74.0050342  55.9481608  35.7068544  73.7380342  54.9191608  36.6158544
  74.7660342  54.0531608  37.0008544  76.0460342  54.2331608  36.4678544
  75.6160342  57.1141608  34.2808544  73.2140342  56.6211608  35.4058544
  72.7430342  54.7941608  37.0188544  74.5730342  53.2541608  37.7018544
  76.9000342  53.6151608  36.7058544  74.9020342  57.7611608  33.9768544
  76.5570342  57.2031608  33.9228544  77.1920342  55.3551608  35.2178544
  55.3860342 103.1871608 127.0518544  54.7770342 104.3171608 127.4638544
  55.5560342 105.3821608 127.9268544  56.9490342 105.2511608 127.9538544
  57.5390342 104.0601608 127.5178544  56.7240342 103.0201608 127.0618544
  53.3720342 104.4031608 127.4178544  55.0950342 106.3001608 128.2618544
  57.5650342 106.0651608 128.3088544  58.6140342 103.9461608 127.5328544
  57.0880342 102.0671608 126.7068544  52.9060342 105.2451608 127.7238544
  52.8250342 103.6231608 127.0808544  54.8090342 102.4271608 126.7198544
  77.6720342  32.5441608 110.9118544  78.2370342  33.6061608 110.3038544
  78.8690342  33.4281608 109.0688544  78.9010342  32.1541608 108.4918544
  78.3030342  31.0801608 109.1578544  77.6820342  31.3001608 110.3908544
  78.1790342  34.8701608 110.9218544  79.3300342  34.2631608 108.5588544
  79.3860342  32.0011608 107.5388544  78.3210342  30.0901608 108.7238544
  77.1950342  30.5341608 110.9768544  78.5990342  35.6721608 110.4748544
  77.7190342  34.9791608 111.8148544  77.2200342  32.6891608 111.8038544
  93.4730342  50.4871608 113.0518544  92.3830342  51.2761608 112.9618544
  91.2480342  50.7961608 112.2998544  91.2680342  49.5111608 111.7468544
  92.4200342  48.7281608 111.8628544  93.5330342  49.2441608 112.5328544
  92.4090342  52.5611608 113.5338544  90.3600342  51.4071608 112.2128544
  90.3990342  49.1281608 111.2318544  92.4490342  47.7341608 111.4398544
  94.4640342  48.7141608 112.6718544  91.5980342  53.1601608 113.4728544
  93.2390342  52.8911608 114.0078544  94.2850342  50.8481608 113.5328544
  88.1730342  43.8601608 128.3418544  88.1340342  42.5121608 128.3508544
  86.8950342  41.8661608 128.3948544  85.7230342  42.6301608 128.4298544
  85.8090342  44.0261608 128.4198544  87.0680342  44.6331608 128.3748544
  89.3390342  41.7861608 128.3148544  86.8350342  40.7871608 128.4028544
  84.7590342  42.1451608 128.4638544  84.9120342  44.6281608 128.4458544
  87.2320342  45.7011608 128.3638544  89.3220342  40.7761608 128.3208544
  90.2260342  42.2701608 128.2838544  89.0750342  44.3131608 128.3098544
 111.4220342  68.1061608  85.3088544 112.6230342  68.7081608  85.1978544
 113.6570342  68.3331608  86.0608544 113.4240342  67.3421608  87.0208544
 112.1620342  66.7431608  87.1018544 111.1560342  67.1471608  86.2198544
 112.8110342  69.7011608  84.2168544 114.6290342  68.8001608  85.9938544
 114.2130342  67.0421608  87.6948544 111.9690342  65.9761608  87.8378544
 110.1540342  66.7421608  86.2078544 113.7070342  70.1581608  84.1248544
 112.0510342  69.9591608  83.6018544 110.6850342  68.3881608  84.6788544
  48.7940342  61.0101608  51.0828544  48.2020342  59.8091608  50.9228544
  48.9810342  58.6491608  50.9908544  50.3560342  58.7601608  51.2218544
  50.9300342  60.0251608  51.3828544  50.1160342  61.1591608  51.3078544
  46.8140342  59.7471608  50.6918544  48.5320342  57.6741608  50.8658544
  50.9710342  57.8731608  51.2768544  51.9910342  60.1251608  51.5618544
  50.4690342  62.1741608  51.4188544  46.3610342  58.8531608  50.5708544
  46.2680342  60.5961608  50.6458544  48.2180342  61.8381608  51.0318544
  74.5440342 126.6091608 108.4358544  75.4640342 125.6241608 108.4968544
  75.2390342 124.5331608 109.3418544  74.0680342 124.4871608 110.1058544
  73.1410342 125.5301608 110.0128544  73.4030342 126.6031608 109.1548544
  76.6270342 125.7141608 107.7088544  75.9590342 123.7301608 109.4098544
  73.8810342 123.6511608 110.7638544  72.2330342 125.5081608 110.5968544
  72.7490342 127.4511608 109.0178544  77.3220342 124.9821608 107.7468544
  76.7730342 126.5111608 107.1048544  74.7210342 127.3901608 107.8208544
  69.8850342  40.2061608 108.2388544  69.3520342  41.3701608 107.8148544
  69.9910342  42.0801608 106.7938544  71.1660342  41.5681608 106.2338544
  71.6840342  40.3561608 106.7038544  71.0150342  39.6781608 107.7268544
  68.1670342  41.8451608 108.4088544  69.5850342  43.0151608 106.4348544
  71.6710342  42.1051608 105.4438544  72.5910342  39.9501608 106.2798544
  71.3390342  38.7391608 108.1518544  67.7600342  42.7161608 108.0988544
  67.7210342  41.3191608 109.1468544  69.4120342  39.7041608 108.9778544
  43.3560342 113.8291608  73.9258544  42.5940342 114.3711608  72.9538544
  42.9320342 114.1411608  71.6158544  44.0510342 113.3561608  71.3158544
  44.8130342 112.8141608  72.3558544  44.4410342 113.0681608  73.6798544
  41.4780342 115.1531608  73.3038544  42.3390342 114.5631608  70.8168544
  44.3240342 113.1711608  70.2878544  45.6790342 112.2071608  72.1378544
  44.9670342 112.6931608  74.5458544  40.9010342 115.5631608  72.5838544
  41.2500342 115.3091608  74.2758544  43.0990342 114.0041608  74.8878544
  86.7100342  55.7381608 127.4288544  88.0170342  55.4051608 127.4468544
  88.9790342  56.4201608 127.4508544  88.5660342  57.7571608 127.4358544
  87.2000342  58.0571608 127.4168544  86.2710342  57.0131608 127.4138544
  88.3850342  54.0471608 127.4608544  90.0330342  56.1821608 127.4648544
  89.2980342  58.5521608 127.4388544  86.8680342  59.0851608 127.4058544
  85.1990342  57.1481608 127.3998544  89.3610342  53.7861608 127.4748544
  87.6750342  53.3271608 127.4568544  86.0270342  54.9941608 127.4258544
  32.7180342  40.4241608  99.6148544  33.3740342  41.4431608  99.0248544
  32.6470342  42.5411608  98.5538544  31.2560342  42.5581608  98.7048544
  30.6160342  41.4791608  99.3228544  31.3800342  40.4011608  99.7788544
  34.7750342  41.3821608  98.8958544  33.1470342  43.3721608  98.0768544
  30.6800342  43.3981608  98.3458544  29.5420342  41.4781608  99.4458544
  30.9740342  39.5261608 100.2668544  35.2760342  42.1411608  98.4548544
  35.2840342  40.5811608  99.2408544  33.2580342  39.6381608  99.9498544
 105.0890342 103.4281608 112.0148544 105.3420342 102.9281608 113.2418544
 106.1940342 101.8261608 113.3668544 106.7640342 101.2661608 112.2188544
 106.4750342 101.8161608 110.9658544 105.6180342 102.9181608 110.8838544
 104.7450342 103.5251608 114.3688544 106.4140342 101.4061608 114.3378544
 107.4240342 100.4151608 112.2998544 106.9080342 101.3931608 110.0708544
 105.3380342 103.4081608 109.9628544 104.9290342 103.1591608 115.2918544
 104.1320342 104.3201608 114.2588544 104.4720342 104.2241608 111.9408544
  37.9040342  56.2261608  61.8858544  37.0370342  56.8401608  62.7158544
  37.5090342  57.3881608  63.9118544  38.8700342  57.2891608  64.2218544
  39.7350342  56.6441608  63.3328544  39.2220342  56.1091608  62.1468544
  35.6760342  56.9151608  62.3618544  36.8360342  57.8861608  64.5958544
  39.2500342  57.7081608  65.1428544  40.7880342  56.5601608  63.5588544
  39.8120342  55.5951608  61.4018544  35.0180342  57.3731608  62.9768544
  35.3530342  56.5121608  61.4938544  37.5480342  55.8341608  61.0258544
 121.2540342  47.7541608 103.6938544 122.5300342  48.0981608 103.9618544
 123.4990342  47.0951608 104.0668544 123.1250342  45.7591608 103.8918544
 121.7900342  45.4461608 103.6148544 120.8520342  46.4791608 103.5178544
 122.8600342  49.4571608 104.1298544 124.5290342  47.3431608 104.2808544
 123.8620342  44.9731608 103.9708544 121.4870342  44.4181608 103.4778544
 119.8020342  46.3341608 103.3078544 123.8130342  49.7251608 104.3308544
 122.1460342  50.1671608 104.0508544 120.5660342  48.4901608 103.6208544
  73.0600342  36.5121608 124.8168544  72.5940342  36.4881608 123.5518544
  71.4500342  35.7381608 123.2618544  70.8140342  35.0301608 124.2878544
  71.3320342  35.0841608 125.5858544  72.4780342  35.8451608 125.8348544
  73.2660342  37.2161608 122.5528544  71.0540342  35.7011608 122.2558544
  69.9300342  34.4471608 124.0788544  70.8510342  34.5421608 126.3878544
  72.9480342  35.9451608 126.8018544  72.9250342  37.2041608 121.6018544
  74.0920342  37.7511608 122.7808544  73.8870342  37.0591608 125.0118544
  76.0890342 119.7281608  39.2228544  77.3510342 119.6991608  39.6958544
  78.4150342 119.9071608  38.8118544  78.1470342 120.1411608  37.4588544
  76.8230342 120.1631608  37.0108544  75.7880342 119.9501608  37.9268544
  77.5720342 119.4601608  41.0648544  79.4370342 119.8891608  39.1638544
  78.9590342 120.3041608  36.7648544  76.6020342 120.3421608  35.9688544
  74.7380342 119.9481608  37.6738544  78.5140342 119.4361608  41.4298544
  76.7900342 119.3101608  41.6878544  75.3310342 119.5751608  39.8728544
 105.7930342  39.8731608 110.8238544 105.1200342  38.9701608 110.0818544
 103.9190342  38.4471608 110.5698544 103.4410342  38.8711608 111.8148544
 104.1710342  39.8101608 112.5508544 105.3680342  40.3081608 112.0268544
 105.6400342  38.5731608 108.8358544 103.3590342  37.7211608 109.9968544
 102.5140342  38.4761608 112.2048544 103.8140342  40.1471608 113.5138544
 105.9970342  41.0341608 112.5218544 105.1440342  37.8961608 108.2728544
 106.5100342  38.9611608 108.4998544 106.6590342  40.2421608 110.4578544
  96.5150342  30.3791608  67.9908544  95.8590342  30.5871608  66.8318544
  94.8430342  31.5471608  66.7858544  94.5290342  32.2701608  67.9418544
  95.2350342  32.0221608  69.1238544  96.2430342  31.0531608  69.1268544
  96.2090342  29.8361608  65.6938544  94.3010342  31.7341608  65.8698544
  93.7470342  33.0141608  67.9218544  95.0030342  32.5721608  70.0238544
  96.8400342  30.7941608  69.9898544  95.7240342  29.9841608  64.8198544
  96.9450342  29.1451608  65.7458544  97.2460342  29.6821608  68.0078544
  75.7390342  21.7721608  56.2858544  75.4890342  20.4471608  56.2728544
  76.5620342  19.5501608  56.2728544  77.8700342  20.0461608  56.2858544
  78.0850342  21.4281608  56.2998544  76.9840342  22.2901608  56.2988544
  74.1560342  19.9951608  56.2598544  76.3900342  18.4831608  56.2628544
  78.7100342  19.3661608  56.2858544  79.0900342  21.8251608  56.3098544
  77.0520342  23.3691608  56.3088544  73.9570342  19.0041608  56.2498544
  73.3930342  20.6581608  56.2598544  74.9540342  22.4071608  56.2858544
  96.7940342  54.9201608  92.6668544  97.8710342  55.4861608  92.0848544
  99.1250342  55.3461608  92.6888544  99.2350342  54.6211608  93.8808544
  98.0920342  54.0501608  94.4498544  96.8580342  54.2141608  93.8148544
  97.7110342  56.2061608  90.8858544 100.0050342  55.7901608  92.2438544
 100.1970342  54.5041608  94.3578544  98.1640342  53.4881608  95.3698544
  95.9240342  53.8101608  94.1778544  98.5110342  56.6341608  90.4418544
  96.7970342  56.2981608  90.4648544  95.8960342  55.0301608  92.2188544
 106.7690342 126.5161608  68.6128544 108.1120342 126.6231608  68.5638544
 108.8790342 126.0591608  69.5878544 108.2370342 125.3981608  70.6408544
 106.8410342 125.3101608  70.6518544 106.1120342 125.8871608  69.6078544
 108.7140342 127.2981608  67.4838544 109.9580342 126.1311608  69.5738544
 108.8160342 124.9581608  71.4398544 106.3330342 124.8021608  71.4588544
 105.0340342 125.8691608  69.5318544 109.7190342 127.3841608  67.4378544
 108.1430342 127.6991608  66.7528544 106.2290342 126.9281608  67.8648544
 122.3940342  60.8651608  52.4228544 121.5470342  61.5791608  53.1928544
 121.1520342  61.0631608  54.4308544 121.6420342  59.8191608  54.8438544
 122.5190342  59.1131608  54.0138544 122.8890342  59.6641608  52.7838544
 121.0790342  62.8251608  52.7348544 120.4740342  61.6141608  55.0678544
 121.3460342  59.4081608  55.7978544 122.9060342  58.1521608  54.3208544
 123.5590342  59.1931608  52.0788544 120.4450342  63.3681608  53.3038544
 121.3750342  63.1821608  51.8368544 122.6700342  61.2511608  51.5308544
  37.6210342  95.3531608 115.0008544  37.8200342  95.2321608 116.3288544
  39.1280342  95.1551608 116.8188544  40.2000342  95.2041608 115.9208544
  39.9480342  95.3301608 114.5508544  38.6260342  95.4041608 114.1028544
  36.7100342  95.1861608 117.1938544  39.3160342  95.0571608 117.8788544
  41.2160342  95.1461608 116.2838544  40.7670342  95.3701608 113.8468544
  38.3350342  95.5021608 113.0668544  36.8480342  95.0961608 118.1908544
  35.7720342  95.2421608 116.8218544  36.6700342  95.4071608 114.6628544
 118.8580342 104.3781608  41.0168544 119.7950342 103.4131608  41.1168544
 119.4330342 102.0841608  40.8738544 118.1090342 101.7851608  40.5348544
 117.1700342 102.8171608  40.4438544 117.5730342 104.1321608  40.6928544
 121.1150342 103.7621608  41.4608544 120.1640342 101.2911608  40.9468544
 117.8140342 100.7631608  40.3448544 116.1440342 102.6001608  40.1828544
 116.9200342 104.9921608  40.6468544 121.8240342 103.0471608  41.5368544
 121.3580342 104.7281608  41.6328544 119.1350342 105.3331608  41.1948544
  64.6160342  66.3731608  35.8048544  64.2820342  65.2021608  35.2238544
  65.1040342  64.0871608  35.4168544  66.2520342  64.2091608  36.2058544
  66.5610342  65.4421608  36.7898544  65.7130342  66.5321608  36.5728544
  63.1170342  65.1271608  34.4378544  64.8600342  63.1371608  34.9628544
  66.8970342  63.3571608  36.3638544  67.4440342  65.5501608  37.4018544
  65.8690342  67.5201608  36.9808544  62.8580342  64.2551608  33.9978544
  62.5360342  65.9441608  34.3088544  64.0120342  67.1691608  35.6568544
  74.8490342  37.1421608  47.5228544  74.0450342  38.2241608  47.4908544
  72.6920342  38.0771608  47.8118544  72.2020342  36.8131608  48.1578544
  73.0710342  35.7181608  48.1778544  74.4170342  35.9071608  47.8508544
  74.5830342  39.4761608  47.1368544  72.0250342  38.9281608  47.7948544
  71.1590342  36.6841608  48.4078544  72.7060342  34.7361608  48.4428544
  75.1600342  35.1231608  47.8388544  73.9890342  40.2931608  47.1098544
  75.5630342  39.5631608  46.9068544  75.8240342  37.2641608  47.2878544
  56.4740342  26.5551608  79.3518544  57.6230342  27.2601608  79.3878544
  57.5670342  28.6571608  79.3548544  56.3230342  29.2921608  79.2838544
  55.1560342  28.5221608  79.2478544  55.2550342  27.1281608  79.2838544
  58.8520342  26.5771608  79.4598544  58.4730342  29.2461608  79.3828544
  56.2640342  30.3701608  79.2568544  54.1880342  28.9991608  79.1928544
  54.4120342  26.4531608  79.2598544  59.7190342  27.0951608  79.4868544
  58.8730342  25.5671608  79.4818544  56.5310342  25.5461608  79.3768544
  54.0090342  22.3791608  93.7208544  53.0830342  22.9851608  94.4918544
  51.7610342  23.0561608  94.0418544  51.4270342  22.4961608  92.8038544
  52.4180342  21.8761608  92.0358544  53.7280342  21.8271608  92.5218544
  53.4660342  23.5341608  95.7298544  50.9990342  23.5361608  94.6388544
  50.4100342  22.5421608  92.4428544  52.1740342  21.4391608  91.0788544
  54.5570342  21.3711608  92.0018544  52.7810342  23.9911608  96.3148544
  54.4270342  23.4751608  96.0378544  54.9590342  22.3361608  94.0588544
  46.3690342 110.9521608  64.9278544  45.1870342 111.4191608  65.3798544
  44.0810342 110.5641608  65.4038544  44.2240342 109.2451608  64.9598544
  45.4680342 108.8021608  64.4988544  46.5490342 109.6891608  64.4908544
  45.0920342 112.7541608  65.8168544  43.1220342 110.9121608  65.7618544
  43.3780342 108.5721608  64.9728544  45.5920342 107.7861608  64.1528544
  47.5440342 109.4381608  64.1548544  44.2110342 113.1131608  66.1568544
  45.9020342 113.3571608  65.7908544  47.1590342 111.5821608  64.9168544
 108.7490342  96.4971608  95.3458544 109.9780342  96.9201608  95.7058544
 110.9550342  97.0941608  94.7208544 110.6370342  96.8271608  93.3848544
 109.3500342  96.3901608  93.0558544 108.4020342  96.2291608  94.0708544
 110.2520342  97.1761608  97.0628544 111.9480342  97.4321608  94.9808544
 111.3810342  96.9561608  92.6128544 109.0910342  96.1801608  92.0278544
 107.3870342  95.8971608  93.9128544 111.1690342  97.4931608  97.3428544
 109.5340342  97.0441608  97.7618544 108.0550342  96.3761608  96.0698544
 116.9400342  31.4221608  90.5548544 117.6390342  30.5141608  91.2668544
 119.0230342  30.6711608  91.4008544 119.6510342  31.7641608  90.7938544
 118.8870342  32.6811608  90.0638544 117.5070342  32.4881608  89.9548544
 116.9640342  29.4311608  91.8598544 119.6070342  29.9591608  91.9658544
 120.7180342  31.8991608  90.8878544 119.3600342  33.5301608  89.5898544
 116.8380342  33.1421608  89.4138544 117.4780342  28.7451608  92.3948544
 115.9640342  29.3331608  91.7518544 115.9420342  31.2941608  90.4678544
 106.6510342  53.3161608  31.4408544 106.2880342  54.5471608  31.8538544
 105.0310342  54.7281608  32.4388544 104.1770342  53.6291608  32.5828544
 104.5930342  52.3691608  32.1398544 105.8580342  52.2311608  31.5608544
 107.1810342  55.6231608  31.6888544 104.7150342  55.7041608  32.7788544
 103.2030342  53.7531608  33.0328544 103.9440342  51.5121608  32.2448544
 106.2640342  51.3011608  31.1908544 106.9200342  56.5501608  31.9948544
 108.0850342  55.4741608  31.2628544 107.5620342  53.2021608  31.0208544
  73.9860342  23.8951608  54.9368544  74.6190342  24.7731608  55.7408544
  74.0000342  25.1811608  56.9268544  72.7390342  24.6701608  57.2538544
  72.1180342  23.7611608  56.3908544  72.7710342  23.3791608  55.2158544
  75.8870342  25.2601608  55.3708544  74.4850342  25.8841608  57.5898544
  72.2490342  24.9761608  58.1668544  71.1450342  23.3591608  56.6318544
  72.3700342  22.6851608  54.4908544  76.3700342  25.9181608  55.9658544
  76.3180342  24.9551608  54.5088544  74.4450342  23.6101608  54.0838544
  52.0350342  91.3261608  26.4538544  51.7090342  92.2711608  25.5488544
  50.5870342  92.0771608  24.7368544  49.8300342  90.9101608  24.8788544
  50.2040342  89.9561608  25.8308544  51.3320342  90.1871608  26.6228544
  52.5010342  93.4291608  25.4418544  50.3020342  92.8191608  24.0028544
  48.9610342  90.7461608  24.2578544  49.6280342  89.0491608  25.9508544
  51.6970342  89.5101608  27.3818544  52.2650342  94.1431608  24.7668544
  53.3080342  93.5511608  26.0368544  52.8480342  91.4801608  27.0338544
 121.6820342 100.8611608  59.5168544 120.9810342  99.7111608  59.5718544
 121.6640342  98.4921608  59.5128544 123.0580342  98.4931608  59.3988544
 123.7460342  99.7091608  59.3448544 123.0260342 100.9051608  59.4068544
 119.5780342  99.7601608  59.6868544 121.1270342  97.5551608  59.5548544
 123.6000342  97.5591608  59.3518544 124.8230342  99.7241608  59.2568544
 123.4690342 101.8901608  59.3728544 119.0440342  98.9041608  59.7288544
 119.1020342 100.6501608  59.7268544 121.1740342 101.7331608  59.5608544
 107.3470342  69.8781608  98.4398544 107.6280342  71.1601608  98.1268544
 108.9370342  71.5051608  97.7788544 109.9260342  70.5161608  97.7628544
 109.5910342  69.1991608  98.0938544 108.2700342  68.8951608  98.4358544
 106.5990342  72.1211608  98.1568544 109.1900342  72.5251608  97.5238544
 110.9430342  70.7681608  97.4958544 110.3450342  68.4251608  98.0858544
 107.9190342  67.9101608  98.7048544 106.7990342  73.0831608  97.9248544
 105.6590342  71.8531608  98.4118544 106.3960342  69.6441608  98.6888544
  73.7110342  23.0761608  86.2778544  73.4620342  22.6161608  85.0348544
  72.6290342  21.5041608  84.8728544  72.0730342  20.8941608  86.0018544
  72.3570342  21.4031608  87.2728544  73.1950342  22.5161608  87.3918544
  74.0440342  23.2631608  83.9288544  72.4130342  21.1151608  83.8878544
  71.4280342  20.0341608  85.8928544  71.9340342  20.9411608  88.1538544
  73.4700342  22.9781608  88.3288544  73.8650342  22.9271608  82.9928544
  74.6440342  24.0651608  84.0648544  74.3140342  23.8801608  86.3788544
  78.8390342  59.7241608  27.6408544  78.7940342  58.8031608  26.6568544
  77.7420342  58.8411608  25.7358544  76.7600342  59.8301608  25.8558544
  76.8450342  60.7661608  26.8918544  77.9130342  60.6931608  27.7918544
  79.8040342  57.8261608  26.5758544  77.6810342  58.1151608  24.9368544
  75.9410342  59.8721608  25.1518544  76.0940342  61.5351608  26.9958544
  78.0620342  61.3701608  28.6208544  79.7790342  57.1321608  25.8418544
  80.5560342  57.8141608  27.2508544  79.6050342  59.6841608  28.2978544
 110.5210342 100.1961608 116.4938544 109.5830342 101.1641608 116.5328544
 109.9760342 102.4851608 116.7678544 111.3320342 102.7741608 116.9568544
 112.2720342 101.7391608 116.9088544 111.8370342 100.4321608 116.6708544
 108.2310342 100.8251608 116.3368544 109.2460342 103.2811608 116.8048544
 111.6510342 103.7901608 117.1398544 113.3220342 101.9491608 117.0528544
 112.4880342  99.5711608 116.6158544 107.5200342 101.5431608 116.3648544
 107.9650342  99.8651608 116.1698544 110.2220342  99.2461608 116.3228544
  49.3700342  29.3171608  48.0688544  49.5360342  30.6461608  48.2278544
  50.7230342  31.2421608  47.7918544  51.7120342  30.4481608  47.2008544
  51.4990342  29.0731608  47.0548544  50.2980342  28.5171608  47.5038544
  48.5120342  31.4031608  48.8278544  50.8820342  32.3051608  47.9068544
  52.6350342  30.8941608  46.8588544  52.2540342  28.4491608  46.6008544
  50.0450342  27.4691608  47.4338544  48.6260342  32.4001608  48.9518544
  47.6610342  30.9551608  49.1378544  48.5070342  28.9011608  48.3888544
  58.9410342  45.4661608  77.4708544  58.1160342  45.9381608  76.5148544
  58.5980342  46.8821608  75.6028544  59.9240342  47.3171608  75.7028544
  60.7450342  46.8021608  76.7098544  60.2250342  45.8591608  77.6008544
  56.7890342  45.4711608  76.4538544  57.9570342  47.2771608  74.8268544
  60.3100342  48.0461608  75.0058544  61.7710342  47.1291608  76.7978544
  60.7820342  45.4071608  78.4088544  56.1620342  45.8171608  75.7408544
  56.4580342  44.7881608  77.1218544  58.5780342  44.7841608  78.1218544
 121.3230342  92.7091608  35.8608544 121.8680342  93.1891608  36.9968544
 121.1740342  93.0401608  38.2018544 119.9310342  92.3981608  38.2028544
 119.4030342  91.9151608  37.0008544 120.1290342  92.0841608  35.8188544
 123.1210342  93.8281608  36.9478544 121.5870342  93.4151608  39.1278544
 119.3830342  92.2751608  39.1258544 118.4440342  91.4171608  36.9868544
 119.8020342  91.7451608  34.8458544 123.5380342  94.1911608  37.7928544
 123.6080342  93.9271608  36.0678544 121.8370342  92.8241608  34.9988544
  76.3960342  40.5951608 127.7938544  76.1540342  40.0471608 126.5848544
  77.2270342  39.7861608 125.7278544  78.5270342  40.0981608 126.1408544
  78.7330342  40.6651608 127.4018544  77.6330342  40.9101608 128.2288544
  74.8290342  39.7511608 126.2128544  77.0610342  39.3471608 124.7538544
  79.3660342  39.9011608 125.4888544  79.7320342  40.9101608 127.7338544
  77.6950342  41.3441608 129.2168544  74.6360342  39.3411608 125.3108544
  74.0660342  39.9481608 126.8458544  75.6110342  40.7781608 128.4018544
  57.5320342  25.2071608  51.3268544  57.9750342  26.4111608  50.9128544
  57.3470342  27.0331608  49.8288544  56.2740342  26.3931608  49.1978544
  55.8470342  25.1441608  49.6608544  56.5020342  24.5571608  50.7468544
  59.0580342  27.0171608  51.5778544  57.6820342  27.9981608  49.4758544
  55.7790342  26.8601608  48.3598544  55.0200342  24.6391608  49.1828544
  56.2440342  23.5981608  51.1728544  59.3970342  27.9191608  51.2758544
  59.5000342  26.5521608  52.3588544  57.9960342  24.7711608  52.1118544
 105.2540342  36.8081608  67.0828544 104.0180342  37.0431608  66.5968544
 103.6710342  38.3431608  66.2168544 104.6110342  39.3711608  66.3488544
 105.8820342  39.0821608  66.8578544 106.1890342  37.7691608  67.2258544
 103.1060342  35.9771608  66.4828544 102.6870342  38.5591608  65.8248544
 104.3580342  40.3801608  66.0598544 106.6180342  39.8661608  66.9648544
 107.1410342  37.4531608  67.6268544 102.1770342  36.1421608  66.1198544
 103.3740342  35.0441608  66.7628544 105.4900342  35.8631608  67.3528544
 108.4240342  75.8431608  87.0428544 107.2940342  76.5781608  87.0868544
 107.3890342  77.9731608  87.1038544 108.6520342  78.5751608  87.0748544
 109.7970342  77.7741608  87.0298544 109.6590342  76.3831608  87.0148544
 106.0460342  75.9281608  87.1148544 106.5000342  78.5871608  87.1378544
 108.7410342  79.6521608  87.0868544 110.7790342  78.2261608  87.0068544
 110.4830342  75.6871608  86.9808544 105.1930342  76.4701608  87.1468544
 105.9970342  74.9191608  87.1028544 108.3390342  74.8361608  87.0318544
 112.8360342  80.5361608 116.6498544 112.2740342  79.3691608 116.2738544
 111.3650342  78.7421608 117.1308544 111.0580342  79.3371608 118.3598544
 111.6640342  80.5481608 118.7108544 112.5680342  81.1421608 117.8248544
 112.6140342  78.8081608 115.0278544 110.9000342  77.8061608 116.8548544
 110.3580342  78.8641608 119.0328544 111.4360342  81.0181608 119.6558544
 113.0830342  82.0731608 118.0088544 112.1980342  77.9341608 114.7358544
 113.2730342  79.2751608 114.4218544 113.4910342  80.9761608 116.0198544
 118.6890342 115.0341608  94.1168544 117.5020342 115.6431608  93.9178544
 116.3730342 114.8631608  93.6438544 116.4990342 113.4711608  93.5828544
 117.7490342 112.8811608  93.7958544 118.8530342 113.6961608  94.0668544
 117.4240342 117.0461608  93.9888544 115.4100342 115.3251608  93.4798544
 115.6370342 112.8561608  93.3718544 117.8610342 111.8081608  93.7518544
 119.8540342 113.3321608  94.2448544 116.5400342 117.5121608  93.8408544
 118.2500342 117.5931608  94.1868544 119.4940342 115.6101608  94.3138544
  63.8160342  31.6701608  55.2768544  63.0250342  31.3521608  54.2318544
  63.2620342  30.1641608  53.5338544  64.3130342  29.3311608  53.9338544
  65.1090342  29.6991608  55.0228544  64.8390342  30.8951608  55.6938544
  61.9800342  32.2221608  53.8668544  62.6430342  29.8851608  52.6928544
  64.5080342  28.4101608  53.4038544  65.9240342  29.0651608  55.3418544
  65.3980342  31.2611608  56.5428544  61.3810342  31.9931608  53.0848544
  61.8240342  33.0771608  54.3818544  63.6330342  32.5311608  55.7708544
  97.2650342  78.1121608  26.6998544  97.0270342  79.0131608  25.7248544
  96.2150342  80.1181608  26.0008544  95.6670342  80.2641608  27.2808544
  95.9400342  79.3051608  28.2618544  96.7570342  78.2161608  27.9448544
  97.6000342  78.8251608  24.4528544  96.0080342  80.8551608  25.2388544
  95.0380342  81.1111608  27.5088544  95.5230342  79.4051608  29.2538544
  97.0220342  77.4281608  28.6348544  97.4280342  79.4941608  23.7158544
  98.1840342  78.0201608  24.2718544  97.8540342  77.3201608  26.4848544
  64.3010342 117.5281608  79.9808544  63.9080342 118.8081608  79.8258544
  62.5930342 119.1621608  80.1458544  61.7150342 118.1801608  80.6188544
  62.1640342 116.8641608  80.7638544  63.4860342 116.5531608  80.4328544
  64.8270342 119.7611608  79.3468544  62.2520342 120.1811608  80.0318544
  60.6970342 118.4381608  80.8698544  61.4970342 116.0961608  81.1288544
  63.9210342 115.5671608  80.5118544  64.5430342 120.7231608  79.2268544
  65.7730342 119.4871608  79.1198544  65.2540342 117.2881608  79.7448544
  44.8850342 126.2931608  56.3358544  45.7470342 126.4121608  57.3668544
  46.2100342 127.6821608  57.7258544  45.7700342 128.8001608  57.0088544
  44.8750342 128.6311608  55.9468544  44.4370342 127.3451608  55.6208544
  46.1620342 125.2581608  58.0578544  46.9010342 127.8051608  58.5478544
  46.1180342 129.7871608  57.2748544  44.5280342 129.4871608  55.3858544
  43.7490342 127.1181608  54.8188544  46.8070342 125.3361608  58.8318544
  45.8170342 124.3481608  57.7838544  44.5600342 125.3691608  56.0888544
  92.4450342  77.4401608  34.8358544  92.2490342  78.7731608  34.7728544
  90.9770342  79.2611608  34.4598544  89.9350342  78.3581608  34.2198544
  90.1820342  76.9841608  34.2958544  91.4690342  76.5371608  34.6118544
  93.3270342  79.6431608  35.0218544  90.7920342  80.3251608  34.4018544
  88.9470342  78.7211608  33.9768544  89.3870342  76.2751608  34.1128544
  91.7530342  75.4981608  34.6938544  93.1920342  80.6431608  34.9768544
  94.2400342  79.2721608  35.2458544  93.3690342  77.1031608  35.0638544
  81.6690342 119.4061608  61.7038544  80.8360342 120.4551608  61.8598544
  79.4570342 120.2291608  61.9088544  78.9720342 118.9211608  61.7968544
  79.8720342 117.8631608  61.6368544  81.2430342 118.1321608  61.5918544
  81.3710342 121.7531608  61.9678544  78.7670342 121.0511608  62.0328544
  77.9090342 118.7311608  61.8328544  79.5100342 116.8481608  61.5488544
  82.0100342 117.3811608  61.4718544  80.7550342 122.5461608  62.0848544
  82.3700342 121.8971608  61.9298544  82.6630342 119.5861608  61.6708544
 106.1390342  85.6691608  39.4078544 106.7400342  84.4621608  39.4158544
 105.9510342  83.3071608  39.3958544 104.5570342  83.4291608  39.3688544
 103.9760342  84.7011608  39.3608544 104.8000342  85.8301608  39.3808544
 108.1450342  84.3891608  39.4438544 106.4070342  82.3271608  39.4018544
 103.9350342  82.5471608  39.3538544 102.9010342  84.8101608  39.3398544
 104.4420342  86.8491608  39.3778544 108.6060342  83.4901608  39.4498544
 108.6990342  85.2341608  39.4578544 106.7220342  86.4941608  39.4218544
  98.2820342 116.7531608 104.0698544  97.8840342 117.0171608 102.8088544
  96.5730342 116.7141608 102.4298544  95.7030342 116.1441608 103.3648544
  96.1570342 115.8871608 104.6628544  97.4750342 116.2051608 105.0018544
  98.7960342 117.5911608 101.9018544  96.2280342 116.9151608 101.4248544
  94.6870342 115.9041608 103.0868544  95.4950342 115.4471608 105.3958544
  97.9130342 116.0431608 105.9758544  98.5080342 117.7931608 100.9548544
  99.7400342 117.8021608 102.1938544  99.2320342 116.9781608 104.3288544
  99.5410342  30.4441608  66.0938544  99.9250342  31.1661608  65.0208544
 100.5930342  30.5271608  63.9728544 100.8490342  29.1541608  64.0588544
 100.4330342  28.4431608  65.1888544  99.7680342  29.1211608  66.2148544
  99.6450342  32.5451608  64.9798544 100.9120342  31.0811608  63.1018544
 101.3650342  28.6461608  63.2568544 100.6240342  27.3831608  65.2688544
  99.4100342  28.6571608  67.1228544  99.9290342  33.0951608  64.1808544
  99.1620342  32.9911608  65.7468544  99.0590342  30.9211608  66.8428544
 110.9130342  74.2321608 111.7758544 111.9800342  73.4101608 111.8528544
 113.2570342  73.9271608 111.6158544 113.4020342  75.2841608 111.3038544
 112.2680342  76.1001608 111.2348544 111.0090342  75.5441608 111.4788544
 111.7860342  72.0531608 112.1698544 114.1300342  73.2911608 111.6708544
 114.3820342  75.6981608 111.1178544 112.3650342  77.1491608 110.9948544
 110.0800342  76.0951608 111.4478544 112.5780342  71.4291608 112.2308544
 110.8550342  71.6971608 112.3378544 109.9970342  73.8441608 111.9498544
 100.6660342 121.8151608  57.2918544  99.4150342 122.3161608  57.3268544
  98.3290342 121.4361608  57.3708544  98.5630342 120.0571608  57.3768544
  99.8770342 119.5801608  57.3388544 100.9350342 120.4931608  57.2958544
  99.2280342 123.7111608  57.3198544  97.3150342 121.8111608  57.3988544
  97.7340342 119.3651608  57.4098544 100.0720342 118.5171608  57.3428544
 101.9790342 120.2191608  57.2658544  98.2950342 124.0971608  57.3458544
 100.0250342 124.3321608  57.2868544 101.4400342 122.4631608  57.2608544
  54.4570342 111.6921608  83.1928544  54.5370342 110.8041608  84.2048544
  55.2800342 111.1321608  85.3428544  55.9240342 112.3731608  85.4068544
  55.8150342 113.2641608  84.3348544  55.0620342 112.8971608  83.2148544
  53.8720342 109.5681608  84.0948544  55.3610342 110.4391608  86.1688544
  56.5020342 112.6411608  86.2798544  56.3070342 114.2251608  84.3708544
  54.9220342 113.5171608  82.3418544  53.9250342 108.8961608  84.8468544
  53.3410342 109.3471608  83.2638544  53.9170342 111.4401608  82.3768544
 135.1780342  61.3391608  89.2868544 133.9560342  61.1681608  88.7438544
 133.3290342  62.2511608  88.1198544 133.9830342  63.4871608  88.0718544
 135.2510342  63.6211608  88.6468544 135.8420342  62.5131608  89.2608544
 133.3370342  59.9061608  88.8168544 132.3490342  62.1421608  87.6768544
 133.5110342  64.3331608  87.5928544 135.7670342  64.5691608  88.6168544
 136.8150342  62.5201608  89.7308544 132.4210342  59.7671608  88.4138544
 133.8050342  59.1351608  89.2728544 135.6180342  60.5471608  89.7338544
  65.3890342 115.5291608  30.4728544  64.5130342 116.0811608  29.6088544
  64.0790342 115.3341608  28.5088544  64.5610342 114.0331608  28.3288544
  65.4690342 113.5001608  29.2498544  65.8770342 114.2801608  30.3358544
  64.0550342 117.3931608  29.8298544  63.3770342 115.7521608  27.7998544
  64.2350342 113.4441608  27.4838544  65.8490342 112.4971608  29.1238544
  66.5730342 113.9541608  31.0958544  63.3990342 117.8161608  29.1888544
  64.3810342 117.9181608  30.6298544  65.6930342 116.0811608  31.2628544
  35.9680342  55.2751608  45.7298544  36.3170342  53.9751608  45.6448544
  37.5780342  53.5771608  46.1018544  38.4470342  54.5331608  46.6368544
  38.0440342  55.8711608  46.7068544  36.7760342  56.2271608  46.2388544
  35.4090342  53.0491608  45.0988544  37.8840342  52.5421608  46.0448544
  39.4240342  54.2411608  46.9938544  38.7060342  56.6201608  47.1168544
  36.3790342  57.2321608  46.2518544  35.6610342  52.0731608  45.0298544
  34.5030342  53.3551608  44.7728544  35.0540342  55.5471608  45.3958544
  49.5810342  60.3941608  37.3658544  50.1240342  59.2241608  37.7598544
  49.2810342  58.1631608  38.1028544  47.8940342  58.3371608  38.0308544
  47.3740342  59.5671608  37.6178544  48.2510342  60.6031608  37.2828544
  51.5240342  59.0961608  37.8168544  49.6890342  57.2141608  38.4218544
  47.2300342  57.5261608  38.2928544  46.3050342  59.7151608  37.5578544
  47.9420342  61.5851608  36.9548544  51.9410342  58.2241608  38.1098544
  52.1180342  59.8741608  37.5658544  50.2030342  61.1521608  37.1218544
 102.1570342  75.4321608 109.3068544 102.8580342  74.4421608 109.8958544
 104.2040342  74.6541608 110.2088544 104.7940342  75.8861608 109.9058544
 104.0290342  76.8851608 109.2948544 102.6870342  76.6331608 108.9978544
 102.2220342  73.2191608 110.1818544 104.7900342  73.8771608 110.6808544
 105.8330342  76.0641608 110.1418544 104.4720342  77.8411608 109.0548544
 102.0200342  77.3411608 108.5288544 102.7390342  72.4711608 110.6228544
 101.2490342  73.0841608 109.9468544 101.1850342  75.2631608 109.0868544
  55.4850342 113.0241608  67.4368544  54.2860342 113.6311608  67.5498544
  53.1210342 112.8751608  67.3828544  53.2240342 111.5081608  67.1028544
  54.4880342 110.9191608  66.9938544  55.6280342 111.7101608  67.1678544
  54.2310342 115.0091608  67.8318544  52.1470342 113.3361608  67.4678544
  52.3340342 110.9111608  66.9708544  54.5830342 109.8651608  66.7788544
  56.6420342 111.3451608  67.1028544  53.3380342 115.4731608  67.9188544
  55.0830342 115.5391608  67.9488544  56.3170342 113.5831608  67.5598544
 114.1020342  62.1911608  27.9648544 113.4420342  61.0161608  27.9008544
 112.1210342  61.0021608  27.4438544 111.5130342  62.2031608  27.0628544
 112.2350342  63.3981608  27.1448544 113.5540342  63.3691608  27.6068544
 114.0950342  59.8331608  28.2948544 111.5680342  60.0751608  27.3818544
 110.4930342  62.2071608  26.7068544 111.7780342  64.3331608  26.8538544
 114.1870342  64.2391608  27.7048544 113.6090342  58.9481608  28.2508544
 115.0500342  59.8631608  28.6238544 115.0560342  62.1851608  28.2968544
  58.3280342  48.2301608  44.7898544  58.8090342  46.9711608  44.8358544
  58.7880342  46.2771608  46.0498544  58.2700342  46.9021608  47.1888544
  57.7810342  48.2091608  47.0968544  57.8200342  48.8681608  45.8638544
  59.3210342  46.3831608  43.6638544  59.1680342  45.2671608  46.1148544
  58.2470342  46.3791608  48.1338544  57.3770342  48.7041608  47.9678544
  57.4660342  49.8751608  45.6968544  59.6840342  45.4401608  43.6878544
  59.3290342  46.9001608  42.7958544  58.3500342  48.7181608  43.9058544
  42.8470342  35.5821608  62.9128544  43.9600342  34.8201608  62.9138544
  43.8330342  33.4281608  62.9098544  42.5560342  32.8561608  62.9038544
  41.4290342  33.6831608  62.9018544  41.6000342  35.0711608  62.9068544
  45.2240342  35.4411608  62.9198544  44.7080342  32.7931608  62.9108544
  42.4420342  31.7811608  62.8998544  40.4370342  33.2551608  62.8978544
  40.7910342  35.7871608  62.9068544  46.0640342  34.8791608  62.9208544
  45.2960342  36.4491608  62.9248544  42.9560342  36.5871608  62.9158544
  79.3600342 130.8791608  72.7788544  79.1300342 130.4911608  74.0498544
  78.6300342 129.2081608  74.2908544  78.3790342 128.3551608  73.2108544
  78.6310342 128.7991608  71.9078544  79.1310342 130.0891608  71.7108544
  79.3990342 131.3831608  75.1048544  78.4370342 128.8711608  75.2998544
  77.9920342 127.3611608  73.3808544  78.4420342 128.1511608  71.0648544
  79.3560342 130.5171608  70.7438544  79.2300342 131.1021608  76.0608544
  79.7590342 132.3071608  74.9118544  79.7210342 131.8091608  72.6208544
  92.2360342  49.7461608  32.8278544  92.2360342  48.4201608  33.0698544
  93.1610342  47.8921608  33.9758544  94.0660342  48.7501608  34.6108544
  94.0310342  50.1191608  34.3298544  93.0910342  50.6071608  33.4178544
  91.3060342  47.5961608  32.4078544  93.1820342  46.8321608  34.1888544
  94.7860342  48.3561608  35.3128544  94.7240342  50.7931608  34.8128544
  92.9900342  51.6451608  33.1388544  91.2970342  46.6011608  32.5818544
  90.6460342  47.9951608  31.7548544  91.5620342  50.1121608  32.1708544
 107.9140342  36.6421608  91.8568544 106.7370342  37.3001608  91.8468544
 106.5120342  38.2811608  90.8748544 107.5120342  38.5571608  89.9358544
 108.7180342  37.8511608  89.9828544 108.9030342  36.8791608  90.9708544
 105.7610342  36.9881608  92.8118544 105.5780342  38.8231608  90.8438544
 107.3530342  39.3121608  89.1788544 109.4980342  38.0541608  89.2638544
 109.7980342  36.2851608  91.0848544 104.8760342  37.4751608  92.8128544
 105.9420342  36.2771608  93.5068544 108.0610342  35.9371608  92.5648544
  46.3900342  34.2651608 108.4998544  46.5570342  33.5881608 109.6548544
  46.1710342  32.2461608 109.7208544  45.6200342  31.6341608 108.5888544
  45.4650342  32.3731608 107.4118544  45.8630342  33.7131608 107.3878544
  47.1160342  34.2461608 110.7668544  46.2940342  31.6801608 110.6338544
  45.3180342  30.5981608 108.6248544  45.0410342  31.9131608 106.5308544
  45.7820342  34.3601608 106.5268544  47.2450342  33.7481608 111.6368544
  47.3880342  35.2171608 110.7008544  46.6730342  35.2341608 108.4678544
 134.9250342  60.5481608  92.7608544 135.1790342  59.2931608  93.1828544
 134.1120342  58.4681608  93.5528544 132.8050342  58.9631608  93.4758544
 132.5870342  60.2711608  93.0318544 133.6820342  61.0621608  92.6728544
 136.5110342  58.8391608  93.2438544 134.2870342  57.4581608  93.8948544
 131.9700342  58.3381608  93.7578544 131.5830342  60.6661608  92.9678544
 133.6110342  62.0811608  92.3198544 136.7120342  57.9001608  93.5588544
 137.2690342  59.4491608  92.9738544 135.7070342  61.1311608  92.4978544
  49.9470342  33.4291608  45.0198544  49.0120342  34.3391608  45.3608544
  48.9480342  35.5471608  44.6578544  49.8530342  35.7841608  43.6178544
  50.8070342  34.8121608  43.2978544  50.8370342  33.6191608  44.0248544
  48.1230342  34.0561608  46.4148544  48.2080342  36.2941608  44.9098544
  49.8150342  36.7121608  43.0658544  51.5120342  34.9831608  42.4968544
  51.5360342  32.8131608  43.8498544  47.4190342  34.7311608  46.6778544
  48.1850342  33.1791608  46.9118544  49.9810342  32.5621608  45.5368544
  65.2850342  55.3561608 126.7808544  64.2710342  55.6031608 127.6338544
  64.3040342  56.7621608 128.4158544  65.3880342  57.6391608 128.2968544
  66.4200342  57.3431608 127.3988544  66.3470342  56.1741608 126.6358544
  63.2010342  54.6921608 127.7198544  63.5040342  56.9851608 129.1078544
  65.4280342  58.5381608 128.8938544  67.2620342  58.0121608 127.2968544
  67.0940342  55.8641608 125.9198544  62.4360342  54.8681608 128.3558544
  63.1940342  53.8591608 127.1478544  65.2470342  54.5151608 126.2228544
 105.0080342 103.0531608  58.4608544 105.0110342 102.3271608  57.3238544
 106.1640342 101.6181608  56.9708544 107.2870342 101.6771608  57.8028544
 107.2400342 102.4421608  58.9728544 106.0690342 103.1361608  59.2888544
 103.8570342 102.2981608  56.5188544 106.1940342 101.0291608  56.0658544
 108.1850342 101.1351608  57.5428544 108.1010342 102.4971608  59.6238544
 105.9400342 103.7501608  60.1688544 103.8490342 101.7571608  55.6648544
 103.0330342 102.8171608  56.7898544 104.1680342 103.5591608  58.7018544
 132.2590342  96.7421608  68.6948544 133.2560342  95.8451608  68.8338544
 132.9510342  94.4801608  68.8188544 131.6210342  94.0761608  68.6608544
 130.6180342  95.0401608  68.5208544 130.9650342  96.3941608  68.5408544
 134.5790342  96.2991608  68.9898544 133.7310342  93.7391608  68.9288544
 131.3700342  93.0251608  68.6478544 129.5870342  94.7421608  68.3978544
 130.2610342  97.2081608  68.4388544 135.3330342  95.6351608  69.0948544
 134.7800342  97.2901608  68.9988544 132.4950342  97.7251608  68.7078544
 104.6700342 103.3621608  38.2318544 103.8420342 104.0221608  39.0668544
 103.8870342 105.4191608  39.1098544 104.7890342 106.1021608  38.2858544
 105.6300342 105.3781608  37.4348544 105.5530342 103.9821608  37.4228544
 102.9510342 103.2921608  39.8768544 103.2340342 105.9731608  39.7698544
 104.8350342 107.1811608  38.3078544 106.3310342 105.8921608  36.7928544
 106.1610342 103.3411608  36.7998544 102.3260342 103.7771608  40.5058544
 102.9330342 102.2831608  39.8328544 104.6250342 102.3531608  38.2128544
  98.4990342  91.5681608  51.2438544  99.8190342  91.3501608  51.0728544
 100.7210342  92.3831608  51.3438544 100.2360342  93.6191608  51.7848544
  98.8600342  93.8021608  51.9488544  97.9910342  92.7441608  51.6668544
 100.2600342  90.0901608  50.6268544 101.7840342  92.2361608  51.2148544
 100.9210342  94.4271608  51.9988544  98.4720342  94.7521608  52.2888544
  96.9160342  92.7921608  51.7638544 101.2460342  89.9161608  50.4948544
  99.5930342  89.3551608  50.4348544  97.8600342  90.8121608  51.0438544
  51.7440342 117.1041608 107.9078544  52.3360342 115.9431608 108.2548544
  53.6270342 115.9701608 108.7928544  54.2750342 117.1991608 108.9588544
  53.6250342 118.3791608 108.5858544  52.3350342 118.3091608 108.0518544
  51.6440342 114.7321608 108.0688544  54.1250342 115.0541608 109.0798544
  55.2730342 117.2351608 109.3728544  54.1140342 119.3341608 108.7088544
  51.7550342 119.1641608 107.7368544  52.0790342 113.8561608 108.3258544
  50.7120342 114.7321608 107.6778544  50.8120342 117.0691608 107.5208544
 113.0310342 108.4421608  42.9258544 112.5390342 107.8451608  41.8208544
 112.5240342 108.5521608  40.6138544 113.0200342 109.8601608  40.5788544
 113.5210342 110.4401608  41.7488544 113.5180342 109.6991608  42.9348544
 112.0520342 106.5271608  41.9048544 112.1360342 108.0981608  39.7138544
 113.0150342 110.4181608  39.6538544 113.9070342 111.4491608  41.7358544
 113.8830342 110.0631608  43.8838544 111.6810342 106.0721608  41.0828544
 112.0690342 106.0331608  42.7858544 113.0350342 107.9181608  43.7898544
  52.0370342  95.1761608  97.4988544  52.9520342  95.8071608  96.7358544
  52.8850342  97.1971608  96.5998544  51.8710342  97.9031608  97.2578544
  50.9430342  97.2081608  98.0398544  51.0460342  95.8181608  98.1498544
  53.9540342  95.0561608  96.0918544  53.6050342  97.7291608  95.9928544
  51.8060342  98.9771608  97.1618544  50.1550342  97.7401608  98.5538544
  50.3770342  95.1991608  98.7298544  54.6440342  95.5191608  95.5178544
  53.9860342  94.0521608  96.2008544  52.0990342  94.1721608  97.5878544
 124.3920342 118.8361608  71.1318544 124.7420342 118.3411608  72.3358544
 123.8970342 118.5471608  73.4308544 122.7070342 119.2621608  73.2538544
 122.3820342 119.7581608  71.9878544 123.2550342 119.5301608  70.9198544
 125.9490342 117.6281608  72.4658544 124.1540342 118.1611608  74.4078544
 122.0440342 119.4291608  74.0898544 121.4670342 120.3121608  71.8368544
 123.0880342 119.8741608  69.9088544 126.2210342 117.2521608  73.3638544
 126.5480342 117.4891608  71.6638544 125.0130342 118.6791608  70.3508544
  86.4890342 111.5161608  33.8348544  85.9330342 110.9451608  32.7468544
  86.0620342 111.5741608  31.5048544  86.7640342 112.7811608  31.4168544
  87.3250342 113.3391608  32.5708544  87.1730342 112.6781608  33.7928544
  85.2350342 109.7301608  32.8848544  85.6260342 111.1381608  30.6168544
  86.8720342 113.2791608  30.4648544  87.8700342 114.2701608  32.5168544
  87.5700342 113.0311608  34.7328544  84.8150342 109.2931608  32.0758544
  85.1510342 109.2901608  33.7908544  86.3870342 111.0501608  34.7248544
  65.7620342  66.9481608  26.0988544  65.5210342  68.2731608  26.0228544
  64.1980342  68.7251608  25.9998544  63.1540342  67.7941608  26.0558544
  63.4490342  66.4291608  26.1338544  64.7860342  66.0191608  26.1538544
  66.6030342  69.1711608  25.9688544  63.9760342  69.7811608  25.9398544
  62.1270342  68.1281608  26.0388544  62.6530342  65.7001608  26.1768544
  65.1090342  64.9901608  26.2128544  66.4330342  70.1661608  25.9128544
  67.5530342  68.8261608  25.9858544  66.7230342  66.6371608  26.1148544
  81.4060342  96.7701608  27.9168544  80.4320342  97.5881608  27.4698544
  80.4830342  98.9481608  27.7898544  81.5420342  99.4311608  28.5658544
  82.5320342  98.5481608  29.0088544  82.4440342  97.1951608  28.6668544
  79.3860342  97.0561608  26.6918544  79.7150342  99.6261608  27.4438544
  81.5950342 100.4791608  28.8208544  83.3560342  98.9071608  29.6088544
  83.1590342  96.4411608  28.9628544  78.6500342  97.6601608  26.3518544
  79.3650342  96.0701608  26.4718544  81.3550342  95.7901608  27.6778544
  65.3820342 117.4741608  54.8498544  64.0780342 117.4741608  54.5048544
  63.3420342 116.2911608  54.6188544  63.9730342 115.1331608  55.0888544
  65.3270342 115.1781608  55.4358544  66.0270342 116.3811608  55.3058544
  63.4870342 118.6631608  54.0368544  62.2960342 116.2631608  54.3488544
  63.4170342 114.2121608  55.1818544  65.8260342 114.2911608  55.7998544
  67.0720342 116.5101608  55.5488544  62.5110342 118.6741608  53.7758544
  64.0350342 119.5091608  53.9598544  65.9000342 118.3361608  54.7618544
 120.4660342  67.5401608  58.6548544 119.9830342  67.5261608  57.3958544
 119.2210342  68.6101608  56.9458544 118.9780342  69.6831608  57.8098544
 119.4990342  69.6561608  59.1068544 120.2550342  68.5551608  59.5178544
 120.2530342  66.4241608  56.5628544 118.8220342  68.6241608  55.9418544
 118.3920342  70.5271608  57.4758544 119.3180342  70.4791608  59.7848544
 120.6960342  68.4461608  60.4978544 119.8960342  66.4041608  55.6178544
 120.8050342  65.6501608  56.9058544 121.0140342  66.7511608  58.9648544
  53.3000342 112.1891608 119.6178544  52.5680342 111.9091608 120.7148544
  52.6580342 112.7501608 121.8278544  53.5050342 113.8631608 121.7798544
  54.2470342 114.1171608 120.6218544  54.1280342 113.2501608 119.5308544
  51.7300342 110.7771608 120.7168544  52.0820342 112.5491608 122.7208544
  53.5850342 114.5221608 122.6318544  54.9040342 114.9721608 120.5708544
  54.6590342 113.3651608 118.5978544  51.1770342 110.5591608 121.5338544
  51.6790342 110.1801608 119.9038544  53.2250342 111.5721608 118.8218544
  76.2540342 125.4931608  75.6498544  75.1730342 126.2751608  75.8448544
  74.3170342 126.5351608  74.7708544  74.5990342 125.9791608  73.5178544
  75.7320342 125.1741608  73.3598544  76.5620342 124.9391608  74.4598544
  74.9290342 126.8131608  77.1228544  73.4430342 127.1581608  74.8988544
  73.9470342 126.1701608  72.6788544  75.9620342 124.7381608  72.3978544
  77.4560342 124.3321608  74.4328544  74.1220342 127.3991608  77.2798544
  75.5600342 126.6151608  77.8878544  76.8640342 125.3151608  76.4358544
 109.3480342  95.2501608 108.6158544 109.9290342  94.2501608 107.9218544
 111.1740342  93.7671608 108.3358544 111.7890342  94.3291608 109.4598544
 111.1510342  95.3641608 110.1498544 109.9060342  95.8191608 109.7028544
 109.2720342  93.7161608 106.7968544 111.6630342  92.9671608 107.7978544
 112.7510342  93.9661608 109.7918544 111.6140342  95.8081608 111.0198544
 109.3400342  96.6111608 110.1708544 109.6990342  92.9671608 106.2698544
 108.3730342  94.0781608 106.5118544 108.4480342  95.5881608 108.3038544
 135.2910342  52.9791608  69.6298544 134.1330342  53.1751608  70.2928544
 133.5660342  52.1121608  71.0028544 134.2110342  50.8701608  71.0098544
 135.4100342  50.7111608  70.3078544 135.9430342  51.7991608  69.6108544
 133.5210342  54.4421608  70.2568544 132.6390342  52.2421608  71.5438544
 133.7840342  50.0401608  71.5538544 135.9180342  49.7571608  70.3048544
 136.8620342  51.7711608  69.0418544 132.6540342  54.6001608  70.7508544
 133.9460342  55.1981608  69.7378544 135.6880342  53.7571608  69.1208544
 134.0020342  68.4361608  84.5808544 132.8340342  67.8011608  84.8048544
 131.6560342  68.3311608  84.2698544 131.7140342  69.5081608  83.5148544
 132.9470342  70.1341608  83.3068544 134.1010342  69.5711608  83.8598544
 132.8250342  66.6201608  85.5708544 130.7060342  67.8421608  84.4338544
 130.8120342  69.9291608  83.0948544 133.0060342  71.0431608  82.7258544
 135.0940342  69.9831608  83.7528544 131.9550342  66.1361608  85.7448544
 133.6860342  66.2521608  85.9508544 134.8440342  68.0411608  84.9738544
  41.1650342  47.7821608  74.5518544  41.9070342  46.8391608  73.9348544
  43.2480342  47.1091608  73.6468544  43.7920342  48.3481608  74.0028544
  42.9860342  49.2961608  74.6418544  41.6500342  48.9881608  74.9118544
  41.3170342  45.6071608  73.5948544  43.8660342  46.3711608  73.1528544
  44.8260342  48.5701608  73.7868544  43.3930342  50.2571608  74.9228544
  40.9540342  49.6551608  75.3998544  41.8640342  44.8951608  73.1328544
  40.3450342  45.4311608  73.8108544  40.1970342  47.5731608  74.7528544
 109.0340342  78.3081608  38.5658544 109.3440342  78.1391608  37.2648544
 109.0350342  76.9251608  36.6428544 108.4130342  75.9141608  37.3828544
 108.1090342  76.1321608  38.7298544 108.4340342  77.3601608  39.3138544
 109.9700342  79.1851608  36.5608544 109.2720342  76.7631608  35.6008544
 108.1680342  74.9711608  36.9158544 107.6280342  75.3591608  39.3128544
 108.2390342  77.6181608  40.3448544 110.2060342  79.0681608  35.5858544
 110.1860342  80.0551608  37.0268544 109.2630342  79.1901608  39.0008544
  78.8740342 113.9801608  43.1228544  78.4680342 114.4921608  41.9438544
  78.8650342 113.8681608  40.7568544  79.6750342 112.7291608  40.8178544
  80.0740342 112.2311608  42.0628544  79.6540342 112.8841608  43.2258544
  77.6540342 115.6401608  41.9318544  78.5540342 114.2571608  39.7978544
  79.9900342 112.2361608  39.9098544  80.6990342 111.3521608  42.1248544
  79.9110342 112.5741608  44.2278544  77.3440342 116.0321608  41.0528544
  77.3770342 116.0781608  42.7988544  78.5790342 114.4411608  43.9718544
  47.2180342  34.6321608  74.8508544  46.5940342  33.7141608  75.6168544
  47.3390342  32.9811608  76.5458544  48.7140342  33.2151608  76.6598544
  49.3210342  34.1771608  75.8448544  48.5390342  34.8881608  74.9298544
  45.2090342  33.5131608  75.4668544  46.8650342  32.2391608  77.1728544
  49.3030342  32.6571608  77.3728544  50.3810342  34.3671608  75.9228544
  48.9190342  35.6471608  74.2608544  44.7320342  32.8281608  76.0358544
  44.6860342  34.0521608  74.7898544  46.6660342  35.1531608  74.1848544
  52.0970342 122.7251608  57.4628544  52.0770342 122.4671608  58.7868544
  52.4410342 123.4761608  59.6838544  52.8190342 124.7291608  59.1898544
  52.8260342 124.9541608  57.8098544  52.4550342 123.9191608  56.9468544
  51.6900342 121.1901608  59.2368544  52.4340342 123.2961608  60.7498544
  53.1030342 125.5181608  59.8708544  53.1160342 125.9171608  57.4148544
  52.4300342 123.9991608  55.8698544  51.6710342 120.9861608  60.2258544
  51.4310342 120.4731608  58.5728544  51.8320342 121.9861608  56.8278544
  66.9410342  24.2901608 101.9068544  67.2820342  25.5601608 102.2078544
  68.1480342  26.2531608 101.3568544  68.6400342  25.6171608 100.2118544
  68.2600342  24.2991608  99.9368544  67.3930342  23.6411608 100.8138544
  66.7620342  26.1591608 103.3708544  68.4380342  27.2711608 101.5738544
  69.3100342  26.1401608  99.5448544  68.6330342  23.7961608  99.0568544
  67.0450342  22.6271608 100.6848544  67.0120342  27.1091608 103.6058544
  66.1380342  25.6411608 103.9748544  66.3140342  23.8031608 102.5308544
 115.9230342  62.2881608  68.2538544 116.5080342  63.3441608  67.6518544
 117.5200342  63.1191608  66.7148544 117.9050342  61.8061608  66.4218544
 117.2710342  60.7401608  67.0698544 116.2630342  61.0081608  68.0008544
 116.0880342  64.6471608  67.9788544 118.0060342  63.9461608  66.2168544
 118.6850342  61.6161608  65.6988544 117.5580342  59.7211608  66.8528544
 115.7200342  60.2531608  68.5488544 116.5200342  65.4451608  67.5338544
 115.3550342  64.7911608  68.6598544 115.1930342  62.4671608  68.9288544
 101.8580342  85.1561608  74.3568544 101.6630342  84.1471608  73.4838544
 101.7840342  84.3971608  72.1138544 102.1050342  85.6871608  71.6768544
 102.3000342  86.7051608  72.6168544 102.1690342  86.4131608  73.9778544
 101.3420342  82.8651608  73.9698544 101.6330342  83.6061608  71.3928544
 102.2020342  85.8951608  70.6218544 102.5480342  87.7051608  72.2938544
 102.3000342  87.1321608  74.7728544 101.1930342  82.1021608  73.3248544
 101.2570342  82.7031608  74.9638544 101.7670342  84.9601608  75.3428544
  37.0330342  45.8161608 100.9458544  35.8790342  46.0311608 101.6108544
  35.8430342  45.8351608 102.9948544  37.0030342  45.4221608 103.6598544
  38.1780342  45.2111608 102.9308544  38.1710342  45.4181608 101.5488544
  34.7370342  46.4461608 100.8988544  34.9320342  46.0001608 103.5518544
  36.9910342  45.2671608 104.7288544  39.0810342  44.8921608 103.4318544
  39.0280342  45.2801608 100.9048544  33.8680342  46.6101608 101.3868544
  34.7820342  46.5811608  99.8988544  37.0430342  45.9611608  99.9458544
 102.3360342  87.8031608  79.0548544 101.0440342  88.0991608  78.8068544
 100.5640342  89.3751608  79.1188544 101.4340342  90.3161608  79.6798544
 102.7670342  89.9681608  79.9198544 103.2060342  88.6811608  79.5938544
 100.2060342  87.1191608  78.2418544  99.5330342  89.6391608  78.9308544
 101.0790342  91.3061608  79.9258544 103.4500342  90.6851608  80.3518544
 104.2150342  88.3221608  79.7418544  99.2360342  87.3301608  78.0518544
 100.5700342  86.2021608  78.0238544 102.6670342  86.8771608  78.8238544
  71.1340342  61.2401608  20.6188544  70.3330342  61.7291608  21.5878544
  70.4050342  63.0881608  21.9098544  71.3040342  63.9101608  21.2218544
  72.1160342  63.3611608  20.2238544  72.0130342  61.9981608  19.9318544
  69.4440342  60.8641608  22.2528544  69.7750342  63.5061608  22.6828544
  71.3710342  64.9611608  21.4598544  72.8150342  63.9841608  19.6848544
  72.5970342  61.4871608  19.1798544  68.8400342  61.2201608  22.9798544
  69.4070342  59.8841608  22.0068544  71.0700342  60.2571608  20.3968544
 112.2030342  32.9591608  93.9108544 111.0020342  33.2171608  93.3538544
 109.8460342  32.7231608  93.9668544 109.9600342  31.9721608  95.1418544
 111.2250342  31.7281608  95.6858544 112.3560342  32.2401608  95.0418544
 110.9370342  33.9761608  92.1708544 108.8710342  32.9141608  93.5418544
 109.0760342  31.5841608  95.6268544 111.3280342  31.1511608  96.5928544
 113.3710342  32.1041608  95.3858544 110.0420342  34.1751608  91.7448544
 111.7830342  34.3241608  91.7408544 113.0290342  33.3221608  93.4558544
 118.9910342 117.3981608  87.3938544 118.3210342 116.5671608  86.5708544
 118.9210342 116.1621608  85.3738544 120.2020342 116.6271608  85.0568544
 120.8610342 117.4891608  85.9398544 120.2260342 117.8701608  87.1258544
 117.0340342 116.1241608  86.9318544 118.4060342 115.4961608  84.6958544
 120.6780342 116.3231608  84.1368544 121.8500342 117.8561608  85.7078544
 120.6550342 118.5291608  87.8658544 116.5230342 115.5011608  86.3218544
 116.6160342 116.4281608  87.7998544 118.5440342 117.6821608  88.2538544
 103.8840342  67.6331608  41.3958544 104.0030342  67.6691608  40.0528544
 103.2250342  66.8051608  39.2758544 102.3410342  65.9231608  39.9078544
 102.2500342  65.9191608  41.3028544 103.0450342  66.7991608  42.0428544
 104.9060342  68.5731608  39.4618544 103.3000342  66.8131608  38.1978544
 101.7330342  65.2501608  39.3208544 101.5720342  65.2431608  41.8038544
 103.0430342  66.8671608  43.1208544 105.0020342  68.6091608  38.4568544
 105.4610342  69.1901608  40.0388544 104.4530342  68.2631608  41.9428544
  25.4020342  56.5581608  81.2348544  24.1110342  56.8121608  80.9418544
  23.3640342  57.6261608  81.7998544  23.9720342  58.1571608  82.9428544
  25.3140342  57.8671608  83.2088544  26.0250342  57.0501608  82.3248544
  23.5420342  56.2551608  79.7798544  22.3270342  57.8461608  81.5888544
  23.4080342  58.7871608  83.6148544  25.7960342  58.2711608  84.0878544
  27.0620342  56.7721608  82.4478544  22.5760342  56.4401608  79.5508544
  24.0970342  55.6691608  79.1718544  25.9280342  55.9681608  80.6048544
 108.4790342  40.0621608  80.4728544 108.7920342  39.9621608  81.7808544
 109.8760342  39.1651608  82.1628544 110.6110342  38.4901608  81.1818544
 110.2510342  38.6221608  79.8368544 109.1610342  39.4291608  79.4968544
 108.0240342  40.6601608  82.7328544 110.1500342  39.0671608  83.2038544
 111.4510342  37.8711608  81.4618544 110.8090342  38.1071608  79.0688544
 108.8100342  39.5901608  78.4888544 108.2510342  40.5911608  83.7148544
 107.2440342  41.2301608  82.4378544 107.6930342  40.6421608  80.2128544
 112.1560342  43.0821608 105.4208544 112.2250342  42.2201608 104.3858544
 113.4090342  42.1381608 103.6448544 114.4940342  42.9501608 103.9928544
 114.3780342  43.8301608 105.0738544 113.1780342  43.8821608 105.7878544
 111.1080342  41.4231608 104.0728544 113.4910342  41.4561608 102.8098544
 115.4140342  42.8971608 103.4298544 115.2090342  44.4631608 105.3528544
 112.9970342  44.5281608 106.6348544 111.1490342  40.7741608 103.2998544
 110.2610342  41.4971608 104.6188544 111.2950342  43.1301608 105.9458544
 102.2970342  92.1151608  40.8378544 101.2600342  92.2031608  41.6958544
 100.7120342  91.0301608  42.2238544 101.2500342  89.7931608  41.8528544
 102.3260342  89.7481608  40.9598544 102.8450342  90.9441608  40.4548544
 100.7520342  93.4701608  42.0408544  99.8800342  91.0711608  42.9138544
 100.8370342  88.8781608  42.2518544 102.7510342  88.8001608  40.6648544
 103.6720342  91.0081608  39.7628544  99.9760342  93.5461608  42.6818544
 101.1610342  94.3061608  41.6478544 102.6830342  92.9711608  40.4648544
  53.9560342  28.6421608  83.4168544  54.0460342  27.3951608  83.9218544
  54.1080342  27.2241608  85.3078544  54.0750342  28.3481608  86.1408544
  53.9800342  29.6241608  85.5748544  53.9210342  29.7511608  84.1838544
  54.0770342  26.2941608  83.0448544  54.1810342  26.2361608  85.7398544
  54.1210342  28.2321608  87.2138544  53.9530342  30.5001608  86.2058544
  53.8470342  30.6921608  83.6578544  54.1440342  25.3561608  83.4128544
  54.0320342  26.4371608  82.0458544  53.9120342  28.7501608  82.4128544
 124.5840342  48.1391608  71.9268544 124.6270342  49.3861608  71.4148544
 123.4360342  50.1081608  71.2778544 122.2290342  49.5221608  71.6738544
 122.2310342  48.2261608  72.2008544 123.4430342  47.5391608  72.3208544
 125.8650342  49.9341608  71.0288544 123.4410342  51.1091608  70.8698544
 121.3020342  50.0671608  71.5738544 121.3060342  47.7611608  72.5108544
 123.5420342  46.5381608  72.7148544 125.9070342  50.8671608  70.6438544
 126.7140342  49.3981608  71.1348544 125.4520342  47.6311608  72.0198544
  93.6800342  84.7251608 122.9468544  94.4410342  85.7751608 123.3178544
  95.4840342  86.1891608 122.4838544  95.7150342  85.5071608 121.2838544
  94.9010342  84.4231608 120.9388544  93.8690342  84.0411608 121.8008544
  94.1700342  86.4311608 124.5338544  96.1090342  87.0281608 122.7558544
  96.5170342  85.8151608 120.6288544  95.0690342  83.8871608 120.0148544
  93.1920342  83.2191608 121.6178544  94.7340342  87.2181608 124.8208544
  93.4130342  86.1161608 125.1248544  92.9300342  84.4381608 123.5608544
  55.3820342  90.3631608  89.8478544  55.6210342  89.1081608  89.4168544
  54.5870342  88.1671608  89.4498544  53.3280342  88.5481608  89.9288544
  53.1240342  89.8601608  90.3658544  54.1840342  90.7701608  90.3158544
  56.9030342  88.7711608  88.9438544  54.7510342  87.1541608  89.1108544
  52.5190342  87.8321608  89.9608544  52.1570342  90.1681608  90.7378544
  54.1210342  91.8011608  90.6308544  57.0930342  87.8331608  88.6188544
  57.6390342  89.4631608  88.9278544  56.1390342  91.0311608  89.8168544
  81.5820342  46.6401608 103.7248544  81.8120342  47.5951608 102.8018544
  82.0120342  48.9141608 103.2198544  81.9690342  49.2151608 104.5858544
  81.7280342  48.1931608 105.5098544  81.5330342  46.8881608 105.0498544
  81.8460342  47.2451608 101.4378544  82.1980342  49.7001608 102.5008544
  82.1220342  50.2291608 104.9238544  81.6920342  48.4111608 106.5678544
  81.3410342  46.0371608 105.6868544  82.0170342  47.9531608 100.7378544
  81.6980342  46.2871608 101.1548544  81.4390342  45.6921608 103.4068544
 110.5280342  45.1221608  99.4618544 110.2550342  46.4371608  99.3468544
 110.3480342  47.0451608  98.0908544 110.7210342  46.2771608  96.9828544
 110.9940342  44.9151608  97.1478544 110.8900342  44.3461608  98.4198544
 109.8840342  47.1701608 100.4908544 110.1350342  48.0981608  97.9708544
 110.7970342  46.7331608  96.0068544 111.2830342  44.3101608  96.2998544
 111.0810342  43.3071608  98.6428544 109.6780342  48.1561608 100.4148544
 109.8230342  46.7141608 101.3898544 110.4560342  44.6971608 100.3758544
  90.1960342  89.7131608 119.9768544  90.7270342  88.4771608 120.0778544
  91.7820342  88.2591608 120.9688544  92.2650342  89.3261608 121.7348544
  91.6850342  90.5921608 121.5988544  90.6320342  90.7671608 120.6968544
  90.2080342  87.4351608 119.2868544  92.2260342  87.2791608 121.0698544
  93.0800342  89.1731608 122.4278544  92.0480342  91.4241608 122.1848544
  90.1230342  91.7051608 120.5248544  90.5990342  86.5061608 119.3548544
  89.4460342  87.6121608 118.6468544  89.4340342  89.8551608 119.3288544
 123.9300342  80.7921608  41.4188544 124.0190342  82.1351608  41.5058544
 125.2290342  82.7141608  41.8998544 126.3210342  81.8901608  42.1928544
 126.1850342  80.5011608  42.0888544 124.9580342  79.9631608  41.6918544
 122.8940342  82.9241608  41.2008544 125.3280342  83.7881608  41.9778544
 127.2630342  82.3221608  42.4978544 127.0200342  79.8531608  42.3128544
 124.7600342  78.9061608  41.5838544 122.9490342  83.9311608  41.2638544
 122.0270342  82.4881608  40.9198544 123.0490342  80.3891608  41.1328544
 117.6450342  86.7471608  77.4238544 118.6230342  87.1491608  76.5858544
 119.9550342  87.0651608  77.0028544 120.2450342  86.5661608  78.2768544
 119.2000342  86.1591608  79.1138544 117.8820342  86.2601608  78.6588544
 118.2830342  87.6451608  75.3128544 120.7580342  87.3811608  76.3518544
 121.2690342  86.4951608  78.6128544 119.4100342  85.7721608  80.0998544
 117.0130342  85.9711608  79.2318544 119.0070342  87.9491608  74.6778544
 117.3140342  87.6991608  75.0298544 116.6880342  86.8141608  77.1078544
 104.8620342  81.2271608  34.2098544 105.2460342  82.0371608  35.2178544
 105.3340342  81.5191608  36.5138544 105.0230342  80.1731608  36.7368544
 104.6290342  79.3681608  35.6628544 104.5540342  79.9251608  34.3828544
 105.5500342  83.3841608  34.9448544 105.6400342  82.1461608  37.3398544
 105.0860342  79.7581608  37.7318544 104.3860342  78.3271608  35.8208544
 104.2600342  79.3831608  33.4958544 105.8380342  83.9991608  35.6918544
 105.4790342  83.7411608  34.0018544 104.8040342  81.6161608  33.2798544
  94.8260342  22.2521608  63.0908544  95.3510342  23.4931608  63.0338544
  96.6380342  23.7131608  63.5338544  97.3530342  22.6431608  64.0838544
  96.7700342  21.3721608  64.1228544  95.4810342  21.1941608  63.6118544
  94.5940342  24.5381608  62.4718544  97.0820342  24.6981608  63.5008544
  98.3480342  22.7971608  64.4738544  97.3110342  20.5371608  64.5448544
  94.9520342  20.2521608  63.5998544  94.9770342  25.4721608  62.4238544
  93.6650342  24.3611608  62.1158544  93.8960342  22.1091608  62.7258544
 120.4540342  85.1411608  92.6688544 119.2170342  85.6781608  92.6568544
 118.1050342  84.8301608  92.6468544 118.3000342  83.4441608  92.6478544
 119.6000342  82.9301608  92.6598544 120.6840342  83.8121608  92.6708544
 119.0700342  87.0781608  92.6558544 117.1020342  85.2331608  92.6378544
 117.4510342  82.7761608  92.6398544 119.7650342  81.8621608  92.6618544
 121.7210342  83.5081608  92.6798544 118.1480342  87.4911608  92.6478544
 119.8850342  87.6761608  92.6628544 121.2470342  85.7671608  92.6758544
 119.7420342  46.3791608  74.7628544 118.9230342  45.3091608  74.7998544
 117.5410342  45.5041608  74.7098544 117.0390342  46.8041608  74.5828544
 117.9240342  47.8861608  74.5488544 119.2980342  47.6471608  74.6418544
 119.4740342  44.0201608  74.9288544 116.8610342  44.6641608  74.7368544
 115.9740342  46.9701608  74.5118544 117.5500342  48.8951608  74.4508544
 120.0560342  48.4181608  74.6248544 118.8690342  43.2111608  74.9578544
 120.4750342  43.8981608  74.9938544 120.7370342  46.2221608  74.8298544
  49.6800342  80.1001608 130.5808544  50.2400342  78.8881608 130.7628544
  49.5800342  77.7521608 130.2838544  48.3530342  77.8981608 129.6268544
  47.8070342  79.1751608 129.4588544  48.5000342  80.2841608 129.9528544
  51.4760342  78.7901608 131.4298544  50.0070342  76.7681608 130.4158544
  47.8310342  77.0301608 129.2508544  46.8610342  79.3021608 128.9538544
  48.1580342  81.3051608 129.8708544  51.9050342  77.8861608 131.5718544
  51.9390342  79.6221608 131.7698544  50.1690342  80.9111608 130.9318544
 100.3990342  35.1961608  70.0068544 100.3670342  35.0231608  68.6698544
  99.5440342  35.8471608  67.8958544  98.7730342  36.8321608  68.5238544
  98.8380342  36.9771608  69.9138544  99.6730342  36.1321608  70.6508544
 101.1600342  34.0191608  68.0818544  99.4990342  35.7311608  66.8218544
  98.1330342  37.4761608  67.9388544  98.2480342  37.7331608  70.4108544
  99.7880342  36.1691608  71.7238544 101.1430342  33.8821608  67.0818544
 101.7480342  33.4331608  68.6578544 100.9990342  34.5931608  70.5518544
 109.7460342 112.7061608  92.1498544 111.0810342 112.5201608  92.1168544
 111.9250342 113.6341608  92.0698544 111.3660342 114.9171608  92.0568544
 109.9760342 115.0651608  92.0918544 109.1680342 113.9251608  92.1388544
 111.5980342 111.2101608  92.1318544 112.9980342 113.5141608  92.0428544
 112.0050342 115.7881608  92.0198544 109.5310342 116.0501608  92.0828544
 108.0880342 113.9401608  92.1688544 112.5960342 111.0591608  92.1068544
 110.9730342 110.4171608  92.1648544 109.1500342 111.8911608  92.1838544
  21.8580342  63.0781608  59.6198544  21.2660342  63.7931608  60.5978544
  21.4590342  63.4161608  61.9308544  22.2610342  62.3071608  62.2198544
  22.8560342  61.5941608  61.1748544  22.6380342  62.0031608  59.8558544
  20.4680342  64.9021608  60.2578544  20.9970342  63.9721608  62.7338544
  22.4200342  62.0041608  63.2448544  23.4780342  60.7351608  61.3848544
  23.0540342  61.5161608  58.9868544  20.0200342  65.4441608  60.9828544
  20.3380342  65.1591608  59.2888544  21.7090342  63.3631608  58.6618544
  26.4600342  57.1051608  43.8428544  27.7570342  56.9861608  43.4908544
  28.6420342  56.3381608  44.3588544  28.1640342  55.8271608  45.5698544
  26.8120342  55.9721608  45.8948544  25.9600342  56.6271608  44.9998544
  28.1920342  57.5161608  42.2618544  29.6860342  56.2291608  44.1018544
  28.8360342  55.3241608  46.2508544  26.4290342  55.5821608  46.8278544
  24.9040342  56.7861608  45.1648544  29.1610342  57.4331608  41.9888544
  27.5380342  57.9821608  41.6478544  25.8340342  57.5761608  43.2058544
  30.8910342  46.0461608  55.0708544  30.5420342  45.0021608  54.2928544
  30.8170342  43.7031608  54.7318544  31.4470342  43.5151608  55.9678544
  31.7910342  44.6271608  56.7428544  31.4980342  45.9091608  56.2678544
  29.9110342  45.2391608  53.0578544  30.5490342  42.8471608  54.1278544
  31.6660342  42.5181608  56.3198544  32.2770342  44.4961608  57.6988544
  31.7260342  46.8241608  56.7948544  29.6460342  44.4641608  52.4668544
  29.7210342  46.1851608  52.7558544  30.6850342  46.9781608  54.7398544
  64.0070342  26.2981608 112.2998544  64.3260342  27.2251608 111.3738544
  63.3040342  27.9651608 110.7698544  61.9760342  27.7281608 111.1388544
  61.6900342  26.7571608 112.1038544  62.7400342  26.0391608 112.6828544
  65.6770342  27.4281608 111.0348544  63.5320342  28.7141608 110.0248544
  61.1760342  28.2921608 110.6808544  60.6680342  26.5641608 112.3978544
  62.6160342  25.2721608 113.4338544  65.9270342  28.1201608 110.3428544
  66.4020342  26.8831608 111.4808544  64.7560342  25.7711608 112.7268544
 116.8390342  87.8911608 112.0968544 116.9910342  87.0041608 113.1008544
 116.3810342  85.7501608 113.0008544 115.6260342  85.4431608 111.8638544
 115.4940342  86.3931608 110.8458544 116.1200342  87.6351608 110.9848544
 117.7600342  87.3581608 114.2258544 116.4860342  85.0201608 113.7908544
 115.1480342  84.4781608 111.7728544 114.9140342  86.1691608 109.9618544
 116.0750342  88.4281608 110.2528544 117.8810342  86.7001608 114.9828544
 118.1930342  88.2691608 114.2808544 117.2860342  88.7931608 112.1828544
 103.1170342  84.3871608 104.1318544 103.9810342  84.1221608 105.1328544
 105.3300342  84.4561608 104.9768544 105.7540342  85.0561608 103.7858544
 104.8250342  85.3131608 102.7728544 103.4850342  84.9631608 102.9698544
 103.5070342  83.5171608 106.3128544 106.0430342  84.2561608 105.7638544
 106.7930342  85.3201608 103.6508544 105.1390342  85.7761608 101.8488544
 102.6990342  85.1221608 102.2458544 104.1460342  83.3151608 107.0698544
 102.5290342  83.2821608 106.4078544 102.1460342  84.1401608 104.2598544
  52.6500342  88.0701608  83.0548544  53.4620342  88.5241608  84.0308544
  54.7180342  89.0341608  83.6908544  55.1060342  89.0631608  82.3468544
  54.2330342  88.5821608  81.3658544  52.9850342  88.0801608  81.7488544
  53.0280342  88.4751608  85.3698544  55.3890342  89.4041608  84.4538544
  56.0740342  89.4541608  82.0688544  54.5190342  88.5991608  80.3248544
  52.2470342  87.6891608  81.0638544  53.6290342  88.8121608  86.1088544
  52.1170342  88.1021608  85.5968544  51.7450342  87.7051608  83.3158544
  32.8780342  94.4041608  74.7788544  32.5760342  93.0911608  74.8398544
  33.2790342  92.2711608  75.7278544  34.2800342  92.8281608  76.5308544
  34.5610342  94.1951608  76.4348544  33.8340342  94.9801608  75.5348544
  31.5620342  92.5751608  74.0118544  33.0580342  91.2151608  75.7968544
  34.8320342  92.2071608  77.2218544  35.3300342  94.6381608  77.0498544
  33.9800342  96.0411608  75.3918544  31.3280342  91.5931608  74.0498544
  31.0650342  93.1831608  73.3758544  32.3610342  94.9841608  74.1328544
  75.8230342  35.2251608 105.0838544  76.3350342  34.4601608 104.0978544
  77.3930342  34.9561608 103.3288544  77.8970342  36.2331608 103.5988544
  77.3370342  36.9921608 104.6308544  76.2810342  36.4601608 105.3758544
  75.7940342  33.1821608 103.8628544  77.8220342  34.3641608 102.5328544
  78.7150342  36.6291608 103.0138544  77.7170342  37.9801608 104.8498544
  75.7860342  36.9711608 106.1888544  76.1700342  32.6011608 103.1268544
  75.0290342  32.8411608 104.4278544  75.0600342  34.8541608 105.6298544
  32.9050342  52.5621608  67.0528544  32.4990342  53.8261608  67.2878544
  31.1840342  54.1891608  66.9808544  30.3190342  53.2341608  66.4358544
  30.7810342  51.9341608  66.2078544  32.1030342  51.6121608  66.5288544
  33.4060342  54.7531608  67.8378544  30.8330342  55.1961608  67.1598544
  29.3000342  53.5001608  66.1928544  30.1230342  51.1871608  65.7868544
  32.5470342  50.6381608  66.3878544  33.1120342  55.7021608  68.0188544
  34.3530342  54.4731608  68.0528544  33.8580342  52.3151608  67.2798544
  43.4370342  52.8311608  39.3618544  43.3810342  53.3971608  40.5838544
  43.4790342  52.5841608  41.7178544  43.6320342  51.2021608  41.5588544
  43.6840342  50.6561608  40.2728544  43.5830342  51.5041608  39.1658544
  43.2270342  54.7921608  40.6938544  43.4380342  53.0121608  42.7088544
  43.7080342  50.5611608  42.4248544  43.8020342  49.5911608  40.1358544
  43.6130342  51.1751608  38.1378544  43.1850342  55.2271608  41.6048544
  43.1570342  55.3641608  39.8638544  43.3650342  53.4311608  38.5528544
 116.8820342  80.9501608  94.4088544 116.8280342  81.7241608  95.5118544
 117.7740342  81.5361608  96.5238544 118.7560342  80.5511608  96.3698544
 118.7760342  79.7701608  95.2098544 117.8110342  79.9901608  94.2218544
 115.8220342  82.7021608  95.6218544 117.7540342  82.1421608  97.4188544
 119.4940342  80.3941608  97.1438544 119.5280342  79.0061608  95.0788544
 117.7470342  79.4391608  93.2948544 115.7720342  83.2871608  96.4438544
 115.1450342  82.8231608  94.8808544 116.1910342  81.0981608  93.6868544
 109.6220342  39.4861608  47.2048544 110.5130342  38.6561608  46.6268544
 110.0530342  37.5051608  45.9788544 108.6790342  37.2401608  45.9458544
 107.7900342  38.1281608  46.5588544 108.2910342  39.2671608  47.1948544
 111.8860342  38.9641608  46.6858544 110.7450342  36.8221608  45.5068544
 108.3080342  36.3551608  45.4488544 106.7270342  37.9361608  46.5398544
 107.6830342  40.0081608  47.6938544 112.5620342  38.3481608  46.2558544
 112.2000342  39.7991608  47.1598544 109.9700342  40.3131608  47.6688544
  85.0360342 111.0601608 130.6178544  83.7260342 111.3701608 130.7008544
  82.7770342 110.3461608 130.6188544  83.2060342 109.0241608 130.4538544
  84.5740342 108.7481608 130.3728544  85.4910342 109.8001608 130.4588544
  83.3430342 112.7141608 130.8668544  81.7210342 110.5661608 130.6828544
  82.4840342 108.2231608 130.3888544  84.9190342 107.7321608 130.2448544
  86.5630342 109.6831608 130.4068544  82.3640342 112.9571608 130.9298544
  84.0430342 113.4401608 130.9228544  85.7100342 111.8101608 130.6788544
 114.9010342 109.0551608 110.6848544 116.0450342 109.0831608 109.9718544
 117.2080342 109.5801608 110.5668544 117.1610342 110.0371608 111.8888544
 115.9530342 109.9901608 112.5928544 114.8130342 109.4861608 111.9598544
 116.0440342 108.6121608 108.6448544 118.1390342 109.6131608 110.0178544
 118.0520342 110.4231608 112.3628544 115.9030342 110.3401608 113.6138544
 113.8390342 109.4121608 112.4228544 116.8950342 108.6281608 108.1018544
 115.1930342 108.2571608 108.2308544 114.0690342 108.6941608 110.2408544
  46.1000342 106.1961608  90.8508544  45.3020342 107.1731608  90.3748544
  44.0310342 106.8421608  89.8938544  43.6150342 105.5071608  89.9188544
  44.4750342 104.5251608  90.4218544  45.7370342 104.8981608  90.8918544
  45.7640342 108.5031608  90.3698544  43.3720342 107.6061608  89.5058544
  42.6360342 105.2361608  89.5508544  44.1660342 103.4901608  90.4458544
  46.4670342 104.2121608  91.2978544  45.1750342 109.2431608  90.0148544
  46.6860342 108.7231608  90.7198544  47.0150342 106.4511608  91.1948544
  25.9400342  66.6071608 109.2858544  24.7280342  66.0541608 109.0788544
  24.5150342  65.2901608 107.9258544  25.5630342  65.1181608 107.0148544
  26.8040342  65.7101608 107.2698544  26.9750342  66.4651608 108.4328544
  23.7040342  66.2551608 110.0238544  23.5530342  64.8351608 107.7348544
  25.4130342  64.5311608 106.1198544  27.6210342  65.5841608 106.5738544
  27.8940342  66.9581608 108.7128544  22.7920342  65.8451608 109.8778544
  23.8760342  66.8101608 110.8498544  26.0780342  67.1561608 110.1228544
  41.1180342  66.0921608  96.8448544  40.7710342  66.4981608  98.0828544
  39.5710342  67.1941608  98.2608544  38.7580342  67.4531608  97.1518544
  39.1560342  67.0141608  95.8858544  40.3630342  66.3221608  95.7508544
  41.6210342  66.2141608  99.1678544  39.2680342  67.5311608  99.2418544
  37.8280342  67.9891608  97.2738544  38.5380342  67.2071608  95.0208544
  40.7520342  65.9451608  94.8158544  41.3710342  66.5141608 100.0998544
  42.4850342  65.7111608  99.0208544  41.9880342  65.5911608  96.7328544
  74.6950342 112.2011608 130.2558544  75.4260342 112.2661608 129.1238544
  76.3560342 113.3001608 128.9718544  76.5080342 114.2421608 129.9948544
  75.7290342 114.1371608 131.1518544  74.8110342 113.0891608 131.2648544
  75.2380342 111.2951608 128.1218544  76.9550342 113.3761608 128.0748544
  77.2220342 115.0461608 129.8918544  75.8360342 114.8581608 131.9488544
  74.1680342 112.9271608 132.1178544  75.7810342 111.3351608 127.2708544
  74.5610342 110.5561608 128.2498544  74.0270342 111.4491608 130.3508544
  40.6380342  69.1451608  68.4568544  40.6860342  70.0581608  67.4658544
  40.2600342  69.6961608  66.1838544  39.7940342  68.3961608  65.9568544
  39.7610342  67.4811608  67.0138544  40.1960342  67.8831608  68.2808544
  41.1630342  71.3531608  67.7408544  40.2880342  70.4081608  65.3708544
  39.4620342  68.1021608  64.9728544  39.4030342  66.4741608  66.8528544
  40.2070342  67.2481608  69.1538544  41.2040342  72.0451608  67.0048544
  41.4680342  71.5971608  68.6728544  40.9490342  69.4221608  69.3768544
  49.1550342 117.4191608 115.3568544  47.8920342 117.8531608 115.5448544
  47.6440342 119.2281608 115.5978544  48.7100342 120.1231608 115.4558544
  50.0050342 119.6301608 115.2628544  50.2100342 118.2481608 115.2158544
  46.8520342 116.9151608 115.6818544  46.6410342 119.6031608 115.7468544
  48.5340342 121.1881608 115.4948544  50.8370342 120.3101608 115.1518544
  51.1710342 117.7761608 115.0708544  45.9020342 117.2291608 115.8228544
  47.0500342 115.9241608 115.6418544  49.3180342 116.4231608 115.3208544
  43.7540342  73.5921608  45.3888544  43.4850342  73.9881608  44.1278544
  44.2850342  74.9701608  43.5368544  45.3450342  75.5211608  44.2638544
  45.5890342  75.0811608  45.5688544  44.7660342  74.0971608  46.1238544
  42.4070342  73.4051608  43.4348544  44.0910342  75.3061608  42.5268544
  45.9720342  76.2811608  43.8208544  46.4050342  75.4981608  46.1418544
  44.8770342  73.6961608  47.1208544  42.1960342  73.6951608  42.4898544
  41.8390342  72.6971608  43.8788544  43.1670342  72.8811608  45.8018544
  63.7140342  92.2631608 120.3238544  63.9160342  92.1321608 121.6508544
  65.2090342  92.2791608 122.1618544  66.2650342  92.5581608 121.2868544
  66.0110342  92.6851608 119.9168544  64.7040342  92.5311608 119.4468544
  62.8230342  91.8511608 122.4918544  65.3990342  92.1801608 123.2208544
  67.2690342  92.6751608 121.6668544  66.8170342  92.9011608 119.2308544
  64.4130342  92.6111608 118.4098544  62.9630342  91.7511608 123.4878544
  61.8950342  91.7471608 122.1048544  62.7740342  92.1531608 119.9698544
  20.5770342  62.2161608  92.5358544  19.8260342  62.6341608  91.4958544
  19.8550342  63.9841608  91.1328544  20.6600342  64.8711608  91.8548544
  21.4220342  64.3961608  92.9268544  21.3650342  63.0391608  93.2568544
  19.0320342  61.7041608  90.7988544  19.2640342  64.3451608  90.3028544
  20.6930342  65.9171608  91.5858544  22.0480342  65.0711608  93.4928544
  21.9170342  62.5821608  94.0658544  18.4660342  62.0061608  90.0178544
  19.0230342  60.7321608  91.0758544  20.5450342  61.2381608  92.7858544
  63.4730342  91.7221608 131.0628544  62.7420342  90.7751608 130.4408544
  61.3510342  90.9131608 130.3898544  60.7490342  92.0281608 130.9838544
  61.5460342  92.9861608 131.6188544  62.9330342  92.8111608 131.6468544
  63.3910342  89.6711608 129.8578544  60.7400342  90.1691608 129.8978544
  59.6760342  92.1471608 130.9528544  61.0950342  93.8521608 132.0808544
  63.6260342  93.4961608 132.1128544  62.8520342  88.9561608 129.3898544
  64.3970342  89.5881608 129.9058544  64.4770342  91.6091608 131.0918544
  44.2780342  74.4231608 114.8478544  43.2350342  75.2731608 114.9338544
  42.4690342  75.2961608 116.1038544  42.8010342  74.4381608 117.1578544
  43.8910342  73.5731608 117.0268544  44.6310342  73.5811608 115.8398544
  42.9390342  76.1171608 113.8468544  41.6270342  75.9681608 116.1988544
  42.2190342  74.4451608 118.0678544  44.1590342  72.9051608 117.8328544
  45.4870342  72.9501608 115.6478544  42.1600342  76.7581608 113.9008544
  43.5030342  76.0861608 113.0088544  44.8220342  74.4181608 113.9968544
  63.0530342  71.1131608  33.9888544  62.0430342  72.0061608  33.9398544
  60.7240342  71.5431608  33.9408544  60.4790342  70.1671608  33.9918544
  61.5560342  69.2761608  34.0418544  62.8600342  69.7791608  34.0398544
  62.3380342  73.3821608  33.8888544  59.8950342  72.2371608  33.9018544
  59.4650342  69.7951608  33.9928544  61.3820342  68.2101608  34.0818544
  63.7520342  69.1701608  34.0758544  61.5890342  74.0591608  33.8518544
  63.2980342  73.6971608  33.8888544  64.0010342  71.4631608  33.9878544
 100.1200342 120.2961608  46.5928544 101.0710342 119.4031608  46.9358544
 100.7200342 118.0561608  47.0798544  99.3940342 117.6661608  46.8648544
  98.4410342 118.6261608  46.5108544  98.8320342 119.9611608  46.3768544
 102.3920342 119.8421608  47.1408544 101.4620342 117.3191608  47.3538544
  99.1090342 116.6301608  46.9728544  97.4130342 118.3381608  46.3418544
  98.1680342 120.7691608  46.1078544 103.1110342 119.1811608  47.3978544
 102.6260342 120.8201608  47.0328544 100.3890342 121.2651608  46.4918544
 119.6340342  68.3761608  85.3238544 118.5760342  67.5521608  85.1858544
 117.3260342  68.0941608  84.8688544 117.2010342  69.4771608  84.7038544
 118.3240342  70.2961608  84.8568544 119.5560342  69.7141608  85.1728544
 118.7510342  66.1661608  85.3618544 116.4610342  67.4561608  84.7518544
 116.2420342  69.9111608  84.4588544 118.2410342  71.3661608  84.7318544
 120.4750342  70.2641608  85.3108544 117.9650342  65.5401608  85.2598544
 119.6610342  65.7921608  85.5908544 120.5300342  67.9701608  85.5528544
  48.6530342  60.8581608  56.0758544  49.0340342  61.9171608  55.3338544
  49.9660342  62.8171608  55.8588544  50.4830342  62.6001608  57.1408544
  50.0600342  61.4881608  57.8758544  49.1260342  60.6121608  57.3148544
  48.4860342  62.0951608  54.0488544  50.2890342  63.6751608  55.2858544
  51.2040342  63.2871608  57.5598544  50.4510342  61.3081608  58.8668544
  48.7420342  59.7301608  57.8058544  48.7650342  62.8851608  53.4848544
  47.8130342  61.4341608  53.6868544  47.9780342  60.2161608  55.6828544
  73.5670342 112.9581608 114.5668544  72.3350342 112.7611608 115.0798544
  71.7850342 111.4761608 115.0568544  72.5230342 110.4231608 114.5048544
  73.7970342 110.6721608 113.9848544  74.3100342 111.9721608 114.0258544
  71.6300342 113.8511608 115.6248544  70.7990342 111.2901608 115.4608544
  72.1110342 109.4251608 114.4808544  74.3770342 109.8681608 113.5548544
  75.2810342 112.2581608 113.6498544  70.7060342 113.7141608 116.0108544
  72.0430342 114.7731608 115.6308544  73.9500342 113.8921608 114.5908544
  34.0090342  50.0371608  84.1708544  33.9620342  51.3511608  83.8708544
  32.8470342  52.0991608  84.2598544  31.8050342  51.4701608  84.9508544
  31.8950342  50.1051608  85.2408544  33.0270342  49.3931608  84.8338544
  35.0340342  51.9411608  83.1748544  32.7830342  53.1541608  84.0328544
  30.9370342  52.0351608  85.2578544  31.0970342  49.6061608  85.7728544
  33.1840342  48.3391608  85.0128544  35.0090342  52.9241608  82.9458544
  35.8310342  51.3841608  82.9008544  34.8210342  49.5101608  83.8828544
  53.5420342  41.7511608  79.5698544  54.7390342  41.1301608  79.5468544
  55.9000342  41.8941608  79.3878544  55.7950342  43.2831608  79.2568544
  54.5330342  43.8861608  79.2868544  53.3970342  43.0861608  79.4468544
  54.7950342  39.7301608  79.6818544  56.8720342  41.4221608  79.3658544
  56.6830342  43.8861608  79.1338544  54.4380342  44.9571608  79.1868544
  52.3850342  43.4621608  79.4808544  55.6860342  39.2551608  79.6658544
  53.9450342  39.1951608  79.7948544  52.7120342  41.1861608  79.6848544
  76.4970342 127.7141608  86.7088544  75.4980342 126.8271608  86.8898544
  74.3980342 127.1881608  87.6748544  74.3580342 128.4611608  88.2538544
  75.4150342 129.3511608  88.0398544  76.4960342 128.9501608  87.2488544
  75.5830342 125.5571608  86.2878544  73.5840342 126.4961608  87.8358544
  73.5150342 128.7551608  88.8618544  75.3970342 130.3371608  88.4808544
  77.3560342 129.5671608  87.0288544  74.8400342 124.8851608  86.4168544
  76.3860342 125.3131608  85.7248544  77.2840342 127.4381608  86.1398544
  48.5300342  29.9321608 107.4898544  49.3380342  30.4621608 106.5488544
  50.7110342  30.5471608 106.8008544  51.2160342  30.0811608 108.0198544
  50.3410342  29.5391608 108.9668544  48.9750342  29.4721608 108.6758544
  48.7850342  30.9171608 105.3378544  51.3820342  30.9671608 106.0648544
  52.2740342  30.1401608 108.2278544  50.7170342  29.1761608 109.9118544
  48.2270342  29.0711608 109.3438544  49.3820342  31.3161608 104.6268544
  47.7900342  30.8491608 105.1738544  47.5400342  29.8781608 107.2928544
  86.1680342 101.2231608 135.0888544  85.5680342 102.3251608 135.5818544
  86.3510342 103.4331608 135.9238544  87.7370342 103.3731608 135.7458544
  88.3180342 102.2101608 135.2308544  87.5000342 101.1251608 134.9028544
  84.1690342 102.3381608 135.7428544  85.8960342 104.3291608 136.3208544
  88.3550342 104.2211608 136.0058544  89.3880342 102.1511608 135.0888544
  87.8580342 100.1891608 134.4998544  83.7100342 103.1591608 136.1118544
  83.6200342 101.5281608 135.4918544  85.5890342 100.4311608 134.8468544
  65.5640342  23.2891608  97.5448544  64.7240342  22.2481608  97.7158544
  63.3440342  22.4731608  97.6808544  62.8650342  23.7711608  97.4688544
  63.7730342  24.8211608  97.2958544  65.1440342  24.5541608  97.3378544
  65.2510342  20.9601608  97.9268544  62.6480342  21.6571608  97.8158544
  61.8020342  23.9601608  97.4398544  63.4170342  25.8281608  97.1318544
  65.9170342  25.2981608  97.2148544  64.6300342  20.1741608  98.0558544
  66.2510342  20.8171608  97.9498544  66.5580342  23.1101608  97.5728544
  59.8930342  52.5531608  42.6958544  61.1610342  53.0101608  42.7448544
  61.9940342  52.6011608  43.7908544  61.4950342  51.7281608  44.7638544
  60.1730342  51.2781608  44.6748544  59.3740342  51.7111608  43.6128544
  61.6190342  53.8871608  41.7438544  63.0140342  52.9521608  43.8548544
  62.1260342  51.4031608  45.5778544  59.7750342  50.6031608  45.4188544
  58.3450342  51.4181608  43.4618544  62.5670342  54.2351608  41.7708544
  61.0030342  54.1721608  40.9958544  59.3040342  52.8571608  41.9338544
  43.1590342  71.3041608 111.2888544  44.2750342  72.0161608 111.5458544
  44.8900342  71.8921608 112.7958544  44.3350342  71.0341608 113.7518544
  43.1760342  70.3151608 113.4428544  42.5920342  70.4671608 112.1818544
  44.7980342  72.8671608 110.5538544  45.7860342  72.4511608 113.0288544
  44.7980342  70.9281608 114.7218544  42.7360342  69.6491608 114.1718544
  41.7000342  69.9541608 111.8538544  45.6330342  73.4041608 110.7358544
  44.3390342  72.9441608 109.6558544  42.7270342  71.4041608 110.3818544
  35.2900342  79.8171608  39.5308544  34.8340342  78.5481608  39.5568544
  34.9380342  77.8111608  40.7408544  35.5110342  78.4051608  41.8708544
  35.9710342  79.7231608  41.7988544  35.8490342  80.4261608  40.5968544
  34.2650342  77.9931608  38.3948544  34.5800342  76.7921608  40.7898544
  35.5980342  77.8481608  42.7928544  36.4160342  80.1941608  42.6638544
  36.1750342  81.4451608  40.4468544  33.9200342  77.0441608  38.4048544
  34.2000342  78.5411608  37.5488544  35.2090342  80.3361608  38.6678544
  85.2990342  69.2001608  38.5028544  84.6910342  70.3961608  38.3698544
  83.5720342  70.6831608  39.1568544  83.1070342  69.7251608  40.0638544
  83.7680342  68.4971608  40.1698544  84.8830342  68.2491608  39.3648544
  85.1950342  71.3291608  37.4428544  83.0650342  71.6341608  39.0708544
  82.2430342  69.9321608  40.6788544  83.4190342  67.7481608  40.8668544
  85.4560342  67.3331608  39.3768544  84.7470342  72.2281608  37.3358544
  86.0040342  71.1031608  36.8818544  86.1060342  69.0071608  37.9268544
 108.7150342  99.3161608  94.1428544 109.1780342 100.3601608  93.4248544
 108.3500342 101.4691608  93.2228544 107.0620342 101.4731608  93.7688544
 106.6220342 100.3691608  94.5078544 107.4810342  99.2801608  94.6858544
 110.4810342 100.3111608  92.8948544 108.6960342 102.3191608  92.6518544
 106.4120342 102.3221608  93.6218544 105.6300342 100.3591608  94.9348544
 107.2290342  98.3871608  95.2388544 110.8370342 101.0871608  92.3558544
 111.0640342  99.5011608  93.0508544 109.3240342  98.5231608  94.2798544
  48.2170342  97.0581608  27.6118544  47.6210342  95.9871608  28.1748544
  48.4150342  94.9491608  28.6738544  49.8070342  95.0431608  28.5768544
  50.3840342  96.1721608  27.9848544  49.5550342  97.1871608  27.4998544
  46.2160342  95.9371608  28.2498544  47.9630342  94.0791608  29.1298544
  50.4330342  94.2491608  28.9568544  51.4580342  96.2571608  27.9048544
  49.9080342  98.0931608  27.0288544  45.7600342  95.1391608  28.6698544
  45.6590342  96.6961608  27.8838544  47.6300342  97.8001608  27.2568544
  74.6490342  43.3921608 112.3038544  73.5660342  43.0281608 111.5878544
  73.0410342  43.9181608 110.6458544  73.6490342  45.1661608 110.4678544
  74.7700342  45.5031608 111.2328544  75.2640342  44.5831608 112.1628544
  72.9880342  41.7621608 111.8008544  72.1740342  43.6521608 110.0578544
  73.2540342  45.8651608 109.7448544  75.2500342  46.4631608 111.1058544
  76.1220342  44.7551608 112.7968544  72.1770342  41.4801608 111.2698544
  73.3810342  41.1321608 112.4868544  75.0170342  42.7371608 112.9798544
  71.3330342  39.0941608  90.9888544  71.8440342  40.2251608  90.4598544
  73.2200342  40.3051608  90.2228544  74.0350342  39.2131608  90.5388544
  73.4640342  38.0591608  91.0848544  72.0840342  38.0201608  91.3068544
  70.9840342  41.2981608  90.1588544  73.6560342  41.1991608  89.7998544
  75.1000342  39.2601608  90.3608544  74.0820342  37.2091608  91.3338544
  71.5550342  37.1751608  91.7238544  71.3570342  42.1491608  89.7628544
  69.9930342  41.2221608  90.3388544  70.3370342  39.0521608  91.1548544
  50.0040342  68.7751608 133.1718544  48.8690342  69.1701608 132.5598544
  48.8110342  69.1661608 131.1628544  49.9290342  68.7531608 130.4308544
  51.0860342  68.3511608 131.1058544  51.1030342  68.3701608 132.5038544
  47.7690342  69.5781608 133.3378544  47.9140342  69.4781608 130.6468544
  49.9000342  68.7441608 129.3508544  51.9570342  68.0301608 130.5528544
  51.9490342  68.0781608 133.1098544  46.9140342  69.8761608 132.8898544
  47.8300342  69.5751608 134.3468544  50.0310342  68.7841608 134.1818544
  81.0560342 130.6121608  80.2128544  81.8400342 129.6201608  80.6808544
  82.4560342 128.7531608  79.7728544  82.2460342 128.9331608  78.4008544
  81.4240342 129.9751608  77.9598544  80.8270342 130.8201608  78.9008544
  82.0230342 129.4781608  82.0688544  83.0900342 127.9491608  80.1198544
  82.7150342 128.2711608  77.6878544  81.2530342 130.1261608  76.9038544
  80.1790342 131.6491608  78.6548544  82.6090342 128.7381608  82.4298544
  81.5690342 130.1141608  82.7098544  80.6180342 131.2301608  80.8818544
  93.0650342  40.3831608 124.9798544  93.4630342  39.1091608 125.1768544
  94.8220342  38.8421608 125.3658544  95.7390342  39.8981608 125.3448544
  95.2830342  41.2041608 125.1368544  93.9160342  41.4291608 124.9528544
  92.5040342  38.0791608 125.1898544  95.1690342  37.8301608 125.5258544
  96.7920342  39.7071608 125.4888544  95.9800342  42.0291608 125.1178544
  93.4720342  42.4001608 124.7858544  92.7910342  37.1221608 125.3368544
  91.5260342  38.2921608 125.0508544  92.0800342  40.5601608 124.8448544
  24.3210342  84.7451608  89.2138544  24.7620342  83.4751608  89.3288544
  25.9400342  83.1011608  88.6758544  26.6360342  84.0501608  87.9178544
  26.1420342  85.3561608  87.8258544  24.9610342  85.6891608  88.4938544
  24.0290342  82.5551608  90.1018544  26.3160342  82.0911608  88.7508544
  27.5470342  83.7761608  87.4078544  26.6690342  86.0981608  87.2438544
  24.5050342  86.6681608  88.4808544  24.3500342  81.6021608  90.1948544
  23.1790342  82.8441608  90.5658544  23.4680342  84.9991608  89.6918544
 116.2130342 112.8401608  54.5798544 116.9310342 113.5241608  53.6658544
 116.2970342 114.5071608  52.8988544 114.9350342 114.7601608  53.0958544
 114.2290342 114.0271608  54.0558544 114.9000342 113.0531608  54.8008544
 118.2990342 113.2351608  53.5018544 116.8480342 115.0701608  52.1588544
 114.4330342 115.5161608  52.5108544 113.1770342 114.2121608  54.2178544
 114.4390342 112.4391608  55.5618544 118.8450342 113.7421608  52.8198544
 118.7390342 112.5211608  54.0648544 116.6850342 112.1331608  55.1258544
  87.7850342 124.0761608  38.1028544  86.9610342 124.2231608  39.1598544
  85.5990342 124.4471608  38.9378544  85.1200342 124.5151608  37.6248544
  86.0100342 124.3571608  36.5568544  87.3640342 124.1341608  36.8228544
  87.4880342 124.1481608  40.4628544  84.9160342 124.5691608  39.7668544
  84.0700342 124.6871608  37.4368544  85.6530342 124.4071608  35.5378544
  88.1220342 124.0011608  36.0648544  86.8800342 124.2561608  41.2628544
  88.4760342 123.9861608  40.6048544  88.7660342 123.9151608  38.2798544
  86.6960342 118.5221608  38.0488544  85.4630342 118.9481608  38.3918544
  85.2410342 120.3171608  38.5708544  86.3010342 121.2131608  38.3918544
  87.5630342 120.7281608  38.0358544  87.7430342 119.3521608  37.8668544
  84.4280342 118.0091608  38.5618544  84.2630342 120.6871608  38.8458544
  86.1440342 122.2741608  38.5268544  88.3900342 121.4091608  37.8938544
  88.6790342 118.8861608  37.5938544  83.5010342 118.3191608  38.8178544
  84.6080342 117.0241608  38.4288544  86.8400342 117.5301608  37.9228544
  34.1210342 112.6321608  58.3698544  33.3630342 113.1941608  57.4068544
  33.1710342 112.5091608  56.2038544  33.7680342 111.2561608  56.0248544
  34.5460342 110.7101608  57.0498544  34.7140342 111.4281608  58.2378544
  32.7830342 114.4571608  57.6328544  32.5680342 112.9361608  55.4148544
  33.6280342 110.7141608  55.1008544  35.0130342 109.7431608  56.9248544
  35.2960342 111.0871608  59.0818544  32.2130342 114.8871608  56.9178544
  32.9340342 114.9381608  58.5078544  34.2510342 113.1401608  59.2338544
  93.6840342 106.0431608  22.6748544  92.4480342 106.2691608  23.1638544
  92.3050342 106.6751608  24.4948544  93.4460342 106.8371608  25.2888544
  94.7090342 106.5911608  24.7408544  94.8080342 106.1871608  23.4058544
  91.3300342 106.0931608  22.3268544  91.3260342 106.8631608  24.9118544
  93.3510342 107.1491608  26.3178544  95.5980342 106.7121608  25.3428544
  95.7380342 105.9761608  22.8978544  90.4000342 106.2601608  22.6828544
  91.4530342 105.7991608  21.3678544  93.7710342 105.7511608  21.7118544
 114.3800342  43.1851608  94.0988544 114.6860342  41.8711608  94.1138544
 115.8120342  41.4421608  94.8248544 116.5950342  42.3821608  95.5028544
 116.2410342  43.7351608  95.4608544 115.1080342  44.1221608  94.7388544
 113.8690342  40.9621608  93.4168544 116.0800342  40.3951608  94.8538544
 117.4670342  42.0661608  96.0558544 116.8360342  44.4711608  95.9808544
 114.7580342  45.1401608  94.6498544 114.0900342  39.9761608  93.4218544
 113.0600342  41.2911608  92.9078544 113.5640342  43.4791608  93.5818544
 116.1560342  95.2981608  99.9978544 116.5640342  94.9381608 101.2328544
 116.5020342  93.5911608 101.6048544 116.0200342  92.6481608 100.6908544
 115.6080342  93.0651608  99.4208544 115.6850342  94.4211608  99.0888544
 117.0410342  95.9221608 102.1178544 116.8220342  93.2751608 102.5878544
 115.9660342  91.6041608 100.9638544 115.2330342  92.3471608  98.7058544
 115.3910342  94.8351608  98.1348544 117.3490342  95.6631608 103.0448544
 117.0780342  96.8901608 101.8318544 116.2070342  96.2741608  99.7438544
  51.8660342 128.5131608  84.5628544  52.2780342 129.7951608  84.6268544
  53.6350342 130.0661608  84.8288544  54.5350342 129.0021608  84.9598544
  54.0650342 127.6871608  84.8858544  52.7010342 127.4601608  84.6828544
  51.3360342 130.8321608  84.4908544  53.9930342 131.0841608  84.8848544
  55.5860342 129.1961608  85.1158544  54.7490342 126.8571608  84.9848544
  52.2470342 126.4821608  84.6128544  51.6340342 131.7961608  84.5368544
  50.3600342 130.6171608  84.3458544  50.8830342 128.3331608  84.4168544
 102.5390342  83.3291608  48.3008544 101.3920342  82.6431608  48.1208544
 100.1710342  83.3191608  48.2208544 100.1670342  84.6891608  48.5038544
 101.3800342  85.3611608  48.6828544 102.5780342  84.6491608  48.5748544
 101.4460342  81.2661608  47.8378544  99.2360342  82.7941608  48.0808544
  99.2320342  85.2251608  48.5838544 101.3910342  86.4191608  48.9018544
 103.5610342  85.0811608  48.6968544 100.5920342  80.7431608  47.7018544
 102.3370342  80.7941608  47.7708544 103.4120342  82.8271608  48.2258544
  41.1380342 115.4491608  94.9368544  42.1680342 115.5651608  95.7998544
  41.9570342 116.1931608  97.0318544  40.6850342 116.6861608  97.3418544
  39.6450342 116.5451608  96.4168544  39.8980342 115.9111608  95.1968544
  43.4300342 115.0531608  95.4438544  42.7650342 116.2991608  97.7418544
  40.5070342 117.1731608  98.2898544  38.6580342 116.9211608  96.6438544
  39.1600342 115.7561608  94.4228544  44.2080342 115.1351608  96.0828544
  43.5630342 114.6041608  94.5488544  41.3060342 114.9931608  94.0508544
  31.8940342 106.9171608 109.2898544  31.7730342 106.3941608 110.5268544
  32.2550342 105.1041608 110.7708544  32.8530342 104.3861608 109.7288544
  32.9580342 104.9681608 108.4618544  32.4620342 106.2591608 108.2588544
  31.1640342 107.1541608 111.5428544  32.1710342 104.6601608 111.7528544
  33.2300342 103.3891608 109.9028544  33.4170342 104.4251608 107.6478544
  32.4990342 106.7881608 107.3178544  31.0690342 106.7711608 112.4728544
  30.8200342 108.0841608 111.3478544  31.5400342 107.8501608 109.1288544
  20.2010342  97.8411608  70.9048544  20.0360342  96.5061608  70.9918544
  21.1550342  95.6731608  70.8938544  22.4200342  96.2421608  70.7078544
  22.5450342  97.6321608  70.6238544  21.4020342  98.4291608  70.7268544
  18.7440342  95.9791608  71.1778544  21.0510342  94.5991608  70.9598544
  23.2930342  95.6111608  70.6308544  23.5160342  98.0851608  70.4808544
  21.4010342  99.5081608  70.6728544  18.6090342  94.9801608  71.2448544
  17.9470342  96.5961608  71.2458544  19.3830342  98.4301608  70.9778544
  26.7620342  81.9331608 112.7448544  26.9120342  83.2731608 112.7718544
  28.1980342  83.8171608 112.6988544  29.3000342  82.9601608 112.5988544
  29.0990342  81.5771608 112.5728544  27.7970342  81.0741608 112.6488544
  25.7740342  84.0951608 112.8738544  28.3470342  84.8871608 112.7188544
  30.3000342  83.3661608 112.5408544  29.9410342  80.9041608 112.4958544
  27.5450342  80.0231608 112.6358544  25.8750342  85.1001608 112.8958544
  24.8520342  83.6841608 112.9268544  25.8270342  81.5561608 112.7978544
  78.5030342  42.9591608 123.4918544  77.9040342  44.0221608 122.9158544
  77.0710342  43.8201608 121.8118544  76.8750342  42.5211608 121.3278544
  77.5150342  41.4471608 121.9548544  78.3410342  41.6921608 123.0568544
  78.1310342  45.3091608 123.4378544  76.5790342  44.6541608 121.3308544
  76.2340342  42.3491608 120.4758544  77.3730342  40.4401608 121.5918544
  78.8750342  40.9291608 123.6028544  77.6880342  46.1121608 123.0138544
  78.7370342  45.4361608 124.2358544  79.1020342  43.1211608 124.2878544
 112.6970342 126.0891608  65.6618544 111.8490342 126.9261608  65.0298544
 112.0620342 128.3061608  65.1168544 113.1480342 128.7871608  65.8568544
 114.0030342 127.8831608  66.4958544 113.7550342 126.5121608  66.3838544
 110.7700342 126.3961608  64.2978544 111.3980342 128.9991608  64.6208544
 113.3250342 129.8501608  65.9328544 114.8450342 128.2411608  67.0708544
 114.3580342 125.7411608  66.8418544 110.1300342 127.0141608  63.8208544
 110.6320342 125.3961608  64.2468544 112.5300342 125.0951608  65.5888544
  73.7130342  57.6521608 134.7648544  72.6510342  56.8361608 134.6108544
  71.3640342  57.3831608 134.6188544  71.2070342  58.7641608 134.7868544
  72.3370342  59.5731608 134.9438544  73.6050342  58.9861608 134.9288544
  72.8580342  55.4531608 134.4448544  70.4950342  56.7531608 134.4978544
  70.2190342  59.2011608 134.7958544  72.2300342  60.6401608 135.0738544
  74.5320342  59.5291608 135.0428544  72.0690342  54.8341608 134.3278544
  73.7950342  55.0761608 134.4418544  74.6360342  57.2411608 134.7568544
  94.2360342  73.0601608 119.8078544  94.7840342  74.2601608 119.5328544
  93.9760342  75.2761608 119.0118544  92.6180342  75.0251608 118.7888544
  92.0900342  73.7661608 119.0878544  92.9320342  72.7781608 119.6068544
  96.1560342  74.4661608 119.7738544  94.3900342  76.2481608 118.7818544
  91.9810342  75.8001608 118.3868544  91.0430342  73.5591608 118.9208544
  92.6150342  71.7781608 119.8678544  96.5770342  75.3621608 119.5708544
  96.7240342  73.7201608 120.1498544  94.8320342  72.3361608 120.1838544
  66.4010342  59.3211608  30.0248544  67.7000342  59.6861608  30.0208544
  68.4030342  59.6911608  28.8118544  67.7450342  59.3191608  27.6338544
  66.3980342  58.9481608  27.6838544  65.7310342  58.9561608  28.9128544
  68.3190342  60.0521608  31.2308544  69.4440342  59.9791608  28.7798544
  68.2750342  59.3181608  26.6928544  65.8780342  58.6581608  26.7818544
  64.6940342  58.6861608  29.0478544  69.2910342  60.3271608  31.2388544
  67.7950342  60.0411608  32.0948544  65.9070342  59.3221608  30.9058544
  83.5970342 119.2781608  52.2018544  82.8960342 120.4291608  52.2128544
  83.5840342 121.6471608  52.2148544  84.9830342 121.6431608  52.2048544
  85.6710342 120.4251608  52.1938544  84.9450342 119.2311608  52.1918544
  81.4890342 120.3831608  52.2218544  83.0470342 122.5851608  52.2228544
  85.5290342 122.5761608  52.2058544  86.7510342 120.4081608  52.1858544
  85.3870342 118.2461608  52.1838544  80.9540342 121.2401608  52.2298544
  81.0080342 119.4941608  52.2218544  83.0850342 118.4071608  52.2008544
 115.4130342 121.1231608  85.1788544 115.5620342 119.7841608  85.2348544
 116.6760342 119.1951608  84.6288544 117.6110342 120.0071608  83.9768544
 117.4180342 121.3921608  83.9428544 116.2910342 121.9401608  84.5608544
 114.5950342 119.0091608  85.9018544 116.8190342 118.1251608  84.6588544
 118.4770342 119.5671608  83.5038544 118.1330342 122.0301608  83.4428544
 116.0590342 122.9951608  84.5858544 114.6960342 118.0051608  85.9498544
 113.7960342 119.4511608  86.3338544 114.6040342 121.5341608  85.6218544
 121.4010342  50.8251608  78.2868544 120.2220342  50.6701608  77.6488544
 119.3510342  51.7601608  77.5528544 119.7190342  52.9851608  78.1178544
 120.9510342  53.1021608  78.7708544 121.7930342  51.9891608  78.8448544
 119.8950342  49.4181608  77.0958544 118.4000342  51.6631608  77.0468544
 119.0570342  53.8361608  78.0518544 121.2480342  54.0421608  79.2118544
 122.7600342  51.9841608  79.3268544 119.0150342  49.2921608  76.6158544
 120.5370342  48.6421608  77.1758544 122.0190342  50.0291608  78.3478544
  82.4680342 136.0751608  73.6198544  81.1960342 135.6761608  73.4128544
  80.9240342 134.3121608  73.2668544  81.9750342 133.3921608  73.3378544
  83.2800342 133.8491608  73.5548544  83.5090342 135.2211608  73.6958544
  80.1710342 136.6391608  73.3478544  79.9140342 133.9651608  73.0988544
  81.7810342 132.3351608  73.2268544  84.1010342 133.1491608  73.6118544
  84.4790342 135.6651608  73.8648544  79.2150342 136.3511608  73.1928544
  80.3870342 137.6201608  73.4548544  82.6480342 137.0631608  73.7238544
  86.5550342 108.6191608  49.8578544  87.5790342 108.2651608  50.6608544
  88.7090342 109.0861608  50.7268544  88.7530342 110.2551608  49.9598544
  87.6690342 110.5841608  49.1398544  86.5580342 109.7361608  49.1028544
  87.4900342 107.0791608  51.4148544  89.5440342 108.8271608  51.3618544
  89.6190342 110.9001608  49.9998544  87.6900342 111.4841608  48.5418544
  85.6770342 109.9071608  48.5018544  88.2520342 106.8051608  52.0188544
  86.6660342 106.4981608  51.3528544  85.7460342 108.0151608  49.8208544
 116.8980342  42.7521608  58.0108544 116.9240342  41.4791608  58.4558544
 115.7260342  40.8631608  58.8308544 114.5280342  41.5791608  58.7358544
 114.5470342  42.8971608  58.2698544 115.7660342  43.4761608  57.9048544
 118.1540342  40.7981608  58.5338544 115.7180342  39.8441608  59.1908544
 113.5940342  41.1171608  59.0218544 113.6280342  43.4621608  58.1918544
 115.8780342  44.4851608  57.5348544 118.1850342  39.8451608  58.8658544
 119.0100342  41.2601608  58.2598544 117.7720342  43.1831608  57.7438544
  25.1640342  90.5851608  93.1698544  25.9760342  91.6271608  93.4408544
  27.2220342  91.3851608  94.0298544  27.5980342  90.0701608  94.3238544
  26.7240342  89.0191608  94.0258544  25.4890342  89.3031608  93.4378544
  25.5550342  92.9331608  93.1258544  27.8920342  92.2021608  94.2578544
  28.5570342  89.8681608  94.7788544  27.0020342  87.9991608  94.2478544
  24.7520342  88.5601608  93.1718544  26.1560342  93.7201608  93.3258544
  24.6510342  93.0881608  92.7018544  24.2680342  90.7751608  92.7438544
  69.3160342  28.8321608  85.0128544  68.7110342  27.9911608  85.8758544
  68.6710342  28.3201608  87.2348544  69.2580342  29.5141608  87.6688544
  69.8740342  30.3581608  86.7388544  69.8920342  29.9921608  85.3898544
  68.1350342  26.8011608  85.3928544  68.1930342  27.6631608  87.9478544
  69.2340342  29.7821608  88.7148544  70.3310342  31.2831608  87.0608544
  70.3440342  30.5781608  84.6028544  67.6800342  26.1631608  86.0308544
  68.1750342  26.5791608  84.4078544  69.3360342  28.5811608  84.0348544
  52.1550342  51.9231608  55.0278544  52.8800342  52.2491608  56.1178544
  54.2320342  52.5751608  55.9648544  54.8020342  52.5571608  54.6878544
  54.0130342  52.2131608  53.5848544  52.6670342  51.8941608  53.7798544
  52.2630342  52.2531608  57.3828544  54.8360342  52.8391608  56.8218544
  55.8440342  52.8061608  54.5538544  54.4410342  52.1951608  52.5928544
  51.9820342  51.6181608  52.9908544  52.7970342  52.4961608  58.2058544
  51.2860342  52.0141608  57.4738544  51.1810342  51.6901608  55.1538544
  47.9600342  93.2561608  93.1078544  48.3860342  94.0591608  92.1118544
  48.5990342  93.5161608  90.8408544  48.3660342  92.1531608  90.6298544
  47.9240342  91.3561608  91.6908544  47.7230342  91.9381608  92.9458544
  48.6070342  95.4251608  92.3718544  48.9410342  94.1371608  90.0248544
  48.5260342  91.7191608  89.6538544  47.7400342  90.3021608  91.5418544
  47.3840342  91.4041608  93.8218544  48.9270342  96.0361608  91.6328544
  48.4490342  95.8001608  93.2968544  47.8100342  93.6631608  94.0198544
  85.2130342 124.2421608  66.0508544  84.6560342 125.3191608  65.4608544
  85.3660342 125.9931608  64.4628544  86.6370342 125.5361608  64.0968544
  87.1770342 124.4141608  64.7348544  86.4340342 123.7691608  65.7278544
  83.3750342 125.7431608  65.8618544  84.9440342 126.8591608  63.9728544
  87.1980342 126.0461608  63.3268544  88.1570342 124.0501608  64.4628544
  86.7680342 122.8991608  66.2738544  82.9490342 126.5491608  65.4268544
  82.8770342 125.2441608  66.5858544  84.6880342 123.7661608  66.7708544
  46.1530342  55.8971608  94.6098544  45.4650342  56.8231608  93.9118544
  45.8230342  57.0821608  92.5848544  46.8850342  56.3761608  92.0108544
  47.5720342  55.4241608  92.7708544  47.1830342  55.1951608  94.0938544
  44.4020342  57.5081608  94.5318544  45.2880342  57.8181608  92.0028544
  47.1740342  56.5651608  90.9868544  48.3950342  54.8711608  92.3408544
  47.6530342  54.4821608  94.7558544  43.8800342  58.2031608  94.0178544
  44.1590342  57.3081608  95.4918544  45.8830342  55.7211608  95.5668544
  39.5080342 109.9611608 110.3658544  39.4930342 108.7951608 111.0418544
  39.0940342 108.7881608 112.3828544  38.7200342 109.9911608 112.9928544
  38.7500342 111.1781608 112.2538544  39.1550342 111.1411608 110.9168544
  39.8780342 107.6101608 110.3868544  39.0730342 107.8671608 112.9478544
  38.4100342 110.0021608 114.0268544  38.4630342 112.1131608 112.7128544
  39.2090342 112.0041608 110.2698544  39.8710342 106.7311608 110.8838544
  40.1640342 107.6341608 109.4178544  39.7980342 109.9501608 109.3988544
 130.1960342  63.5801608  86.2358544 130.6280342  62.7741608  85.2438544
 129.9370342  61.5871608  84.9808544 128.8150342  61.2611608  85.7518544
 128.4020342  62.1251608  86.7698544 129.1210342  63.3021608  87.0008544
 131.7610342  63.1441608  84.4958544 130.2610342  60.9231608  84.1918544
 128.2720342  60.3471608  85.5598544 127.5380342  61.8861608  87.3728544
 128.8780342  64.0281608  87.7628544 132.0920342  62.5471608  83.7508544
 132.2480342  64.0051608  84.7008544 130.7060342  64.4341608  86.4138544
  62.8090342  24.0521608  59.0668544  62.6000342  25.3841608  59.0198544
  61.4790342  25.8741608  58.3428544  60.6000342  24.9751608  57.7298544
  60.8550342  23.6021608  57.8038544  61.9860342  23.1531608  58.4898544
  63.5120342  26.2501608  59.6518544  61.2870342  26.9371608  58.2898544
  59.7300342  25.3391608  57.2028544  60.1840342  22.8961608  57.3348544
  62.2640342  22.1141608  58.5988544  63.3650342  27.2491608  59.6228544
  64.3170342  25.8771608  60.1358544  63.6230342  23.7131608  59.5598544
 122.9490342  53.4541608  49.7588544 123.1220342  53.8971608  51.0208544
 122.2760342  53.4261608  52.0298544 121.2710342  52.5071608  51.7098544
 121.1270342  52.0741608  50.3878544 121.9930342  52.5691608  49.4088544
 124.1470342  54.8211608  51.2948544 122.3930342  53.7651608  53.0498544
 120.6100342  52.1351608  52.4798544 120.3540342  51.3651608  50.1268544
 121.9580342  52.2931608  48.3648544 124.2850342  55.1601608  52.2368544
 124.7480342  55.1511608  50.5518544 123.5680342  53.8031608  49.0408544
  66.9520342  54.7611608  28.4068544  67.6990342  54.2641608  29.4138544
  67.0980342  54.0191608  30.6518544  65.7370342  54.2951608  30.8208544
  64.9990342  54.8101608  29.7498544  65.6380342  55.0411608  28.5278544
  69.0660342  54.0021608  29.1968544  67.6730342  53.6211608  31.4758544
  65.2590342  54.1111608  31.7718544  63.9470342  55.0281608  29.8658544
  65.1520342  55.4351608  27.6478544  69.6340342  53.6291608  29.9448544
  69.4830342  54.1861608  28.2958544  67.4010342  54.9331608  27.5178544
  76.5310342  50.3541608 100.3178544  77.3580342  49.6821608 101.1448544
  77.9510342  50.3591608 102.2148544  77.6750342  51.7171608 102.4048544
  76.8110342  52.3761608 101.5238544  76.2390342  51.6631608 100.4668544
  77.6060342  48.3161608 100.9128544  78.6180342  49.8441608 102.8928544
  78.1250342  52.2531608 103.2278544  76.5890342  53.4251608 101.6598544
  75.5620342  52.0851608  99.7378544  78.2240342  47.8021608 101.5258544
  77.1690342  47.8431608 100.1338544  76.1110342  49.8521608  99.5498544
  80.8730342 125.3091608 104.4408544  82.1590342 124.9601608 104.2308544
  82.9070342 125.6561608 103.2768544  82.3070342 126.6981608 102.5608544
  80.9710342 127.0261608 102.8088544  80.2580342 126.3061608 103.7718544
  82.7190342 123.9061608 104.9758544  83.9400342 125.3971608 103.0888544
  82.8730342 127.2441608 101.8198544  80.4950342 127.8281608 102.2628544
  79.2250342 126.4871608 104.0308544  83.6820342 123.6361608 104.8268544
  82.1630342 123.4141608 105.6608544  80.3450342 124.7971608 105.1328544
  88.7620342 123.4941608  59.5628544  89.1080342 124.6251608  58.9148544
  88.1060342 125.4231608  58.3538544  86.7680342 125.0321608  58.4748544
  86.4540342 123.8511608  59.1558544  87.4850342 123.0821608  59.7018544
  90.4670342 124.9781608  58.8178544  88.3560342 126.3351608  57.8288544
  85.9840342 125.6381608  58.0468544  85.4250342 123.5371608  59.2568544
  87.3390342 122.1581608  60.2428544  90.7370342 125.8241608  58.3348544
  91.1770342 124.3891608  59.2288544  89.4970342 122.9281608  59.9628544
  83.3650342  83.1621608 128.0378544  82.1260342  82.6441608 128.1538544
  81.0210342  83.4421608 127.8408544  81.2250342  84.7591608 127.4128544
  82.5280342  85.2561608 127.3058544  83.6050342  84.4251608 127.6288544
  81.9690342  81.3141608 128.5878544  80.0160342  83.0531608 127.9248544
  80.3820342  85.3871608 127.1668544  82.7000342  86.2701608 126.9768544
  84.6430342  84.7201608 127.5778544  81.0450342  80.9171608 128.6788544
  82.7790342  80.7531608 128.8118544  84.1530342  82.5731608 128.2678544
  56.8020342 128.8351608  57.8178544  57.1210342 128.1831608  56.6808544
  58.0980342 127.1841608  56.7198544  58.7220342 126.8811608  57.9348544
  58.3600342 127.5821608  59.0898544  57.3790342 128.5741608  59.0088544
  56.4660342 128.5221608  55.4818544  58.3740342 126.6461608  55.8238544
  59.4790342 126.1111608  57.9808544  58.8340342 127.3581608  60.0348544
  57.0350342 129.1651608  59.8448544  56.6980342 128.0401608  54.6248544
  55.7630342 129.2481608  55.4728544  56.0940342 129.5541608  57.7738544
 128.0290342  85.0451608  64.4648544 128.2540342  84.9041608  63.1428544
 129.5410342  85.1281608  62.6428544 130.5650342  85.4921608  63.5238544
 130.2870342  85.6271608  64.8878544 128.9880342  85.3941608  65.3468544
 127.1920342  84.5361608  62.2948544 129.7500342  85.0221608  61.5868544
 131.5640342  85.6681608  63.1518544 131.0690342  85.9081608  65.5788544
 128.6800342  85.4741608  66.3788544 127.3510342  84.4281608  61.3028544
 126.2690342  84.3791608  62.6738544 127.0940342  84.8801608  64.8108544
 102.2730342 116.0651608  96.0428544 102.7650342 116.9351608  95.1378544
 104.1430342 116.9631608  94.8978544 104.9800342 116.0911608  95.6018544
 104.4270342 115.2051608  96.5328544 103.0450342 115.2081608  96.7428544
 101.8850342 117.7941608  94.4538544 104.5640342 117.6501608  94.1778544
 106.0460342 116.1011608  95.4278544 105.0620342 114.5251608  97.0828544
 102.5300342 114.5621608  97.4388544 102.2430342 118.4491608  93.7728544
 100.8920342 117.7601608  94.6398544 101.2760342 116.0571608  96.2048544
  81.7260342 127.3501608  50.0668544  80.3820342 127.4591608  50.0208544
  79.7850342 128.6771608  50.3628544  80.5930342 129.7541608  50.7438544
  81.9830342 129.5971608  50.7778544  82.5390342 128.3631608  50.4288544
  79.6110342 126.3491608  49.6308544  78.7110342 128.7921608  50.3348544
  80.1470342 130.7011608  51.0108544  82.6180342 130.4201608  51.0708544
  83.5980342 128.1481608  50.4248544  78.6040342 126.4201608  49.5928544
  80.0600342 125.4761608  49.3878544  82.1420342 126.4641608  49.8168544
 114.4650342  40.3121608  66.3108544 114.4980342  38.9641608  66.3218544
 115.7360342  38.3131608  66.3308544 116.9110342  39.0721608  66.3278544
 116.8300342  40.4691608  66.3168544 115.5730342  41.0801608  66.3088544
 113.2900342  38.2421608  66.3238544 115.7920342  37.2331608  66.3388544
 117.8740342  38.5841608  66.3348544 117.7290342  41.0671608  66.3148544
 115.4120342  42.1491608  66.2998544 113.3040342  37.2311608  66.3318544
 112.4050342  38.7291608  66.3168544 113.5630342  40.7681608  66.3048544
  36.8460342 106.2671608 105.4948544  36.5140342 107.5711608 105.3968544
  37.2180342 108.5121608 106.1538544  38.2500342 108.0831608 106.9958544
  38.5610342 106.7211608 107.0668544  37.8330342 105.8131608 106.2938544
  35.4680342 107.9561608 104.5368544  36.9730342 109.5641608 106.0948544
  38.8030342 108.7991608 107.5868544  39.3560342 106.3761608 107.7128544
  38.0010342 104.7451608 106.2828544  35.2120342 108.9291608 104.4558544
  34.9700342 107.2611608 103.9988544  36.3280342 105.5991608 104.9418544
  95.8120342 129.8621608 107.7948544  95.6710342 130.4961608 108.9768544
  95.2810342 129.7621608 110.1018544  95.0450342 128.3891608 109.9768544
  95.2030342 127.7721608 108.7318544  95.5950342 128.5411608 107.6318544
  95.9200342 131.8791608 109.0548544  95.1600342 130.2451608 111.0618544
  94.7420342 127.8091608 110.8358544  95.0240342 126.7121608 108.6208544
  95.7420342 128.1531608 106.6348544  95.8170342 132.3631608 109.9358544
  96.2000342 132.3931608 108.2308544  96.0950342 130.4061608 106.9918544
  48.9530342  76.4641608 117.2258544  49.0880342  75.1511608 116.9468544
  50.3050342  74.6831608 116.4418544  51.3550342  75.5841608 116.2368544
  51.1720342  76.9381608 116.5388544  49.9400342  77.3651608 117.0418544
  48.0030342  74.2821608 117.1708544  50.4400342  73.6361608 116.2108544
  52.3010342  75.2371608 115.8468544  51.9740342  77.6441608 116.3848544
  49.7070342  78.3871608 117.3038544  48.0940342  73.2971608 116.9648544
  47.1310342  74.6391608 117.5348544  48.0680342  76.7871608 117.5898544
 117.4660342  94.5261608  92.8478544 116.5270342  95.4251608  93.2038544
 116.1050342  96.3771608  92.2698544 116.6650342  96.3751608  90.9878544
 117.6370342  95.4241608  90.6608544 118.0310342  94.4901608  91.6238544
 115.9910342  95.3881608  94.5058544 115.3530342  97.1091608  92.5288544
 116.3500342  97.1041608  90.2558544 118.0780342  95.4111608  89.6748544
 118.7720342  93.7211608  91.4628544 115.2870342  96.0581608  94.7828544
 116.3090342  94.6941608  95.1678544 117.7600342  93.8451608  93.5338544
  59.5060342  59.3721608  31.9308544  59.7280342  58.4891608  30.9358544
  60.5260342  58.8691608  29.8518544  61.0770342  60.1551608  29.8228544
  60.8210342  61.0391608  30.8758544  60.0180342  60.6201608  31.9408544
  59.1520342  57.2071608  31.0078544  60.7190342  58.1811608  29.0408544
  61.6950342  60.4631608  28.9928544  61.2400342  62.0351608  30.8668544
  59.7670342  61.2311608  32.7958544  59.3120342  56.5381608  30.2678544
  58.5770342  56.9501608  31.7988544  58.9280342  59.0831608  32.7058544
  70.1290342  47.9601608 103.9108544  70.9680342  48.9891608 104.1498544
  71.6500342  49.0431608 105.3688544  71.4480342  48.0311608 106.3138544
  70.5690342  46.9831608 106.0248544  69.9060342  46.9661608 104.7938544
  71.1390342  49.9841608 103.1688544  72.3290342  49.8561608 105.5858544
  71.9690342  48.0591608 107.2598544  70.4040342  46.1951608 106.7458544
  69.2110342  46.2001608 104.4838544  71.7650342  50.7591608 103.3378544
  70.6370342  49.9291608 102.2938544  69.6430342  47.9351608 103.0258544
  33.9730342  39.0681608 104.2208544  34.7820342  37.9891608 104.2408544
  36.0890342  38.1261608 104.7198544  36.5290342  39.3771608 105.1668544
  35.6560342  40.4691608 105.1288544  34.3580342  40.2901608 104.6428544
  34.2960342  36.7511608 103.7808544  36.7590342  37.2781608 104.7468544
  37.5360342  39.4981608 105.5388544  35.9820342  41.4401608 105.4708544
  33.6160342  41.0721608 104.5758544  34.8940342  35.9371608 103.7908544
  33.3490342  36.6711608 103.4378544  33.0320342  38.9531608 103.8728544
  95.5280342  49.1191608  44.4538544  96.3310342  50.0961608  44.9218544
  97.6390342  49.7781608  45.3038544  98.0840342  48.4571608  45.1928544
  97.2170342  47.4751608  44.7018544  95.9180342  47.8341608  44.3308544
  95.8390342  51.4111608  45.0168544  98.3040342  50.5421608  45.6828544
  99.0920342  48.1961608  45.4828544  97.5490342  46.4511608  44.6098544
  95.1810342  47.1471608  43.9428544  96.4320342  52.1501608  45.3658544
  94.8910342  51.6211608  44.7368544  94.5860342  49.3641608  44.1828544
  37.2990342  36.1941608  95.5958544  37.3510342  34.8661608  95.8228544
  37.6860342  34.4051608  97.0998544  37.9600342  35.3301608  98.1128544
  37.8950342  36.6991608  97.8338544  37.5570342  37.1181608  96.5438544
  37.0670342  33.9721608  94.7728544  37.7340342  33.3461608  97.3098544
  38.2200342  34.9901608  99.1048544  38.1050342  37.4251608  98.6068544
  37.4820342  38.1511608  96.2358544  37.1020342  32.9751608  94.9328544
  36.8280342  34.3241608  93.8558544  37.0560342  36.5111608  94.6678544
  58.5300342  83.0851608 125.4918544  58.3360342  84.3021608 126.0388544
  57.0590342  84.6511608 126.4888544  56.0120342  83.7321608 126.3618544
  56.2570342  82.4801608 125.7878544  57.5490342  82.1711608 125.3508544
  59.4200342  85.1941608 126.1458544  56.8750342  85.6201608 126.9318544
  55.0200342  83.9871608 126.7048544  55.4580342  81.7611608 125.6838544
  57.8320342  81.2321608 124.8968544  59.2850342  86.1081608 126.5538544
  60.3360342  84.9241608 125.8138544  59.4580342  82.8471608 125.1708544
  43.2610342  63.8501608 107.8288544  42.9690342  64.4441608 109.0028544
  41.6690342  64.9061608 109.2288544  40.7000342  64.7421608 108.2328544
  41.0460342  64.1201608 107.0298544  42.3570342  63.6721608 106.8438544
  43.9770342  64.5871608 109.9758544  41.4080342  65.3871608 110.1618544
  39.6910342  65.0941608 108.3928544  40.3070342  63.9871608 106.2518544
  42.7150342  63.1821608 105.9498544  43.7690342  65.0311608 110.8588544
  44.9120342  64.2481608 109.7938544  44.2050342  63.5211608 107.6798544
  63.4830342  29.2541608 116.8308544  63.7470342  30.3641608 116.1128544
  64.0810342  30.2381608 114.7608544  64.1340342  28.9651608 114.1828544
  63.8520342  27.8401608 114.9648544  63.5230342  28.0101608 116.3128544
  63.6820342  31.6241608 116.7368544  64.2980342  31.1111608 114.1618544
  64.3910342  28.8511608 113.1398544  63.8890342  26.8511608 114.5318544
  63.2900342  27.2021608 116.9918544  63.8780342  32.4621608 116.2078544
  63.4400342  31.6961608 117.7158544  63.2430342  29.3611608 117.8068544
 117.9840342  68.1081608  80.8318544 116.9300342  68.2341608  80.0008544
 116.8270342  69.3751608  79.1988544 117.8180342  70.3601608  79.2768544
 118.8940342  70.1891608  80.1538544 118.9600342  69.0331608  80.9378544
 115.9580342  67.2161608  79.9558544 115.9930342  69.5021608  78.5238544
 117.7510342  71.2471608  78.6648544 119.6660342  70.9421608  80.2238544
 119.7510342  68.8141608  81.6408544 115.1650342  67.3011608  79.3368544
 116.0490342  66.3991608  80.5438544 118.0450342  67.2771608  81.4048544
 120.1800342 100.3001608 110.2178544 120.7140342 101.2371608 111.0268544
 122.0930342 101.4691608 110.9838544 122.8860342 100.7251608 110.1038544
 122.2900342  99.7631608 109.2818544 120.9090342  99.5621608 109.3558544
 119.8760342 101.9601608 111.8968544 122.5470342 102.2131608 111.6218544
 123.9520342 100.8931608 110.0588544 122.8910342  99.1821608 108.5968544
 120.3620342  98.8441608 108.7618544 120.2660342 102.6631608 112.5068544
 118.8820342 101.7771608 111.9148544 119.1830342 100.1441608 110.2608544
  87.2570342  95.8771608  23.3638544  86.7850342  95.1161608  24.3728544
  87.6790342  94.6081608  25.3198544  89.0430342  94.8991608  25.2008544
  89.4900342  95.6911608  24.1388544  88.5630342  96.1801608  23.2138544
  85.4050342  94.8511608  24.4518544  87.3280342  93.9961608  26.1388544
  89.7460342  94.5131608  25.9248544  90.5400342  95.9231608  24.0348544
  88.8140342  96.7981608  22.3638544  85.0410342  94.2831608  25.2038544
  84.7730342  95.2261608  23.7578544  86.5980342  96.2371608  22.6878544
  89.2320342  23.7271608  99.6328544  88.3990342  23.9161608  98.5898544
  87.7630342  25.1521608  98.4408544  88.0050342  26.1651608  99.3748544
  88.8770342  25.9261608 100.4418544  89.4920342  24.6761608 100.5548544
  88.1860342  22.8671608  97.6748544  87.0900342  25.3311608  97.6138544
  87.5220342  27.1261608  99.2728544  89.0730342  26.7001608 101.1708544
  90.1780342  24.4001608 101.3428544  87.5640342  22.9981608  96.8908544
  88.6530342  21.9801608  97.7998544  89.6840342  22.8281608  99.7278544
  60.0010342  49.8621608  92.2358544  58.8360342  50.3191608  91.7328544
  58.7330342  50.5541608  90.3578544  59.8390342  50.3121608  89.5358544
  61.0280342  49.8391608  90.0998544  61.0900342  49.6161608  91.4778544
  57.7510342  50.5481608  92.5998544  57.8110342  50.9201608  89.9288544
  59.7740342  50.4891608  88.4718544  61.8890342  49.6471608  89.4758544
  61.9620342  49.2531608  92.0008544  56.8740342  50.8901608  92.2328544
  57.8440342  50.3731608  93.5908544  60.0600342  49.6971608  93.2308544
 136.3000342  79.3341608  75.8618544 134.9870342  79.2931608  76.1638544
 134.0480342  79.3061608  75.1278544 134.4900342  79.3621608  73.8018544
 135.8620342  79.4041608  73.5328544 136.7680342  79.3881608  74.5978544
 134.5880342  79.2371608  77.5128544 132.9890342  79.2741608  75.3418544
 133.7770342  79.3731608  72.9908544 136.2180342  79.4471608  72.5138544
 137.8420342  79.4171608  74.4878544 133.6070342  79.2061608  77.7508544
 135.2810342  79.2291608  78.2488544 136.9660342  79.3231608  76.6208544
  38.1030342  62.8871608  92.1088544  38.0790342  64.2031608  92.4058544
  36.9140342  64.9361608  92.1578544  35.8010342  64.2901608  91.6088544
  35.8700342  62.9241608  91.3168544  37.0530342  62.2271608  91.5798544
  39.2230342  64.8091608  92.9558544  36.8670342  65.9911608  92.3858544
  34.8940342  64.8431608  91.4118544  35.0170342  62.4121608  90.8928544
  37.1990342  61.1741608  91.3878544  39.2160342  65.7941608  93.1818544
  40.0570342  64.2641608  93.1278544  38.9520342  62.3711608  92.2938544
  29.5560342  39.9001608  62.9658544  30.0160342  40.5551608  61.8808544
  31.3960342  40.6931608  61.7018544  32.2690342  40.1491608  62.6508544
  31.7480342  39.4781608  63.7618544  30.3620342  39.3621608  63.9038544
  29.1000342  41.0851608  60.9518544  31.7920342  41.2131608  60.8408544
  33.3370342  40.2481608  62.5268544  32.4100342  39.0531608  64.5028544
  29.8700342  38.8621608  64.7258544  29.4350342  41.5771608  60.1358544
  28.1060342  40.9761608  61.0978544  28.5560342  39.8091608  63.0808544
  52.4340342  74.1471608  33.3638544  51.6720342  73.2841608  34.0668544
  50.6440342  73.7831608  34.8728544  50.4270342  75.1641608  34.9318544
  51.2410342  76.0231608  34.1858544  52.2580342  75.4841608  33.3928544
  51.9280342  71.9031608  33.9758544  50.0190342  73.1141608  35.4468544
  49.6370342  75.5641608  35.5508544  51.0840342  77.0911608  34.2228544
  52.9330342  76.0671608  32.7848544  51.3630342  71.2481608  34.4988544
  52.6760342  71.5611608  33.3888544  53.1720342  73.7711608  32.7858544
  74.2440342  76.3911608  35.0778544  73.0300342  75.8081608  35.1478544
  72.8950342  74.5921608  35.8238544  74.0200342  74.0061608  36.4128544
  75.2610342  74.6441608  36.3168544  75.3530342  75.8591608  35.6318544
  71.9260342  76.4351608  34.5388544  71.9330342  74.1031608  35.8948544
  73.9310342  73.0661608  36.9388544  76.1380342  74.2031608  36.7678544
  76.2660342  76.4231608  35.5068544  71.0120342  76.0081608  34.5848544
  72.0430342  77.3141608  34.0538544  74.3260342  77.2691608  34.5858544
  75.6990342 104.7681608 129.3678544  76.3260342 105.4251608 130.3648544
  76.1000342 106.7951608 130.5268544  75.2290342 107.4551608 129.6528544
  74.6000342 106.7351608 128.6318544  74.8530342 105.3661608 128.5038544
  77.1930342 104.7191608 131.2208544  76.5890342 107.3461608 131.3178544
  75.0440342 108.5131608 129.7648544  73.9250342 107.2321608 127.9498544
  74.4140342 104.7301608 127.7488544  77.6680342 105.2021608 131.9708544
  77.3450342 103.7291608 131.0878544  75.8730342 103.7791608 129.2638544
  91.9970342 111.8811608  24.0488544  93.1100342 111.1341608  23.8948544
  94.3020342 111.5551608  24.4908544  94.3160342 112.7401608  25.2348544
  93.1400342 113.4841608  25.3698544  91.9690342 113.0281608  24.7568544
  93.0470342 109.9481608  23.1378544  95.2080342 110.9751608  24.3838544
  95.2300342 113.0781608  25.7018544  93.1360342 114.4011608  25.9408544
  91.0150342 113.5341608  24.8058544  93.8750342 109.3821608  23.0158544
  92.1770342 109.6601608  22.7128544  91.1440342 111.5631608  23.6118544
  56.7180342 121.2701608  75.2648544  55.7800342 121.9691608  75.9358544
  56.0850342 123.2551608  76.3918544  57.3540342 123.7891608  76.1418544
  58.2960342 123.0301608  75.4418544  57.9520342 121.7481608  75.0028544
  54.5180342 121.3901608  76.1638544  55.3520342 123.8371608  76.9328544
  57.6030342 124.7821608  76.4878544  59.2800342 123.4301608  75.2418544
  58.6120342 121.0901608  74.4568544  53.8080342 121.9051608  76.6658544
  54.3160342 120.4581608  75.8278544  56.4830342 120.3421608  74.9418544
  53.5000342 127.7101608  52.2678544  52.7880342 127.2821608  53.3308544
  52.5710342 125.9111608  53.4978544  53.0960342 125.0141608  52.5618544
  53.8290342 125.5011608  51.4748544  54.0230342 126.8791608  51.3438544
  52.2790342 128.2221608  54.2468544  52.0040342 125.5401608  54.3398544
  52.9370342 123.9521608  52.6778544  54.2400342 124.8191608  50.7438544
  54.5740342 127.3461608  50.5398544  51.7450342 127.9121608  55.0458544
  52.4460342 129.2091608  54.1088544  53.6490342 128.7041608  52.1608544
  57.1010342 127.4891608  91.5818544  57.6420342 127.5251608  90.3468544
  57.5650342 126.3891608  89.5348544  56.9280342 125.2411608  90.0208544
  56.3790342 125.2481608  91.3068544  56.4790342 126.4041608  92.0858544
  58.2730342 128.7021608  89.9018544  57.9900342 126.3901608  88.5418544
  56.8600342 124.3561608  89.4048544  55.8850342 124.3691608  91.6938544
  56.0870342 126.5031608  93.0878544  58.6820342 128.7391608  88.9788544
  58.3210342 129.5131608  90.5028544  57.1650342 128.3181608  92.1558544
  52.5700342 100.1531608  33.5138544  53.1110342 101.3861608  33.5908544
  52.2770342 102.4821608  33.8378544  50.9030342 102.2751608  33.9998544
  50.3840342 100.9791608  33.9118544  51.2520342  99.9111608  33.6638544
  54.4990342 101.5451608  33.4218544  52.6840342 103.4811608  33.9048544
  50.2460342 103.1121608  34.1908544  49.3250342 100.8061608  34.0348544
  50.9440342  98.8791608  33.5798544  54.9140342 102.4641608  33.4778544
  55.0860342 100.7421608  33.2428544  53.1850342  99.3721608  33.3348544
  94.7370342  30.9571608  48.7568544  93.4520342  31.0151608  49.1618544
  92.4480342  30.5351608  48.3148544  92.7980342  30.0071608  47.0668544
  94.1430342  29.9661608  46.6868544  95.1160342  30.4561608  47.5638544
  93.1490342  31.5561608  50.4258544  91.4100342  30.5691608  48.6138544
  92.0330342  29.6321608  46.4018544  94.4270342  29.5611608  45.7268544
  96.1760342  30.4661608  47.3568544  92.1900342  31.6031608  50.7388544
  93.8880342  31.8981608  51.0238544  95.4510342  31.3081608  49.3798544
  30.1400342 108.8801608  95.7498544  28.9240342 108.4691608  95.3348544
  28.4970342 107.1761608  95.6518544  29.3390342 106.3371608  96.3898544
  30.5920342 106.8041608  96.7988544  30.9810342 108.1031608  96.4618544
  28.1110342 109.3491608  94.5948544  27.5270342 106.8211608  95.3318544
  29.0230342 105.3351608  96.6418544  31.2520342 106.1661608  97.3698544
  31.9270342 108.5491608  96.7338544  27.1990342 109.0511608  94.2798544
  28.4370342 110.2801608  94.3748544  30.4340342 109.8171608  95.5128544
  56.5030342  75.4441608  29.4058544  55.5370342  76.3781608  29.2958544
  55.3010342  77.2441608  30.3688544  56.0710342  77.1221608  31.5308544
  57.0630342  76.1391608  31.6018544  57.2670342  75.2941608  30.5068544
  54.7880342  76.4631608  28.1068544  54.5330342  78.0021608  30.3078544
  55.9000342  77.7841608  32.3678544  57.6640342  76.0341608  32.4928544
  58.0070342  74.5081608  30.4698544  54.0620342  77.1591608  28.0148544
  54.9720342  75.8281608  27.3428544  56.6620342  74.8261608  28.6218544
  74.9080342 126.6901608  98.8578544  75.0680342 125.3821608  99.1438544
  73.9880342 124.5101608  98.9788544  72.7650342 125.0131608  98.5198544
  72.6430342 126.3761608  98.2338544  73.7470342 127.2141608  98.4128544
  76.3170342 124.9231608  99.6028544  74.0890342 123.4571608  99.2008544
  71.9210342 124.3511608  98.3868544  71.7040342 126.7771608  97.8788544
  73.7470342 128.2771608  98.2198544  76.4480342 123.9451608  99.8208544
  77.0870342 125.5681608  99.7178544  75.6980342 127.3081608  98.9828544
  37.5020342  50.4011608  48.5658544  38.8240342  50.1511608  48.6458544
  39.4600342  50.2341608  49.8888544  38.7110342  50.5751608  51.0208544
  37.3410342  50.8261608  50.8918544  36.7440342  50.7321608  49.6318544
  39.5360342  49.8111608  47.4798544  40.5190342  50.0391608  49.9818544
  39.1880342  50.6441608  51.9878544  36.7510342  51.0911608  51.7578544
  35.6970342  50.9081608  49.4358544  40.5280342  49.6221608  47.5298544
  39.0600342  49.7571608  46.5908544  37.0570342  50.3361608  47.6608544
 100.6730342  90.5051608 101.7208544 101.7180342  90.5211608 102.5728544
 102.4340342  91.7081608 102.7518544 102.0520342  92.8531608 102.0428544
 100.9620342  92.7921608 101.1688544 100.2730342  91.5851608 101.0188544
 102.0650342  89.3441608 103.2638544 103.2760342  91.7491608 103.4288544
 102.5960342  93.7781608 102.1708544 100.6560342  93.6681608 100.6158544
  99.4210342  91.4431608 100.3698544 102.8460342  89.3461608 103.9048544
 101.5360342  88.4951608 103.1218544 100.1650342  89.6401608 101.6028544
  79.4460342  21.3871608  50.3898544  78.3490342  21.6761608  49.6598544
  77.3350342  22.4511608  50.2308544  77.4790342  22.9091608  51.5448544
  78.6320342  22.5851608  52.2668544  79.6230342  21.8081608  51.6588544
  78.2490342  21.1931608  48.3418544  76.4460342  22.6981608  49.6678544
  76.7040342  23.5091608  51.9998544  78.7560342  22.9321608  53.2818544
  80.5450342  21.5091608  52.1358544  77.4320342  21.4041608  47.7858544
  78.9920342  20.6341608  47.9458544  80.1700342  20.8261608  49.9638544
 117.0340342 106.6221608  87.9048544 117.1010342 106.0351608  89.1168544
 117.4080342 104.6731608  89.1988544 117.6390342 103.9501608  88.0228544
 117.5590342 104.5991608  86.7868544 117.2490342 105.9621608  86.7488544
 116.8610342 106.8031608  90.2718544 117.4680342 104.1771608  90.1568544
 117.8780342 102.8981608  88.0698544 117.7350342 104.0531608  85.8708544
 117.1660342 106.5461608  85.8438544 116.9090342 106.3721608  91.1848544
 116.6390342 107.7851608  90.1938544 116.8110342 107.6061608  87.8618544
  98.8770342  52.8181608  24.6788544  97.5520342  52.6091608  24.5408544
  97.0950342  51.3351608  24.1878544  98.0220342  50.3061608  23.9858544
  99.3870342  50.5671608  24.1408544  99.8020342  51.8541608  24.4938544
  96.6570342  53.6751608  24.7538544  96.0390342  51.1401608  24.0698544
  97.6840342  49.3171608  23.7128544 100.1130342  49.7811608  23.9878544
 100.8310342  52.1481608  24.6348544  95.6630342  53.5291608  24.6518544
  97.0050342  54.5891608  25.0068544  99.1910342  53.7431608  24.9338544
 107.4080342 115.9141608  42.1278544 107.3930342 117.2521608  41.9568544
 106.1760342 117.9361608  42.0348544 105.0010342 117.2201608  42.2868544
 105.0620342 115.8331608  42.4578544 106.2990342 115.1871608  42.3718544
 108.6010342 117.9301608  41.7048544 106.1360342 119.0081608  41.9018544
 104.0530342 117.7341608  42.3498544 104.1620342 115.2671608  42.6528544
 106.4430342 114.1231608  42.4898544 108.6010342 118.9321608  41.5758544
 109.4710342 117.4191608  41.6508544 108.2940342 115.4341608  42.0678544
 120.5300342  82.9511608  74.4978544 120.9630342  82.8291608  73.2268544
 120.3000342  83.5251608  72.2108544 119.2020342  84.3301608  72.5348544
 118.7860342  84.4271608  73.8658544 119.4770342  83.7161608  74.8518544
 122.0720342  82.0081608  72.9488544 120.6260342  83.4461608  71.1828544
 118.6790342  84.8731608  71.7608544 117.9400342  85.0451608  74.1298544
 119.2290342  83.7291608  75.9028544 122.4050342  81.9101608  71.9998544
 122.5390342  81.5121608  73.6958544 121.0200342  82.4421608  75.2208544
  40.2900342  49.4191608  98.0708544  41.0920342  48.3341608  98.0588544
  42.4770342  48.5111608  97.9898544  43.0010342  49.8081608  97.9338544
  42.1330342  50.9041608  97.9478544  40.7540342  50.6841608  98.0188544
  40.5190342  47.0501608  98.1168544  43.1430342  47.6601608  97.9778544
  44.0690342  49.9601608  97.8788544  42.5240342  51.9101608  97.9058544
  40.0100342  51.4661608  98.0348544  41.1100342  46.2311608  98.1088544
  39.5150342  46.9411608  98.1668544  39.2910342  49.2741608  98.1218544
 105.8870342  92.2821608  74.8418544 106.1460342  91.1461608  75.5208544
 105.8460342  89.9141608  74.9298544 105.2840342  89.8871608  73.6488544
 105.0320342  91.0891608  72.9798544 105.3470342  92.2991608  73.6058544
 106.7120342  91.2231608  76.8078544 106.0430342  88.9891608  75.4518544
 105.0460342  88.9431608  73.1798544 104.5980342  91.0821608  71.9908544
 105.1880342  93.2741608  73.1688544 106.9100342  90.3781608  77.3248544
 106.9220342  92.1221608  77.2188544 106.1100342  93.1631608  75.2818544
  79.7470342  29.2741608  94.8638544  80.8740342  29.9491608  95.1688544
  80.7720342  31.2091608  95.7678544  79.5060342  31.7411608  96.0368544
  78.3640342  31.0061608  95.7038544  78.5090342  29.7501608  95.1058544
  82.1250342  29.3741608  94.8798544  81.6590342  31.7721608  96.0228544
  79.4120342  32.7121608  96.4998544  77.3800342  31.4051608  95.9058544
  77.6870342  29.1131608  94.8148544  82.9750342  29.8711608  95.1038544
  82.1790342  28.4631608  94.4448544  79.8370342  28.3651608  94.4318544
  78.1910342  64.8261608 134.9398544  77.4560342  63.9811608 134.1878544
  77.1120342  62.7301608 134.7088544  77.5350342  62.3821608 135.9958544
  78.2960342  63.2891608 136.7408544  78.6190342  64.5301608 136.1838544
  77.0530342  64.3751608 132.8978544  76.5240342  62.0331608 134.1278544
  77.2770342  61.4191608 136.4118544  78.6290342  63.0331608 137.7358544
  79.2000342  65.2921608 136.6818544  76.5020342  63.7501608 132.3268544
  77.3120342  65.2831608 132.5378544  78.4320342  65.7261608 134.5498544
  41.9560342  79.9861608  36.0368544  42.9090342  80.9401608  36.0318544
  42.5290342  82.2831608  36.1098544  41.1710342  82.6091608  36.1928544
  40.2150342  81.5871608  36.1958544  40.6370342  80.2571608  36.1158544
  44.2630342  80.5641608  35.9468544  43.2720342  83.0681608  36.1078544
  40.8620342  83.6421608  36.2548544  39.1630342  81.8241608  36.2598544
  39.9740342  79.4041608  36.1118544  44.9850342  81.2711608  35.9408544
  44.5180342  79.5881608  35.8888544  42.2460342  79.0201608  35.9798544
  82.5640342 105.5171608 118.2138544  81.5130342 106.0891608 117.5938544
  81.3650342 107.4791608 117.6458544  82.3090342 108.2441608 118.3388544
  83.3850342 107.6091608 118.9678544  83.4960342 106.2171608 118.8918544
  80.5880342 105.2791608 116.9098544  80.5310342 107.9641608 117.1578544
  82.2090342 109.3191608 118.3868544  84.1220342 108.1881608 119.5058544
  84.2900342 105.6411608 119.3448544  79.7960342 105.6981608 116.4418544
  80.7100342 104.2761608 116.8838544  82.6570342 104.5121608 118.1678544
  93.5990342  95.4751608  25.2388544  92.9960342  95.2911608  26.4308544
  92.7810342  96.3941608  27.2638544  93.1970342  97.6621608  26.8438544
  93.8180342  97.8081608  25.5988544  94.0140342  96.6801608  24.7968544
  92.5950342  93.9971608  26.8118544  92.3000342  96.2751608  28.2248544
  93.0380342  98.5241608  27.4758544  94.1440342  98.7811608  25.2618544
  94.4830342  96.6951608  23.8238544  92.1430342  93.8481608  27.7028544
  92.7590342  93.2111608  26.1968544  93.7470342  94.6691608  24.6488544
 130.7980342  72.4181608  86.4138544 129.5160342  72.3041608  86.8168544
 129.1880342  71.3481608  87.7838544 130.1940342  70.5321608  88.3108544
 131.5110342  70.6831608  87.8638544 131.7970342  71.6511608  86.8958544
 128.5380342  73.1481608  86.2588544 128.1680342  71.2361608  88.1248544
 129.9560342  69.7891608  89.0578544 132.2980342  70.0591608  88.2618544
 132.7810342  71.8401608  86.4918544 127.5750342  73.0711608  86.5538544
 128.7940342  73.8321608  85.5608544 131.0200342  73.1131608  85.7148544
  57.7060342  65.5901608 125.9708544  56.3650342  65.5691608 126.1088544
  55.6360342  66.7381608 125.8668544  56.3140342  67.9021608 125.4878544
  57.7060342  67.8791608 125.3578544  58.3970342  66.6901608 125.6078544
  55.7270342  64.3741608 126.4918544  54.5600342  66.7491608 125.9688544
  55.7650342  68.8131608 125.2978544  58.2420342  68.7711608 125.0658544
  59.4680342  66.5771608 125.5328544  54.7230342  64.3481608 126.5968544
  56.2700342  63.5391608 126.6628544  58.2180342  64.7371608 126.1488544
 110.1940342 102.3281608  96.8788544 110.6000342 103.6051608  96.7298544
 111.7830342 104.0211608  97.3488544 112.5190342 103.1051608  98.1088544
 112.0610342 101.7891608  98.2368544 110.8730342 101.4141608  97.6018544
 109.8270342 104.4921608  95.9568544 112.1320342 105.0391608  97.2468544
 113.4350342 103.4111608  98.5928544 112.6190342 101.0711608  98.8198544
 110.4430342 100.4241608  97.6438544 110.1220342 105.4511608  95.8388544
 108.9740342 104.1741608  95.5178544 109.3370342 102.0431608  96.4258544
 117.1600342 114.8361608  98.9028544 117.7820342 113.7451608  99.3938544
 117.6460342 112.5241608  98.7258544 116.8690342 112.4601608  97.5638544
 116.2420342 113.6171608  97.0888544 116.4030342 114.8171608  97.7868544
 118.5530342 113.8581608 100.5668544 118.1330342 111.6341608  99.0988544
 116.7550342 111.5241608  97.0378544 115.6390342 113.5821608  96.1928544
 115.9590342 115.7581608  97.4958544 119.0230342 113.0461608 100.9428544
 118.6390342 114.7481608 101.0358544 117.2680342 115.7111608  99.3958544
  94.5080342  29.3331608 112.8418544  93.8140342  28.1771608 112.8068544
  92.4170342  28.2201608 112.8068544  91.7690342  29.4591608 112.8428544
  92.5270342  30.6341608 112.8778544  93.9220342  30.5471608 112.8768544
  94.5100342  26.9531608 112.7708544  91.8360342  27.3091608 112.7788544
  90.6890342  29.5091608 112.8428544  92.0390342  31.5981608 112.9058544
  94.5880342  31.3971608 112.9028544  94.0000342  26.0821608 112.7448544
  95.5210342  26.9421608 112.7728544  95.5170342  29.2851608 112.8408544
 101.7660342 100.8941608  77.7748544 101.8290342 102.0841608  77.1428544
 100.7120342 102.9251608  77.1618544  99.5550342 102.5151608  77.8338544
  99.5340342 101.2731608  78.4758544 100.6720342 100.4621608  78.4338544
 103.0140342 102.4541608  76.4798544 100.7340342 103.8841608  76.6628544
  98.6840342 103.1541608  77.8568544  98.6470342 100.9441608  78.9988544
 100.7480342  99.4901608  78.8998544 103.0710342 103.3421608  76.0028544
 103.8110342 101.8321608  76.4768544 102.5810342 100.2981608  77.7528544
 113.1420342 105.5711608  91.2588544 112.6250342 106.8161608  91.2888544
 111.3080342 106.9971608  91.7248544 110.5580342 105.8841608  92.1208544
 111.1350342 104.6111608  92.0748544 112.4530342 104.4731608  91.6318544
 113.4180342 107.9051608  90.8798544 110.8680342 107.9831608  91.7588544
 109.5400342 106.0081608  92.4608544 110.5660342 103.7431608  92.3768544
 112.9810342 103.5331608  91.5608544 113.0390342 108.8421608  90.8988544
 114.3660342 107.7551608  90.5668544 114.0940342 105.4571608  90.9408544
  26.4730342  89.6131608  97.9688544  26.7310342  88.4251608  97.3838544
  28.0400342  88.1291608  96.9898544  29.0520342  89.0691608  97.2098544
  28.7400342  90.2891608  97.8188544  27.4200342  90.5461608  98.1978544
  25.6800342  87.5101608  97.1838544  28.2740342  87.1841608  96.5198544
  30.0680342  88.8551608  96.9108544  29.5120342  91.0241608  97.9948544
  27.0850342  91.4571608  98.6738544  25.8630342  86.6171608  96.7468544
  24.7410342  87.7421608  97.4738544  25.5230342  89.8121608  98.2478544
 103.5890342  32.3411608  47.3158544 103.8200342  32.1881608  45.9958544
 102.7360342  32.0261608  45.1288544 101.4360342  32.0271608  45.6468544
 101.2420342  32.1891608  47.0218544 102.3530342  32.3471608  47.8558544
 105.1450342  32.1931608  45.5208544 102.8920342  31.9021608  44.0658544
 100.5880342  31.9041608  44.9888544 100.2430342  32.1921608  47.4358544
 102.3010342  32.4781608  48.9268544 105.3290342  32.0791608  44.5338544
 105.9160342  32.3101608  46.1628544 104.3830342  32.4561608  47.9298544
  38.1560342  98.3811608  75.7498544  39.3030342  98.0211608  76.3608544
  39.8500342  96.7621608  76.0958544  39.1980342  95.9041608  75.2038544
  38.0110342  96.3181608  74.5918544  37.4960342  97.5841608  74.8838544
  39.9230342  98.9181608  77.2508544  40.7690342  96.4481608  76.5728544
  39.6090342  94.9281608  74.9898544  37.4970342  95.6651608  73.9008544
  36.5880342  97.9881608  74.4618544  40.7820342  98.6581608  77.7148544
  39.5120342  99.8231608  77.4308544  37.7720342  99.2931608  75.9518544
  55.4810342  23.7611608  65.8748544  56.0280342  22.5351608  66.0018544
  55.6980342  21.7541608  67.1138544  54.8100342  22.2611608  68.0688544
  54.2670342  23.5381608  67.8978544  54.6220342  24.2861608  66.7718544
  56.9160342  22.0671608  65.0148544  56.1210342  20.7681608  67.2408544
  54.5460342  21.6691608  68.9338544  53.5800342  23.9421608  68.6278544
  54.2550342  25.2791608  66.5548544  57.3310342  21.1501608  65.1008544
  57.1430342  22.6461608  64.2188544  55.7290342  24.3131608  65.0658544
  95.8750342  90.7761608  55.7418544  96.1690342  92.0331608  56.1348544
  97.4240342  92.2971608  56.6908544  98.3470342  91.2551608  56.8278544
  98.0010342  89.9671608  56.4068544  96.7360342  89.7441608  55.8558544
  95.2080342  93.0491608  55.9778544  97.6850342  93.2951608  57.0148544
  99.3210342  91.4441608  57.2558544  98.7050342  89.1521608  56.5068544
  96.3810342  88.7871608  55.5038544  95.4170342  93.9931608  56.2688544
  94.3050342  92.8391608  55.5738544  94.9640342  90.6011608  55.3418544
  40.1930342  53.4401608  51.2648544  40.8620342  52.8961608  52.3028544
  41.9030342  51.9991608  52.0468544  42.2290342  51.6851608  50.7228544
  41.5100342  52.2731608  49.6768544  40.4760342  53.1651608  49.9758544
  40.4980342  53.2421608  53.6178544  42.4560342  51.5481608  52.8588544
  43.0310342  50.9941608  50.5098544  41.7510342  52.0391608  48.6498544
  39.8670342  53.6661608  49.2368544  40.9920342  52.8401608  54.4018544
  39.7420342  53.8921608  53.7828544  39.4430342  54.0871608  51.4658544
  28.5340342  44.1511608  59.4128544  27.8190342  44.3351608  60.5408544
  26.4260342  44.2201608  60.4908544  25.8050342  43.9191608  59.2738544
  26.5860342  43.7361608  58.1278544  27.9750342  43.8591608  58.2208544
  28.4870342  44.6371608  61.7428544  25.8280342  44.3621608  61.3808544
  24.7300342  43.8271608  59.2198544  26.1190342  43.5031608  57.1818544
  28.6570342  43.7361608  57.3918544  27.9610342  44.7761608  62.5938544
  29.4940342  44.7161608  61.7588544  29.5390342  44.2371608  59.4648544
  45.9620342  73.1661608 122.5958544  44.9980342  74.0751608 122.3468544
  43.9900342  74.2771608 123.2948544  44.0030342  73.5321608 124.4788544
  45.0210342  72.5981608 124.6958544  46.0100342  72.4271608 123.7228544
  45.0260342  74.8021608 121.1408544  43.2050342  75.0001608 123.1208544
  43.2300342  73.6761608 125.2208544  45.0430342  72.0161608 125.6058544
  46.8340342  71.7331608 123.8028544  44.3090342  75.4851608 120.9448544
  45.7620342  74.6421608 120.4678544  46.6830342  73.0311608 121.9008544
  27.9460342  68.8801608  72.5368544  28.9350342  69.7961608  72.5308544
  30.2630342  69.3661608  72.6088544  30.5370342  67.9971608  72.6908544
  29.4800342  67.0801608  72.6938544  28.1670342  67.5521608  72.6148544
  28.6110342  71.1641608  72.4458544  31.0760342  70.0791608  72.6058544
  31.5580342  67.6491608  72.7518544  29.6780342  66.0201608  72.7578544
  27.2890342  66.9211608  72.6108544  29.3440342  71.8581608  72.4408544
  27.6450342  71.4561608  72.3918544  26.9910342  69.2061608  72.4798544
  37.1060342  37.2001608  82.0678544  37.5650342  38.3821608  81.6088544
  36.9820342  39.5661608  82.0708544  35.9370342  39.5001608  82.9988544
  35.4920342  38.2521608  83.4488544  36.1010342  37.0931608  82.9608544
  38.6190342  38.4001608  80.6758544  37.3310342  40.5271608  81.7198544
  35.4770342  40.4061608  83.3648544  34.6850342  38.1871608  84.1648544
  35.8260342  36.0891608  83.2498544  38.9710342  39.2801608  80.3258544
  39.0280342  37.5341608  80.3528544  37.5370342  36.3541608  81.7248544
 116.0650342  87.0531608  67.7538544 114.8670342  87.5311608  67.3588544
 113.7520342  86.6881608  67.3908544 113.9020342  85.3691608  67.8328544
 115.1620342  84.9141608  68.2338544 116.2520342  85.7891608  68.1858544
 114.7650342  88.8661608  66.9218544 112.7800342  87.0461608  67.0798544
 113.0500342  84.7061608  67.8638544 115.2920342  83.8981608  68.5768544
 117.2590342  85.5281608  68.4738544 113.8730342  89.2341608  66.6238544
 115.5820342  89.4601608  66.9048544 116.8610342  87.6741608  67.7238544
  65.2170342 113.7731608  35.8408544  65.3400342 113.7951608  37.1838544
  65.5690342 115.0151608  37.8278544  65.6660342 116.1851608  37.0668544
  65.5320342 116.1161608  35.6758544  65.3040342 114.8771608  35.0718544
  65.2350342 112.5921608  37.9078544  65.6720342 115.0611608  38.9028544
  65.8430342 117.1341608  37.5498544  65.6050342 117.0121608  35.0758544
  65.1880342 114.7271608  34.0078544  65.3260342 112.5971608  38.9138544
  65.0700342 111.7201608  37.4258544  65.0520342 112.8841608  35.3908544
  73.5480342  22.8311608  48.1228544  73.0530342  23.8761608  48.8168544
  72.3660342  24.8851608  48.1338544  72.2070342  24.7881608  46.7468544
  72.7360342  23.6871608  46.0668544  73.4160342  22.7011608  46.7868544
  73.2370342  23.9301608  50.2118544  71.9590342  25.7331608  48.6658544
  71.6790342  25.5601608  46.2058544  72.6210342  23.6001608  44.9958544
  73.8580342  21.8171608  46.3488544  72.8700342  24.7081608  50.7408544
  73.7370342  23.1921608  50.6878544  74.0410342  22.1111608  48.6298544
 105.2330342  97.0781608  61.4638544 105.2700342  97.7081608  60.2718544
 106.5100342  98.0181608  59.7038544 107.6830342  97.6681608  60.3818544
 107.5980342  97.0151608  61.6158544 106.3390342  96.7241608  62.1498544
 104.0640342  98.0391608  59.6268544 106.5690342  98.5221608  58.7488544
 108.6470342  97.9011608  59.9548544 108.4960342  96.7401608  62.1498544
 106.1760342  96.2241608  63.0938544 104.0810342  98.5111608  58.7338544
 103.1780342  97.8081608  60.0538544 104.3300342  96.8611608  61.8618544
  50.6570342 111.3111608 114.8348544  50.4310342 112.6251608 115.0408544
  51.4720342 113.4281608 115.5168544  52.7220342 112.8541608 115.7678544
  52.9130342 111.4871608 115.5398544  51.8460342 110.7191608 115.0638544
  49.1560342 113.1581608 114.7748544  51.3180342 114.4841608 115.6918544
  53.5360342 113.4621608 116.1358544  53.8740342 111.0311608 115.7298544
  51.8990342 109.6601608 114.8588544  48.9760342 114.1401608 114.9258544
  48.4160342 112.5611608 114.4318544  49.8950342 110.7441608 114.4908544
  77.1480342  68.6471608 122.3588544  75.8370342  68.8271608 122.0988544
  75.2200342  70.0171608 122.4948544  75.9750342  70.9961608 123.1518544
  77.3320342  70.7681608 123.4018544  77.9110342  69.5641608 122.9888544
  75.1190342  67.8141608 121.4358544  74.1710342  70.1881608 122.2988544
  75.5130342  71.9211608 123.4638544  77.9270342  71.5151608 123.9078544
  78.9480342  69.3001608 123.1378544  74.1360342  67.9391608 121.2358544
  75.5810342  66.9601608 121.1578544  77.5800342  67.7821608 122.0668544
  41.5990342  71.3291608  94.9408544  41.5160342  70.2941608  95.8008544
  40.2720342  69.9561608  96.3428544  39.1420342  70.6971608  95.9808544
  39.2730342  71.7631608  95.0848544  40.5350342  72.0681608  94.5658544
  42.6810342  69.5781608  96.1358544  40.1770342  69.1311608  97.0348544
  38.1740342  70.4481608  96.3908544  38.4090342  72.3441608  94.7968544
  40.7330342  72.8711608  93.8708544  42.6300342  68.8011608  96.7798544
  43.5720342  69.8371608  95.7348544  42.5050342  71.5611608  94.5578544
 109.7840342  85.2661608 108.0548544 110.1220342  85.4041608 106.7558544
 109.9630342  86.6491608 106.1388544 109.4580342  87.7221608 106.8808544
 109.1200342  87.5351608 108.2248544 109.2950342  86.2741608 108.8038544
 110.6260342  84.2951608 106.0498544 110.2250342  86.7881608 105.0998544
 109.3290342  88.6901608 106.4178544 108.7290342  88.3551608 108.8098544
 109.0630342  86.0351608 109.8318544 110.8820342  84.3881608 105.0778544
 110.7330342  83.4031608 106.5128544 109.9050342  84.3601608 108.4858544
  93.4940342 125.0011608  82.0948544  94.1830342 124.1801608  81.2758544
  93.4830342 123.3451608  80.4008544  92.0840342 123.3771608  80.3928544
  91.4090342 124.2441608  81.2588544  92.1470342 125.0631608  82.1188544
  95.5900342 124.1821608  81.3198544  94.0100342 122.6771608  79.7338544
  91.5290342 122.7381608  79.7228544  90.3290342 124.2791608  81.2628544
  91.7140342 125.7621608  82.8198544  96.1160342 123.5711608  80.7108544
  96.0790342 124.7921608  81.9598544  94.0140342 125.5991608  82.7208544
  91.0310342  34.9801608 114.5578544  92.1130342  34.5041608 113.9088544
  93.0640342  33.7651608 114.6188544  92.8730342  33.5351608 115.9858544
  91.7360342  34.0471608 116.6198544  90.8100342  34.7811608 115.8738544
  92.2620342  34.7611608 112.5328544  93.9410342  33.3721608 114.1238544
  93.5990342  32.9661608 116.5478544  91.5760342  33.8771608 117.6748544
  89.9050342  35.2141608 116.2758544  93.0690342  34.4091608 112.0368544
  91.5650342  35.2981608 112.0358544  90.3530342  35.5121608 114.0318544
 117.3760342  66.9651608 121.6438544 116.1840342  67.5421608 121.3898544
 115.0580342  66.7321608 121.2098544 115.1920342  65.3421608 121.2978544
 116.4470342  64.7851608 121.5628544 117.5470342  65.6301608 121.7368544
 116.0970342  68.9451608 121.3108544 114.0910342  67.1691608 121.0048544
 114.3320342  64.7031608 121.1608544 116.5650342  63.7131608 121.6338544
 118.5520342  65.2921608 121.9438544 115.2090342  69.3881608 121.1208544
 116.9220342  69.5141608 121.4428544 118.1790342  67.5631608 121.7718544
  37.1340342  50.3241608 118.0988544  38.2610342  50.3401608 118.8378544
  38.9720342  49.1501608 119.0228544  38.4990342  47.9701608 118.4368544
  37.3250342  47.9991608 117.6778544  36.6440342  49.2091608 117.5178544
  38.6980342  51.5501608 119.4078544  39.8790342  49.1341608 119.6108544
  39.0380342  47.0431608 118.5708544  36.9490342  47.0951608 117.2198544
  35.7330342  49.3281608 116.9498544  39.5410342  51.5731608 119.9638544
  38.1710342  52.4001608 119.2648544  36.6310342  51.1911608 117.9738544
  45.6620342  95.2061608  38.5738544  44.9770342  94.4231608  37.7158544
  45.2980342  93.0651608  37.6278544  46.3210342  92.5481608  38.4308544
  47.0050342  93.3961608  39.3078544  46.6530342  94.7481608  39.3658544
  43.9570342  94.9871608  36.9278544  44.7660342  92.4141608  36.9478544
  46.5800342  91.5011608  38.3738544  47.7960342  93.0101608  39.9338544
  47.1240342  95.4761608  40.0098544  43.4380342  94.4101608  36.2818544
  43.7390342  95.9711608  37.0038544  45.4180342  96.1851608  38.6268544
  37.5730342  84.6141608  86.2598544  38.3130342  84.4961608  85.1388544
  39.6350342  84.9501608  85.1438544  40.1620342  85.5151608  86.3108544
  39.3600342  85.6181608  87.4508544  38.0420342  85.1521608  87.4038544
  37.7390342  83.9211608  83.9888544  40.2510342  84.8681608  84.2588544
  41.1830342  85.8701608  86.3298544  39.7540342  86.0521608  88.3588544
  37.3500342  85.1901608  88.2328544  38.2850342  83.8281608  83.1438544
  36.7810342  83.6001608  84.0038544  36.6190342  84.2821608  86.2408544
 104.5180342  73.8231608  54.9538544 103.4170342  73.6021608  55.7008544
 103.4460342  72.6051608  56.6808544 104.6150342  71.8581608  56.8638544
 105.7340342  72.1201608  56.0668544 105.6630342  73.1261608  55.0988544
 102.2640342  74.3791608  55.4798544 102.5780342  72.4071608  57.2938544
 104.6530342  71.0841608  57.6168544 106.6430342  71.5501608  56.1988544
 106.4740342  73.3981608  54.4388544 101.4340342  74.2221608  56.0338544
 102.2610342  75.0951608  54.7668544 104.4810342  74.5471608  54.2498544
  39.6440342  80.2471608  81.2098544  40.3190342  80.9701608  80.2928544
  41.6820342  81.2141608  80.4858544  42.3160342  80.7041608  81.6248544
  41.5770342  79.9591608  82.5498544  40.2160342  79.7381608  82.3198544
  39.6390342  81.4631608  79.1628544  42.2480342  81.7901608  79.7668544
  43.3680342  80.8841608  81.7878544  42.0540342  79.5601608  83.4338544
  39.5670342  79.1771608  82.9758544  40.1360342  82.0051608  78.4698544
  38.6540342  81.2771608  79.0398544  38.6600342  80.0801608  81.0558544
  51.2480342 118.3941608  38.2228544  51.5930342 117.1401608  38.5818544
  50.6730342 116.1021608  38.4008544  49.4170342 116.3861608  37.8528544
  49.1010342 117.7001608  37.4958544  50.0490342 118.7091608  37.6918544
  52.8680342 116.9031608  39.1288544  50.9240342 115.0881608  38.6798544
  48.6970342 115.5941608  37.7078544  48.1350342 117.9331608  37.0718544
  49.8950342 119.7501608  37.4468544  53.1360342 115.9681608  39.3998544
  53.5190342 117.6661608  39.2528544  51.9230342 119.1331608  38.3598544
  96.2460342  58.3481608 123.7518544  95.3670342  59.3321608 124.0278544
  94.1730342  59.0161608 124.6828544  93.9160342  57.6881608 125.0388544
  94.8560342  56.6981608 124.7338544  96.0370342  57.0561608 124.0768544
  95.6680342  60.6551608 123.6508544  93.4500342  59.7861608 124.9168544
  92.9980342  57.4281608 125.5458544  94.6700342  55.6681608 125.0028544
  96.8180342  56.3621608 123.8018544  95.0160342  61.4001608 123.8528544
  96.5360342  60.8641608 123.1768544  97.1040342  58.5921608 123.2778544
 127.0270342  96.1481608  92.4208544 126.6080342  95.0321608  91.7888544
 127.4370342  93.9061608  91.7708544 128.6820342  93.9611608  92.4078544
 129.0770342  95.1381608  93.0508544 128.2190342  96.2421608  93.0458544
 125.3480342  95.0251608  91.1628544 127.1260342  92.9991608  91.2728544
 129.3340342  93.0991608  92.4028544 130.0360342  95.1941608  93.5458544
 128.4380342  97.1901608  93.5138544 125.0240342  94.1941608  90.6868544
 124.7620342  95.8481608  91.1848544 126.4170342  96.9531608  92.4248544
  41.6740342  60.4091608  49.0328544  40.6400342  59.8521608  49.6968544
  40.3990342  60.2281608  51.0218544  41.2340342  61.1711608  51.6308544
  42.2950342  61.7241608  50.9058544  42.5010342  61.3211608  49.5828544
  39.8270342  58.9071608  49.0428544  39.5770342  59.7971608  51.5768544
  41.0600342  61.4711608  52.6538544  42.9470342  62.4531608  51.3628544
  43.2920342  61.6921608  48.9468544  39.0500342  58.4841608  49.5308544
  40.0170342  58.6471608  48.0848544  41.8350342  60.1281608  48.0768544
  51.5950342 121.8321608  94.3878544  52.5300342 121.4871608  95.2978544
  53.2220342 122.4941608  95.9788544  52.9320342 123.8341608  95.7018544
  51.9560342 124.1471608  94.7508544  51.2860342 123.1111608  94.0928544
  52.7870342 120.1251608  95.5428544  53.9760342 122.2461608  96.7128544
  53.4590342 124.6221608  96.2198544  51.7210342 125.1781608  94.5268544
  50.5190342 123.2551608  93.3448544  53.4850342 119.8561608  96.2218544
  52.2770342 119.4121608  95.0408544  51.1040342 121.0941608  93.9048544
  80.6960342 107.5901608  54.6148544  79.4890342 107.4691608  54.0258544
  78.8770342 106.2131608  53.9758544  79.5280342 105.1101608  54.5388544
  80.7790342 105.2801608  55.1398544  81.3570342 106.5521608  55.1678544
  78.8720342 108.6081608  53.4738544  77.9100342 106.0881608  53.5098544
  79.0680342 104.1331608  54.5078544  81.2930342 104.4361608  55.5778544
  82.3170342 106.7791608  55.6098544  77.9680342 108.5291608  53.0298544
  79.3310342 109.5071608  53.5178544  81.1260342 108.5041608  54.6428544
 105.2560342  62.1341608  41.5988544 106.1360342  61.1151608  41.6738544
 107.4610342  61.3821608  42.0308544 107.8450342  62.7001608  42.3028544
 106.9000342  63.7271608  42.2138544 105.5860342  63.4171608  41.8538544
 105.7030342  59.8051608  41.3908544 108.1870342  60.5841608  42.0978544
 108.8660342  62.9221608  42.5798544 107.1840342  64.7491608  42.4218544
 104.7900342  64.1421608  41.7598544 106.3540342  59.0351608  41.4438544
 104.7410342  59.6311608  41.1338544 104.3020342  61.9251608  41.3398544
  47.5590342 101.5761608 100.1818544  46.6480342 100.6201608 100.4568544
  46.7100342  99.4021608  99.7718544  47.7140342  99.2021608  98.8188544
  48.6390342 100.2201608  98.5648544  48.5410342 101.4231608  99.2708544
  45.6560342 100.8681608 101.4238544  45.9930342  98.6191608  99.9728544
  47.7750342  98.2661608  98.2818544  49.4190342 100.0791608  97.8308544
  49.2080342 102.2631608  99.1428544  44.9690342 100.1581608 101.6368544
  45.6260342 101.7541608 101.9078544  47.5010342 102.4501608 100.6848544
  49.4850342  68.6121608  39.2458544  49.1390342  69.7181608  38.5568544
  47.8510342  69.8101608  38.0188544  46.9510342  68.7551608  38.2078544
  47.3530342  67.6271608  38.9298544  48.6490342  67.5741608  39.4498544
  50.0770342  70.7541608  38.3928544  47.5460342  70.6851608  37.4618544
  45.9530342  68.8121608  37.7988544  46.6680342  66.8051608  39.0828544
  49.0470342  66.7461608  40.0188544  49.8280342  71.5861608  37.8778544
  51.0040342  70.6691608  38.7868544  50.4190342  68.5601608  39.6278544
 114.2190342  67.0801608  58.2898544 114.7110342  66.2381608  59.2218544
 116.0430342  65.8201608  59.1268544 116.8340342  66.2841608  58.0708544
 116.2830342  67.1561608  57.1268544 114.9480342  67.5501608  57.2568544
 113.8770342  65.7981608  60.2668544 116.4630342  65.1451608  59.8598544
 117.8640342  65.9691608  57.9848544 116.8830342  67.5221608  56.3058544
 114.4380342  68.2191608  56.5788544 114.2360342  65.1671608  60.9688544
 112.9170342  66.1101608  60.3178544 113.2560342  67.3731608  58.3718544
 122.3360342  93.1441608  56.5658544 123.1550342  93.1851608  57.6358544
 124.4040342  93.8021608  57.5148544 124.7770342  94.3621608  56.2888544
 123.8960342  94.2981608  55.2038544 122.6570342  93.6721608  55.3668544
 122.7360342  92.6071608  58.8498544 125.0800342  93.8481608  58.3568544
 125.7390342  94.8421608  56.1808544 124.1720342  94.7271608  54.2518544
 121.9140342  93.5751608  54.5878544 123.3420342  92.6321608  59.6578544
 121.8300342  92.1651608  58.9178544 121.4370342  92.6961608  56.6678544
 120.8440342  46.1461608  93.5268544 120.2800342  47.3481608  93.7588544
 121.0320342  48.5071608  93.5428544 122.3510342  48.3951608  93.0908544
 122.8970342  47.1281608  92.8628544 122.1120342  45.9941608  93.0908544
 118.9490342  47.4121608  94.2128544 120.6040342  49.4841608  93.7208544
 122.9440342  49.2811608  92.9198544 123.9150342  47.0271608  92.5138544
 122.4460342  44.9781608  92.9428544 118.5170342  48.3081608  94.3908544
 118.4210342  46.5631608  94.3648544 120.2880342  45.3181608  93.6878544
  79.0940342  24.6371608  79.3898544  80.4000342  24.3141608  79.2948544
  81.0080342  23.6171608  80.3448544  80.2490342  23.2721608  81.4688544
  78.8980342  23.6271608  81.5258544  78.3280342  24.3231608  80.4548544
  81.1220342  24.6831608  78.1448544  82.0530342  23.3451608  80.2948544
  80.7050342  22.7331608  82.2868544  78.3010342  23.3661608  82.3878544
  77.2960342  24.6391608  80.4108544  82.1000342  24.4451608  78.0638544
  80.6660342  25.1871608  77.3968544  78.6690342  25.1401608  78.6238544
  33.1900342 106.0441608  50.2398544  34.2660342 106.8441608  50.0958544
  34.1040342 108.2291608  50.2038544  32.8320342 108.7541608  50.4568544
  31.7430342 107.8871608  50.5988544  31.9480342 106.5091608  50.4848544
  35.5260342 106.2711608  49.8418544  34.9490342 108.8941608  50.0928544
  32.6910342 109.8211608  50.5428544  30.7560342 108.2781608  50.7948544
  31.1700342 105.7651608  50.5788544  36.3380342 106.8611608  49.7328544
  35.6230342 105.2681608  49.7658544  33.3230342 105.0451608  50.1588544
  39.3120342  53.5511608  66.1878544  38.7900342  52.5511608  65.4488544
  39.0630342  51.2261608  65.8038544  39.8710342  50.9671608  66.9168544
  40.3910342  52.0341608  67.6558544  40.0940342  53.3431608  67.2668544
  37.9830342  52.8611608  64.3378544  38.6580342  50.4051608  65.2288544
  40.0900342  49.9481608  67.2028544  41.0160342  51.8481608  68.5168544
  40.4500342  54.2281608  67.7748544  37.5880342  52.1191608  63.7768544
  37.7980342  53.8241608  64.0958544  39.1060342  54.5021608  65.9188544
  30.5950342  56.9981608  97.8178544  31.7240342  57.4771608  97.2578544
  32.1780342  58.7491608  97.6188544  31.4520342  59.4971608  98.5518544
  30.2850342  58.9621608  99.1078544  29.8660342  57.6861608  98.7198544
  32.4220342  56.6881608  96.3238544  33.0800342  59.1571608  97.1858544
  31.7900342  60.4811608  98.8408544  29.7150342  59.5291608  99.8298544
  28.9810342  57.1921608  99.0938544  33.2690342  57.0371608  95.8978544
  32.0780342  55.7711608  96.0738544  30.2800342  56.0771608  97.5468544
 122.4030342 122.0651608  84.0198544 122.2770342 123.3751608  83.7288544
 121.3380342 123.7741608  82.7718544 120.5500342 122.8061608  82.1388544
 120.7140342 121.4581608  82.4718544 121.6630342 121.1011608  83.4338544
 123.0920342 124.3131608  84.3908544 121.2170342 124.8181608  82.5188544
 119.8210342 123.0991608  81.3978544 120.1120342 120.7001608  81.9908544
 121.8590342 120.0881608  83.7538544 123.0060342 125.2971608  84.1798544
 123.7660342 124.0061608  85.0788544 123.0850342 121.7931608  84.7128544
 106.5060342 118.0591608  74.2858544 105.6900342 119.1251608  74.4118544
 104.3060342 118.9381608  74.3328544 103.7990342 117.6511608  74.1248544
 104.6810342 116.5731608  74.0008544 106.0570342 116.8031608  74.0858544
 106.2460342 120.4011608  74.6188544 103.6290342 119.7751608  74.4298544
 102.7320342 117.4911608  74.0618544 104.3030342 115.5731608  73.8398544
 106.8120342 116.0351608  74.0008544 105.6440342 121.2071608  74.7148544
 107.2490342 120.5171608  74.6728544 107.5030342 118.2101608  74.3448544
 114.0170342  37.6461608  83.2888544 115.3350342  37.4441608  83.0858544
 116.1910342  38.5481608  83.0168544 115.6620342  39.8361608  83.1598544
 114.2890342  39.9991608  83.3698544 113.4680342  38.8691608  83.4318544
 115.8210342  36.1301608  82.9478544 117.2510342  38.4161608  82.8548544
 116.3100342  40.6981608  83.1088544 113.8670342  40.9881608  83.4818544
 112.4000342  38.8971608  83.5898544 116.8060342  35.9691608  82.7958544
 115.1870342  35.3451608  82.9998544 113.4120342  36.8381608  83.3368544
  47.0020342  30.4531608  67.7438544  48.1690342  30.6511608  67.0978544
  49.3680342  30.5621608  67.8118544  49.3310342  30.2691608  69.1798544
  48.0990342  30.0721608  69.8108544  46.9230342  30.1701608  69.0608544
  48.1560342  30.9431608  65.7208544  50.3170342  30.7161608  67.3188544
  50.2490342  30.1971608  69.7448544  48.0560342  29.8451608  70.8668544
  45.9290342  30.0331608  69.4598544  49.0250342  31.0931608  65.2268544
  47.2800342  31.0041608  65.2208544  46.1450342  30.5211608  67.2148544
  46.1260342 129.5051608  72.1588544  45.0700342 129.6351608  71.3298544
  44.2790342 130.7861608  71.4078544  44.5980342 131.7751608  72.3438544
  45.7020342 131.6001608  73.1848544  46.4670342 130.4351608  73.0738544
  44.7880342 128.6131608  70.4038544  43.4270342 130.9151608  70.7548544
  43.9960342 132.6691608  72.4158544  45.9600342 132.3561608  73.9118544
  47.3340342 130.2131608  73.6788544  44.0000342 128.7001608  69.7778544
  45.3710342 127.7881608  70.3618544  46.6880342 128.6691608  72.0898544
  25.7330342  85.8101608  71.9318544  25.6270342  87.1541608  71.9058544
  26.7880342  87.9311608  71.9628544  28.0330342  87.2981608  72.0468544
  28.0970342  85.9011608  72.0718544  26.9130342  85.1611608  72.0118544
  24.3520342  87.7461608  71.8208544  26.7320342  89.0101608  71.9438544
  28.9390342  87.8851608  72.0928544  29.0520342  85.3991608  72.1368544
  26.8640342  84.0821608  72.0248544  24.2620342  88.7521608  71.7998544
  23.5240342  87.1681608  71.7808544  24.8850342  85.2621608  71.8888544
 128.5960342 111.8901608  78.2988544 128.7240342 113.1981608  77.9968544
 128.7420342 114.1391608  79.0308544 128.6260342 113.7041608  80.3558544
 128.4950342 112.3381608  80.6248544 128.4820342 111.4301608  79.5618544
 128.8380342 113.5881608  76.6488544 128.8430342 115.1931608  78.8168544
 128.6380342 114.4191608  81.1658544 128.4050342 111.9881608  81.6428544
 128.3860342 110.3601608  79.6718544 128.9340342 114.5651608  76.4108544
 128.8220342 112.8941608  75.9138544 128.5860342 111.2231608  77.5408544
  40.2280342  82.7771608  94.8848544  39.5760342  81.6941608  95.3528544
  38.1860342  81.7471608  95.5038544  37.5050342  82.9221608  95.1678544
  38.2210342  84.0221608  94.6858544  39.6090342  83.9271608  94.5488544
  40.3040342  80.5341608  95.6778544  37.6380342  80.8941608  95.8768544
  36.4310342  82.9781608  95.2788544  37.7070342  84.9351608  94.4218544
  40.2440342  84.7221608  94.1868544  39.8250342  79.7171608  96.0298544
  41.3080342  80.5141608  95.5628544  41.2320342  82.7231608  94.7808544
  83.8540342  24.1101608 107.0198544  83.3140342  23.3851608 108.0208544
  83.9090342  23.4191608 109.2858544  85.0500342  24.2051608 109.4858544
  85.5760342  24.9421608 108.4208544  84.9510342  24.8791608 107.1718544
  82.1660342  22.6091608 107.7718544  83.4970342  22.8481608 110.1058544
  85.5200342  24.2421608 110.4578544  86.4570342  25.5521608 108.5618544
  85.2850342  25.4121608 106.2928544  81.7540342  22.0621608 108.5148544
  81.7500342  22.5961608 106.8508544  83.4130342  24.0751608 106.1118544
  71.7370342  48.8511608  44.3648544  72.8610342  48.7021608  43.6348544
  73.9620342  49.5201608  43.9038544  73.8740342  50.4751608  44.9228544
  72.6890342  50.5961608  45.6548544  71.6110342  49.7581608  45.3538544
  72.9030342  47.7271608  42.6198544  74.8760342  49.4221608  43.3348544
  74.7160342  51.1151608  45.1428544  72.6070342  51.3301608  46.4448544
  70.6590342  49.7791608  45.8638544  73.7400342  47.6071608  42.0678544
  72.0970342  47.1451608  42.4388544  70.9500342  48.2521608  44.1578544
 130.8130342  95.3951608  57.7828544 130.7250342  94.1301608  58.2428544
 129.5010342  93.4581608  58.1588544 128.3970342  94.1111608  57.6008544
 128.5330342  95.4231608  57.1358544 129.7740342  96.0591608  57.2378544
 131.8630342  93.5141608  58.7968544 129.4030342  92.4441608  58.5198544
 127.4450342  93.6041608  57.5288544 127.6880342  95.9381608  56.7018544
 129.9730342  97.0681608  56.9068544 131.8080342  92.5671608  59.1438544
 132.7390342  94.0161608  58.8498544 131.7040342  95.8671608  57.8498544
  45.5290342  79.0291608  84.2928544  45.7590342  78.0351608  83.4108544
  46.2730342  76.8191608  83.8728544  46.5360342  76.6601608  85.2378544
  46.2820342  77.7171608  86.1178544  45.7690342  78.9171608  85.6148544
  45.4790342  78.2421608  82.0468544  46.4670342  76.0061608  83.1878544
  46.9320342  75.7271608  85.6098544  46.4800342  77.6081608  87.1738544
  45.5420342  79.7851608  86.2158544  45.6480342  77.5041608  81.3778544
  45.1100342  79.1281608  81.7308544  45.1580342  79.9021608  83.9438544
 109.3960342  75.8931608 120.3208544 108.0760342  75.7891608 120.5718544
 107.3340342  74.7981608 119.9218544 107.9770342  73.9371608 119.0258544
 109.3490342  74.0801608 118.7938544 110.0540342  75.0841608 119.4648544
 107.4720342  76.6781608 121.4818544 106.2740342  74.6921608 120.1048544
 107.4170342  73.1661608 118.5158544 109.8580342  73.4221608 118.1048544
 111.1120342  75.2701608 119.3498544 106.4840342  76.6091608 121.6768544
 108.0240342  77.3891608 121.9418544 109.9190342  76.6141608 120.7978544
  30.1550342  86.8711608  59.1578544  30.5580342  87.4501608  60.3068544
  29.6170342  88.1041608  61.1078544  28.2790342  88.1441608  60.7008544
  27.9040342  87.5291608  59.5008544  28.8760342  86.8861608  58.7298544
  31.9150342  87.3851608  60.6748544  29.9130342  88.5771608  62.0338544
  27.5400342  88.6451608  61.3088544  26.8740342  87.5521608  59.1748544
  28.6810342  86.3861608  57.7918544  32.2280342  87.8161608  61.5338544
  32.5810342  86.9091608  60.0828544  30.8460342  86.4031608  58.5898544
  82.9870342 128.6991608 115.9368544  82.9960342 128.9031608 117.2698544
  81.8830342 129.4931608 117.8768544  80.7860342 129.8581608 117.0898544
  80.8180342 129.6291608 115.7108544  81.9500342 129.0371608 115.1428544
  84.1230342 128.5191608 118.0208544  81.8640342 129.6681608 118.9438544
  79.9190342 130.3151608 117.5448544  79.9770342 129.9061608 115.0918544
  82.0650342 128.8221608 114.0908544  84.1400342 128.6671608 119.0198544
  84.9190342 128.0951608 117.5648544  83.7980342 128.2721608 115.5128544
  29.3140342  94.8271608  61.0738544  30.6440342  94.9971608  61.2178544
  31.1660342  96.2941608  61.2548544  30.2980342  97.3861608  61.1418544
  28.9250342  97.1641608  60.9938544  28.4440342  95.8521608  60.9618544
  31.4780342  93.8681608  61.3268544  32.2280342  96.4591608  61.3688544
  30.6860342  98.3941608  61.1688544  28.2430342  97.9981608  60.9058544
  27.4040342  95.5831608  60.8508544  32.4760342  93.9851608  61.4348544
  31.0830342  92.9381608  61.2968544  28.9530342  93.8841608  61.0488544
  50.3430342  80.3781608  76.3748544  49.0480342  80.6391608  76.1028544
  48.2370342  79.6161608  75.6008544  48.7850342  78.3471608  75.3898544
  50.1340342  78.1201608  75.6848544  50.9100342  79.1691608  76.1858544
  48.5400342  81.9321608  76.3308544  47.1960342  79.7981608  75.3748544
  48.1710342  77.5471608  75.0028544  50.5700342  77.1441608  75.5268544
  51.9560342  79.0881608  76.4418544  47.5710342  82.1381608  76.1308544
  49.1410342  82.6591608  76.6938544  50.9160342  81.1271608  76.7368544
  58.9540342 133.2961608  82.2198544  57.9050342 132.4741608  82.4228544
  56.6380342 133.0271608  82.6378544  56.4870342 134.4181608  82.6388544
  57.6030342 135.2331608  82.4238544  58.8520342 134.6411608  82.2128544
  58.1050342 131.0811608  82.4128544  55.7790342 132.3911608  82.8038544
  55.5150342 134.8591608  82.8048544  57.5010342 136.3091608  82.4228544
  59.7670342 135.1881608  82.0388544  57.3250342 130.4571608  82.5638544
  59.0280342 130.7001608  82.2558544  59.8630342 132.8821608  82.0648544
  75.9630342  92.9831608 120.0878544  77.3110342  93.0021608 120.1098544
  77.9730342  94.2211608 120.2798544  77.2250342  95.3951608 120.4228544
  75.8280342  95.3301608 120.3938544  75.2040342  94.0911608 120.2218544
  78.0220342  91.7961608 119.9618544  79.0530342  94.2651608 120.3008544
  77.7220342  96.3441608 120.5548544  75.2370342  96.2281608 120.5028544
  74.1350342  93.9431608 120.1868544  79.0320342  91.7981608 119.9768544
  77.5260342  90.9241608 119.8398544  75.4990342  92.0941608 119.9648544
  95.7970342  84.8781608 134.9098544  95.4920342  85.2401608 133.6468544
  94.1590342  85.1841608 133.2248544  93.1730342  84.7561608 134.1198544
  93.5340342  84.3901608 135.4208544  94.8770342  84.4601608 135.8028544
  96.5170342  85.6651608 132.7808544  93.8870342  85.4681608 132.2178544
  92.1400342  84.7071608 133.8088544  92.7830342  84.0571608 136.1228544
  95.2490342  84.1991608 136.7828544  96.2990342  85.9381608 131.8328544
  97.4750342  85.6971608 133.1038544  96.7630342  84.9241608 135.1988544
  48.2810342  46.1221608  42.0528544  48.6650342  47.2501608  41.4208544
  47.7320342  48.2721608  41.2228544  46.4210342  48.1031608  41.6838544
  46.0660342  46.9171608  42.3338544  47.0290342  45.9201608  42.5118544
  49.9940342  47.3751608  40.9748544  48.0130342  49.1871608  40.7188544
  45.6890342  48.8841608  41.5378544  45.0570342  46.7741608  42.6948544
  46.8470342  44.9741608  43.0008544  50.2920342  48.2151608  40.4998544
  50.6550342  46.6251608  41.1258544  48.9670342  45.3931608  42.1878544
  59.6850342  65.2001608  33.7288544  58.9210342  65.6131608  34.7608544
  57.6850342  66.2111608  34.4968544  57.2680342  66.3681608  33.1708544
  58.0910342  65.9251608  32.1308544  59.3200342  65.3321608  32.4378544
  59.3830342  65.4341608  36.0788544  57.0530342  66.5521608  35.3048544
  56.3150342  66.8291608  32.9518544  57.7810342  66.0411608  31.1028544
  60.0200342  64.9611608  31.7038544  58.8180342  65.7401608  36.8588544
  60.2790342  65.0001608  36.2498544  60.5750342  64.7691608  33.9358544
  40.4660342  48.4551608  44.1998544  39.3010342  47.9671608  43.7258544
  38.1980342  48.8201608  43.6188544  38.3260342  50.1581608  44.0048544
  39.5520342  50.6231608  44.4908544  40.6300342  49.7371608  44.5828544
  39.2200342  46.6121608  43.3508544  37.2530342  48.4551608  43.2418544
  37.4830342  50.8291608  43.9268544  39.6650342  51.6541608  44.7918544
  41.6120342  50.0041608  44.9448544  38.3520342  46.2371608  42.9938544
  40.0270342  46.0111608  43.4358544  41.2530342  47.8261608  44.2718544
  33.9530342  76.2881608 112.2828544  33.5790342  75.2851608 111.4628544
  33.6770342  75.4631608 110.0788544  34.1600342  76.6761608 109.5768544
  34.5370342  77.6901608 110.4638544  34.4230342  77.4711608 111.8398544
  33.0990342  74.0821608 112.0148544  33.3850342  74.6761608 109.3988544
  34.2420342  76.8291608 108.5098544  34.9120342  78.6321608 110.0888544
  34.6890342  78.1931608 112.5978544  32.8160342  73.3251608 111.4088544
  33.0340342  73.9721608 113.0168544  33.8760342  76.1441608 113.2798544
  19.2610342  62.5131608  70.4748544  19.1120342  63.8321608  70.2348544
  20.1750342  64.5471608  69.6758544  21.3680342  63.8811608  69.3758544
  21.4800342  62.5121608  69.6408544  20.3930342  61.8341608  70.2008544
  17.8930342  64.4601608  70.5528544  20.0830342  65.6051608  69.4738544
  22.1980342  64.4201608  68.9438544  22.3950342  61.9851608  69.4148544
  20.3870342  60.7801608  70.4388544  17.7710342  65.4471608  70.3778544
  17.1360342  63.9261608  70.9578544  18.4840342  62.0101608  70.8788544
  84.7490342  29.9221608 105.7158544  84.3270342  29.0961608 104.7358544
  84.0740342  29.6201608 103.4648544  84.2650342  30.9871608 103.2358544
  84.7040342  31.8071608 104.2798544  84.9450342  31.2441608 105.5368544
  84.1490342  27.7281608 105.0138544  83.7350342  28.9811608 102.6608544
  84.0740342  31.4071608 102.2588544  84.8550342  32.8651608 104.1168544
  85.2850342  31.7971608 106.3998544  83.8330342  27.1011608 104.2868544
  84.3360342  27.3671608 105.9388544  84.9270342  29.5281608 106.6288544
  69.1970342 121.9561608  51.8738544  67.8490342 121.9451608  51.9118544
  67.2020342 121.9631608  53.1518544  67.9660342 121.9921608  54.3238544
  69.3620342 122.0021608  54.2378544  69.9690342 121.9831608  52.9788544
  67.1230342 121.9161608  50.7068544  66.1230342 121.9551608  53.2118544
  67.4800342 122.0071608  55.2888544  69.9640342 122.0251608  55.1348544
  71.0370342 121.9891608  52.8148544  66.1130342 121.9071608  50.7248544
  67.6070342 121.9021608  49.8198544  69.6500342 121.9421608  50.9708544
  36.8940342  99.8711608  49.8888544  36.3250342 101.0921608  49.8388544
  34.9310342 101.1961608  49.8498544  34.1570342 100.0321608  49.9118544
  34.7880342  98.7851608  49.9618544  36.1850342  98.7251608  49.9488544
  37.1450342 102.2351608  49.7778544  34.4480342 102.1631608  49.8118544
  33.0780342 100.0961608  49.9208544  34.2020342  97.8781608  50.0098544
  36.7580342  97.8101608  49.9838544  36.7290342 103.1551608  49.7408544
  38.1510342 102.1411608  49.7698544  37.9020342  99.8121608  49.8798544
  69.3710342  27.3811608  79.3018544  69.5900342  26.3261608  80.1128544
  69.0980342  25.0701608  79.7448544  68.3900342  24.9351608  78.5448544
  68.1860342  26.0561608  77.7338544  68.6950342  27.2941608  78.1388544
  70.3080342  26.5101608  81.3098544  69.2590342  24.2071608  80.3758544
  68.0040342  23.9711608  78.2478544  67.6410342  25.9661608  76.8058544
  68.5870342  28.2121608  77.5798544  70.4770342  25.7261608  81.9238544
  70.6550342  27.4261608  81.5598544  69.7330342  28.2821608  79.5818544
  54.9330342  41.6311608  33.2668544  55.1870342  40.3071608  33.2408544
  56.5140342  39.8671608  33.2788544  57.5480342  40.8081608  33.3428544
  57.2380342  42.1721608  33.3668544  55.8990342  42.5701608  33.3278544
  54.1150342  39.3971608  33.1768544  56.7470342  38.8111608  33.2598544
  58.5770342  40.4841608  33.3718544  58.0270342  42.9091608  33.4158544
  55.5650342  43.5971608  33.3418544  54.2950342  38.4031608  33.1568544
  53.1630342  39.7341608  33.1488544  53.9690342  41.9331608  33.2388544
  72.2360342 103.9851608  37.1018544  71.6500342 104.1711608  38.3018544
  72.4530342 104.3361608  39.4348544  73.8460342 104.3051608  39.2988544
  74.4120342 104.1091608  38.0348544  73.5730342 103.9481608  36.9278544
  70.2450342 104.1951608  38.3898544  72.0100342 104.4871608  40.4088544
  74.4790342 104.4311608  40.1648544  75.4850342 104.0821608  37.9158544
  73.9180342 103.7921608  35.9168544  69.7960342 104.3341608  39.2838544
  69.6810342 104.0731608  37.5598544  71.6430342 103.8671608  36.2928544
  21.1770342  74.4251608  83.3658544  20.3000342  74.0971608  82.3948544
  19.1580342  74.8831608  82.2138544  18.9500342  75.9911608  83.0428544
  19.8850342  76.2951608  84.0368544  21.0140342  75.4841608  84.1848544
  20.5520342  72.9731608  81.5858544  18.4390342  74.6431608  81.4438544
  18.0720342  76.6081608  82.9148544  19.7360342  77.1481608  84.6838544
  21.7870342  75.6401608  84.9218544  19.9010342  72.7191608  80.8558544
  21.3820342  72.4161608  81.7318544  21.9970342  73.8471608  83.4838544
  44.7630342  98.1181608  47.1708544  44.1650342  97.7431608  46.0218544
  43.2460342  98.6071608  45.4178544  42.9680342  99.8401608  46.0178544
  43.6110342 100.1891608  47.2098544  44.5220342  99.2961608  47.7808544
  44.4770342  96.4921608  45.4558544  42.7530342  98.3321608  44.4958544
  42.2610342 100.5181608  45.5628544  43.4050342 101.1381608  47.6838544
  45.0650342  99.4781608  48.6968544  44.0350342  96.2021608  44.5948544
  45.1420342  95.8801608  45.9068544  45.4240342  97.4821608  47.5958544
  84.7360342  27.8461608  61.6378544  83.8140342  28.7421608  62.0458544
  84.1370342  29.6311608  63.0758544  85.4070342  29.5721608  63.6598544
  86.3320342  28.6271608  63.2058544  85.9700342  27.7571608  62.1738544
  82.5500342  28.7641608  61.4278544  83.4170342  30.3591608  63.4218544
  85.6700342  30.2521608  64.4568544  87.3160342  28.5711608  63.6488544
  86.6160342  26.9971608  61.7588544  81.8520342  29.4311608  61.7258544
  82.3340342  28.1131608  60.6848544  84.4880342  27.2111608  60.8928544
 104.2340342  63.3011608  23.2578544 105.1120342  63.0121608  24.2408544
 105.0060342  63.6771608  25.4658544 103.9940342  64.6261608  25.6468544
 103.1050342  64.8951608  24.6008544 103.2450342  64.2081608  23.3918544
 106.1140342  62.0501608  24.0128544 105.6960342  63.4661608  26.2708544
 103.9000342  65.1481608  26.5878544 102.3180342  65.6251608  24.7268544
 102.6080342  64.3481608  22.5308544 106.7770342  61.8271608  24.7418544
 106.1760342  61.5811608  23.1198544 104.3240342  62.8121608  22.3788544
  65.2070342 105.5151608  25.7318544  65.2500342 106.8571608  25.8588544
  66.3830342 107.5481608  25.4198544  67.4480342 106.8331608  24.8588544
  67.3610342 105.4421608  24.7458544  66.2100342 104.7901608  25.1978544
  64.1550342 107.5341608  26.4298544  66.4440342 108.6231608  25.5088544
  68.3300342 107.3531608  24.5148544  68.1760342 104.8781608  24.3148544
  66.0540342 103.7221608  25.1518544  64.1770342 108.5391608  26.5288544
  63.3440342 107.0181608  26.7428544  64.3810342 105.0311608  26.0538544
  25.3280342  80.7871608  59.1068544  25.4330342  79.5171608  59.5468544
  24.2690342  78.7881608  59.8108544  23.0220342  79.3921608  59.6128544
  22.9590342  80.7121608  59.1548544  24.1470342  81.4061608  58.9038544
  26.7090342  78.9521608  59.7308544  24.3240342  77.7681608  60.1638544
  22.1140342  78.8421608  59.8118544  22.0030342  81.1901608  58.9978544
  24.1970342  82.4251608  58.5498544  26.7980342  78.0011608  60.0598544
  27.5390342  79.4941608  59.5368544  26.1780342  81.3011608  58.9208544
  70.8260342 113.7511608 131.8708544  70.7960342 112.4151608 132.0518544
  69.8210342 111.6601608 131.3918544  68.8990342 112.3051608 130.5608544
  68.9670342 113.6931608 130.4018544  69.9570342 114.4111608 131.0788544
  71.7430342 111.8091608 132.8978544  69.7730342 110.5871608 131.5188544
  68.1400342 111.7361608 130.0438544  68.2610342 114.2051608 129.7628544
  70.0860342 115.4821608 131.0178544  71.7290342 110.8091608 133.0398544
  72.4400342 112.3711608 133.3668544  71.5360342 114.2821608 132.3548544
 110.7060342  54.6061608 119.2988544 109.3740342  54.4311608 119.1788544
 108.7200342  53.5601608 120.0558544 109.4600342  52.8901608 121.0358544
 110.8400342  53.1011608 121.1248544 111.4550342  53.9801608 120.2288544
 108.6720342  55.1261608 118.1768544 107.6540342  53.4001608 119.9828544
 108.9690342  52.2131608 121.7208544 111.4230342  52.5901608 121.8768544
 112.5120342  54.2051608 120.2208544 107.6740342  55.0021608 118.0788544
 109.1620342  55.7511608 117.5518544 111.1640342  55.2391608 118.6578544
  35.1830342  74.8871608  75.3678544  34.8000342  73.7741608  74.7088544
  33.4760342  73.3371608  74.8208544  32.5790342  74.0621608  75.6138544
  33.0190342  75.2101608  76.2808544  34.3510342  75.6131608  76.1418544
  35.7370342  73.0781608  73.9228544  33.1420342  72.4491608  74.3038544
  31.5540342  73.7371608  75.7108544  32.3370342  75.7791608  76.8958544
  34.7790342  76.4831608  76.6168544  35.4600342  72.2441608  73.4248544
  36.6900342  73.4081608  73.8548544  36.1420342  75.1901608  75.2768544
 113.1200342  57.3571608  71.0208544 112.2700342  56.3361608  70.7878544
 112.7760342  55.0351608  70.6958544 114.1500342  54.8211608  70.8488544
 114.9950342  55.9091608  71.0908544 114.4500342  57.1931608  71.1748544
 110.8950342  56.6001608  70.6398544 112.1170342  54.1991608  70.5098544
 114.5550342  53.8221608  70.7818544 116.0580342  55.7571608  71.2108544
 115.0230342  58.0901608  71.3568544 110.2500342  55.8431608  70.4648544
 110.5480342  57.5471608  70.7078544 112.7400342  58.2901608  71.0838544
  29.8390342  90.9321608 104.2458544  28.7380342  91.2831608 103.5508544
  28.8010342  91.3401608 102.1558544  30.0040342  91.0311608 101.5098544
  31.1220342  90.6711608 102.2688544  31.0170342  90.6261608 103.6628544
  27.5510342  91.5861608 104.2438544  27.9340342  91.6191608 101.5738544
  30.0680342  91.0701608 100.4328544  32.0570342  90.4301608 101.7838544
  31.8240342  90.3601608 104.3288544  26.7200342  91.8501608 103.7338544
  27.5240342  91.5401608 105.2528544  29.7780342  90.8951608 105.2528544
 100.5040342  92.1181608  30.7438544  99.6400342  93.1371608  30.9298544
  98.2720342  92.9131608  30.7478544  97.8290342  91.6381608  30.3768544
  98.7600342  90.6101608  30.1938544 100.1190342  90.8761608  30.3868544
 100.1320342  94.4021608  31.3038544  97.5580342  93.7111608  30.8898544
  96.7750342  91.4501608  30.2318544  98.4320342  89.6221608  29.9068544
 100.9080342  90.1481608  30.2688544  99.4940342  95.1721608  31.4458544
 101.1240342  94.5461608  31.4298544 101.4890342  92.2961608  30.8798544
 114.6990342  37.4041608  96.8218544 115.9560342  37.0351608  96.5018544
 116.1510342  35.9201608  95.6808544 115.0390342  35.2131608  95.2088544
 113.7530342  35.6311608  95.5658544 113.6020342  36.7511608  96.3888544
 117.0440342  37.7771608  97.0008544 117.1470342  35.6011608  95.4088544
 115.1740342  34.3491608  94.5738544 112.8860342  35.0941608  95.2078544
 112.6510342  37.1461608  96.7148544 117.9890342  37.5081608  96.7668544
 116.8840342  38.5791608  97.5938544 114.5750342  38.2121608  97.4158544
 132.9330342  88.1841608  96.5278544 132.0010342  87.4321608  95.9078544
 132.4090342  86.3361608  95.1408544 133.7730342  86.0431608  95.0338544
 134.7060342  86.8501608  95.6938544 134.2570342  87.9361608  96.4508544
 130.6400342  87.7651608  96.0448544 131.6830342  85.7171608  94.6328544
 134.1040342  85.2001608  94.4448544 135.7630342  86.6351608  95.6198544
 134.9010342  88.6121608  96.9928544 129.9340342  87.2081608  95.5838544
 130.3640342  88.5611608  96.6018544 132.6230342  88.9721608  97.0788544
  53.7040342  81.9271608 129.0218544  53.7710342  80.7821608 129.7318544
  53.1010342  79.6481608 129.2618544  52.3770342  79.7251608 128.0668544
  52.3340342  80.9321608 127.3628544  53.0170342  82.0431608 127.8668544
  54.5130342  80.7521608 130.9278544  53.1390342  78.7171608 129.8108544
  51.8540342  78.8571608 127.6908544  51.7780342  81.0061608 126.4388544
  53.0410342  83.0141608 127.3938544  54.5700342  79.8991608 131.4668544
  54.9890342  81.5821608 131.2528544  54.1930342  82.7371608 129.3748544
  35.8750342  93.3661608  84.1458544  35.4550342  93.7891608  82.9368544
  35.1170342  95.1351608  82.7648544  35.2230342  96.0131608  83.8488544
  35.6640342  95.5321608  85.0858544  35.9910342  94.1791608  85.2158544
  35.3640342  92.8691608  81.8748544  34.7770342  95.5011608  81.8058544
  34.9660342  97.0561608  83.7318544  35.7510342  96.1991608  85.9318544
  36.3400342  93.7181608  86.1288544  35.0500342  93.1761608  80.9648544
  35.6110342  91.9001608  82.0178544  36.1150342  92.3911608  84.2538544
 108.1600342  36.8561608  83.4388544 108.6000342  36.6281608  84.6938544
 108.0120342  37.3181608  85.7578544 106.9820342  38.2291608  85.5008544
 106.5570342  38.4351608  84.1838544 107.1700342  37.7251608  83.1478544
 109.6390342  35.7021608  84.9038544 108.3450342  37.1541608  86.7738544
 106.5190342  38.7701608  86.3128544 105.7620342  39.1361608  83.9708544
 106.9090342  37.8181608  82.1038544 109.9760342  35.5231608  85.8398544
 110.0520342  35.2131608  84.1218544 108.5940342  36.3501608  82.6808544
 103.2160342  80.5341608 130.2078544 104.5350342  80.4891608 129.9328544
 105.1640342  79.2461608 129.8118544 104.4130342  78.0781608 129.9788544
 103.0470342  78.1711608 130.2638544 102.4560342  79.4331608 130.3768544
 105.2510342  81.6911608 129.7728544 106.2210342  79.1801608 129.5908544
 104.8850342  77.1101608 129.8888544 102.4540342  77.2771608 130.3958544
 101.4120342  79.6031608 130.5938544 106.2390342  81.6681608 129.5658544
 104.7790342  82.5801608 129.8638544 102.7760342  81.4401608 130.2918544
  82.1910342 102.0841608  56.3278544  82.0400342 101.1811608  55.3378544
  83.0750342 101.0041608  54.4128544  84.2420342 101.7661608  54.5348544
  84.3560342 102.6921608  55.5778544  83.2990342 102.8381608  56.4808544
  80.8480342 100.4371608  55.2548544  82.9800342 100.2881608  53.6088544
  85.0490342 101.6411608  53.8288544  85.2510342 103.2871608  55.6838544
  83.2960342 103.5251608  57.3148544  80.7250342  99.7581608  54.5168544
  80.1110342 100.5791608  55.9308544  81.4350342 102.2001608  56.9878544
  31.8320342  59.6571608 117.0848544  31.0410342  58.5801608 116.8998544
  31.6310342  57.3291608 116.6918544  33.0260342  57.2221608 116.6808544
  33.8080342  58.3651608 116.8778544  33.1790342  59.5971608 117.0818544
  29.6420342  58.7371608 116.9188544  31.0220342  56.4501608 116.5408544
  33.4960342  56.2631608 116.5218544  34.8860342  58.2961608 116.8718544
  33.6980342  60.5301608 117.2418544  29.0410342  57.9371608 116.7808544
  29.2340342  59.6491608 117.0688544  31.3910342  60.5541608 117.2338544
 106.4550342  98.8381608 104.1378544 107.1540342  98.0021608 104.9328544
 108.5080342  98.2591608 105.1688544 109.1080342  99.3751608 104.5768544
 108.3470342 100.2161608 103.7588544 106.9960342  99.9251608 103.5488544
 106.5070342  96.8921608 105.5068544 109.0920342  97.6051608 105.8018544
 110.1540342  99.5861608 104.7498544 108.7980342 101.0821608 103.2958544
 106.3310342 100.5151608 102.9348544 107.0210342  96.2591608 106.1038544
 105.5280342  96.7221608 105.3238544 105.4780342  98.6401608 103.9768544
  63.9670342 102.2711608 120.4428544  63.7070342 103.2871608 121.2908544
  63.5290342 103.0111608 122.6498544  63.6250342 101.6901608 123.1008544
  63.8970342 100.6671608 122.1868544  64.0680342 100.9851608 120.8358544
  63.6190342 104.6001608 120.7908544  63.3190342 103.8061608 123.3518544
  63.4900342 101.4621608 124.1478544  63.9740342  99.6431608 122.5208544
  64.2800342 100.2641608 120.0598544  63.4240342 105.3681608 121.4178544
  63.7500342 104.7801608 119.8058544  64.0930342 102.4861608 119.4638544
  57.0020342 118.3031608  78.4348544  55.7640342 118.0991608  78.9298544
  54.8950342 119.1861608  79.0638544  55.3270342 120.4611608  78.6808544
  56.6190342 120.6281608  78.1718544  57.4560342 119.5151608  78.0538544
  55.3740342 116.7991608  79.3018544  53.8980342 119.0511608  79.4578544
  54.6670342 121.3101608  78.7778544  56.9650342 121.6071608  77.8718544
  58.4670342 119.5471608  77.6728544  54.4490342 116.6351608  79.6748544
  56.0160342 116.0251608  79.1988544  57.6180342 117.5081608  78.3438544
  53.9050342  75.0801608 128.4898544  54.7800342  74.1221608 128.1198544
  54.7430342  73.6341608 126.8098544  53.8020342  74.1491608 125.9118544
  52.9130342  75.1421608 126.3368544  52.9830342  75.6021608 127.6558544
  55.7090342  73.6351608 129.0578544  55.4330342  72.8671608 126.4868544
  53.7620342  73.7821608 124.8968544  52.1810342  75.5481608 125.6548544
  52.3400342  76.3641608 128.0728544  56.3690342  72.9171608 128.7908544
  55.7200342  73.9981608 130.0008544  53.9440342  75.4221608 129.4388544
  91.2780342  58.1651608 129.4048544  92.4070342  57.6311608 128.8948544
  93.2730342  58.4431608 128.1568544  92.9510342  59.7911608 127.9638544
  91.7700342  60.3041608 128.5108544  90.9320342  59.4581608 129.2418544
  92.6880342  56.2691608 129.1148544  94.1840342  58.0411608 127.7368544
  93.6100342  60.4321608 127.3958544  91.5100342  61.3431608 128.3698544
  90.0020342  59.7641608 129.6998544  93.5310342  55.8591608 128.7368544
  92.0500342  55.6971608 129.6498544  90.6630342  57.5651608 129.9348544
  89.4330342  24.2851608  55.3178544  89.0650342  25.5141608  54.9028544
  88.4390342  25.6551608  53.6598544  88.2090342  24.5201608  52.8748544
  88.6080342  23.2641608  53.3448544  89.2300342  23.1671608  54.5928544
  89.3160342  26.6281608  55.7268544  88.1340342  26.6281608  53.3018544
  87.7280342  24.6121608  51.9128544  88.4360342  22.3791608  52.7488544
  89.5700342  22.2431608  55.0368544  89.0450342  27.5531608  55.4248544
  89.7700342  26.5071608  56.6218544  89.8830342  24.2001608  56.2178544
 132.2210342 102.1481608  91.7388544 131.3620342 101.8201608  92.7248544
 131.7520342 100.8781608  93.6828544 133.0220342 100.2981608  93.5968544
 133.8810342 100.6681608  92.5568544 133.4530342 101.6131608  91.6208544
 130.0940342 102.4301608  92.7708544 131.0830342 100.5961608  94.4838544
 133.3370342  99.5691608  94.3298544 134.8650342 100.2271608  92.4788544
 134.0450342 101.9591608  90.7858544 129.4430342 102.1901608  93.5058544
 129.8290342 103.1071608  92.0698544 131.9250342 102.8301608  91.0548544
 105.8680342 102.8001608  68.2378544 104.6920342 103.1571608  68.7928544
 104.1560342 104.4161608  68.5038544 104.8500342 105.2771608  67.6468544
 106.0670342 104.8661608  67.0928544 106.5680342 103.6001608  67.4078544
 104.0290342 102.2581608  69.6488544 103.2150342 104.7281608  68.9348544
 104.4490342 106.2531608  67.4138544 106.6140342 105.5211608  66.4298544
 107.4970342 103.1981608  67.0298544 103.1480342 102.5151608  70.0698544
 104.4320342 101.3521608  69.8468544 106.2420342 101.8881608  68.4568544
  72.0970342 102.4451608  25.5718544  70.8700342 101.9041608  25.7138544
  70.7500342 100.6181608  26.2498544  71.9040342  99.9211608  26.6258544
  73.1570342 100.5201608  26.4618544  73.2330342 101.8081608  25.9218544
  69.7380342 102.6431608  25.3208544  69.7790342 100.1601608  26.3738544
  71.8270342  98.9271608  27.0408544  74.0550342  99.9941608  26.7478544
  74.1530342 102.3491608  25.7588544  68.8140342 102.2471608  25.4228544
  69.8440342 103.5711608  24.9348544  72.1670342 103.3751608  25.1838544
  73.7890342  52.1781608 108.0348544  73.6930342  51.0831608 108.8158544
  73.0370342  51.1781608 110.0468544  72.4940342  52.4061608 110.4418544
  72.6160342  53.5171608 109.6008544  73.2800342  53.3791608 108.3788544
  74.2540342  49.8691608 108.3768544  72.9450342  50.3161608 110.6928544
  71.9840342  52.4961608 111.3898544  72.2020342  54.4711608 109.8928544
  73.4230342  54.1791608 107.6658544  74.1880342  49.0421608 108.9538544
  74.7260342  49.8191608 107.4848544  74.2660342  52.0931608 107.1488544
 125.3820342 104.8491608  68.7678544 126.0700342 105.0571608  69.9088544
 127.1570342 105.9371608  69.8998544 127.5070342 106.5821608  68.7078544
 126.7660342 106.3371608  67.5478544 125.6870342 105.4501608  67.5998544
 125.6810342 104.3861608  71.0838544 127.7260342 106.1221608  70.7998544
 128.3440342 107.2641608  68.6858544 127.0250342 106.8291608  66.6208544
 125.0590342 105.2001608  66.7568544 126.1890342 104.5341608  71.9438544
 124.8930342 103.7521608  71.0718544 124.6000342 104.2111608  68.7908544
  66.5260342 132.2421608  93.3028544  65.8250342 131.8551608  92.2168544
  65.8700342 130.5141608  91.8198544  66.6380342 129.6061608  92.5558544
  67.3490342 130.0511608  93.6758544  67.2780342 131.3991608  94.0388544
  65.0660342 132.8051608  91.5078544  65.3180342 130.1771608  90.9538544
  66.6820342 128.5671608  92.2618544  67.9460342 129.3601608  94.2528544
  67.7900342 131.8331608  94.8848544  64.5380342 132.5251608  90.6928544
  65.0470342 133.7691608  91.8088544  66.4840342 133.2141608  93.5768544
  52.7540342  99.3231608 107.0938544  54.0720342  99.5891608 107.1988544
  54.5040342 100.9191608 107.1648544  53.5610342 101.9431608 107.0238544
  52.2040342 101.6221608 106.9188544  51.8140342 100.2811608 106.9568544
  54.9830342  98.5251608 107.3398544  55.5540342 101.1601608 107.2478544
  53.8800342 102.9751608 106.9958544  51.4660342 102.4031608 106.8088544
  50.7920342  99.9381608 106.8828544  55.9730342  98.7141608 107.4188544
  54.6530342  97.5711608 107.3608544  52.4570342  98.3581608 107.1198544
  84.8810342  21.4481608  61.3738544  85.7130342  20.6301608  60.6978544
  85.2970342  19.3281608  60.3998544  84.0280342  18.9041608  60.8088544
  83.1970342  19.7851608  61.5078544  83.6510342  21.0781608  61.7848544
  86.9810342  21.1011608  60.3068544  85.9430342  18.6521608  59.8598544
  83.6920342  17.9011608  60.5858544  82.2140342  19.4711608  61.8288544
  83.0820342  21.8261608  62.3168544  87.6120342  20.4961608  59.8008544
  87.2650342  22.0441608  60.5318544  85.1960342  22.3851608  61.5808544
 116.7170342  79.5741608  38.8748544 117.4760342  79.5571608  37.7608544
 116.9190342  79.9761608  36.5488544 115.5870342  80.4041608  36.5178544
 114.8350342  80.4061608  37.6968544 115.4300342  79.9791608  38.8878544
 118.8110342  79.1181608  37.8408544 117.5050342  79.9721608  35.6398544
 115.1430342  80.7311608  35.5888544 113.8060342  80.7341608  37.6868544
 114.9300342  79.9461608  39.8448544 119.3890342  79.1001608  37.0118544
 119.1970342  78.8171608  38.7248544 117.1330342  79.2691608  39.7428544
  58.3080342  88.8801608 113.1578544  58.0480342  89.9451608 113.9438544
  59.0790342  90.8431608 114.2378544  60.3550342  90.6181608 113.7108544
  60.5810342  89.5011608 112.9008544  59.5230342  88.6271608 112.6308544
  56.7480342  90.1291608 114.4508544  58.8980342  91.7041608 114.8648544
  61.1620342  91.3031608 113.9298544  61.5620342  89.3151608 112.4878544
  59.6020342  87.7421608 112.0168544  56.5420342  90.9241608 115.0398544
  56.0160342  89.4691608 114.2278544  57.5530342  88.2401608 112.9538544
  58.9500342  30.3721608  54.9148544  59.1570342  31.2821608  55.8878544
  59.6860342  30.8631608  57.1128544  59.9890342  29.5101608  57.3018544
  59.7590342  28.6001608  56.2648544  59.2290342  29.0601608  55.0558544
  58.8360342  32.6321608  55.6518544  59.8610342  31.5711608  57.9098544
  60.3980342  29.1711608  58.2418544  59.9890342  27.5521608  56.3968544
  59.0190342  28.4331608  54.2018544  58.9870342  33.3221608  56.3748544
  58.4540342  32.9171608  54.7608544  58.5680342  30.6901608  54.0358544
  37.2630342  82.0401608 112.2578544  37.7390342  83.2701608 112.5408544
  36.9410342  84.3881608 112.2788544  35.6670342  84.2071608 111.7288544
  35.2120342  82.9141608 111.4508544  36.0410342  81.8231608 111.7278544
  39.0280342  83.4021608 113.0928544  37.2980342  85.3841608 112.4958544
  35.0390342  85.0611608 111.5208544  34.2300342  82.7611608 111.0268544
  35.7760342  80.7921608 111.5478544  39.3940342  84.3181608 113.3088544
  39.5900342  82.5831608 113.2748544  37.8510342  81.2431608 112.4528544
  83.1960342  49.8021608  99.1628544  84.2160342  49.4081608  99.9528544
  84.9780342  50.3761608 100.6158544  84.6660342  51.7291608 100.4468544
  83.5990342  52.0931608  99.6188544  82.8630342  51.0951608  98.9738544
  84.4930342  48.0351608 100.0918544  85.8010342  50.0881608 101.2548544
  85.2450342  52.4881608 100.9528544  83.3480342  53.1351608  99.4798544
  82.0260342  51.2801608  98.3168544  85.2550342  47.7291608 100.6808544
  83.9320342  47.3511608  99.6038544  82.6560342  49.0921608  98.6908544
  32.8910342  99.1921608  66.9088544  32.1650342  98.0571608  66.8508544
  30.7690342  98.1371608  66.8768544  30.1560342  99.3921608  66.9608544
  30.9470342 100.5441608  67.0188544  32.3390342 100.4201608  66.9908544
  32.8270342  96.8171608  66.7668544  30.1640342  97.2431608  66.8318544
  29.0790342  99.4701608  66.9818544  30.4860342 101.5191608  67.0848544
  33.0280342 101.2511608  67.0308544  32.2930342  95.9601608  66.7228544
  33.8360342  96.7781608  66.7508544  33.8980342  99.1171608  66.8898544
  38.5540342 108.6401608  40.8538544  37.3610342 108.0331608  40.6868544
  37.0090342 106.9781608  41.5338544  37.9000342 106.5761608  42.5358544
  39.1270342 107.2331608  42.6728544  39.4400342 108.2841608  41.8048544
  36.4980342 108.4721608  39.6658544  36.0600342 106.4731608  41.4228544
  37.6420342 105.7621608  43.1978544  39.8240342 106.9331608  43.4418544
  40.3600342 108.8481608  41.8348544  35.6020342 108.0241608  39.5318544
  36.7690342 109.2361608  39.0618544  38.7940342 109.4011608  40.2328544
 126.1580342 103.2121608 110.4678544 125.9460342 102.6601608 109.2558544
 126.2870342 101.3201608 109.0478544 126.8410342 100.5821608 110.0988544
 127.0440342 101.1941608 111.3398544 126.6890342 102.5361608 111.5068544
 125.3860342 103.4421608 108.2278544 126.1280342 100.8521608 108.0858544
 127.1100342  99.5461608 109.9538544 127.4710342 100.6361608 112.1608544
 126.8080342 103.0911608 112.4258544 125.2230342 103.0381608 107.3158544
 125.1460342 104.4091608 108.3958544 125.9060342 104.1811608 110.6018544
 115.7720342  54.6281608  59.9998544 116.6130342  53.5801608  59.8878544
 116.0850342  52.3001608  59.6938544 114.6980342  52.1341608  59.6208544
 113.8620342  53.2481608  59.7418544 114.4300342  54.5111608  59.9348544
 118.0020342  53.7961608  59.9678544 116.7360342  51.4421608  59.6008544
 114.2750342  51.1511608  59.4718544 112.7890342  53.1341608  59.6878544
 113.8660342  55.4261608  60.0388544 118.6410342  53.0181608  59.8848544
 118.3650342  54.7281608  60.1088544 116.1680342  55.5471608  60.1388544
 116.8020342  90.3671608  60.4148544 117.0370342  89.0391608  60.4048544
 116.1660342  88.1871608  61.0918544 115.0710342  88.7301608  61.7728544
 114.8640342  90.1131608  61.7568544 115.7590342  90.9301608  61.0578544
 118.1520342  88.5381608  59.7058544 116.3300342  87.1191608  61.1008544
 114.3890342  88.0851608  62.3078544 114.0230342  90.5461608  62.2778544
 115.6810342  92.0051608  60.9898544 118.3370342  87.5451608  59.6928544
 118.7710342  89.1691608  59.2158544 117.4400342  90.9691608  59.9138544
  52.1940342  40.3701608  42.5498544  51.5120342  40.8171608  43.6238544
  51.9550342  40.4711608  44.9048544  53.0940342  39.6701608  45.0428544
  53.7710342  39.2281608  43.9018544  53.2950342  39.5971608  42.6398544
  50.3720342  41.6211608  43.4358544  51.4280342  40.8151608  45.7828544
  53.4480342  39.3941608  46.0258544  54.6510342  38.6091608  43.9948544
  53.7500342  39.3041608  41.7048544  49.8550342  41.9611608  44.2338544
  50.0660342  41.8601608  42.5028544  51.8610342  40.6291608  41.6318544
  84.7460342  37.7771608 116.5488544  84.8060342  38.7971608 117.4288544
  83.6680342  39.1231608 118.1738544  82.4930342  38.3851608 117.9898544
  82.4750342  37.3351608 117.0658544  83.6340342  37.0421608 116.3418544
  86.0090342  39.5111608 117.5798544  83.6880342  39.9361608 118.8858544
  81.6060342  38.6251608 118.5578544  81.5750342  36.7571608 116.9138544
  83.7150342  36.2521608 115.6088544  86.0650342  40.2771608 118.2368544
  86.8210342  39.2621608 117.0328544  85.5760342  37.5541608 116.0188544
  29.1870342  70.8111608  88.9888544  29.9760342  71.8871608  89.1858544
  29.3900342  73.1521608  89.2918544  27.9990342  73.2741608  89.1908544
  27.2190342  72.1321608  88.9868544  27.8450342  70.8861608  88.8858544
  31.3700342  71.7151608  89.2808544  29.9980342  74.0311608  89.4498544
  27.5320342  74.2451608  89.2708544  26.1440342  72.2121608  88.9068544
  27.3260342  69.9511608  88.7278544  31.9700342  72.5141608  89.4288544
  31.7760342  70.7931608  89.2008544  29.6260342  69.9041608  88.9138544
  82.3580342 129.7291608  93.6948544  83.4280342 130.3301608  93.1358544
  83.2250342 131.3331608  92.1818544  81.9180342 131.6901608  91.8298544
  80.8380342 131.0411608  92.4358544  81.0840342 130.0441608  93.3838544
  84.7230342 129.9371608  93.5208544  84.0640342 131.8311608  91.7178544
  81.7460342 132.4631608  91.0948544  79.8240342 131.3071608  92.1738544
  80.3160342 129.4891608  93.9028544  85.5310342 130.3811608  93.1078544
  84.8510342 129.2101608  94.2108544  82.5210342 129.0071608  94.3818544
  96.2280342 119.7341608 111.0958544  95.2450342 120.5051608 111.6028544
  94.1560342 120.8421608 110.7918544  94.1100342 120.3721608 109.4748544
  95.1520342 119.5741608 108.9898544  96.2220342 119.2601608 109.8338544
  95.3340342 120.9551608 112.9338544  93.3540342 121.4591608 111.1728544
  93.2760342 120.6231608 108.8368544  95.1290342 119.2041608 107.9748544
  97.0680342 118.6531608 109.5478544  94.6030342 121.5331608 113.3228544
  96.1290342 120.7021608 113.5048544  97.0070342 119.4991608 111.6938544
 110.0610342 114.4151608  86.7048544 108.9410342 115.0051608  87.1708544
 109.0070342 115.7611608  88.3458544 110.2310342 115.8911608  89.0108544
 111.3680342 115.2621608  88.4918544 111.2590342 114.5151608  87.3158544
 107.7320342 114.8461608  86.4678544 108.1240342 116.2451608  88.7408544
 110.2970342 116.4721608  89.9188544 112.3190342 115.3541608  88.9958544
 112.0800342 113.9961608  86.8418544 106.8870342 115.2841608  86.8088544
 107.7030342 114.2951608  85.6218544 109.9970342 113.8721608  85.8558544
  42.6300342  81.9171608  75.7738544  41.8200342  80.8621608  75.5478544
  42.2940342  79.5711608  75.8008544  43.5970342  79.4011608  76.2828544
  44.4030342  80.5231608  76.5028544  43.8910342  81.7961608  76.2368544
  40.5170342  81.0831608  75.0628544  41.6660342  78.7091608  75.6288544
  43.9770342  78.4101608  76.4838544  45.4110342  80.4061608  76.8748544
  44.4380342  82.7171608  76.3758544  39.9020342  80.3001608  74.8898544
  40.1920342  82.0231608  74.8838544  42.2730342  82.8431608  75.5858544
  90.0520342  22.8811608  82.6518544  89.3280342  23.9381608  82.2318544
  88.7410342  23.9011608  80.9628544  88.9170342  22.7701608  80.1588544
  89.6750342  21.6951608  80.6338544  90.2460342  21.7721608  81.9078544
  89.1790342  25.0541608  83.0758544  88.1560342  24.7341608  80.6008544
  88.4690342  22.7261608  79.1758544  89.8190342  20.8161608  80.0228544
  90.8450342  20.9951608  82.3578544  88.6390342  25.8511608  82.7708544
  89.6120342  25.0631608  83.9888544  90.4700342  22.9221608  83.5708544
  57.6760342  86.2421608  37.6828544  57.6920342  84.9401608  37.3348544
  57.5620342  84.5921608  35.9868544  57.4190342  85.6021608  35.0288544
  57.4080342  86.9411608  35.4328544  57.5410342  87.2451608  36.7908544
  57.8380342  83.9581608  38.3338544  57.5710342  83.5561608  35.6798544
  57.3180342  85.3491608  33.9828544  57.2990342  87.7311608  34.7038544
  57.5440342  88.2471608  37.1958544  57.8510342  82.9801608  38.0838544
  57.9290342  84.2281608  39.3028544  57.7710342  86.4771608  38.6608544
  84.1610342  36.6501608 111.9478544  85.2900342  36.1531608 112.4928544
  85.2240342  34.9721608 113.2408544  83.9900342  34.3341608 113.4068544
  82.8440342  34.8841608 112.8238544  82.9530342  36.0651608 112.0838544
  86.5090342  36.8301608 112.2988544  86.1140342  34.5521608 113.6878544
  83.9240342  33.4221608 113.9818544  81.8850342  34.4021608 112.9448544
  82.1260342  36.5631608 111.5988544  87.3600342  36.4661608 112.7028544
  86.5370342  37.6821608 111.7558544  84.2250342  37.5031608 111.4108544
  58.4580342  74.7551608 125.2728544  58.6020342  73.4601608 125.6218544
  57.6890342  72.5181608 125.1388544  56.6460342  72.9381608 124.3048544
  56.5340342  74.2901608 123.9678544  57.4680342  75.2001608 124.4718544
  59.6670342  73.0851608 126.4628544  57.7810342  71.4741608 125.4018544
  55.9330342  72.2211608 123.9238544  55.7340342  74.6281608 123.3248544
  57.4610342  76.2611608 124.2668544  59.7840342  72.1181608 126.7298544
  60.3160342  73.7801608 126.8028544  59.1250342  75.4231608 125.6298544
  43.2340342  29.5191608  90.0798544  43.3650342  29.6261608  88.7418544
  42.6030342  30.5781608  88.0568544  41.7230342  31.3971608  88.7728544
  41.6180342  31.2521608  90.1598544  42.3980342  30.2891608  90.8068544
  44.2630342  28.7801608  88.0648544  42.6880342  30.6851608  86.9848544
  41.1280342  32.1371608  88.2568544  40.9430342  31.8781608  90.7248544
  42.3850342  30.1051608  91.8708544  44.3690342  28.8531608  87.0628544
  44.8040342  28.0981608  88.5768544  43.7910342  28.8271608  90.5608544
 100.3080342 113.9921608  67.0938544  99.5580342 113.4941608  66.0898544
  98.9380342 112.2511608  66.2548544  99.1090342 111.5531608  67.4548544
  99.8960342 112.1061608  68.4698544 100.4980342 113.3511608  68.2648544
  99.4140342 114.2331608  64.9008544  98.3300342 111.8281608  65.4668544
  98.6360342 110.5921608  67.5968544 100.0370342 111.5781608  69.4018544
 101.1210342 113.8561608  68.9888544  98.8540342 113.8681608  64.1428544
  99.8700342 115.1291608  64.7998544 100.7490342 114.8911608  66.9598544
  60.5160342  36.0451608 115.0748544  59.1790342  36.1671608 114.9398544
  58.6050342  37.4421608 114.9648544  59.4270342  38.5621608 115.1298544
  60.8090342  38.3901608 115.2658544  61.3430342  37.0981608 115.2358544
  58.3920342  35.0121608 114.7768544  57.5370342  37.5681608 114.8588544
  58.9980342  39.5531608 115.1508544  61.4550342  39.2461608 115.3938544
  62.3940342  36.8681608 115.3328544  57.3900342  35.0921608 114.6748544
  58.8250342  34.0981608 114.7618544  60.9160342  35.1181608 115.0548544
  42.0030342  58.5621608  72.9158544  41.9920342  57.2181608  73.0318544
  42.3270342  56.6371608  74.2588544  42.6640342  57.4611608  75.3388544
  42.6620342  58.8501608  75.1738544  42.3220342  59.3911608  73.9308544
  41.6460342  56.4311608  71.9178544  42.3260342  55.5631608  74.3798544
  42.9250342  57.0261608  76.2928544  42.9210342  59.4971608  75.9998544
  42.2930342  60.4481608  73.7108544  41.6350342  55.4231608  71.9938544
  41.4080342  56.8681608  71.0378544  41.7590342  58.9671608  72.0228544
  93.8640342  83.8101608  29.7978544  93.4750342  85.1001608  29.8468544
  94.2340342  86.0141608  30.5858544  95.3790342  85.5701608  31.2558544
  95.7460342  84.2231608  31.1778544  94.9600342  83.3431608  30.4288544
  92.3150342  85.5001608  29.1558544  93.9440342  87.0541608  30.6418544
  95.9750342  86.2641608  31.8308544  96.6280342  83.8681608  31.6908544
  95.1650342  82.2881608  30.3118544  92.0150342  86.4641608  29.1868544
  91.7790342  84.8261608  28.6288544  93.3050342  83.1621608  29.2608544
  69.1430342  55.4571608  25.1868544  68.7570342  56.7371608  25.0138544
  67.3920342  57.0331608  24.9348544  66.4580342  55.9971608  25.0358544
  66.9020342  54.6831608  25.2148544  68.2750342  54.4291608  25.2898544
  69.7330342  57.7471608  24.9168544  67.0560342  58.0511608  24.7958544
  65.4010342  56.2101608  24.9768544  66.1920342  53.8721608  25.2948544
  68.7100342  53.4501608  25.4258544  69.4550342  58.7091608  24.7868544
  70.7150342  57.5141608  24.9758544  70.1320342  55.2591608  25.2418544
  54.5370342  47.2851608 103.3058544  55.3980342  47.9421608 104.1098544
  55.0780342  49.2331608 104.5408544  53.8730342  49.8151608 104.1298544
  53.0100342  49.0981608 103.2958544  53.3670342  47.8101608 102.8868544
  56.5980342  47.3161608 104.4968544  55.7490342  49.7821608 105.1858544
  53.6120342  50.8121608 104.4548544  52.0770342  49.5351608 102.9708544
  52.7660342  47.1821608 102.2458544  57.2490342  47.8001608 105.0988544
  56.8130342  46.3831608 104.1748544  54.7820342  46.3531608 103.0028544
  76.6770342  91.1791608 124.8158544  75.8080342  90.5241608 124.0198544
  76.0910342  89.2091608 123.6378544  77.2680342  88.6021608 124.0878544
  78.1420342  89.3181608 124.9118544  77.8220342  90.6311608 125.2708544
  74.6350342  91.1761608 123.5918544  75.4110342  88.6611608 123.0008544
  77.5000342  87.5871608 123.8008544  79.0550342  88.8611608 125.2658544
  78.4340342  91.2591608 125.9008544  73.9770342  90.6941608 122.9958544
  74.4480342  92.1271608 123.8778544  76.4590342  92.1281608 125.0828544
  78.2270342 113.2721608  56.6218544  77.8050342 113.7391608  57.8138544
  76.6300342 114.4961608  57.8728544  75.9200342 114.7521608  56.6948544
  76.3940342 114.2481608  55.4788544  77.5730342 113.4961608  55.4638544
  78.5520342 113.4561608  58.9728544  76.2680342 114.8821608  58.8148544
  75.0110342 115.3351608  56.7238544  75.8550342 114.4391608  54.5618544
  78.0140342 113.0681608  54.5758544  78.2440342 113.8011608  59.8708544
  79.3990342 112.9081608  58.9108544  79.0780342 112.7271608  56.5958544
  67.8300342  44.7281608  98.1128544  66.9060342  45.7021608  98.2388544
  67.3090342  47.0391608  98.1638544  68.6610342  47.3371608  97.9598544
  69.5860342  46.2951608  97.8348544  69.1410342  44.9721608  97.9158544
  65.5570342  45.3541608  98.4428544  66.5900342  47.8391608  98.2608544
  68.9880342  48.3651608  97.8998544  70.6330342  46.5111608  97.6778544
  69.7800342  44.1061608  97.8318544  64.8570342  46.0761608  98.5378544
  65.2840342  44.3821608  98.4948544  67.5230342  43.7671608  98.1698544
 123.0350342  62.2721608  68.5198544 124.2670342  61.9821608  68.9858544
 124.5230342  60.6991608  69.4818544 123.4980342  59.7471608  69.4838544
 122.2360342  60.0911608  68.9908544 122.0210342  61.3831608  68.5038544
 125.2670342  62.9721608  68.9638544 125.5020342  60.4401608  69.8608544
 123.6820342  58.7521608  69.8638544 121.4350342  59.3651608  68.9868544
 121.0820342  61.7391608  68.1048544 126.1930342  62.7651608  69.3098544
 125.0620342  63.8941608  68.6018544 122.8650342  63.2021608  68.1648544
 105.0540342  79.2961608 126.4218544 104.1730342  79.5981608 125.4468544
 104.6200342  79.6731608 124.1238544 105.9690342  79.4351608 123.8408544
 106.8490342  79.1261608 124.8828544 106.3620342  79.0601608 126.1918544
 102.8250342  79.8291608 125.7788544 103.9350342  79.9131608 123.3218544
 106.3290342  79.4901608 122.8228544 107.8930342  78.9391608 124.6778544
 106.9640342  78.8291608 127.0578544 102.1560342  80.0561608 125.0558544
 102.5200342  79.7721608 126.7408544 104.7160342  79.2461608 127.3718544
 104.5890342  47.8961608 111.2158544 103.4530342  48.5621608 110.9268544
 103.2400342  49.8241608 111.4918544 104.2090342  50.3661608 112.3428544
 105.3730342  49.6401608 112.6158544 105.5470342  48.3831608 112.0308544
 102.5070342  47.9761608 110.0648544 102.3380342  50.3801608 111.2778544
 104.0590342  51.3401608 112.7868544 106.1290342  50.0481608 113.2708544
 106.4100342  47.7511608 112.1818544 101.6520342  48.4671608 109.8428544
 102.6770342  47.0631608 109.6668544 104.7280342  46.9861608 110.7998544
 122.1220342  55.7431608  40.6118544 121.2980342  54.9301608  41.3018544
 121.6210342  53.5741608  41.4218544 122.7910342  53.0921608  40.8238544
 123.6170342  53.9721608  40.1168544 123.2580342  55.3191608  40.0208544
 120.1320342  55.4601608  41.8868544 120.9780342  52.9001608  41.9698544
 123.0540342  52.0481608  40.9078544 124.5230342  53.6131608  39.6498544
 123.8320342  56.0701608  39.4968544 119.5080342  54.8581608  42.4058544
 119.9140342  56.4411608  41.7888544 121.8750342  56.7201608  40.5338544
  42.8990342  85.3471608  56.9828544  43.4190342  86.5911608  56.9778544
  44.8090342  86.7491608  56.9768544  45.6280342  85.6151608  56.9798544
  45.0470342  84.3431608  56.9848544  43.6530342  84.2291608  56.9858544
  42.5550342  87.7021608  56.9748544  45.2520342  87.7351608  56.9728544
  46.7030342  85.7211608  56.9788544  45.6680342  83.4591608  56.9868544
  43.1160342  83.2911608  56.9898544  42.9340342  88.6381608  56.9718544
  41.5530342  87.5681608  56.9778544  41.8940342  85.2491608  56.9838544
 107.6870342  93.8591608  41.3318544 106.7750342  93.0541608  40.7518544
 105.6790342  93.6271608  40.0968544 105.5540342  95.0201608  40.0578544
 106.5240342  95.8171608  40.6738544 107.6040342  95.2051608  41.3178544
 106.9430342  91.6581608  40.8168544 104.9330342  93.0051608  39.6228544
 104.7140342  95.4761608  39.5558544 106.4400342  96.8941608  40.6518544
 108.3990342  95.7381608  41.8188544 106.2650342  91.0461608  40.3848544
 107.7400342  91.2631608  41.2948544 108.4730342  93.4311608  41.8018544
  62.3660342 121.1341608  40.6228544  61.2450342 121.1791608  41.3718544
  61.1440342 122.1321608  42.3908544  62.2060342 123.0161608  42.6108544
  63.3500342 122.9341608  41.8098544  63.4110342 121.9671608  40.8028544
  60.2030342 120.2691608  41.1138544  60.2580342 122.1911608  43.0058544
  62.1430342 123.7581608  43.3938544  64.1780342 123.6111608  41.9688544
  64.2500342 121.8291608  40.1368544  59.3590342 120.2951608  41.6688544
  60.2940342 119.5871608  40.3738544  62.4240342 120.4401608  39.8908544
  55.6360342  63.8161608  21.6868544  54.4200342  63.9361608  22.2558544
  53.2940342  64.0671608  21.4368544  53.4530342  64.0691608  20.0468544
  54.7340342  63.9411608  19.4988544  55.8330342  63.8131608  20.3528544
  54.3080342  63.9291608  23.6598544  52.3070342  64.1651608  21.8668544
  52.5930342  64.1691608  19.4008544  54.8710342  63.9421608  18.4268544
  56.8560342  63.7101608  20.0218544  53.4010342  64.0181608  24.0958544
  55.1330342  63.8351608  24.2358544  56.4400342  63.7221608  22.2918544
  61.4300342 122.4771608 100.8038544  62.3100342 121.7301608 100.1058544
  63.5840342 122.2441608  99.8438544  63.9180342 123.5201608 100.3108544
  62.9750342 124.2601608 101.0318544  61.7130342 123.7101608 101.2718544
  61.9290342 120.4521608  99.6558544  64.3080342 121.6671608  99.2858544
  64.8980342 123.9301608 100.1168544  63.2200342 125.2461608 101.3978544
  60.9230342 124.2051608 101.8168544  62.5800342 119.8841608  99.1318544
  61.0030342 120.0971608  99.8528544  60.5140342 122.0921608 100.9848544
  36.2280342  99.3591608 107.6058544  37.0460342 100.2821608 107.0598544
  36.5590342 101.5731608 106.8288544  35.2370342 101.8791608 107.1698544
  34.4240342 100.8911608 107.7348544  34.9490342  99.6131608 107.9488544
  38.3690342  99.9281608 106.7328544  37.1930342 102.3321608 106.3918544
  34.8470342 102.8711608 106.9968544  33.4010342 101.1141608 108.0018544
  34.3980342  98.7891608 108.3778544  38.9890342 100.6121608 106.3228544
  38.7020342  98.9901608 106.9058544  36.5940342  98.4321608 107.7668544
  26.0700342  74.9371608  62.2268544  26.0420342  73.6261608  61.9118544
  24.8630342  72.9021608  62.1118544  23.7390342  73.5521608  62.6338544
  23.8120342  74.9131608  62.9468544  25.0100342  75.6001608  62.7318544
  27.1980342  73.0151608  61.3898544  24.8120342  71.8501608  61.8678544
  22.8210342  73.0061608  62.7938544  22.9520342  75.4271608  63.3508544
  25.1600342  76.6491608  62.9428544  27.1870342  72.0341608  61.1498544
  28.0420342  73.5541608  61.2528544  26.9300342  75.4461608  62.0768544
  95.0730342  68.7291608 133.1558544  94.8480342  68.2391608 131.9188544
  94.9170342  69.1031608 130.8208544  95.2170342  70.4541608 131.0288544
  95.4430342  70.9191608 132.3278544  95.3650342  70.0231608 133.3978544
  94.5500342  66.8731608 131.7588544  94.7410342  68.7381608 129.8188544
  95.2740342  71.1331608 130.1908544  95.6760342  71.9601608 132.5028544
  95.5240342  70.2901608 134.4328544  94.3800342  66.4971608 130.8378544
  94.5040342  66.2641608 132.5648544  95.0200342  68.0921608 133.9378544
 112.7130342  32.1991608  78.5468544 113.9340342  31.7021608  78.8288544
 114.1500342  31.0801608  80.0628544 113.0950342  30.9881608  80.9768544
 111.8440342  31.5171608  80.6438544 111.6710342  32.1301608  79.3998544
 114.9650342  31.8181608  77.8768544 115.1190342  30.6731608  80.3148544
 113.2460342  30.5111608  81.9348544 111.0210342  31.4521608  81.3408544
 110.7440342  32.5661608  79.0558544 115.8840342  31.4491608  78.0778544
 114.7910342  32.2711608  76.9908544 112.5730342  32.6451608  77.6508544
  48.4320342  89.8041608 113.7078544  47.8160342  89.0001608 112.8178544
  46.9820342  87.9791608 113.2838544  46.8040342  87.8141608 114.6618544
  47.4620342  88.6711608 115.5498544  48.2870342  89.6791608 115.0428544
  48.0250342  89.2041608 111.4408544  46.4760342  87.3201608 112.5918544
  46.1620342  87.0301608 115.0368544  47.3330342  88.5541608 116.6168544
  48.8340342  90.3851608 115.6498544  47.5690342  88.6081608 110.7648544
  48.6320342  89.9471608 111.1218544  49.0310342  90.5371608 113.3558544
  93.1630342 110.7151608  30.0098544  92.9240342 110.6481608  28.6848544
  93.3610342 111.6891608  27.8598544  94.0360342 112.7761608  28.4258544
  94.2630342 112.8051608  29.8058544  93.8090342 111.7441608  30.5948544
  92.2410342 109.5341608  28.1598544  93.1830342 111.6611608  26.7938544
  94.3800342 113.5881608  27.8008544  94.7820342 113.6381608  30.2558544
  93.9380342 111.6801608  31.6658544  92.0570342 109.4741608  27.1688544
  91.9320342 108.7921608  28.7718544  92.8410342 109.9561608  30.5928544
  39.3740342  83.9321608 123.7258544  38.0520342  84.1131608 123.9228544
  37.1420342  83.3661608 123.1688544  37.6210342  82.4491608 122.2268544
  39.0000342  82.2931608 122.0548544  39.8760342  83.0591608 122.8288544
  37.6170342  85.0471608 124.8818544  36.0770342  83.4911608 123.3058544
  36.9300342  81.8651608 121.6368544  39.3840342  81.5881608 121.3308544
  40.9540342  83.0071608 122.7658544  36.6290342  85.1901608 125.0378544
  38.2900342  85.5781608 125.4168544  40.0190342  84.4791608 124.2778544
  80.1590342 118.5941608  32.2518544  79.8440342 119.7811608  31.6958544
  80.4970342 120.9361608  32.1368544  81.4620342 120.8351608  33.1448544
  81.7580342 119.5841608  33.6948544  81.0820342 118.4541608  33.2248544
  78.8660342 119.8341608  30.6838544  80.2640342 121.9011608  31.7078544
  81.9750342 121.7191608  33.4968544  82.5010342 119.4921608  34.4738544
  81.2430342 117.4491608  33.5878544  78.6230342 120.7181608  30.2598544
  78.4040342 118.9891608  30.3778544  79.6780342 117.7691608  31.9218544
  87.6550342  39.6981608  39.9938544  87.0300342  40.0351608  38.8468544
  86.7910342  41.3861608  38.5728544  87.2050342  42.3561608  39.4918544
  87.8500342  41.9621608  40.6688544  88.0690342  40.6011608  40.9048544
  86.6320342  39.0241608  37.9528544  86.2920342  41.6851608  37.6618544
  87.0280342  43.4031608  39.2938544  88.1750342  42.7001608  41.3868544
  88.5580342  40.2031608  41.7828544  86.1630342  39.2661608  37.0908544
  86.8120342  38.0541608  38.1678544  87.8200342  38.7181608  40.1768544
  65.7180342  36.7601608  84.6218544  66.2210342  35.5151608  84.4978544
  67.6000342  35.3511608  84.3338544  68.4270342  36.4791608  84.3028544
  67.8630342  37.7521608  84.4358544  66.4800342  37.8731608  84.5968544
  65.3500342  34.4101608  84.5348544  68.0300342  34.3641608  84.2318544
  69.4940342  36.3681608  84.1768544  68.4900342  38.6321608  84.4128544
  65.9560342  38.8121608  84.7068544  65.7170342  33.4731608  84.4428544
  64.3560342  34.5481608  84.6528544  64.7200342  36.8631608  84.7388544
  62.4340342  83.2341608  36.0938544  63.7090342  82.9541608  35.7528544
  64.7110342  83.0491608  36.7238544  64.3700342  83.4311608  38.0258544
  63.0360342  83.7121608  38.3368544  62.0640342  83.6051608  37.3368544
  64.0030342  82.5741608  34.4298544  65.7400342  82.8311608  36.4778544
  65.1340342  83.5091608  38.7868544  62.7590342  84.0081608  39.3378544
  61.0120342  83.8011608  37.4828544  64.9550342  82.3621608  34.1638544
  63.2660342  82.5121608  33.7418544  61.7220342  83.1611608  35.3818544
  87.5470342  34.2611608 118.7488544  86.9680342  33.1411608 118.2708544
  87.6620342  31.9291608 118.3458544  88.9400342  31.9051608 118.9148544
  89.5040342  33.0901608 119.3978544  88.7760342  34.2801608 119.3038544
  85.6800342  33.2151608 117.7078544  87.2220342  31.0161608 117.9698544
  89.4890342  30.9761608 118.9788544  90.4900342  33.0851608 119.8398544
  89.1290342  35.2421608 119.6488544  85.2370342  32.3811608 117.3468544
  85.1940342  34.0991608 117.6608544  87.0340342  35.1291608 118.6878544
  24.7250342  44.2161608  65.6068544  25.7980342  43.4111608  65.4668544
  26.4970342  43.0031608  66.6078544  26.0690342  43.4371608  67.8668544
  24.9500342  44.2711608  67.9658544  24.2800342  44.6571608  66.8008544
  26.1920342  43.0001608  64.1798544  27.3600342  42.3581608  66.5248544
  26.5980342  43.1301608  68.7568544  24.6090342  44.6141608  68.9318544
  23.4100342  45.2961608  66.7788544  26.9940342  42.3971608  64.0648544
  25.6750342  43.3051608  63.3668544  24.2310342  44.5021608  64.7738544
  35.0390342  53.3931608  80.0628544  36.2090342  53.9761608  79.7338544
  36.3530342  55.3571608  79.8988544  35.2820342  56.1031608  80.4018544
  34.0850342  55.4581608  80.7308544  33.9830342  54.0751608  80.5508544
  37.2590342  53.1851608  79.2308544  37.2800342  55.8501608  79.6428544
  35.3780342  57.1711608  80.5348544  33.2500342  56.0221608  81.1208544
  33.1010342  53.4921608  80.7758544  38.1400342  53.6121608  78.9808544
  37.1370342  52.1881608  79.1178544  34.9500342  52.3941608  79.9378544
  72.4700342 134.1571608  63.7128544  73.5230342 134.7261608  63.0928544
  74.4580342 133.9101608  62.4488544  74.2810342 132.5221608  62.4608544
  73.1730342 131.9731608  63.1158544  72.2620342 132.8251608  63.7478544
  73.6600342 136.1271608  63.1078544  75.3120342 134.3401608  61.9448544
  74.9940342 131.8781608  61.9678544  73.0240342 130.9031608  63.1328544
  71.3800342 132.4941608  64.2758544  74.4460342 136.5641608  62.6468544
  72.9750342 136.7011608  63.5788544  71.8030342 134.7601608  64.1738544
 114.3470342  81.2941608  64.0558544 115.1160342  82.2531608  64.6098544
 114.5770342  83.5271608  64.8128544 113.2530342  83.7791608  64.4368544
 112.4910342  82.7551608  63.8648544 113.0680342  81.4961608  63.6798544
 116.4430342  81.9531608  64.9728544 115.1710342  84.3151608  65.2548544
 112.8220342  84.7591608  64.5868544 111.4670342  82.9361608  63.5698544
 112.5590342  80.6461608  63.2478544 117.0270342  82.6651608  65.3888544
 116.8160342  81.0271608  64.8178544 114.7510342  80.3791608  63.9168544
  52.2730342  70.6691608 126.9598544  53.1750342  70.6451608 127.9618544
  52.7310342  70.7661608 129.2818544  51.3620342  70.9091608 129.5348544
  50.4610342  70.9291608 128.4658544  50.9460342  70.8051608 127.1608544
  54.5420342  70.4991608 127.6588544  53.4320342  70.7491608 130.1048544
  51.0030342  71.0031608 130.5498544  49.4010342  71.0391608 128.6468544
  50.3280342  70.8101608 126.2748544  55.2260342  70.4801608 128.4028544
  54.8450342  70.4141608 126.6988544  52.6100342  70.5811608 126.0118544
 118.0190342  64.5781608  76.6808544 118.7010342  63.4141608  76.6678544
 118.0250342  62.2321608  76.3478544 116.6590342  62.2821608  76.0498544
 115.9910342  63.5111608  76.0748544 116.7040342  64.6691608  76.3998544
 120.0740342  63.4121608  76.9748544 118.5460342  61.2851608  76.3298544
 116.1230342  61.3781608  75.8008544 114.9360342  63.5641608  75.8468544
 116.2740342  65.6601608  76.4448544 120.5940342  62.5461608  76.9678544
 120.5460342  64.2761608  77.2038544 118.5220342  65.4231608  76.9138544
  21.7980342  81.5561608  65.0348544  21.1000342  81.7981608  63.9058544
  21.7190342  81.6021608  62.6668544  23.0460342  81.1601608  62.6248544
  23.7320342  80.9221608  63.8198544  23.0770342  81.1301608  65.0378544
  19.7670342  82.2421608  63.9978544  21.1830342  81.7881608  61.7468544
  23.5370342  81.0051608  61.6758544  24.7570342  80.5801608  63.8018544
  23.5250342  80.9731608  66.0078544  19.2360342  82.4261608  63.1578544
  19.3370342  82.3791608  64.9018544  21.3370342  81.7031608  65.9218544
  96.8970342 106.4821608 122.2888544  97.7990342 105.6661608 121.7078544
  98.7580342 106.2131608 120.8488544  98.7610342 107.5921608 120.6118544
  97.8070342 108.4011608 121.2368544  96.8650342 107.8151608 122.0878544
  97.7580342 104.2851608 121.9758544  99.4940342 105.5821608 120.3688544
  99.4960342 108.0281608 119.9518544  97.7970342 109.4671608 121.0628544
  96.0930342 108.3581608 122.6128544  98.4290342 103.6651608 121.5448544
  97.0570342 103.9081608 122.5978544  96.2100342 106.0721608 122.9068544
  97.9670342 112.0521608  30.1618544  98.9220342 111.1271608  30.3858544
  99.7910342 111.2921608  31.4688544  99.6500342 112.4111608  32.2968544
  98.6450342 113.3461608  32.0288544  97.7980342 113.1441608  30.9358544
  99.0260342 110.0171608  29.5248544 100.5660342 110.5661608  31.6708544
 100.3140342 112.5521608  33.1378544  98.5260342 114.2141608  32.6598544
  96.9960342 113.8101608  30.6518544  99.7380342 109.3191608  29.6838544
  98.3900342 109.9151608  28.7468544  97.3470342 111.9191608  29.3758544
 105.5130342  61.5061608  71.7308544 106.4150342  62.2141608  72.4418544
 106.3480342  62.1951608  73.8388544 105.3490342  61.4451608  74.4678544
 104.4340342  60.7251608  73.6918544 104.5360342  60.7701608  72.2988544
 107.4020342  62.9541608  71.7648544 107.0580342  62.7531608  74.4328544
 105.2840342  61.4211608  75.5458544 103.6570342  60.1421608  74.1648544
 103.8760342  60.2491608  71.6198544 108.0820342  63.4881608  72.2878544
 107.4350342  62.9561608  70.7548544 105.5750342  61.5291608  70.7228544
 111.8690342 121.1921608  93.9788544 113.0660342 121.8141608  93.9958544
 114.2300342 121.0561608  93.8348544 114.1290342 119.6711608  93.6588544
 112.8670342 119.0681608  93.6468544 111.7280342 119.8611608  93.8118544
 113.1190342 123.2091608  94.1758544 115.2020342 121.5281608  93.8448544
 115.0190342 119.0731608  93.5328544 112.7740342 118.0001608  93.5118544
 110.7150342 119.4851608  93.8168544 114.0100342 123.6841608  94.1908544
 112.2670342 123.7401608  94.2918544 111.0380342 121.7531608  94.0958544
  94.9570342 116.6711608 115.5158544  94.3880342 115.4791608 115.7908544
  94.2510342 114.5371608 114.7668544  94.7060342 114.8491608 113.4818544
  95.2900342 116.0971608 113.2398544  95.4080342 117.0111608 114.2908544
  93.9440342 115.2101608 117.0998544  93.7980342 113.5741608 114.9598544
  94.6070342 114.1311608 112.6798544  95.6460342 116.3511608 112.2518544
  95.8440342 117.9951608 114.1998544  93.5170342 114.3211608 117.3158544
  94.0510342 115.9041608 117.8258544  95.0490342 117.3411608 116.2658544
  94.7880342  79.8181608 109.9578544  95.1230342  78.8061608 110.7838544
  96.2670342  78.9261608 111.5788544  97.0380342  80.0921608 111.5008544
  96.6530342  81.1161608 110.6298544  95.5030342  80.9571608 109.8528544
  94.3170342  77.6531608 110.8288544  96.5590342  78.1311608 112.2498544
  97.9240342  80.1991608 112.1088544  97.2390342  82.0221608 110.5598544
  95.1290342  81.6911608 109.1538544  94.5600342  76.8891608 111.4438544
  93.4950342  77.5831608 110.2458544  93.9590342  79.7161608 109.3898544
 114.8940342 100.3911608  35.0758544 115.7310342 101.4451608  35.1568544
 117.1070342 101.2171608  35.2508544 117.5860342  99.9021608  35.2588544
 116.6830342  98.8381608  35.1728544 115.3140342  99.1091608  35.0808544
 115.2030342 102.7501608  35.1448544 117.8010342 102.0441608  35.3168544
 118.6470342  99.7111608  35.3308544 117.0390342  97.8181608  35.1778544
 114.5440342  98.3551608  35.0098544 115.8210342 103.5471608  35.2058544
 114.2050342 102.8951608  35.0778544 113.9020342 100.5711608  35.0088544
  41.0030342  85.2521608  73.9258544  41.5490342  85.9041608  74.9728544
  40.7780342  86.8401608  75.6688544  39.4590342  87.0791608  75.2658544
  38.9330342  86.3801608  74.1748544  39.7370342  85.4531608  73.5058544
  42.8790342  85.6301608  75.3408544  41.1900342  87.3771608  76.5118544
  38.8520342  87.7991608  75.7948544  37.9170342  86.5551608  73.8538544
  39.4190342  84.8671608  72.6558544  43.2970342  86.1131608  76.1238544
  43.4210342  84.9511608  74.8248544  41.5730342  84.5791608  73.4328544
  70.5330342  40.4811608  41.9608544  70.1530342  39.9081608  40.8008544
  69.6940342  38.5871608  40.8108544  69.6390342  37.8891608  42.0228544
  70.0420342  38.5221608  43.2028544  70.4950342  39.8441608  43.1488544
  70.2260342  40.6491608  39.6068544  69.3830342  38.1031608  39.8958544
  69.2860342  36.8681608  42.0468544  70.0050342  37.9951608  44.1458544
  70.8260342  40.4131608  44.0058544  69.9440342  40.2291608  38.7318544
  70.5610342  41.6021608  39.6178544  70.8620342  41.4361608  41.9368544
 104.7090342 111.0921608  52.5778544 105.7330342 111.4631608  51.7828544
 106.9120342 111.9381608  52.3658544 107.0030342 112.0181608  53.7598544
 105.9170342 111.6231608  54.5468544 104.7570342 111.1531608  53.9238544
 105.5950342 111.3651608  50.3848544 107.7480342 112.2431608  51.7528544
 107.9080342 112.3831608  54.2258544 105.9740342 111.6791608  55.6248544
 103.8700342 110.8271608  54.4478544 106.3560342 111.6411608  49.7808544
 104.7360342 111.0201608  49.9808544 103.8650342 110.7511608  52.1408544
  29.6030342  54.2861608  89.1528544  30.9470342  54.1791608  89.1428544
  31.6990342  54.9351608  90.0478544  31.0410342  55.7851608  90.9438544
  29.6450342  55.8651608  90.9208544  28.9310342  55.0921608  89.9998544
  31.5650342  53.3101608  88.2228544  32.7770342  54.8681608  90.0608544
  31.6080342  56.3751608  91.6488544  29.1240342  56.5171608  91.6068544
  27.8540342  55.0881608  89.9078544  32.5710342  53.2231608  88.2068544
  31.0060342  52.7721608  87.5758544  29.0740342  53.7331608  88.4938544
  97.2230342 133.8911608  61.8168544  98.0680342 134.3411608  62.7668544
  99.4270342 134.0221608  62.6768544  99.8790342 133.2441608  61.6048544
  98.9680342 132.7991608  60.6418544  97.6190342 133.1401608  60.7688544
  97.5660342 135.1201608  63.8258544 100.1260342 134.3691608  63.4238544
 100.9260342 132.9901608  61.5228544  99.3050342 132.1981608  59.8088544
  96.8450342 132.8431608  60.0758544  98.1910342 135.4621608  64.5428544
  96.5810342 135.3401608  63.8748544  96.2450342 134.1301608  61.8948544
  51.0420342  72.0751608  55.1488544  51.4320342  72.9711608  56.0778544
  52.1370342  74.1101608  55.6728544  52.4220342  74.2941608  54.3158544
  51.9980342  73.3391608  53.3858544  51.2970342  72.2151608  53.8318544
  51.1230342  72.7431608  57.4318544  52.4610342  74.8441608  56.3968544
  52.9650342  75.1681608  53.9878544  52.2120342  73.4691608  52.3348544
  50.9310342  71.4271608  53.1888544  51.4100342  73.4091608  58.1358544
  50.6140342  71.9151608  57.7058544  50.5340342  71.2581608  55.4568544
 123.0810342  44.6891608 100.8358544 123.4150342  45.9281608 100.4198544
 122.4000342  46.8431608 100.1198544 121.0630342  46.4531608 100.2578544
 120.7620342  45.1591608 100.6918544 121.8060342  44.2751608 100.9818544
 124.7740342  46.2741608 100.2968544 122.6390342  47.8421608  99.7848544
 120.2690342  47.1491608 100.0288544 119.7340342  44.8451608 100.8028544
 121.6710342  43.2591608 101.3218544 125.0340342  47.2001608  99.9868544
 125.4930342  45.6001608 100.5178544 123.8260342  44.0401608 101.0498544
 104.7530342  66.1141608  96.9358544 104.3580342  65.5211608  95.7908544
 103.3040342  66.0811608  95.0608544 102.6840342  67.2431608  95.5328544
 103.1260342  67.8251608  96.7258544 104.1820342  67.2341608  97.4248544
 105.0120342  64.3531608  95.3548544 102.9670342  65.6261608  94.1398544
 101.8690342  67.6871608  94.9808544 102.6560342  68.7231608  97.1018544
 104.5900342  67.6111608  98.3518544 104.7230342  63.9011608  94.4988544
 105.7700342  63.9621608  95.8968544 105.5150342  65.6981608  97.4518544
 115.6170342  46.0071608  66.3678544 114.6770342  46.8031608  66.9148544
 114.5820342  48.1341608  66.4948544 115.4620342  48.6091608  65.5158544
 116.4220342  47.7481608  64.9748544 116.4840342  46.4251608  65.4228544
 113.8140342  46.2811608  67.8968544 113.8370342  48.7941608  66.9168544
 115.4000342  49.6341608  65.1808544 117.1080342  48.1021608  64.2188544
 117.1900342  45.6901608  65.0638544 113.1060342  46.8691608  68.3128544
 113.8980342  45.3171608  68.1888544 115.6740342  45.0481608  66.6818544
  66.1880342  43.6651608 117.9278544  65.4480342  42.5491608 117.7708544
  64.0770342  42.5971608 118.0418544  63.5030342  43.8001608 118.4698544
  64.3090342  44.9331608 118.6198544  65.6750342  44.8431608 118.3378544
  66.0680342  41.3621608 117.3378544  63.4590342  41.7181608 117.9238544
  62.4460342  43.8521608 118.6828544  63.8790342  45.8681608 118.9498544
  66.3730342  45.6631608 118.4248544  65.5230342  40.5211608 117.2168544
  67.0610342  41.3471608 117.1478544  67.1770342  43.6151608 117.7278544
  62.3100342  44.6361608 102.9178544  63.5190342  44.3291608 103.4318544
  63.5880342  43.5471608 104.5888544  62.4040342  43.1001608 105.1868544
  61.1720342  43.4431608 104.6198544  61.1470342  44.2271608 103.4628544
  64.6820342  44.8011608 102.7948544  64.5430342  43.2851608 105.0228544
  62.4420342  42.4951608 106.0808544  60.2510342  43.1051608 105.0718544
  60.2460342  44.5401608 102.9558544  65.5920342  44.5761608 103.1728544
  64.6120342  45.3661608 101.9608544  62.2770342  45.2021608 102.0818544
  87.8650342  39.9361608 100.5438544  87.5590342  38.6231608 100.5478544
  88.5930342  37.6821608 100.5408544  89.9210342  38.1221608 100.5298544
  90.1940342  39.4941608 100.5258544  89.1310342  40.4021608 100.5338544
  86.2080342  38.2271608 100.5588544  88.3760342  36.6231608 100.5428544
  90.7310342  37.4071608 100.5238544  91.2150342  39.8481608 100.5178544
  89.2430342  41.4761608 100.5318544  85.9680342  37.2461608 100.5608544
  85.4740342  38.9211608 100.5628544  87.1070342  40.6041608 100.5488544
 132.2100342  71.6801608  67.1298544 133.2240342  71.8451608  68.0018544
 133.0360342  71.4921608  69.3418544 131.8000342  70.9761608  69.7478544
 130.7750342  70.8221608  68.8098544 131.0040342  71.1871608  67.4798544
 134.4500342  72.3681608  67.5478544 133.8320342  71.6141608  70.0628544
 131.6390342  70.6991608  70.7798544 129.8150342  70.4241608  69.1098544
 130.2750342  71.1031608  66.6878544 135.2160342  72.4951608  68.1928544
 134.5680342  72.6181608  66.5758544 132.3610342  71.9401608  66.1648544
  57.3910342 121.9971608  44.1238544  56.4970342 121.9891608  43.1148544
  56.2070342 123.1851608  42.4508544  56.8500342 124.3631608  42.8478544
  57.7700342 124.3261608  43.8998544  58.0320342 123.1101608  44.5368544
  55.8750342 120.7791608  42.7508544  55.4940342 123.2071608  41.6388544
  56.6360342 125.2941608  42.3448544  58.2740342 125.2281608  44.2168544
  58.7250342 122.9841608  45.3568544  55.2040342 120.7621608  41.9958544
  56.0970342 119.9251608  43.2428544  57.5900342 121.1251608  44.5938544
  85.9890342  95.3291608  30.1048544  85.5110342  95.2891608  28.8448544
  86.1820342  95.9911608  27.8388544  87.3330342  96.7181608  28.1598544
  87.7950342  96.7321608  29.4798544  87.0950342  96.0171608  30.4558544
  84.3490342  94.5441608  28.5688544  85.8200342  95.9761608  26.8198544
  87.8620342  97.2651608  27.3928544  88.6830342  97.2891608  29.7418544
  87.3750342  95.9691608  31.4988544  83.9820342  94.5081608  27.6288544
  83.8770342  94.0441608  29.3098544  85.4940342  94.8171608  30.8208544
 105.1590342  63.4161608 113.8948544 104.2130342  62.7381608 114.5758544
 104.1020342  62.9251608 115.9568544 104.9740342  63.8101608 116.6018544
 105.9410342  64.4921608 115.8568544 106.0180342  64.2761608 114.4778544
 103.3590342  61.8591608 113.8838544 103.3520342  62.3951608 116.5278544
 104.9000342  63.9651608 117.6688544 106.6200342  65.1781608 116.3418544
 106.7300342  64.7571608 113.8218544 102.6460342  61.3471608 114.3848544
 103.4540342  61.7361608 112.8858544 105.2270342  63.2701608 112.8968544
  91.2550342 129.2691608 102.4628544  92.0240342 130.3301608 102.7828544
  91.4270342 131.4581608 103.3538544  90.0460342 131.4631608 103.5798544
  89.2860342 130.3411608 103.2328544  89.9220342 129.2341608 102.6648544
  93.4090342 130.2791608 102.5368544  92.0200342 132.3221608 103.6198544
  89.5710342 132.3271608 104.0198544  88.2190342 130.3321608 103.4018544
  89.4190342 128.3261608 102.3648544  93.9950342 131.0681608 102.7718544
  93.8230342 129.4551608 102.1218544  91.7010342 128.4621608 102.0508544
  61.2870342 109.8921608  80.7308544  61.3500342 108.6861608  80.1298544
  60.4490342 107.6871608  80.5118544  59.5040342 107.9581608  81.5068544
  59.4750342 109.2231608  82.1048544  60.3920342 110.1941608  81.6938544
  62.3170342 108.4591608  79.1328544  60.4770342 106.7111608  80.0468544
  58.8020342 107.1961608  81.8128544  58.7500342 109.4461608  82.8748544
  60.4450342 111.1951608  82.0968544  62.3730342 107.5601608  78.6768544
  62.9600342 109.1941608  78.8708544  61.9440342 110.6041608  80.4448544
  59.1580342  57.1361608  71.3388544  57.9520342  56.9341608  71.9068544
  57.6280342  57.6201608  73.0808544  58.5600342  58.4991608  73.6408544
  59.8000342  58.6791608  73.0188544  60.0850342  57.9741608  71.8458544
  57.0460342  56.0381608  71.3068544  56.6680342  57.4761608  73.5568544
  58.3240342  59.0361608  74.5488544  60.5290342  59.3561608  73.4408544
  61.0120342  58.0481608  71.2968544  56.1400342  55.8801608  71.7238544
  57.2980342  55.5511608  70.4578544  59.3770342  56.6331608  70.4898544
  94.7290342  51.8521608 121.4018544  93.3840342  51.7451608 121.4038544
  92.6940342  51.7961608 120.1888544  93.4120342  51.9581608 118.9988544
  94.8060342  52.0651608 119.0418544  95.4570342  52.0091608 120.2778544
  92.7050342  51.5831608 122.6258544  91.6170342  51.7131608 120.1608544
  92.8930342  52.0001608 118.0518544  95.3730342  52.1911608 118.1308544
  96.5270342  52.0821608 120.4098544  91.6980342  51.5021608 122.6388544
  93.2200342  51.5491608 123.4948544  95.2130342  51.8131608 122.2878544
  30.0270342  72.0021608  44.4888544  29.7510342  73.3031608  44.7108544
  30.6170342  74.0581608  45.5088544  31.7500342  73.4481608  46.0588544
  31.9980342  72.0961608  45.8028544  31.1080342  71.3771608  44.9998544
  28.5990342  73.8731608  44.1358544  30.4190342  75.1031608  45.7028544
  32.4280342  74.0181608  46.6768544  32.8690342  71.6121608  46.2208544
  31.2170342  70.3321608  44.7488544  28.3830342  74.8471608  44.2958544
  27.9840342  73.3121608  43.5638544  29.3920342  71.4701608  43.9108544
 101.9260342 129.9811608  69.6098544 102.8000342 129.7551608  68.6078544
 102.4390342 130.0881608  67.2988544 101.1800342 130.6491608  67.0568544
 100.3040342 130.8671608  68.1258544 100.7050342 130.5191608  69.4188544
 104.0560342 129.1881608  68.8998544 103.1200342 129.9181608  66.4778544
 100.8860342 130.9131608  66.0518544  99.3290342 131.3001608  67.9528544
 100.0980342 130.6501608  70.3038544 104.7180342 129.0141608  68.1568544
 104.2990342 128.9521608  69.8518544 102.2020342 129.7351608  70.5498544
  36.0540342  64.2431608  51.1218544  36.5940342  65.2281608  50.3748544
  37.3610342  64.8921608  49.2558544  37.5530342  63.5431608  48.9348544
  36.9740342  62.5541608  49.7368544  36.2140342  62.9331608  50.8478544
  36.3740342  66.5711608  50.7368544  37.8060342  65.6611608  48.6398544
  38.1430342  63.2681608  48.0738544  37.1140342  61.5091608  49.5008544
  35.7300342  62.2421608  51.5228544  36.7740342  67.3161608  50.1838544
  35.8170342  66.7941608  51.5498544  35.5020342  64.5021608  51.9278544
 119.3270342  51.1521608 115.1198544 119.0120342  49.8951608 114.7468544
 117.8480342  49.6761608 114.0038544 117.0360342  50.7631608 113.6638544
 117.4000342  52.0511608 114.0718544 118.5720342  52.2271608 114.8128544
 119.8590342  48.8321608 115.1128544 117.5720342  48.6781608 113.6918544
 116.1340342  50.6101608 113.0898544 116.7830342  52.8991608 113.8158544
 118.9330342  53.1801608 115.1708544 119.6330342  47.8861608 114.8378544
 120.6960342  49.0091608 115.6508544 120.1710342  51.2941608 115.6568544
  70.4540342  31.1131608 119.8498544  71.7920342  31.0191608 119.7148544
  72.4750342  31.9991608 118.9878544  71.7550342  33.0551608 118.4168544
  70.3680342  33.1131608 118.5808544  69.7240342  32.1131608 119.3158544
  72.4740342  29.9391608 120.3078544  73.5470342  31.9491608 118.8638544
  72.2680342  33.8201608 117.8518544  69.8000342  33.9231608 118.1458544
  68.6590342  32.0751608 119.4958544  73.4760342  29.8591608 120.2128544
  71.9640342  29.2391608 120.8288544  69.9750342  30.3971608 120.3778544
 117.8690342  90.1031608  92.8798544 116.6840342  90.5341608  92.4008544
 116.6600342  91.3011608  91.2318544 117.8630342  91.6041608  90.5858544
 119.0690342  91.1371608  91.1168544 119.0500342  90.3731608  92.2878544
 115.4990342  90.2031608  93.0858544 115.7240342  91.6591608  90.8258544
 117.8600342  92.1961608  89.6818544 120.0060342  91.3641608  90.6278544
 119.9280342  89.9701608  92.7698544 114.6070342  90.5211608  92.7348544
 115.5370342  89.6491608  93.9298544 117.8700342  89.5491608  93.7248544
 103.8720342 127.7471608 107.8808544 104.7060342 128.2711608 106.9598544
 104.5520342 129.6091608 106.5848544 103.5380342 130.3741608 107.1708544
 102.6950342 129.7901608 108.1218544 102.8820342 128.4491608 108.4698544
 105.7110342 127.4631608 106.3968544 105.2060342 130.0551608 105.8488544
 103.4070342 131.4091608 106.8908544 101.9080342 130.3691608 108.5828544
 102.2830342 127.9141608 109.1918544 106.3410342 127.8461608 105.7058544
 105.8060342 126.4971608 106.6798544 103.9950342 126.7791608 108.1408544
 105.0230342 121.1761608  63.5688544 104.5890342 121.0041608  62.3038544
 105.3030342 120.1601608  61.4478544 106.4490342 119.5121608  61.9208544
 106.8640342 119.7191608  63.2408544 106.1220342 120.5711608  64.0638544
 103.4300342 121.6761608  61.8718544 104.9770342 120.0041608  60.4288544
 107.0110342 118.8571608  61.2708544 107.7470342 119.2261608  63.6188544
 106.3640342 120.7911608  65.0938544 103.0970342 121.5541608  60.9268544
 102.9280342 122.2831608  62.5048544 104.4970342 121.7891608  64.1758544
  44.6040342  60.7641608 108.6968544  44.3690342  60.3631608 107.4308544
  43.1770342  59.6931608 107.1368544  42.2540342  59.4541608 108.1608544
  42.5380342  59.8871608 109.4608544  43.7410342  60.5531608 109.7118544
  45.3270342  60.6261608 106.4328544  42.9640342  59.3611608 106.1308544
  41.3290342  58.9391608 107.9498544  41.8340342  59.7091608 110.2608544
  44.0450342  60.9231608 110.6798544  45.1610342  60.3301608 105.4818544
  46.1840342  61.1101608 106.6638544  45.4690342  61.2461608 108.8928544
  39.5340342 103.5371608  40.1818544  40.0380342 104.7841608  40.2808544
  39.2580342 105.8691608  39.8688544  37.9740342 105.6381608  39.3628544
  37.4910342 104.3291608  39.2778544  38.3020342 103.2721608  39.7008544
  41.3350342 104.9671608  40.7958544  39.6380342 106.8791608  39.9368544
  37.3600342 106.4671608  39.0408544  36.5010342 104.1361608  38.8898544
  38.0150342 102.2311608  39.6728544  41.7220342 105.8971608  40.8738544
  41.8850342 104.1701608  41.0878544  40.1090342 102.7631608  40.4838544
  99.3840342  71.6471608 115.8108544  99.9000342  70.4121608 115.6468544
 101.1820342  70.1381608 116.1328544 101.9010342  71.1491608 116.7778544
 101.3290342  72.4161608 116.9268544 100.0440342  72.6491608 116.4268544
  99.1380342  69.4261608 114.9908544 101.6190342  69.1561608 116.0148544
 102.8930342  70.9531608 117.1588544 101.8730342  73.2071608 117.4228544
  99.5220342  73.5921608 116.4948544  99.5150342  68.4971608 114.8628544
  98.2140342  69.6421608 114.6458544  98.4570342  71.8291608 115.4548544
  74.7210342 109.2101608  57.3798544  75.8340342 108.7011608  56.8148544
  76.2570342 109.1951608  55.5768544  75.5170342 110.2051608  54.9518544
  74.3680342 110.7041608  55.5738544  73.9800342 110.1831608  56.8118544
  76.5460342 107.6861608  57.4808544  77.1460342 108.8061608  55.1018544
  75.8320342 110.5971608  53.9958544  73.7880342 111.4841608  55.1028544
  73.1100342 110.5051608  57.3648544  77.3820342 107.2981608  57.0668544
  76.2250342 107.3411608  58.3748544  74.4280342 108.8431608  58.2748544
 107.7310342 114.6891608  99.7418544 107.9300342 113.3591608  99.8368544
 109.2370342 112.8611608  99.8018544 110.3070342 113.7521608  99.6698544
 110.0550342 115.1241608  99.5748544 108.7350342 115.5811608  99.6128544
 106.8220342 112.5011608  99.9678544 109.4250342 111.7991608  99.8768544
 111.3220342 113.3821608  99.6418544 110.8730342 115.8231608  99.4728544
 108.4440342 116.6191608  99.5468544 106.9600342 111.5031608 100.0398544
 105.8850342 112.8791608  99.9898544 106.7820342 115.0331608  99.7678544
  46.5960342  74.6411608 103.4498544  47.1010342  74.1941608 102.2818544
  47.6170342  72.8961608 102.2148544  47.5980342  72.0901608 103.3588544
  47.0640342  72.5941608 104.5488544  46.5590342  73.8971608 104.5738544
  47.0980342  75.0411608 101.1578544  48.0270342  72.5121608 101.2918544
  47.9920342  71.0851608 103.3218544  47.0440342  71.9831608 105.4398544
  46.1290342  74.3701608 105.4448544  47.4740342  74.7161608 100.2778544
  46.7220342  75.9771608 101.2258544  46.2270342  75.5811608 103.4828544
  28.0540342  83.7561608  51.6048544  26.7950342  84.2381608  51.5548544
  26.5830342  85.6091608  51.7358544  27.6780342  86.4491608  51.9648544
  28.9660342  85.9071608  52.0088544  29.1360342  84.5311608  51.8228544
  25.7250342  83.3551608  51.3228544  25.5840342  86.0221608  51.7008544
  27.5290342  87.5091608  52.1068544  29.8210342  86.5441608  52.1838544
  30.0900342  84.0251608  51.8398544  24.7780342  83.7051608  51.2828544
  25.8980342  82.3671608  51.1948544  28.1910342  82.7641608  51.4728544
  35.8980342  59.5731608 101.5848544  34.5580342  59.6341608 101.7318544
  33.7930342  60.2711608 100.7498544  34.4330342  60.8321608  99.6388544
  35.8240342  60.7461608  99.5268544  36.5520342  60.1011608 100.5308544
  33.9590342  59.0551608 102.8668544  32.7180342  60.3341608 100.8418544
  33.8550342  61.3271608  98.8718544  36.3310342  61.1751608  98.6738544
  37.6260342  59.9861608 100.5298544  32.9570342  59.0951608 102.9858544
  34.5280342  58.5991608 103.5658544  36.4360342  59.1101608 102.3028544
  92.7390342  43.2751608  41.6438544  91.8130342  42.8301608  42.5168544
  90.5730342  43.4731608  42.5818544  90.3200342  44.5621608  41.7418544
  91.3100342  44.9911608  40.8508544  92.5360342  44.3211608  40.8178544
  92.1120342  41.7291608  43.3428544  89.8120342  43.1371608  43.2728544
  89.3670342  45.0691608  41.7798544  91.1280342  45.8311608  40.1958544
  93.3570342  44.5791608  40.1648544  91.4250342  41.3881608  43.9998544
  93.0140342  41.2781608  43.2828544  93.6300342  42.8001608  41.6088544
  65.4500342  52.0271608  24.2098544  64.4080342  52.8581608  24.4138544
  63.5340342  52.6071608  25.4758544  63.7570342  51.5001608  26.3018544
  64.8500342  50.6631608  26.0528544  65.7010342  50.9501608  24.9818544
  64.2240342  53.9601608  23.5568544  62.6910342  53.2571608  25.6628544
  63.0900342  51.2921608  27.1258544  65.0350342  49.8051608  26.6828544
  66.5670342  50.3621608  24.7138544  63.4460342  54.5891608  23.7018544
  64.8650342  54.1251608  22.7948544  66.0730342  52.2221608  23.4388544
 115.8380342  45.0121608 111.1318544 116.3060342  44.6681608 109.9148544
 115.8450342  43.4931608 109.3128544 114.9090342  42.6991608 109.9868544
 114.4500342  43.0931608 111.2478544 114.9370342  44.2751608 111.8138544
 117.2460342  45.4981608 109.2758544 116.2030342  43.1941608 108.3378544
 114.5440342  41.7891608 109.5348544 113.7280342  42.4901608 111.7788544
 114.6410342  44.6581608 112.7798544 117.6030342  45.2501608 108.3638544
 117.5690342  46.3431608 109.7258544 116.1800342  45.8631608 111.5528544
 109.1560342 122.2281608  46.0508544 109.4740342 121.9221608  47.3248544
 109.9040342 120.6261608  47.6288544 109.9940342 119.6771608  46.6058544
 109.6540342 120.0361608  45.2968544 109.2300342 121.3421608  45.0358544
 109.3670342 122.9111608  48.3208544 110.1650342 120.3541608  48.6418544
 110.3240342 118.6711608  46.8248544 109.7200342 119.3131608  44.4978544
 108.9480342 121.7111608  44.0608544 109.6030342 122.6931608  49.2788544
 109.0540342 123.8421608  48.0828544 108.8480342 123.1681608  45.8478544
  39.3960342  38.6541608  78.1298544  39.3110342  37.3091608  78.1798544
  40.4710342  36.5611608  78.4068544  41.6920342  37.2231608  78.5768544
  41.7340342  38.6201608  78.5168544  40.5520342  39.3301608  78.2878544
  38.0600342  36.6881608  78.0038544  40.4310342  35.4821608  78.4528544
  42.5960342  36.6581608  78.7528544  42.6710342  39.1431608  78.6458544
  40.4880342  40.4071608  78.2258544  37.9860342  35.6811608  78.0398544
  37.2330342  37.2451608  77.8398544  38.5500342  39.1811608  77.9648544
 128.0960342  73.5481608  71.4488544 127.6580342  74.7301608  71.9288544
 127.2340342  75.7151608  71.0308544 127.2730342  75.4541608  69.6568544
 127.7340342  74.2141608  69.2028544 128.1490342  73.2561608  70.1338544
 127.6370342  74.9481608  73.3198544 126.8790342  76.6721608  71.3878544
 126.9490342  76.2051608  68.9518544 127.7700342  73.9991608  68.1448544
 128.5190342  72.2741608  69.8778544 127.3110342  75.8291608  73.6888544
 127.9480342  74.2241608  73.9528544 128.3980342  72.8471608  72.1098544
 104.2100342  34.2841608  86.0378544 103.4710342  33.2771608  85.5318544
 102.5110342  33.5601608  84.5548544 102.3380342  34.8801608  84.1248544
 103.1260342  35.8941608  84.6778544 104.0750342  35.5691608  85.6518544
 103.6800342  31.9641608  85.9948544 101.9040342  32.7711608  84.1318544
 101.6000342  35.1141608  83.3718544 103.0030342  36.9181608  84.3548544
 104.7270342  36.2831608  86.1328544 103.1320342  31.2021608  85.6218544
 104.3780342  31.7791608  86.7018544 104.9000342  34.0641608  86.7428544
  81.7530342  59.9051608 125.3618544  82.3510342  61.0661608 125.6978544
  81.5880342  62.2381608 125.7418544  80.2240342  62.1811608 125.4368544
  79.6440342  60.9551608 125.0938544  80.4420342  59.8071608 125.0618544
  83.7260342  61.0751608 125.9968544  82.0420342  63.1821608 126.0088544
  79.6220342  63.0771608 125.4668544  78.5920342  60.8961608 124.8558544
  80.0830342  58.8201608 124.8078544  84.1840342  61.9401608 126.2498544
  84.2610342  60.2191608 125.9588544  82.3170342  59.0681608 125.3348544
  86.5180342 119.5701608 111.2788544  86.1640342 119.1011608 112.4918544
  86.2700342 119.9411608 113.6048544  86.7400342 121.2471608 113.4358544
  87.0970342 121.6931608 112.1598544  86.9760342 120.8221608 111.0728544
  85.6950342 117.7791608 112.6138544  85.9930342 119.5911608 114.5898544
  86.8280342 121.9081608 114.2868544  87.4620342 122.7001608 112.0148544
  87.2260342 121.0761608 110.0528544  85.4270342 117.4181608 113.5178544
  85.6260342 117.1861608 111.7978544  86.4360342 118.9511608 110.4838544
 100.1130342  48.5781608 116.1698544  99.4450342  49.3441608 115.2838544
 100.1670342  50.1541608 114.4018544 101.5650342  50.1521608 114.4568544
 102.2180342  49.3411608 115.3918544 101.4590342  48.5461608 116.2548544
  98.0380342  49.3141608 115.2658544  99.6570342  50.7781608 113.6818544
 102.1370342  50.7721608 113.7818544 103.2970342  49.3301608 115.4448544
 101.8730342  47.8911608 117.0068544  97.5270342  49.8841608 114.6058544
  97.5320342  48.7231608 115.9118544  99.5770342  47.9981608 116.7998544
  42.7120342 110.7721608  59.5468544  43.2290342 111.9271608  60.0118544
  44.5060342 112.3191608  59.5968544  45.2180342 111.5051608  58.7088544
  44.6430342 110.3151608  58.2508544  43.3650342 109.9601608  58.6898544
  42.4760342 112.7131608  60.9048544  44.9450342 113.2401608  59.9538544
  46.2050342 111.7951608  58.3788544  45.1820342 109.6781608  57.5648544
  42.8420342 109.0631608  58.3918544  42.8540342 113.5801608  61.2588544
  41.5550342 112.4141608  61.1948544  41.7890342 110.5031608  59.8558544
  29.3190342  70.9561608  58.1318544  29.9770342  70.3701608  59.1528544
  30.4370342  71.1611608  60.2108544  30.2040342  72.5401608  60.1878544
  29.5180342  73.1071608  59.1088544  29.0750342  72.2811608  58.0708544
  30.1880342  68.9781608  59.1328544  30.9670342  70.7171608  61.0418544
  30.5530342  73.1641608  60.9978544  29.3320342  74.1701608  59.0778544
  28.5380342  72.6271608  57.1998544  30.6790342  68.5301608  59.8928544
  29.8490342  68.4231608  58.3588544  28.9940342  70.3711608  57.3748544
  37.7530342  74.0941608  66.0108544  39.0290342  74.5261608  65.9678544
  39.3070342  75.8611608  66.2768544  38.2570342  76.7191608  66.6228544
  36.9480342  76.2281608  66.6538544  36.7120342  74.8871608  66.3388544
  40.0530342  73.6271608  65.6148544  40.3220342  76.2351608  66.2508544
  38.4560342  77.7531608  66.8638544  36.1270342  76.8791608  66.9198544
  35.7380342  74.4201608  66.3358544  41.0130342  73.9411608  65.5808544
  39.8330342  72.6661608  65.3938544  37.5680342  73.1261608  65.7848544
  47.4720342  70.6751608  58.4668544  47.7090342  71.9611608  58.7968544
  48.8400342  72.2731608  59.5568544  49.7000342  71.2451608  59.9598544
  49.4160342  69.9251608  59.5958544  48.2750342  69.6561608  58.8348544
  46.8150342  72.9611608  58.3688544  49.0540342  73.2951608  59.8348544
  50.5780342  71.4711608  60.5478544  50.0720342  69.1221608  59.9008544
  47.9760342  68.6711608  58.5078544  46.9830342  73.9271608  58.6098544
  46.0020342  72.7161608  57.8198544  46.6510342  70.4651608  57.9168544
  95.0830342 101.9421608  21.5418544  93.9400342 102.0941608  22.2408544
  93.9730342 102.7771608  23.4608544  95.1890342 103.2891608  23.9278544
  96.3500342 103.1091608  23.1698544  96.2750342 102.4191608  21.9568544
  92.7410342 101.5621608  21.7308544  93.0720342 102.9131608  24.0418544
  95.2290342 103.8191608  24.8678544  97.2960342 103.4991608  23.5198544
  97.1160342 102.2321608  21.3058544  91.8790342 101.6701608  22.2468544
  92.7370342 101.0701608  20.8478544  95.0440342 101.4461608  20.6628544
  55.7470342 123.7231608  84.5298544  56.9310342 124.3631608  84.6158544
  57.9700342 123.7781608  85.3468544  57.7590342 122.5451608  85.9728544
  56.5150342 121.9161608  85.8578544  55.5030342 122.5341608  85.1168544
  57.0970342 125.6021608  83.9688544  58.9290342 124.2691608  85.4318544
  58.5520342 122.0811608  86.5418544  56.3390342 120.9641608  86.3358544
  54.5130342 122.1251608  84.9738544  57.9800342 126.0891608  84.0268544
  56.3350342 126.0091608  83.4448544  55.0070342 124.1581608  83.9978544
 115.5880342 100.9621608  53.2218544 116.4280342  99.9101608  53.1408544
 117.6580342 100.0681608  52.4928544 117.9900342 101.3121608  51.9448544
 117.0890342 102.3761608  52.0518544 115.8700342 102.1761608  52.7068544
 116.0510342  98.6781608  53.7068544 118.3500342  99.2421608  52.4138544
 118.9360342 101.4491608  51.4418544 117.3320342 103.3421608  51.6328544
 115.1140342 102.9371608  52.8388544 116.6730342  97.8841608  53.6518544
 115.1580342  98.5821608  54.1708544 114.7040342 100.8321608  53.6928544
 110.2800342  34.7561608  63.3668544 110.0910342  36.0901608  63.3108544
 109.1050342  36.6051608  62.4638544 108.3360342  35.7261608  61.6928544
 108.5660342  34.3491608  61.7808544 109.5620342  33.8761608  62.6408544
 110.8890342  36.9361608  64.1048544 108.9320342  37.6701608  62.3998544
 107.5710342  36.1081608  61.0338544 107.9800342  33.6591608  61.1918544
 109.8100342  32.8331608  62.7748544 110.7550342  37.9371608  64.0708544
 111.5980342  36.5461608  64.7108544 110.9970342  34.4001608  63.9828544
 129.3590342  49.1301608  94.8968544 129.2560342  49.6711608  96.1268544
 128.5820342  50.8871608  96.2828544 128.0310342  51.5141608  95.1598544
 128.1620342  50.9171608  93.9018544 128.8430342  49.7021608  93.7898544
 129.8260342  49.0031608  97.2268544 128.4840342  51.3431608  97.2578544
 127.5080342  52.4531608  95.2648544 127.7410342  51.3911608  93.0268544
 128.9930342  49.1681608  92.8628544 129.7550342  49.4001608  98.1538544
 130.3100342  48.1261608  97.0958544 129.8490342  48.2511608  94.7998544
 109.4530342  48.1161608 121.6648544 109.7910342  49.0361608 122.5918544
 111.0210342  48.9221608 123.2468544 111.8730342  47.8591608 122.9288544
 111.4830342  46.9281608 121.9608544 110.2450342  47.0771608 121.3288544
 108.9020342  50.0881608 122.8788544 111.3180342  49.6451608 123.9938544
 112.8270342  47.7581608 123.4268544 112.1310342  46.1021608 121.7058544
 109.8600342  46.4091608 120.5718544 109.1450342  50.7821608 123.5708544
 108.0170342  50.1531608 122.3958544 108.5610342  48.2111608 121.1998544
  49.5250342  99.8651608  60.1818544  48.2300342 100.1641608  60.4138544
  47.2700342  99.1511608  60.3258544  47.6730342  97.8511608  59.9988544
  49.0260342  97.5851608  59.7658544  49.9540342  98.6271608  59.8638544
  47.8730342 101.4861608  60.7388544  46.2260342  99.3631608  60.5068544
  46.9430342  97.0581608  59.9278544  49.3500342  96.5861608  59.5128544
  51.0160342  98.5171608  59.7018544  46.9060342 101.7211608  60.9148544
  48.5800342 102.2051608  60.7968544  50.2060342 100.6081608  60.2488544
  53.8950342  82.1181608  36.6258544  53.6780342  80.9451608  35.9968544
  52.3700342  80.5911608  35.6488544  51.3180342  81.4581608  35.9608544
  51.5890342  82.6651608  36.6138544  52.9100342  82.9821608  36.9438544
  54.7680342  80.1051608  35.7038544  52.1680342  79.6561608  35.1438544
  50.3030342  81.1981608  35.6988544  50.7850342  83.3441608  36.8608544
  53.2140342  83.8881608  37.4468544  54.6160342  79.2241608  35.2328544
  55.7060342  80.3781608  35.9628544  54.8450342  82.3611608  36.8698544
 122.3830342  98.2401608  38.2728544 121.8120342  98.5011608  39.4658544
 122.6290342  98.7291608  40.5778544 124.0190342  98.6811608  40.4288544
 124.5690342  98.4061608  39.1728544 123.7170342  98.1841608  38.0868544
 120.4080342  98.5401608  39.5678544 122.1980342  98.9411608  41.5458544
 124.6640342  98.8551608  41.2778544 125.6410342  98.3651608  39.0428544
 124.0500342  97.9651608  37.0828544 119.9700342  98.7351608  40.4578544
 119.8330342  98.3721608  38.7538544 121.7790342  98.0771608  37.4798544
  50.2450342  47.8391608  90.2608544  49.7380342  46.6041608  90.0678544
  50.6110342  45.5381608  89.8278544  51.9890342  45.7751608  89.7928544
  52.4730342  47.0711608  89.9978544  51.5670342  48.1091608  90.2348544
  48.3440342  46.4141608  90.1128544  50.2310342  44.5381608  89.6708544
  52.6760342  44.9611608  89.6078544  53.5350342  47.2681608  89.9728544
  51.8460342  49.1391608  90.4038544  47.9540342  45.4931608  89.9698544
  47.7290342  47.1971608  90.2868544  49.6020342  48.5981608  90.4328544
 118.7720342  96.3951608  35.2458544 118.7530342  96.0361608  33.9458544
 117.9080342  95.0001608  33.5378544 117.1000342  94.3591608  34.4838544
 117.1510342  94.7631608  35.8218544 118.0100342  95.8031608  36.1888544
 119.5830342  96.7091608  33.0298544 117.8730342  94.6911608  32.5018544
 116.4420342  93.5571608  34.1828544 116.5330342  94.2771608  36.5628544
 118.1170342  96.1831608  37.1948544 119.5770342  96.4481608  32.0548544
 120.1890342  97.4551608  33.3438544 119.3880342  97.1451608  35.5258544
 129.6410342  73.6701608  94.0728544 130.7060342  74.2151608  93.4508544
 131.5440342  75.0791608  94.1628544 131.2590342  75.3601608  95.5038544
 130.1440342  74.7731608  96.1098544 129.3320342  73.9141608  95.3628544
 130.9530342  73.9031608  92.0998544 132.4040342  75.5301608  93.6888544
 131.8970342  76.0251608  96.0668544 129.9130342  74.9811608  97.1448544
 128.4530342  73.4171608  95.7448544 131.7480342  74.3061608  91.6248544
 130.3360342  73.2781608  91.6008544 129.0460342  73.0481608  93.5448544
  47.7400342 104.9081608  40.3928544  48.5790342 104.3651608  41.2988544
  48.3610342 104.6041608  42.6598544  47.2790342 105.4011608  43.0508544
  46.4340342 105.9441608  42.0778544  46.6870342 105.6801608  40.7288544
  49.6540342 103.5701608  40.8578544  49.0170342 104.1811608  43.4068544
  47.0980342 105.5951608  44.0978544  45.5950342 106.5611608  42.3668544
  46.0910342 106.0561608  39.9098544  50.2880342 103.1581608  41.5278544
  49.7960342 103.4081608  39.8708544  47.9110342 104.7251608  39.4148544
  71.6070342  41.4581608 100.0198544  70.8680342  40.3451608  99.8378544
  69.4780342  40.4211608  99.9648544  68.8840342  41.6491608 100.2768544
  69.6880342  42.7791608 100.4578544  71.0740342  42.6591608 100.3218544
  71.5100342  39.1311608  99.5248544  68.8610342  39.5441608  99.8238544
  67.8110342  41.7241608 100.3778544  69.2430342  43.7331608 100.6988544
  71.7740342  43.4741608 100.4428544  70.9660342  38.2921608  99.3868544
  72.5160342  39.0951608  99.4388544  72.6100342  41.3861608  99.9258544
 127.7550342  84.3401608  84.6968544 127.3990342  83.0701608  84.4168544
 127.1770342  82.7021608  83.0858544 127.3270342  83.6581608  82.0758544
 127.6970342  84.9641608  82.4108544 127.9100342  85.2911608  83.7538544
 127.2600342  82.1431608  85.4668544 126.8910342  81.6911608  82.8328544
 127.1590342  83.3891608  81.0428544 127.8170342  85.7131608  81.6408544
 128.1970342  86.2711608  84.1068544 126.9940342  81.1891608  85.2678544
 127.4240342  82.4271608  86.4228544 127.9120342  84.5911608  85.6628544
  54.7870342 110.4011608 104.8648544  53.4690342 110.1271608 104.7888544
  52.5470342 111.1731608 104.8978544  53.0120342 112.4801608 105.0818544
  54.3880342 112.7201608 105.1548544  55.2750342 111.6461608 105.0408544
  53.0490342 108.7961608 104.6038544  51.4850342 110.9811608 104.8418544
  52.3120342 113.2981608 105.1678544  54.7600342 113.7241608 105.2968544
  56.3510342 111.7341608 105.0848544  52.0640342 108.5801608 104.5458544
  53.7290342 108.0531608 104.5278544  55.4400342 109.6351608 104.7838544
 113.0620342  47.8451608  70.6458544 111.7490342  48.1191608  70.5068544
 111.3630342  49.2801608  69.8308544 112.3450342  50.1321608  69.3138544
 113.6960342  49.8101608  69.4808544 114.0390342  48.6391608  70.1628544
 110.7960342  47.2321608  71.0428544 110.3170342  49.5241608  69.7048544
 112.0620342  51.0331608  68.7898544 114.4650342  50.4581608  69.0868544
 115.0520342  48.3081608  70.3398544 109.8100342  47.4281608  70.9438544
 111.0940342  46.3981608  71.5288544 113.3250342  47.0021608  71.1358544
  40.3950342  46.6221608  88.2018544  39.1820342  46.9791608  88.6698544
  38.0650342  46.2131608  88.3208544  38.2300342  45.0951608  87.4948544
  39.5070342  44.7621608  87.0318544  40.5970342  45.5531608  87.4038544
  39.0650342  48.1111608  89.4978544  37.0800342  46.4761608  88.6818544
  37.3760342  44.4941608  87.2168544  39.6480342  43.9011608  86.3938544
  41.6170342  45.3741608  87.0968544  38.1600342  48.3871608  89.8528544
  39.8830342  48.6531608  89.7378544  41.1920342  47.1851608  88.4628544
  82.6800342  66.2001608 121.2278544  83.7690342  65.4831608 121.5728544
  85.0390342  65.9921608 121.2838544  85.1530342  67.2311608 120.6448544
  83.9970342  67.9411608 120.3048544  82.7460342  67.3971608 120.6108544
  83.6050342  64.2411608 122.2148544  85.9290342  65.4381608 121.5498544
  86.1270342  67.6371608 120.4148544  84.0700342  68.8991608 119.8098544
  81.8010342  67.8711608 120.3868544  84.4140342  63.6971608 122.4778544
  82.6790342  63.8891608 122.4148544  81.7690342  65.8191608 121.4428544
 115.6390342 115.9261608 103.9878544 116.5800342 116.0771608 104.9408544
 117.1880342 114.9411608 105.4858544 116.8060342 113.6741608 105.0298544
 115.8250342 113.5631608 104.0398544 115.2430342 114.7241608 103.5218544
 116.9320342 117.3711608 105.3678544 117.9460342 115.0331608 106.2508544
 117.2670342 112.7871608 105.4408544 115.5210342 112.5911608 103.6788544
 114.4800342 114.7371608 102.7568544 117.6360342 117.4961608 106.0818544
 116.4810342 118.1811608 104.9638544 115.2090342 116.7561608 103.6048544
  35.0820342  75.9951608 121.3798544  34.8320342  74.7781608 121.9058544
  34.0920342  74.6861608 123.0878544  33.6270342  75.8551608 123.6998544
  33.9090342  77.0971608 123.1198544  34.6530342  77.1451608 121.9368544
  35.3210342  73.6291608 121.2548544  33.8770342  73.7241608 123.5318544
  33.0530342  75.8001608 124.6128544  33.5560342  78.0081608 123.5808544
  34.9190342  78.0541608 121.4178544  35.1390342  72.7131608 121.6408544
  35.8550342  73.7161608 120.4018544  35.6190342  76.0451608 120.5248544
  47.8170342 106.5691608  33.7608544  48.9330342 107.2861608  34.0048544
  49.8680342 106.8001608  34.9228544  49.6270342 105.5821608  35.5688544
  48.4560342 104.8711608  35.2858544  47.5470342 105.3921608  34.3608544
  49.1320342 108.5061608  33.3308544  50.7710342 107.3541608  35.1368544
  50.3400342 105.1941608  36.2808544  48.2570342 103.9301608  35.7778544
  46.6190342 104.9151608  34.0798544  49.9650342 109.0511608  33.5058544
  48.4450342 108.8421608  32.6708544  47.1500342 106.9331608  33.0948544
 114.8270342  31.9281608  60.8968544 115.4840342  30.7511608  60.8988544
 115.2230342  29.8231608  59.8848544 114.2870342  30.1361608  58.8938544
 113.6280342  31.3691608  58.9308544 113.9180342  32.2681608  59.9608544
 116.4180342  30.4801608  61.9168544 115.7350342  28.8711608  59.8618544
 114.0740342  29.4301608  58.1038544 112.9030342  31.6241608  58.1708544
 113.4610342  33.2411608  60.0708544 116.9150342  29.6011608  61.9268544
 116.5930342  31.1621608  62.6418544 115.0270342  32.5881608  61.6358544
  92.3630342 119.7571608  56.2798544  93.5360342 119.1621608  55.9818544
  94.4590342 119.8391608  55.1788544  94.1470342 121.1171608  54.7028544
  92.9190342 121.6971608  55.0368544  92.0240342 120.9861608  55.8418544
  93.8060342 117.8751608  56.4838544  95.4070342 119.3861608  54.9248544
  94.8500342 121.6531608  54.0818544  92.6650342 122.6831608  54.6758544
  91.0550342 121.3511608  56.1508544  94.6820342 117.4201608  56.2668544
  93.1270342 117.4001608  57.0618544  91.7070342 119.2551608  56.8608544
  98.4840342  69.9271608  37.9208544  99.6260342  70.5021608  38.3508544
  99.6330342  71.1701608  39.5788544  98.4570342  71.2281608  40.3348544
  97.2950342  70.6191608  39.8508544  97.3300342  69.9611608  38.6178544
 100.7850342  70.4171608  37.5558544 100.5340342  71.6391608  39.9478544
  98.4460342  71.7411608  41.2858544  96.3790342  70.6561608  40.4238544
  96.4850342  69.4621608  38.1658544 101.6460342  70.8441608  37.8688544
 100.7610342  69.9311608  36.6708544  98.4960342  69.4481608  37.0318544
  55.0480342  60.8811608  50.0008544  55.8250342  59.8341608  49.6588544
  55.2250342  58.6731608  49.1598544  53.8330342  58.6241608  49.0278544
  53.0650342  59.7331608  49.3948544  53.7040342  60.8741608  49.8888544
  57.2220342  59.9301608  49.8088544  55.8250342  57.8191608  48.8778544
  53.3550342  57.7341608  48.6438544  51.9890342  59.7081608  49.2978544
  53.1950342  61.7761608  50.1968544  57.8130342  59.1521608  49.5558544
  57.6380342  60.7771608  50.1718544  55.4960342  61.7121608  50.3598544
  27.9570342  96.7341608  73.5588544  28.3060342  95.9141608  72.5468544
  27.5480342  95.9201608  71.3718544  26.4450342  96.7751608  71.2708544
  26.1180342  97.6091608  72.3448544  26.9020342  97.5731608  73.5018544
  29.4240342  95.0711608  72.6938544  27.8060342  95.2721608  70.5448544
  25.8500342  96.7901608  70.3698544  25.2690342  98.2741608  72.2798544
  26.7270342  98.1791608  74.3788544  29.6940342  94.4531608  71.9418544
  29.9600342  95.0801608  73.5508544  28.5140342  96.7191608  74.4008544
 134.6330342  81.4931608 102.4698544 133.9600342  81.1451608 101.3548544
 132.6520342  81.6061608 101.1748544 132.0700342  82.4171608 102.1548544
 132.8040342  82.7541608 103.2968544 134.1080342  82.2731608 103.4378544
 134.5870342  80.3261608 100.3958544 132.0900342  81.3421608 100.2898544
 131.0610342  82.7811608 102.0298544 132.3660342  83.3801608 104.0608544
 134.7490342  82.4801608 104.2828544 134.0920342  80.0601608  99.5568544
 135.5330342  80.0021608 100.5428544 135.5760342  81.1521608 102.5858544
 130.1540342  76.1871608  47.6838544 128.8770342  75.7651608  47.5908544
 128.6170342  74.3941608  47.5028544 129.6850342  73.4911608  47.5128544
 130.9950342  73.9721608  47.6108544 131.2120342  75.3501608  47.6968544
 127.8340342  76.7111608  47.5848544 127.6020342  74.0281608  47.4268544
 129.5000342  72.4291608  47.4448544 131.8290342  73.2861608  47.6198544
 132.1850342  75.8131608  47.7758544 126.8740342  76.4051608  47.5158544
 128.0410342  77.6981608  47.6488544 130.3260342  77.1801608  47.7478544
 123.7780342  98.3221608 106.3458544 122.6430342  97.7601608 106.8088544
 121.4110342  98.3041608 106.4338544 121.3820342  99.4181608 105.5878544
 122.5830342  99.9691608 105.1308544 123.7940342  99.3951608 105.5298544
 122.7220342  96.6401608 107.6588544 120.4860342  97.8741608 106.7908544
 120.4370342  99.8501608 105.2898544 122.5750342 100.8301608 104.4768544
 124.7680342  99.7511608 105.2278544 121.8780342  96.2121608 108.0108544
 123.6220342  96.2611608 107.9198544 124.6610342  97.9181608 106.6258544
  88.7630342  44.5321608  36.9078544  90.0930342  44.4761608  37.1218544
  90.7720342  43.2771608  36.8818544  90.0580342  42.1641608  36.4248544
  88.6790342  42.2661608  36.2158544  88.0380342  43.4831608  36.4688544
  90.7690342  45.6221608  37.5818544  91.8380342  43.2041608  37.0448544
  90.5690342  41.2311608  36.2348544  88.1150342  41.4151608  35.8638544
  86.9800342  43.6561608  36.3368544  91.7650342  45.5901608  37.7458544
  90.2610342  46.4791608  37.7508544  88.2860342  45.4051608  37.0858544
 103.0020342  67.8021608 107.9058544 103.1870342  69.0271608 107.3738544
 104.4870342  69.4571608 107.0878544 105.5650342  68.6081608 107.3588544
 105.3280342  67.3451608 107.9118544 104.0130342  66.9541608 108.1818544
 102.0710342  69.8471608 107.1178544 104.6640342  70.4341608 106.6608544
 106.5750342  68.9261608 107.1438544 106.1510342  66.6791608 108.1258544
 103.7330342  66.0011608 108.6068544 102.1990342  70.7661608 106.7188544
 101.1390342  69.5201608 107.3318544 102.0570342  67.5061608 108.1068544
 113.9170342 113.9751608  71.9828544 114.0050342 112.8081608  72.6528544
 114.9440342 111.8561608  72.2428544 115.7700342 112.1341608  71.1478544
 115.6450342 113.3571608  70.4818544 114.6940342 114.2821608  70.9238544
 113.1530342 112.5731608  73.7478544 115.0360342 110.9121608  72.7618544
 116.4990342 111.4081608  70.8198544 116.2760342 113.5851608  69.6348544
 114.5260342 115.2491608  70.4728544 113.2110342 111.7021608  74.2568544
 112.4800342 113.2731608  74.0288544 113.2340342 114.6531608  72.2908544
  64.2730342  35.9381608 116.6088544  63.6150342  34.9101608 116.0358544
  62.4970342  34.3721608 116.6808544  62.0870342  34.9111608 117.9058544
  62.7990342  35.9771608 118.4638544  63.9110342  36.4861608 117.7868544
  64.0650342  34.4011608 114.8028544  61.9510342  33.5481608 116.2448544
  61.2250342  34.5061608 118.4158544  62.4930342  36.4031608 119.4088544
  64.5200342  37.3051608 118.1388544  63.5790342  33.6311608 114.3648544
  64.8750342  34.8021608 114.3518544  65.0790342  36.3161608 116.1298544
 130.9430342  48.8821608  76.4738544 131.9670342  49.3271608  75.7178544
 131.7660342  50.4241608  74.8748544 130.5090342  51.0371608  74.8348544
 129.4740342  50.5441608  75.6358544 129.7170342  49.4441608  76.4648544
 133.2140342  48.6781608  75.7918544 132.5700342  50.8011608  74.2578544
 130.3390342  51.8861608  74.1888544 128.4990342  51.0081608  75.6148544
 128.9810342  48.9951608  77.1158544 133.9880342  49.0031608  75.2298544
 133.3400342  47.8851608  76.4058544 131.1030342  48.0881608  77.0778544
  55.2520342 127.2411608 100.3318544  56.5430342 126.9001608 100.5198544
  57.3820342 127.7691608 101.2258544  56.8640342 128.9711608 101.7208544
  55.5180342 129.2841608 101.5038544  54.7140342 128.3891608 100.7928544
  57.0190342 125.6801608 100.0028544  58.4210342 127.5211608 101.3908544
  57.4990342 129.6521608 102.2678544  55.1060342 130.2091608 101.8808544
  53.6670342 128.5451608 100.5768544  57.9850342 125.4161608 100.1378544
  56.3990342 125.0661608  99.4948544  54.6590342 126.6031608  99.8208544
  58.9280342  38.0341608  46.0058544  59.3160342  36.7531608  45.8438544
  58.3730342  35.7311608  45.9988544  57.0520342  36.0601608  46.3178544
  56.6930342  37.4021608  46.4778544  57.6650342  38.3931608  46.3138544
  60.6570342  36.4711608  45.5228544  58.6570342  34.6951608  45.8738544
  56.3130342  35.2811608  46.4408544  55.6760342  37.6701608  46.7238544
  57.4820342  39.4531608  46.4168544  60.9570342  35.5141608  45.3988544
  61.3240342  37.2221608  45.4158544  59.6200342  38.7611608  45.8908544
 106.3670342  61.6741608  39.1098544 105.8790342  60.4171608  39.1338544
 106.7660342  59.3441608  39.2668544 108.1380342  59.5981608  39.3728544
 108.6010342  60.9171608  39.3438544 107.6810342  61.9611608  39.2088544
 104.4910342  60.2111608  39.0238544 106.4030342  58.3271608  39.2888544
 108.8360342  58.7791608  39.4768544 109.6580342  61.1271608  39.4238544
 107.9440342  63.0091608  39.1758544 104.1160342  59.2731608  39.0408544
 103.8650342  60.9991608  38.9268544 105.7130342  62.4391608  39.0128544
  93.4390342  63.0141608  38.5938544  94.5290342  63.2271608  39.3598544
  95.0330342  62.1761608  40.1338544  94.3980342  60.9301608  40.0968544
  93.2710342  60.7541608  39.2868544  92.7990342  61.8291608  38.5288544
  95.1340342  64.4971608  39.3658544  95.9040342  62.3191608  40.7578544
  94.7760342  60.1101608  40.6888544  92.7710342  59.7971608  39.2488544
  91.9380342  61.7881608  37.8778544  95.9500342  64.6671608  39.9368544
  94.7550342  65.2451608  38.8008544  93.0870342  63.7831608  38.0408544
  38.2700342  47.3801608  52.4928544  38.8770342  46.5191608  53.3348544
  38.2740342  46.2261608  54.5618544  37.0570342  46.8331608  54.8908544
  36.4620342  47.7201608  53.9878544  37.0970342  47.9851608  52.7708544
  40.1010342  45.9331608  52.9608544  38.7390342  45.5401608  55.2558544
  36.5790342  46.6171608  55.8348544  35.5220342  48.1951608  54.2278544
  36.7140342  48.6541608  52.0138544  40.5640342  45.2871608  53.5838544
  40.5220342  46.1571608  52.0698544  38.7170342  47.5811608  51.6098544
  92.2490342  79.3711608 130.6908544  91.0190342  79.4151608 131.2398544
  90.3830342  80.6521608 131.3898544  91.0360342  81.8141608 130.9668544
  92.3120342  81.7231608 130.4018544  92.9130342  80.4671608 130.2708544
  90.4010342  78.2191608 131.6508544  89.3960342  80.7161608 131.8268544
  90.5580342  82.7771608 131.0758544  92.8280342  82.6131608 130.0708544
  93.8930342  80.2991608 129.8478544  89.4790342  78.2411608 132.0638544
  90.8760342  77.3341608 131.5358544  92.6960342  78.4701608 130.5898544
  49.7580342 110.1491608  98.5608544  49.8070342 109.3791608  97.4538544
  50.9060342 109.4861608  96.5968544  51.9310342 110.3891608  96.9038544
  51.8400342 111.1681608  98.0618544  50.7240342 111.0301608  98.8928544
  48.7530342 108.4861608  97.1858544  50.9710342 108.8811608  95.7028544
  52.7860342 110.4831608  96.2508544  52.6240342 111.8681608  98.3108544
  50.5670342 111.5871608  99.8048544  48.7790342 107.9051608  96.3598544
  47.9660342 108.4231608  97.8168544  48.9580342 110.0601608  99.1698544
  36.2750342  80.2811608  60.7078544  35.7200342  79.9201608  61.8818544
  36.5100342  79.2781608  62.8408544  37.8580342  79.0241608  62.5608544
  38.3930342  79.4161608  61.3298544  37.5690342  80.0551608  60.3988544
  34.3600342  80.1961608  62.1188544  36.0910342  78.9771608  63.7908544
  38.4800342  78.5291608  63.2918544  39.4320342  79.2261608  61.1008544
  37.8930342  80.3931608  59.4248544  33.9340342  79.9291608  62.9948544
  33.8040342  80.6601608  61.4138544  35.6920342  80.7441608  60.0248544
 117.4890342 103.5401608  43.6058544 117.2060342 102.2631608  43.2758544
 115.8710342 101.8521608  43.2258544 114.8580342 102.7721608  43.5198544
 115.1960342 104.0861608  43.8578544 116.5440342 104.4571608  43.8968544
 118.2580342 101.3741608  42.9878544 115.6150342 100.8351608  42.9638544
 113.8220342 102.4691608  43.4858544 114.4250342 104.8071608  44.0878544
 116.9000342 105.4461608  44.1468544 118.0570342 100.4151608  42.7388544
 119.2180342 101.6891608  43.0298544 118.4590342 103.8221608  43.6378544
 103.6210342  66.2341608  72.6458544 103.0340342  65.0851608  73.0388544
 102.7390342  64.1081608  72.0828544 103.0590342  64.3421608  70.7408544
 103.6670342  65.5481608  70.3768544 103.9450342  66.4981608  71.3638544
 102.7300342  64.8941608  74.3998544 102.2690342  63.1781608  72.3708544
 102.8370342  63.5971608  69.9908544 103.9200342  65.7421608  69.3448544
 104.4110342  67.4551608  71.1778544 102.2900342  64.0371608  74.7048544
 102.9500342  65.6111608  75.0768544 103.8270342  66.9301608  73.3478544
 114.0530342  76.6511608 123.6128544 112.7940342  77.0781608 123.3838544
 111.8170342  76.1511608 123.0088544 112.1660342  74.8021608 122.8788544
 113.4830342  74.4021608 123.1268544 114.4290342  75.3611608 123.4998544
 112.4900342  78.4451608 123.5268544 110.8010342  76.4651608 122.8188544
 111.4220342  74.0731608 122.5898544 113.7660342  73.3641608 123.0308544
 115.4670342  75.1471608 123.7108544 111.5510342  78.7761608 123.3568544
 113.2100342  79.1011608 123.7978544 114.7470342  77.3331608 123.8838544
  28.1810342  49.7661608  67.6138544  27.7930342  50.9411608  68.1518544
  26.4380342  51.2841608  68.1338544  25.5150342  50.4031608  67.5588544
  25.9610342  49.1961608  67.0128544  27.3240342  48.8901608  67.0508544
  28.7580342  51.7941608  68.7188544  26.0990342  52.2191608  68.5578544
  24.4640342  50.6551608  67.5378544  25.2590342  48.5071608  66.5658544
  27.7600342  47.9841608  66.6558544  28.4780342  52.6761608  69.1248544
  29.7340342  51.5301608  68.7218544  29.1640342  49.5331608  67.6348544
  43.2010342  44.7741608 101.7778544  43.9820342  45.2481608 100.7858544
  44.9180342  44.3971608 100.1888544  45.0230342  43.0741608 100.6328544
  44.1930342  42.6241608 101.6648544  43.2710342  43.5071608 102.2348544
  43.8400342  46.5861608 100.3728544  45.5570342  44.7501608  99.3918544
  45.7410342  42.4051608 100.1818544  44.2640342  41.6051608 102.0168544
  42.5910342  43.2501608 103.0328544  44.4210342  46.9511608  99.6308544
  43.1590342  47.1871608 100.8158544  42.5300342  45.4011608 102.1988544
 106.4370342  72.6981608 131.3208544 105.9000342  71.4661608 131.2028544
 104.5120342  71.3341608 131.1008544 103.7110342  72.4811608 131.1218544
 104.3090342  73.7391608 131.2448544 105.7000342  73.8271608 131.3448544
 106.7470342  70.3411608 131.1868544 104.0550342  70.3591608 131.0058544
 102.6370342  72.3951608 131.0438544 103.7020342  74.6331608 131.2628544
 106.2500342  74.7521608 131.4428544 106.3550342  69.4141608 131.0988544
 107.7480342  70.4561608 131.2628544 107.4410342  72.7771608 131.3938544
  48.0160342 100.2991608  67.4028544  47.4110342  99.1841608  66.9438544
  48.1810342  98.0451608  66.6928544  49.5610342  98.0841608  66.9218544
  50.1470342  99.2611608  67.3978544  49.3420342 100.3791608  67.6358544
  46.0200342  99.1911608  66.7288544  47.7210342  97.1381608  66.3248544
  50.1680342  97.2121608  66.7318544  51.2120342  99.3061608  67.5788544
  49.7050342 101.3281608  68.0028544  45.5560342  98.3621608  66.3848544
  45.4800342 100.0251608  66.9148544  47.4460342 101.1141608  67.5798544
  46.5750342  95.4981608  80.9068544  47.3890342  94.4271608  81.0048544
  46.9400342  93.2901608  81.6828544  45.6590342  93.2871608  82.2448544
  44.8480342  94.4201608  82.1198544  45.3340342  95.5361608  81.4328544
  48.6700342  94.4761608  80.4228544  47.5720342  92.4181608  81.7768544
  45.2980342  92.4161608  82.7718544  43.8560342  94.4311608  82.5488544
  44.7820342  96.4531608  81.2868544  49.2870342  93.6791608  80.4908544
  48.9770342  95.3071608  79.9368544  46.9140342  96.3121608  80.4128544
  23.6030342  52.1621608  83.6678544  24.8750342  51.7331608  83.7988544
  25.9230342  52.5951608  83.4608544  25.6300342  53.8811608  82.9938544
  24.2960342  54.2851608  82.8738544  23.2780342  53.3931608  83.2228544
  25.1200342  50.4311608  84.2718544  26.9510342  52.2771608  83.5558544
  26.4290342  54.5581608  82.7288544  24.0560342  55.2751608  82.5148544
  22.2220342  53.6151608  83.1638544  26.0700342  50.1001608  84.3738544
  24.3500342  49.8221608  84.5108544  22.8570342  51.5281608  83.9168544
  63.3690342  37.1071608  50.6278544  63.7950342  38.2731608  51.1558544
  64.5990342  38.2501608  52.2998544  64.9440342  37.0201608  52.8718544
  64.4800342  35.8351608  52.2908544  63.6790342  35.9021608  51.1478544
  63.4230342  39.4861608  50.5458544  64.9550342  39.1691608  52.7438544
  65.5640342  36.9861608  53.7548544  64.7390342  34.8791608  52.7228544
  63.2750342  35.0431608  50.6318544  63.7370342  40.3641608  50.9328544
  62.8410342  39.4831608  49.7198544  62.7890342  37.1401608  49.8018544
  56.2710342  94.2721608 117.3438544  56.6940342  95.1441608 118.2808544
  56.6030342  96.5161608 118.0258544  56.0770342  96.9531608 116.8048544
  55.6510342  96.0141608 115.8608544  55.7590342  94.6511608 116.1548544
  57.2150342  94.6571608 119.4948544  56.9340342  97.2371608 118.7588544
  56.0010342  98.0101608 116.5928544  55.2430342  96.3381608 114.9138544
  55.4570342  93.8561608 115.4898544  57.5340342  95.3031608 120.2038544
  57.2740342  93.6621608 119.6608544  56.3430342  93.2841608 117.5428544
 123.3290342  33.9271608  91.5368544 122.3650342  34.2471608  92.4238544
 121.8000342  35.5261608  92.3848544 122.2460342  36.4441608  91.4278544
 123.2480342  36.0701608  90.5268544 123.7870342  34.7821608  90.5988544
 121.9490342  33.2901608  93.3678544 121.0250342  35.8091608  93.0838544
 121.8180342  37.4351608  91.3848544 123.6010342  36.7691608  89.7828544
 124.5610342  34.4051608  89.9478544 121.2270342  33.5201608  94.0368544
 122.3690342  32.3711608  93.3818544 123.7280342  33.0001608  91.5778544
 112.9680342 104.7021608  37.0718544 112.3210342 105.8721608  37.2458544
 110.9450342 105.8591608  37.4948544 110.2700342 104.6351608  37.5578544
 110.9810342 103.4451608  37.3708544 112.3560342 103.5011608  37.1248544
 113.0410342 107.0791608  37.1738544 110.4010342 106.7821608  37.6388544
 109.2080342 104.6091608  37.7498544 110.4730342 102.4921608  37.4168544
 112.9860342 102.6381608  36.9678544 112.5660342 107.9611608  37.3028544
 114.0350342 107.0691608  36.9918544 113.9620342 104.7281608  36.8928544
 108.8720342  33.2581608 104.5248544 108.9420342  33.6641608 103.2408544
 109.5440342  32.8301608 102.2938544 110.0590342  31.5931608 102.6978544
 109.9650342  31.2111608 104.0398544 109.3560342  32.0751608 104.9548544
 108.4100342  34.9171608 102.8808544 109.6140342  33.1301608 101.2578544
 110.5270342  30.9381608 101.9778544 110.3590342  30.2591608 104.3648544
 109.2380342  31.8661608 106.0078544 108.4570342  35.2311608 101.9218544
 107.9800342  35.5071608 103.5798544 108.4350342  33.8721608 105.1968544
  24.5110342  78.9361608  67.6158544  23.5150342  78.2951608  66.9718544
  23.8190342  77.1791608  66.1848544  25.1470342  76.7541608  66.0828544
  26.1500342  77.4481608  66.7678544  25.8030342  78.5581608  67.5438544
  22.1930342  78.7601608  67.1048544  23.0400342  76.6471608  65.6578544
  25.3980342  75.8941608  65.4788544  27.1800342  77.1301608  66.6978544
  26.5060342  79.1551608  68.1068544  21.4390342  78.2871608  66.6258544
  21.9920342  79.5681608  67.6768544  24.2750342  79.7401608  68.1808544
  31.0370342  70.2031608  92.9638544  32.2080342  70.8661608  93.0468544
  32.2070342  72.2631608  92.9818544  30.9920342  72.9411608  92.8328544
  29.8010342  72.2141608  92.7508544  29.8460342  70.8181608  92.8198544
  33.4050342  70.1401608  93.1958544  33.1310342  72.8201608  93.0458544
  30.9750342  74.0201608  92.7808544  28.8560342  72.7251608  92.6348544
  28.9800342  70.1751608  92.7648544  34.2880342  70.6271608  93.2598544
  33.3870342  69.1311608  93.2398544  31.0550342  69.1941608  93.0118544
 119.2650342  94.7281608  75.9598544 120.2480342  93.8161608  76.1028544
 121.5810342  94.2361608  76.0398544 121.8650342  95.5901608  75.8298544
 120.8140342  96.5011608  75.6868544 119.4950342  96.0411608  75.7568544
 119.9140342  92.4651608  76.3128544 122.3890342  93.5261608  76.1508544
 122.8890342  95.9281608  75.7778544 121.0190342  97.5491608  75.5238544
 118.6220342  96.6691608  75.6578544 120.6430342  91.7741608  76.4208544
 118.9450342  92.1801608  76.3548544 118.3070342  94.4091608  76.0088544
  28.1350342  60.1821608  77.1108544  26.8660342  60.6121608  76.9588544
  25.8400342  59.6731608  76.8178544  26.1510342  58.3091608  76.8358544
  27.4810342  57.9061608  76.9958544  28.4770342  58.8771608  77.1338544
  26.6010342  61.9951608  76.9458544  24.8140342  59.9901608  76.6948544
  25.3700342  57.5711608  76.7278544  27.7360342  56.8561608  77.0118544
  29.5280342  58.6621608  77.2618544  25.6540342  62.3271608  76.8338544
  27.3560342  62.6591608  77.0488544  28.8660342  60.8721608  77.2118544
  22.0180342  81.2341608 110.4178544  22.4210342  80.0261608 109.9758544
  21.7640342  79.4441608 108.8868544  20.7050342  80.1271608 108.2798544
  20.3190342  81.3791608 108.7708544  21.0020342  81.9251608 109.8618544
  23.4920342  79.3761608 110.6188544  22.0670342  78.4771608 108.5118544
  20.1880342  79.6911608 107.4378544  19.5030342  81.9181608 108.3118544
  20.7760342  82.8831608 110.3078544  23.8020342  78.4711608 110.2958544
  23.9540342  79.8111608 111.4048544  22.5020342  81.6411608 111.2058544
  32.3240342  40.9641608  72.3328544  33.5480342  41.4951608  72.1348544
  34.6790342  40.7531608  72.4918544  34.5170342  39.4781608  73.0438544
  33.2290342  38.9661608  73.2308544  32.1250342  39.7401608  72.8618544
  33.6620342  42.7821608  71.5768544  35.6720342  41.1551608  72.3438544
  35.3810342  38.8931608  73.3238544  33.0900342  37.9821608  73.6568544
  31.0960342  39.4281608  72.9688544  34.5740342  43.1891608  71.4248544
  32.8340342  43.3041608  71.3258544  31.5170342  41.5121608  72.0698544
 121.3550342 106.8131608  89.2878544 120.8670342 106.3951608  90.4738544
 120.6750342 107.3271608  91.4988544 120.9930342 108.6701608  91.2718544
 121.4970342 109.0601608  90.0268544 121.6740342 108.0971608  89.0298544
 120.5620342 105.0321608  90.6548544 120.2850342 107.0191608  92.4588544
 120.8500342 109.4021608  92.0538544 121.7460342 110.0951608  89.8388544
 122.0560342 108.3041608  88.0408544 120.1960342 104.7091608  91.5388544
 120.7080342 104.3731608  89.9028544 121.4880342 106.1271608  88.5578544
  87.2260342  54.3151608 100.5778544  86.9980342  55.2211608 101.5508544
  87.5780342  55.0291608 102.8088544  88.3800342  53.9051608 103.0308544
  88.5900342  52.9911608 101.9928544  87.9920342  53.2191608 100.7508544
  86.1840342  56.3371608 101.2808544  87.4130342  55.7401608 103.6068544
  88.8350342  53.7441608 103.9978544  89.2070342  52.1181608 102.1508544
  88.0960342  52.5701608  99.8928544  86.0080342  57.0211608 102.0028544
  85.7730342  56.4581608 100.3658544  86.8000342  54.4671608  99.6738544
 101.1150342  92.0121608  75.5348544  99.9110342  91.5681608  75.9478544
  99.7560342  90.2161608  76.2688544 100.8530342  89.3541608  76.1548544
 102.0840342  89.8571608  75.7218544 102.1960342  91.2151608  75.4108544
  98.8370342  92.4731608  76.0478544  98.8020342  89.8331608  76.6028544
 100.7480342  88.3071608  76.3988544 102.9380342  89.2021608  75.6288544
 103.1040342  91.6921608  75.0698544  97.9310342  92.1501608  76.3568544
  98.9670342  93.4461608  75.8108544 101.2110342  92.9921608  75.3068544
  70.7130342  78.6861608 132.7368544  71.7670342  78.4671608 133.5488544
  72.5670342  79.5471608 133.9348544  72.2570342  80.8301608 133.4708544
  71.1540342  81.0131608 132.6308544  70.3800342  79.9061608 132.2678544
  72.0400342  77.1581608 133.9908544  73.4170342  79.4001608 134.5848544
  72.8650342  81.6751608 133.7608544  70.9040342  81.9981608 132.2648544
  69.5130342  79.9501608 131.6258544  72.8270342  76.9831608 134.5988544
  71.4510342  76.3901608 133.7008544  70.1440342  77.8961608 132.4668544
  74.3090342  33.9981608 122.4218544  75.3800342  34.6441608 122.9238544
  76.2970342  35.2301608 122.0458544  76.0830342  35.1331608 120.6658544
  74.9590342  34.4531608 120.1878544  74.0670342  33.8821608 121.0998544
  75.5530342  34.7161608 124.3198544  77.1650342  35.7541608 122.4208544
  76.7830342  35.5811608 119.9748544  74.7820342  34.3711608 119.1248544
  73.1740342  33.3401608 120.8248544  76.3530342  35.1981608 124.7058544
  74.8810342  34.2861608 124.9388544  73.6560342  33.5801608 123.0688544
  51.9020342  51.6441608 124.5008544  50.5870342  51.9421608 124.4878544
  49.6850342  51.0731608 125.1108544  50.1660342  49.9161608 125.7328544
  51.5380342  49.6451608 125.7228544  52.4060342  50.5391608 125.0888544
  50.1500342  53.1181608 123.8488544  48.6260342  51.2881608 125.1148544
  49.4810342  49.2351608 126.2178544  51.9220342  48.7551608 126.1988544
  53.4770342  50.4141608 125.0298544  49.1670342  53.3501608 123.8338544
  50.8170342  53.7331608 123.4038544  52.5410342  52.2811608 124.0468544
  51.1610342  70.0371608  23.6668544  50.6030342  68.8321608  23.4278544
  50.8310342  67.7851608  24.3268544  51.6300342  68.0091608  25.4528544
  52.1880342  69.2751608  25.6628544  51.9360342  70.2941608  24.7398544
  49.8070342  68.6541608  22.2808544  50.3960342  66.8101608  24.1598544
  51.8140342  67.2101608  26.1568544  52.8070342  69.4611608  26.5278544
  52.3230342  71.3001608  24.8178544  49.3850342  67.7551608  22.0928544
  49.6550342  69.4221608  21.6418544  50.9870342  70.7831608  23.0088544
  77.6320342 113.9851608  33.4748544  77.2740342 113.2511608  34.5478544
  77.3180342 113.8351608  35.8178544  77.7310342 115.1661608  35.9478544
  78.0930342 115.8901608  34.8068544  78.0350342 115.2691608  33.5558544
  76.8660342 111.9161608  34.3688544  77.0370342 113.2701608  36.6958544
  77.7690342 115.6311608  36.9218544  78.4130342 116.9191608  34.8928544
  78.2950342 115.7481608  32.6228544  76.5960342 111.3581608  35.1668544
  76.8420342 111.5111608  33.4438544  77.5950342 113.5491608  32.5638544
  50.4930342 123.1061608  40.9748544  50.0590342 121.8691608  41.2938544
  50.9710342 120.8091608  41.3058544  52.3120342 121.0541608  40.9878544
  52.7180342 122.3521608  40.6628544  51.7750342 123.3841608  40.6618544
  48.7010342 121.6721608  41.6068544  50.6510342 119.8081608  41.5578544
  53.0280342 120.2451608  40.9928544  53.7500342 122.5551608  40.4148544
  51.9950342 124.4141608  40.4248544  48.3660342 120.7491608  41.8468544
  48.0560342 122.4501608  41.5918544  49.8220342 123.8611608  40.9698544
  38.2490342  77.8991608  99.7938544  37.3060342  78.5261608  99.0618544
  36.4790342  77.7701608  98.2248544  36.6460342  76.3821608  98.1658544
  37.6370342  75.7731608  98.9428544  38.4430342  76.5651608  99.7668544
  37.1740342  79.9241608  99.1538544  35.7150342  78.2471608  97.6268544
  36.0150342  75.7851608  97.5248544  37.7770342  74.7021608  98.9078544
  39.2310342  76.1841608 100.3998544  36.4710342  80.4041608  98.6088544
  37.7820342  80.4541608  99.7628544  38.8390342  78.4591608 100.3938544
  29.8730342  53.4941608  62.0978544  29.3150342  54.3361608  62.9908544
  30.1010342  55.3411608  63.5628544  31.4470342  55.4511608  63.1978544
  31.9860342  54.5561608  62.2678544  31.1660342  53.5651608  61.7198544
  27.9560342  54.1871608  63.3268544  29.6790342  56.0311608  64.2808544
  32.0670342  56.2221608  63.6318544  33.0240342  54.6291608  61.9778544
  31.4920342  52.8321608  60.9968544  27.5290342  54.8131608  63.9948544
  27.4040342  53.4541608  62.9038544  29.2930342  52.7731608  61.6928544
  39.9460342  66.2861608  47.6948544  40.0080342  66.4891608  46.3628544
  39.5880342  67.7171608  45.8408544  39.1120342  68.7051608  46.7098544
  39.0650342  68.4521608  48.0838544  39.4950342  67.2111608  48.5658544
  40.4930342  65.4651608  45.5288544  39.6270342  67.9071608  44.7778544
  38.7840342  69.6581608  46.3208544  38.7000342  69.2061608  48.7658544
  39.4950342  66.9261608  49.6078544  40.5440342  65.6071608  44.5298544
  40.7920342  64.5841608  45.9238544  40.2530342  65.3941608  48.0568544
 105.9850342 104.3301608 119.0098544 106.7480342 104.6771608 120.0668544
 107.6740342 105.7151608 119.9278544 107.7890342 106.3711608 118.6968544
 106.9780342 105.9791608 117.6268544 106.0650342 104.9371608 117.8078544
 106.5970342 103.9881608 121.2848544 108.2990342 106.0131608 120.7578544
 108.5000342 107.1751608 118.5738544 107.0570342 106.4771608 116.6718544
 105.3990342 104.5661608 117.0428544 107.1640342 104.2391608 122.0828544
 105.9230342 103.2391608 121.3668544 105.3210342 103.5781608 119.1268544
  53.8280342  93.0021608 101.3678544  54.7210342  93.8061608 100.7558544
  54.8940342  95.1131608 101.2218544  54.1380342  95.5581608 102.3118544
  53.2230342  94.6911608 102.9168544  53.0800342  93.3921608 102.4198544
  55.4590342  93.3141608  99.6618544  55.6030342  95.7791608 100.7498544
  54.2610342  96.5651608 102.6838544  52.6320342  95.0221608 103.7598544
  52.4000342  92.6551608 102.8218544  56.1310342  93.9081608  99.1968544
  55.3200342  92.3671608  99.3388544  53.7140342  92.0611608 101.0188544
  30.6150342  82.8171608  57.7148544  31.8690342  82.3371608  57.8388544
  32.9260342  83.0291608  57.2378544  32.6590342  84.2021608  56.5228544
  31.3430342  84.6641608  56.4198544  30.3160342  83.9431608  57.0348544
  32.0880342  81.1531608  58.5678544  33.9410342  82.6671608  57.3208544
  33.4650342  84.7471608  56.0538544  31.1240342  85.5681608  55.8708544
  29.2720342  84.2211608  57.0098544  33.0240342  80.7861608  58.6668544
  31.3120342  80.6671608  58.9938544  29.8620342  82.3061608  58.1548544
  27.9820342  86.9601608  90.1798544  27.7130342  88.2491608  89.8898544
  28.7660342  89.1091608  89.5618544  30.0750342  88.6141608  89.5428544
  30.3090342  87.2701608  89.8498544  29.2290342  86.4441608  90.1718544
  26.3800342  88.7011608  89.9218544  28.5790342  90.1461608  89.3248544
  30.8990342  89.2661608  89.2918544  31.3150342  86.8751608  89.8388544
  29.3120342  85.3961608  90.4228544  26.1680342  89.6651608  89.7068544
  25.6320342  88.0661608  90.1618544  27.2110342  86.3511608  90.4148544
  62.9300342 106.7921608  61.9288544  61.7120342 107.2961608  61.6408544
  60.8100342 106.5211608  60.9068544  61.1880342 105.2411608  60.4878544
  62.4600342 104.7571608  60.8078544  63.3330342 105.5641608  61.5438544
  61.3760342 108.5891608  62.0848544  59.8270342 106.9001608  60.6628544
  60.5010342 104.6301608  59.9198544  62.7650342 103.7701608  60.4908544
  64.3320342 105.2771608  61.8368544  60.4670342 108.9761608  61.8738544
  62.0420342 109.1361608  62.6128544  63.5710342 107.3651608  62.4598544
  63.1090342  95.3121608 125.5568544  63.9350342  96.3211608 125.2138544
  65.2900342  96.2371608 125.5498544  65.7590342  95.1091608 126.2318544
  64.8670342  94.0861608 126.5688544  63.5200342  94.2091608 126.2148544
  63.4180342  97.4361608 124.5268544  65.9740342  97.0311608 125.2868544
  66.8030342  95.0301608 126.4978544  65.2150342  93.2091608 127.0958544
  62.7600342  93.4721608 126.4308544  64.0280342  98.1971608 124.2658544
  62.4360342  97.4801608 124.2938544  62.1330342  95.3881608 125.3078544
 134.1520342  77.2411608  64.2548544 133.4490342  76.4401608  65.0818544
 134.1290342  75.7041608  66.0578544 135.5200342  75.8141608  66.1548544
 136.2090342  76.6571608  65.2768544 135.4920342  77.3751608  64.3158544
 132.0500342  76.3621608  64.9468544 133.5910342  75.0541608  66.7338544
 136.0590342  75.2511608  66.9028544 137.2840342  76.7511608  65.3408544
 135.9370342  78.0481608  63.5968544 131.5150342  75.7651608  65.5608544
 131.5760342  76.9011608  64.2348544 133.6470342  77.7671608  63.5558544
  57.3500342 109.9031608  74.5618544  57.2370342 111.0921608  75.1888544
  56.2270342 111.9761608  74.7958544  55.3570342 111.6091608  73.7638544
  55.5110342 110.3661608  73.1408544  56.5330342 109.5111608  73.5638544
  58.1360342 111.4171608  76.2218544  56.1140342 112.9351608  75.2808544
  54.5720342 112.2811608  73.4498544  54.8460342 110.0701608  72.3428544
  56.7280342 108.5351608  73.1438544  58.0600342 112.3051608  76.6978544
  58.8600342 110.7661608  76.4918544  58.0850342 109.2751608  74.8568544
  79.8240342  26.7471608  57.9628544  78.8620342  27.6861608  57.8568544
  79.0030342  28.7021608  56.9068544  80.1380342  28.7241608  56.0888544
  81.1120342  27.7311608  56.2328544  80.9330342  26.7321608  57.1948544
  77.7380342  27.6231608  58.7008544  78.2470342  29.4671608  56.7998544
  80.2610342  29.5031608  55.3508544  81.9930342  27.7351608  55.6078544
  81.6290342  25.9261608  57.3778544  77.0110342  28.3211608  58.6298544
  77.6530342  26.8811608  59.3828544  79.7080342  26.0191608  58.6538544
  49.4660342  50.6841608 118.5168544  49.9210342  49.6541608 117.7738544
  51.2240342  49.1881608 117.9788544  52.0260342  49.8001608 118.9478544
  51.5150342  50.8651608 119.6958544  50.2070342  51.3001608 119.4608544
  49.0770342  49.0701608 116.8108544  51.6130342  48.3641608 117.3978544
  53.0350342  49.4511608 119.1178544  52.1240342  51.3461608 120.4478544
  49.7280342  52.1131608 119.9868544  49.4070342  48.2981608 116.2488544
  48.1390342  49.4211608 116.6758544  48.5230342  51.0091608 118.3578544
  30.5280342 107.8051608  81.3898544  31.0680342 106.9141608  80.5328544
  31.3540342 105.6211608  80.9838544  31.0760342 105.2811608  82.3118544
  30.5170342 106.2361608  83.1668544  30.2450342 107.5161608  82.6768544
  31.3300342 107.3021608  79.2058544  31.7870342 104.8881608  80.3178544
  31.2920342 104.2861608  82.6738544  30.2970342 105.9861608  84.1948544
  29.8150342 108.3171608  83.2608544  31.7340342 106.6431608  78.5548544
  31.1170342 108.2411608  78.8978544  30.3270342 108.7341608  81.0498544
  68.3580342  39.8181608  88.1938544  67.2000342  39.3011608  87.7328544
  67.1390342  37.9401608  87.4178544  68.2770342  37.1451608  87.5868544
  69.4570342  37.7211608  88.0688544  69.4770342  39.0861608  88.3718544
  66.0810342  40.1411608  87.5778544  66.2240342  37.5001608  87.0458544
  68.2450342  36.0921608  87.3478544  70.3440342  37.1191608  88.2038544
  70.3390342  39.6171608  88.7468544  65.2090342  39.7641608  87.2338544
  66.1440342  41.1221608  87.8098544  68.3860342  40.8021608  88.4168544
  58.8130342  87.3101608  21.0708544  58.6380342  88.6091608  21.3868544
  59.7420342  89.3701608  21.7818544  61.0040342  88.7691608  21.8398544
  61.1410342  87.4181608  21.5028544  60.0120342  86.6931608  21.1138544
  57.3490342  89.1711608  21.3128544  59.6300342  90.4141608  22.0408544
  61.8670342  89.3441608  22.1428544  62.1100342  86.9411608  21.5438544
  60.0200342  85.6491608  20.8358544  57.2070342  90.1441608  21.5478544
  56.5620342  88.6061608  21.0268544  58.0060342  86.7741608  20.7868544
  35.5260342  69.5521608  77.8788544  35.0570342  69.2021608  79.0938544
  34.9180342  70.1841608  80.0798544  35.2680342  71.5061608  79.7848544
  35.7510342  71.8251608  78.5118544  35.8740342  70.8141608  77.5548544
  34.7170342  67.8591608  79.3438544  34.5440342  69.9311608  81.0618544
  35.1660342  72.2751608  80.5368544  36.0250342  72.8421608  78.2708544
  36.2360342  70.9651608  76.5478544  34.3650342  67.5861608  80.2508544
  34.8250342  67.1631608  78.6188544  35.6200342  68.8311608  77.1768544
  50.9510342  98.6631608 116.9178544  51.6960342  97.6091608 117.3098544
  51.2920342  96.3191608 116.9528544  50.1260342  96.1481608 116.1998544
  49.3830342  97.2691608 115.8148544  49.8210342  98.5421608 116.1918544
  52.8620342  97.8301608 118.0668544  51.8710342  95.4561608 117.2538544
  49.8010342  95.1571608 115.9168544  48.4800342  97.1521608 115.2328544
  49.3150342  99.4631608 115.9408544  53.4280342  97.0471608 118.3648544
  53.1380342  98.7691608 118.3158544  51.2560342  99.5891608 117.1828544
  30.8730342  96.6801608  58.2818544  32.2200342  96.6541608  58.3158544
  32.8790342  95.4201608  58.3068544  32.1270342  94.2411608  58.2628544
  30.7300342  94.3141608  58.2288544  30.1110342  95.5671608  58.2388544
  32.9350342  97.8661608  58.3588544  33.9580342  95.3701608  58.3338544
  32.6210342  93.2811608  58.2558544  30.1370342  93.4121608  58.1938544
  29.0420342  95.7221608  58.2138544  33.9450342  97.8571608  58.3848544
  32.4420342  98.7481608  58.3658544  30.4110342  97.5781608  58.2878544
  47.8990342  34.2841608  68.3798544  47.7550342  34.4731608  67.0518544
  48.8960342  34.5641608  66.2488544  50.1600342  34.4571608  66.8378544
  50.2640342  34.2621608  68.2188544  49.0990342  34.1771608  68.9858544
  46.4620342  34.5741608  66.5038544  48.8090342  34.7151608  65.1818544
  51.0510342  34.5251608  66.2298544  51.2340342  34.1781608  68.6868544
  49.0800342  34.0271608  70.0558544  46.3430342  34.7151608  65.5108544
  45.6490342  34.5071608  67.0998544  47.0660342  34.2211608  68.9468544
 130.8050342  47.3031608  79.9018544 131.1900342  46.0121608  79.8388544
 130.2820342  45.0511608  79.3848544 128.9950342  45.4481608  79.0058544
 128.6370342  46.7981608  79.0868544 129.5760342  47.7271608  79.5458544
 132.4960342  45.6591608  80.2308544 130.5640342  44.0091608  79.3248544
 128.2820342  44.7171608  78.6528544 127.6470342  47.1181608  78.7978544
 129.3910342  48.7871608  79.6428544 132.7940342  44.6951608  80.1878544
 133.1380342  46.3671608  80.5568544 131.4730342  47.9851608  80.2318544
  74.1850342  29.4921608  53.8978544  74.6890342  28.2531608  53.7258544
  76.0600342  28.0441608  53.9048544  76.8780342  29.1241608  54.2578544
  76.3130342  30.3921608  54.4258544  74.9380342  30.5581608  54.2378544
  73.8280342  27.1981608  53.3708544  76.4910342  27.0621608  53.7738544
  77.9390342  28.9781608  54.3998544  76.9330342  31.2341608  54.6988544
  74.4140342  31.4961608  54.3448544  74.1950342  26.2661608  53.2388544
  72.8400342  27.3681608  53.2448544  73.1920342  29.6261608  53.7648544
  92.8280342  40.0461608 104.3348544  92.6990342  38.7051608 104.3938544
  91.4210342  38.1471608 104.4998544  90.3060342  38.9901608 104.5428544
  90.4850342  40.3751608 104.4788544  91.7790342  40.8931608 104.3728544
  93.8510342  37.8971608 104.3468544  91.2900342  37.0751608 104.5488544
  89.3120342  38.5731608 104.6248544  89.6320342  41.0381608 104.5108544
  92.0140342  41.9461608 104.3178544  93.7660342  36.8911608 104.3908544
  94.7660342  38.3181608 104.2718544  93.7570342  40.4351608 104.2578544
 113.0860342  79.2411608  83.4958544 113.3680342  77.9511608  83.2218544
 112.3190342  77.0331608  83.1108544 111.0020342  77.4721608  83.2858544
 110.7550342  78.8191608  83.5678544 111.8320342  79.7041608  83.6708544
 114.7090342  77.5561608  83.0538544 112.5170342  75.9931608  82.8918544
 110.1810342  76.7741608  83.2018544 109.7420342  79.1711608  83.7058544
 111.7380342  80.7591608  83.8858544 114.9310342  76.5931608  82.8488544
 115.4540342  78.2341608  83.1398544 113.8540342  79.8921608  83.5728544
  19.7970342  93.9251608  92.3078544  18.9050342  92.9351608  92.5138544
  19.3610342  91.6171608  92.6178544  20.7310342  91.3551608  92.5068544
  21.6210342  92.4121608  92.2948544  21.1240342  93.7151608  92.1958544
  17.5360342  93.2471608  92.6188544  18.6680342  90.8041608  92.7828544
  21.0990342  90.3421608  92.5858544  22.6820342  92.2241608  92.2068544
  21.7330342  94.5921608  92.0328544  16.8600342  92.5131608  92.7718544
  17.2250342  94.2051608  92.5398544  19.4510342  94.8721608  92.2348544
  81.5750342 119.9281608  56.9638544  82.0110342 120.9001608  57.7898544
  81.1770342 121.9891608  58.0618544  79.9090342 122.0461608  57.4718544
  79.4970342 121.0161608  56.6198544  80.3620342 119.9451608  56.3748544
  83.2940342 120.8001608  58.3608544  81.5010342 122.7821608  58.7208544
  79.2530342 122.8811608  57.6718544  78.5210342 121.0471608  56.1578544
  80.1320342 119.1061608  55.7338544  83.6300342 121.5221608  58.9818544
  83.8840342 120.0061608  58.1518544  82.1900342 119.1481608  56.7768544
  49.7400342 131.7881608  94.7268544  50.9810342 132.3151608  94.7348544
  51.1320342 133.7031608  94.8168544  49.9930342 134.5131608  94.8888544
  48.7250342 133.9241608  94.8778544  48.6180342 132.5331608  94.7948544
  52.0970342 131.4601608  94.6598544  52.1150342 134.1521608  94.8248544
  50.0940342 135.5871608  94.9528544  47.8380342 134.5381608  94.9328544
  47.6840342 131.9911608  94.7798544  53.0310342 131.8451608  94.6648544
  51.9690342 130.4591608  94.5998544  49.6480342 130.7831608  94.6668544
  78.2930342 108.5241608  62.6758544  78.5580342 109.5931608  63.4548544
  78.1880342 109.5621608  64.8028544  77.5540342 108.4241608  65.3148544
  77.2990342 107.3381608  64.4718544  77.6840342 107.4091608  63.1298544
  79.1980342 110.7151608  62.8958544  78.3880342 110.4051608  65.4498544
  77.2630342 108.3861608  66.3548544  76.8100342 106.4531608  64.8538544
  77.5300342 106.6221608  62.4058544  79.4000342 111.5211608  63.4698544
  79.4560342 110.7191608  61.9188544  78.5660342 108.5611608  61.7038544
 113.0830342  57.7871608  78.6278544 113.7900342  56.6791608  78.9308544
 115.1270342  56.5921608  78.5298544 115.7010342  57.6551608  77.8238544
 114.9310342  58.7851608  77.5298544 113.5990342  58.8321608  77.9488544
 113.1690342  55.6361608  79.6438544 115.7160342  55.7161608  78.7598544
 116.7330342  57.6021608  77.5078544 115.3630342  59.6131608  76.9858544
 112.9290342  59.6601608  77.7688544 113.6900342  54.8021608  79.8758544
 112.2010342  55.7151608  79.9238544 112.1180342  57.8341608  78.9238544
  95.9130342  33.1031608  46.0918544  96.5210342  33.2841608  44.9008544
  97.7570342  33.9361608  44.8578544  98.3370342  34.3861608  46.0498544
  97.6720342  34.1781608  47.2618544  96.4380342  33.5221608  47.2618544
  95.8990342  32.8131608  43.7288544  98.2650342  34.0941608  43.9178544
  99.2910342  34.8921608  46.0318544  98.1090342  34.5211608  48.1898544
  95.8530342  33.3161608  48.1468544  96.3450342  32.9431608  42.8318544
  95.0050342  32.3451608  43.7798544  95.0210342  32.6301608  46.1058544
 128.3110342  68.9271608 113.4388544 129.5240342  69.0191608 112.8568544
 129.7750342  68.2971608 111.6858544 128.7640342  67.4961608 111.1438544
 127.5200342  67.4291608 111.7798544 127.3100342  68.1671608 112.9488544
 130.5100342  69.8381608 113.4388544 130.7380342  68.3521608 111.1988544
 128.9430342  66.9321608 110.2388544 126.7300342  66.8151608 111.3718544
 126.3850342  68.1781608 113.5068544 131.4220342  69.9131608 113.0108544
 130.3110342  70.3511608 114.2858544 128.1440342  69.4541608 114.2838544
 108.5330342  40.2471608  63.3778544 107.4430342  39.6131608  63.8568544
 106.1730342  40.0981608  63.5298544 106.0600342  41.2291608  62.7138544
 107.2160342  41.8561608  62.2388544 108.4670342  41.3391608  62.5888544
 107.6070342  38.4781608  64.6738544 105.2830342  39.6091608  63.8998544
 105.0850342  41.6151608  62.4528544 107.1430342  42.7301608  61.6078544
 109.4120342  41.7551608  62.2708544 106.7970342  37.9961608  65.0378544
 108.5330342  38.1431608  64.9008544 109.4430342  39.8851608  63.6228544
  39.3650342 105.5681608 115.8758544  38.2070342 106.0251608 115.3568544
  37.7370342 107.2841608 115.7418544  38.4770342 108.0421608 116.6558544
  39.6730342 107.5301608 117.1698544  40.1070342 106.2661608 116.7588544
  37.4970342 105.2261608 114.4408544  36.8120342 107.6751608 115.3418544
  38.1270342 109.0171608 116.9628544  40.2540342 108.1051608 117.8768544
  41.0150342 105.7901608 117.1008544  36.6280342 105.5591608 114.0458544
  37.8510342 104.3181608 114.1748544  39.6910342 104.6561608 115.5888544
  48.1990342 125.5591608  55.7328544  48.8130342 126.7601608  55.7108544
  48.6360342 127.5961608  54.6048544  47.8270342 127.1711608  53.5448544
  47.2080342 125.9181608  53.6088544  47.4120342 125.1121608  54.7328544
  49.6180342 127.1451608  56.7998544  49.1160342 128.5641608  54.5608544
  47.6800342 127.8061608  52.6838544  46.5810342 125.5771608  52.7978544
  46.9770342 124.1321608  54.8708544  50.0820342 128.0421608  56.7938544
  49.7350342 126.5271608  57.5898544  48.3370342 124.9661608  56.5388544
  57.5220342  63.9171608  28.6148544  56.6780342  64.1331608  27.5858544
  57.1420342  64.8101608  26.4538544  58.4700342  65.2491608  26.4128544
  59.3110342  65.0041608  27.5028544  58.8080342  64.3231608  28.6158544
  55.3500342  63.6731608  27.6718544  56.4870342  64.9961608  25.6148544
  58.8430342  65.7731608  25.5448544  60.3390342  65.3371608  27.4848544
  59.3820342  64.0901608  29.5008544  54.7090342  63.8301608  26.9068544
  55.0320342  63.1871608  28.4988544  57.1720342  63.4271608  29.4258544
  39.1610342 122.9891608  79.9498544  37.9480342 122.4411608  79.7328544
  37.7240342 121.1121608  80.1038544  38.7620342 120.3801608  80.6908544
  40.0040342 120.9871608  80.8978544  40.1870342 122.3181608  80.5128544
  36.9350342 123.2171608  79.1378544  36.7620342 120.6481608  79.9408544
  38.6040342 119.3521608  80.9828544  40.8140342 120.4331608  81.3508544
  41.1080342 122.8691608  80.6318544  36.0230342 122.8161608  78.9708544
  37.1160342 124.1761608  78.8758544  39.3080342 123.9511608  79.6758544
 130.3480342  39.6971608  83.5438544 130.0790342  40.6101608  84.4988544
 128.9400342  40.4501608  85.2938544 128.1050342  39.3471608  85.0818544
 128.4220342  38.4241608  84.0798544 129.5700342  38.6211608  83.3078544
 130.9480342  41.7031608  84.6758544 128.7000342  41.1671608  86.0668544
 127.2210342  39.2101608  85.6878544 127.7860342  37.5681608  83.9058544
 129.8940342  37.9631608  82.5138544 130.7560342  42.3931608  85.3878544
 131.7670342  41.8031608  84.0908544 131.1750342  39.8261608  82.9778544
  54.0520342  36.1751608 108.9868544  53.3130342  37.2321608 108.5928544
  51.9630342  37.2931608 108.9538544  51.4090342  36.2581608 109.7158544
  52.2130342  35.1801608 110.1038544  53.5570342  35.1581608 109.7218544
  53.9130342  38.2491608 107.8268544  51.3470342  38.1281608 108.6518544
  50.3690342  36.2911608 110.0028544  51.7980342  34.3751608 110.6918544
  54.2520342  34.3701608 109.9728544  53.3680342  39.0451608 107.5268544
  54.8900342  38.1881608 107.5748544  55.0250342  36.1451608 108.7178544
 106.4970342 102.5591608  41.8838544 106.8680342 103.6951608  41.2568544
 108.1900342 103.8341608  40.8238544 109.0990342 102.7941608  41.0488544
 108.6720342 101.6341608  41.7028544 107.3420342 101.5341608  42.1198544
 105.9180342 104.7131608  41.0518544 108.5140342 104.7331608  40.3188544
 110.1240342 102.8871608  40.7198544 109.3640342 100.8231608  41.8838544
 106.9220342 100.6801608  42.6308544 106.1860342 105.5681608  40.5838544
 104.9670342 104.5961608  41.3728544 105.5390342 102.4741608  42.1908544
 111.2520342  23.6741608  76.1148544 110.2820342  23.1451608  76.8868544
 108.9940342  23.6871608  76.8298544 108.7400342  24.7641608  75.9748544
 109.7760342  25.2821608  75.1908544 111.0490342  24.7121608  75.2768544
 110.5850342  22.0611608  77.7328544 108.1970342  23.2821608  77.4388544
 107.7500342  25.1931608  75.9198544 109.5940342  26.1141608  74.5258544
 111.9080342  25.0441608  74.7118544 109.8650342  21.6571608  78.3148544
 111.5210342  21.6831608  77.7608544 112.1780342  23.2721608  76.1668544
  63.0260342 124.5141608 116.2718544  61.7970342 124.3421608 115.7438544
  60.9190342 125.4291608 115.6918544  61.3340342 126.6701608 116.1888544
  62.6170342 126.8041608 116.7278544  63.4640342 125.6921608 116.7608544
  61.4240342 123.0751608 115.2558544  59.9280342 125.3201608 115.2738544
  60.6660342 127.5191608 116.1558544  62.9500342 127.7561608 117.1148544
  64.4690342 125.7001608 117.1568544  60.5060342 122.9361608 114.8588544
  62.0720342 122.3011608 115.3028544  63.6490342 123.7191608 116.3018544
  98.3240342  97.8681608 116.2618544  98.7680342  98.9681608 116.9038544
  98.1300342  99.3741608 118.0808544  97.0480342  98.6321608 118.5658544
  96.6200342  97.4971608 117.8668544  97.2850342  97.1261608 116.6948544
  99.8610342  99.6831608 116.3788544  98.4650342 100.2511608 118.6158544
  96.5450342  98.9331608 119.4728544  95.7860342  96.9151608 118.2308544
  97.0270342  96.2681608 116.0908544 100.2010342 100.5081608 116.8518544
 100.3080342  99.3751608 115.5268544  98.7950342  97.5881608 115.4128544
 108.3990342  37.7931608  71.7898544 109.6770342  37.3811608  71.9188544
 110.5560342  37.5371608  70.8428544 110.0930342  38.1171608  69.6568544
 108.7600342  38.5311608  69.5658544 107.9130342  38.3561608  70.6648544
 110.0980342  36.8031608  73.1318544 111.5850342  37.2161608  70.9198544
 110.7600342  38.2451608  68.8178544 108.3890342  38.9801608  68.6558544
 106.8720342  38.6441608  70.6868544 111.0520342  36.4911608  73.2398544
 109.4480342  36.6971608  73.8988544 107.7760342  37.6731608  72.5758544
  87.1590342 119.5841608  42.2658544  87.5440342 119.9051608  43.5178544
  88.9020342 120.1121608  43.7818544  89.8300342 119.9811608  42.7428544
  89.3870342 119.6471608  41.4598544  88.0210342 119.4491608  41.2378544
  86.5740342 120.0251608  44.5308544  89.2380342 120.3701608  44.7758544
  90.8820342 120.1381608  42.9318544  90.0930342 119.5431608  40.6478544
  87.5880342 119.1891608  40.2828544  86.8520342 120.2651608  45.4718544
  85.5970342 119.8711608  44.3218544  86.1750342 119.4381608  42.0908544
 112.3370342  86.2501608 113.9998544 110.9960342  86.3351608 113.8828544
 110.3040342  85.3161608 113.2208544 111.0160342  84.2321608 112.6948544
 112.4060342  84.1841608 112.8388544 113.0600342  85.2241608 113.5078544
 110.3230342  87.4441608 114.4278544 109.2290342  85.3581608 113.1128544
 110.4950342  83.4381608 112.1808544 112.9680342  83.3541608 112.4378544
 114.1270342  85.2731608 113.6668544 109.3180342  87.5171608 114.3458544
 110.8400342  88.1711608 114.9018544 112.8230342  86.9941608 114.4808544
  86.2170342  61.2631608  32.4598544  86.5520342  60.1431608  33.1328544
  87.8930342  59.9221608  33.4628544  88.8570342  60.8641608  33.0868544
  88.4650342  62.0111608  32.3898544  87.1140342  62.1951608  32.0798544
  85.5480342  59.2231608  33.4898544  88.1900342  59.0331608  34.0018544
  89.8960342  60.7071608  33.3348544  89.1990342  62.7471608  32.0938544
  86.7190342  63.0471608  31.5458544  85.7890342  58.3821608  33.9948544
  84.5850342  59.4001608  33.2428544  85.2440342  61.4081608  32.2288544
  63.4340342 100.3781608 115.6958544  62.2660342  99.8111608 116.0568544
  62.2010342  98.4231608 116.2128544  63.3490342  97.6541608 115.9918544
  64.5410342  98.2831608 115.6188544  64.5620342  99.6741608 115.4728544
  61.1370342 100.6251608 116.2698544  61.2770342  97.9421608 116.5018544
  63.3150342  96.5801608 116.1078544  65.4340342  97.7011608 115.4438544
  65.4340342 100.2461608 115.1888544  60.2570342 100.2101608 116.5398544
  61.2020342 101.6271608 116.1508544  63.4650342 101.3821608 115.5878544
  80.7210342  62.9381608  23.0198544  79.9600342  62.8801608  24.1328544
  80.4110342  62.1371608  25.2288544  81.6390342  61.4711608  25.1478544
  82.3960342  61.5581608  23.9748544  81.9090342  62.3111608  22.9018544
  78.7320342  63.5661608  24.1678544  79.8220342  62.0741608  26.1328544
  82.0000342  60.8941608  25.9868544  83.3460342  61.0491608  23.8988544
  82.4220342  62.4351608  21.9588544  78.1550342  63.5291608  24.9958544
  78.4220342  64.0971608  23.3658544  80.3820342  63.4781608  22.2368544
 102.4760342  44.4061608 112.1688544 102.9360342  44.0001608 113.3698544
 102.6830342  44.7861608 114.4988544 101.9590342  45.9751608 114.3578544
 101.4990342  46.3581608 113.0938544 101.7740342  45.5441608 111.9908544
 103.6610342  42.7971608 113.4628544 103.0410342  44.4851608 115.4728544
 101.7550342  46.5931608 115.2208544 100.9390342  47.2741608 112.9708544
 101.4610342  45.7571608 110.9798544 104.0100342  42.4841608 114.3568544
 103.8350342  42.2421608 112.6358544 102.6670342  43.8271608 111.3638544
  36.4130342  68.5671608  83.4558544  36.7220342  69.8781608  83.5278544
  36.0370342  70.6911608  84.4368544  35.0460342  70.1281608  85.2488544
  34.7580342  68.7641608  85.1408544  35.4660342  67.9861608  84.2208544
  37.7260342  70.3991608  82.6898544  36.2640342  71.7451608  84.5148544
  34.5080342  70.7441608  85.9558544  33.9960342  68.3161608  85.7628544
  35.3130342  66.9281608  84.0668544  37.9650342  71.3801608  82.7368544
  38.2100342  69.7971608  82.0388544  36.9170342  67.9931608  82.7948544
 119.3820342  79.6741608  73.3348544 118.0450342  79.4971608  73.3338544
 117.5300342  78.1971608  73.3368544 118.4110342  77.1101608  73.3418544
 119.7900342  77.3391608  73.3428544 120.2640342  78.6541608  73.3398544
 117.1980342  80.6211608  73.3288544 116.4620342  78.0261608  73.3358544
 118.0280342  76.1001608  73.3448544 120.4820342  76.5091608  73.3468544
 121.3090342  78.9281608  73.3398544 116.1950342  80.4991608  73.3278544
 117.5880342  81.5531608  73.3248544 119.7380342  80.6191608  73.3318544
  42.8860342  55.8761608  50.7598544  44.1790342  56.1951608  50.5478544
  44.9910342  56.5161608  51.6408544  44.4450342  56.4991608  52.9288544
  43.0990342  56.1621608  53.1038544  42.3220342  55.8481608  51.9848544
  44.6840342  56.1991608  49.2338544  46.0310342  56.7751608  51.4988544
  45.0600342  56.7441608  53.7828544  42.6650342  56.1451608  54.0928544
  41.2770342  55.5771608  52.0218544  45.6510342  56.4371608  49.0638544
  44.0820342  55.9661608  48.4558544  42.3130342  55.6471608  49.9608544
  95.1940342  60.4281608 118.8288544  94.1160342  61.2391608 118.8218544
  94.3060342  62.6251608 118.8228544  95.6070342  63.1391608 118.8298544
  96.6960342  62.2611608 118.8368544  96.4630342  60.8831608 118.8358544
  92.8260342  60.6761608 118.8148544  93.4600342  63.2981608 118.8178544
  95.7700342  64.2071608 118.8308544  97.7060342  62.6451608 118.8418544
  97.2390342  60.1311608 118.8398544  92.0130342  61.2741608 118.8098544
  92.7090342  59.6721608 118.8158544  95.0410342  59.4301608 118.8278544
 106.9640342  78.2061608 132.6148544 107.9470342  78.9381608 133.1768544
 107.7440342  79.4951608 134.4438544 106.5270342  79.2811608 135.0998544
 105.5340342  78.5151608 134.4808544 105.7770342  77.9761608 133.2138544
 109.1550342  79.1261608 132.4788544 108.5150342  80.0861608 134.9178544
 106.3550342  79.7041608 136.0788544 104.5900342  78.3411608 134.9758544
 105.0730342  77.3731608 132.6588544 109.8980342  79.6731608 132.8908544
 109.2840342  78.7171608 131.5638544 107.1260342  77.8101608 131.6998544
  27.2420342  43.8911608  81.4388544  27.5130342  45.1591608  81.8108544
  26.7460342  46.2021608  81.2828544  25.7170342  45.9101608  80.3818544
  25.4710342  44.5801608  80.0228544  26.2600342  43.5661608  80.5738544
  28.5590342  45.4051608  82.7208544  26.9410342  47.2281608  81.5638544
  25.1160342  46.7051608  79.9648544  24.6790342  44.3401608  79.3278544
  26.1440342  42.5151608  80.3568544  28.7690342  46.3511608  83.0058544
  29.1030342  44.6381608  83.0908544  27.8050342  43.1481608  81.8288544
  61.9460342  52.9801608 121.4028544  63.2050342  52.6121608 121.7168544
  63.4320342  51.3361608 122.2408544  62.3500342  50.4691608 122.4288544
  61.0600342  50.8911608 122.0898544  60.8760342  52.1751608 121.5678544
  64.2620342  53.5191608 121.5108544  64.4310342  51.0161608 122.5018544
  62.5100342  49.4801608 122.8328544  60.2160342  50.2321608 122.2298544
  59.9200342  52.5871608 121.2788544  65.2090342  53.2541608 121.7428544
  64.0790342  54.4381608 121.1318544  61.7980342  53.9051608 121.0248544
  74.6730342  39.2541608  43.0718544  75.9330342  38.9061608  42.7388544
  76.9680342  39.8251608  42.9338544  76.6760342  41.0841608  43.4688544
  75.3560342  41.4041608  43.8008544  74.3500342  40.4561608  43.5898544
  76.1790342  37.6271608  42.2028544  77.9870342  39.5721608  42.6748544
  77.4660342  41.8051608  43.6248544  75.1160342  42.3721608  44.2148544
  73.3050342  40.6121608  43.8148544  77.1190342  37.3561608  41.9498544
  75.4180342  36.9761608  42.0688544  73.9360342  38.5791608  42.9258544
  58.0470342  54.5051608 125.3918544  59.0670342  55.3111608 125.7508544
  60.3360342  54.7581608 125.9478544  60.5210342  53.3831608 125.7688544
  59.4360342  52.5831608 125.3958544  58.1830342  53.1751608 125.2088544
  58.8330342  56.6891608 125.9188544  61.1710342  55.3811608 126.2358544
  61.4960342  52.9421608 125.9178544  59.5640342  51.5201608 125.2548544
  57.2900342  52.6401608 124.9218544  59.5900342  57.3021608 126.1878544
  57.9080342  57.0701608 125.7738544  57.1360342  54.9191608 125.2528544
  67.3130342 114.6171608  52.4298544  67.8790342 115.8151608  52.6758544
  69.2700342 115.9011608  52.7938544  70.0430342 114.7431608  52.6528544
  69.4140342 113.5201608  52.3968544  68.0210342 113.4781608  52.2868544
  67.0610342 116.9531608  52.8098544  69.7510342 116.8491608  52.9908544
  71.1180342 114.7931608  52.7408544  69.9980342 112.6181608  52.2858544
  67.4490342 112.5821608  52.0918544  67.4760342 117.8561608  52.9948544
  66.0580342 116.8721608  52.7238544  66.3070342 114.5711608  52.3478544
 104.3810342  74.0841608  63.1698544 104.2810342  73.6231608  64.4338544
 103.0130342  73.4291608  64.9898544 101.8770342  73.7161608  64.2258544
 102.0260342  74.1921608  62.9188544 103.3120342  74.3731608  62.3998544
 105.4520342  73.3481608  65.1648544 102.9030342  73.0611608  66.0008544
 100.8900342  73.5721608  64.6418544 101.1580342  74.4181608  62.3178544
 103.5250342  74.7341608  61.4048544 105.3880342  73.0021608  66.1118544
 106.3600342  73.4951608  64.7468544 105.3040342  74.2191608  62.7828544
 106.6800342  67.0891608  64.6628544 107.8200342  67.3231608  65.3428544
 107.8380342  68.3231608  66.3208544 106.6750342  69.0581608  66.5708544
 105.5140342  68.7831608  65.8418544 105.5380342  67.7751608  64.8728544
 108.9660342  66.5571608  65.0568544 108.7390342  68.5311608  66.8808544
 106.6730342  69.8341608  67.3228544 104.6080342  69.3431608  66.0248544
 104.6930342  67.4931608  64.2628544 109.8260342  66.7241608  65.5608544
 108.9350342  65.8391608  64.3458544 106.6830342  66.3641608  63.9598544
  78.2460342  88.9911608 121.1858544  78.1620342  87.9781608 120.2988544
  79.1430342  87.8551608 119.3098544  80.1880342  88.7841608 119.2608544
  80.2370342  89.8191608 120.1998544  79.2370342  89.9061608 121.1728544
  77.0920342  87.0681608 120.3868544  79.1000342  87.0531608 118.5858544
  80.9530342  88.7021608 118.5018544  81.0380342  90.5431608 120.1738544
  79.1910342  90.6681608 121.9368544  77.0200342  86.3061608 119.7278544
  76.3920342  87.1731608 121.1088544  77.5300342  89.0661608 121.8938544
  66.4610342  32.3251608 103.5598544  66.6380342  32.9741608 104.7288544
  67.9360342  33.1581608 105.2168544  69.0200342  32.6651608 104.4828544
  68.7910342  31.9971608 103.2758544  67.4780342  31.8351608 102.8228544
  65.5160342  33.4521608 105.4318544  68.1060342  33.6751608 106.1508544
  70.0280342  32.7991608 104.8468544  69.6190342  31.6111608 102.6988544
  67.2050342  31.3341608 101.9058544  65.6380342  33.9401608 106.3078544
  64.5860342  33.3101608 105.0638544  65.5170342  32.2001608 103.2208544
  95.8630342  37.5011608  56.7078544  97.0930342  36.9901608  56.9188544
  98.1800342  37.8601608  57.0478544  97.9680342  39.2401608  56.9558544
  96.6750342  39.7271608  56.7358544  95.6160342  38.8231608  56.6128544
  97.2580342  35.5941608  57.0048544  99.1770342  37.4781608  57.2178544
  98.7980342  39.9251608  57.0528544  96.4980342  40.7901608  56.6628544
  94.5880342  39.1051608  56.4428544  98.1750342  35.2011608  57.1628544
  96.4610342  34.9811608  56.9078544  95.0880342  36.8591608  56.6168544
  52.6610342  82.7211608  78.1488544  51.7850342  83.6611608  78.5588544
  51.1390342  84.4541608  77.6048544  51.4150342  84.2551608  76.2478544
  52.3300342  83.2691608  75.8668544  52.9540342  82.4981608  76.8518544
  51.5390342  83.8251608  79.9358544  50.4330342  85.2151608  77.9058544
  50.9240342  84.8601608  75.4988544  52.5530342  83.1051608  74.8218544
  53.6730342  81.7161608  76.6528544  50.8850342  84.5261608  80.2538544
  52.0160342  83.2431608  80.6108544  53.1190342  82.1561608  78.8498544
  89.6760342  24.6441608  49.8558544  89.0520342  25.7931608  49.5258544
  89.7580342  26.9981608  49.6008544  91.0940342  26.9861608  50.0158544
  91.7020342  25.7721608  50.3488544  90.9620342  24.5901608  50.2608544
  87.7070342  25.7561608  49.1138544  89.2820342  27.9341608  49.3418544
  91.6520342  27.9091608  50.0778544  92.7330342  25.7481608  50.6708544
  91.3450342  23.6081608  50.4968544  87.2300342  26.6111608  48.8638544
  87.2120342  24.8761608  49.0668544  89.1530342  23.7821608  49.7968544
 116.4840342  89.4381608 106.7908544 116.2770342  90.7441608 106.5288544
 115.0130342  91.1611608 106.0998544 113.9920342  90.2151608 105.9518544
 114.2510342  88.8701608 106.2348544 115.5280342  88.4951608 106.6618544
 117.3340342  91.6591608 106.6918544 114.8190342  92.2021608 105.8818544
 113.0110342  90.5221608 105.6208544 113.4720342  88.1301608 106.1248544
 115.8200342  87.4831608 106.9028544 117.1890342  92.6401608 106.4978544
 118.2410342  91.3391608 107.0018544 117.4020342  89.1521608 107.0998544
 106.0330342  41.8121608  39.3258544 106.3880342  43.1131608  39.3498544
 107.7440342  43.4481608  39.4288544 108.7010342  42.4281608  39.4808544
 108.2880342  41.0921608  39.4538544 106.9230342  40.8001608  39.3738544
 105.3900342  44.1041608  39.2948544 108.0560342  44.4821608  39.4488544
 109.7510342  42.6721608  39.5418544 109.0160342  40.2951608  39.4928544
 106.5120342  39.8011608  39.3478544 105.6460342  45.0811608  39.3128544
 104.4150342  43.8431608  39.2398544 105.0500342  41.5861608  39.2688544
  81.4190342  34.2471608 124.9288544  81.3530342  35.1711608 123.9478544
  80.8260342  36.4341608 124.2368544  80.3800342  36.7111608 125.5328544
  80.4670342  35.7241608 126.5198544  81.0000342  34.4741608 126.1898544
  81.8140342  34.8461608 122.6588544  80.7620342  37.1931608 123.4698544
  79.9700342  37.6831608 125.7708544  80.1260342  35.9251608 127.5248544
  81.1070342  33.6521608 126.8828544  81.7690342  35.5311608 121.9178544
  82.1910342  33.9281608 122.4688544  81.8020342  33.3391608 124.7048544
  57.9430342  43.8681608  36.6568544  58.0430342  42.8041608  37.4798544
  57.7740342  42.9681608  38.8428544  57.4070342  44.2311608  39.3218544
  57.3150342  45.3071608  38.4328544  57.5930342  45.1001608  37.0778544
  58.4160342  41.5531608  36.9528544  57.8470342  42.1331608  39.5248544
  57.1960342  44.3731608  40.3718544  57.0330342  46.2871608  38.7898544
  57.5490342  45.8681608  36.3198544  58.4940342  40.7501608  37.5598544
  58.6080342  41.4541608  35.9648544  58.1410342  43.7331608  35.6758544
 129.2010342  52.2201608  57.8228544 130.4240342  52.7411608  57.5968544
 130.5280342  53.9981608  56.9918544 129.3630342  54.6861608  56.6358544
 128.1150342  54.1091608  56.8888544 128.0550342  52.8501608  57.4948544
 131.5680342  52.0121608  57.9728544 131.4960342  54.4391608  56.7988544
 129.4280342  55.6581608  56.1678544 127.2080342  54.6291608  56.6178544
 127.1390342  52.3271608  57.7288544 132.4880342  52.3931608  57.8078544
 131.4730342  51.1051608  58.4078544 129.1420342  51.3121608  58.2608544
 125.5080342  89.4881608  87.8328544 125.8280342  90.6401608  87.2098544
 125.1630342  90.9841608  86.0288544 124.1810342  90.1271608  85.5198544
 123.8800342  88.9421608  86.1988544 124.5680342  88.6351608  87.3758544
 126.8230342  91.4711608  87.7588544 125.4000342  91.9011608  85.5078544
 123.6580342  90.3791608  84.6088544 123.1230342  88.2711608  85.8168544
 124.4040342  87.7461608  87.9668544 127.0710342  92.3361608  87.2998544
 127.2940342  91.2051608  88.6128544 125.9970342  89.2531608  88.6848544
 128.5980342  95.2911608  45.9908544 128.3150342  94.6111608  44.8608544
 129.1010342  93.5071608  44.5148544 130.1620342  93.1321608  45.3468544
 130.4190342  93.8661608  46.5098544 129.6100342  94.9631608  46.8188544
 127.2380342  95.0251608  44.0548544 128.8970342  92.9441608  43.6158544
 130.7780342  92.2821608  45.0928544 131.2350342  93.5871608  47.1608544
 129.7330342  95.5871608  47.6928544 127.0180342  94.5221608  43.2068544
 126.6820342  95.8251608  44.3198544 128.0210342  96.0861608  46.2268544
 110.2570342 104.2781608 107.7148544 110.3230342 103.0411608 107.1828544
 109.2080342 102.2011608 107.2688544 108.0500342 102.6611608 107.9038544
 108.0240342 103.9521608 108.4418544 109.1600342 104.7601608 108.3348544
 111.5100342 102.6211608 106.5528544 109.2340342 101.2041608 106.8508544
 107.1800342 102.0241608 107.9778544 107.1360342 104.3201608 108.9348544
 109.2340342 105.7671608 108.7188544 111.5700342 101.6961608 106.1508544
 112.3060342 103.2411608 106.5018544 111.0700342 104.8731608 107.6448544
  30.7330342  93.7931608  51.6848544  32.0200342  93.6801608  52.0698544
  32.7570342  94.8391608  52.3348544  32.1430342  96.0891608  52.1938544
  30.8050342  96.1591608  51.7928544  30.1040342  94.9771608  51.5378544
  32.5950342  92.4011608  52.1978544  33.7900342  94.7781608  52.6448544
  32.6990342  96.9931608  52.3948544  30.3190342  97.1181608  51.6798544
  29.0720342  94.9331608  51.2248544  33.5590342  92.3061608  52.4858544
  32.0480342  91.5751608  52.0018544  30.2140342  92.9461608  51.4978544
 105.4720342  97.3981608  78.3208544 104.7550342  96.5551608  77.5508544
 103.9720342  95.5721608  78.1638544 103.9500342  95.4841608  79.5598544
 104.7090342  96.3791608  80.3198544 105.4790342  97.3471608  79.6688544
 104.8080342  96.6821608  76.1498544 103.3870342  94.8831608  77.5708544
 103.3500342  94.7291608  80.0478544 104.7010342  96.3221608  81.3988544
 106.0950342  98.0791608  80.1708544 104.2750342  96.0551608  75.5638544
 105.3810342  97.3981608  75.7248544 106.0330342  98.1031608  77.8638544
  52.7630342 126.3141608  70.1308544  52.0070342 126.1911608  69.0208544
  50.7380342 125.6121608  69.1218544  50.2800342 125.1741608  70.3698544
  51.0980342 125.3221608  71.4948544  52.3600342 125.9061608  71.3508544
  52.5090342 126.6461608  67.7868544  50.1110342 125.5011608  68.2478544
  49.3020342 124.7251608  70.4628544  50.7570342 124.9881608  72.4638544
  53.0580342 126.0611608  72.1598544  51.9510342 126.5581608  66.9498544
  53.4290342 127.0601608  67.7328544  53.6770342 126.7341608  70.0418544
  32.4500342 101.5071608  54.4438544  33.6200342 100.9351608  54.0938544
  34.6260342 101.7281608  53.5318544  34.3960342 103.0951608  53.3448544
  33.1680342 103.6471608  53.7218544  32.1900342 102.8201608  54.2798544
  33.8050342  99.5551608  54.3008544  35.5730342 101.2951608  53.2418544
  35.1640342 103.7211608  52.9118544  32.9780342 104.7021608  53.5828544
  31.2140342 103.1561608  54.6008544  34.6780342  99.1171608  54.0418544
  33.0670342  98.9971608  54.7078544  31.7340342 100.9211608  54.8488544
 103.5650342  78.0151608  99.2548544 103.7630342  79.3161608  99.5508544
 104.2080342  79.6641608 100.8298544 104.4370342  78.6571608 101.7738544
 104.2180342  77.3201608 101.4248544 103.7730342  77.0151608 100.1348544
 103.5190342  80.2941608  98.5678544 104.3760342  80.6981608 101.0938544
 104.7810342  78.9101608 102.7658544 104.3910342  76.5331608 102.1438544
 103.5770342  76.0151608  99.7758544 103.6650342  81.2711608  98.7798544
 103.1970342  80.0241608  97.6488544 103.2430342  77.7801608  98.3268544
  27.0870342 100.0961608  97.3658544  26.1020342  99.2141608  97.1008544
  26.3450342  97.8481608  97.2728544  27.6030342  97.4251608  97.7158544
  28.5960342  98.3741608  97.9788544  28.3130342  99.7301608  97.7938544
  24.8520342  99.6861608  96.6578544  25.5730342  97.1201608  97.0678544
  27.8050342  96.3731608  97.8528544  29.5720342  98.0611608  98.3208544
  29.0150342 100.5321608  97.9708544  24.1070342  99.0351608  96.4558544
  24.6950342 100.6781608  96.5378544  26.8960342 101.0791608  97.2368544
 130.2500342 107.9891608  71.1438544 130.3600342 109.2631608  71.5738544
 131.5390342 109.6691608  72.2058544 132.5780342 108.7481608  72.3788544
 132.4220342 107.4371608  71.9168544 131.2270342 107.0711608  71.2898544
 129.2880342 110.1541608  71.3778544 131.6540342 110.6841608  72.5608544
 133.4950342 109.0481608  72.8658544 133.2160342 106.7161608  72.0438544
 131.0170342 106.0851608  70.9028544 129.3600342 111.1101608  71.6968544
 128.4430342 109.8421608  70.9198544 129.3930342 107.7111608  70.6888544
 121.2860342  62.9631608 107.0968544 122.0810342  63.9691608 107.5138544
 123.4360342  63.7141608 107.7518544 123.9360342  62.4231608 107.5528544
 123.0760342  61.4091608 107.1198544 121.7280342  61.7051608 106.8928544
 121.5330342  65.2521608 107.7008544 124.0950342  64.5021608 108.0868544
 124.9790342  62.2101608 107.7328544 123.4490342  60.4071608 106.9618544
 120.9920342  60.9901608 106.5588544 122.1200342  66.0131608 108.0128544
 120.5520342  65.4181608 107.5248544 120.3100342  63.1631608 106.9288544
 109.2170342  72.2891608  67.2538544 109.7430342  72.9591608  66.2078544
 110.9160342  73.6981608  66.3918544 111.5160342  73.7281608  67.6558544
 110.9360342  73.0201608  68.7128544 109.7640342  72.2921608  68.4858544
 109.1040342  72.8991608  64.9558544 111.3590342  74.2441608  65.5708544
 112.4220342  74.2961608  67.8128544 111.3900342  73.0341608  69.6928544
 109.2460342  71.7161608  69.2388544 109.4900342  73.3961608  64.1658544
 108.2560342  72.3601608  64.8408544 108.3700342  71.7591608  67.1048544
 114.2610342  67.0161608 111.7968544 114.0620342  66.4581608 110.5858544
 113.1880342  65.3731608 110.4708544 112.5390342  64.8911608 111.6118544
 112.7740342  65.5001608 112.8488544 113.6560342  66.5821608 112.9218544
 114.7380342  66.9781608 109.4658544 113.0100342  64.9071608 109.5118544
 111.8600342  64.0541608 111.5388544 112.2790342  65.1371608 113.7388544
 113.8990342  67.1141608 113.8298544 114.5960342  66.5671608 108.5538544
 115.3670342  67.7621608 109.5678544 114.8960342  67.7991608 111.8648544
  42.2720342 124.3301608  56.3108544  42.1260342 123.2801608  57.1448544
  42.4990342 122.0051608  56.7068544  43.0140342 121.8471608  55.4148544
  43.1480342 122.9631608  54.5838544  42.7640342 124.2201608  55.0598544
  41.6030342 123.4871608  58.4348544  42.3930342 121.1461608  57.3538544
  43.3060342 120.8681608  55.0628544  43.5450342 122.8551608  53.5848544
  42.8300342 125.1361608  54.4918544  41.4900342 122.7071608  59.0668544
  41.3380342 124.4161608  58.7338544  41.9980342 125.2441608  56.6418544
  80.4530342 104.2461608 123.6288544  80.1690342 105.4871608 123.1828544
  80.3320342 105.7781608 121.8248544  80.7860342 104.7771608 120.9588544
  81.0680342 103.5041608 121.4628544  80.8920342 103.2541608 122.8268544
  79.7160342 106.4621608 124.0918544  80.1120342 106.7641608 121.4408544
  80.9170342 104.9871608 119.9068544  81.4190342 102.7211608 120.8048544
  81.0830342 102.3051608 123.3058544  79.5000342 107.3941608 123.7688544
  79.6040342 106.2331608 125.0698544  80.3300342 104.0521608 124.6118544
 100.5220342  35.9851608  50.6488544  99.2410342  36.3851608  50.5168544
  98.9710342  37.7341608  50.2648544 100.0330342  38.6381608  50.1548544
 101.3470342  38.1791608  50.2988544 101.5740342  36.8231608  50.5498544
  98.2050342  35.4391608  50.6348544  97.9530342  38.0821608  50.1548544
  99.8400342  39.6821608  49.9598544 102.1760342  38.8671608  50.2168544
 102.5510342  36.3791608  50.6758544  97.2420342  35.7291608  50.5378544
  98.4190342  34.4691608  50.8188544 100.7010342  35.0071608  50.8308544
  69.2820342  38.3591608  31.4588544  69.9840342  37.4021608  30.8198544
  70.5670342  36.3711608  31.5638544  70.4090342  36.3551608  32.9538544
  69.6730342  37.3681608  33.5768544  69.1060342  38.3801608  32.7958544
  70.1160342  37.4601608  29.4188544  71.1350342  35.5911608  31.0758544
  70.8530342  35.5651608  33.5418544  69.5430342  37.3671608  34.6498544
  68.5230342  39.2011608  33.1878544  70.6400342  36.7481608  28.9298544
  69.6880342  38.2131608  28.8978544  68.8670342  39.0971608  30.9078544
 109.6750342  78.3391608  30.8018544 109.0130342  79.1671608  31.6358544
 109.3840342  80.5141608  31.6958544 110.4320342  80.9731608  30.8918544
 111.0920342  80.0801608  30.0408544 110.6900342  78.7421608  30.0108544
 107.9640342  78.6591608  32.4258544 108.8700342  81.1991608  32.3558544
 110.7300342  82.0111608  30.9268544 111.9030342  80.4221608  29.4148544
 111.1390342  77.9821608  29.3878544 107.4620342  79.2711608  33.0538544
 107.7110342  77.6831608  32.3698544 109.3950342  77.3691608  30.7698544
  84.3070342  66.4731608  24.6928544  83.2050342  67.2171608  24.9188544
  83.0670342  67.8761608  26.1448544  84.0740342  67.7491608  27.1088544
  85.2000342  66.9681608  26.8318544  85.2990342  66.3251608  25.5938544
  82.2200342  67.3151608  23.9188544  82.1950342  68.4791608  26.3518544
  83.9810342  68.2521608  28.0598544  85.9840342  66.8611608  27.5678544
  86.1290342  65.7031608  25.2928544  81.3900342  67.8701608  24.0778544
  82.3360342  66.8311608  23.0388544  84.3930342  66.0031608  23.8018544
 105.8340342  69.0421608 102.5538544 104.6280342  68.5851608 102.1618544
 103.5760342  69.4921608 101.9968544 103.7970342  70.8511608 102.2428544
 105.0650342  71.2821608 102.6488544 106.0890342  70.3431608 102.8008544
 104.4520342  67.2081608 101.9258544 102.5990342  69.1531608 101.6828544
 102.9950342  71.5641608 102.1198544 105.2490342  72.3291608 102.8418544
 107.0970342  70.5811608 103.1098544 103.5530342  66.8561608 101.6308544
 105.2240342  66.5681608 102.0508544 106.5840342  68.3751608 102.6688544
  43.5800342  83.5121608  90.8128544  42.3050342  83.0741608  90.8578544
  42.0580342  81.6991608  90.9068544  43.1360342  80.8071608  90.9078544
  44.4430342  81.3041608  90.8598544  44.6470342  82.6861608  90.8128544
  41.2530342  84.0091608  90.8548544  41.0460342  81.3211608  90.9428544
  42.9610342  79.7421608  90.9448544  45.2850342  80.6271608  90.8608544
  45.6170342  83.1611608  90.7738544  40.2940342  83.6911608  90.8878544
  41.4510342  84.9991608  90.8178544  43.7430342  84.5081608  90.7778544
 100.5760342 121.6851608 106.2208544 100.1740342 122.1251608 107.4308544
  99.0500342 122.9531608 107.5158544  98.3680342 123.3071608 106.3458544
  98.8200342 122.8271608 105.1118544  99.9470342 122.0021608 105.0708544
 100.8920342 121.7431608 108.5798544  98.7060342 123.3211608 108.4718544
  97.4990342 123.9461608 106.3958544  98.3020342 123.0921608 104.2018544
 100.3680342 121.5851608 104.1668544 100.5990342 122.0681608 109.4908544
 101.7020342 121.1451608 108.4988544 101.3890342 121.0871608 106.1758544
  93.0310342  52.4601608  30.8408544  93.8920342  51.4871608  30.4788544
  95.1520342  51.4331608  31.0828544  95.4920342  52.3881608  32.0468544
  94.5680342  53.3801608  32.3918544  93.3190342  53.3991608  31.7648544
  93.5050342  50.5481608  29.5038544  95.8620342  50.6641608  30.8118544
  96.4620342  52.3601608  32.5218544  94.8180342  54.1241608  33.1348544
  92.5440342  54.1241608  31.9658544  94.1430342  49.8161608  29.2258544
  92.5910342  50.6031608  29.0778544  92.1240342  52.4851608  30.3958544
  73.2370342 107.4651608 113.2618544  73.9650342 106.8211608 114.1968544
  75.3560342 106.7651608 114.0578544  75.9600342 107.3771608 112.9548544
  75.1670342 108.0331608 112.0088544  73.7800342 108.0671608 112.1838544
  73.3130342 106.2211608 115.2898544  75.9640342 106.2561608 114.7928544
  77.0330342 107.3421608 112.8338544  75.6210342 108.5101608 111.1518544
  73.0890342 108.5481608 111.5078544  73.8490342 105.7371608 115.9958544
  72.3070342 106.2711608 115.3728544  72.2340342 107.4971608 113.3758544
  84.3310342 125.4561608  98.6498544  85.6270342 125.0831608  98.6778544
  85.9590342 123.8081608  99.1468544  84.9430342 122.9481608  99.5758544
  83.6120342 123.3751608  99.5288544  83.3220342 124.6571608  99.0528544
  86.6150342 125.9831608  98.2358544  86.9900342 123.4841608  99.1798544
  85.1840342 121.9601608  99.9398544  82.8170342 122.7211608  99.8568544
  82.3270342 125.0731608  98.9808544  87.5890342 125.7141608  98.2538544
  86.3560342 126.9001608  97.9018544  84.1070342 126.3801608  98.3078544
 111.0050342 120.2611608  76.4528544 109.9700342 119.3991608  76.3968544
 110.2290342 118.0261608  76.3298544 111.5540342 117.5781608  76.3218544
 112.5980342 118.5071608  76.3808544 112.2960342 119.8711608  76.4468544
 108.6530342 119.8971608  76.4078544 109.4180342 117.3131608  76.2838544
 111.7700342 116.5211608  76.2698544 113.6260342 118.1751608  76.3748544
 113.0320342 120.6591608  76.4948544 107.8700342 119.2591608  76.3658544
 108.4850342 120.8921608  76.4558544 110.8010342 121.2501608  76.5008544
 100.0980342  41.2821608  87.6788544  99.0640342  41.6691608  86.9028544
  98.0360342  40.7601608  86.6348544  98.1020342  39.4711608  87.1748544
  99.1920342  39.1121608  87.9738544 100.1990342  40.0501608  88.2178544
  99.0420342  42.9761608  86.3818544  97.1960342  41.0431608  86.0158544
  97.3150342  38.7581608  86.9758544  99.2550342  38.1191608  88.3968544
 101.0760342  39.8641608  88.8208544  98.2720342  43.2761608  85.7998544
  99.7940342  43.6191608  86.5858544 100.8330342  41.9501608  87.8638544
 112.7420342  80.1031608  67.4958544 111.8730342  80.8581608  68.1988544
 110.6040342  80.3471608  68.4878544 110.2630342  79.0651608  68.0428544
 111.1950342  78.3161608  67.3178544 112.4530342  78.8631608  67.0498544
 112.2610342  82.1421608  68.6248544 109.8880342  80.9311608  69.0488544
 109.2860342  78.6571608  68.2578544 110.9440342  77.3241608  66.9678544
 113.2340342  78.3611608  66.4988544 111.6180342  82.7171608  69.1518544
 113.1820342  82.4951608  68.4058544 113.6550342  80.4851608  67.2958544
  89.1610342  92.9271608 116.7308544  88.0070342  92.2351608 116.6398544
  88.0400342  90.8401608 116.7238544  89.2670342  90.1921608 116.9008544
  90.4400342  90.9491608 116.9908544  90.3640342  92.3421608 116.9018544
  86.7950342  92.9311608 116.4618544  87.1300342  90.2611608 116.6538544
  89.3090342  89.1151608 116.9678544  91.3950342  90.4611608 117.1278544
  91.2130342  93.0061608 116.9598544  85.9250342  92.4221608 116.3918544
  86.7910342  93.9391608 116.4018544  89.1200342  93.9341608 116.6688544
  52.1280342 121.4841608 105.7658544  50.8800342 120.9731608 105.7408544
  50.6300342 119.8181608 104.9928544  51.6790342 119.2181608 104.2878544
  52.9580342 119.7811608 104.3408544  53.1650342 120.9361608 105.1008544
  49.8570342 121.6121608 106.4668544  49.6390342 119.3881608 104.9558544
  51.5010342 118.3261608 103.7058544  53.7760342 119.3281608 103.8008544
  54.1150342 121.4401608 105.2008544  48.9180342 121.2381608 106.4558544
  50.0550342 122.4461608 107.0008544  52.2920342 122.3181608 106.3108544
  62.0800342  51.9581608  80.2448544  61.2640342  51.2831608  81.0808544
  61.0890342  49.9071608  80.8988544  61.7630342  49.2621608  79.8558544
  62.6000342  50.0001608  79.0128544  62.7470342  51.3741608  79.2288544
  60.6070342  51.9751608  82.1148544  60.4410342  49.3421608  81.5538544
  61.6370342  48.2001608  79.7028544  63.1260342  49.5141608  78.2038544
  63.3700342  52.0241608  78.6318544  59.9940342  51.4791608  82.7468544
  60.7450342  52.9691608  82.2308544  62.1960342  52.9511608  80.3898544
 113.7480342  91.7701608 127.3308544 112.9470342  91.8501608 126.2488544
 112.0030342  90.8421608 126.0228544 111.9110342  89.7751608 126.9228544
 112.7620342  89.7321608 128.0328544 113.6910342  90.7591608 128.2218544
 113.0760342  92.9431608 125.3708544 111.3490342  90.8811608 125.1638544
 111.1870342  88.9891608 126.7618544 112.7010342  88.9131608 128.7348544
 114.3860342  90.8111608 129.0468544 112.4810342  93.0121608 124.5578544
 113.7640342  93.6611608 125.5498544 114.4240342  92.5061608 127.4798544
  58.1380342  59.2021608  23.1058544  57.6030342  58.0671608  23.5988544
  56.8600342  58.1221608  24.7828544  56.6880342  59.3511608  25.4278544
  57.2600342  60.5041608  24.8808544  57.9960342  60.4061608  23.6968544
  57.8030342  56.8531608  22.9148544  56.4200342  57.2271608  25.1998544
  56.1160342  59.4091608  26.3428544  57.1350342  61.4601608  25.3698544
  58.4730342  61.2391608  23.2018544  57.4070342  55.9971608  23.2758544
  58.3440342  56.8331608  22.0608544  58.6720342  59.1461608  22.2498544
  25.8990342 106.5001608  63.0308544  26.0820342 107.5201608  62.1678544
  26.4600342 107.2391608  60.8508544  26.6400342 105.9081608  60.4578544
  26.4400342 104.8811608  61.3858544  26.0620342 105.2051608  62.6928544
  25.8890342 108.8431608  62.6088544  26.6130342 108.0371608  60.1378544
  26.9320342 105.6751608  59.4438544  26.5750342 103.8491608  61.0958544
  25.8860342 104.4821608  63.4758544  26.0240342 109.6141608  61.9698544
  25.6170342 109.0271608  63.5638544  25.6260342 106.7191608  63.9788544
  80.2860342  81.6161608  35.1078544  80.9120342  80.4391608  35.3128544
  80.4660342  79.3021608  34.6328544  79.3810342  79.4091608  33.7558544
  78.7610342  80.6491608  33.5728544  79.2380342  81.7611608  34.2718544
  82.0000342  80.3811608  36.2048544  80.9500342  78.3461608  34.7778544
  79.0250342  78.5391608  33.2228544  77.9220342  80.7451608  32.8988544
  78.8230342  82.7561608  34.1948544  82.4760342  79.5041608  36.3648544
  82.3080342  81.2131608  36.6878544  80.6200342  82.4281608  35.6068544
  65.6840342 116.8051608  42.8868544  65.2160342 115.5411608  42.9088544
  66.1250342 114.4781608  42.9348544  67.4970342 114.7491608  42.9358544
  67.9390342 116.0761608  42.9118544  66.9980342 117.1091608  42.8868544
  63.8260342 115.3171608  42.9068544  65.7770342 113.4551608  42.9528544
  68.2110342 113.9381608  42.9548544  68.9960342 116.2991608  42.9118544
  67.2440342 118.1611608  42.8678544  63.4650342 114.3741608  42.9238544
  63.1850342 116.0981608  42.8878544  65.0150342 117.5621608  42.8688544
  99.0390342 101.5101608  73.1598544 100.0510342 102.0271608  72.4348544
 100.0120342 101.9291608  71.0408544  98.9240342 101.2971608  70.4288544
  97.8950342 100.7741608  71.2188544  97.9730342 100.8931608  72.6088544
 101.1250342 102.6541608  73.0948544 100.8100342 102.3351608  70.4358544
  98.8790342 101.2131608  69.3518544  97.0490342 100.2841608  70.7588544
  97.2290342 100.5221608  73.2978544 101.8890342 103.0451608  72.5618544
 101.1370342 102.7151608  74.1038544  99.0820342 101.5891608  74.1658544
  92.9070342 101.9331608  29.8468544  93.7270342 102.9871608  30.0358544
  94.7850342 103.1961608  29.1448544  94.9700342 102.3091608  28.0788544
  94.0960342 101.2291608  27.9198544  93.0510342 101.0561608  28.8328544
  93.5020342 103.8531608  31.1228544  95.4580342 104.0331608  29.2728544
  95.7830342 102.4581608  27.3828544  94.2270342 100.5361608  27.1018544
  92.3290342 100.2541608  28.7908544  94.1100342 104.6451608  31.2728544
  92.7330342 103.6851608  31.7558544  92.1480342 101.7961608  30.4978544
  80.1390342  98.9071608  22.0258544  80.1270342  98.0151608  21.0148544
  80.3770342  96.6671608  21.2918544  80.6350342  96.2741608  22.6098544
  80.6380342  97.2331608  23.6278544  80.3820342  98.5701608  23.3088544
  79.8630342  98.4571608  19.7048544  80.3740342  95.9311608  20.5008544
  80.8300342  95.2371608  22.8388544  80.8350342  96.9431608  24.6498544
  80.3640342  99.3781608  24.0258544  79.8520342  97.7971608  18.9398544
  79.6850342  99.4351608  19.5228544  79.9560342  99.8771608  21.8098544
  92.9630342 126.6421608  67.8508544  92.2040342 125.6861608  68.4228544
  92.0220342 124.4701608  67.7558544  92.6300342 124.2731608  66.5118544
  93.4100342 125.2921608  65.9548544  93.5670342 126.4921608  66.6548544
  91.6120342 125.9301608  69.6768544  91.4180342 123.6861608  68.1918544
  92.4990342 123.3391608  65.9848544  93.8850342 125.1531608  64.9948544
  94.1480342 127.3331608  66.3048544  91.0410342 125.2201608  70.1138544
  91.7540342 126.8151608  70.1438544  93.0850342 127.5151608  68.3448544
 122.9220342  97.4121608  93.6338544 124.1940342  97.1341608  93.9828544
 124.6380342  95.8081608  93.9418544 123.7540342  94.8011608  93.5398544
 122.4430342  95.1351608  93.1848544 122.0390342  96.4721608  93.2398544
 125.0470342  98.1801608  94.3818544 125.6520342  95.5571608  94.2168544
 124.0820342  93.7731608  93.5028544 121.7500342  94.3671608  92.8728544
 121.0490342  96.8241608  92.9858544 126.0020342  97.9821608  94.6458544
 124.7090342  99.1321608  94.4068544 122.6160342  98.3751608  93.6688544
  42.8540342  64.6031608  87.4888544  42.6050342  65.7631608  86.8468544
  41.3860342  65.9261608  86.1818544  40.4510342  64.8851608  86.1968544
  40.7500342  63.6991608  86.8748544  41.9800342  63.5761608  87.5278544
  43.5760342  66.7821608  86.8588544  41.1610342  66.8451608  85.6598544
  39.5050342  64.9971608  85.6878544  40.0370342  62.8871608  86.8948544
  42.2980342  62.7011608  88.0748544  43.4000342  67.6541608  86.3808544
  44.4520342  66.6451608  87.3438544  43.7390342  64.5001608  87.9648544
 101.2400342 120.4161608 115.6948544 101.1150342 119.1651608 116.1828544
 100.4570342 118.9711608 117.4018544  99.9450342 120.0781608 118.0878544
 100.0970342 121.3581608 117.5448544 100.7610342 121.5081608 116.3238544
 101.6470342 118.0821608 115.4568544 100.3430342 117.9791608 117.8158544
  99.4350342 119.9441608 119.0308544  99.7060342 122.2211608 118.0648544
 100.9260342 122.4541608 115.8288544 101.5580342 117.1411608 115.8138544
 102.1200342 118.2411608 114.5778544 101.7180342 120.5391608 114.8128544
 110.8470342  63.6681608  94.6118544 111.8360342  64.5701608  94.4438544
 111.5220342  65.9321608  94.4268544 110.1900342  66.3311608  94.5848544
 109.1950342  65.3621608  94.7558544 109.5520342  64.0111608  94.7678544
 113.1620342  64.1211608  94.2898544 112.2950342  66.6761608  94.2938544
 109.9310342  67.3801608  94.5738544 108.1630342  65.6561608  94.8788544
 108.8550342  63.1951608  94.8938544 113.9100342  64.7881608  94.1628544
 113.3700342  63.1331608  94.3038544 111.0900342  62.6881608  94.6218544
  56.6110342 110.2901608  29.3628544  56.8950342 110.9051608  28.1968544
  55.9220342 111.7091608  27.5948544  54.6760342 111.8581608  28.2148544
  54.4240342 111.2021608  29.4238544  55.4230342 110.4071608  29.9918544
  58.1620342 110.7251608  27.6108544  56.1230342 112.2141608  26.6608544
  53.9150342 112.4761608  27.7618544  53.4660342 111.3081608  29.9128544
  55.3200342 109.8641608  30.9198544  58.3850342 111.1821608  26.7368544
  58.8530342 110.1401608  28.0588544  57.3240342 109.7121608  29.7848544
 104.6640342  96.7721608  43.7948544 103.4540342  96.2731608  44.1208544
 102.6430342  96.9821608  45.0118544 103.1020342  98.1911608  45.5448544
 104.3640342  98.6711608  45.1798544 105.1440342  97.9321608  44.2858544
 103.0340342  95.0531608  43.5588544 101.6680342  96.6061608  45.2898544
 102.4860342  98.7501608  46.2348544 104.7310342  99.6041608  45.5848544
 106.1280342  98.2231608  43.9468544 102.1300342  94.6711608  43.7958544
 103.6350342  94.5541608  42.9168544 105.2390342  96.2481608  43.1498544
  94.3930342  65.3431608  22.6868544  95.4390342  66.1141608  23.0488544
  95.2000342  67.4071608  23.5238544  93.8830342  67.8731608  23.6128544
  92.8290342  67.0401608  23.2268544  93.1100342  65.7531608  22.7578544
  96.7460342  65.6021608  22.9408544  96.0190342  68.0471608  23.8208544
  93.6830342  68.8701608  23.9778544  91.8070342  67.3871608  23.2908544
  92.3640342  65.0411608  22.4378544  97.5360342  66.1711608  23.2098544
  96.8990342  64.6651608  22.5948544  94.5820342  64.4111608  22.3458544
  63.6480342 134.5311608  51.6318544  62.3670342 134.1101608  51.6058544
  62.0440342 132.9571608  50.8838544  63.0540342 132.2661608  50.2048544
  64.3690342 132.7391608  50.2588544  64.6510342 133.8951608  50.9918544
  61.3850342 134.8371608  52.3038544  61.0250342 132.5971608  50.8458544
  62.8190342 131.3741608  49.6428544  65.1590342 132.2151608  49.7398544
  65.6330342 134.3331608  51.0908544  60.4230342 134.5301608  52.2908544
  61.6380342 135.6691608  52.8198544  63.8660342 135.3661608  52.1578544
  44.4000342  77.4701608  97.4978544  43.3330342  76.9401608  96.8648544
  42.8840342  77.5281608  95.6778544  43.5490342  78.6511608  95.1738544
  44.6510342  79.1681608  95.8628544  45.0680342  78.5511608  97.0458544
  42.6960342  75.8101608  97.4098544  42.0310342  77.1241608  95.1498544
  43.2130342  79.1171608  94.2588544  45.1730342  80.0351608  95.4848544
  45.9060342  78.8781608  97.6438544  41.8970342  75.4051608  96.9438544
  43.0350342  75.3991608  98.2688544  44.7130342  77.0341608  98.3538544
  64.6390342  96.3421608  27.2558544  63.9280342  96.8531608  26.2298544
  62.8570342  97.7101608  26.5028544  62.5480342  98.0191608  27.8318544
  63.3110342  97.4671608  28.8658544  64.3730342  96.6141608  28.5498544
  64.2770342  96.5141608  24.9088544  62.2710342  98.1341608  25.6998544
  61.7230342  98.6801608  28.0588544  63.0830342  97.6971608  29.8958544
  65.0170342  96.1421608  29.2778544  63.7510342  96.8911608  24.1338544
  65.0530342  95.8921608  24.7308544  65.4090342  95.7241608  27.0428544
  70.2330342  30.7651608 111.8968544  69.3280342  31.4391608 112.6348544
  69.0980342  32.7911608 112.3618544  69.8100342  33.4151608 111.3318544
  70.7400342  32.6771608 110.5908544  70.9400342  31.3281608 110.8958544
  68.6360342  30.7701608 113.6618544  68.3780342  33.3561608 112.9378544
  69.6430342  34.4581608 111.1088544  71.2970342  33.1461608 109.7918544
  71.6350342  30.6801608 110.3798544  67.9560342  31.2661608 114.2198544
  68.8160342  29.7931608 113.8448544  70.3890342  29.7891608 112.1058544
  89.0790342  45.9411608 120.2168544  90.4210342  46.0681608 120.1658544
  90.9840342  47.3471608 120.1348544  90.1450342  48.4671608 120.1558544
  88.7590342  48.2901608 120.2088544  88.2360342  46.9941608 120.2398544
  91.2250342  44.9121608 120.1458544  92.0570342  47.4781608 120.0938544
  90.5660342  49.4621608 120.1318544  88.1000342  49.1461608 120.2268544
  87.1820342  46.7601608 120.2808544  92.2310342  44.9961608 120.1078544
  90.8000342  43.9961608 120.1688544  88.6870342  45.0101608 120.2398544
  61.0620342  36.8381608  69.2478544  60.3730342  37.5591608  68.3398544
  61.0260342  38.0081608  67.1878544  62.3790342  37.7001608  67.0018544
  63.0550342  36.9491608  67.9688544  62.3650342  36.5201608  69.1058544
  59.0140342  37.8441608  68.5698544  60.4980342  38.5881608  66.4438544
  62.8970342  38.0401608  66.1168544  64.0990342  36.7051608  67.8378544
  62.8030342  35.9371608  69.9038544  58.4890342  38.3831608  67.8968544
  58.5590342  37.5121608  69.4088544  60.5770342  36.5201608  70.0748544
 129.7240342  97.9791608 107.3298544 128.8050342  97.9131608 106.3438544
 127.4700342  97.6561608 106.6728544 127.1170342  97.4751608 108.0138544
 128.1010342  97.5521608 109.0038544 129.4240342  97.8101608 108.6338544
 129.2080342  98.1021608 105.0088544 126.7140342  97.5981608 105.9028544
 126.0890342  97.2761608 108.2838544 127.8420342  97.4141608 110.0438544
 130.2500342  97.8881608 109.3258544 128.5280342  98.0541608 104.2628544
 130.1780342  98.2861608 104.7908544 130.6840342  98.1651608 107.0768544
 112.7400342  43.8241608 117.1158544 113.7300342  43.1871608 116.4588544
 113.6940342  43.1281608 115.0618544 112.6330342  43.7321608 114.3778544
 111.6270342  44.3831608 115.0988544 111.7010342  44.4181608 116.4948544
 114.7770342  42.5951608 117.1898544 114.4740342  42.6241608 114.5098544
 112.5910342  43.6951608 113.2988544 110.8020342  44.8531608 114.5828544
 110.9730342  44.8961608 117.1338544 115.5230342  42.1151608 116.7078544
 114.7860342  42.6461608 118.1998544 112.7800342  43.8581608 118.1248544
 110.5230342  63.2491608  63.2208544 111.7320342  62.6521608  63.2518544
 111.8150342  61.2951608  63.5798544 110.6440342  60.5871608  63.8678544
 109.4100342  61.2441608  63.8248544 109.3710342  62.6021608  63.4918544
 112.8830342  63.4061608  62.9548544 112.7710342  60.7931608  63.6118544
 110.6920342  59.5381608  64.1228544 108.4980342  60.7091608  64.0448544
 108.4680342  63.1911608  63.4338544 113.7940342  62.9691608  62.9748544
 112.8040342  64.3861608  62.7208544 110.4800342  64.2291608  62.9828544
  82.4300342  95.9941608  33.8208544  81.3210342  95.2381608  33.6878544
  81.4180342  93.8521608  33.8458544  82.6600342  93.2801608  34.1398544
  83.7850342  94.1021608  34.2688544  83.6450342  95.4831608  34.1028544
  80.0920342  95.8591608  33.3918544  80.5450342  93.2231608  33.7448544
  82.7500342  92.2111608  34.2648544  84.7510342  93.6731608  34.4958544
  84.4550342  96.1941608  34.1848544  79.2560342  95.3021608  33.2898544
  80.0420342  96.8621608  33.2798544  82.3440342  96.9941608  33.7038544
  25.2690342  80.6961608  52.6048544  25.1790342  81.7451608  53.4458544
  26.2620342  82.0471608  54.2778544  27.4140342  81.2551608  54.2198544
  27.4650342  80.1751608  53.3318544  26.3600342  79.9081608  52.5178544
  24.0000342  82.5141608  53.4698544  26.2170342  82.8831608  54.9618544
  28.2580342  81.4761608  54.8558544  28.3480342  79.5561608  53.2758544
  26.3080342  79.0981608  51.8038544  23.9220342  83.3021608  54.0968544
  23.2270342  82.2801608  52.8628544  24.4790342  80.4901608  52.0098544
  32.3350342  74.3711608  64.3888544  33.1010342  73.3001608  64.6768544
  33.7100342  73.2151608  65.9338544  33.5100342  74.2411608  66.8628544
  32.7070342  75.3351608  66.5218544  32.1170342  75.3811608  65.2558544
  33.2730342  72.2911608  63.7098544  34.3290342  72.3671608  66.1908544
  33.9740342  74.1901608  67.8378544  32.5450342  76.1341608  67.2308544
  31.4840342  76.1821608  64.9048544  33.8460342  71.4851608  63.9158544
  32.8270342  72.3701608  62.8068544  31.9020342  74.4181608  63.4768544
  29.9540342  59.3181608  73.9688544  30.1370342  58.0051608  73.7208544
  31.4360342  57.4851608  73.7248544  32.5150342  58.3371608  73.9848544
  32.2790342  59.6921608  74.2368544  30.9660342  60.1721608  74.2238544
  29.0210342  57.1871608  73.4638544  31.6110342  56.4371608  73.5288544
  33.5230342  57.9501608  73.9908544  33.1030342  60.3611608  74.4398544
  30.6880342  61.2001608  74.4068544  29.1470342  56.2021608  73.2768544
  28.0900342  57.5801608  73.4638544  29.0100342  59.6791608  73.9618544
  71.2310342  20.0641608  97.3678544  71.7770342  21.2951608  97.4428544
  73.1330342  21.4221608  97.7598544  73.8940342  20.2701608  97.9918544
  73.2870342  19.0131608  97.9038544  71.9290342  18.9311608  97.5838544
  70.9730342  22.4251608  97.2008544  73.5960342  22.3961608  97.8268544
  74.9420342  20.3521608  98.2378544  73.8620342  18.1161608  98.0798544
  71.3760342  18.0071608  97.4938544  71.3720342  23.3521608  97.2548544
  69.9940342  22.3141608  96.9738544  70.2510342  19.9901608  97.1378544
  43.0740342 120.1161608  98.3738544  44.2770342 120.6421608  98.0658544
  44.4180342 122.0321608  98.0038544  43.3100342 122.8461608  98.2618544
  42.0810342 122.2581608  98.5778544  41.9820342 120.8651608  98.6298544
  45.3640342 119.7831608  97.8138544  45.3710342 122.4801608  97.7588544
  43.4030342 123.9211608  98.2178544  41.2170342 122.8751608  98.7798544
  41.0770342 120.3231608  98.8648544  46.2690342 120.1671608  97.5818544
  45.2430342 118.7811608  97.8628544  42.9890342 119.1101608  98.4148544
  81.7230342  54.5401608  29.0118544  82.4880342  54.6841608  30.1138544
  81.8700342  54.7841608  31.3638544  80.4740342  54.7331608  31.4458544
  79.7190342  54.5821608  30.2778544  80.3760342  54.4861608  29.0478544
  83.8880342  54.7301608  29.9818544  82.4590342  54.9001608  32.2638544
  79.9820342  54.8091608  32.4048544  78.6410342  54.5411608  30.3268544
  79.8780342  54.3681608  28.0958544  84.4700342  54.8381608  30.8008544
  84.3170342  54.6571608  29.0698544  82.1840342  54.4691608  28.1158544
 117.5930342  79.6791608  70.0648544 117.1310342  80.8681608  70.4998544
 115.8580342  80.9361608  71.0758544 115.0930342  79.7701608  71.1878544
 115.6110342  78.5571608  70.7228544 116.8870342  78.5331608  70.1538544
 117.9370342  82.0151608  70.3668544 115.4640342  81.8771608  71.4338544
 114.1080342  79.8071608  71.6308544 115.0300342  77.6491608  70.8038544
 117.3690342  77.6451608  69.7688544 117.6010342  82.9111608  70.6898544
 118.8540342  81.9461608  69.9468544 118.5140342  79.6461608  69.6508544
  67.7460342  98.2891608  36.1078544  68.6420342  97.6351608  36.8748544
  69.8350342  97.1891608  36.2978544  70.0740342  97.4301608  34.9408544
  69.1170342  98.1121608  34.1818544  67.9370342  98.5411608  34.7968544
  68.3590342  97.4161608  38.2358544  70.5710342  96.6621608  36.8898544
  70.9910342  97.0911608  34.4818544  69.2880342  98.3041608  33.1328544
  67.1440342  99.0741608  34.2928544  69.0230342  96.9281608  38.8188544
  67.4900342  97.7451608  38.6348544  66.8890342  98.6061608  36.5388544
  51.2120342  78.1661608  25.4978544  51.4840342  77.0491608  26.2038544
  52.6920342  76.3801608  25.9808544  53.5890342  76.8811608  25.0318544
  53.2660342  78.0421608  24.3218544  52.0490342  78.6811608  24.5748544
  50.5510342  76.5831608  27.1478544  52.9360342  75.4831608  26.5328544
  54.5260342  76.3751608  24.8488544  53.9500342  78.4401608  23.5858544
  51.7150342  79.5801608  24.0768544  50.7450342  75.7481608  27.6818544
  49.6830342  77.0791608  27.2948544  50.3360342  78.6381608  25.6698544
 110.8690342 100.1241608  79.6158544 111.4670342  98.9881608  79.2038544
 111.8000342  98.0121608  80.1498544 111.5060342  98.2361608  81.4988544
 110.8840342  99.4291608  81.8818544 110.5680342 100.3781608  80.9048544
 111.7440342  98.8071608  77.8358544 112.2800342  97.0921608  79.8478544
 111.7570342  97.4921608  82.2408544 110.6510342  99.6141608  82.9198544
 110.0890342 101.3261608  81.1058544 112.1920342  97.9601608  77.5178544
 111.4970342  99.5241608  77.1678544 110.6340342 100.8191608  78.9208544
  23.8350342  70.8461608  80.2648544  23.9380342  70.1161608  81.3938544
  23.9840342  70.7721608  82.6278544  23.9230342  72.1691608  82.6648544
  23.8170342  72.8871608  81.4698544  23.7740342  72.1931608  80.2568544
  23.9970342  68.7121608  81.3068544  24.0670342  70.2111608  83.5488544
  23.9580342  72.6901608  83.6108544  23.7690342  73.9671608  81.4838544
  23.6930342  72.6611608  79.2858544  24.0740342  68.1561608  82.1468544
  23.9630342  68.2561608  80.4068544  23.8030342  70.3581608  79.3808544
  98.2180342  66.5291608 121.9448544  97.4620342  65.4131608 121.8948544
  97.8980342  64.3291608 121.1258544  99.1060342  64.4251608 120.4268544
  99.8590342  65.6021608 120.5078544  99.3880342  66.6621608 121.2868544
  96.2540342  65.3631608 122.6148544  97.3120342  63.4231608 121.0678544
  99.4560342  63.5961608 119.8288544 100.7930342  65.6891608 119.9728544
  99.8980342  67.6061608 121.4088544  95.6810342  64.5311608 122.5838544
  95.9550342  66.1561608 123.1638544  97.8900342  67.3041608 122.5048544
 110.7240342  71.2891608 126.4508544 110.0240342  70.2421608 126.9348544
 110.4180342  69.6591608 128.1428544 111.5280342  70.1731608 128.8238544
 112.2240342  71.2601608 128.2858544 111.7980342  71.8141608 127.0758544
 108.9150342  69.7601608 126.2148544 109.8760342  68.8191608 128.5538544
 111.8440342  69.7331608 129.7578544 113.0830342  71.6671608 128.8008544
 112.2720342  72.6521608 126.5848544 108.3840342  68.9761608 126.5688544
 108.6450342  70.1931608 125.3428544 110.4270342  71.7001608 125.5778544
 104.7310342  68.5921608 117.6568544 105.3820342  69.0471608 116.5678544
 106.6740342  69.5621608 116.7108544 107.2620342  69.5951608 117.9798544
 106.5510342  69.1131608 119.0838544 105.2620342  68.6051608 118.8968544
 104.7500342  68.9941608 115.3108544 107.2190342  69.9341608 115.8548544
 108.2600342  69.9911608 118.1068544 106.9940342  69.1321608 120.0688544
 104.6390342  68.2121608 119.6868544 105.2290342  69.3321608 114.4888544
 103.8150342  68.6181608 115.2268544 103.7980342  68.2221608 117.5378544
 130.2240342  88.7851608 102.0358544 130.6670342  89.9391608 101.4968544
 132.0410342  90.1261608 101.3198544 132.9260342  89.1131608 101.7048544
 132.4240342  87.9321608 102.2598544 131.0430342  87.7851608 102.4198544
 129.7380342  90.9301608 101.1248544 132.4230342  91.0411608 100.8908544
 133.9910342  89.2431608 101.5748544 133.0960342  87.1411608 102.5618544
 130.5650342  86.9111608 102.8378544 130.0590342  91.7981608 100.7208544
 128.7490342  90.7781608 101.2618544 129.2280342  88.6651608 102.1578544
  52.9310342  38.0961608  54.7648544  53.2240342  37.3121608  53.7078544
  52.3290342  37.2521608  52.6348544  51.1520342  38.0071608  52.6798544
  50.8880342  38.8071608  53.7958544  51.8080342  38.8391608  54.8478544
  54.4210342  36.5711608  53.7068544  52.5390342  36.6321608  51.7748544
  50.4520342  37.9711608  51.8578544  49.9820342  39.3951608  53.8438544
  51.6890342  39.4251608  55.7468544  54.6490342  35.9801608  52.9198544
  55.0540342  36.6261608  54.4918544  53.5870342  38.1291608  55.5328544
  65.5810342  34.5391608  75.7328544  65.4630342  33.2621608  76.1508544
  66.5800342  32.6161608  76.6898544  67.7930342  33.3061608  76.7838544
  67.8710342  34.6291608  76.3388544  66.7310342  35.2391608  75.8058544
  64.2220342  32.6081608  76.0358544  66.5130342  31.5931608  77.0328544
  68.6640342  32.8201608  77.1978544  68.8020342  35.1741608  76.4048544
  66.6960342  36.2541608  75.4378544  64.1230342  31.6521608  76.3458544
  63.4260342  33.0911608  75.6428544  64.7650342  34.9931608  75.3458544
  34.4800342  44.1241608  68.3278544  33.4930342  43.4571608  67.6938544
  32.5270342  44.1801608  66.9878544  32.6040342  45.5771608  66.9528544
  33.6440342  46.2281608  67.6238544  34.5900342  45.4681608  68.3188544
  33.4560342  42.0521608  67.7578544  31.7250342  43.6721608  66.4708544
  31.8650342  46.1491608  66.4108544  33.7160342  47.3051608  67.6048544
  35.4260342  45.8811608  68.8648544  32.7210342  41.5431608  67.2868544
  34.1620342  41.5461608  68.2738544  35.1700342  43.5881608  68.8338544
  87.5390342  53.1471608 117.6198544  87.7530342  51.8841608 118.0428544
  86.6580342  51.0381608 118.2448544  85.3660342  51.5191608 118.0038544
  85.1900342  52.8351608 117.5658544  86.3110342  53.6481608 117.3758544
  89.0710342  51.4451608 118.2718544  86.8000342  50.0221608 118.5838544
  84.5100342  50.8771608 118.1558544  84.1980342  53.2191608 117.3758544
  86.2730342  54.6751608 117.0408544  89.2420342  50.5021608 118.5888544
  89.8500342  52.0711608 118.1218544  88.3400342  53.7461608 117.4778544
  42.2300342  53.7291608  89.8718544  40.9260342  53.4441608  89.6808544
  40.4470342  52.1771608  90.0288544  41.3300342  51.2341608  90.5678544
  42.6740342  51.5721608  90.7488544  43.1130342  52.8491608  90.3878544
  40.0760342  54.4241608  89.1358544  39.4070342  51.9211608  89.8858544
  40.9740342  50.2511608  90.8418544  43.3670342  50.8531608  91.1638544
  44.1300342  53.1991608  90.4918544  39.0980342  54.2211608  88.9878544
  40.4410342  55.3341608  88.8888544  42.5610342  54.6481608  89.6158544
  25.2170342  91.1641608  73.3608544  25.2650342  91.1371608  72.0128544
  26.4930342  91.3231608  71.3708544  27.6440342  91.5341608  72.1378544
  27.5490342  91.5551608  73.5338544  26.3020342  91.3641608  74.1368544
  24.0810342  90.9211608  71.2828544  26.5600342  91.3061608  70.2918544
  28.5990342  91.6801608  71.6558544  28.4290342  91.7161608  74.1378544
  26.1320342  91.3631608  75.2028544  24.1060342  90.8991608  70.2728544
  23.2020342  90.7891608  71.7648544  24.3230342  91.0271608  73.8098544
  35.0560342 104.4061608  95.3688544  34.1030342 105.2991608  95.7018544
  32.9510342 105.3931608  94.9148544  32.8120342 104.5601608  93.7998544
  33.8260342 103.6471608  93.4898544  34.9620342 103.5851608  94.3028544
  34.2860342 106.1171608  96.8338544  32.1710342 106.1001608  95.1598544
  31.9280342 104.6211608  93.1818544  33.7320342 102.9981608  92.6318544
  35.7930342 102.9151608  94.1418544  33.5780342 106.7891608  97.0918544
  35.1250342 106.0361608  97.3898544  35.8820342 104.3511608  95.9468544
  42.4170342  95.2801608 107.5458544  43.0360342  94.1501608 107.9438544
  44.2230342  94.2441608 108.6758544  44.7440342  95.5061608 108.9798544
  44.0700342  96.6531608 108.5478544  42.8850342  96.5151608 107.8178544
  42.4750342  92.9011608 107.6138544  44.7400342  93.3541608 109.0068544
  45.6600342  95.5951608 109.5448544  44.4600342  97.6341608 108.7748544
  42.2980342  97.3411608 107.4438544  42.9300342  92.0481608 107.9078544
  41.6160342  92.8531608 107.0838544  41.5600342  95.1961608 107.0178544
  39.0990342  61.4611608  63.9638544  40.1010342  62.2491608  64.4028544
  41.2740342  62.3451608  63.6488544  41.3840342  61.6221608  62.4558544
  40.3200342  60.8171608  62.0368544  39.1650342  60.7481608  62.8198544
  39.9450342  62.9581608  65.6098544  42.0930342  62.9701608  63.9778544
  42.2840342  61.6861608  61.8618544  40.3920342  60.2531608  61.1178544
  38.2950342  60.1551608  62.5778544  40.6900342  63.5511608  65.9478544
  39.0900342  62.8751608  66.1418544  38.2580342  61.4021608  64.5198544
  72.7850342  34.0531608  78.9658544  73.8350342  33.2631608  79.2678544
  73.7280342  31.8831608  79.0728544  72.5360342  31.3511608  78.5678544
  71.4720342  32.2071608  78.2678544  71.6190342  33.5821608  78.4778544
  75.0140342  33.8431608  79.7738544  74.5540342  31.2261608  79.3068544
  72.4390342  30.2871608  78.4118544  70.5450342  31.8111608  77.8778544
  70.8550342  34.3171608  78.2748544  75.8070342  33.2601608  80.0028544
  75.0730342  34.8431608  79.9088544  72.8770342  35.0491608  79.1118544
  52.5400342 107.9531608  53.7858544  52.6550342 109.0911608  54.4998544
  52.9830342 109.0151608  55.8568544  53.1850342 107.7611608  56.4438544
  53.0550342 106.6051608  55.6658544  52.7260342 106.7261608  54.3128544
  52.4430342 110.3301608  53.8658544  53.0820342 109.9111608  56.4528544
  53.4390342 107.6851608  57.4908544  53.2080342 105.6311608  56.1068544
  52.6050342 105.8931608  53.6358544  52.5270342 111.1891608  54.3918544
  52.2060342 110.3661608  52.8838544  52.3030342 108.0251608  52.8068544
  90.1040342 104.4591608  26.6688544  88.9630342 104.3381608  25.9608544
  88.2290342 103.1501608  26.0478544  88.6950342 102.1151608  26.8668544
  89.8830342 102.2841608  27.5838544  90.5870342 103.4861608  27.4688544
  88.5340342 105.4061608  25.1498544  87.3110342 103.0261608  25.4908544
  88.1390342 101.1921608  26.9448544  90.2540342 101.4931608  28.2198544
  91.5110342 103.7071608  27.9828544  87.6810342 105.3251608  24.6148544
  89.0780342 106.2561608  25.0978544  90.6230342 105.3231608  26.5948544
 133.7570342  77.6101608  71.1588544 134.7890342  77.3471608  70.3308544
 134.7130342  77.7591608  68.9968544 133.5720342  78.4341608  68.5498544
 132.5250342  78.6861608  69.4438544 132.6400342  78.2571608  70.7688544
 135.9170342  76.6651608  70.8248544 135.5250342  77.5621608  68.3108544
 133.4990342  78.7581608  67.5218544 131.6380342  79.2061608  69.1118544
 131.8860342  78.4061608  71.5278544 136.6940342  76.4641608  70.2128544
 135.9530342  76.3751608  71.7918544 133.8270342  77.3061608  72.1198544
  74.6670342  19.8541608  60.6828544  73.3670342  20.2011608  60.7778544
  72.8290342  20.4951608  62.0348544  73.6500342  20.4231608  63.1658544
  74.9930342  20.0601608  63.0218544  75.4910342  19.7741608  61.7478544
  72.5800342  20.2591608  59.6118544  71.7900342  20.7751608  62.1388544
  73.2490342  20.6471608  64.1428544  75.6370342  20.0011608  63.8868544
  76.5110342  19.4851608  61.5398544  71.6050342  20.5181608  59.6718544
  72.9850342  20.0421608  58.7118544  75.0400342  19.6451608  59.7678544
  43.5430342  82.6231608 127.1098544  44.6480342  83.3221608 127.4438544
  45.0320342  83.3881608 128.7868544  44.2650342  82.7301608 129.7538544
  43.1270342  82.0171608 129.3638544  42.7770342  81.9751608 128.0108544
  45.3880342  83.9681608 126.4358544  45.9130342  83.9411608 129.0818544
  44.5490342  82.7731608 130.7948544  42.5250342  81.5041608 130.0998544
  41.9180342  81.4511608 127.6168544  46.2170342  84.4931608 126.6758544
  45.0950342  83.9091608 125.4708544  43.2780342  82.5841608 126.1358544
  49.8210342  53.3661608  41.4368544  49.8030342  54.4181608  40.5928544
  49.3280342  54.2401608  39.2898544  48.8810342  52.9761608  38.8898544
  48.9160342  51.9121608  39.7968544  49.3990342  52.1321608  41.0908544
  50.2630342  55.6711608  41.0408544  49.3030342  55.0661608  38.5938544
  48.5110342  52.8231608  37.8868544  48.5740342  50.9311608  39.5008544
  49.4640342  51.3741608  41.8568544  50.2550342  56.4661608  40.4168544
  50.6040342  55.7811608  41.9858544  50.1670342  53.5101608  42.3748544
  94.6640342  93.6891608 120.8818544  95.5360342  92.6611608 120.9248544
  96.8940342  92.9091608 120.7018544  97.3180342  94.2171608 120.4398544
  96.3790342  95.2531608 120.4048544  95.0310342  94.9621608 120.6328544
  95.0620342  91.3631608 121.1928544  97.6140342  92.1041608 120.7308544
  98.3640342  94.4241608 120.2658544  96.6930342  96.2671608 120.2028544
  94.2370342  95.6951608 120.6258544  95.7070342  90.5861608 121.2268544
  94.0770342  91.2021608 121.3498544  93.6860342  93.4931608 121.0448544
 104.8490342  65.6561608  49.0098544 105.0510342  66.9241608  49.4238544
 106.3400342  67.3261608  49.7848544 107.3920342  66.4061608  49.7078544
 107.1380342  65.1021608  49.2738544 105.8350342  64.7401608  48.9218544
 103.9610342  67.8131608  49.4838544 106.5300342  68.3361608  50.1198544
 108.3940342  66.7021608  49.9838544 107.9410342  64.3811608  49.2098544
 105.5440342  63.7581608  48.5768544 104.1020342  68.7651608  49.7928544
 103.0360342  67.5051608  49.2198544 103.9120342  65.3811608  48.7528544
  75.7130342 122.1501608 118.1438544 120.7690342  72.4411608  89.3788544
  30.2030342  79.7571608  84.1908544  31.2010342  87.5081608 108.0588544
  35.2110342  60.6641608 114.9778544  25.4620342  99.0111608  69.2848544
  60.7300342  36.4301608  77.3478544 119.2690342 110.0671608 102.7238544
 101.3960342  64.8151608  96.9468544  98.1930342 107.2551608  57.4828544
 134.3640342 102.2471608  73.4848544  45.6430342  57.1891608  57.9548544
 112.1270342  65.3371608  97.0308544 123.0730342 110.4411608  87.9708544
  54.1650342 103.0871608  98.2688544  59.9500342  29.5391608 115.7818544
  21.2810342 101.2581608  92.0078544  22.8680342  94.4491608  79.6648544
  25.9110342  69.5231608  94.0948544  96.9170342  80.5331608  33.0018544
  38.0520342 110.4801608  77.5908544 117.5800342  75.1951608  93.6138544
  47.1370342  95.1501608  56.9268544  61.0740342 123.3641608  70.6938544
  81.1590342 102.7441608  48.0328544 134.0850342  88.1501608  85.8438544
  40.2610342 106.8551608 120.1308544 110.5080342  56.8991608  31.8978544
 100.0090342  77.5431608  25.5708544  23.6970342  63.7431608  95.0278544
 114.7770342 117.6721608  78.1818544 111.3590342 117.5761608 117.8598544
  49.5260342 117.5811608  54.5358544 133.8420342  88.5441608  88.5328544
  81.2190342 124.4731608 102.2408544  26.4870342  44.3091608  72.2158544
  71.0010342  50.3831608 133.9208544 109.2740342  53.1391608  28.1928544
  54.7230342  39.7761608 101.9298544  55.0680342  34.8111608  79.2628544
  17.8900342  83.5461608 105.1158544  54.2630342 110.0381608  70.1088544
  49.6120342  81.8341608 122.3468544 131.8990342  51.0511608  54.4048544
  25.9720342  99.4851608  78.3018544  86.7630342  76.3761608  30.5978544
 100.7240342 129.2391608 103.7158544  57.5960342  77.2111608 127.0448544
 126.3670342  82.6151608  48.5768544  19.0730342  80.5031608  59.6888544
 106.7060342  88.9321608  58.6188544  75.2600342  96.0151608 137.5558544
  65.3390342  95.5311608 129.6208544  86.0570342  90.5481608 125.5278544
 125.7130342  50.3591608  68.4988544  88.5250342  18.1351608  60.7738544
  39.0000342  71.9451608 111.8598544  62.8250342  44.3001608 126.0208544
  30.0130342 118.6631608  90.2008544 106.4830342  46.7371608  65.4758544
  84.7620342  66.0251608 137.6268544 128.8170342  40.6461608  61.9478544
  69.1100342 124.9681608 108.2148544 101.5630342 125.5971608  69.3968544
  49.6050342  91.7301608  28.7808544  29.5820342  53.9141608  59.6428544
  83.8580342 128.1511608  96.0148544  54.8690342  55.7831608  30.0958544
  56.0170342  86.3811608 111.4208544  42.5680342  95.3701608  71.9868544
 101.5810342  78.7011608  27.6618544  68.5720342 123.9791608  63.1688544
  42.3120342  41.6591608  82.9408544  36.8690342 126.1241608  87.2468544
  95.4500342 123.1161608  66.5998544  45.9200342 117.2631608  92.9308544
 100.4040342  47.0341608  44.1058544 113.6280342 104.6461608  62.7888544
 104.7520342  77.9451608  39.3108544  50.9340342  67.5731608  88.7058544
  92.3880342  57.7651608 131.3938544  44.2880342  34.6701608 109.0838544
  49.1030342  77.1281608 113.9578544  67.9880342  21.3291608  72.1078544
  27.6250342  53.5591608  96.6348544 113.7460342  45.6721608  58.1378544
  59.6790342  44.4841608 111.0308544  57.4910342 129.9971608  96.3818544
 101.1340342  21.3571608  91.3228544 106.7120342  75.0691608  34.9198544
  76.4660342  31.8941608  98.3198544  27.5150342  72.2861608  82.0268544
  55.0870342  60.4801608  22.9648544  42.7130342  28.7411608  57.1718544
  51.3400342  24.8981608  82.6198544  89.0530342  56.3461608 111.2238544
  77.2920342 122.1011608  85.2028544 127.2700342  70.8991608  54.9488544
  31.5600342  38.7671608  77.2618544  47.0900342 102.5431608 117.3978544
 104.6280342  96.3771608  51.0268544 113.9360342 111.3591608  98.3198544
 131.3580342  81.7151608  51.5018544 139.9510342  73.4141608  79.4368544
  79.6430342  29.9661608  73.9818544  57.8220342  93.5501608  23.1158544
  98.6850342  36.3321608  54.9368544 137.2150342  86.5801608  73.4088544
  43.0730342 106.5231608  99.7978544 101.7190342  60.2661608  27.0818544
  24.2860342 102.0681608 103.4898544 131.6850342  80.2541608  41.0628544
 111.5490342 111.2711608  96.7928544 125.0370342  42.3851608  88.6898544
  87.8140342 142.0531608  86.4928544  35.0520342  68.2261608  62.2518544
  46.2200342  38.3571608  96.5548544 105.8210342  64.6231608  72.5658544
  65.5100342  70.3141608  20.2288544  70.9990342  53.1961608  34.2978544
  38.7870342  76.9371608  89.9478544  56.2950342  21.0201608  56.5028544
  66.9580342  70.0121608 125.5728544  38.7910342 117.5741608  70.3958544
  58.4260342  81.4561608  78.5138544 134.3930342 104.5251608  83.7228544
  69.4380342  56.0191608  37.2448544  99.5070342  65.8891608 117.0928544
  93.5650342  18.8341608  97.6878544  38.5490342  63.1071608  82.2898544
  45.4580342  71.1871608 100.7628544  56.1950342 133.5281608  87.1228544
  66.5350342 123.0681608 108.0038544 104.7380342  87.4091608 119.9028544
  96.8650342 113.8881608  78.5398544  59.0120342 132.9091608  92.7888544
 109.5570342 109.9891608  40.0058544  80.9240342  67.8651608 141.6568544
  98.3740342 125.1111608  49.3318544  90.9560342  58.2401608  36.9088544
  44.1800342  84.5371608 108.5798544 131.4980342  92.2821608 109.4098544
  39.7200342 104.8721608  78.9048544  90.5840342  67.1571608 118.9338544
  77.3710342 120.6361608  81.1658544  97.2580342  20.5141608  88.6348544
  59.9190342  73.6301608  17.6858544 107.0370342 104.3741608  78.2968544
  58.0410342  22.8151608  73.9658544  90.5460342  22.7461608  76.4588544
  45.9780342  63.8491608  27.8008544  89.7560342 110.0891608 129.9158544
 106.2860342  58.0891608 104.8418544 111.5390342  85.9881608 111.2698544
  89.7400342  61.6071608 108.9138544 112.2300342  32.5521608 104.6188544
 116.1170342  68.1801608  32.1508544  63.8050342 113.0091608  75.9928544
  69.6150342 114.1821608  68.9268544  65.5370342 114.7371608  48.8348544
 110.7320342 128.4091608  83.9878544 117.8710342  40.8381608  61.5518544
 113.1900342  38.1051608  89.0808544 107.4910342 112.5521608  61.3638544
  77.5890342  65.4241608  32.6728544  52.8480342 112.0091608  71.5398544
  91.0680342  73.1231608 140.1398544  43.3420342  63.4901608 123.6588544
  26.5660342  85.3581608  54.5588544  65.4620342  82.4701608  24.7148544
  86.6690342 105.0721608  22.6318544  30.5200342 110.9261608  62.6208544
 123.6570342  99.3241608  43.2998544  31.5190342  66.7201608  37.5328544
 137.2210342  81.4471608  57.4868544  48.3050342  65.5081608  75.1718544
  73.5660342  97.8101608  25.9838544  98.4070342 117.9251608  55.4478544
  68.4260342  52.7721608  44.8458544  14.1070342  80.3111608  69.2928544
  70.2240342  83.1161608 121.0768544  85.0330342  35.7431608  47.7058544
  78.3530342 131.4701608 116.5028544  60.0850342  33.3141608  36.5278544
  80.4490342 118.2461608 123.5858544 103.1260342 132.4771608  69.1938544
  71.9430342 137.9621608  54.9948544  31.8890342  73.0341608  96.8268544
  43.9620342 107.1291608  32.5818544 107.2150342  27.0301608  62.2188544
 134.4990342  69.1621608  67.9888544  76.9030342  51.4691608 112.4368544
  33.1570342 111.8541608  78.8918544 111.2700342  28.2661608  55.7088544
  60.9590342 103.2871608 114.6088544  86.0920342 133.3811608  43.9398544
  81.9530342  64.6181608  37.1968544 117.7010342  88.5591608  90.7368544
 101.1320342  91.4521608  26.7978544  51.1840342  65.2141608  79.7668544
  61.5420342 114.9441608  92.2058544 101.5010342 101.9511608  37.8548544
  86.8880342 119.9081608  59.9828544  61.3180342  48.5651608  86.9368544
  38.6790342  55.0481608  93.2598544  81.1070342  95.2621608  37.7108544
  59.9670342 127.5611608  77.5328544 101.4180342 130.3461608  76.5348544
  92.9540342  63.7581608 138.4708544  86.8810342  62.0141608  23.7918544
 133.9020342  69.9411608  52.5538544 120.5910342  55.6571608  60.9178544
 134.3300342  78.1181608  49.2528544 115.1410342  36.4921608  62.0448544
  71.8900342 125.0441608 108.2698544 102.2940342  81.5981608  53.9608544
  97.2900342  47.8661608  40.9818544  72.4900342  53.8371608  29.3698544
  47.3230342 104.8371608  57.1348544 125.5370342  93.2861608  63.7308544
 132.5920342  88.5481608  60.8968544  30.5290342  36.9581608  74.7308544
  69.3260342 105.4561608  59.0438544  75.0810342 127.2321608  91.6928544
  85.3440342  14.0961608  69.8928544 105.9710342  54.9191608  39.0328544
 127.4710342  51.1761608  72.1908544 100.1980342  40.4691608 103.1828544
  78.0680342 108.2051608 110.1058544  79.0200342  92.5301608  16.9298544
  58.9940342 109.6931608  50.3718544  39.0250342  52.5491608  84.7548544
  59.9140342 123.8061608  98.0968544  79.6240342  49.3291608  38.3318544
  34.4680342  54.5261608  36.3758544  38.1980342  48.4531608 113.3288544
  96.3740342  96.8011608 111.6108544 113.2880342  50.4601608  94.0328544
  83.0170342  54.7821608  35.7778544  33.0400342  44.4891608 103.0268544
  36.9300342  56.5281608 102.7508544  52.0120342  89.3821608 105.7688544
  95.5850342 129.2901608 104.5528544  84.9300342  29.3811608  72.0748544
  57.1970342  35.8161608  58.4108544  50.9130342  63.1271608 129.4488544
  40.5320342  32.5131608  94.0538544 125.1910342  35.9321608  66.2858544
  51.5880342 103.1821608  63.6088544 109.1350342  89.3611608  53.2148544
  30.9790342  38.2021608  81.3418544  52.6500342  52.5321608  28.1858544
  62.7250342 130.6051608  94.3698544  13.5420342  73.8021608  89.9178544
  83.0990342  31.8601608  93.7518544  29.9900342  58.1261608  67.5458544
 133.7590342  86.4421608  46.2668544  47.6960342  54.5261608  36.6648544
  29.3770342  73.9861608  94.8638544  40.0570342  34.4581608  90.7298544
  40.5900342  74.9031608  81.5258544  37.2430342  69.8511608  79.5148544
 121.8920342  69.6401608  57.3378544  32.0450342  57.2931608 114.5018544
  35.8050342 117.5191608  60.6198544 115.3320342  88.3101608  46.3928544
  47.9310342  47.5471608  92.8588544  82.2420342 132.9651608  98.3518544
  48.0090342  66.5621608  69.4338544  36.8810342  63.3501608  85.4858544
 118.4860342  93.7201608  99.4768544  70.7750342 124.8291608 113.0298544
  51.2370342  48.5701608  45.3808544  29.3450342  82.1391608  61.7648544
  79.9740342  31.9531608 100.8818544  45.0330342  61.9281608  53.8458544
  87.8970342  69.7551608 117.7248544  41.7570342  75.7451608  50.3708544
  37.2630342  91.8621608  48.0218544  72.5450342 127.6291608 111.2598544
  35.0610342  75.3901608  64.4798544 122.1030342  82.9651608 122.4818544
  74.0210342 121.7301608 116.6488544  80.7370342 101.3241608  59.9978544
  81.3290342  22.4431608  72.7758544  99.7380342  25.5341608 103.8328544
 123.5470342  91.8601608 100.6708544 108.5230342 132.1071608  70.3578544
  52.3200342  61.1881608  55.5758544  48.2720342  85.9111608 104.6388544
  63.8140342  79.2481608  18.7968544 101.0530342 138.2631608  72.4218544
  43.4620342  88.6671608  75.9618544  67.2200342  48.8251608  32.3918544
  92.0550342  68.0011608  35.6198544  57.8610342 105.4241608  60.6388544
  84.9120342 126.8121608  37.4058544  71.6250342  18.3401608  90.5518544
  93.8970342  28.3381608  66.0528544 109.4610342  28.6251608  64.2228544
  21.9440342 100.9281608  97.3858544  74.4170342 114.1171608  43.2248544
  17.2030342  86.3941608  59.9248544  60.3450342 110.8271608  84.3888544
  84.7100342 103.8731608 138.5218544  71.9520342  97.1831608 124.4678544
  97.3820342  91.6251608 123.3748544 100.6950342  90.4101608 129.7458544
  88.5810342  29.9061608  73.9018544  65.4910342  84.3051608 125.6838544
  57.3050342  89.8421608 132.2678544 113.8010342  89.1321608 112.7198544
 101.9410342 115.3551608  37.2098544  92.0370342  49.0101608 123.6848544
 114.7700342 109.4221608  49.0468544  49.6580342  66.4641608  45.0798544
  40.3610342  84.8251608  55.1668544 113.0180342  32.9811608 110.7088544
 134.2460342  73.8331608 105.7598544  28.6270342 115.5181608  70.4458544
  65.0400342  42.9841608 125.7788544  20.8200342  61.3011608  77.1108544
  84.9740342  62.5941608 119.4798544  79.2230342  30.8531608  50.2518544
  52.1490342  34.4911608 121.1698544 115.0110342  91.6511608  77.0548544
 107.0870342  61.0491608 111.8768544  20.2770342  71.6631608  46.8418544
 121.9840342  49.3881608  87.9968544 109.3490342  71.0801608  47.8948544
  49.5450342 100.7751608  31.2278544  80.9530342 122.7481608  54.1098544
  97.9940342 121.6381608 102.2688544  77.5880342  44.6671608  37.2078544
  30.7420342  89.1281608  76.2378544  87.3340342 132.4711608  46.1098544
  33.4100342  97.8031608  74.2058544  66.4530342 114.8671608  73.5068544
  51.8840342 122.8811608  67.9488544  56.6920342  86.2751608 123.6008544
  50.6900342 113.7311608  97.4738544  44.1480342  92.9931608  80.1198544
  24.3460342  60.8631608  85.0488544 117.6370342 107.1521608  35.9498544
  89.4790342  28.4651608 115.9148544  97.1740342  84.6201608 139.8998544
  28.8670342  83.8571608 116.9958544  72.5820342  54.9301608 130.6398544
  75.3230342 117.3931608  64.9048544  32.9750342 105.9071608  91.5878544
 115.2170342 108.9471608  70.5948544  33.3650342  90.2701608  44.2818544
  89.5360342  18.0441608  78.3148544  32.3420342  93.7451608 119.6288544
  95.0340342 108.0631608  48.9678544  47.3980342  92.9011608 100.6898544
 135.2650342  63.4211608  62.3918544  77.6210342  37.0531608 124.4538544
 108.6960342  88.0651608 126.5398544 101.4360342  31.6311608  88.2128544
 140.2140342  69.2561608  86.7218544 109.9070342  95.1871608  28.6928544
  25.1030342  82.6531608  62.6968544  74.1550342  48.3281608 105.4568544
  96.1820342  61.4871608  22.9568544  33.7940342  55.9811608  72.7918544
 104.1240342 124.0271608 113.6378544  43.4850342  63.6431608  33.4598544
  94.1460342 101.3101608 121.6558544  27.9100342  93.8321608  91.8968544
  92.9720342 124.8941608  50.0858544  63.9690342  58.0731608 125.5048544
 113.0650342  67.5661608 118.1918544 106.2610342  87.0601608  55.6528544
  61.8100342  23.1301608  64.2888544  99.5570342  50.3021608 123.0688544
 121.3150342  89.0211608  34.5118544 125.1250342  73.8231608 120.6248544
  97.1170342 118.9991608  75.5168544  79.4040342  87.3001608  13.9178544
 107.2880342  38.4311608  60.1148544 116.4020342  79.9501608 100.3338544
  33.2300342  79.1141608  47.5848544  87.8990342 103.6131608 132.3798544
 125.0770342  44.3681608  98.5268544  77.9250342  77.7601608 132.0298544
 102.4990342 104.8341608 110.6518544  99.8390342  45.3651608  26.2298544
  91.0240342 100.2271608  48.2878544 120.6450342  96.1871608  39.7158544
 115.3240342  41.1981608  86.0368544 100.0880342  25.3141608  50.7058544
  50.8120342  73.3871608 133.0788544  87.3710342 137.0291608 102.4068544
 108.6890342  72.9781608 128.6708544  98.2100342 112.1721608  76.4738544
  49.4880342  42.9101608 123.6308544 108.0810342  92.4391608  87.6288544
  51.9390342 129.7561608  67.3708544  91.9130342  45.9341608 122.2968544
 111.8100342 101.7291608  53.4388544  68.5810342  82.6021608  32.5418544
  36.4570342 121.1241608  53.1968544  45.5380342  21.9471608  79.1518544
  69.4790342  41.8051608 114.1248544  86.0500342  68.9661608  26.3848544
 113.8790342 119.6411608  57.0998544 113.9500342  33.8671608  80.3078544
  79.8100342  57.3001608 116.8148544  62.7570342  76.5791608 136.3788544
  77.1480342  50.5171608 131.5468544 115.7950342  71.3451608  79.8628544
  34.7870342  40.1801608  52.6508544  95.1960342  21.7791608  97.1788544
  43.6770342  88.0911608 108.1658544  99.5240342 120.6331608 122.8298544
  72.6420342  30.5501608  88.8068544 107.7030342  37.6211608 102.8768544
 137.9090342  80.9921608  89.7398544  41.3360342 106.6421608  32.3058544
  64.6850342 107.4341608  59.1408544  26.6240342  73.3211608  74.1418544
 105.9540342  77.6171608  92.2248544 124.6310342  75.7771608 115.6428544
  61.5520342  81.5461608  31.2968544  17.0890342  60.8141608  76.5948544
  72.7980342 137.1191608  53.1518544  77.6800342  93.5001608 139.6678544
 136.3820342  73.1021608  93.4438544 116.2760342  62.7951608  47.3528544
  66.3290342  73.5701608 134.8888544 102.1360342  43.9761608  48.2928544
  34.3090342  85.3831608 116.2738544  23.2660342  75.7591608  88.7648544
  24.3580342  94.0211608  98.5208544  90.0010342  97.4881608  41.5568544
  78.3430342  53.5471608  33.4538544 105.1550342  54.5171608 118.0108544
  52.2260342  38.4051608  50.1178544  41.3130342 132.4351608  70.8918544
  45.9360342 117.6061608 102.5978544  50.3080342  55.2441608 128.7038544
 108.1200342  86.1641608  56.7848544  91.0150342  42.6311608 107.1758544
 138.4000342  61.1711608  88.7668544 119.8750342  80.9851608 100.5488544
  86.5770342 115.0121608  62.0948544  94.4450342 109.5341608 129.0498544
  80.3740342  83.6121608 135.5498544  53.4490342  64.4221608  29.4268544
  48.5280342  96.0911608  82.6848544  63.8140342  25.3511608 106.0898544
  85.0160342  45.7941608  36.4228544  43.1390342  55.1831608  92.3608544
  98.4810342 111.6781608  47.0428544  45.2680342  58.2491608  35.2348544
  74.2630342 122.4571608 106.0168544  69.8620342  21.9701608 104.1798544
  90.5640342  29.6761608  84.6718544  35.5660342 113.6201608 104.7348544
  99.6970342  92.0291608 122.4828544 117.0720342  67.3581608  74.9858544
  97.7020342 127.2981608  42.0588544  86.4020342 113.8081608  58.1558544
 109.3820342 105.5541608  79.3828544  57.0970342 129.9481608 111.3978544
 136.2920342  63.6771608  94.0578544  93.9700342  89.8751608  30.7648544
 109.8500342 128.2821608  50.8158544 114.0160342  83.1061608  45.4728544
  20.1340342  75.8171608  62.1188544  82.4770342  43.2861608 119.9158544
  52.0430342 109.0041608 108.7018544  98.1410342 119.9671608 115.6928544
  85.1490342  17.8551608  71.3758544 116.7620342  62.2401608 102.8408544
  84.2280342  65.1031608 118.9388544 132.1890342  47.1311608  85.2078544
  71.8020342  26.9161608 101.7498544  49.4360342 121.0171608 112.8738544
  38.3540342  81.7001608  42.1738544  80.9030342  17.7391608 101.2448544
  75.4400342  23.0301608  44.1938544 104.1910342  45.3481608 124.9288544
  45.5300342  85.2171608  41.7738544  87.6990342  39.3151608  27.8008544
  67.5590342 134.8601608  52.0268544 110.8980342  49.8741608  72.6088544
 125.4650342  47.8381608  95.8358544 123.6410342 112.4461608  93.6508544
  92.1270342  17.6261608  57.3368544  58.8480342  55.2681608  88.1938544
  46.8360342  92.1041608  68.2968544  30.0980342  65.5551608  64.8308544
 120.5580342  38.2331608  75.3988544  54.1200342  38.8721608  93.8548544
 112.4480342  52.7091608 107.6378544  74.7490342  48.9291608 131.8838544
  52.3070342  44.3121608 127.1648544  89.4150342  73.0511608  29.4258544
  32.0130342 118.6731608  81.7758544  94.0630342 124.5341608  54.1218544
  83.6300342 124.2521608  50.1368544  46.0160342  67.1771608 107.4898544
 130.2030342 104.6121608  81.9178544  47.8900342  83.7361608  34.3128544
 124.5310342  47.6321608  50.0398544 103.6960342  94.0901608  74.7048544
  96.0150342  96.9871608 129.8778544 119.0460342  61.8971608  37.4968544
  94.7890342  77.5291608 134.3268544  79.1020342 125.3451608 115.3828544
 119.3020342 106.5611608  43.0728544  64.6480342  96.1691608 114.0228544
  73.1590342 120.7641608  60.3048544 119.6560342  53.5481608  40.2858544
  39.3940342  61.3981608 116.9908544  16.7900342  87.2861608  79.3908544
 103.9230342  86.3971608  51.9498544  71.5990342 125.0001608  34.6118544
  35.7470342  77.9151608  52.7968544  57.6170342 120.2301608  94.3948544
 118.9440342  94.9971608  95.3668544 129.6730342  56.8331608  59.9118544
 106.3460342 118.3241608  91.7788544  64.3740342 119.8731608  68.2258544
 138.2220342  92.8731608  78.3788544  40.9610342  84.7761608  51.2868544
 104.3050342  61.3051608  97.1408544  70.3440342  27.2191608  75.7698544
  14.2200342  66.1201608  92.3928544  56.5410342  63.0801608  33.9498544
  99.2720342  73.1531608 132.9608544 102.1260342  83.9141608 131.0758544
  50.5370342  44.6841608  93.4418544  63.0110342  52.2141608 101.5638544
  38.6670342  50.2571608 103.6128544  88.1350342  54.2641608 124.7328544
 107.7780342  72.2101608  80.6838544  90.4470342 107.5461608  56.8488544
  72.2410342 123.8291608  51.3278544  20.2150342  53.0561608  84.1108544
  21.2140342  81.9061608 105.5138544  56.4630342  58.5821608  35.9368544
  21.9170342  92.8161608  72.1668544 128.9300342  64.3261608 115.3978544
  62.1370342  51.1311608 112.3268544  94.3090342  95.5661608 128.9178544
 104.0920342 109.7431608  64.5858544  41.8650342  72.0741608 114.4798544
  19.1640342  61.2551608  97.6858544  38.1880342 120.1491608 105.7978544
  44.6630342  26.5511608  74.6268544  67.4320342  70.0171608  31.7908544
 137.9170342  75.2421608  62.5938544 108.3050342  95.2661608  26.1398544
 113.6880342 112.4251608  84.4518544 132.7070342  86.1691608  52.1628544
  57.6900342 119.9851608 124.3948544  21.6620342  57.1591608  72.7908544
  95.9940342 123.7951608  98.1848544  81.1770342 107.9781608 126.7248544
 130.5470342 100.3371608  83.2148544  53.3000342  37.1681608 111.3668544
  82.1680342  29.7181608 105.0838544  28.4670342  57.2201608  49.7178544
  87.8310342 117.7181608 112.0188544 103.8180342 120.5041608  35.8828544
 106.8370342  44.2931608  65.4348544 117.3390342  95.5951608  86.2718544
 102.5050342  57.9541608  27.6998544  89.3470342  87.6231608 129.8298544
  22.3190342  75.2711608  93.5518544  63.3090342  47.8161608 121.3838544
 121.4520342  71.6681608  45.3888544  77.2290342 128.8421608  99.9698544
 112.7730342  82.9911608  34.2578544  68.1470342  70.6211608 142.0618544
 108.0880342 119.5681608  90.1148544  74.2060342  94.7901608 126.7688544
  59.4440342  35.3211608 110.6088544  92.4260342  87.3231608  25.5158544
  25.6860342  62.8541608  79.2068544 122.0440342  95.8971608 112.3038544
  43.5390342  73.0221608  98.1658544 119.0100342  74.4061608  55.5378544
  67.2870342  75.6711608  23.2998544  47.3370342  82.1711608 125.3628544
  60.6400342 106.4541608 133.5938544  38.7720342  53.8361608  98.7778544
  92.3040342 137.6851608  94.4798544  43.0980342  82.6451608  44.3788544
  80.4290342  85.9631608 137.6708544 138.3430342  75.6171608  59.8358544
  32.6870342  70.5431608  67.6138544 116.5630342  73.2821608 104.9658544
  45.0430342  53.0771608  49.9178544 129.1020342  90.0991608 111.7858544
 132.9280342 105.0131608  70.1928544 135.9220342  68.6711608  93.7878544
 110.7550342  38.2761608  59.2398544  33.5280342  59.5701608  55.6528544
  15.9830342  81.7691608  67.8108544 122.9850342 101.0941608  78.0328544
  17.9870342  87.8721608  87.7688544  77.2530342  54.9431608  20.4248544
 119.7160342  80.4371608  75.8858544  35.1720342 117.5121608  93.1438544
  97.7420342  95.5201608 122.1818544  66.2130342 106.2051608 120.6988544
 104.9660342  51.8911608  80.4598544  86.9640342 101.9791608  38.9278544
 118.3100342  40.3351608  89.5258544  36.2740342  53.4751608  98.1878544
  73.9730342  57.7931608  38.0968544  48.7940342  27.0471608  68.9338544
  36.1290342  98.8701608 102.5678544 131.8360342  85.1141608 101.5928544
  89.2690342  55.5821608 138.6578544 110.7800342  52.7931608  52.8898544
  36.2200342 108.1741608  83.2878544  97.5060342  51.1311608  26.8328544
 106.6690342 112.5981608  58.5908544  43.5110342  49.2181608  49.2868544
  72.4170342 122.7231608  87.4288544  56.3340342  91.9901608 125.6368544
  47.2550342 109.5271608  76.1398544 116.0500342  78.8401608 120.1288544
  53.5900342  93.8971608 105.8478544  80.5310342 116.8541608  37.6028544
 107.7750342  70.7981608  95.8758544  60.1920342  46.0881608 107.3108544
  29.1530342  83.6901608  74.3148544 108.4250342  31.9781608  70.2568544
 128.5390342  70.6791608  98.9078544 117.2440342  27.7391608  64.3238544
  58.4040342  50.4711608 120.7278544 100.0190342  29.3561608  74.0448544
 105.1320342 119.3851608 112.1478544  52.1620342  93.1591608 125.4598544
  85.7380342 122.0481608  42.5908544  69.0920342  32.5061608  47.4648544
 116.1550342 100.3191608 107.9488544  51.9800342  34.2441608  51.9968544
  25.1240342  84.6361608  56.8528544 124.0400342 114.3871608  61.7378544
  82.2200342  95.4941608  15.3908544  27.1430342  81.8241608  76.9068544
  23.9700342 103.5971608  67.1618544  77.6560342  38.7121608  35.5308544
 106.4460342  25.7271608  69.3168544  35.3100342  39.8931608  80.1778544
  66.8670342  74.3281608  29.1978544  84.2030342  80.6931608 117.9068544
 109.8270342  74.4371608 126.2528544  63.8170342  84.3521608  17.9778544
  58.0590342  44.2001608  74.7388544 103.0260342  21.9271608  77.4478544
 116.9090342  38.0331608  79.6698544  48.9530342 125.5731608  82.5368544
  42.6330342 105.3591608 118.6198544  71.2140342 116.2501608 113.5948544
  50.0800342 118.2701608 121.6838544 127.7390342  85.4161608  79.2838544
  56.9520342 117.4141608  91.7278544 108.0250342  45.0031608  78.9198544
  60.2870342 123.1761608  91.0018544 115.3640342  81.7301608 121.4208544
  50.6230342  84.5271608 107.5678544  49.5040342  93.2271608 133.0548544
 127.5490342  80.0981608  51.9738544 132.9460342  52.9061608  54.9578544
  82.5110342 123.6011608  64.5928544 125.5560342 110.5691608  47.2488544
  37.4000342  63.3911608  79.7968544 120.4410342 123.6911608  60.0128544
  97.0240342  30.6241608  74.1578544  40.2640342 109.6461608  83.8598544
  97.5460342  35.0561608  71.9838544  33.6820342  91.7951608 118.4928544
  60.1100342  93.8401608 119.2478544 130.7500342  62.0571608  76.7928544
  45.4750342  68.5151608  48.6448544  74.8280342  67.6091608  32.0658544
  71.7930342 127.0091608  91.7408544 122.5630342  93.5721608  46.9238544
 107.7300342  74.0721608  82.8268544  41.6770342  92.4191608 116.4448544
  57.5190342  31.0981608 102.0998544 109.6630342  50.3901608 127.9498544
  21.4760342  99.1721608  83.1588544  48.7290342  54.4301608 125.7748544
  37.1170342  83.5351608  35.0708544 128.9170342  78.4361608  96.7158544
  89.4590342  60.3111608 120.0448544  62.7760342 129.7521608 111.1678544
 115.8250342  76.4361608  26.0418544  82.2500342  98.0851608 120.6828544
  25.3920342  39.6281608  81.3118544 100.0390342  93.5511608 126.5538544
  33.5380342  88.5001608  94.2508544  37.3350342 103.3361608  80.8278544
  45.1710342  83.9101608  33.7938544 116.1000342  68.3541608  82.6938544
  72.9280342  38.4651608  30.8888544 122.7840342 113.3101608 103.7408544
  99.6640342 104.9471608  46.1808544 118.2650342  88.5011608  62.5098544
  87.9820342  17.1851608  76.4528544  67.6930342 116.4351608  33.1858544
  81.4720342 142.4241608  81.0498544 119.1090342  42.5391608  63.0218544
  94.6000342  64.1141608 130.9688544  95.5050342  28.5561608  50.1718544
  92.3710342 112.1041608  41.5028544 123.9200342  63.3991608  37.4638544
  36.1960342  69.0341608 120.4658544  50.8770342 108.9471608  39.0748544
  47.4860342  64.6421608  42.6448544 110.4170342  51.2461608 119.0918544
  43.8270342  94.5111608  61.5798544 108.4770342  81.3121608 125.9358544
  57.4160342  91.3021608 112.2568544 107.7140342  75.1101608  89.2388544
  55.9410342  89.5051608  34.1248544  69.2990342  84.9921608  22.9138544
  75.4090342 104.2671608  58.0188544  49.5480342  35.8761608  78.1708544
  85.3850342  34.2531608  30.8688544 133.8040342  55.5701608  59.2108544
  47.4340342  53.2661608  50.4528544 131.1910342  57.0451608 109.5018544
  58.0030342 137.6301608  88.3868544  77.0150342 126.1161608  44.1858544
  34.5780342 118.9661608  99.6728544  45.3390342  86.1601608 100.6578544
  43.9670342  59.3121608  48.4908544  43.6230342  40.7931608  91.0028544
  53.0270342 106.5071608  65.3798544 122.6860342  65.0291608  88.5488544
  69.5110342  45.0241608  36.9818544  98.5160342 127.6491608  50.3048544
  54.1730342  72.7011608 131.1868544  97.1100342 108.5541608  27.4428544
 120.3570342  91.5541608  41.4878544  30.7260342  95.1361608  82.8428544
  81.8260342  24.6281608 111.2418544  59.0040342 126.2671608  92.3438544
  49.7270342 117.4601608 109.6098544 126.9940342  99.5411608  43.5178544
  53.5370342  48.8191608  62.0928544 126.7820342  75.7531608  62.9208544
 126.3480342  96.9171608  86.4648544 124.9590342  70.1101608  70.9288544
  75.3400342  68.4671608 137.5508544  54.1260342  24.1341608  54.9908544
  43.1280342  32.9621608  73.2328544  23.8560342  98.1041608  79.5538544
  97.8070342 109.1161608  53.7308544  45.1680342 124.1671608  81.1578544
  41.9160342 106.6631608  44.1808544  70.7420342  65.5201608 135.6398544
  97.7200342  48.7201608 133.0578544 101.8910342  94.4781608 132.5748544
  85.7070342 127.6011608 104.1898544  22.3120342  83.1501608  87.1288544
 106.8310342  35.1251608  84.5358544  95.4030342  78.2411608  37.9838544
  90.7190342  61.0241608  29.1478544 133.9600342  69.2901608  48.8658544
 120.0420342  64.1721608  68.2998544  91.1640342  82.0261608 134.5748544
  48.6940342  70.3161608  52.7098544  48.4510342  85.4601608 115.3068544
  18.5210342  58.6801608  79.2748544  96.8450342  66.2211608  20.7588544
  82.9550342  55.6141608 133.1308544  67.2940342 123.2601608 110.5678544
  45.8930342  45.5071608  74.8498544 133.0140342  75.4571608  98.9448544
  26.0440342 117.4991608  82.2408544  37.5650342  55.1781608  41.4438544
  50.9410342 107.3261608  71.1908544  51.1680342  36.1281608  40.5088544
  37.4340342 111.8351608  39.8728544 117.1930342  44.0431608  77.9088544
  43.0900342  73.4451608  88.3568544  97.0950342  78.9031608  51.1528544
  47.5990342 134.6841608  76.6238544  41.9260342 128.6131608  58.4738544
  78.3950342  96.3351608 122.7788544  52.5670342  48.4871608  58.1508544
  42.2390342  86.8751608  97.2918544  28.0100342 105.8301608  93.0238544
  70.9920342  89.1311608 138.7258544  72.7210342 134.2801608  86.9488544
  37.2210342 101.1141608  77.1778544 104.5230342 120.6841608  54.0908544
  93.7480342 101.5401608  34.1518544 101.3950342  28.8351608  90.3398544
  56.9000342  33.5611608  71.9438544  82.2790342 128.2421608  43.3998544
  87.2670342  76.8701608 120.6878544  45.7690342 105.6261608  36.4998544
  94.4100342  91.7051608 138.6568544  53.4570342 119.7071608  56.0018544
 140.6630342  88.6651608  86.9778544  62.2980342  46.7901608  36.3998544
 107.7790342  92.9091608  37.3878544 132.6260342  91.9771608 103.9268544
  79.9680342 100.7441608  38.8558544  42.7980342  93.9201608 115.2608544
  20.4310342 104.8441608  63.6148544 106.6750342  84.0981608 110.2658544
  91.5730342  29.3371608 109.1248544 108.1710342  60.1981608  47.7718544
 134.4710342 103.6981608  81.1388544  41.2970342 114.5561608  83.7558544
 127.9240342  47.9731608 105.9098544 100.3140342  40.2091608  94.7248544
  74.8340342 107.7891608  32.1098544  76.3950342  25.5401608  44.6618544
  69.9570342  73.2411608  35.0718544  27.6710342  67.4001608  56.9578544
 119.2900342  80.2711608  57.9198544  38.5670342  85.1201608 120.7728544
  48.6960342  98.3821608  29.5168544  56.0130342  79.0461608 123.2988544
  38.5570342  44.2231608  83.4618544  75.1040342  16.8671608  79.3888544
  21.5700342  89.8651608  58.6438544 100.2810342  37.2961608  83.2608544
  74.5160342 117.3331608  61.4358544  63.9350342  18.7561608  81.9708544
 120.3320342  61.1101608  71.7308544  92.2560342  96.2191608  41.3128544
  24.5430342 106.1251608  77.0188544 115.5800342  47.9391608  40.7558544
  72.2310342  93.2131608  30.2648544  69.8370342  68.1421608 124.5478544
  73.5770342  92.0721608  28.8838544  52.9110342 101.6651608 121.2548544
 114.1720342 120.1631608  83.3598544  34.8510342  72.9121608  57.3918544
  55.2090342 116.5171608 114.6478544 101.1170342  95.7501608  77.4498544
  72.4640342 119.5751608  40.6848544 105.3480342 127.0111608  56.9828544
  84.3630342 104.0501608  43.4898544 105.4430342  95.2271608 117.7598544
 123.4340342  42.2941608  84.5608544  44.2820342 106.4431608  69.1038544
  86.3630342  53.4461608  22.1178544 100.9060342  44.2011608  29.4008544
  27.2200342 114.3891608  57.8818544 134.8360342  94.4061608 100.6308544
  38.2160342  90.9291608 104.9368544 116.9400342 121.4091608  56.0818544
  84.1290342 112.3881608  61.3608544  42.8550342 118.0821608  83.2938544
 100.3920342 106.9261608 116.6938544  45.9810342 128.2871608  51.3718544
  82.1040342 109.3801608 132.7518544  79.5350342 138.3831608  88.4588544
  42.0330342  75.7441608  64.4968544  65.9590342  68.5921608  38.9408544
  17.1830342  78.6721608  63.4568544 139.9450342  70.8121608  96.4418544
  68.7670342 107.1421608 119.6218544  51.3830342  55.8841608  37.8828544
  28.0910342  83.1161608  96.1478544 116.5100342  83.9231608 125.2848544
  83.5230342  33.6431608  42.3158544 133.2790342  84.4131608  80.1248544
  32.0290342  70.8821608  57.6948544  56.6450342 134.4241608  94.1208544
  67.4030342  38.6921608  95.9628544  59.6570342  16.7731608  85.6878544
  63.2260342  65.8961608  23.7768544 105.7460342  77.2201608  75.1628544
  76.6360342  82.0101608  14.5178544  64.0170342  87.6531608 133.5258544
  64.7130342 124.7611608  52.9168544 106.3680342  40.9891608  68.9228544
 124.1070342  66.8231608  76.9358544  62.0730342 115.3751608  85.3428544
 112.4260342  62.0381608  79.2318544  61.4160342 113.1671608  38.6778544
  77.8600342  98.9821608  30.1288544  33.2750342 110.1401608  64.2908544
  44.4530342  98.5921608  69.8318544  81.5260342 126.6281608  71.2898544
 121.8570342  51.8431608  76.3308544  84.2300342 117.6091608  40.7918544
  21.1740342  59.3601608  56.8788544 114.7990342 102.0421608 106.5548544
  83.6910342 131.6391608  47.2628544 105.8130342  59.8231608 133.7528544
 100.8860342  72.2771608  18.7498544  35.5180342  98.2161608 119.5188544
  45.7150342  82.2191608  53.2658544 102.7060342 119.0711608  80.8088544
  38.9910342  41.9121608  55.3428544  31.4390342  55.6651608  54.8758544
  92.0260342  80.5961608 133.1198544  44.0650342  46.7921608  61.4338544
 121.4130342  96.5811608 116.3398544  93.4170342  27.1491608  83.4068544
  44.9780342  65.2511608  53.4538544  88.2770342  28.3711608  77.3838544
 100.9610342  17.9821608  65.0438544  74.3980342  92.7091608 132.7568544
  71.4520342 115.3381608  30.8008544 120.5310342  42.2921608 107.9218544
  89.5620342 124.3081608 118.3968544 126.8950342  71.0441608  40.2628544
  56.5830342  32.6031608  44.8048544  45.0250342  84.3181608  26.1528544
  99.1200342  64.4621608 103.9388544  39.1090342  65.2281608  69.9688544
  49.5860342 124.2241608  43.4258544  46.7000342  52.8391608 127.2788544
  86.1080342 124.6811608  53.4838544  83.1910342  90.2321608 141.3218544
 121.2530342  89.1961608  67.7588544 129.9630342  52.5811608  89.8938544
 110.2710342  83.8131608  37.9208544  33.9660342  95.9511608  72.6228544
  89.3090342 118.5391608 108.7578544  72.3470342 120.7771608  54.1138544
 105.7330342  72.3201608  94.8218544  44.4970342 101.4681608  34.8328544
  36.8180342 116.4801608  88.3238544  85.0870342  39.3341608  40.1438544
  37.5130342  56.7831608  96.2888544  31.0720342 117.1961608  62.8478544
 103.5910342  27.6571608  80.3458544 102.8940342  70.7161608  40.6848544
  71.2940342  26.3341608  78.6518544 101.5120342  63.1981608  46.3238544
  88.0630342  31.5031608  77.1358544  80.8300342  56.0781608 121.9768544
 112.2180342 113.8111608 120.4138544  20.4180342 107.6771608  89.8448544
 127.8940342 114.6741608  59.8268544 112.1930342  60.0821608 122.4528544
  69.7190342 112.5521608  54.7388544  49.9050342 109.6831608  84.1118544
  65.3010342  24.8351608  89.7318544 123.4900342  53.2221608  68.1508544
 128.7850342  89.0871608 114.9448544  60.3580342  74.3411608  39.4308544
  57.1160342  26.1771608  65.1998544 100.1740342  53.0251608 111.6988544
  61.8880342  20.7191608  66.9738544 119.6850342  36.2251608  95.4448544
  72.5290342 107.2751608  50.5528544  59.9690342  56.9101608  34.0968544
  47.5020342 111.6541608  79.1398544  38.8500342  73.8251608  93.2308544
 127.8900342  71.1901608  94.5618544 115.8890342 106.0841608  77.9868544
 104.5090342  39.6191608  76.1898544  54.6950342  35.5441608 111.8908544
  34.7380342  47.6491608  51.4108544  50.0760342  42.6031608  77.7568544
  84.0760342  66.9271608  31.2238544  70.3630342  42.3881608  29.8428544
  92.6450342  26.3771608  55.5828544 111.4600342  85.6531608 130.6998544
  25.8890342  75.5171608  40.3608544 128.2190342 103.8781608 107.5768544
  50.7600342 126.7801608  59.5208544  39.7930342  84.8121608 128.3118544
 101.1880342  87.8411608  39.3008544  76.6550342  21.2411608 112.1178544
  97.1690342 100.6081608  67.7788544  52.8870342  77.1381608 114.1838544
 109.3410342  32.2061608  88.5818544 125.5050342  70.1761608 114.2258544
 131.7710342  86.7701608 111.4158544 127.1910342  85.3901608  88.1648544
  87.7180342 122.6641608  62.6098544 113.5890342  99.0351608  41.2908544
 125.1840342  33.5421608  86.9158544 124.3570342 121.9911608  91.8218544
 100.8340342  48.2791608  83.9588544  70.1560342  20.5891608  73.0898544
 145.4862590 149.6097790 148.0231510 144.5979290 149.9513760 147.9211390
 145.7703780 149.4098110 147.1312340 143.4495600 152.2103440 153.9071210
 144.0211710 151.4425640 153.9074850 143.4497140 152.5092200 152.9977820
 147.6623980 148.1929290 149.0569890 147.7690730 149.0933020 149.3638650
 146.7516340 148.1447260 148.7664540 149.5031710 151.1615660 153.3895070
 150.0109930 151.6596630 154.0300090 150.0344950 150.3850860 153.2134430
 151.1511030 145.0006450 151.9873530 151.4586010 144.4453340 151.2709030
 150.2211730 145.1350910 151.8046520 149.1448430 153.5920020 151.5053380
 148.7405430 152.8797270 151.0099280 149.2311550 153.2473260 152.3941420
 145.8453060 152.4865000 149.0060030 145.7250660 153.2127090 148.3941300
 145.5353950 151.7167910 148.5287940 148.3116720 145.8300070 152.3883700
 147.8684870 146.6109610 152.0568220 148.8701710 146.1529960 153.0954640
 151.4275540 145.4510770 147.2689530 150.8029720 145.4470640 147.9942840
 151.3405660 144.5841730 146.8725500 150.3492620 146.3747400 154.2473300
 150.6464950 147.2810230 154.1665320 150.8978180 145.8866180 153.6332870
 148.1030940 150.9533640 150.1164950 147.8771860 150.7370810 151.0211570
 147.3223470 151.3862100 149.7710920 142.9757740 146.1861350 152.9689080
 142.6870790 146.7564210 153.6814060 143.7203500 145.7065800 153.3320310
 143.1627970 150.1281470 144.1791800 143.0802640 151.0712230 144.3206790
 142.8111030 149.9856380 143.3004150 150.9626100 148.8620500 153.2462150
 150.9662160 148.4210450 152.3966690 151.8577220 149.1837830 153.3533970
 146.8128480 148.7446990 152.2056360 146.4728530 149.2222220 152.9623410
 146.0505800 148.2912110 151.8457460 151.0246250 149.8632580 146.2368910
 151.1459070 149.8219060 147.1854730 150.6394760 150.7256730 146.0815640
 150.0367750 152.1733720 145.6352210 149.4684650 151.7251970 145.0088120
 150.7456750 152.5326500 145.1017360 144.1274560 147.6665970 151.1221030
 143.8421480 147.3021640 151.9599650 144.0653420 146.9346430 150.5084170
 143.6205220 152.8024920 145.0817730 144.4900070 153.0849720 145.3653650
 143.1295540 153.6160790 144.9666540 146.6851810 144.5335780 149.6748530
 146.5566440 144.5253680 150.6233450 145.8613830 144.8718870 149.3239540
 150.5130580 150.0192100 149.1102120 149.8046730 150.4878440 149.5515730
 150.7975060 149.3614110 149.7447310 148.7165600 148.3277180 146.4852830
 149.5656130 148.7647330 146.4193020 148.3496870 148.6397440 147.3124890
 147.6157020 154.5809540 144.9588360 148.3820290 154.4690900 145.5213790
 147.6931710 153.8847510 144.3065130 146.3103780 152.0134610 145.6421250
 146.3907370 151.0662120 145.7538650 147.2023530 152.3441490 145.7481910
 149.6476050 154.5774670 146.9331000 150.0692470 154.4114540 147.7762390
 149.7726890 153.7674900 146.4386140 152.1603690 153.6012280 144.1808100
 152.6809350 152.8861300 143.8149250 152.8072090 154.2398150 144.4808610
 148.5434950 150.6507900 143.8789160 148.3424010 149.7875260 144.2402500
 148.3727000 150.5641260 142.9410760 147.3417750 147.7508520 143.8667040
 147.6443650 147.7575950 142.9586190 148.0812340 147.4006380 144.3634700
 150.5602680 146.6943140 144.8523240 150.2124680 146.0167130 144.2725690
 150.7615450 146.2332650 145.6666630 143.9008320 153.2230790 151.2487610
 143.2457160 152.9542430 150.6047310 144.7386270 153.1135270 150.7989590
 143.1146400 150.4329720 147.1912940 142.2110480 150.6959920 147.0164600
 143.5987020 150.7040890 146.4112900 145.6573610 149.4895260 145.1007320
 146.3665310 149.0678480 144.6154600 144.9413550 149.5570490 144.4690670
 145.3047770 145.5434590 144.1409970 146.0275900 146.0843530 144.4591190
 145.5772290 145.2698010 143.2651510 144.7294610 145.5827850 147.7345540
 145.4873970 145.6956730 147.1609570 144.2671780 146.4197050 147.6888970
 151.2708420 147.6967120 150.7247850 150.4582930 147.3224010 150.3843730
 151.7750060 146.9412200 151.0269040 147.1019760 146.1091900 146.2747510
 147.6312520 145.3221700 146.1455460 147.7348080 146.7883090 146.5083040
 149.2957600 145.8467040 149.3292900 148.6660340 145.1454350 149.4963030
 148.7562740 146.6071170 149.1126060 147.0770640 154.6495900 135.4645630
 146.2455520 154.3944610 135.8642140 147.6851620 154.7206670 136.2003550
 145.4862590 149.6097790 129.2488020 144.5979290 149.9513760 129.1467900
 145.7703780 149.4098110 128.3568850 143.4495600 152.2103440 135.1327720
 144.0211710 151.4425640 135.1331360 143.4497140 152.5092200 134.2234330
 144.6920470 147.6187800 136.9196650 144.5123310 146.7213550 137.1999410
 144.2900550 148.1659670 137.5943600 147.6623980 148.1929290 130.2826400
 147.7690730 149.0933020 130.5895160 146.7516340 148.1447260 129.9921050
 145.3107140 150.1148300 135.5278990 145.9917250 150.3786670 136.1466390
 144.9955190 149.2749170 135.8617000 149.5031710 151.1615660 134.6151580
 150.0109930 151.6596630 135.2556600 150.0344950 150.3850860 134.4390940
 147.7867810 145.8014220 138.8815000 147.7886250 146.3186610 138.0760900
 146.9572120 145.3244400 138.8584930 147.4683140 147.5124180 136.8885450
 147.8099950 148.3566230 136.5939320 146.5298950 147.6607920 137.0050790
 151.1511030 145.0006450 133.2130040 151.4586010 144.4453340 132.4965540
 150.2211730 145.1350910 133.0303030 149.1448430 153.5920020 132.7309890
 148.7405430 152.8797270 132.2355790 149.2311550 153.2473260 133.6197930
 147.8577050 150.3663230 136.5108930 148.4091640 150.4758570 135.7362180
 148.3720560 150.7400830 137.2264160 147.5319780 153.8882590 140.1214270
 147.3927550 154.7605390 140.4901670 146.6501140 153.5455400 139.9762210
 145.8453060 152.4865000 130.2316540 145.7250660 153.2127090 129.6197810
 145.5353950 151.7167910 129.7544450 148.3116720 145.8300070 133.6140210
 147.8684870 146.6109610 133.2824730 148.8701710 146.1529960 134.3211150
 152.5986530 148.6968590 139.2175530 152.1365900 148.9051610 140.0295470
 152.1964640 147.8827940 138.9146200 151.4275540 145.4510770 128.4946040
 150.8029720 145.4470640 129.2199350 151.3405660 144.5841730 128.0982010
 150.3492620 146.3747400 135.4729810 150.6464950 147.2810230 135.3921830
 150.8978180 145.8866180 134.8589380 148.1030940 150.9533640 131.3421460
 147.8771860 150.7370810 132.2468080 147.3223470 151.3862100 130.9967430
 150.5430150 151.8519220 142.0081730 150.4473750 150.9113950 141.8582130
 151.3862130 152.0734290 141.6129800 145.6740690 148.2632890 140.1615510
 145.2804080 149.1108100 140.3688290 144.9859090 147.6259260 140.3524150
 152.2485740 148.3467860 143.2312250 151.5584060 148.1540060 143.8658340
 152.9918040 148.6302500 143.7636550 142.9757740 146.1861350 134.1945590
 142.6870790 146.7564210 134.9070570 143.7203500 145.7065800 134.5576820
 143.1627970 150.1281470 125.4048310 143.0802640 151.0712230 125.5463300
 142.8111030 149.9856380 124.5260660 150.9626100 148.8620500 134.4718660
 150.9662160 148.4210450 133.6223200 151.8577220 149.1837830 134.5790480
 146.8128480 148.7446990 133.4312870 146.4728530 149.2222220 134.1879920
 146.0505800 148.2912110 133.0713970 151.0246250 149.8632580 127.4625420
 151.1459070 149.8219060 128.4111240 150.6394760 150.7256730 127.3072150
 150.0367750 152.1733720 126.8608720 149.4684650 151.7251970 126.2344630
 150.7456750 152.5326500 126.3273870 151.2634070 152.9222280 136.2184070
 151.6304200 152.4480850 136.9645410 151.0739130 153.7963850 136.5592410
 144.1274560 147.6665970 132.3477540 143.8421480 147.3021640 133.1856160
 144.0653420 146.9346430 131.7340680 149.0533440 151.9630920 138.5368280
 148.7490510 152.8422900 138.7618640 150.0079900 152.0230710 138.5725720
 145.1097170 152.8033660 139.6839640 144.7512110 153.4687510 140.2712980
 144.8151730 151.9717210 140.0552260 148.3110290 153.2617900 142.5679190
 148.0110430 153.4075080 141.6707010 149.0821530 152.7023190 142.4752580
 143.6205220 152.8024920 126.3074240 144.4900070 153.0849720 126.5910160
 143.1295540 153.6160790 126.1923050 146.6851810 144.5335780 130.9005040
 146.5566440 144.5253680 131.8489960 145.8613830 144.8718870 130.5496050
 143.6845740 146.2926900 140.3611740 142.9704260 146.4923820 140.9664350
 144.1040780 145.5166470 140.7326540 150.5130580 150.0192100 130.3358630
 149.8046730 150.4878440 130.7772240 150.7975060 149.3614110 130.9703820
 152.1386510 151.4388800 138.3351160 152.6371760 151.9134620 139.0003010
 152.2809460 150.5152320 138.5421190 148.7165600 148.3277180 127.7109340
 149.5656130 148.7647330 127.6449530 148.3496870 148.6397440 128.5381400
 147.6157020 154.5809540 126.1844870 148.3820290 154.4690900 126.7470300
 147.6931710 153.8847510 125.5321640 146.3103780 152.0134610 126.8677760
 146.3907370 151.0662120 126.9795160 147.2023530 152.3441490 126.9738420
 143.8374580 153.8349530 142.1033930 144.3413600 153.2556810 142.6750160
 143.0982000 154.1189760 142.6410300 145.8697660 151.9779120 142.9984000
 145.9103000 151.6792990 143.9069230 146.7243160 152.3786730 142.8391520
 149.6476050 154.5774670 128.1587510 150.0692470 154.4114540 129.0018900
 149.7726890 153.7674900 127.6642650 147.8103470 150.5571220 140.9658490
 147.2799930 150.0662170 140.3381830 148.4791540 150.9855420 140.4316420
 152.1603690 153.6012280 125.4064610 152.6809350 152.8861300 125.0405760
 152.8072090 154.2398150 125.7065120 148.2975770 147.5233590 141.0455780
 148.2032640 146.9054340 140.3206650 147.7173160 148.2499880 140.8185690
 151.0637210 146.0806830 138.0783170 150.6154510 146.1031090 137.2328720
 150.4302410 145.6825850 138.6753470 148.5434950 150.6507900 125.1045670
 148.3424010 149.7875260 125.4659010 148.3727000 150.5641260 124.1667270
 150.5729430 149.2498690 141.3409270 151.1629120 148.9414540 142.0287090
 149.7549670 148.7778440 141.4969170 147.3417750 147.7508520 125.0923550
 147.6443650 147.7575950 124.1842700 148.0812340 147.4006380 125.5891210
 150.5602680 146.6943140 126.0779750 150.2124680 146.0167130 125.4982200
 150.7615450 146.2332650 126.8923140 143.9008320 153.2230790 132.4744120
 143.2457160 152.9542430 131.8303820 144.7386270 153.1135270 132.0246100
 144.9384250 153.6083360 137.0147460 145.3057290 153.5210760 137.8943480
 144.3695070 152.8449910 136.9154320 144.4900250 150.5192450 140.9205880
 143.5956300 150.4859210 141.2599590 145.0297800 150.7179240 141.6857130
 143.1146400 150.4329720 128.4169450 142.2110480 150.6959920 128.2421110
 143.5987020 150.7040890 127.6369410 145.6573610 149.4895260 126.3263830
 146.3665310 149.0678480 125.8411110 144.9413550 149.5570490 125.6947180
 145.3047770 145.5434590 125.3666480 146.0275900 146.0843530 125.6847700
 145.5772290 145.2698010 124.4908020 144.9939960 144.7940780 135.2689100
 145.6416150 144.2438160 134.8284260 145.4141800 145.0483930 136.0904910
 144.7471960 144.9496450 138.0114420 144.3986780 145.4060270 138.7772600
 144.4159660 144.0553580 138.0936850 145.4192600 144.4772650 141.2865190
 145.9675590 144.2960700 140.5231300 145.4847910 143.6866760 141.8221500
 144.7294610 145.5827850 128.9602050 145.4873970 145.6956730 128.3866080
 144.2671780 146.4197050 128.9145480 151.2708420 147.6967120 131.9504360
 150.4582930 147.3224010 131.6100240 151.7750060 146.9412200 132.2525550
 147.1019760 146.1091900 127.5004020 147.6312520 145.3221700 127.3711970
 147.7348080 146.7883090 127.7339550 149.2957600 145.8467040 130.5549410
 148.6660340 145.1454350 130.7219540 148.7562740 146.6071170 130.3382570
 149.4213160 145.1251020 142.9901900 149.1397430 145.6284620 142.2262720
 149.8032860 144.3272770 142.6244030 147.0770640 154.6495900 116.6902140
 146.2455520 154.3944610 117.0898650 147.6851620 154.7206670 117.4260060
 145.4862590 149.6097790 110.4744530 144.5979290 149.9513760 110.3724410
 145.7703780 149.4098110 109.5825360 143.4495600 152.2103440 116.3584230
 144.0211710 151.4425640 116.3587870 143.4497140 152.5092200 115.4490840
 144.6920470 147.6187800 118.1453160 144.5123310 146.7213550 118.4255920
 144.2900550 148.1659670 118.8200110 147.6623980 148.1929290 111.5082910
 147.7690730 149.0933020 111.8151670 146.7516340 148.1447260 111.2177560
 145.3107140 150.1148300 116.7535500 145.9917250 150.3786670 117.3722900
 144.9955190 149.2749170 117.0873510 149.5031710 151.1615660 115.8408090
 150.0109930 151.6596630 116.4813110 150.0344950 150.3850860 115.6647450
 147.7867810 145.8014220 120.1071510 147.7886250 146.3186610 119.3017410
 146.9572120 145.3244400 120.0841440 147.4683140 147.5124180 118.1141960
 147.8099950 148.3566230 117.8195830 146.5298950 147.6607920 118.2307300
 151.1511030 145.0006450 114.4386550 151.4586010 144.4453340 113.7222050
 150.2211730 145.1350910 114.2559540 149.1448430 153.5920020 113.9566400
 148.7405430 152.8797270 113.4612300 149.2311550 153.2473260 114.8454440
 147.8577050 150.3663230 117.7365440 148.4091640 150.4758570 116.9618690
 148.3720560 150.7400830 118.4520670 147.5319780 153.8882590 121.3470780
 147.3927550 154.7605390 121.7158180 146.6501140 153.5455400 121.2018720
 145.8453060 152.4865000 111.4573050 145.7250660 153.2127090 110.8454320
 145.5353950 151.7167910 110.9800960 148.3116720 145.8300070 114.8396720
 147.8684870 146.6109610 114.5081240 148.8701710 146.1529960 115.5467660
 152.5986530 148.6968590 120.4432040 152.1365900 148.9051610 121.2551980
 152.1964640 147.8827940 120.1402710 151.4275540 145.4510770 109.7202550
 150.8029720 145.4470640 110.4455860 151.3405660 144.5841730 109.3238520
 150.3492620 146.3747400 116.6986320 150.6464950 147.2810230 116.6178340
 150.8978180 145.8866180 116.0845890 148.1030940 150.9533640 112.5677970
 147.8771860 150.7370810 113.4724590 147.3223470 151.3862100 112.2223940
 150.5430150 151.8519220 123.2338240 150.4473750 150.9113950 123.0838640
 151.3862130 152.0734290 122.8386310 145.6740690 148.2632890 121.3872020
 145.2804080 149.1108100 121.5944800 144.9859090 147.6259260 121.5780660
 152.2485740 148.3467860 124.4568760 151.5584060 148.1540060 125.0914850
 152.9918040 148.6302500 124.9893060 142.9757740 146.1861350 115.4202100
 142.6870790 146.7564210 116.1327080 143.7203500 145.7065800 115.7833330
 143.1627970 150.1281470 106.6304820 143.0802640 151.0712230 106.7719810
 142.8111030 149.9856380 105.7517170 150.9626100 148.8620500 115.6975170
 150.9662160 148.4210450 114.8479710 151.8577220 149.1837830 115.8046990
 146.8128480 148.7446990 114.6569380 146.4728530 149.2222220 115.4136430
 146.0505800 148.2912110 114.2970480 151.0246250 149.8632580 108.6881930
 151.1459070 149.8219060 109.6367750 150.6394760 150.7256730 108.5328660
 150.0367750 152.1733720 108.0865230 149.4684650 151.7251970 107.4601140
 150.7456750 152.5326500 107.5530380 151.2634070 152.9222280 117.4440580
 151.6304200 152.4480850 118.1901920 151.0739130 153.7963850 117.7848920
 144.1274560 147.6665970 113.5734050 143.8421480 147.3021640 114.4112670
 144.0653420 146.9346430 112.9597190 149.0533440 151.9630920 119.7624790
 148.7490510 152.8422900 119.9875150 150.0079900 152.0230710 119.7982230
 145.1097170 152.8033660 120.9096150 144.7512110 153.4687510 121.4969490
 144.8151730 151.9717210 121.2808770 148.3110290 153.2617900 123.7935700
 148.0110430 153.4075080 122.8963520 149.0821530 152.7023190 123.7009090
 143.6205220 152.8024920 107.5330750 144.4900070 153.0849720 107.8166670
 143.1295540 153.6160790 107.4179560 146.6851810 144.5335780 112.1261550
 146.5566440 144.5253680 113.0746470 145.8613830 144.8718870 111.7752560
 143.6845740 146.2926900 121.5868250 142.9704260 146.4923820 122.1920860
 144.1040780 145.5166470 121.9583050 150.5130580 150.0192100 111.5615140
 149.8046730 150.4878440 112.0028750 150.7975060 149.3614110 112.1960330
 152.1386510 151.4388800 119.5607670 152.6371760 151.9134620 120.2259520
 152.2809460 150.5152320 119.7677700 148.7165600 148.3277180 108.9365850
 149.5656130 148.7647330 108.8706040 148.3496870 148.6397440 109.7637910
 147.6157020 154.5809540 107.4101380 148.3820290 154.4690900 107.9726810
 147.6931710 153.8847510 106.7578150 146.3103780 152.0134610 108.0934270
 146.3907370 151.0662120 108.2051670 147.2023530 152.3441490 108.1994930
 143.8374580 153.8349530 123.3290440 144.3413600 153.2556810 123.9006670
 143.0982000 154.1189760 123.8666810 145.8697660 151.9779120 124.2240510
 145.9103000 151.6792990 125.1325740 146.7243160 152.3786730 124.0648030
 149.6476050 154.5774670 109.3844020 150.0692470 154.4114540 110.2275410
 149.7726890 153.7674900 108.8899160 147.8103470 150.5571220 122.1915000
 147.2799930 150.0662170 121.5638340 148.4791540 150.9855420 121.6572930
 152.1603690 153.6012280 106.6321120 152.6809350 152.8861300 106.2662270
 152.8072090 154.2398150 106.9321630 148.2975770 147.5233590 122.2712290
 148.2032640 146.9054340 121.5463160 147.7173160 148.2499880 122.0442200
 151.0637210 146.0806830 119.3039680 150.6154510 146.1031090 118.4585230
 150.4302410 145.6825850 119.9009980 148.5434950 150.6507900 106.3302180
 148.3424010 149.7875260 106.6915520 148.3727000 150.5641260 105.3923780
 150.5729430 149.2498690 122.5665780 151.1629120 148.9414540 123.2543600
 149.7549670 148.7778440 122.7225680 147.3417750 147.7508520 106.3180060
 147.6443650 147.7575950 105.4099210 148.0812340 147.4006380 106.8147720
 150.5602680 146.6943140 107.3036260 150.2124680 146.0167130 106.7238710
 150.7615450 146.2332650 108.1179650 143.9008320 153.2230790 113.7000630
 143.2457160 152.9542430 113.0560330 144.7386270 153.1135270 113.2502610
 144.9384250 153.6083360 118.2403970 145.3057290 153.5210760 119.1199990
 144.3695070 152.8449910 118.1410830 144.4900250 150.5192450 122.1462390
 143.5956300 150.4859210 122.4856100 145.0297800 150.7179240 122.9113640
 143.1146400 150.4329720 109.6425960 142.2110480 150.6959920 109.4677620
 143.5987020 150.7040890 108.8625920 145.6573610 149.4895260 107.5520340
 146.3665310 149.0678480 107.0667620 144.9413550 149.5570490 106.9203690
 145.3047770 145.5434590 106.5922990 146.0275900 146.0843530 106.9104210
 145.5772290 145.2698010 105.7164530 144.9939960 144.7940780 116.4945610
 145.6416150 144.2438160 116.0540770 145.4141800 145.0483930 117.3161420
 144.7471960 144.9496450 119.2370930 144.3986780 145.4060270 120.0029110
 144.4159660 144.0553580 119.3193360 145.4192600 144.4772650 122.5121700
 145.9675590 144.2960700 121.7487810 145.4847910 143.6866760 123.0478010
 144.7294610 145.5827850 110.1858560 145.4873970 145.6956730 109.6122590
 144.2671780 146.4197050 110.1401990 151.2708420 147.6967120 113.1760870
 150.4582930 147.3224010 112.8356750 151.7750060 146.9412200 113.4782060
 147.1019760 146.1091900 108.7260530 147.6312520 145.3221700 108.5968480
 147.7348080 146.7883090 108.9596060 149.2957600 145.8467040 111.7805920
 148.6660340 145.1454350 111.9476050 148.7562740 146.6071170 111.5639080
 149.4213160 145.1251020 124.2158410 149.1397430 145.6284620 123.4519230
 149.8032860 144.3272770 123.8500540 147.0770640 154.6495900  97.9158650
 146.2455520 154.3944610  98.3155160 147.6851620 154.7206670  98.6516570
 145.4862590 149.6097790  91.7001040 144.5979290 149.9513760  91.5980920
 145.7703780 149.4098110  90.8081870 143.4495600 152.2103440  97.5840740
 144.0211710 151.4425640  97.5844380 143.4497140 152.5092200  96.6747350
 144.6920470 147.6187800  99.3709670 144.5123310 146.7213550  99.6512430
 144.2900550 148.1659670 100.0456620 147.6623980 148.1929290  92.7339420
 147.7690730 149.0933020  93.0408180 146.7516340 148.1447260  92.4434070
 145.3107140 150.1148300  97.9792010 145.9917250 150.3786670  98.5979410
 144.9955190 149.2749170  98.3130020 149.5031710 151.1615660  97.0664600
 150.0109930 151.6596630  97.7069620 150.0344950 150.3850860  96.8903960
 147.7867810 145.8014220 101.3328020 147.7886250 146.3186610 100.5273920
 146.9572120 145.3244400 101.3097950 147.4683140 147.5124180  99.3398470
 147.8099950 148.3566230  99.0452340 146.5298950 147.6607920  99.4563810
 151.1511030 145.0006450  95.6643060 151.4586010 144.4453340  94.9478560
 150.2211730 145.1350910  95.4816050 149.1448430 153.5920020  95.1822910
 148.7405430 152.8797270  94.6868810 149.2311550 153.2473260  96.0710950
 147.8577050 150.3663230  98.9621950 148.4091640 150.4758570  98.1875200
 148.3720560 150.7400830  99.6777180 147.5319780 153.8882590 102.5727290
 147.3927550 154.7605390 102.9414690 146.6501140 153.5455400 102.4275230
 145.8453060 152.4865000  92.6829560 145.7250660 153.2127090  92.0710830
 145.5353950 151.7167910  92.2057470 148.3116720 145.8300070  96.0653230
 147.8684870 146.6109610  95.7337750 148.8701710 146.1529960  96.7724170
 152.5986530 148.6968590 101.6688550 152.1365900 148.9051610 102.4808490
 152.1964640 147.8827940 101.3659220 151.4275540 145.4510770  90.9459060
 150.8029720 145.4470640  91.6712370 151.3405660 144.5841730  90.5495030
 150.3492620 146.3747400  97.9242830 150.6464950 147.2810230  97.8434850
 150.8978180 145.8866180  97.3102400 148.1030940 150.9533640  93.7934480
 147.8771860 150.7370810  94.6981100 147.3223470 151.3862100  93.4480450
 150.5430150 151.8519220 104.4594750 150.4473750 150.9113950 104.3095150
 151.3862130 152.0734290 104.0642820 145.6740690 148.2632890 102.6128530
 145.2804080 149.1108100 102.8201310 144.9859090 147.6259260 102.8037170
 152.2485740 148.3467860 105.6825270 151.5584060 148.1540060 106.3171360
 152.9918040 148.6302500 106.2149570 142.9757740 146.1861350  96.6458610
 142.6870790 146.7564210  97.3583590 143.7203500 145.7065800  97.0089840
 143.1627970 150.1281470  87.8561330 143.0802640 151.0712230  87.9976320
 142.8111030 149.9856380  86.9773680 150.9626100 148.8620500  96.9231680
 150.9662160 148.4210450  96.0736220 151.8577220 149.1837830  97.0303500
 146.8128480 148.7446990  95.8825890 146.4728530 149.2222220  96.6392940
 146.0505800 148.2912110  95.5226990 151.0246250 149.8632580  89.9138440
 151.1459070 149.8219060  90.8624260 150.6394760 150.7256730  89.7585170
 150.0367750 152.1733720  89.3121740 149.4684650 151.7251970  88.6857650
 150.7456750 152.5326500  88.7786890 151.2634070 152.9222280  98.6697090
 151.6304200 152.4480850  99.4158430 151.0739130 153.7963850  99.0105430
 144.1274560 147.6665970  94.7990560 143.8421480 147.3021640  95.6369180
 144.0653420 146.9346430  94.1853700 149.0533440 151.9630920 100.9881300
 148.7490510 152.8422900 101.2131660 150.0079900 152.0230710 101.0238740
 145.1097170 152.8033660 102.1352660 144.7512110 153.4687510 102.7226000
 144.8151730 151.9717210 102.5065280 148.3110290 153.2617900 105.0192210
 148.0110430 153.4075080 104.1220030 149.0821530 152.7023190 104.9265600
 143.6205220 152.8024920  88.7587260 144.4900070 153.0849720  89.0423180
 143.1295540 153.6160790  88.6436070 146.6851810 144.5335780  93.3518060
 146.5566440 144.5253680  94.3002980 145.8613830 144.8718870  93.0009070
 143.6845740 146.2926900 102.8124760 142.9704260 146.4923820 103.4177370
 144.1040780 145.5166470 103.1839560 150.5130580 150.0192100  92.7871650
 149.8046730 150.4878440  93.2285260 150.7975060 149.3614110  93.4216840
 152.1386510 151.4388800 100.7864180 152.6371760 151.9134620 101.4516030
 152.2809460 150.5152320 100.9934210 148.7165600 148.3277180  90.1622360
 149.5656130 148.7647330  90.0962550 148.3496870 148.6397440  90.9894420
 147.6157020 154.5809540  88.6357890 148.3820290 154.4690900  89.1983320
 147.6931710 153.8847510  87.9834660 146.3103780 152.0134610  89.3190780
 146.3907370 151.0662120  89.4308180 147.2023530 152.3441490  89.4251440
 143.8374580 153.8349530 104.5546950 144.3413600 153.2556810 105.1263180
 143.0982000 154.1189760 105.0923320 145.8697660 151.9779120 105.4497020
 145.9103000 151.6792990 106.3582250 146.7243160 152.3786730 105.2904540
 149.6476050 154.5774670  90.6100530 150.0692470 154.4114540  91.4531920
 149.7726890 153.7674900  90.1155670 147.8103470 150.5571220 103.4171510
 147.2799930 150.0662170 102.7894850 148.4791540 150.9855420 102.8829440
 152.1603690 153.6012280  87.8577630 152.6809350 152.8861300  87.4918780
 152.8072090 154.2398150  88.1578140 148.2975770 147.5233590 103.4968800
 148.2032640 146.9054340 102.7719670 147.7173160 148.2499880 103.2698710
 151.0637210 146.0806830 100.5296190 150.6154510 146.1031090  99.6841740
 150.4302410 145.6825850 101.1266490 148.5434950 150.6507900  87.5558690
 148.3424010 149.7875260  87.9172030 148.3727000 150.5641260  86.6180290
 150.5729430 149.2498690 103.7922290 151.1629120 148.9414540 104.4800110
 149.7549670 148.7778440 103.9482190 147.3417750 147.7508520  87.5436570
 147.6443650 147.7575950  86.6355720 148.0812340 147.4006380  88.0404230
 150.5602680 146.6943140  88.5292770 150.2124680 146.0167130  87.9495220
 150.7615450 146.2332650  89.3436160 143.9008320 153.2230790  94.9257140
 143.2457160 152.9542430  94.2816840 144.7386270 153.1135270  94.4759120
 144.9384250 153.6083360  99.4660480 145.3057290 153.5210760 100.3456500
 144.3695070 152.8449910  99.3667340 144.4900250 150.5192450 103.3718900
 143.5956300 150.4859210 103.7112610 145.0297800 150.7179240 104.1370150
 143.1146400 150.4329720  90.8682470 142.2110480 150.6959920  90.6934130
 143.5987020 150.7040890  90.0882430 145.6573610 149.4895260  88.7776850
 146.3665310 149.0678480  88.2924130 144.9413550 149.5570490  88.1460200
 145.3047770 145.5434590  87.8179500 146.0275900 146.0843530  88.1360720
 145.5772290 145.2698010  86.9421040 144.9939960 144.7940780  97.7202120
 145.6416150 144.2438160  97.2797280 145.4141800 145.0483930  98.5417930
 144.7471960 144.9496450 100.4627440 144.3986780 145.4060270 101.2285620
 144.4159660 144.0553580 100.5449870 145.4192600 144.4772650 103.7378210
 145.9675590 144.2960700 102.9744320 145.4847910 143.6866760 104.2734520
 144.7294610 145.5827850  91.4115070 145.4873970 145.6956730  90.8379100
 144.2671780 146.4197050  91.3658500 151.2708420 147.6967120  94.4017380
 150.4582930 147.3224010  94.0613260 151.7750060 146.9412200  94.7038570
 147.1019760 146.1091900  89.9517040 147.6312520 145.3221700  89.8224990
 147.7348080 146.7883090  90.1852570 149.2957600 145.8467040  93.0062430
 148.6660340 145.1454350  93.1732560 148.7562740 146.6071170  92.7895590
 149.4213160 145.1251020 105.4414920 149.1397430 145.6284620 104.6775740
 149.8032860 144.3272770 105.0757050 147.0770640 154.6495900  79.1415160
 146.2455520 154.3944610  79.5411670 147.6851620 154.7206670  79.8773080
 145.4862590 149.6097790  72.9257550 144.5979290 149.9513760  72.8237430
 145.7703780 149.4098110  72.0338380 143.4495600 152.2103440  78.8097250
 144.0211710 151.4425640  78.8100890 143.4497140 152.5092200  77.9003860
 144.6920470 147.6187800  80.5966180 144.5123310 146.7213550  80.8768940
 144.2900550 148.1659670  81.2713130 147.6623980 148.1929290  73.9595930
 147.7690730 149.0933020  74.2664690 146.7516340 148.1447260  73.6690580
 145.3107140 150.1148300  79.2048520 145.9917250 150.3786670  79.8235920
 144.9955190 149.2749170  79.5386530 149.5031710 151.1615660  78.2921110
 150.0109930 151.6596630  78.9326130 150.0344950 150.3850860  78.1160470
 147.7867810 145.8014220  82.5584530 147.7886250 146.3186610  81.7530430
 146.9572120 145.3244400  82.5354460 147.4683140 147.5124180  80.5654980
 147.8099950 148.3566230  80.2708850 146.5298950 147.6607920  80.6820320
 151.1511030 145.0006450  76.8899570 151.4586010 144.4453340  76.1735070
 150.2211730 145.1350910  76.7072560 149.1448430 153.5920020  76.4079420
 148.7405430 152.8797270  75.9125320 149.2311550 153.2473260  77.2967460
 147.8577050 150.3663230  80.1878460 148.4091640 150.4758570  79.4131710
 148.3720560 150.7400830  80.9033690 147.5319780 153.8882590  83.7983800
 147.3927550 154.7605390  84.1671200 146.6501140 153.5455400  83.6531740
 145.8453060 152.4865000  73.9086070 145.7250660 153.2127090  73.2967340
 145.5353950 151.7167910  73.4313980 148.3116720 145.8300070  77.2909740
 147.8684870 146.6109610  76.9594260 148.8701710 146.1529960  77.9980680
 152.5986530 148.6968590  82.8945060 152.1365900 148.9051610  83.7065000
 152.1964640 147.8827940  82.5915730 151.4275540 145.4510770  72.1715570
 150.8029720 145.4470640  72.8968880 151.3405660 144.5841730  71.7751540
 150.3492620 146.3747400  79.1499340 150.6464950 147.2810230  79.0691360
 150.8978180 145.8866180  78.5358910 148.1030940 150.9533640  75.0190990
 147.8771860 150.7370810  75.9237610 147.3223470 151.3862100  74.6736960
 150.5430150 151.8519220  85.6851260 150.4473750 150.9113950  85.5351660
 151.3862130 152.0734290  85.2899330 145.6740690 148.2632890  83.8385040
 145.2804080 149.1108100  84.0457820 144.9859090 147.6259260  84.0293680
 152.2485740 148.3467860  86.9081780 151.5584060 148.1540060  87.5427870
 152.9918040 148.6302500  87.4406080 142.9757740 146.1861350  77.8715120
 142.6870790 146.7564210  78.5840100 143.7203500 145.7065800  78.2346350
 143.1627970 150.1281470  69.0817840 143.0802640 151.0712230  69.2232830
 142.8111030 149.9856380  68.2030190 150.9626100 148.8620500  78.1488190
 150.9662160 148.4210450  77.2992730 151.8577220 149.1837830  78.2560010
 146.8128480 148.7446990  77.1082400 146.4728530 149.2222220  77.8649450
 146.0505800 148.2912110  76.7483500 151.0246250 149.8632580  71.1394950
 151.1459070 149.8219060  72.0880770 150.6394760 150.7256730  70.9841680
 150.0367750 152.1733720  70.5378250 149.4684650 151.7251970  69.9114160
 150.7456750 152.5326500  70.0043400 151.2634070 152.9222280  79.8953600
 151.6304200 152.4480850  80.6414940 151.0739130 153.7963850  80.2361940
 144.1274560 147.6665970  76.0247070 143.8421480 147.3021640  76.8625690
 144.0653420 146.9346430  75.4110210 149.0533440 151.9630920  82.2137810
 148.7490510 152.8422900  82.4388170 150.0079900 152.0230710  82.2495250
 145.1097170 152.8033660  83.3609170 144.7512110 153.4687510  83.9482510
 144.8151730 151.9717210  83.7321790 148.3110290 153.2617900  86.2448720
 148.0110430 153.4075080  85.3476540 149.0821530 152.7023190  86.1522110
 143.6205220 152.8024920  69.9843770 144.4900070 153.0849720  70.2679690
 143.1295540 153.6160790  69.8692580 146.6851810 144.5335780  74.5774570
 146.5566440 144.5253680  75.5259490 145.8613830 144.8718870  74.2265580
 143.6845740 146.2926900  84.0381270 142.9704260 146.4923820  84.6433880
 144.1040780 145.5166470  84.4096070 150.5130580 150.0192100  74.0128160
 149.8046730 150.4878440  74.4541770 150.7975060 149.3614110  74.6473350
 152.1386510 151.4388800  82.0120690 152.6371760 151.9134620  82.6772540
 152.2809460 150.5152320  82.2190720 148.7165600 148.3277180  71.3878870
 149.5656130 148.7647330  71.3219060 148.3496870 148.6397440  72.2150930
 147.6157020 154.5809540  69.8614400 148.3820290 154.4690900  70.4239830
 147.6931710 153.8847510  69.2091170 146.3103780 152.0134610  70.5447290
 146.3907370 151.0662120  70.6564690 147.2023530 152.3441490  70.6507950
 143.8374580 153.8349530  85.7803460 144.3413600 153.2556810  86.3519690
 143.0982000 154.1189760  86.3179830 145.8697660 151.9779120  86.6753530
 145.9103000 151.6792990  87.5838760 146.7243160 152.3786730  86.5161050
 149.6476050 154.5774670  71.8357040 150.0692470 154.4114540  72.6788430
 149.7726890 153.7674900  71.3412180 147.8103470 150.5571220  84.6428020
 147.2799930 150.0662170  84.0151360 148.4791540 150.9855420  84.1085950
 152.1603690 153.6012280  69.0834140 152.6809350 152.8861300  68.7175290
 152.8072090 154.2398150  69.3834650 148.2975770 147.5233590  84.7225310
 148.2032640 146.9054340  83.9976180 147.7173160 148.2499880  84.4955220
 151.0637210 146.0806830  81.7552700 150.6154510 146.1031090  80.9098250
 150.4302410 145.6825850  82.3523000 148.5434950 150.6507900  68.7815200
 148.3424010 149.7875260  69.1428540 148.3727000 150.5641260  67.8436800
 150.5729430 149.2498690  85.0178800 151.1629120 148.9414540  85.7056620
 149.7549670 148.7778440  85.1738700 147.3417750 147.7508520  68.7693080
 147.6443650 147.7575950  67.8612230 148.0812340 147.4006380  69.2660740
 150.5602680 146.6943140  69.7549280 150.2124680 146.0167130  69.1751730
 150.7615450 146.2332650  70.5692670 143.9008320 153.2230790  76.1513650
 143.2457160 152.9542430  75.5073350 144.7386270 153.1135270  75.7015630
 144.9384250 153.6083360  80.6916990 145.3057290 153.5210760  81.5713010
 144.3695070 152.8449910  80.5923850 144.4900250 150.5192450  84.5975410
 143.5956300 150.4859210  84.9369120 145.0297800 150.7179240  85.3626660
 143.1146400 150.4329720  72.0938980 142.2110480 150.6959920  71.9190640
 143.5987020 150.7040890  71.3138940 145.6573610 149.4895260  70.0033360
 146.3665310 149.0678480  69.5180640 144.9413550 149.5570490  69.3716710
 145.3047770 145.5434590  69.0436010 146.0275900 146.0843530  69.3617230
 145.5772290 145.2698010  68.1677550 144.9939960 144.7940780  78.9458630
 145.6416150 144.2438160  78.5053790 145.4141800 145.0483930  79.7674440
 144.7471960 144.9496450  81.6883950 144.3986780 145.4060270  82.4542130
 144.4159660 144.0553580  81.7706380 145.4192600 144.4772650  84.9634720
 145.9675590 144.2960700  84.2000830 145.4847910 143.6866760  85.4991030
 144.7294610 145.5827850  72.6371580 145.4873970 145.6956730  72.0635610
 144.2671780 146.4197050  72.5915010 151.2708420 147.6967120  75.6273890
 150.4582930 147.3224010  75.2869770 151.7750060 146.9412200  75.9295080
 147.1019760 146.1091900  71.1773550 147.6312520 145.3221700  71.0481500
 147.7348080 146.7883090  71.4109080 149.2957600 145.8467040  74.2318940
 148.6660340 145.1454350  74.3989070 148.7562740 146.6071170  74.0152100
 149.4213160 145.1251020  86.6671430 149.1397430 145.6284620  85.9032250
 149.8032860 144.3272770  86.3013560 147.0770640 154.6495900  60.3671670
 146.2455520 154.3944610  60.7668180 147.6851620 154.7206670  61.1029590
 145.4862590 149.6097790  54.1514060 144.5979290 149.9513760  54.0493940
 145.7703780 149.4098110  53.2594890 143.4495600 152.2103440  60.0353760
 144.0211710 151.4425640  60.0357400 143.4497140 152.5092200  59.1260370
 144.6920470 147.6187800  61.8222690 144.5123310 146.7213550  62.1025450
 144.2900550 148.1659670  62.4969640 147.6623980 148.1929290  55.1852440
 147.7690730 149.0933020  55.4921200 146.7516340 148.1447260  54.8947090
 145.3107140 150.1148300  60.4305030 145.9917250 150.3786670  61.0492430
 144.9955190 149.2749170  60.7643040 149.5031710 151.1615660  59.5177620
 150.0109930 151.6596630  60.1582640 150.0344950 150.3850860  59.3416980
 147.7867810 145.8014220  63.7841040 147.7886250 146.3186610  62.9786940
 146.9572120 145.3244400  63.7610970 147.4683140 147.5124180  61.7911490
 147.8099950 148.3566230  61.4965360 146.5298950 147.6607920  61.9076830
 151.1511030 145.0006450  58.1156080 151.4586010 144.4453340  57.3991580
 150.2211730 145.1350910  57.9329070 149.1448430 153.5920020  57.6335930
 148.7405430 152.8797270  57.1381830 149.2311550 153.2473260  58.5223970
 147.8577050 150.3663230  61.4134970 148.4091640 150.4758570  60.6388220
 148.3720560 150.7400830  62.1290200 147.5319780 153.8882590  65.0240310
 147.3927550 154.7605390  65.3927710 146.6501140 153.5455400  64.8788250
 145.8453060 152.4865000  55.1342580 145.7250660 153.2127090  54.5223850
 145.5353950 151.7167910  54.6570490 148.3116720 145.8300070  58.5166250
 147.8684870 146.6109610  58.1850770 148.8701710 146.1529960  59.2237190
 152.5986530 148.6968590  64.1201570 152.1365900 148.9051610  64.9321510
 152.1964640 147.8827940  63.8172240 151.4275540 145.4510770  53.3972080
 150.8029720 145.4470640  54.1225390 151.3405660 144.5841730  53.0008050
 150.3492620 146.3747400  60.3755850 150.6464950 147.2810230  60.2947870
 150.8978180 145.8866180  59.7615420 148.1030940 150.9533640  56.2447500
 147.8771860 150.7370810  57.1494120 147.3223470 151.3862100  55.8993470
 150.5430150 151.8519220  66.9107770 150.4473750 150.9113950  66.7608170
 151.3862130 152.0734290  66.5155840 145.6740690 148.2632890  65.0641550
 145.2804080 149.1108100  65.2714330 144.9859090 147.6259260  65.2550190
 152.2485740 148.3467860  68.1338290 151.5584060 148.1540060  68.7684380
 152.9918040 148.6302500  68.6662590 142.9757740 146.1861350  59.0971630
 142.6870790 146.7564210  59.8096610 143.7203500 145.7065800  59.4602860
 143.1627970 150.1281470  50.3074350 143.0802640 151.0712230  50.4489340
 142.8111030 149.9856380  49.4286700 150.9626100 148.8620500  59.3744700
 150.9662160 148.4210450  58.5249240 151.8577220 149.1837830  59.4816520
 146.8128480 148.7446990  58.3338910 146.4728530 149.2222220  59.0905960
 146.0505800 148.2912110  57.9740010 151.0246250 149.8632580  52.3651460
 151.1459070 149.8219060  53.3137280 150.6394760 150.7256730  52.2098190
 150.0367750 152.1733720  51.7634760 149.4684650 151.7251970  51.1370670
 150.7456750 152.5326500  51.2299910 151.2634070 152.9222280  61.1210110
 151.6304200 152.4480850  61.8671450 151.0739130 153.7963850  61.4618450
 144.1274560 147.6665970  57.2503580 143.8421480 147.3021640  58.0882200
 144.0653420 146.9346430  56.6366720 149.0533440 151.9630920  63.4394320
 148.7490510 152.8422900  63.6644680 150.0079900 152.0230710  63.4751760
 145.1097170 152.8033660  64.5865680 144.7512110 153.4687510  65.1739020
 144.8151730 151.9717210  64.9578300 148.3110290 153.2617900  67.4705230
 148.0110430 153.4075080  66.5733050 149.0821530 152.7023190  67.3778620
 143.6205220 152.8024920  51.2100280 144.4900070 153.0849720  51.4936200
 143.1295540 153.6160790  51.0949090 146.6851810 144.5335780  55.8031080
 146.5566440 144.5253680  56.7516000 145.8613830 144.8718870  55.4522090
 143.6845740 146.2926900  65.2637780 142.9704260 146.4923820  65.8690390
 144.1040780 145.5166470  65.6352580 150.5130580 150.0192100  55.2384670
 149.8046730 150.4878440  55.6798280 150.7975060 149.3614110  55.8729860
 152.1386510 151.4388800  63.2377200 152.6371760 151.9134620  63.9029050
 152.2809460 150.5152320  63.4447230 148.7165600 148.3277180  52.6135380
 149.5656130 148.7647330  52.5475570 148.3496870 148.6397440  53.4407440
 147.6157020 154.5809540  51.0870910 148.3820290 154.4690900  51.6496340
 147.6931710 153.8847510  50.4347680 146.3103780 152.0134610  51.7703800
 146.3907370 151.0662120  51.8821200 147.2023530 152.3441490  51.8764460
 143.8374580 153.8349530  67.0059970 144.3413600 153.2556810  67.5776200
 143.0982000 154.1189760  67.5436340 145.8697660 151.9779120  67.9010040
 145.9103000 151.6792990  68.8095270 146.7243160 152.3786730  67.7417560
 149.6476050 154.5774670  53.0613550 150.0692470 154.4114540  53.9044940
 149.7726890 153.7674900  52.5668690 147.8103470 150.5571220  65.8684530
 147.2799930 150.0662170  65.2407870 148.4791540 150.9855420  65.3342460
 152.1603690 153.6012280  50.3090650 152.6809350 152.8861300  49.9431800
 152.8072090 154.2398150  50.6091160 148.2975770 147.5233590  65.9481820
 148.2032640 146.9054340  65.2232690 147.7173160 148.2499880  65.7211730
 151.0637210 146.0806830  62.9809210 150.6154510 146.1031090  62.1354760
 150.4302410 145.6825850  63.5779510 148.5434950 150.6507900  50.0071710
 148.3424010 149.7875260  50.3685050 148.3727000 150.5641260  49.0693310
 150.5729430 149.2498690  66.2435310 151.1629120 148.9414540  66.9313130
 149.7549670 148.7778440  66.3995210 147.3417750 147.7508520  49.9949590
 147.6443650 147.7575950  49.0868740 148.0812340 147.4006380  50.4917250
 150.5602680 146.6943140  50.9805790 150.2124680 146.0167130  50.4008240
 150.7615450 146.2332650  51.7949180 143.9008320 153.2230790  57.3770160
 143.2457160 152.9542430  56.7329860 144.7386270 153.1135270  56.9272140
 144.9384250 153.6083360  61.9173500 145.3057290 153.5210760  62.7969520
 144.3695070 152.8449910  61.8180360 144.4900250 150.5192450  65.8231920
 143.5956300 150.4859210  66.1625630 145.0297800 150.7179240  66.5883170
 143.1146400 150.4329720  53.3195490 142.2110480 150.6959920  53.1447150
 143.5987020 150.7040890  52.5395450 145.6573610 149.4895260  51.2289870
 146.3665310 149.0678480  50.7437150 144.9413550 149.5570490  50.5973220
 145.3047770 145.5434590  50.2692520 146.0275900 146.0843530  50.5873740
 145.5772290 145.2698010  49.3934060 144.9939960 144.7940780  60.1715140
 145.6416150 144.2438160  59.7310300 145.4141800 145.0483930  60.9930950
 144.7471960 144.9496450  62.9140460 144.3986780 145.4060270  63.6798640
 144.4159660 144.0553580  62.9962890 145.4192600 144.4772650  66.1891230
 145.9675590 144.2960700  65.4257340 145.4847910 143.6866760  66.7247540
 144.7294610 145.5827850  53.8628090 145.4873970 145.6956730  53.2892120
 144.2671780 146.4197050  53.8171520 151.2708420 147.6967120  56.8530400
 150.4582930 147.3224010  56.5126280 151.7750060 146.9412200  57.1551590
 147.1019760 146.1091900  52.4030060 147.6312520 145.3221700  52.2738010
 147.7348080 146.7883090  52.6365590 149.2957600 145.8467040  55.4575450
 148.6660340 145.1454350  55.6245580 148.7562740 146.6071170  55.2408610
 149.4213160 145.1251020  67.8927940 149.1397430 145.6284620  67.1288760
 149.8032860 144.3272770  67.5270070 147.0770640 154.6495900  41.5928180
 146.2455520 154.3944610  41.9924690 147.6851620 154.7206670  42.3286100
 145.4862590 149.6097790  35.3770570 144.5979290 149.9513760  35.2750450
 145.7703780 149.4098110  34.4851400 143.4495600 152.2103440  41.2610270
 144.0211710 151.4425640  41.2613910 143.4497140 152.5092200  40.3516880
 144.6920470 147.6187800  43.0479200 144.5123310 146.7213550  43.3281960
 144.2900550 148.1659670  43.7226150 147.6623980 148.1929290  36.4108950
 147.7690730 149.0933020  36.7177710 146.7516340 148.1447260  36.1203600
 145.3107140 150.1148300  41.6561540 145.9917250 150.3786670  42.2748940
 144.9955190 149.2749170  41.9899550 149.5031710 151.1615660  40.7434130
 150.0109930 151.6596630  41.3839150 150.0344950 150.3850860  40.5673490
 147.7867810 145.8014220  45.0097550 147.7886250 146.3186610  44.2043450
 146.9572120 145.3244400  44.9867480 147.4683140 147.5124180  43.0168000
 147.8099950 148.3566230  42.7221870 146.5298950 147.6607920  43.1333340
 151.1511030 145.0006450  39.3412590 151.4586010 144.4453340  38.6248090
 150.2211730 145.1350910  39.1585580 149.1448430 153.5920020  38.8592440
 148.7405430 152.8797270  38.3638340 149.2311550 153.2473260  39.7480480
 147.8577050 150.3663230  42.6391480 148.4091640 150.4758570  41.8644730
 148.3720560 150.7400830  43.3546710 147.5319780 153.8882590  46.2496820
 147.3927550 154.7605390  46.6184220 146.6501140 153.5455400  46.1044760
 145.8453060 152.4865000  36.3599090 145.7250660 153.2127090  35.7480360
 145.5353950 151.7167910  35.8827000 148.3116720 145.8300070  39.7422760
 147.8684870 146.6109610  39.4107280 148.8701710 146.1529960  40.4493700
 152.5986530 148.6968590  45.3458080 152.1365900 148.9051610  46.1578020
 152.1964640 147.8827940  45.0428750 151.4275540 145.4510770  34.6228590
 150.8029720 145.4470640  35.3481900 151.3405660 144.5841730  34.2264560
 150.3492620 146.3747400  41.6012360 150.6464950 147.2810230  41.5204380
 150.8978180 145.8866180  40.9871930 148.1030940 150.9533640  37.4704010
 147.8771860 150.7370810  38.3750630 147.3223470 151.3862100  37.1249980
 150.5430150 151.8519220  48.1364280 150.4473750 150.9113950  47.9864680
 151.3862130 152.0734290  47.7412350 145.6740690 148.2632890  46.2898060
 145.2804080 149.1108100  46.4970840 144.9859090 147.6259260  46.4806700
 152.2485740 148.3467860  49.3594800 151.5584060 148.1540060  49.9940890
 152.9918040 148.6302500  49.8919100 142.9757740 146.1861350  40.3228140
 142.6870790 146.7564210  41.0353120 143.7203500 145.7065800  40.6859370
 143.1627970 150.1281470  31.5330860 143.0802640 151.0712230  31.6745850
 142.8111030 149.9856380  30.6543210 150.9626100 148.8620500  40.6001210
 150.9662160 148.4210450  39.7505750 151.8577220 149.1837830  40.7073030
 146.8128480 148.7446990  39.5595420 146.4728530 149.2222220  40.3162470
 146.0505800 148.2912110  39.1996520 151.0246250 149.8632580  33.5907970
 151.1459070 149.8219060  34.5393790 150.6394760 150.7256730  33.4354700
 150.0367750 152.1733720  32.9891270 149.4684650 151.7251970  32.3627180
 150.7456750 152.5326500  32.4556420 151.2634070 152.9222280  42.3466620
 151.6304200 152.4480850  43.0927960 151.0739130 153.7963850  42.6874960
 144.1274560 147.6665970  38.4760090 143.8421480 147.3021640  39.3138710
 144.0653420 146.9346430  37.8623230 149.0533440 151.9630920  44.6650830
 148.7490510 152.8422900  44.8901190 150.0079900 152.0230710  44.7008270
 145.1097170 152.8033660  45.8122190 144.7512110 153.4687510  46.3995530
 144.8151730 151.9717210  46.1834810 148.3110290 153.2617900  48.6961740
 148.0110430 153.4075080  47.7989560 149.0821530 152.7023190  48.6035130
 143.6205220 152.8024920  32.4356790 144.4900070 153.0849720  32.7192710
 143.1295540 153.6160790  32.3205600 146.6851810 144.5335780  37.0287590
 146.5566440 144.5253680  37.9772510 145.8613830 144.8718870  36.6778600
 143.6845740 146.2926900  46.4894290 142.9704260 146.4923820  47.0946900
 144.1040780 145.5166470  46.8609090 150.5130580 150.0192100  36.4641180
 149.8046730 150.4878440  36.9054790 150.7975060 149.3614110  37.0986370
 152.1386510 151.4388800  44.4633710 152.6371760 151.9134620  45.1285560
 152.2809460 150.5152320  44.6703740 148.7165600 148.3277180  33.8391890
 149.5656130 148.7647330  33.7732080 148.3496870 148.6397440  34.6663950
 147.6157020 154.5809540  32.3127420 148.3820290 154.4690900  32.8752850
 147.6931710 153.8847510  31.6604190 146.3103780 152.0134610  32.9960310
 146.3907370 151.0662120  33.1077710 147.2023530 152.3441490  33.1020970
 143.8374580 153.8349530  48.2316480 144.3413600 153.2556810  48.8032710
 143.0982000 154.1189760  48.7692850 145.8697660 151.9779120  49.1266550
 145.9103000 151.6792990  50.0351780 146.7243160 152.3786730  48.9674070
 149.6476050 154.5774670  34.2870060 150.0692470 154.4114540  35.1301450
 149.7726890 153.7674900  33.7925200 147.8103470 150.5571220  47.0941040
 147.2799930 150.0662170  46.4664380 148.4791540 150.9855420  46.5598970
 152.1603690 153.6012280  31.5347160 152.6809350 152.8861300  31.1688310
 152.8072090 154.2398150  31.8347670 148.2975770 147.5233590  47.1738330
 148.2032640 146.9054340  46.4489200 147.7173160 148.2499880  46.9468240
 151.0637210 146.0806830  44.2065720 150.6154510 146.1031090  43.3611270
 150.4302410 145.6825850  44.8036020 148.5434950 150.6507900  31.2328220
 148.3424010 149.7875260  31.5941560 148.3727000 150.5641260  30.2949820
 150.5729430 149.2498690  47.4691820 151.1629120 148.9414540  48.1569640
 149.7549670 148.7778440  47.6251720 147.3417750 147.7508520  31.2206100
 147.6443650 147.7575950  30.3125250 148.0812340 147.4006380  31.7173760
 150.5602680 146.6943140  32.2062300 150.2124680 146.0167130  31.6264750
 150.7615450 146.2332650  33.0205690 143.9008320 153.2230790  38.6026670
 143.2457160 152.9542430  37.9586370 144.7386270 153.1135270  38.1528650
 144.9384250 153.6083360  43.1430010 145.3057290 153.5210760  44.0226030
 144.3695070 152.8449910  43.0436870 144.4900250 150.5192450  47.0488430
 143.5956300 150.4859210  47.3882140 145.0297800 150.7179240  47.8139680
 143.1146400 150.4329720  34.5452000 142.2110480 150.6959920  34.3703660
 143.5987020 150.7040890  33.7651960 145.6573610 149.4895260  32.4546380
 146.3665310 149.0678480  31.9693660 144.9413550 149.5570490  31.8229730
 145.3047770 145.5434590  31.4949030 146.0275900 146.0843530  31.8130250
 145.5772290 145.2698010  30.6190570 144.9939960 144.7940780  41.3971650
 145.6416150 144.2438160  40.9566810 145.4141800 145.0483930  42.2187460
 144.7471960 144.9496450  44.1396970 144.3986780 145.4060270  44.9055150
 144.4159660 144.0553580  44.2219400 145.4192600 144.4772650  47.4147740
 145.9675590 144.2960700  46.6513850 145.4847910 143.6866760  47.9504050
 144.7294610 145.5827850  35.0884600 145.4873970 145.6956730  34.5148630
 144.2671780 146.4197050  35.0428030 151.2708420 147.6967120  38.0786910
 150.4582930 147.3224010  37.7382790 151.7750060 146.9412200  38.3808100
 147.1019760 146.1091900  33.6286570 147.6312520 145.3221700  33.4994520
 147.7348080 146.7883090  33.8622100 149.2957600 145.8467040  36.6831960
 148.6660340 145.1454350  36.8502090 148.7562740 146.6071170  36.4665120
 149.4213160 145.1251020  49.1184450 149.1397430 145.6284620  48.3545270
 149.8032860 144.3272770  48.7526580 147.0770640 154.6495900  22.8184690
 146.2455520 154.3944610  23.2181200 147.6851620 154.7206670  23.5542610
 145.4862590 149.6097790  16.6027080 144.5979290 149.9513760  16.5006960
 145.7703780 149.4098110  15.7107910 143.4495600 152.2103440  22.4866780
 144.0211710 151.4425640  22.4870420 143.4497140 152.5092200  21.5773390
 144.6920470 147.6187800  24.2735710 144.5123310 146.7213550  24.5538470
 144.2900550 148.1659670  24.9482660 147.6623980 148.1929290  17.6365460
 147.7690730 149.0933020  17.9434220 146.7516340 148.1447260  17.3460110
 145.3107140 150.1148300  22.8818050 145.9917250 150.3786670  23.5005450
 144.9955190 149.2749170  23.2156060 149.5031710 151.1615660  21.9690640
 150.0109930 151.6596630  22.6095660 150.0344950 150.3850860  21.7930000
 147.7867810 145.8014220  26.2354060 147.7886250 146.3186610  25.4299960
 146.9572120 145.3244400  26.2123990 147.4683140 147.5124180  24.2424510
 147.8099950 148.3566230  23.9478380 146.5298950 147.6607920  24.3589850
 151.1511030 145.0006450  20.5669100 151.4586010 144.4453340  19.8504600
 150.2211730 145.1350910  20.3842090 149.1448430 153.5920020  20.0848950
 148.7405430 152.8797270  19.5894850 149.2311550 153.2473260  20.9736990
 147.8577050 150.3663230  23.8647990 148.4091640 150.4758570  23.0901240
 148.3720560 150.7400830  24.5803220 147.5319780 153.8882590  27.4753330
 147.3927550 154.7605390  27.8440730 146.6501140 153.5455400  27.3301270
 145.8453060 152.4865000  17.5855600 145.7250660 153.2127090  16.9736870
 145.5353950 151.7167910  17.1083510 148.3116720 145.8300070  20.9679270
 147.8684870 146.6109610  20.6363790 148.8701710 146.1529960  21.6750210
 152.5986530 148.6968590  26.5714590 152.1365900 148.9051610  27.3834530
 152.1964640 147.8827940  26.2685260 151.4275540 145.4510770  15.8485100
 150.8029720 145.4470640  16.5738410 151.3405660 144.5841730  15.4521070
 150.3492620 146.3747400  22.8268870 150.6464950 147.2810230  22.7460890
 150.8978180 145.8866180  22.2128440 148.1030940 150.9533640  18.6960520
 147.8771860 150.7370810  19.6007140 147.3223470 151.3862100  18.3506490
 150.5430150 151.8519220  29.3620790 150.4473750 150.9113950  29.2121190
 151.3862130 152.0734290  28.9668860 145.6740690 148.2632890  27.5154570
 145.2804080 149.1108100  27.7227350 144.9859090 147.6259260  27.7063210
 152.2485740 148.3467860  30.5851310 151.5584060 148.1540060  31.2197400
 152.9918040 148.6302500  31.1175610 142.9757740 146.1861350  21.5484650
 142.6870790 146.7564210  22.2609630 143.7203500 145.7065800  21.9115880
 143.1627970 150.1281470  12.7587370 143.0802640 151.0712230  12.9002360
 142.8111030 149.9856380  11.8799720 150.9626100 148.8620500  21.8257720
 150.9662160 148.4210450  20.9762260 151.8577220 149.1837830  21.9329540
 146.8128480 148.7446990  20.7851930 146.4728530 149.2222220  21.5418980
 146.0505800 148.2912110  20.4253030 151.0246250 149.8632580  14.8164480
 151.1459070 149.8219060  15.7650300 150.6394760 150.7256730  14.6611210
 150.0367750 152.1733720  14.2147780 149.4684650 151.7251970  13.5883690
 150.7456750 152.5326500  13.6812930 151.2634070 152.9222280  23.5723130
 151.6304200 152.4480850  24.3184470 151.0739130 153.7963850  23.9131470
 144.1274560 147.6665970  19.7016600 143.8421480 147.3021640  20.5395220
 144.0653420 146.9346430  19.0879740 149.0533440 151.9630920  25.8907340
 148.7490510 152.8422900  26.1157700 150.0079900 152.0230710  25.9264780
 145.1097170 152.8033660  27.0378700 144.7512110 153.4687510  27.6252040
 144.8151730 151.9717210  27.4091320 148.3110290 153.2617900  29.9218250
 148.0110430 153.4075080  29.0246070 149.0821530 152.7023190  29.8291640
 143.6205220 152.8024920  13.6613300 144.4900070 153.0849720  13.9449220
 143.1295540 153.6160790  13.5462110 146.6851810 144.5335780  18.2544100
 146.5566440 144.5253680  19.2029020 145.8613830 144.8718870  17.9035110
 143.6845740 146.2926900  27.7150800 142.9704260 146.4923820  28.3203410
 144.1040780 145.5166470  28.0865600 150.5130580 150.0192100  17.6897690
 149.8046730 150.4878440  18.1311300 150.7975060 149.3614110  18.3242880
 152.1386510 151.4388800  25.6890220 152.6371760 151.9134620  26.3542070
 152.2809460 150.5152320  25.8960250 148.7165600 148.3277180  15.0648400
 149.5656130 148.7647330  14.9988590 148.3496870 148.6397440  15.8920460
 147.6157020 154.5809540  13.5383930 148.3820290 154.4690900  14.1009360
 147.6931710 153.8847510  12.8860700 146.3103780 152.0134610  14.2216820
 146.3907370 151.0662120  14.3334220 147.2023530 152.3441490  14.3277480
 143.8374580 153.8349530  29.4572990 144.3413600 153.2556810  30.0289220
 143.0982000 154.1189760  29.9949360 145.8697660 151.9779120  30.3523060
 145.9103000 151.6792990  31.2608290 146.7243160 152.3786730  30.1930580
 149.6476050 154.5774670  15.5126570 150.0692470 154.4114540  16.3557960
 149.7726890 153.7674900  15.0181710 147.8103470 150.5571220  28.3197550
 147.2799930 150.0662170  27.6920890 148.4791540 150.9855420  27.7855480
 152.1603690 153.6012280  12.7603670 152.6809350 152.8861300  12.3944820
 152.8072090 154.2398150  13.0604180 148.2975770 147.5233590  28.3994840
 148.2032640 146.9054340  27.6745710 147.7173160 148.2499880  28.1724750
 151.0637210 146.0806830  25.4322230 150.6154510 146.1031090  24.5867780
 150.4302410 145.6825850  26.0292530 148.5434950 150.6507900  12.4584730
 148.3424010 149.7875260  12.8198070 148.3727000 150.5641260  11.5206330
 150.5729430 149.2498690  28.6948330 151.1629120 148.9414540  29.3826150
 149.7549670 148.7778440  28.8508230 147.3417750 147.7508520  12.4462610
 147.6443650 147.7575950  11.5381760 148.0812340 147.4006380  12.9430270
 150.5602680 146.6943140  13.4318810 150.2124680 146.0167130  12.8521260
 150.7615450 146.2332650  14.2462200 143.9008320 153.2230790  19.8283180
 143.2457160 152.9542430  19.1842880 144.7386270 153.1135270  19.3785160
 144.9384250 153.6083360  24.3686520 145.3057290 153.5210760  25.2482540
 144.3695070 152.8449910  24.2693380 144.4900250 150.5192450  28.2744940
 143.5956300 150.4859210  28.6138650 145.0297800 150.7179240  29.0396190
 143.1146400 150.4329720  15.7708510 142.2110480 150.6959920  15.5960170
 143.5987020 150.7040890  14.9908470 145.6573610 149.4895260  13.6802890
 146.3665310 149.0678480  13.1950170 144.9413550 149.5570490  13.0486240
 145.3047770 145.5434590  12.7205540 146.0275900 146.0843530  13.0386760
 145.5772290 145.2698010  11.8447080 144.9939960 144.7940780  22.6228160
 145.6416150 144.2438160  22.1823320 145.4141800 145.0483930  23.4443970
 144.7471960 144.9496450  25.3653480 144.3986780 145.4060270  26.1311660
 144.4159660 144.0553580  25.4475910 145.4192600 144.4772650  28.6404250
 145.9675590 144.2960700  27.8770360 145.4847910 143.6866760  29.1760560
 144.7294610 145.5827850  16.3141110 145.4873970 145.6956730  15.7405140
 144.2671780 146.4197050  16.2684540 151.2708420 147.6967120  19.3043420
 150.4582930 147.3224010  18.9639300 151.7750060 146.9412200  19.6064610
 147.1019760 146.1091900  14.8543080 147.6312520 145.3221700  14.7251030
 147.7348080 146.7883090  15.0878610 149.2957600 145.8467040  17.9088470
 148.6660340 145.1454350  18.0758600 148.7562740 146.6071170  17.6921630
 149.4213160 145.1251020  30.3440960 149.1397430 145.6284620  29.5801780
 149.8032860 144.3272770  29.9783090 147.0770640 154.6495900   4.0441200
 146.2455520 154.3944610   4.4437710 147.6851620 154.7206670   4.7799120
 143.4495600 152.2103440   3.7123290 144.0211710 151.4425640   3.7126930
 143.4497140 152.5092200   2.8029900 144.6920470 147.6187800   5.4992220
 144.5123310 146.7213550   5.7794980 144.2900550 148.1659670   6.1739170
 145.3107140 150.1148300   4.1074560 145.9917250 150.3786670   4.7261960
 144.9955190 149.2749170   4.4412570 149.5031710 151.1615660   3.1947150
 150.0109930 151.6596630   3.8352170 150.0344950 150.3850860   3.0186510
 147.7867810 145.8014220   7.4610570 147.7886250 146.3186610   6.6556470
 146.9572120 145.3244400   7.4380500 147.4683140 147.5124180   5.4681020
 147.8099950 148.3566230   5.1734890 146.5298950 147.6607920   5.5846360
 147.8577050 150.3663230   5.0904500 148.4091640 150.4758570   4.3157750
 148.3720560 150.7400830   5.8059730 147.5319780 153.8882590   8.7009840
 147.3927550 154.7605390   9.0697240 146.6501140 153.5455400   8.5557780
 148.3116720 145.8300070   2.1935780 147.8684870 146.6109610   1.8620300
 148.8701710 146.1529960   2.9006720 152.5986530 148.6968590   7.7971100
 152.1365900 148.9051610   8.6091040 152.1964640 147.8827940   7.4941770
 150.3492620 146.3747400   4.0525380 150.6464950 147.2810230   3.9717400
 150.8978180 145.8866180   3.4384950 150.5430150 151.8519220  10.5877300
 150.4473750 150.9113950  10.4377700 151.3862130 152.0734290  10.1925370
 145.6740690 148.2632890   8.7411080 145.2804080 149.1108100   8.9483860
 144.9859090 147.6259260   8.9319720 152.2485740 148.3467860  11.8107820
 151.5584060 148.1540060  12.4453910 152.9918040 148.6302500  12.3432120
 142.9757740 146.1861350   2.7741160 142.6870790 146.7564210   3.4866140
 143.7203500 145.7065800   3.1372390 150.9626100 148.8620500   3.0514230
 150.9662160 148.4210450   2.2018770 151.8577220 149.1837830   3.1586050
 146.8128480 148.7446990   2.0108440 146.4728530 149.2222220   2.7675490
 146.0505800 148.2912110   1.6509540 151.2634070 152.9222280   4.7979640
 151.6304200 152.4480850   5.5440980 151.0739130 153.7963850   5.1387980
 149.0533440 151.9630920   7.1163850 148.7490510 152.8422900   7.3414210
 150.0079900 152.0230710   7.1521290 145.1097170 152.8033660   8.2635210
 144.7512110 153.4687510   8.8508550 144.8151730 151.9717210   8.6347830
 148.3110290 153.2617900  11.1474760 148.0110430 153.4075080  10.2502580
 149.0821530 152.7023190  11.0548150 143.6845740 146.2926900   8.9407310
 142.9704260 146.4923820   9.5459920 144.1040780 145.5166470   9.3122110
 152.1386510 151.4388800   6.9146730 152.6371760 151.9134620   7.5798580
 152.2809460 150.5152320   7.1216760 143.8374580 153.8349530  10.6829500
 144.3413600 153.2556810  11.2545730 143.0982000 154.1189760  11.2205870
 145.8697660 151.9779120  11.5779570 145.9103000 151.6792990  12.4864800
 146.7243160 152.3786730  11.4187090 147.8103470 150.5571220   9.5454060
 147.2799930 150.0662170   8.9177400 148.4791540 150.9855420   9.0111990
 148.2975770 147.5233590   9.6251350 148.2032640 146.9054340   8.9002220
 147.7173160 148.2499880   9.3981260 151.0637210 146.0806830   6.6578740
 150.6154510 146.1031090   5.8124290 150.4302410 145.6825850   7.2549040
 150.5729430 149.2498690   9.9204840 151.1629120 148.9414540  10.6082660
 149.7549670 148.7778440  10.0764740 144.9384250 153.6083360   5.5943030
 145.3057290 153.5210760   6.4739050 144.3695070 152.8449910   5.4949890
 144.4900250 150.5192450   9.5001450 143.5956300 150.4859210   9.8395160
 145.0297800 150.7179240  10.2652700 144.9939960 144.7940780   3.8484670
 145.6416150 144.2438160   3.4079830 145.4141800 145.0483930   4.6700480
 144.7471960 144.9496450   6.5909990 144.3986780 145.4060270   7.3568170
 144.4159660 144.0553580   6.6732420 145.4192600 144.4772650   9.8660760
 145.9675590 144.2960700   9.1026870 145.4847910 143.6866760  10.4017070
 149.4213160 145.1251020  11.5697470 149.1397430 145.6284620  10.8058290
 149.8032860 144.3272770  11.2039600 147.0571900 139.9092500 154.4347140
 147.3599940 139.0190240 154.2557360 147.8015490 140.4662720 154.2069390
 145.4862590 130.8354300 148.0231510 144.5979290 131.1770270 147.9211390
 145.7703780 130.6354620 147.1312340 143.4495600 133.4359950 153.9071210
 144.0211710 132.6682150 153.9074850 143.4497140 133.7348710 152.9977820
 147.6623980 129.4185800 149.0569890 147.7690730 130.3189530 149.3638650
 146.7516340 129.3703770 148.7664540 149.5031710 132.3872170 153.3895070
 150.0109930 132.8853140 154.0300090 150.0344950 131.6107370 153.2134430
 143.5422100 137.8246570 146.5288020 143.1650080 138.3133670 145.7972920
 143.7995170 138.4971850 147.1594550 151.1511030 126.2262960 151.9873530
 151.4586010 125.6709850 151.2709030 150.2211730 126.3607420 151.8046520
 149.1448430 134.8176530 151.5053380 148.7405430 134.1053780 151.0099280
 149.2311550 134.4729770 152.3941420 149.6130130 138.5044090 153.6692590
 149.3158420 137.8989560 152.9900370 150.5629950 138.5421400 153.5581950
 145.8453060 133.7121510 149.0060030 145.7250660 134.4383600 148.3941300
 145.5353950 132.9424420 148.5287940 144.7286060 138.5836840 151.2234850
 144.3214140 138.7251430 150.3688450 145.6199070 138.2997000 151.0206060
 149.0007720 142.7982620 149.3357520 148.8250200 141.8818160 149.1225320
 148.1463460 143.1569910 149.5755320 148.3116720 127.0556580 152.3883700
 147.8684870 127.8366120 152.0568220 148.8701710 127.3786470 153.0954640
 151.4275540 126.6767280 147.2689530 150.8029720 126.6727150 147.9942840
 151.3405660 125.8098240 146.8725500 150.3492620 127.6003910 154.2473300
 150.6464950 128.5066740 154.1665320 150.8978180 127.1122690 153.6332870
 148.1030940 132.1790150 150.1164950 147.8771860 131.9627320 151.0211570
 147.3223470 132.6118610 149.7710920 142.9757740 127.4117860 152.9689080
 142.6870790 127.9820720 153.6814060 143.7203500 126.9322310 153.3320310
 143.1627970 131.3537980 144.1791800 143.0802640 132.2968740 144.3206790
 142.8111030 131.2112890 143.3004150 150.9626100 130.0877010 153.2462150
 150.9662160 129.6466960 152.3966690 151.8577220 130.4094340 153.3533970
 146.8128480 129.9703500 152.2056360 146.4728530 130.4478730 152.9623410
 146.0505800 129.5168620 151.8457460 151.0246250 131.0889090 146.2368910
 151.1459070 131.0475570 147.1854730 150.6394760 131.9513240 146.0815640
 150.0367750 133.3990230 145.6352210 149.4684650 132.9508480 145.0088120
 150.7456750 133.7583010 145.1017360 144.1274560 128.8922480 151.1221030
 143.8421480 128.5278150 151.9599650 144.0653420 128.1602940 150.5084170
 147.5815230 137.3948420 147.9078620 146.8077490 136.8546040 147.7477340
 148.3109860 136.8755030 147.5696380 147.6252630 137.0628800 151.5457430
 148.1431300 136.2597060 151.4914320 147.1736650 137.0007940 152.3874260
 152.5122130 138.3295080 146.8184730 152.8537830 139.0737310 146.3228050
 151.6834840 138.6426200 147.1809560 151.4812820 138.4108610 149.5900650
 152.1683950 138.9577820 149.9708240 150.6945240 138.9549340 149.6250260
 143.6205220 134.0281430 145.0817730 144.4900070 134.3106230 145.3653650
 143.1295540 134.8417300 144.9666540 150.7840030 135.4154640 149.2026010
 151.2402810 136.2259890 149.4286200 150.4328240 135.0977780 150.0344500
 146.6851810 125.7592290 149.6748530 146.5566440 125.7510190 150.6233450
 145.8613830 126.0975380 149.3239540 143.9876470 143.2408810 145.6479360
 144.3474110 143.8398150 144.9936630 143.8468810 143.7868700 146.4214390
 150.0045090 140.6240010 146.4653030 149.9955190 141.3569700 145.8497540
 149.0843450 140.3771590 146.5579990 145.6051730 135.8454900 147.2099790
 144.9979680 136.5853800 147.2195090 146.0801080 135.9354260 146.3837990
 152.9904690 140.6868250 145.1278220 153.0916670 140.4832240 144.1980200
 152.0906430 140.4326530 145.3326000 150.5130580 131.2448610 149.1102120
 149.8046730 131.7134950 149.5515730 150.7975060 130.5870620 149.7447310
 151.6322800 143.2054570 149.8225890 151.8864300 143.1675960 148.9005260
 150.6835280 143.0787900 149.8154140 148.7165600 129.5533690 146.4852830
 149.5656130 129.9903840 146.4193020 148.3496870 129.8653950 147.3124890
 147.6157020 135.8066050 144.9588360 148.3820290 135.6947410 145.5213790
 147.6931710 135.1104020 144.3065130 146.3103780 133.2391120 145.6421250
 146.3907370 132.2918630 145.7538650 147.2023530 133.5698000 145.7481910
 147.1118490 143.3886510 152.7455790 147.8480970 142.8401970 153.0164360
 147.4959410 144.2542520 152.6061780 143.9963970 139.4560080 148.6197300
 143.0703750 139.6981220 148.6102710 144.4620400 140.2834340 148.4982050
 150.2220800 142.5616820 144.5681360 151.0149410 142.8505650 144.1163150
 149.7025150 142.1308990 143.8893840 150.7398200 137.7820230 144.4323710
 150.6348840 137.1672580 145.1585090 150.5722420 137.2586120 143.6486720
 149.6476050 135.8031180 146.9331000 150.0692470 135.6371050 147.7762390
 149.7726890 134.9931410 146.4386140 152.1603690 134.8268790 144.1808100
 152.6809350 134.1117810 143.8149250 152.8072090 135.4654660 144.4808610
 148.5434950 131.8764410 143.8789160 148.3424010 131.0131770 144.2402500
 148.3727000 131.7897770 142.9410760 147.3417750 128.9765030 143.8667040
 147.6443650 128.9832460 142.9586190 148.0812340 128.6262890 144.3634700
 150.5602680 127.9199650 144.8523240 150.2124680 127.2423640 144.2725690
 150.7615450 127.4589160 145.6666630 146.3647880 138.2807450 144.6996840
 146.8022750 138.8237120 145.3554420 146.8495610 137.4554400 144.7093180
 143.5793680 141.0696480 152.1517100 143.9096690 140.2017540 151.9195740
 144.0084680 141.2755000 152.9822060 148.1755600 139.4005490 149.8119070
 147.8751140 139.2770460 150.7122980 148.0693090 138.5414080 149.4034800
 143.9008320 134.4487300 151.2487610 143.2457160 134.1798940 150.6047310
 144.7386270 134.3391780 150.7989590 143.1146400 131.6586230 147.1912940
 142.2110480 131.9216430 147.0164600 143.5987020 131.9297400 146.4112900
 145.6573610 130.7151770 145.1007320 146.3665310 130.2934990 144.6154600
 144.9413550 130.7827000 144.4690670 145.3047770 126.7691100 144.1409970
 146.0275900 127.3100040 144.4591190 145.5772290 126.4954520 143.2651510
 149.4281690 141.8738190 153.8066330 149.9446710 141.2625550 153.2814590
 150.0779070 142.3766970 154.2977340 144.1066590 142.9767580 150.2313680
 143.9388630 142.3438260 150.9295570 143.2401100 143.1826980 149.8807870
 144.7294610 126.8084360 147.7345540 145.4873970 126.9213240 147.1609570
 144.2671780 127.6453560 147.6888970 151.2708420 128.9223630 150.7247850
 150.4582930 128.5480520 150.3843730 151.7750060 128.1668710 151.0269040
 145.7129290 141.6700810 147.6763820 145.1876910 142.0508840 146.9725780
 145.6373870 142.2951580 148.3973530 147.1019760 127.3348410 146.2747510
 147.6312520 126.5478210 146.1455460 147.7348080 128.0139600 146.5083040
 149.2957600 127.0723550 149.3292900 148.6660340 126.3710860 149.4963030
 148.7562740 127.8327680 149.1126060 148.3122260 143.6183190 146.5513070
 149.0441080 143.3342470 146.0036960 148.5715930 143.3796470 147.4412450
 147.4737050 139.7347920 146.5559400 146.8445930 140.2033020 147.1045230
 147.5884880 138.8897140 146.9905590 147.0770640 135.8752410 135.4645630
 146.2455520 135.6201120 135.8642140 147.6851620 135.9463180 136.2003550
 147.0571900 139.9092500 135.6603650 147.3599940 139.0190240 135.4813870
 147.8015490 140.4662720 135.4325900 145.4862590 130.8354300 129.2488020
 144.5979290 131.1770270 129.1467900 145.7703780 130.6354620 128.3568850
 143.4495600 133.4359950 135.1327720 144.0211710 132.6682150 135.1331360
 143.4497140 133.7348710 134.2234330 144.6920470 128.8444310 136.9196650
 144.5123310 127.9470060 137.1999410 144.2900550 129.3916180 137.5943600
 147.6623980 129.4185800 130.2826400 147.7690730 130.3189530 130.5895160
 146.7516340 129.3703770 129.9921050 145.3107140 131.3404810 135.5278990
 145.9917250 131.6043180 136.1466390 144.9955190 130.5005680 135.8617000
 149.5031710 132.3872170 134.6151580 150.0109930 132.8853140 135.2556600
 150.0344950 131.6107370 134.4390940 147.7867810 127.0270730 138.8815000
 147.7886250 127.5443120 138.0760900 146.9572120 126.5500910 138.8584930
 149.0370660 136.6665910 137.0588500 148.7040040 137.2934830 137.7009570
 149.2137340 137.1927790 136.2790170 147.4683140 128.7380690 136.8885450
 147.8099950 129.5822740 136.5939320 146.5298950 128.8864430 137.0050790
 148.2489760 138.6346710 138.8737680 148.8663760 139.3097790 138.5922130
 147.3882880 139.0434690 138.7825180 143.5422100 137.8246570 127.7544530
 143.1650080 138.3133670 127.0229430 143.7995170 138.4971850 128.3851060
 151.1511030 126.2262960 133.2130040 151.4586010 125.6709850 132.4965540
 150.2211730 126.3607420 133.0303030 149.1448430 134.8176530 132.7309890
 148.7405430 134.1053780 132.2355790 149.2311550 134.4729770 133.6197930
 149.6130130 138.5044090 134.8949100 149.3158420 137.8989560 134.2156880
 150.5629950 138.5421400 134.7838460 147.8577050 131.5919740 136.5108930
 148.4091640 131.7015080 135.7362180 148.3720560 131.9657340 137.2264160
 148.7048560 138.2425780 141.5456900 147.8077090 138.4665750 141.7930300
 148.7301430 138.3660720 140.5968300 147.5319780 135.1139100 140.1214270
 147.3927550 135.9861900 140.4901670 146.6501140 134.7711910 139.9762210
 149.3300130 141.0560800 142.3299420 149.3015560 141.4603750 141.4627850
 149.1665100 140.1271160 142.1671020 145.8453060 133.7121510 130.2316540
 145.7250660 134.4383600 129.6197810 145.5353950 132.9424420 129.7544450
 143.4838430 136.8836650 136.0385180 143.5618850 137.0185420 135.0940900
 144.0980110 136.1752540 136.2313300 144.7286060 138.5836840 132.4491360
 144.3214140 138.7251430 131.5944960 145.6199070 138.2997000 132.2462570
 149.0007720 142.7982620 130.5614030 148.8250200 141.8818160 130.3481830
 148.1463460 143.1569910 130.8011830 143.5397950 137.9250820 138.5779640
 143.7028990 137.4556180 137.7599010 144.0050400 137.4174380 139.2428480
 148.3116720 127.0556580 133.6140210 147.8684870 127.8366120 133.2824730
 148.8701710 127.3786470 134.3211150 152.5986530 129.9225100 139.2175530
 152.1365900 130.1308120 140.0295470 152.1964640 129.1084450 138.9146200
 151.4275540 126.6767280 128.4946040 150.8029720 126.6727150 129.2199350
 151.3405660 125.8098240 128.0982010 150.3492620 127.6003910 135.4729810
 150.6464950 128.5066740 135.3921830 150.8978180 127.1122690 134.8589380
 148.1030940 132.1790150 131.3421460 147.8771860 131.9627320 132.2468080
 147.3223470 132.6118610 130.9967430 150.5430150 133.0775730 142.0081730
 150.4473750 132.1370460 141.8582130 151.3862130 133.2990800 141.6129800
 145.6740690 129.4889400 140.1615510 145.2804080 130.3364610 140.3688290
 144.9859090 128.8515770 140.3524150 152.2485740 129.5724370 143.2312250
 151.5584060 129.3796570 143.8658340 152.9918040 129.8559010 143.7636550
 142.9757740 127.4117860 134.1945590 142.6870790 127.9820720 134.9070570
 143.7203500 126.9322310 134.5576820 143.1627970 131.3537980 125.4048310
 143.0802640 132.2968740 125.5463300 142.8111030 131.2112890 124.5260660
 150.9626100 130.0877010 134.4718660 150.9662160 129.6466960 133.6223200
 151.8577220 130.4094340 134.5790480 146.8128480 129.9703500 133.4312870
 146.4728530 130.4478730 134.1879920 146.0505800 129.5168620 133.0713970
 151.0246250 131.0889090 127.4625420 151.1459070 131.0475570 128.4111240
 150.6394760 131.9513240 127.3072150 150.0367750 133.3990230 126.8608720
 149.4684650 132.9508480 126.2344630 150.7456750 133.7583010 126.3273870
 145.1136930 137.3002250 140.7375450 144.7291720 136.6595920 141.3358410
 145.4249120 138.0038370 141.3070180 151.2634070 134.1478790 136.2184070
 151.6304200 133.6737360 136.9645410 151.0739130 135.0220360 136.5592410
 144.1274560 128.8922480 132.3477540 143.8421480 128.5278150 133.1856160
 144.0653420 128.1602940 131.7340680 149.0533440 133.1887430 138.5368280
 148.7490510 134.0679410 138.7618640 150.0079900 133.2487220 138.5725720
 147.5815230 137.3948420 129.1335130 146.8077490 136.8546040 128.9733850
 148.3109860 136.8755030 128.7952890 147.6252630 137.0628800 132.7713940
 148.1431300 136.2597060 132.7170830 147.1736650 137.0007940 133.6130770
 152.5122130 138.3295080 128.0441240 152.8537830 139.0737310 127.5484560
 151.6834840 138.6426200 128.4066070 145.1097170 134.0290170 139.6839640
 144.7512110 134.6944020 140.2712980 144.8151730 133.1973720 140.0552260
 148.3110290 134.4874410 142.5679190 148.0110430 134.6331590 141.6707010
 149.0821530 133.9279700 142.4752580 151.4812820 138.4108610 130.8157160
 152.1683950 138.9577820 131.1964750 150.6945240 138.9549340 130.8506770
 143.6205220 134.0281430 126.3074240 144.4900070 134.3106230 126.5910160
 143.1295540 134.8417300 126.1923050 150.7840030 135.4154640 130.4282520
 151.2402810 136.2259890 130.6542710 150.4328240 135.0977780 131.2601010
 146.6851810 125.7592290 130.9005040 146.5566440 125.7510190 131.8489960
 145.8613830 126.0975380 130.5496050 143.9876470 143.2408810 126.8735870
 144.3474110 143.8398150 126.2193140 143.8468810 143.7868700 127.6470900
 143.6845740 127.5183410 140.3611740 142.9704260 127.7180330 140.9664350
 144.1040780 126.7422980 140.7326540 143.9718330 141.5063670 141.3478270
 144.0809450 140.5658410 141.2073660 143.3198890 141.7718420 140.6992000
 151.9630920 139.7779560 142.7476390 151.6427790 139.0588800 143.2922080
 151.2889280 140.4534630 142.8212450 150.0045090 140.6240010 127.6909540
 149.9955190 141.3569700 127.0754050 149.0843450 140.3771590 127.7836500
 145.6051730 135.8454900 128.4356300 144.9979680 136.5853800 128.4451600
 146.0801080 135.9354260 127.6094500 152.9904690 140.6868250 126.3534730
 153.0916670 140.4832240 125.4236710 152.0906430 140.4326530 126.5582510
 150.5130580 131.2448610 130.3358630 149.8046730 131.7134950 130.7772240
 150.7975060 130.5870620 130.9703820 152.1386510 132.6645310 138.3351160
 152.6371760 133.1391130 139.0003010 152.2809460 131.7408830 138.5421190
 151.6322800 143.2054570 131.0482400 151.8864300 143.1675960 130.1261770
 150.6835280 143.0787900 131.0410650 148.7165600 129.5533690 127.7109340
 149.5656130 129.9903840 127.6449530 148.3496870 129.8653950 128.5381400
 147.6157020 135.8066050 126.1844870 148.3820290 135.6947410 126.7470300
 147.6931710 135.1104020 125.5321640 146.3103780 133.2391120 126.8677760
 146.3907370 132.2918630 126.9795160 147.2023530 133.5698000 126.9738420
 147.1118490 143.3886510 133.9712300 147.8480970 142.8401970 134.2420870
 147.4959410 144.2542520 133.8318290 143.9963970 139.4560080 129.8453810
 143.0703750 139.6981220 129.8359220 144.4620400 140.2834340 129.7238560
 146.1176770 142.5732580 143.1597880 146.9189500 142.8944630 143.5733280
 145.6028590 142.2128160 143.8817790 150.2220800 142.5616820 125.7937870
 151.0149410 142.8505650 125.3419660 149.7025150 142.1308990 125.1150350
 143.8374580 135.0606040 142.1033930 144.3413600 134.4813320 142.6750160
 143.0982000 135.3446270 142.6410300 150.7398200 137.7820230 125.6580220
 150.6348840 137.1672580 126.3841600 150.5722420 137.2586120 124.8743230
 150.8912520 136.4677030 141.6369450 150.1258190 137.0362030 141.5524120
 151.0728480 136.1753240 140.7437680 145.8697660 133.2035630 142.9984000
 145.9103000 132.9049500 143.9069230 146.7243160 133.6043240 142.8391520
 149.6476050 135.8031180 128.1587510 150.0692470 135.6371050 129.0018900
 149.7726890 134.9931410 127.6642650 147.8103470 131.7827730 140.9658490
 147.2799930 131.2918680 140.3381830 148.4791540 132.2111930 140.4316420
 152.1603690 134.8268790 125.4064610 152.6809350 134.1117810 125.0405760
 152.8072090 135.4654660 125.7065120 148.2975770 128.7490100 141.0455780
 148.2032640 128.1310850 140.3206650 147.7173160 129.4756390 140.8185690
 151.0637210 127.3063340 138.0783170 150.6154510 127.3287600 137.2328720
 150.4302410 126.9082360 138.6753470 151.4696760 136.2017670 138.6995610
 151.8884870 137.0450400 138.5271850 150.5505390 136.3389710 138.4702390
 148.5434950 131.8764410 125.1045670 148.3424010 131.0131770 125.4659010
 148.3727000 131.7897770 124.1667270 149.3204180 142.5070680 139.8153340
 148.7825270 143.2316740 139.4962040 149.5738140 142.0301020 139.0250680
 150.5729430 130.4755200 141.3409270 151.1629120 130.1671050 142.0287090
 149.7549670 130.0034950 141.4969170 147.3417750 128.9765030 125.0923550
 147.6443650 128.9832460 124.1842700 148.0812340 128.6262890 125.5891210
 152.1766390 143.7421890 140.0739990 152.1025090 144.6457030 140.3812360
 151.2745230 143.4233790 140.0462060 150.5602680 127.9199650 126.0779750
 150.2124680 127.2423640 125.4982200 150.7615450 127.4589160 126.8923140
 146.3647880 138.2807450 125.9253350 146.8022750 138.8237120 126.5810930
 146.8495610 137.4554400 125.9349690 143.5793680 141.0696480 133.3773610
 143.9096690 140.2017540 133.1452250 144.0084680 141.2755000 134.2078570
 148.1755600 139.4005490 131.0375580 147.8751140 139.2770460 131.9379490
 148.0693090 138.5414080 130.6291310 144.0683890 141.9367070 136.1155240
 143.6314880 142.1167870 136.9479390 144.6361570 142.6941690 135.9736960
 143.9008320 134.4487300 132.4744120 143.2457160 134.1798940 131.8303820
 144.7386270 134.3391780 132.0246100 144.9384250 134.8339870 137.0147460
 145.3057290 134.7467270 137.8943480 144.3695070 134.0706420 136.9154320
 144.4900250 131.7448960 140.9205880 143.5956300 131.7115720 141.2599590
 145.0297800 131.9435750 141.6857130 143.1146400 131.6586230 128.4169450
 142.2110480 131.9216430 128.2421110 143.5987020 131.9297400 127.6369410
 145.6573610 130.7151770 126.3263830 146.3665310 130.2934990 125.8411110
 144.9413550 130.7827000 125.6947180 145.3047770 126.7691100 125.3666480
 146.0275900 127.3100040 125.6847700 145.5772290 126.4954520 124.4908020
 144.9939960 126.0197290 135.2689100 145.6416150 125.4694670 134.8284260
 145.4141800 126.2740440 136.0904910 144.7471960 126.1752960 138.0114420
 144.3986780 126.6316780 138.7772600 144.4159660 125.2810090 138.0936850
 146.3536330 139.3472560 142.1767610 146.3105960 138.9765470 143.0582070
 146.4847340 140.2850130 142.3169430 150.0542360 140.9032150 137.7777330
 149.8133720 141.1706710 136.8907850 150.9945000 141.0737880 137.8328190
 145.4192600 125.7029160 141.2865190 145.9675590 125.5217210 140.5231300
 145.4847910 124.9123270 141.8221500 146.1924360 142.2934810 139.2965390
 145.5984680 142.1619510 140.0355430 146.1848200 141.4572950 138.8307490
 145.8236590 139.6593190 138.2473430 145.0970650 139.0398480 138.1799380
 145.8845740 140.0533800 137.3771510 149.4281690 141.8738190 135.0322840
 149.9446710 141.2625550 134.5071100 150.0779070 142.3766970 135.5233850
 152.1677190 142.7646680 135.8591820 152.4555000 142.5100980 134.9824830
 152.6800410 142.2124040 136.4497390 144.1066590 142.9767580 131.4570190
 143.9388630 142.3438260 132.1552080 143.2401100 143.1826980 131.1064380
 144.7294610 126.8084360 128.9602050 145.4873970 126.9213240 128.3866080
 144.2671780 127.6453560 128.9145480 151.2708420 128.9223630 131.9504360
 150.4582930 128.5480520 131.6100240 151.7750060 128.1668710 132.2525550
 145.7129290 141.6700810 128.9020330 145.1876910 142.0508840 128.1982290
 145.6373870 142.2951580 129.6230040 147.1019760 127.3348410 127.5004020
 147.6312520 126.5478210 127.3711970 147.7348080 128.0139600 127.7339550
 149.2957600 127.0723550 130.5549410 148.6660340 126.3710860 130.7219540
 148.7562740 127.8327680 130.3382570 152.2349550 143.6862780 143.2260020
 153.1616860 143.4507050 143.2695980 152.2199980 144.5134780 142.7446050
 149.4213160 126.3507530 142.9901900 149.1397430 126.8541130 142.2262720
 149.8032860 125.5529280 142.6244030 148.3122260 143.6183190 127.7769580
 149.0441080 143.3342470 127.2293470 148.5715930 143.3796470 128.6668960
 147.4737050 139.7347920 127.7815910 146.8445930 140.2033020 128.3301740
 147.5884880 138.8897140 128.2162100 147.0770640 135.8752410 116.6902140
 146.2455520 135.6201120 117.0898650 147.6851620 135.9463180 117.4260060
 147.0571900 139.9092500 116.8860160 147.3599940 139.0190240 116.7070380
 147.8015490 140.4662720 116.6582410 145.4862590 130.8354300 110.4744530
 144.5979290 131.1770270 110.3724410 145.7703780 130.6354620 109.5825360
 143.4495600 133.4359950 116.3584230 144.0211710 132.6682150 116.3587870
 143.4497140 133.7348710 115.4490840 144.6920470 128.8444310 118.1453160
 144.5123310 127.9470060 118.4255920 144.2900550 129.3916180 118.8200110
 147.6623980 129.4185800 111.5082910 147.7690730 130.3189530 111.8151670
 146.7516340 129.3703770 111.2177560 145.3107140 131.3404810 116.7535500
 145.9917250 131.6043180 117.3722900 144.9955190 130.5005680 117.0873510
 149.5031710 132.3872170 115.8408090 150.0109930 132.8853140 116.4813110
 150.0344950 131.6107370 115.6647450 147.7867810 127.0270730 120.1071510
 147.7886250 127.5443120 119.3017410 146.9572120 126.5500910 120.0841440
 149.0370660 136.6665910 118.2845010 148.7040040 137.2934830 118.9266080
 149.2137340 137.1927790 117.5046680 147.4683140 128.7380690 118.1141960
 147.8099950 129.5822740 117.8195830 146.5298950 128.8864430 118.2307300
 148.2489760 138.6346710 120.0994190 148.8663760 139.3097790 119.8178640
 147.3882880 139.0434690 120.0081690 143.5422100 137.8246570 108.9801040
 143.1650080 138.3133670 108.2485940 143.7995170 138.4971850 109.6107570
 151.1511030 126.2262960 114.4386550 151.4586010 125.6709850 113.7222050
 150.2211730 126.3607420 114.2559540 149.1448430 134.8176530 113.9566400
 148.7405430 134.1053780 113.4612300 149.2311550 134.4729770 114.8454440
 149.6130130 138.5044090 116.1205610 149.3158420 137.8989560 115.4413390
 150.5629950 138.5421400 116.0094970 147.8577050 131.5919740 117.7365440
 148.4091640 131.7015080 116.9618690 148.3720560 131.9657340 118.4520670
 148.7048560 138.2425780 122.7713410 147.8077090 138.4665750 123.0186810
 148.7301430 138.3660720 121.8224810 147.5319780 135.1139100 121.3470780
 147.3927550 135.9861900 121.7158180 146.6501140 134.7711910 121.2018720
 149.3300130 141.0560800 123.5555930 149.3015560 141.4603750 122.6884360
 149.1665100 140.1271160 123.3927530 145.8453060 133.7121510 111.4573050
 145.7250660 134.4383600 110.8454320 145.5353950 132.9424420 110.9800960
 143.4838430 136.8836650 117.2641690 143.5618850 137.0185420 116.3197410
 144.0980110 136.1752540 117.4569810 144.7286060 138.5836840 113.6747870
 144.3214140 138.7251430 112.8201470 145.6199070 138.2997000 113.4719080
 149.0007720 142.7982620 111.7870540 148.8250200 141.8818160 111.5738340
 148.1463460 143.1569910 112.0268340 143.5397950 137.9250820 119.8036150
 143.7028990 137.4556180 118.9855520 144.0050400 137.4174380 120.4684990
 148.3116720 127.0556580 114.8396720 147.8684870 127.8366120 114.5081240
 148.8701710 127.3786470 115.5467660 152.5986530 129.9225100 120.4432040
 152.1365900 130.1308120 121.2551980 152.1964640 129.1084450 120.1402710
 151.4275540 126.6767280 109.7202550 150.8029720 126.6727150 110.4455860
 151.3405660 125.8098240 109.3238520 150.3492620 127.6003910 116.6986320
 150.6464950 128.5066740 116.6178340 150.8978180 127.1122690 116.0845890
 148.1030940 132.1790150 112.5677970 147.8771860 131.9627320 113.4724590
 147.3223470 132.6118610 112.2223940 150.5430150 133.0775730 123.2338240
 150.4473750 132.1370460 123.0838640 151.3862130 133.2990800 122.8386310
 145.6740690 129.4889400 121.3872020 145.2804080 130.3364610 121.5944800
 144.9859090 128.8515770 121.5780660 152.2485740 129.5724370 124.4568760
 151.5584060 129.3796570 125.0914850 152.9918040 129.8559010 124.9893060
 142.9757740 127.4117860 115.4202100 142.6870790 127.9820720 116.1327080
 143.7203500 126.9322310 115.7833330 143.1627970 131.3537980 106.6304820
 143.0802640 132.2968740 106.7719810 142.8111030 131.2112890 105.7517170
 150.9626100 130.0877010 115.6975170 150.9662160 129.6466960 114.8479710
 151.8577220 130.4094340 115.8046990 146.8128480 129.9703500 114.6569380
 146.4728530 130.4478730 115.4136430 146.0505800 129.5168620 114.2970480
 151.0246250 131.0889090 108.6881930 151.1459070 131.0475570 109.6367750
 150.6394760 131.9513240 108.5328660 150.0367750 133.3990230 108.0865230
 149.4684650 132.9508480 107.4601140 150.7456750 133.7583010 107.5530380
 145.1136930 137.3002250 121.9631960 144.7291720 136.6595920 122.5614920
 145.4249120 138.0038370 122.5326690 151.2634070 134.1478790 117.4440580
 151.6304200 133.6737360 118.1901920 151.0739130 135.0220360 117.7848920
 144.1274560 128.8922480 113.5734050 143.8421480 128.5278150 114.4112670
 144.0653420 128.1602940 112.9597190 149.0533440 133.1887430 119.7624790
 148.7490510 134.0679410 119.9875150 150.0079900 133.2487220 119.7982230
 147.5815230 137.3948420 110.3591640 146.8077490 136.8546040 110.1990360
 148.3109860 136.8755030 110.0209400 147.6252630 137.0628800 113.9970450
 148.1431300 136.2597060 113.9427340 147.1736650 137.0007940 114.8387280
 152.5122130 138.3295080 109.2697750 152.8537830 139.0737310 108.7741070
 151.6834840 138.6426200 109.6322580 145.1097170 134.0290170 120.9096150
 144.7512110 134.6944020 121.4969490 144.8151730 133.1973720 121.2808770
 148.3110290 134.4874410 123.7935700 148.0110430 134.6331590 122.8963520
 149.0821530 133.9279700 123.7009090 151.4812820 138.4108610 112.0413670
 152.1683950 138.9577820 112.4221260 150.6945240 138.9549340 112.0763280
 143.6205220 134.0281430 107.5330750 144.4900070 134.3106230 107.8166670
 143.1295540 134.8417300 107.4179560 150.7840030 135.4154640 111.6539030
 151.2402810 136.2259890 111.8799220 150.4328240 135.0977780 112.4857520
 146.6851810 125.7592290 112.1261550 146.5566440 125.7510190 113.0746470
 145.8613830 126.0975380 111.7752560 143.9876470 143.2408810 108.0992380
 144.3474110 143.8398150 107.4449650 143.8468810 143.7868700 108.8727410
 143.6845740 127.5183410 121.5868250 142.9704260 127.7180330 122.1920860
 144.1040780 126.7422980 121.9583050 143.9718330 141.5063670 122.5734780
 144.0809450 140.5658410 122.4330170 143.3198890 141.7718420 121.9248510
 151.9630920 139.7779560 123.9732900 151.6427790 139.0588800 124.5178590
 151.2889280 140.4534630 124.0468960 150.0045090 140.6240010 108.9166050
 149.9955190 141.3569700 108.3010560 149.0843450 140.3771590 109.0093010
 145.6051730 135.8454900 109.6612810 144.9979680 136.5853800 109.6708110
 146.0801080 135.9354260 108.8351010 152.9904690 140.6868250 107.5791240
 153.0916670 140.4832240 106.6493220 152.0906430 140.4326530 107.7839020
 150.5130580 131.2448610 111.5615140 149.8046730 131.7134950 112.0028750
 150.7975060 130.5870620 112.1960330 152.1386510 132.6645310 119.5607670
 152.6371760 133.1391130 120.2259520 152.2809460 131.7408830 119.7677700
 151.6322800 143.2054570 112.2738910 151.8864300 143.1675960 111.3518280
 150.6835280 143.0787900 112.2667160 148.7165600 129.5533690 108.9365850
 149.5656130 129.9903840 108.8706040 148.3496870 129.8653950 109.7637910
 147.6157020 135.8066050 107.4101380 148.3820290 135.6947410 107.9726810
 147.6931710 135.1104020 106.7578150 146.3103780 133.2391120 108.0934270
 146.3907370 132.2918630 108.2051670 147.2023530 133.5698000 108.1994930
 147.1118490 143.3886510 115.1968810 147.8480970 142.8401970 115.4677380
 147.4959410 144.2542520 115.0574800 143.9963970 139.4560080 111.0710320
 143.0703750 139.6981220 111.0615730 144.4620400 140.2834340 110.9495070
 146.1176770 142.5732580 124.3854390 146.9189500 142.8944630 124.7989790
 145.6028590 142.2128160 125.1074300 150.2220800 142.5616820 107.0194380
 151.0149410 142.8505650 106.5676170 149.7025150 142.1308990 106.3406860
 143.8374580 135.0606040 123.3290440 144.3413600 134.4813320 123.9006670
 143.0982000 135.3446270 123.8666810 150.7398200 137.7820230 106.8836730
 150.6348840 137.1672580 107.6098110 150.5722420 137.2586120 106.0999740
 150.8912520 136.4677030 122.8625960 150.1258190 137.0362030 122.7780630
 151.0728480 136.1753240 121.9694190 145.8697660 133.2035630 124.2240510
 145.9103000 132.9049500 125.1325740 146.7243160 133.6043240 124.0648030
 149.6476050 135.8031180 109.3844020 150.0692470 135.6371050 110.2275410
 149.7726890 134.9931410 108.8899160 147.8103470 131.7827730 122.1915000
 147.2799930 131.2918680 121.5638340 148.4791540 132.2111930 121.6572930
 152.1603690 134.8268790 106.6321120 152.6809350 134.1117810 106.2662270
 152.8072090 135.4654660 106.9321630 148.2975770 128.7490100 122.2712290
 148.2032640 128.1310850 121.5463160 147.7173160 129.4756390 122.0442200
 151.0637210 127.3063340 119.3039680 150.6154510 127.3287600 118.4585230
 150.4302410 126.9082360 119.9009980 151.4696760 136.2017670 119.9252120
 151.8884870 137.0450400 119.7528360 150.5505390 136.3389710 119.6958900
 148.5434950 131.8764410 106.3302180 148.3424010 131.0131770 106.6915520
 148.3727000 131.7897770 105.3923780 149.3204180 142.5070680 121.0409850
 148.7825270 143.2316740 120.7218550 149.5738140 142.0301020 120.2507190
 150.5729430 130.4755200 122.5665780 151.1629120 130.1671050 123.2543600
 149.7549670 130.0034950 122.7225680 147.3417750 128.9765030 106.3180060
 147.6443650 128.9832460 105.4099210 148.0812340 128.6262890 106.8147720
 152.1766390 143.7421890 121.2996500 152.1025090 144.6457030 121.6068870
 151.2745230 143.4233790 121.2718570 150.5602680 127.9199650 107.3036260
 150.2124680 127.2423640 106.7238710 150.7615450 127.4589160 108.1179650
 146.3647880 138.2807450 107.1509860 146.8022750 138.8237120 107.8067440
 146.8495610 137.4554400 107.1606200 143.5793680 141.0696480 114.6030120
 143.9096690 140.2017540 114.3708760 144.0084680 141.2755000 115.4335080
 148.1755600 139.4005490 112.2632090 147.8751140 139.2770460 113.1636000
 148.0693090 138.5414080 111.8547820 144.0683890 141.9367070 117.3411750
 143.6314880 142.1167870 118.1735900 144.6361570 142.6941690 117.1993470
 143.9008320 134.4487300 113.7000630 143.2457160 134.1798940 113.0560330
 144.7386270 134.3391780 113.2502610 144.9384250 134.8339870 118.2403970
 145.3057290 134.7467270 119.1199990 144.3695070 134.0706420 118.1410830
 144.4900250 131.7448960 122.1462390 143.5956300 131.7115720 122.4856100
 145.0297800 131.9435750 122.9113640 143.1146400 131.6586230 109.6425960
 142.2110480 131.9216430 109.4677620 143.5987020 131.9297400 108.8625920
 145.6573610 130.7151770 107.5520340 146.3665310 130.2934990 107.0667620
 144.9413550 130.7827000 106.9203690 145.3047770 126.7691100 106.5922990
 146.0275900 127.3100040 106.9104210 145.5772290 126.4954520 105.7164530
 144.9939960 126.0197290 116.4945610 145.6416150 125.4694670 116.0540770
 145.4141800 126.2740440 117.3161420 144.7471960 126.1752960 119.2370930
 144.3986780 126.6316780 120.0029110 144.4159660 125.2810090 119.3193360
 146.3536330 139.3472560 123.4024120 146.3105960 138.9765470 124.2838580
 146.4847340 140.2850130 123.5425940 150.0542360 140.9032150 119.0033840
 149.8133720 141.1706710 118.1164360 150.9945000 141.0737880 119.0584700
 145.4192600 125.7029160 122.5121700 145.9675590 125.5217210 121.7487810
 145.4847910 124.9123270 123.0478010 146.1924360 142.2934810 120.5221900
 145.5984680 142.1619510 121.2611940 146.1848200 141.4572950 120.0564000
 145.8236590 139.6593190 119.4729940 145.0970650 139.0398480 119.4055890
 145.8845740 140.0533800 118.6028020 149.4281690 141.8738190 116.2579350
 149.9446710 141.2625550 115.7327610 150.0779070 142.3766970 116.7490360
 152.1677190 142.7646680 117.0848330 152.4555000 142.5100980 116.2081340
 152.6800410 142.2124040 117.6753900 144.1066590 142.9767580 112.6826700
 143.9388630 142.3438260 113.3808590 143.2401100 143.1826980 112.3320890
 144.7294610 126.8084360 110.1858560 145.4873970 126.9213240 109.6122590
 144.2671780 127.6453560 110.1401990 151.2708420 128.9223630 113.1760870
 150.4582930 128.5480520 112.8356750 151.7750060 128.1668710 113.4782060
 145.7129290 141.6700810 110.1276840 145.1876910 142.0508840 109.4238800
 145.6373870 142.2951580 110.8486550 147.1019760 127.3348410 108.7260530
 147.6312520 126.5478210 108.5968480 147.7348080 128.0139600 108.9596060
 149.2957600 127.0723550 111.7805920 148.6660340 126.3710860 111.9476050
 148.7562740 127.8327680 111.5639080 152.2349550 143.6862780 124.4516530
 153.1616860 143.4507050 124.4952490 152.2199980 144.5134780 123.9702560
 149.4213160 126.3507530 124.2158410 149.1397430 126.8541130 123.4519230
 149.8032860 125.5529280 123.8500540 148.3122260 143.6183190 109.0026090
 149.0441080 143.3342470 108.4549980 148.5715930 143.3796470 109.8925470
 147.4737050 139.7347920 109.0072420 146.8445930 140.2033020 109.5558250
 147.5884880 138.8897140 109.4418610 147.0770640 135.8752410  97.9158650
 146.2455520 135.6201120  98.3155160 147.6851620 135.9463180  98.6516570
 147.0571900 139.9092500  98.1116670 147.3599940 139.0190240  97.9326890
 147.8015490 140.4662720  97.8838920 145.4862590 130.8354300  91.7001040
 144.5979290 131.1770270  91.5980920 145.7703780 130.6354620  90.8081870
 143.4495600 133.4359950  97.5840740 144.0211710 132.6682150  97.5844380
 143.4497140 133.7348710  96.6747350 144.6920470 128.8444310  99.3709670
 144.5123310 127.9470060  99.6512430 144.2900550 129.3916180 100.0456620
 147.6623980 129.4185800  92.7339420 147.7690730 130.3189530  93.0408180
 146.7516340 129.3703770  92.4434070 145.3107140 131.3404810  97.9792010
 145.9917250 131.6043180  98.5979410 144.9955190 130.5005680  98.3130020
 149.5031710 132.3872170  97.0664600 150.0109930 132.8853140  97.7069620
 150.0344950 131.6107370  96.8903960 147.7867810 127.0270730 101.3328020
 147.7886250 127.5443120 100.5273920 146.9572120 126.5500910 101.3097950
 149.0370660 136.6665910  99.5101520 148.7040040 137.2934830 100.1522590
 149.2137340 137.1927790  98.7303190 147.4683140 128.7380690  99.3398470
 147.8099950 129.5822740  99.0452340 146.5298950 128.8864430  99.4563810
 148.2489760 138.6346710 101.3250700 148.8663760 139.3097790 101.0435150
 147.3882880 139.0434690 101.2338200 143.5422100 137.8246570  90.2057550
 143.1650080 138.3133670  89.4742450 143.7995170 138.4971850  90.8364080
 151.1511030 126.2262960  95.6643060 151.4586010 125.6709850  94.9478560
 150.2211730 126.3607420  95.4816050 149.1448430 134.8176530  95.1822910
 148.7405430 134.1053780  94.6868810 149.2311550 134.4729770  96.0710950
 149.6130130 138.5044090  97.3462120 149.3158420 137.8989560  96.6669900
 150.5629950 138.5421400  97.2351480 147.8577050 131.5919740  98.9621950
 148.4091640 131.7015080  98.1875200 148.3720560 131.9657340  99.6777180
 148.7048560 138.2425780 103.9969920 147.8077090 138.4665750 104.2443320
 148.7301430 138.3660720 103.0481320 147.5319780 135.1139100 102.5727290
 147.3927550 135.9861900 102.9414690 146.6501140 134.7711910 102.4275230
 149.3300130 141.0560800 104.7812440 149.3015560 141.4603750 103.9140870
 149.1665100 140.1271160 104.6184040 145.8453060 133.7121510  92.6829560
 145.7250660 134.4383600  92.0710830 145.5353950 132.9424420  92.2057470
 143.4838430 136.8836650  98.4898200 143.5618850 137.0185420  97.5453920
 144.0980110 136.1752540  98.6826320 144.7286060 138.5836840  94.9004380
 144.3214140 138.7251430  94.0457980 145.6199070 138.2997000  94.6975590
 149.0007720 142.7982620  93.0127050 148.8250200 141.8818160  92.7994850
 148.1463460 143.1569910  93.2524850 143.5397950 137.9250820 101.0292660
 143.7028990 137.4556180 100.2112030 144.0050400 137.4174380 101.6941500
 148.3116720 127.0556580  96.0653230 147.8684870 127.8366120  95.7337750
 148.8701710 127.3786470  96.7724170 152.5986530 129.9225100 101.6688550
 152.1365900 130.1308120 102.4808490 152.1964640 129.1084450 101.3659220
 151.4275540 126.6767280  90.9459060 150.8029720 126.6727150  91.6712370
 151.3405660 125.8098240  90.5495030 150.3492620 127.6003910  97.9242830
 150.6464950 128.5066740  97.8434850 150.8978180 127.1122690  97.3102400
 148.1030940 132.1790150  93.7934480 147.8771860 131.9627320  94.6981100
 147.3223470 132.6118610  93.4480450 150.5430150 133.0775730 104.4594750
 150.4473750 132.1370460 104.3095150 151.3862130 133.2990800 104.0642820
 145.6740690 129.4889400 102.6128530 145.2804080 130.3364610 102.8201310
 144.9859090 128.8515770 102.8037170 152.2485740 129.5724370 105.6825270
 151.5584060 129.3796570 106.3171360 152.9918040 129.8559010 106.2149570
 142.9757740 127.4117860  96.6458610 142.6870790 127.9820720  97.3583590
 143.7203500 126.9322310  97.0089840 143.1627970 131.3537980  87.8561330
 143.0802640 132.2968740  87.9976320 142.8111030 131.2112890  86.9773680
 150.9626100 130.0877010  96.9231680 150.9662160 129.6466960  96.0736220
 151.8577220 130.4094340  97.0303500 146.8128480 129.9703500  95.8825890
 146.4728530 130.4478730  96.6392940 146.0505800 129.5168620  95.5226990
 151.0246250 131.0889090  89.9138440 151.1459070 131.0475570  90.8624260
 150.6394760 131.9513240  89.7585170 150.0367750 133.3990230  89.3121740
 149.4684650 132.9508480  88.6857650 150.7456750 133.7583010  88.7786890
 145.1136930 137.3002250 103.1888470 144.7291720 136.6595920 103.7871430
 145.4249120 138.0038370 103.7583200 151.2634070 134.1478790  98.6697090
 151.6304200 133.6737360  99.4158430 151.0739130 135.0220360  99.0105430
 144.1274560 128.8922480  94.7990560 143.8421480 128.5278150  95.6369180
 144.0653420 128.1602940  94.1853700 149.0533440 133.1887430 100.9881300
 148.7490510 134.0679410 101.2131660 150.0079900 133.2487220 101.0238740
 147.5815230 137.3948420  91.5848150 146.8077490 136.8546040  91.4246870
 148.3109860 136.8755030  91.2465910 147.6252630 137.0628800  95.2226960
 148.1431300 136.2597060  95.1683850 147.1736650 137.0007940  96.0643790
 152.5122130 138.3295080  90.4954260 152.8537830 139.0737310  89.9997580
 151.6834840 138.6426200  90.8579090 145.1097170 134.0290170 102.1352660
 144.7512110 134.6944020 102.7226000 144.8151730 133.1973720 102.5065280
 148.3110290 134.4874410 105.0192210 148.0110430 134.6331590 104.1220030
 149.0821530 133.9279700 104.9265600 151.4812820 138.4108610  93.2670180
 152.1683950 138.9577820  93.6477770 150.6945240 138.9549340  93.3019790
 143.6205220 134.0281430  88.7587260 144.4900070 134.3106230  89.0423180
 143.1295540 134.8417300  88.6436070 150.7840030 135.4154640  92.8795540
 151.2402810 136.2259890  93.1055730 150.4328240 135.0977780  93.7114030
 146.6851810 125.7592290  93.3518060 146.5566440 125.7510190  94.3002980
 145.8613830 126.0975380  93.0009070 143.9876470 143.2408810  89.3248890
 144.3474110 143.8398150  88.6706160 143.8468810 143.7868700  90.0983920
 143.6845740 127.5183410 102.8124760 142.9704260 127.7180330 103.4177370
 144.1040780 126.7422980 103.1839560 143.9718330 141.5063670 103.7991290
 144.0809450 140.5658410 103.6586680 143.3198890 141.7718420 103.1505020
 151.9630920 139.7779560 105.1989410 151.6427790 139.0588800 105.7435100
 151.2889280 140.4534630 105.2725470 150.0045090 140.6240010  90.1422560
 149.9955190 141.3569700  89.5267070 149.0843450 140.3771590  90.2349520
 145.6051730 135.8454900  90.8869320 144.9979680 136.5853800  90.8964620
 146.0801080 135.9354260  90.0607520 152.9904690 140.6868250  88.8047750
 153.0916670 140.4832240  87.8749730 152.0906430 140.4326530  89.0095530
 150.5130580 131.2448610  92.7871650 149.8046730 131.7134950  93.2285260
 150.7975060 130.5870620  93.4216840 152.1386510 132.6645310 100.7864180
 152.6371760 133.1391130 101.4516030 152.2809460 131.7408830 100.9934210
 151.6322800 143.2054570  93.4995420 151.8864300 143.1675960  92.5774790
 150.6835280 143.0787900  93.4923670 148.7165600 129.5533690  90.1622360
 149.5656130 129.9903840  90.0962550 148.3496870 129.8653950  90.9894420
 147.6157020 135.8066050  88.6357890 148.3820290 135.6947410  89.1983320
 147.6931710 135.1104020  87.9834660 146.3103780 133.2391120  89.3190780
 146.3907370 132.2918630  89.4308180 147.2023530 133.5698000  89.4251440
 147.1118490 143.3886510  96.4225320 147.8480970 142.8401970  96.6933890
 147.4959410 144.2542520  96.2831310 143.9963970 139.4560080  92.2966830
 143.0703750 139.6981220  92.2872240 144.4620400 140.2834340  92.1751580
 146.1176770 142.5732580 105.6110900 146.9189500 142.8944630 106.0246300
 145.6028590 142.2128160 106.3330810 150.2220800 142.5616820  88.2450890
 151.0149410 142.8505650  87.7932680 149.7025150 142.1308990  87.5663370
 143.8374580 135.0606040 104.5546950 144.3413600 134.4813320 105.1263180
 143.0982000 135.3446270 105.0923320 150.7398200 137.7820230  88.1093240
 150.6348840 137.1672580  88.8354620 150.5722420 137.2586120  87.3256250
 150.8912520 136.4677030 104.0882470 150.1258190 137.0362030 104.0037140
 151.0728480 136.1753240 103.1950700 145.8697660 133.2035630 105.4497020
 145.9103000 132.9049500 106.3582250 146.7243160 133.6043240 105.2904540
 149.6476050 135.8031180  90.6100530 150.0692470 135.6371050  91.4531920
 149.7726890 134.9931410  90.1155670 147.8103470 131.7827730 103.4171510
 147.2799930 131.2918680 102.7894850 148.4791540 132.2111930 102.8829440
 152.1603690 134.8268790  87.8577630 152.6809350 134.1117810  87.4918780
 152.8072090 135.4654660  88.1578140 148.2975770 128.7490100 103.4968800
 148.2032640 128.1310850 102.7719670 147.7173160 129.4756390 103.2698710
 151.0637210 127.3063340 100.5296190 150.6154510 127.3287600  99.6841740
 150.4302410 126.9082360 101.1266490 151.4696760 136.2017670 101.1508630
 151.8884870 137.0450400 100.9784870 150.5505390 136.3389710 100.9215410
 148.5434950 131.8764410  87.5558690 148.3424010 131.0131770  87.9172030
 148.3727000 131.7897770  86.6180290 149.3204180 142.5070680 102.2666360
 148.7825270 143.2316740 101.9475060 149.5738140 142.0301020 101.4763700
 150.5729430 130.4755200 103.7922290 151.1629120 130.1671050 104.4800110
 149.7549670 130.0034950 103.9482190 147.3417750 128.9765030  87.5436570
 147.6443650 128.9832460  86.6355720 148.0812340 128.6262890  88.0404230
 152.1766390 143.7421890 102.5253010 152.1025090 144.6457030 102.8325380
 151.2745230 143.4233790 102.4975080 150.5602680 127.9199650  88.5292770
 150.2124680 127.2423640  87.9495220 150.7615450 127.4589160  89.3436160
 146.3647880 138.2807450  88.3766370 146.8022750 138.8237120  89.0323950
 146.8495610 137.4554400  88.3862710 143.5793680 141.0696480  95.8286630
 143.9096690 140.2017540  95.5965270 144.0084680 141.2755000  96.6591590
 148.1755600 139.4005490  93.4888600 147.8751140 139.2770460  94.3892510
 148.0693090 138.5414080  93.0804330 144.0683890 141.9367070  98.5668260
 143.6314880 142.1167870  99.3992410 144.6361570 142.6941690  98.4249980
 143.9008320 134.4487300  94.9257140 143.2457160 134.1798940  94.2816840
 144.7386270 134.3391780  94.4759120 144.9384250 134.8339870  99.4660480
 145.3057290 134.7467270 100.3456500 144.3695070 134.0706420  99.3667340
 144.4900250 131.7448960 103.3718900 143.5956300 131.7115720 103.7112610
 145.0297800 131.9435750 104.1370150 143.1146400 131.6586230  90.8682470
 142.2110480 131.9216430  90.6934130 143.5987020 131.9297400  90.0882430
 145.6573610 130.7151770  88.7776850 146.3665310 130.2934990  88.2924130
 144.9413550 130.7827000  88.1460200 145.3047770 126.7691100  87.8179500
 146.0275900 127.3100040  88.1360720 145.5772290 126.4954520  86.9421040
 144.9939960 126.0197290  97.7202120 145.6416150 125.4694670  97.2797280
 145.4141800 126.2740440  98.5417930 144.7471960 126.1752960 100.4627440
 144.3986780 126.6316780 101.2285620 144.4159660 125.2810090 100.5449870
 146.3536330 139.3472560 104.6280630 146.3105960 138.9765470 105.5095090
 146.4847340 140.2850130 104.7682450 150.0542360 140.9032150 100.2290350
 149.8133720 141.1706710  99.3420870 150.9945000 141.0737880 100.2841210
 145.4192600 125.7029160 103.7378210 145.9675590 125.5217210 102.9744320
 145.4847910 124.9123270 104.2734520 146.1924360 142.2934810 101.7478410
 145.5984680 142.1619510 102.4868450 146.1848200 141.4572950 101.2820510
 145.8236590 139.6593190 100.6986450 145.0970650 139.0398480 100.6312400
 145.8845740 140.0533800  99.8284530 149.4281690 141.8738190  97.4835860
 149.9446710 141.2625550  96.9584120 150.0779070 142.3766970  97.9746870
 152.1677190 142.7646680  98.3104840 152.4555000 142.5100980  97.4337850
 152.6800410 142.2124040  98.9010410 144.1066590 142.9767580  93.9083210
 143.9388630 142.3438260  94.6065100 143.2401100 143.1826980  93.5577400
 144.7294610 126.8084360  91.4115070 145.4873970 126.9213240  90.8379100
 144.2671780 127.6453560  91.3658500 151.2708420 128.9223630  94.4017380
 150.4582930 128.5480520  94.0613260 151.7750060 128.1668710  94.7038570
 145.7129290 141.6700810  91.3533350 145.1876910 142.0508840  90.6495310
 145.6373870 142.2951580  92.0743060 147.1019760 127.3348410  89.9517040
 147.6312520 126.5478210  89.8224990 147.7348080 128.0139600  90.1852570
 149.2957600 127.0723550  93.0062430 148.6660340 126.3710860  93.1732560
 148.7562740 127.8327680  92.7895590 152.2349550 143.6862780 105.6773040
 153.1616860 143.4507050 105.7209000 152.2199980 144.5134780 105.1959070
 149.4213160 126.3507530 105.4414920 149.1397430 126.8541130 104.6775740
 149.8032860 125.5529280 105.0757050 148.3122260 143.6183190  90.2282600
 149.0441080 143.3342470  89.6806490 148.5715930 143.3796470  91.1181980
 147.4737050 139.7347920  90.2328930 146.8445930 140.2033020  90.7814760
 147.5884880 138.8897140  90.6675120 147.0770640 135.8752410  79.1415160
 146.2455520 135.6201120  79.5411670 147.6851620 135.9463180  79.8773080
 147.0571900 139.9092500  79.3373180 147.3599940 139.0190240  79.1583400
 147.8015490 140.4662720  79.1095430 145.4862590 130.8354300  72.9257550
 144.5979290 131.1770270  72.8237430 145.7703780 130.6354620  72.0338380
 143.4495600 133.4359950  78.8097250 144.0211710 132.6682150  78.8100890
 143.4497140 133.7348710  77.9003860 144.6920470 128.8444310  80.5966180
 144.5123310 127.9470060  80.8768940 144.2900550 129.3916180  81.2713130
 147.6623980 129.4185800  73.9595930 147.7690730 130.3189530  74.2664690
 146.7516340 129.3703770  73.6690580 145.3107140 131.3404810  79.2048520
 145.9917250 131.6043180  79.8235920 144.9955190 130.5005680  79.5386530
 149.5031710 132.3872170  78.2921110 150.0109930 132.8853140  78.9326130
 150.0344950 131.6107370  78.1160470 147.7867810 127.0270730  82.5584530
 147.7886250 127.5443120  81.7530430 146.9572120 126.5500910  82.5354460
 149.0370660 136.6665910  80.7358030 148.7040040 137.2934830  81.3779100
 149.2137340 137.1927790  79.9559700 147.4683140 128.7380690  80.5654980
 147.8099950 129.5822740  80.2708850 146.5298950 128.8864430  80.6820320
 148.2489760 138.6346710  82.5507210 148.8663760 139.3097790  82.2691660
 147.3882880 139.0434690  82.4594710 143.5422100 137.8246570  71.4314060
 143.1650080 138.3133670  70.6998960 143.7995170 138.4971850  72.0620590
 151.1511030 126.2262960  76.8899570 151.4586010 125.6709850  76.1735070
 150.2211730 126.3607420  76.7072560 149.1448430 134.8176530  76.4079420
 148.7405430 134.1053780  75.9125320 149.2311550 134.4729770  77.2967460
 149.6130130 138.5044090  78.5718630 149.3158420 137.8989560  77.8926410
 150.5629950 138.5421400  78.4607990 147.8577050 131.5919740  80.1878460
 148.4091640 131.7015080  79.4131710 148.3720560 131.9657340  80.9033690
 148.7048560 138.2425780  85.2226430 147.8077090 138.4665750  85.4699830
 148.7301430 138.3660720  84.2737830 147.5319780 135.1139100  83.7983800
 147.3927550 135.9861900  84.1671200 146.6501140 134.7711910  83.6531740
 149.3300130 141.0560800  86.0068950 149.3015560 141.4603750  85.1397380
 149.1665100 140.1271160  85.8440550 145.8453060 133.7121510  73.9086070
 145.7250660 134.4383600  73.2967340 145.5353950 132.9424420  73.4313980
 143.4838430 136.8836650  79.7154710 143.5618850 137.0185420  78.7710430
 144.0980110 136.1752540  79.9082830 144.7286060 138.5836840  76.1260890
 144.3214140 138.7251430  75.2714490 145.6199070 138.2997000  75.9232100
 149.0007720 142.7982620  74.2383560 148.8250200 141.8818160  74.0251360
 148.1463460 143.1569910  74.4781360 143.5397950 137.9250820  82.2549170
 143.7028990 137.4556180  81.4368540 144.0050400 137.4174380  82.9198010
 148.3116720 127.0556580  77.2909740 147.8684870 127.8366120  76.9594260
 148.8701710 127.3786470  77.9980680 152.5986530 129.9225100  82.8945060
 152.1365900 130.1308120  83.7065000 152.1964640 129.1084450  82.5915730
 151.4275540 126.6767280  72.1715570 150.8029720 126.6727150  72.8968880
 151.3405660 125.8098240  71.7751540 150.3492620 127.6003910  79.1499340
 150.6464950 128.5066740  79.0691360 150.8978180 127.1122690  78.5358910
 148.1030940 132.1790150  75.0190990 147.8771860 131.9627320  75.9237610
 147.3223470 132.6118610  74.6736960 150.5430150 133.0775730  85.6851260
 150.4473750 132.1370460  85.5351660 151.3862130 133.2990800  85.2899330
 145.6740690 129.4889400  83.8385040 145.2804080 130.3364610  84.0457820
 144.9859090 128.8515770  84.0293680 152.2485740 129.5724370  86.9081780
 151.5584060 129.3796570  87.5427870 152.9918040 129.8559010  87.4406080
 142.9757740 127.4117860  77.8715120 142.6870790 127.9820720  78.5840100
 143.7203500 126.9322310  78.2346350 143.1627970 131.3537980  69.0817840
 143.0802640 132.2968740  69.2232830 142.8111030 131.2112890  68.2030190
 150.9626100 130.0877010  78.1488190 150.9662160 129.6466960  77.2992730
 151.8577220 130.4094340  78.2560010 146.8128480 129.9703500  77.1082400
 146.4728530 130.4478730  77.8649450 146.0505800 129.5168620  76.7483500
 151.0246250 131.0889090  71.1394950 151.1459070 131.0475570  72.0880770
 150.6394760 131.9513240  70.9841680 150.0367750 133.3990230  70.5378250
 149.4684650 132.9508480  69.9114160 150.7456750 133.7583010  70.0043400
 145.1136930 137.3002250  84.4144980 144.7291720 136.6595920  85.0127940
 145.4249120 138.0038370  84.9839710 151.2634070 134.1478790  79.8953600
 151.6304200 133.6737360  80.6414940 151.0739130 135.0220360  80.2361940
 144.1274560 128.8922480  76.0247070 143.8421480 128.5278150  76.8625690
 144.0653420 128.1602940  75.4110210 149.0533440 133.1887430  82.2137810
 148.7490510 134.0679410  82.4388170 150.0079900 133.2487220  82.2495250
 147.5815230 137.3948420  72.8104660 146.8077490 136.8546040  72.6503380
 148.3109860 136.8755030  72.4722420 147.6252630 137.0628800  76.4483470
 148.1431300 136.2597060  76.3940360 147.1736650 137.0007940  77.2900300
 152.5122130 138.3295080  71.7210770 152.8537830 139.0737310  71.2254090
 151.6834840 138.6426200  72.0835600 145.1097170 134.0290170  83.3609170
 144.7512110 134.6944020  83.9482510 144.8151730 133.1973720  83.7321790
 148.3110290 134.4874410  86.2448720 148.0110430 134.6331590  85.3476540
 149.0821530 133.9279700  86.1522110 151.4812820 138.4108610  74.4926690
 152.1683950 138.9577820  74.8734280 150.6945240 138.9549340  74.5276300
 143.6205220 134.0281430  69.9843770 144.4900070 134.3106230  70.2679690
 143.1295540 134.8417300  69.8692580 150.7840030 135.4154640  74.1052050
 151.2402810 136.2259890  74.3312240 150.4328240 135.0977780  74.9370540
 146.6851810 125.7592290  74.5774570 146.5566440 125.7510190  75.5259490
 145.8613830 126.0975380  74.2265580 143.9876470 143.2408810  70.5505400
 144.3474110 143.8398150  69.8962670 143.8468810 143.7868700  71.3240430
 143.6845740 127.5183410  84.0381270 142.9704260 127.7180330  84.6433880
 144.1040780 126.7422980  84.4096070 143.9718330 141.5063670  85.0247800
 144.0809450 140.5658410  84.8843190 143.3198890 141.7718420  84.3761530
 151.9630920 139.7779560  86.4245920 151.6427790 139.0588800  86.9691610
 151.2889280 140.4534630  86.4981980 150.0045090 140.6240010  71.3679070
 149.9955190 141.3569700  70.7523580 149.0843450 140.3771590  71.4606030
 145.6051730 135.8454900  72.1125830 144.9979680 136.5853800  72.1221130
 146.0801080 135.9354260  71.2864030 152.9904690 140.6868250  70.0304260
 153.0916670 140.4832240  69.1006240 152.0906430 140.4326530  70.2352040
 150.5130580 131.2448610  74.0128160 149.8046730 131.7134950  74.4541770
 150.7975060 130.5870620  74.6473350 152.1386510 132.6645310  82.0120690
 152.6371760 133.1391130  82.6772540 152.2809460 131.7408830  82.2190720
 151.6322800 143.2054570  74.7251930 151.8864300 143.1675960  73.8031300
 150.6835280 143.0787900  74.7180180 148.7165600 129.5533690  71.3878870
 149.5656130 129.9903840  71.3219060 148.3496870 129.8653950  72.2150930
 147.6157020 135.8066050  69.8614400 148.3820290 135.6947410  70.4239830
 147.6931710 135.1104020  69.2091170 146.3103780 133.2391120  70.5447290
 146.3907370 132.2918630  70.6564690 147.2023530 133.5698000  70.6507950
 147.1118490 143.3886510  77.6481830 147.8480970 142.8401970  77.9190400
 147.4959410 144.2542520  77.5087820 143.9963970 139.4560080  73.5223340
 143.0703750 139.6981220  73.5128750 144.4620400 140.2834340  73.4008090
 146.1176770 142.5732580  86.8367410 146.9189500 142.8944630  87.2502810
 145.6028590 142.2128160  87.5587320 150.2220800 142.5616820  69.4707400
 151.0149410 142.8505650  69.0189190 149.7025150 142.1308990  68.7919880
 143.8374580 135.0606040  85.7803460 144.3413600 134.4813320  86.3519690
 143.0982000 135.3446270  86.3179830 150.7398200 137.7820230  69.3349750
 150.6348840 137.1672580  70.0611130 150.5722420 137.2586120  68.5512760
 150.8912520 136.4677030  85.3138980 150.1258190 137.0362030  85.2293650
 151.0728480 136.1753240  84.4207210 145.8697660 133.2035630  86.6753530
 145.9103000 132.9049500  87.5838760 146.7243160 133.6043240  86.5161050
 149.6476050 135.8031180  71.8357040 150.0692470 135.6371050  72.6788430
 149.7726890 134.9931410  71.3412180 147.8103470 131.7827730  84.6428020
 147.2799930 131.2918680  84.0151360 148.4791540 132.2111930  84.1085950
 152.1603690 134.8268790  69.0834140 152.6809350 134.1117810  68.7175290
 152.8072090 135.4654660  69.3834650 148.2975770 128.7490100  84.7225310
 148.2032640 128.1310850  83.9976180 147.7173160 129.4756390  84.4955220
 151.0637210 127.3063340  81.7552700 150.6154510 127.3287600  80.9098250
 150.4302410 126.9082360  82.3523000 151.4696760 136.2017670  82.3765140
 151.8884870 137.0450400  82.2041380 150.5505390 136.3389710  82.1471920
 148.5434950 131.8764410  68.7815200 148.3424010 131.0131770  69.1428540
 148.3727000 131.7897770  67.8436800 149.3204180 142.5070680  83.4922870
 148.7825270 143.2316740  83.1731570 149.5738140 142.0301020  82.7020210
 150.5729430 130.4755200  85.0178800 151.1629120 130.1671050  85.7056620
 149.7549670 130.0034950  85.1738700 147.3417750 128.9765030  68.7693080
 147.6443650 128.9832460  67.8612230 148.0812340 128.6262890  69.2660740
 152.1766390 143.7421890  83.7509520 152.1025090 144.6457030  84.0581890
 151.2745230 143.4233790  83.7231590 150.5602680 127.9199650  69.7549280
 150.2124680 127.2423640  69.1751730 150.7615450 127.4589160  70.5692670
 146.3647880 138.2807450  69.6022880 146.8022750 138.8237120  70.2580460
 146.8495610 137.4554400  69.6119220 143.5793680 141.0696480  77.0543140
 143.9096690 140.2017540  76.8221780 144.0084680 141.2755000  77.8848100
 148.1755600 139.4005490  74.7145110 147.8751140 139.2770460  75.6149020
 148.0693090 138.5414080  74.3060840 144.0683890 141.9367070  79.7924770
 143.6314880 142.1167870  80.6248920 144.6361570 142.6941690  79.6506490
 143.9008320 134.4487300  76.1513650 143.2457160 134.1798940  75.5073350
 144.7386270 134.3391780  75.7015630 144.9384250 134.8339870  80.6916990
 145.3057290 134.7467270  81.5713010 144.3695070 134.0706420  80.5923850
 144.4900250 131.7448960  84.5975410 143.5956300 131.7115720  84.9369120
 145.0297800 131.9435750  85.3626660 143.1146400 131.6586230  72.0938980
 142.2110480 131.9216430  71.9190640 143.5987020 131.9297400  71.3138940
 145.6573610 130.7151770  70.0033360 146.3665310 130.2934990  69.5180640
 144.9413550 130.7827000  69.3716710 145.3047770 126.7691100  69.0436010
 146.0275900 127.3100040  69.3617230 145.5772290 126.4954520  68.1677550
 144.9939960 126.0197290  78.9458630 145.6416150 125.4694670  78.5053790
 145.4141800 126.2740440  79.7674440 144.7471960 126.1752960  81.6883950
 144.3986780 126.6316780  82.4542130 144.4159660 125.2810090  81.7706380
 146.3536330 139.3472560  85.8537140 146.3105960 138.9765470  86.7351600
 146.4847340 140.2850130  85.9938960 150.0542360 140.9032150  81.4546860
 149.8133720 141.1706710  80.5677380 150.9945000 141.0737880  81.5097720
 145.4192600 125.7029160  84.9634720 145.9675590 125.5217210  84.2000830
 145.4847910 124.9123270  85.4991030 146.1924360 142.2934810  82.9734920
 145.5984680 142.1619510  83.7124960 146.1848200 141.4572950  82.5077020
 145.8236590 139.6593190  81.9242960 145.0970650 139.0398480  81.8568910
 145.8845740 140.0533800  81.0541040 149.4281690 141.8738190  78.7092370
 149.9446710 141.2625550  78.1840630 150.0779070 142.3766970  79.2003380
 152.1677190 142.7646680  79.5361350 152.4555000 142.5100980  78.6594360
 152.6800410 142.2124040  80.1266920 144.1066590 142.9767580  75.1339720
 143.9388630 142.3438260  75.8321610 143.2401100 143.1826980  74.7833910
 144.7294610 126.8084360  72.6371580 145.4873970 126.9213240  72.0635610
 144.2671780 127.6453560  72.5915010 151.2708420 128.9223630  75.6273890
 150.4582930 128.5480520  75.2869770 151.7750060 128.1668710  75.9295080
 145.7129290 141.6700810  72.5789860 145.1876910 142.0508840  71.8751820
 145.6373870 142.2951580  73.2999570 147.1019760 127.3348410  71.1773550
 147.6312520 126.5478210  71.0481500 147.7348080 128.0139600  71.4109080
 149.2957600 127.0723550  74.2318940 148.6660340 126.3710860  74.3989070
 148.7562740 127.8327680  74.0152100 152.2349550 143.6862780  86.9029550
 153.1616860 143.4507050  86.9465510 152.2199980 144.5134780  86.4215580
 149.4213160 126.3507530  86.6671430 149.1397430 126.8541130  85.9032250
 149.8032860 125.5529280  86.3013560 148.3122260 143.6183190  71.4539110
 149.0441080 143.3342470  70.9063000 148.5715930 143.3796470  72.3438490
 147.4737050 139.7347920  71.4585440 146.8445930 140.2033020  72.0071270
 147.5884880 138.8897140  71.8931630 147.0770640 135.8752410  60.3671670
 146.2455520 135.6201120  60.7668180 147.6851620 135.9463180  61.1029590
 147.0571900 139.9092500  60.5629690 147.3599940 139.0190240  60.3839910
 147.8015490 140.4662720  60.3351940 145.4862590 130.8354300  54.1514060
 144.5979290 131.1770270  54.0493940 145.7703780 130.6354620  53.2594890
 143.4495600 133.4359950  60.0353760 144.0211710 132.6682150  60.0357400
 143.4497140 133.7348710  59.1260370 144.6920470 128.8444310  61.8222690
 144.5123310 127.9470060  62.1025450 144.2900550 129.3916180  62.4969640
 147.6623980 129.4185800  55.1852440 147.7690730 130.3189530  55.4921200
 146.7516340 129.3703770  54.8947090 145.3107140 131.3404810  60.4305030
 145.9917250 131.6043180  61.0492430 144.9955190 130.5005680  60.7643040
 149.5031710 132.3872170  59.5177620 150.0109930 132.8853140  60.1582640
 150.0344950 131.6107370  59.3416980 147.7867810 127.0270730  63.7841040
 147.7886250 127.5443120  62.9786940 146.9572120 126.5500910  63.7610970
 149.0370660 136.6665910  61.9614540 148.7040040 137.2934830  62.6035610
 149.2137340 137.1927790  61.1816210 147.4683140 128.7380690  61.7911490
 147.8099950 129.5822740  61.4965360 146.5298950 128.8864430  61.9076830
 148.2489760 138.6346710  63.7763720 148.8663760 139.3097790  63.4948170
 147.3882880 139.0434690  63.6851220 143.5422100 137.8246570  52.6570570
 143.1650080 138.3133670  51.9255470 143.7995170 138.4971850  53.2877100
 151.1511030 126.2262960  58.1156080 151.4586010 125.6709850  57.3991580
 150.2211730 126.3607420  57.9329070 149.1448430 134.8176530  57.6335930
 148.7405430 134.1053780  57.1381830 149.2311550 134.4729770  58.5223970
 149.6130130 138.5044090  59.7975140 149.3158420 137.8989560  59.1182920
 150.5629950 138.5421400  59.6864500 147.8577050 131.5919740  61.4134970
 148.4091640 131.7015080  60.6388220 148.3720560 131.9657340  62.1290200
 148.7048560 138.2425780  66.4482940 147.8077090 138.4665750  66.6956340
 148.7301430 138.3660720  65.4994340 147.5319780 135.1139100  65.0240310
 147.3927550 135.9861900  65.3927710 146.6501140 134.7711910  64.8788250
 149.3300130 141.0560800  67.2325460 149.3015560 141.4603750  66.3653890
 149.1665100 140.1271160  67.0697060 145.8453060 133.7121510  55.1342580
 145.7250660 134.4383600  54.5223850 145.5353950 132.9424420  54.6570490
 143.4838430 136.8836650  60.9411220 143.5618850 137.0185420  59.9966940
 144.0980110 136.1752540  61.1339340 144.7286060 138.5836840  57.3517400
 144.3214140 138.7251430  56.4971000 145.6199070 138.2997000  57.1488610
 149.0007720 142.7982620  55.4640070 148.8250200 141.8818160  55.2507870
 148.1463460 143.1569910  55.7037870 143.5397950 137.9250820  63.4805680
 143.7028990 137.4556180  62.6625050 144.0050400 137.4174380  64.1454520
 148.3116720 127.0556580  58.5166250 147.8684870 127.8366120  58.1850770
 148.8701710 127.3786470  59.2237190 152.5986530 129.9225100  64.1201570
 152.1365900 130.1308120  64.9321510 152.1964640 129.1084450  63.8172240
 151.4275540 126.6767280  53.3972080 150.8029720 126.6727150  54.1225390
 151.3405660 125.8098240  53.0008050 150.3492620 127.6003910  60.3755850
 150.6464950 128.5066740  60.2947870 150.8978180 127.1122690  59.7615420
 148.1030940 132.1790150  56.2447500 147.8771860 131.9627320  57.1494120
 147.3223470 132.6118610  55.8993470 150.5430150 133.0775730  66.9107770
 150.4473750 132.1370460  66.7608170 151.3862130 133.2990800  66.5155840
 145.6740690 129.4889400  65.0641550 145.2804080 130.3364610  65.2714330
 144.9859090 128.8515770  65.2550190 152.2485740 129.5724370  68.1338290
 151.5584060 129.3796570  68.7684380 152.9918040 129.8559010  68.6662590
 142.9757740 127.4117860  59.0971630 142.6870790 127.9820720  59.8096610
 143.7203500 126.9322310  59.4602860 143.1627970 131.3537980  50.3074350
 143.0802640 132.2968740  50.4489340 142.8111030 131.2112890  49.4286700
 150.9626100 130.0877010  59.3744700 150.9662160 129.6466960  58.5249240
 151.8577220 130.4094340  59.4816520 146.8128480 129.9703500  58.3338910
 146.4728530 130.4478730  59.0905960 146.0505800 129.5168620  57.9740010
 151.0246250 131.0889090  52.3651460 151.1459070 131.0475570  53.3137280
 150.6394760 131.9513240  52.2098190 150.0367750 133.3990230  51.7634760
 149.4684650 132.9508480  51.1370670 150.7456750 133.7583010  51.2299910
 145.1136930 137.3002250  65.6401490 144.7291720 136.6595920  66.2384450
 145.4249120 138.0038370  66.2096220 151.2634070 134.1478790  61.1210110
 151.6304200 133.6737360  61.8671450 151.0739130 135.0220360  61.4618450
 144.1274560 128.8922480  57.2503580 143.8421480 128.5278150  58.0882200
 144.0653420 128.1602940  56.6366720 149.0533440 133.1887430  63.4394320
 148.7490510 134.0679410  63.6644680 150.0079900 133.2487220  63.4751760
 147.5815230 137.3948420  54.0361170 146.8077490 136.8546040  53.8759890
 148.3109860 136.8755030  53.6978930 147.6252630 137.0628800  57.6739980
 148.1431300 136.2597060  57.6196870 147.1736650 137.0007940  58.5156810
 152.5122130 138.3295080  52.9467280 152.8537830 139.0737310  52.4510600
 151.6834840 138.6426200  53.3092110 145.1097170 134.0290170  64.5865680
 144.7512110 134.6944020  65.1739020 144.8151730 133.1973720  64.9578300
 148.3110290 134.4874410  67.4705230 148.0110430 134.6331590  66.5733050
 149.0821530 133.9279700  67.3778620 151.4812820 138.4108610  55.7183200
 152.1683950 138.9577820  56.0990790 150.6945240 138.9549340  55.7532810
 143.6205220 134.0281430  51.2100280 144.4900070 134.3106230  51.4936200
 143.1295540 134.8417300  51.0949090 150.7840030 135.4154640  55.3308560
 151.2402810 136.2259890  55.5568750 150.4328240 135.0977780  56.1627050
 146.6851810 125.7592290  55.8031080 146.5566440 125.7510190  56.7516000
 145.8613830 126.0975380  55.4522090 143.9876470 143.2408810  51.7761910
 144.3474110 143.8398150  51.1219180 143.8468810 143.7868700  52.5496940
 143.6845740 127.5183410  65.2637780 142.9704260 127.7180330  65.8690390
 144.1040780 126.7422980  65.6352580 143.9718330 141.5063670  66.2504310
 144.0809450 140.5658410  66.1099700 143.3198890 141.7718420  65.6018040
 151.9630920 139.7779560  67.6502430 151.6427790 139.0588800  68.1948120
 151.2889280 140.4534630  67.7238490 150.0045090 140.6240010  52.5935580
 149.9955190 141.3569700  51.9780090 149.0843450 140.3771590  52.6862540
 145.6051730 135.8454900  53.3382340 144.9979680 136.5853800  53.3477640
 146.0801080 135.9354260  52.5120540 152.9904690 140.6868250  51.2560770
 153.0916670 140.4832240  50.3262750 152.0906430 140.4326530  51.4608550
 150.5130580 131.2448610  55.2384670 149.8046730 131.7134950  55.6798280
 150.7975060 130.5870620  55.8729860 152.1386510 132.6645310  63.2377200
 152.6371760 133.1391130  63.9029050 152.2809460 131.7408830  63.4447230
 151.6322800 143.2054570  55.9508440 151.8864300 143.1675960  55.0287810
 150.6835280 143.0787900  55.9436690 148.7165600 129.5533690  52.6135380
 149.5656130 129.9903840  52.5475570 148.3496870 129.8653950  53.4407440
 147.6157020 135.8066050  51.0870910 148.3820290 135.6947410  51.6496340
 147.6931710 135.1104020  50.4347680 146.3103780 133.2391120  51.7703800
 146.3907370 132.2918630  51.8821200 147.2023530 133.5698000  51.8764460
 147.1118490 143.3886510  58.8738340 147.8480970 142.8401970  59.1446910
 147.4959410 144.2542520  58.7344330 143.9963970 139.4560080  54.7479850
 143.0703750 139.6981220  54.7385260 144.4620400 140.2834340  54.6264600
 146.1176770 142.5732580  68.0623920 146.9189500 142.8944630  68.4759320
 145.6028590 142.2128160  68.7843830 150.2220800 142.5616820  50.6963910
 151.0149410 142.8505650  50.2445700 149.7025150 142.1308990  50.0176390
 143.8374580 135.0606040  67.0059970 144.3413600 134.4813320  67.5776200
 143.0982000 135.3446270  67.5436340 150.7398200 137.7820230  50.5606260
 150.6348840 137.1672580  51.2867640 150.5722420 137.2586120  49.7769270
 150.8912520 136.4677030  66.5395490 150.1258190 137.0362030  66.4550160
 151.0728480 136.1753240  65.6463720 145.8697660 133.2035630  67.9010040
 145.9103000 132.9049500  68.8095270 146.7243160 133.6043240  67.7417560
 149.6476050 135.8031180  53.0613550 150.0692470 135.6371050  53.9044940
 149.7726890 134.9931410  52.5668690 147.8103470 131.7827730  65.8684530
 147.2799930 131.2918680  65.2407870 148.4791540 132.2111930  65.3342460
 152.1603690 134.8268790  50.3090650 152.6809350 134.1117810  49.9431800
 152.8072090 135.4654660  50.6091160 148.2975770 128.7490100  65.9481820
 148.2032640 128.1310850  65.2232690 147.7173160 129.4756390  65.7211730
 151.0637210 127.3063340  62.9809210 150.6154510 127.3287600  62.1354760
 150.4302410 126.9082360  63.5779510 151.4696760 136.2017670  63.6021650
 151.8884870 137.0450400  63.4297890 150.5505390 136.3389710  63.3728430
 148.5434950 131.8764410  50.0071710 148.3424010 131.0131770  50.3685050
 148.3727000 131.7897770  49.0693310 149.3204180 142.5070680  64.7179380
 148.7825270 143.2316740  64.3988080 149.5738140 142.0301020  63.9276720
 150.5729430 130.4755200  66.2435310 151.1629120 130.1671050  66.9313130
 149.7549670 130.0034950  66.3995210 147.3417750 128.9765030  49.9949590
 147.6443650 128.9832460  49.0868740 148.0812340 128.6262890  50.4917250
 152.1766390 143.7421890  64.9766030 152.1025090 144.6457030  65.2838400
 151.2745230 143.4233790  64.9488100 150.5602680 127.9199650  50.9805790
 150.2124680 127.2423640  50.4008240 150.7615450 127.4589160  51.7949180
 146.3647880 138.2807450  50.8279390 146.8022750 138.8237120  51.4836970
 146.8495610 137.4554400  50.8375730 143.5793680 141.0696480  58.2799650
 143.9096690 140.2017540  58.0478290 144.0084680 141.2755000  59.1104610
 148.1755600 139.4005490  55.9401620 147.8751140 139.2770460  56.8405530
 148.0693090 138.5414080  55.5317350 144.0683890 141.9367070  61.0181280
 143.6314880 142.1167870  61.8505430 144.6361570 142.6941690  60.8763000
 143.9008320 134.4487300  57.3770160 143.2457160 134.1798940  56.7329860
 144.7386270 134.3391780  56.9272140 144.9384250 134.8339870  61.9173500
 145.3057290 134.7467270  62.7969520 144.3695070 134.0706420  61.8180360
 144.4900250 131.7448960  65.8231920 143.5956300 131.7115720  66.1625630
 145.0297800 131.9435750  66.5883170 143.1146400 131.6586230  53.3195490
 142.2110480 131.9216430  53.1447150 143.5987020 131.9297400  52.5395450
 145.6573610 130.7151770  51.2289870 146.3665310 130.2934990  50.7437150
 144.9413550 130.7827000  50.5973220 145.3047770 126.7691100  50.2692520
 146.0275900 127.3100040  50.5873740 145.5772290 126.4954520  49.3934060
 144.9939960 126.0197290  60.1715140 145.6416150 125.4694670  59.7310300
 145.4141800 126.2740440  60.9930950 144.7471960 126.1752960  62.9140460
 144.3986780 126.6316780  63.6798640 144.4159660 125.2810090  62.9962890
 146.3536330 139.3472560  67.0793650 146.3105960 138.9765470  67.9608110
 146.4847340 140.2850130  67.2195470 150.0542360 140.9032150  62.6803370
 149.8133720 141.1706710  61.7933890 150.9945000 141.0737880  62.7354230
 145.4192600 125.7029160  66.1891230 145.9675590 125.5217210  65.4257340
 145.4847910 124.9123270  66.7247540 146.1924360 142.2934810  64.1991430
 145.5984680 142.1619510  64.9381470 146.1848200 141.4572950  63.7333530
 145.8236590 139.6593190  63.1499470 145.0970650 139.0398480  63.0825420
 145.8845740 140.0533800  62.2797550 149.4281690 141.8738190  59.9348880
 149.9446710 141.2625550  59.4097140 150.0779070 142.3766970  60.4259890
 152.1677190 142.7646680  60.7617860 152.4555000 142.5100980  59.8850870
 152.6800410 142.2124040  61.3523430 144.1066590 142.9767580  56.3596230
 143.9388630 142.3438260  57.0578120 143.2401100 143.1826980  56.0090420
 144.7294610 126.8084360  53.8628090 145.4873970 126.9213240  53.2892120
 144.2671780 127.6453560  53.8171520 151.2708420 128.9223630  56.8530400
 150.4582930 128.5480520  56.5126280 151.7750060 128.1668710  57.1551590
 145.7129290 141.6700810  53.8046370 145.1876910 142.0508840  53.1008330
 145.6373870 142.2951580  54.5256080 147.1019760 127.3348410  52.4030060
 147.6312520 126.5478210  52.2738010 147.7348080 128.0139600  52.6365590
 149.2957600 127.0723550  55.4575450 148.6660340 126.3710860  55.6245580
 148.7562740 127.8327680  55.2408610 152.2349550 143.6862780  68.1286060
 153.1616860 143.4507050  68.1722020 152.2199980 144.5134780  67.6472090
 149.4213160 126.3507530  67.8927940 149.1397430 126.8541130  67.1288760
 149.8032860 125.5529280  67.5270070 148.3122260 143.6183190  52.6795620
 149.0441080 143.3342470  52.1319510 148.5715930 143.3796470  53.5695000
 147.4737050 139.7347920  52.6841950 146.8445930 140.2033020  53.2327780
 147.5884880 138.8897140  53.1188140 147.0770640 135.8752410  41.5928180
 146.2455520 135.6201120  41.9924690 147.6851620 135.9463180  42.3286100
 147.0571900 139.9092500  41.7886200 147.3599940 139.0190240  41.6096420
 147.8015490 140.4662720  41.5608450 145.4862590 130.8354300  35.3770570
 144.5979290 131.1770270  35.2750450 145.7703780 130.6354620  34.4851400
 143.4495600 133.4359950  41.2610270 144.0211710 132.6682150  41.2613910
 143.4497140 133.7348710  40.3516880 144.6920470 128.8444310  43.0479200
 144.5123310 127.9470060  43.3281960 144.2900550 129.3916180  43.7226150
 147.6623980 129.4185800  36.4108950 147.7690730 130.3189530  36.7177710
 146.7516340 129.3703770  36.1203600 145.3107140 131.3404810  41.6561540
 145.9917250 131.6043180  42.2748940 144.9955190 130.5005680  41.9899550
 149.5031710 132.3872170  40.7434130 150.0109930 132.8853140  41.3839150
 150.0344950 131.6107370  40.5673490 147.7867810 127.0270730  45.0097550
 147.7886250 127.5443120  44.2043450 146.9572120 126.5500910  44.9867480
 149.0370660 136.6665910  43.1871050 148.7040040 137.2934830  43.8292120
 149.2137340 137.1927790  42.4072720 147.4683140 128.7380690  43.0168000
 147.8099950 129.5822740  42.7221870 146.5298950 128.8864430  43.1333340
 148.2489760 138.6346710  45.0020230 148.8663760 139.3097790  44.7204680
 147.3882880 139.0434690  44.9107730 143.5422100 137.8246570  33.8827080
 143.1650080 138.3133670  33.1511980 143.7995170 138.4971850  34.5133610
 151.1511030 126.2262960  39.3412590 151.4586010 125.6709850  38.6248090
 150.2211730 126.3607420  39.1585580 149.1448430 134.8176530  38.8592440
 148.7405430 134.1053780  38.3638340 149.2311550 134.4729770  39.7480480
 149.6130130 138.5044090  41.0231650 149.3158420 137.8989560  40.3439430
 150.5629950 138.5421400  40.9121010 147.8577050 131.5919740  42.6391480
 148.4091640 131.7015080  41.8644730 148.3720560 131.9657340  43.3546710
 148.7048560 138.2425780  47.6739450 147.8077090 138.4665750  47.9212850
 148.7301430 138.3660720  46.7250850 147.5319780 135.1139100  46.2496820
 147.3927550 135.9861900  46.6184220 146.6501140 134.7711910  46.1044760
 149.3300130 141.0560800  48.4581970 149.3015560 141.4603750  47.5910400
 149.1665100 140.1271160  48.2953570 145.8453060 133.7121510  36.3599090
 145.7250660 134.4383600  35.7480360 145.5353950 132.9424420  35.8827000
 143.4838430 136.8836650  42.1667730 143.5618850 137.0185420  41.2223450
 144.0980110 136.1752540  42.3595850 144.7286060 138.5836840  38.5773910
 144.3214140 138.7251430  37.7227510 145.6199070 138.2997000  38.3745120
 149.0007720 142.7982620  36.6896580 148.8250200 141.8818160  36.4764380
 148.1463460 143.1569910  36.9294380 143.5397950 137.9250820  44.7062190
 143.7028990 137.4556180  43.8881560 144.0050400 137.4174380  45.3711030
 148.3116720 127.0556580  39.7422760 147.8684870 127.8366120  39.4107280
 148.8701710 127.3786470  40.4493700 152.5986530 129.9225100  45.3458080
 152.1365900 130.1308120  46.1578020 152.1964640 129.1084450  45.0428750
 151.4275540 126.6767280  34.6228590 150.8029720 126.6727150  35.3481900
 151.3405660 125.8098240  34.2264560 150.3492620 127.6003910  41.6012360
 150.6464950 128.5066740  41.5204380 150.8978180 127.1122690  40.9871930
 148.1030940 132.1790150  37.4704010 147.8771860 131.9627320  38.3750630
 147.3223470 132.6118610  37.1249980 150.5430150 133.0775730  48.1364280
 150.4473750 132.1370460  47.9864680 151.3862130 133.2990800  47.7412350
 145.6740690 129.4889400  46.2898060 145.2804080 130.3364610  46.4970840
 144.9859090 128.8515770  46.4806700 152.2485740 129.5724370  49.3594800
 151.5584060 129.3796570  49.9940890 152.9918040 129.8559010  49.8919100
 142.9757740 127.4117860  40.3228140 142.6870790 127.9820720  41.0353120
 143.7203500 126.9322310  40.6859370 143.1627970 131.3537980  31.5330860
 143.0802640 132.2968740  31.6745850 142.8111030 131.2112890  30.6543210
 150.9626100 130.0877010  40.6001210 150.9662160 129.6466960  39.7505750
 151.8577220 130.4094340  40.7073030 146.8128480 129.9703500  39.5595420
 146.4728530 130.4478730  40.3162470 146.0505800 129.5168620  39.1996520
 151.0246250 131.0889090  33.5907970 151.1459070 131.0475570  34.5393790
 150.6394760 131.9513240  33.4354700 150.0367750 133.3990230  32.9891270
 149.4684650 132.9508480  32.3627180 150.7456750 133.7583010  32.4556420
 145.1136930 137.3002250  46.8658000 144.7291720 136.6595920  47.4640960
 145.4249120 138.0038370  47.4352730 151.2634070 134.1478790  42.3466620
 151.6304200 133.6737360  43.0927960 151.0739130 135.0220360  42.6874960
 144.1274560 128.8922480  38.4760090 143.8421480 128.5278150  39.3138710
 144.0653420 128.1602940  37.8623230 149.0533440 133.1887430  44.6650830
 148.7490510 134.0679410  44.8901190 150.0079900 133.2487220  44.7008270
 147.5815230 137.3948420  35.2617680 146.8077490 136.8546040  35.1016400
 148.3109860 136.8755030  34.9235440 147.6252630 137.0628800  38.8996490
 148.1431300 136.2597060  38.8453380 147.1736650 137.0007940  39.7413320
 152.5122130 138.3295080  34.1723790 152.8537830 139.0737310  33.6767110
 151.6834840 138.6426200  34.5348620 145.1097170 134.0290170  45.8122190
 144.7512110 134.6944020  46.3995530 144.8151730 133.1973720  46.1834810
 148.3110290 134.4874410  48.6961740 148.0110430 134.6331590  47.7989560
 149.0821530 133.9279700  48.6035130 151.4812820 138.4108610  36.9439710
 152.1683950 138.9577820  37.3247300 150.6945240 138.9549340  36.9789320
 143.6205220 134.0281430  32.4356790 144.4900070 134.3106230  32.7192710
 143.1295540 134.8417300  32.3205600 150.7840030 135.4154640  36.5565070
 151.2402810 136.2259890  36.7825260 150.4328240 135.0977780  37.3883560
 146.6851810 125.7592290  37.0287590 146.5566440 125.7510190  37.9772510
 145.8613830 126.0975380  36.6778600 143.9876470 143.2408810  33.0018420
 144.3474110 143.8398150  32.3475690 143.8468810 143.7868700  33.7753450
 143.6845740 127.5183410  46.4894290 142.9704260 127.7180330  47.0946900
 144.1040780 126.7422980  46.8609090 143.9718330 141.5063670  47.4760820
 144.0809450 140.5658410  47.3356210 143.3198890 141.7718420  46.8274550
 151.9630920 139.7779560  48.8758940 151.6427790 139.0588800  49.4204630
 151.2889280 140.4534630  48.9495000 150.0045090 140.6240010  33.8192090
 149.9955190 141.3569700  33.2036600 149.0843450 140.3771590  33.9119050
 145.6051730 135.8454900  34.5638850 144.9979680 136.5853800  34.5734150
 146.0801080 135.9354260  33.7377050 152.9904690 140.6868250  32.4817280
 153.0916670 140.4832240  31.5519260 152.0906430 140.4326530  32.6865060
 150.5130580 131.2448610  36.4641180 149.8046730 131.7134950  36.9054790
 150.7975060 130.5870620  37.0986370 152.1386510 132.6645310  44.4633710
 152.6371760 133.1391130  45.1285560 152.2809460 131.7408830  44.6703740
 151.6322800 143.2054570  37.1764950 151.8864300 143.1675960  36.2544320
 150.6835280 143.0787900  37.1693200 148.7165600 129.5533690  33.8391890
 149.5656130 129.9903840  33.7732080 148.3496870 129.8653950  34.6663950
 147.6157020 135.8066050  32.3127420 148.3820290 135.6947410  32.8752850
 147.6931710 135.1104020  31.6604190 146.3103780 133.2391120  32.9960310
 146.3907370 132.2918630  33.1077710 147.2023530 133.5698000  33.1020970
 147.1118490 143.3886510  40.0994850 147.8480970 142.8401970  40.3703420
 147.4959410 144.2542520  39.9600840 143.9963970 139.4560080  35.9736360
 143.0703750 139.6981220  35.9641770 144.4620400 140.2834340  35.8521110
 146.1176770 142.5732580  49.2880430 146.9189500 142.8944630  49.7015830
 145.6028590 142.2128160  50.0100340 150.2220800 142.5616820  31.9220420
 151.0149410 142.8505650  31.4702210 149.7025150 142.1308990  31.2432900
 143.8374580 135.0606040  48.2316480 144.3413600 134.4813320  48.8032710
 143.0982000 135.3446270  48.7692850 150.7398200 137.7820230  31.7862770
 150.6348840 137.1672580  32.5124150 150.5722420 137.2586120  31.0025780
 150.8912520 136.4677030  47.7652000 150.1258190 137.0362030  47.6806670
 151.0728480 136.1753240  46.8720230 145.8697660 133.2035630  49.1266550
 145.9103000 132.9049500  50.0351780 146.7243160 133.6043240  48.9674070
 149.6476050 135.8031180  34.2870060 150.0692470 135.6371050  35.1301450
 149.7726890 134.9931410  33.7925200 147.8103470 131.7827730  47.0941040
 147.2799930 131.2918680  46.4664380 148.4791540 132.2111930  46.5598970
 152.1603690 134.8268790  31.5347160 152.6809350 134.1117810  31.1688310
 152.8072090 135.4654660  31.8347670 148.2975770 128.7490100  47.1738330
 148.2032640 128.1310850  46.4489200 147.7173160 129.4756390  46.9468240
 151.0637210 127.3063340  44.2065720 150.6154510 127.3287600  43.3611270
 150.4302410 126.9082360  44.8036020 151.4696760 136.2017670  44.8278160
 151.8884870 137.0450400  44.6554400 150.5505390 136.3389710  44.5984940
 148.5434950 131.8764410  31.2328220 148.3424010 131.0131770  31.5941560
 148.3727000 131.7897770  30.2949820 149.3204180 142.5070680  45.9435890
 148.7825270 143.2316740  45.6244590 149.5738140 142.0301020  45.1533230
 150.5729430 130.4755200  47.4691820 151.1629120 130.1671050  48.1569640
 149.7549670 130.0034950  47.6251720 147.3417750 128.9765030  31.2206100
 147.6443650 128.9832460  30.3125250 148.0812340 128.6262890  31.7173760
 152.1766390 143.7421890  46.2022540 152.1025090 144.6457030  46.5094910
 151.2745230 143.4233790  46.1744610 150.5602680 127.9199650  32.2062300
 150.2124680 127.2423640  31.6264750 150.7615450 127.4589160  33.0205690
 146.3647880 138.2807450  32.0535900 146.8022750 138.8237120  32.7093480
 146.8495610 137.4554400  32.0632240 143.5793680 141.0696480  39.5056160
 143.9096690 140.2017540  39.2734800 144.0084680 141.2755000  40.3361120
 148.1755600 139.4005490  37.1658130 147.8751140 139.2770460  38.0662040
 148.0693090 138.5414080  36.7573860 144.0683890 141.9367070  42.2437790
 143.6314880 142.1167870  43.0761940 144.6361570 142.6941690  42.1019510
 143.9008320 134.4487300  38.6026670 143.2457160 134.1798940  37.9586370
 144.7386270 134.3391780  38.1528650 144.9384250 134.8339870  43.1430010
 145.3057290 134.7467270  44.0226030 144.3695070 134.0706420  43.0436870
 144.4900250 131.7448960  47.0488430 143.5956300 131.7115720  47.3882140
 145.0297800 131.9435750  47.8139680 143.1146400 131.6586230  34.5452000
 142.2110480 131.9216430  34.3703660 143.5987020 131.9297400  33.7651960
 145.6573610 130.7151770  32.4546380 146.3665310 130.2934990  31.9693660
 144.9413550 130.7827000  31.8229730 145.3047770 126.7691100  31.4949030
 146.0275900 127.3100040  31.8130250 145.5772290 126.4954520  30.6190570
 144.9939960 126.0197290  41.3971650 145.6416150 125.4694670  40.9566810
 145.4141800 126.2740440  42.2187460 144.7471960 126.1752960  44.1396970
 144.3986780 126.6316780  44.9055150 144.4159660 125.2810090  44.2219400
 146.3536330 139.3472560  48.3050160 146.3105960 138.9765470  49.1864620
 146.4847340 140.2850130  48.4451980 150.0542360 140.9032150  43.9059880
 149.8133720 141.1706710  43.0190400 150.9945000 141.0737880  43.9610740
 145.4192600 125.7029160  47.4147740 145.9675590 125.5217210  46.6513850
 145.4847910 124.9123270  47.9504050 146.1924360 142.2934810  45.4247940
 145.5984680 142.1619510  46.1637980 146.1848200 141.4572950  44.9590040
 145.8236590 139.6593190  44.3755980 145.0970650 139.0398480  44.3081930
 145.8845740 140.0533800  43.5054060 149.4281690 141.8738190  41.1605390
 149.9446710 141.2625550  40.6353650 150.0779070 142.3766970  41.6516400
 152.1677190 142.7646680  41.9874370 152.4555000 142.5100980  41.1107380
 152.6800410 142.2124040  42.5779940 144.1066590 142.9767580  37.5852740
 143.9388630 142.3438260  38.2834630 143.2401100 143.1826980  37.2346930
 144.7294610 126.8084360  35.0884600 145.4873970 126.9213240  34.5148630
 144.2671780 127.6453560  35.0428030 151.2708420 128.9223630  38.0786910
 150.4582930 128.5480520  37.7382790 151.7750060 128.1668710  38.3808100
 145.7129290 141.6700810  35.0302880 145.1876910 142.0508840  34.3264840
 145.6373870 142.2951580  35.7512590 147.1019760 127.3348410  33.6286570
 147.6312520 126.5478210  33.4994520 147.7348080 128.0139600  33.8622100
 149.2957600 127.0723550  36.6831960 148.6660340 126.3710860  36.8502090
 148.7562740 127.8327680  36.4665120 152.2349550 143.6862780  49.3542570
 153.1616860 143.4507050  49.3978530 152.2199980 144.5134780  48.8728600
 149.4213160 126.3507530  49.1184450 149.1397430 126.8541130  48.3545270
 149.8032860 125.5529280  48.7526580 148.3122260 143.6183190  33.9052130
 149.0441080 143.3342470  33.3576020 148.5715930 143.3796470  34.7951510
 147.4737050 139.7347920  33.9098460 146.8445930 140.2033020  34.4584290
 147.5884880 138.8897140  34.3444650 147.0770640 135.8752410  22.8184690
 146.2455520 135.6201120  23.2181200 147.6851620 135.9463180  23.5542610
 147.0571900 139.9092500  23.0142710 147.3599940 139.0190240  22.8352930
 147.8015490 140.4662720  22.7864960 145.4862590 130.8354300  16.6027080
 144.5979290 131.1770270  16.5006960 145.7703780 130.6354620  15.7107910
 143.4495600 133.4359950  22.4866780 144.0211710 132.6682150  22.4870420
 143.4497140 133.7348710  21.5773390 144.6920470 128.8444310  24.2735710
 144.5123310 127.9470060  24.5538470 144.2900550 129.3916180  24.9482660
 147.6623980 129.4185800  17.6365460 147.7690730 130.3189530  17.9434220
 146.7516340 129.3703770  17.3460110 145.3107140 131.3404810  22.8818050
 145.9917250 131.6043180  23.5005450 144.9955190 130.5005680  23.2156060
 149.5031710 132.3872170  21.9690640 150.0109930 132.8853140  22.6095660
 150.0344950 131.6107370  21.7930000 147.7867810 127.0270730  26.2354060
 147.7886250 127.5443120  25.4299960 146.9572120 126.5500910  26.2123990
 149.0370660 136.6665910  24.4127560 148.7040040 137.2934830  25.0548630
 149.2137340 137.1927790  23.6329230 147.4683140 128.7380690  24.2424510
 147.8099950 129.5822740  23.9478380 146.5298950 128.8864430  24.3589850
 148.2489760 138.6346710  26.2276740 148.8663760 139.3097790  25.9461190
 147.3882880 139.0434690  26.1364240 143.5422100 137.8246570  15.1083590
 143.1650080 138.3133670  14.3768490 143.7995170 138.4971850  15.7390120
 151.1511030 126.2262960  20.5669100 151.4586010 125.6709850  19.8504600
 150.2211730 126.3607420  20.3842090 149.1448430 134.8176530  20.0848950
 148.7405430 134.1053780  19.5894850 149.2311550 134.4729770  20.9736990
 149.6130130 138.5044090  22.2488160 149.3158420 137.8989560  21.5695940
 150.5629950 138.5421400  22.1377520 147.8577050 131.5919740  23.8647990
 148.4091640 131.7015080  23.0901240 148.3720560 131.9657340  24.5803220
 148.7048560 138.2425780  28.8995960 147.8077090 138.4665750  29.1469360
 148.7301430 138.3660720  27.9507360 147.5319780 135.1139100  27.4753330
 147.3927550 135.9861900  27.8440730 146.6501140 134.7711910  27.3301270
 149.3300130 141.0560800  29.6838480 149.3015560 141.4603750  28.8166910
 149.1665100 140.1271160  29.5210080 145.8453060 133.7121510  17.5855600
 145.7250660 134.4383600  16.9736870 145.5353950 132.9424420  17.1083510
 143.4838430 136.8836650  23.3924240 143.5618850 137.0185420  22.4479960
 144.0980110 136.1752540  23.5852360 144.7286060 138.5836840  19.8030420
 144.3214140 138.7251430  18.9484020 145.6199070 138.2997000  19.6001630
 149.0007720 142.7982620  17.9153090 148.8250200 141.8818160  17.7020890
 148.1463460 143.1569910  18.1550890 143.5397950 137.9250820  25.9318700
 143.7028990 137.4556180  25.1138070 144.0050400 137.4174380  26.5967540
 148.3116720 127.0556580  20.9679270 147.8684870 127.8366120  20.6363790
 148.8701710 127.3786470  21.6750210 152.5986530 129.9225100  26.5714590
 152.1365900 130.1308120  27.3834530 152.1964640 129.1084450  26.2685260
 151.4275540 126.6767280  15.8485100 150.8029720 126.6727150  16.5738410
 151.3405660 125.8098240  15.4521070 150.3492620 127.6003910  22.8268870
 150.6464950 128.5066740  22.7460890 150.8978180 127.1122690  22.2128440
 148.1030940 132.1790150  18.6960520 147.8771860 131.9627320  19.6007140
 147.3223470 132.6118610  18.3506490 150.5430150 133.0775730  29.3620790
 150.4473750 132.1370460  29.2121190 151.3862130 133.2990800  28.9668860
 145.6740690 129.4889400  27.5154570 145.2804080 130.3364610  27.7227350
 144.9859090 128.8515770  27.7063210 152.2485740 129.5724370  30.5851310
 151.5584060 129.3796570  31.2197400 152.9918040 129.8559010  31.1175610
 142.9757740 127.4117860  21.5484650 142.6870790 127.9820720  22.2609630
 143.7203500 126.9322310  21.9115880 143.1627970 131.3537980  12.7587370
 143.0802640 132.2968740  12.9002360 142.8111030 131.2112890  11.8799720
 150.9626100 130.0877010  21.8257720 150.9662160 129.6466960  20.9762260
 151.8577220 130.4094340  21.9329540 146.8128480 129.9703500  20.7851930
 146.4728530 130.4478730  21.5418980 146.0505800 129.5168620  20.4253030
 151.0246250 131.0889090  14.8164480 151.1459070 131.0475570  15.7650300
 150.6394760 131.9513240  14.6611210 150.0367750 133.3990230  14.2147780
 149.4684650 132.9508480  13.5883690 150.7456750 133.7583010  13.6812930
 145.1136930 137.3002250  28.0914510 144.7291720 136.6595920  28.6897470
 145.4249120 138.0038370  28.6609240 151.2634070 134.1478790  23.5723130
 151.6304200 133.6737360  24.3184470 151.0739130 135.0220360  23.9131470
 144.1274560 128.8922480  19.7016600 143.8421480 128.5278150  20.5395220
 144.0653420 128.1602940  19.0879740 149.0533440 133.1887430  25.8907340
 148.7490510 134.0679410  26.1157700 150.0079900 133.2487220  25.9264780
 147.5815230 137.3948420  16.4874190 146.8077490 136.8546040  16.3272910
 148.3109860 136.8755030  16.1491950 147.6252630 137.0628800  20.1253000
 148.1431300 136.2597060  20.0709890 147.1736650 137.0007940  20.9669830
 152.5122130 138.3295080  15.3980300 152.8537830 139.0737310  14.9023620
 151.6834840 138.6426200  15.7605130 145.1097170 134.0290170  27.0378700
 144.7512110 134.6944020  27.6252040 144.8151730 133.1973720  27.4091320
 148.3110290 134.4874410  29.9218250 148.0110430 134.6331590  29.0246070
 149.0821530 133.9279700  29.8291640 151.4812820 138.4108610  18.1696220
 152.1683950 138.9577820  18.5503810 150.6945240 138.9549340  18.2045830
 143.6205220 134.0281430  13.6613300 144.4900070 134.3106230  13.9449220
 143.1295540 134.8417300  13.5462110 150.7840030 135.4154640  17.7821580
 151.2402810 136.2259890  18.0081770 150.4328240 135.0977780  18.6140070
 146.6851810 125.7592290  18.2544100 146.5566440 125.7510190  19.2029020
 145.8613830 126.0975380  17.9035110 143.9876470 143.2408810  14.2274930
 144.3474110 143.8398150  13.5732200 143.8468810 143.7868700  15.0009960
 143.6845740 127.5183410  27.7150800 142.9704260 127.7180330  28.3203410
 144.1040780 126.7422980  28.0865600 143.9718330 141.5063670  28.7017330
 144.0809450 140.5658410  28.5612720 143.3198890 141.7718420  28.0531060
 151.9630920 139.7779560  30.1015450 151.6427790 139.0588800  30.6461140
 151.2889280 140.4534630  30.1751510 150.0045090 140.6240010  15.0448600
 149.9955190 141.3569700  14.4293110 149.0843450 140.3771590  15.1375560
 145.6051730 135.8454900  15.7895360 144.9979680 136.5853800  15.7990660
 146.0801080 135.9354260  14.9633560 152.9904690 140.6868250  13.7073790
 153.0916670 140.4832240  12.7775770 152.0906430 140.4326530  13.9121570
 150.5130580 131.2448610  17.6897690 149.8046730 131.7134950  18.1311300
 150.7975060 130.5870620  18.3242880 152.1386510 132.6645310  25.6890220
 152.6371760 133.1391130  26.3542070 152.2809460 131.7408830  25.8960250
 151.6322800 143.2054570  18.4021460 151.8864300 143.1675960  17.4800830
 150.6835280 143.0787900  18.3949710 148.7165600 129.5533690  15.0648400
 149.5656130 129.9903840  14.9988590 148.3496870 129.8653950  15.8920460
 147.6157020 135.8066050  13.5383930 148.3820290 135.6947410  14.1009360
 147.6931710 135.1104020  12.8860700 146.3103780 133.2391120  14.2216820
 146.3907370 132.2918630  14.3334220 147.2023530 133.5698000  14.3277480
 147.1118490 143.3886510  21.3251360 147.8480970 142.8401970  21.5959930
 147.4959410 144.2542520  21.1857350 143.9963970 139.4560080  17.1992870
 143.0703750 139.6981220  17.1898280 144.4620400 140.2834340  17.0777620
 146.1176770 142.5732580  30.5136940 146.9189500 142.8944630  30.9272340
 145.6028590 142.2128160  31.2356850 150.2220800 142.5616820  13.1476930
 151.0149410 142.8505650  12.6958720 149.7025150 142.1308990  12.4689410
 143.8374580 135.0606040  29.4572990 144.3413600 134.4813320  30.0289220
 143.0982000 135.3446270  29.9949360 150.7398200 137.7820230  13.0119280
 150.6348840 137.1672580  13.7380660 150.5722420 137.2586120  12.2282290
 150.8912520 136.4677030  28.9908510 150.1258190 137.0362030  28.9063180
 151.0728480 136.1753240  28.0976740 145.8697660 133.2035630  30.3523060
 145.9103000 132.9049500  31.2608290 146.7243160 133.6043240  30.1930580
 149.6476050 135.8031180  15.5126570 150.0692470 135.6371050  16.3557960
 149.7726890 134.9931410  15.0181710 147.8103470 131.7827730  28.3197550
 147.2799930 131.2918680  27.6920890 148.4791540 132.2111930  27.7855480
 152.1603690 134.8268790  12.7603670 152.6809350 134.1117810  12.3944820
 152.8072090 135.4654660  13.0604180 148.2975770 128.7490100  28.3994840
 148.2032640 128.1310850  27.6745710 147.7173160 129.4756390  28.1724750
 151.0637210 127.3063340  25.4322230 150.6154510 127.3287600  24.5867780
 150.4302410 126.9082360  26.0292530 151.4696760 136.2017670  26.0534670
 151.8884870 137.0450400  25.8810910 150.5505390 136.3389710  25.8241450
 148.5434950 131.8764410  12.4584730 148.3424010 131.0131770  12.8198070
 148.3727000 131.7897770  11.5206330 149.3204180 142.5070680  27.1692400
 148.7825270 143.2316740  26.8501100 149.5738140 142.0301020  26.3789740
 150.5729430 130.4755200  28.6948330 151.1629120 130.1671050  29.3826150
 149.7549670 130.0034950  28.8508230 147.3417750 128.9765030  12.4462610
 147.6443650 128.9832460  11.5381760 148.0812340 128.6262890  12.9430270
 152.1766390 143.7421890  27.4279050 152.1025090 144.6457030  27.7351420
 151.2745230 143.4233790  27.4001120 150.5602680 127.9199650  13.4318810
 150.2124680 127.2423640  12.8521260 150.7615450 127.4589160  14.2462200
 146.3647880 138.2807450  13.2792410 146.8022750 138.8237120  13.9349990
 146.8495610 137.4554400  13.2888750 143.5793680 141.0696480  20.7312670
 143.9096690 140.2017540  20.4991310 144.0084680 141.2755000  21.5617630
 148.1755600 139.4005490  18.3914640 147.8751140 139.2770460  19.2918550
 148.0693090 138.5414080  17.9830370 144.0683890 141.9367070  23.4694300
 143.6314880 142.1167870  24.3018450 144.6361570 142.6941690  23.3276020
 143.9008320 134.4487300  19.8283180 143.2457160 134.1798940  19.1842880
 144.7386270 134.3391780  19.3785160 144.9384250 134.8339870  24.3686520
 145.3057290 134.7467270  25.2482540 144.3695070 134.0706420  24.2693380
 144.4900250 131.7448960  28.2744940 143.5956300 131.7115720  28.6138650
 145.0297800 131.9435750  29.0396190 143.1146400 131.6586230  15.7708510
 142.2110480 131.9216430  15.5960170 143.5987020 131.9297400  14.9908470
 145.6573610 130.7151770  13.6802890 146.3665310 130.2934990  13.1950170
 144.9413550 130.7827000  13.0486240 145.3047770 126.7691100  12.7205540
 146.0275900 127.3100040  13.0386760 145.5772290 126.4954520  11.8447080
 144.9939960 126.0197290  22.6228160 145.6416150 125.4694670  22.1823320
 145.4141800 126.2740440  23.4443970 144.7471960 126.1752960  25.3653480
 144.3986780 126.6316780  26.1311660 144.4159660 125.2810090  25.4475910
 146.3536330 139.3472560  29.5306670 146.3105960 138.9765470  30.4121130
 146.4847340 140.2850130  29.6708490 150.0542360 140.9032150  25.1316390
 149.8133720 141.1706710  24.2446910 150.9945000 141.0737880  25.1867250
 145.4192600 125.7029160  28.6404250 145.9675590 125.5217210  27.8770360
 145.4847910 124.9123270  29.1760560 146.1924360 142.2934810  26.6504450
 145.5984680 142.1619510  27.3894490 146.1848200 141.4572950  26.1846550
 145.8236590 139.6593190  25.6012490 145.0970650 139.0398480  25.5338440
 145.8845740 140.0533800  24.7310570 149.4281690 141.8738190  22.3861900
 149.9446710 141.2625550  21.8610160 150.0779070 142.3766970  22.8772910
 152.1677190 142.7646680  23.2130880 152.4555000 142.5100980  22.3363890
 152.6800410 142.2124040  23.8036450 144.1066590 142.9767580  18.8109250
 143.9388630 142.3438260  19.5091140 143.2401100 143.1826980  18.4603440
 144.7294610 126.8084360  16.3141110 145.4873970 126.9213240  15.7405140
 144.2671780 127.6453560  16.2684540 151.2708420 128.9223630  19.3043420
 150.4582930 128.5480520  18.9639300 151.7750060 128.1668710  19.6064610
 145.7129290 141.6700810  16.2559390 145.1876910 142.0508840  15.5521350
 145.6373870 142.2951580  16.9769100 147.1019760 127.3348410  14.8543080
 147.6312520 126.5478210  14.7251030 147.7348080 128.0139600  15.0878610
 149.2957600 127.0723550  17.9088470 148.6660340 126.3710860  18.0758600
 148.7562740 127.8327680  17.6921630 152.2349550 143.6862780  30.5799080
 153.1616860 143.4507050  30.6235040 152.2199980 144.5134780  30.0985110
 149.4213160 126.3507530  30.3440960 149.1397430 126.8541130  29.5801780
 149.8032860 125.5529280  29.9783090 148.3122260 143.6183190  15.1308640
 149.0441080 143.3342470  14.5832530 148.5715930 143.3796470  16.0208020
 147.4737050 139.7347920  15.1354970 146.8445930 140.2033020  15.6840800
 147.5884880 138.8897140  15.5701160 147.0770640 135.8752410   4.0441200
 146.2455520 135.6201120   4.4437710 147.6851620 135.9463180   4.7799120
 147.0571900 139.9092500   4.2399220 147.3599940 139.0190240   4.0609440
 147.8015490 140.4662720   4.0121470 143.4495600 133.4359950   3.7123290
 144.0211710 132.6682150   3.7126930 143.4497140 133.7348710   2.8029900
 144.6920470 128.8444310   5.4992220 144.5123310 127.9470060   5.7794980
 144.2900550 129.3916180   6.1739170 145.3107140 131.3404810   4.1074560
 145.9917250 131.6043180   4.7261960 144.9955190 130.5005680   4.4412570
 149.5031710 132.3872170   3.1947150 150.0109930 132.8853140   3.8352170
 150.0344950 131.6107370   3.0186510 147.7867810 127.0270730   7.4610570
 147.7886250 127.5443120   6.6556470 146.9572120 126.5500910   7.4380500
 149.0370660 136.6665910   5.6384070 148.7040040 137.2934830   6.2805140
 149.2137340 137.1927790   4.8585740 147.4683140 128.7380690   5.4681020
 147.8099950 129.5822740   5.1734890 146.5298950 128.8864430   5.5846360
 148.2489760 138.6346710   7.4533250 148.8663760 139.3097790   7.1717700
 147.3882880 139.0434690   7.3620750 149.6130130 138.5044090   3.4744670
 149.3158420 137.8989560   2.7952450 150.5629950 138.5421400   3.3634030
 147.8577050 131.5919740   5.0904500 148.4091640 131.7015080   4.3157750
 148.3720560 131.9657340   5.8059730 148.7048560 138.2425780  10.1252470
 147.8077090 138.4665750  10.3725870 148.7301430 138.3660720   9.1763870
 147.5319780 135.1139100   8.7009840 147.3927550 135.9861900   9.0697240
 146.6501140 134.7711910   8.5557780 149.3300130 141.0560800  10.9094990
 149.3015560 141.4603750  10.0423420 149.1665100 140.1271160  10.7466590
 143.4838430 136.8836650   4.6180750 143.5618850 137.0185420   3.6736470
 144.0980110 136.1752540   4.8108870 143.5397950 137.9250820   7.1575210
 143.7028990 137.4556180   6.3394580 144.0050400 137.4174380   7.8224050
 148.3116720 127.0556580   2.1935780 147.8684870 127.8366120   1.8620300
 148.8701710 127.3786470   2.9006720 152.5986530 129.9225100   7.7971100
 152.1365900 130.1308120   8.6091040 152.1964640 129.1084450   7.4941770
 150.3492620 127.6003910   4.0525380 150.6464950 128.5066740   3.9717400
 150.8978180 127.1122690   3.4384950 150.5430150 133.0775730  10.5877300
 150.4473750 132.1370460  10.4377700 151.3862130 133.2990800  10.1925370
 145.6740690 129.4889400   8.7411080 145.2804080 130.3364610   8.9483860
 144.9859090 128.8515770   8.9319720 152.2485740 129.5724370  11.8107820
 151.5584060 129.3796570  12.4453910 152.9918040 129.8559010  12.3432120
 142.9757740 127.4117860   2.7741160 142.6870790 127.9820720   3.4866140
 143.7203500 126.9322310   3.1372390 150.9626100 130.0877010   3.0514230
 150.9662160 129.6466960   2.2018770 151.8577220 130.4094340   3.1586050
 146.8128480 129.9703500   2.0108440 146.4728530 130.4478730   2.7675490
 146.0505800 129.5168620   1.6509540 145.1136930 137.3002250   9.3171020
 144.7291720 136.6595920   9.9153980 145.4249120 138.0038370   9.8865750
 151.2634070 134.1478790   4.7979640 151.6304200 133.6737360   5.5440980
 151.0739130 135.0220360   5.1387980 149.0533440 133.1887430   7.1163850
 148.7490510 134.0679410   7.3414210 150.0079900 133.2487220   7.1521290
 145.1097170 134.0290170   8.2635210 144.7512110 134.6944020   8.8508550
 144.8151730 133.1973720   8.6347830 148.3110290 134.4874410  11.1474760
 148.0110430 134.6331590  10.2502580 149.0821530 133.9279700  11.0548150
 143.6845740 127.5183410   8.9407310 142.9704260 127.7180330   9.5459920
 144.1040780 126.7422980   9.3122110 143.9718330 141.5063670   9.9273840
 144.0809450 140.5658410   9.7869230 143.3198890 141.7718420   9.2787570
 151.9630920 139.7779560  11.3271960 151.6427790 139.0588800  11.8717650
 151.2889280 140.4534630  11.4008020 152.1386510 132.6645310   6.9146730
 152.6371760 133.1391130   7.5798580 152.2809460 131.7408830   7.1216760
 147.1118490 143.3886510   2.5507870 147.8480970 142.8401970   2.8216440
 147.4959410 144.2542520   2.4113860 146.1176770 142.5732580  11.7393450
 146.9189500 142.8944630  12.1528850 145.6028590 142.2128160  12.4613360
 143.8374580 135.0606040  10.6829500 144.3413600 134.4813320  11.2545730
 143.0982000 135.3446270  11.2205870 150.8912520 136.4677030  10.2165020
 150.1258190 137.0362030  10.1319690 151.0728480 136.1753240   9.3233250
 145.8697660 133.2035630  11.5779570 145.9103000 132.9049500  12.4864800
 146.7243160 133.6043240  11.4187090 147.8103470 131.7827730   9.5454060
 147.2799930 131.2918680   8.9177400 148.4791540 132.2111930   9.0111990
 148.2975770 128.7490100   9.6251350 148.2032640 128.1310850   8.9002220
 147.7173160 129.4756390   9.3981260 151.0637210 127.3063340   6.6578740
 150.6154510 127.3287600   5.8124290 150.4302410 126.9082360   7.2549040
 151.4696760 136.2017670   7.2791180 151.8884870 137.0450400   7.1067420
 150.5505390 136.3389710   7.0497960 149.3204180 142.5070680   8.3948910
 148.7825270 143.2316740   8.0757610 149.5738140 142.0301020   7.6046250
 150.5729430 130.4755200   9.9204840 151.1629120 130.1671050  10.6082660
 149.7549670 130.0034950  10.0764740 152.1766390 143.7421890   8.6535560
 152.1025090 144.6457030   8.9607930 151.2745230 143.4233790   8.6257630
 143.5793680 141.0696480   1.9569180 143.9096690 140.2017540   1.7247820
 144.0084680 141.2755000   2.7874140 144.0683890 141.9367070   4.6950810
 143.6314880 142.1167870   5.5274960 144.6361570 142.6941690   4.5532530
 144.9384250 134.8339870   5.5943030 145.3057290 134.7467270   6.4739050
 144.3695070 134.0706420   5.4949890 144.4900250 131.7448960   9.5001450
 143.5956300 131.7115720   9.8395160 145.0297800 131.9435750  10.2652700
 144.9939960 126.0197290   3.8484670 145.6416150 125.4694670   3.4079830
 145.4141800 126.2740440   4.6700480 144.7471960 126.1752960   6.5909990
 144.3986780 126.6316780   7.3568170 144.4159660 125.2810090   6.6732420
 146.3536330 139.3472560  10.7563180 146.3105960 138.9765470  11.6377640
 146.4847340 140.2850130  10.8965000 150.0542360 140.9032150   6.3572900
 149.8133720 141.1706710   5.4703420 150.9945000 141.0737880   6.4123760
 145.4192600 125.7029160   9.8660760 145.9675590 125.5217210   9.1026870
 145.4847910 124.9123270  10.4017070 146.1924360 142.2934810   7.8760960
 145.5984680 142.1619510   8.6151000 146.1848200 141.4572950   7.4103060
 145.8236590 139.6593190   6.8269000 145.0970650 139.0398480   6.7594950
 145.8845740 140.0533800   5.9567080 149.4281690 141.8738190   3.6118410
 149.9446710 141.2625550   3.0866670 150.0779070 142.3766970   4.1029420
 152.1677190 142.7646680   4.4387390 152.4555000 142.5100980   3.5620400
 152.6800410 142.2124040   5.0292960 152.2349550 143.6862780  11.8055590
 153.1616860 143.4507050  11.8491550 152.2199980 144.5134780  11.3241620
 149.4213160 126.3507530  11.5697470 149.1397430 126.8541130  10.8058290
 149.8032860 125.5529280  11.2039600 147.0571900 121.1349010 154.4347140
 147.3599940 120.2446750 154.2557360 147.8015490 121.6919230 154.2069390
 145.4862590 112.0610810 148.0231510 144.5979290 112.4026780 147.9211390
 145.7703780 111.8611130 147.1312340 143.4495600 114.6616460 153.9071210
 144.0211710 113.8938660 153.9074850 143.4497140 114.9605220 152.9977820
 147.6623980 110.6442310 149.0569890 147.7690730 111.5446040 149.3638650
 146.7516340 110.5960280 148.7664540 149.5031710 113.6128680 153.3895070
 150.0109930 114.1109650 154.0300090 150.0344950 112.8363880 153.2134430
 143.5422100 119.0503080 146.5288020 143.1650080 119.5390180 145.7972920
 143.7995170 119.7228360 147.1594550 151.1511030 107.4519470 151.9873530
 151.4586010 106.8966360 151.2709030 150.2211730 107.5863930 151.8046520
 149.1448430 116.0433040 151.5053380 148.7405430 115.3310290 151.0099280
 149.2311550 115.6986280 152.3941420 149.6130130 119.7300600 153.6692590
 149.3158420 119.1246070 152.9900370 150.5629950 119.7677910 153.5581950
 145.8453060 114.9378020 149.0060030 145.7250660 115.6640110 148.3941300
 145.5353950 114.1680930 148.5287940 144.7286060 119.8093350 151.2234850
 144.3214140 119.9507940 150.3688450 145.6199070 119.5253510 151.0206060
 149.0007720 124.0239130 149.3357520 148.8250200 123.1074670 149.1225320
 148.1463460 124.3826420 149.5755320 148.3116720 108.2813090 152.3883700
 147.8684870 109.0622630 152.0568220 148.8701710 108.6042980 153.0954640
 151.4275540 107.9023790 147.2689530 150.8029720 107.8983660 147.9942840
 151.3405660 107.0354750 146.8725500 150.3492620 108.8260420 154.2473300
 150.6464950 109.7323250 154.1665320 150.8978180 108.3379200 153.6332870
 148.1030940 113.4046660 150.1164950 147.8771860 113.1883830 151.0211570
 147.3223470 113.8375120 149.7710920 142.9757740 108.6374370 152.9689080
 142.6870790 109.2077230 153.6814060 143.7203500 108.1578820 153.3320310
 143.1627970 112.5794490 144.1791800 143.0802640 113.5225250 144.3206790
 142.8111030 112.4369400 143.3004150 150.9626100 111.3133520 153.2462150
 150.9662160 110.8723470 152.3966690 151.8577220 111.6350850 153.3533970
 146.8128480 111.1960010 152.2056360 146.4728530 111.6735240 152.9623410
 146.0505800 110.7425130 151.8457460 151.0246250 112.3145600 146.2368910
 151.1459070 112.2732080 147.1854730 150.6394760 113.1769750 146.0815640
 150.0367750 114.6246740 145.6352210 149.4684650 114.1764990 145.0088120
 150.7456750 114.9839520 145.1017360 144.1274560 110.1178990 151.1221030
 143.8421480 109.7534660 151.9599650 144.0653420 109.3859450 150.5084170
 147.5815230 118.6204930 147.9078620 146.8077490 118.0802550 147.7477340
 148.3109860 118.1011540 147.5696380 147.6252630 118.2885310 151.5457430
 148.1431300 117.4853570 151.4914320 147.1736650 118.2264450 152.3874260
 152.5122130 119.5551590 146.8184730 152.8537830 120.2993820 146.3228050
 151.6834840 119.8682710 147.1809560 151.4812820 119.6365120 149.5900650
 152.1683950 120.1834330 149.9708240 150.6945240 120.1805850 149.6250260
 143.6205220 115.2537940 145.0817730 144.4900070 115.5362740 145.3653650
 143.1295540 116.0673810 144.9666540 150.7840030 116.6411150 149.2026010
 151.2402810 117.4516400 149.4286200 150.4328240 116.3234290 150.0344500
 146.6851810 106.9848800 149.6748530 146.5566440 106.9766700 150.6233450
 145.8613830 107.3231890 149.3239540 143.9876470 124.4665320 145.6479360
 144.3474110 125.0654660 144.9936630 143.8468810 125.0125210 146.4214390
 150.0045090 121.8496520 146.4653030 149.9955190 122.5826210 145.8497540
 149.0843450 121.6028100 146.5579990 145.6051730 117.0711410 147.2099790
 144.9979680 117.8110310 147.2195090 146.0801080 117.1610770 146.3837990
 152.9904690 121.9124760 145.1278220 153.0916670 121.7088750 144.1980200
 152.0906430 121.6583040 145.3326000 150.5130580 112.4705120 149.1102120
 149.8046730 112.9391460 149.5515730 150.7975060 111.8127130 149.7447310
 151.6322800 124.4311080 149.8225890 151.8864300 124.3932470 148.9005260
 150.6835280 124.3044410 149.8154140 148.7165600 110.7790200 146.4852830
 149.5656130 111.2160350 146.4193020 148.3496870 111.0910460 147.3124890
 147.6157020 117.0322560 144.9588360 148.3820290 116.9203920 145.5213790
 147.6931710 116.3360530 144.3065130 146.3103780 114.4647630 145.6421250
 146.3907370 113.5175140 145.7538650 147.2023530 114.7954510 145.7481910
 147.1118490 124.6143020 152.7455790 147.8480970 124.0658480 153.0164360
 147.4959410 125.4799030 152.6061780 143.9963970 120.6816590 148.6197300
 143.0703750 120.9237730 148.6102710 144.4620400 121.5090850 148.4982050
 150.2220800 123.7873330 144.5681360 151.0149410 124.0762160 144.1163150
 149.7025150 123.3565500 143.8893840 150.7398200 119.0076740 144.4323710
 150.6348840 118.3929090 145.1585090 150.5722420 118.4842630 143.6486720
 149.6476050 117.0287690 146.9331000 150.0692470 116.8627560 147.7762390
 149.7726890 116.2187920 146.4386140 152.1603690 116.0525300 144.1808100
 152.6809350 115.3374320 143.8149250 152.8072090 116.6911170 144.4808610
 148.5434950 113.1020920 143.8789160 148.3424010 112.2388280 144.2402500
 148.3727000 113.0154280 142.9410760 147.3417750 110.2021540 143.8667040
 147.6443650 110.2088970 142.9586190 148.0812340 109.8519400 144.3634700
 150.5602680 109.1456160 144.8523240 150.2124680 108.4680150 144.2725690
 150.7615450 108.6845670 145.6666630 146.3647880 119.5063960 144.6996840
 146.8022750 120.0493630 145.3554420 146.8495610 118.6810910 144.7093180
 143.5793680 122.2952990 152.1517100 143.9096690 121.4274050 151.9195740
 144.0084680 122.5011510 152.9822060 148.1755600 120.6262000 149.8119070
 147.8751140 120.5026970 150.7122980 148.0693090 119.7670590 149.4034800
 143.9008320 115.6743810 151.2487610 143.2457160 115.4055450 150.6047310
 144.7386270 115.5648290 150.7989590 143.1146400 112.8842740 147.1912940
 142.2110480 113.1472940 147.0164600 143.5987020 113.1553910 146.4112900
 145.6573610 111.9408280 145.1007320 146.3665310 111.5191500 144.6154600
 144.9413550 112.0083510 144.4690670 145.3047770 107.9947610 144.1409970
 146.0275900 108.5356550 144.4591190 145.5772290 107.7211030 143.2651510
 149.4281690 123.0994700 153.8066330 149.9446710 122.4882060 153.2814590
 150.0779070 123.6023480 154.2977340 144.1066590 124.2024090 150.2313680
 143.9388630 123.5694770 150.9295570 143.2401100 124.4083490 149.8807870
 144.7294610 108.0340870 147.7345540 145.4873970 108.1469750 147.1609570
 144.2671780 108.8710070 147.6888970 151.2708420 110.1480140 150.7247850
 150.4582930 109.7737030 150.3843730 151.7750060 109.3925220 151.0269040
 145.7129290 122.8957320 147.6763820 145.1876910 123.2765350 146.9725780
 145.6373870 123.5208090 148.3973530 147.1019760 108.5604920 146.2747510
 147.6312520 107.7734720 146.1455460 147.7348080 109.2396110 146.5083040
 149.2957600 108.2980060 149.3292900 148.6660340 107.5967370 149.4963030
 148.7562740 109.0584190 149.1126060 148.3122260 124.8439700 146.5513070
 149.0441080 124.5598980 146.0036960 148.5715930 124.6052980 147.4412450
 147.4737050 120.9604430 146.5559400 146.8445930 121.4289530 147.1045230
 147.5884880 120.1153650 146.9905590 147.0770640 117.1008920 135.4645630
 146.2455520 116.8457630 135.8642140 147.6851620 117.1719690 136.2003550
 147.0571900 121.1349010 135.6603650 147.3599940 120.2446750 135.4813870
 147.8015490 121.6919230 135.4325900 145.4862590 112.0610810 129.2488020
 144.5979290 112.4026780 129.1467900 145.7703780 111.8611130 128.3568850
 143.4495600 114.6616460 135.1327720 144.0211710 113.8938660 135.1331360
 143.4497140 114.9605220 134.2234330 144.6920470 110.0700820 136.9196650
 144.5123310 109.1726570 137.1999410 144.2900550 110.6172690 137.5943600
 147.6623980 110.6442310 130.2826400 147.7690730 111.5446040 130.5895160
 146.7516340 110.5960280 129.9921050 145.3107140 112.5661320 135.5278990
 145.9917250 112.8299690 136.1466390 144.9955190 111.7262190 135.8617000
 149.5031710 113.6128680 134.6151580 150.0109930 114.1109650 135.2556600
 150.0344950 112.8363880 134.4390940 147.7867810 108.2527240 138.8815000
 147.7886250 108.7699630 138.0760900 146.9572120 107.7757420 138.8584930
 149.0370660 117.8922420 137.0588500 148.7040040 118.5191340 137.7009570
 149.2137340 118.4184300 136.2790170 147.4683140 109.9637200 136.8885450
 147.8099950 110.8079250 136.5939320 146.5298950 110.1120940 137.0050790
 148.2489760 119.8603220 138.8737680 148.8663760 120.5354300 138.5922130
 147.3882880 120.2691200 138.7825180 143.5422100 119.0503080 127.7544530
 143.1650080 119.5390180 127.0229430 143.7995170 119.7228360 128.3851060
 151.1511030 107.4519470 133.2130040 151.4586010 106.8966360 132.4965540
 150.2211730 107.5863930 133.0303030 149.1448430 116.0433040 132.7309890
 148.7405430 115.3310290 132.2355790 149.2311550 115.6986280 133.6197930
 149.6130130 119.7300600 134.8949100 149.3158420 119.1246070 134.2156880
 150.5629950 119.7677910 134.7838460 147.8577050 112.8176250 136.5108930
 148.4091640 112.9271590 135.7362180 148.3720560 113.1913850 137.2264160
 148.7048560 119.4682290 141.5456900 147.8077090 119.6922260 141.7930300
 148.7301430 119.5917230 140.5968300 147.5319780 116.3395610 140.1214270
 147.3927550 117.2118410 140.4901670 146.6501140 115.9968420 139.9762210
 149.3300130 122.2817310 142.3299420 149.3015560 122.6860260 141.4627850
 149.1665100 121.3527670 142.1671020 145.8453060 114.9378020 130.2316540
 145.7250660 115.6640110 129.6197810 145.5353950 114.1680930 129.7544450
 143.4838430 118.1093160 136.0385180 143.5618850 118.2441930 135.0940900
 144.0980110 117.4009050 136.2313300 144.7286060 119.8093350 132.4491360
 144.3214140 119.9507940 131.5944960 145.6199070 119.5253510 132.2462570
 149.0007720 124.0239130 130.5614030 148.8250200 123.1074670 130.3481830
 148.1463460 124.3826420 130.8011830 143.5397950 119.1507330 138.5779640
 143.7028990 118.6812690 137.7599010 144.0050400 118.6430890 139.2428480
 148.3116720 108.2813090 133.6140210 147.8684870 109.0622630 133.2824730
 148.8701710 108.6042980 134.3211150 152.5986530 111.1481610 139.2175530
 152.1365900 111.3564630 140.0295470 152.1964640 110.3340960 138.9146200
 151.4275540 107.9023790 128.4946040 150.8029720 107.8983660 129.2199350
 151.3405660 107.0354750 128.0982010 150.3492620 108.8260420 135.4729810
 150.6464950 109.7323250 135.3921830 150.8978180 108.3379200 134.8589380
 148.1030940 113.4046660 131.3421460 147.8771860 113.1883830 132.2468080
 147.3223470 113.8375120 130.9967430 150.5430150 114.3032240 142.0081730
 150.4473750 113.3626970 141.8582130 151.3862130 114.5247310 141.6129800
 145.6740690 110.7145910 140.1615510 145.2804080 111.5621120 140.3688290
 144.9859090 110.0772280 140.3524150 152.2485740 110.7980880 143.2312250
 151.5584060 110.6053080 143.8658340 152.9918040 111.0815520 143.7636550
 142.9757740 108.6374370 134.1945590 142.6870790 109.2077230 134.9070570
 143.7203500 108.1578820 134.5576820 143.1627970 112.5794490 125.4048310
 143.0802640 113.5225250 125.5463300 142.8111030 112.4369400 124.5260660
 150.9626100 111.3133520 134.4718660 150.9662160 110.8723470 133.6223200
 151.8577220 111.6350850 134.5790480 146.8128480 111.1960010 133.4312870
 146.4728530 111.6735240 134.1879920 146.0505800 110.7425130 133.0713970
 151.0246250 112.3145600 127.4625420 151.1459070 112.2732080 128.4111240
 150.6394760 113.1769750 127.3072150 150.0367750 114.6246740 126.8608720
 149.4684650 114.1764990 126.2344630 150.7456750 114.9839520 126.3273870
 145.1136930 118.5258760 140.7375450 144.7291720 117.8852430 141.3358410
 145.4249120 119.2294880 141.3070180 151.2634070 115.3735300 136.2184070
 151.6304200 114.8993870 136.9645410 151.0739130 116.2476870 136.5592410
 144.1274560 110.1178990 132.3477540 143.8421480 109.7534660 133.1856160
 144.0653420 109.3859450 131.7340680 149.0533440 114.4143940 138.5368280
 148.7490510 115.2935920 138.7618640 150.0079900 114.4743730 138.5725720
 147.5815230 118.6204930 129.1335130 146.8077490 118.0802550 128.9733850
 148.3109860 118.1011540 128.7952890 147.6252630 118.2885310 132.7713940
 148.1431300 117.4853570 132.7170830 147.1736650 118.2264450 133.6130770
 152.5122130 119.5551590 128.0441240 152.8537830 120.2993820 127.5484560
 151.6834840 119.8682710 128.4066070 145.1097170 115.2546680 139.6839640
 144.7512110 115.9200530 140.2712980 144.8151730 114.4230230 140.0552260
 148.3110290 115.7130920 142.5679190 148.0110430 115.8588100 141.6707010
 149.0821530 115.1536210 142.4752580 151.4812820 119.6365120 130.8157160
 152.1683950 120.1834330 131.1964750 150.6945240 120.1805850 130.8506770
 143.6205220 115.2537940 126.3074240 144.4900070 115.5362740 126.5910160
 143.1295540 116.0673810 126.1923050 150.7840030 116.6411150 130.4282520
 151.2402810 117.4516400 130.6542710 150.4328240 116.3234290 131.2601010
 146.6851810 106.9848800 130.9005040 146.5566440 106.9766700 131.8489960
 145.8613830 107.3231890 130.5496050 143.9876470 124.4665320 126.8735870
 144.3474110 125.0654660 126.2193140 143.8468810 125.0125210 127.6470900
 143.6845740 108.7439920 140.3611740 142.9704260 108.9436840 140.9664350
 144.1040780 107.9679490 140.7326540 143.9718330 122.7320180 141.3478270
 144.0809450 121.7914920 141.2073660 143.3198890 122.9974930 140.6992000
 151.9630920 121.0036070 142.7476390 151.6427790 120.2845310 143.2922080
 151.2889280 121.6791140 142.8212450 150.0045090 121.8496520 127.6909540
 149.9955190 122.5826210 127.0754050 149.0843450 121.6028100 127.7836500
 145.6051730 117.0711410 128.4356300 144.9979680 117.8110310 128.4451600
 146.0801080 117.1610770 127.6094500 152.9904690 121.9124760 126.3534730
 153.0916670 121.7088750 125.4236710 152.0906430 121.6583040 126.5582510
 150.5130580 112.4705120 130.3358630 149.8046730 112.9391460 130.7772240
 150.7975060 111.8127130 130.9703820 152.1386510 113.8901820 138.3351160
 152.6371760 114.3647640 139.0003010 152.2809460 112.9665340 138.5421190
 151.6322800 124.4311080 131.0482400 151.8864300 124.3932470 130.1261770
 150.6835280 124.3044410 131.0410650 148.7165600 110.7790200 127.7109340
 149.5656130 111.2160350 127.6449530 148.3496870 111.0910460 128.5381400
 147.6157020 117.0322560 126.1844870 148.3820290 116.9203920 126.7470300
 147.6931710 116.3360530 125.5321640 146.3103780 114.4647630 126.8677760
 146.3907370 113.5175140 126.9795160 147.2023530 114.7954510 126.9738420
 147.1118490 124.6143020 133.9712300 147.8480970 124.0658480 134.2420870
 147.4959410 125.4799030 133.8318290 143.9963970 120.6816590 129.8453810
 143.0703750 120.9237730 129.8359220 144.4620400 121.5090850 129.7238560
 146.1176770 123.7989090 143.1597880 146.9189500 124.1201140 143.5733280
 145.6028590 123.4384670 143.8817790 150.2220800 123.7873330 125.7937870
 151.0149410 124.0762160 125.3419660 149.7025150 123.3565500 125.1150350
 143.8374580 116.2862550 142.1033930 144.3413600 115.7069830 142.6750160
 143.0982000 116.5702780 142.6410300 150.7398200 119.0076740 125.6580220
 150.6348840 118.3929090 126.3841600 150.5722420 118.4842630 124.8743230
 150.8912520 117.6933540 141.6369450 150.1258190 118.2618540 141.5524120
 151.0728480 117.4009750 140.7437680 145.8697660 114.4292140 142.9984000
 145.9103000 114.1306010 143.9069230 146.7243160 114.8299750 142.8391520
 149.6476050 117.0287690 128.1587510 150.0692470 116.8627560 129.0018900
 149.7726890 116.2187920 127.6642650 147.8103470 113.0084240 140.9658490
 147.2799930 112.5175190 140.3381830 148.4791540 113.4368440 140.4316420
 152.1603690 116.0525300 125.4064610 152.6809350 115.3374320 125.0405760
 152.8072090 116.6911170 125.7065120 148.2975770 109.9746610 141.0455780
 148.2032640 109.3567360 140.3206650 147.7173160 110.7012900 140.8185690
 151.0637210 108.5319850 138.0783170 150.6154510 108.5544110 137.2328720
 150.4302410 108.1338870 138.6753470 151.4696760 117.4274180 138.6995610
 151.8884870 118.2706910 138.5271850 150.5505390 117.5646220 138.4702390
 148.5434950 113.1020920 125.1045670 148.3424010 112.2388280 125.4659010
 148.3727000 113.0154280 124.1667270 149.3204180 123.7327190 139.8153340
 148.7825270 124.4573250 139.4962040 149.5738140 123.2557530 139.0250680
 150.5729430 111.7011710 141.3409270 151.1629120 111.3927560 142.0287090
 149.7549670 111.2291460 141.4969170 147.3417750 110.2021540 125.0923550
 147.6443650 110.2088970 124.1842700 148.0812340 109.8519400 125.5891210
 152.1766390 124.9678400 140.0739990 152.1025090 125.8713540 140.3812360
 151.2745230 124.6490300 140.0462060 150.5602680 109.1456160 126.0779750
 150.2124680 108.4680150 125.4982200 150.7615450 108.6845670 126.8923140
 146.3647880 119.5063960 125.9253350 146.8022750 120.0493630 126.5810930
 146.8495610 118.6810910 125.9349690 143.5793680 122.2952990 133.3773610
 143.9096690 121.4274050 133.1452250 144.0084680 122.5011510 134.2078570
 148.1755600 120.6262000 131.0375580 147.8751140 120.5026970 131.9379490
 148.0693090 119.7670590 130.6291310 144.0683890 123.1623580 136.1155240
 143.6314880 123.3424380 136.9479390 144.6361570 123.9198200 135.9736960
 143.9008320 115.6743810 132.4744120 143.2457160 115.4055450 131.8303820
 144.7386270 115.5648290 132.0246100 144.9384250 116.0596380 137.0147460
 145.3057290 115.9723780 137.8943480 144.3695070 115.2962930 136.9154320
 144.4900250 112.9705470 140.9205880 143.5956300 112.9372230 141.2599590
 145.0297800 113.1692260 141.6857130 143.1146400 112.8842740 128.4169450
 142.2110480 113.1472940 128.2421110 143.5987020 113.1553910 127.6369410
 145.6573610 111.9408280 126.3263830 146.3665310 111.5191500 125.8411110
 144.9413550 112.0083510 125.6947180 145.3047770 107.9947610 125.3666480
 146.0275900 108.5356550 125.6847700 145.5772290 107.7211030 124.4908020
 144.9939960 107.2453800 135.2689100 145.6416150 106.6951180 134.8284260
 145.4141800 107.4996950 136.0904910 144.7471960 107.4009470 138.0114420
 144.3986780 107.8573290 138.7772600 144.4159660 106.5066600 138.0936850
 146.3536330 120.5729070 142.1767610 146.3105960 120.2021980 143.0582070
 146.4847340 121.5106640 142.3169430 150.0542360 122.1288660 137.7777330
 149.8133720 122.3963220 136.8907850 150.9945000 122.2994390 137.8328190
 145.4192600 106.9285670 141.2865190 145.9675590 106.7473720 140.5231300
 145.4847910 106.1379780 141.8221500 146.1924360 123.5191320 139.2965390
 145.5984680 123.3876020 140.0355430 146.1848200 122.6829460 138.8307490
 145.8236590 120.8849700 138.2473430 145.0970650 120.2654990 138.1799380
 145.8845740 121.2790310 137.3771510 149.4281690 123.0994700 135.0322840
 149.9446710 122.4882060 134.5071100 150.0779070 123.6023480 135.5233850
 152.1677190 123.9903190 135.8591820 152.4555000 123.7357490 134.9824830
 152.6800410 123.4380550 136.4497390 144.1066590 124.2024090 131.4570190
 143.9388630 123.5694770 132.1552080 143.2401100 124.4083490 131.1064380
 144.7294610 108.0340870 128.9602050 145.4873970 108.1469750 128.3866080
 144.2671780 108.8710070 128.9145480 151.2708420 110.1480140 131.9504360
 150.4582930 109.7737030 131.6100240 151.7750060 109.3925220 132.2525550
 145.7129290 122.8957320 128.9020330 145.1876910 123.2765350 128.1982290
 145.6373870 123.5208090 129.6230040 147.1019760 108.5604920 127.5004020
 147.6312520 107.7734720 127.3711970 147.7348080 109.2396110 127.7339550
 149.2957600 108.2980060 130.5549410 148.6660340 107.5967370 130.7219540
 148.7562740 109.0584190 130.3382570 152.2349550 124.9119290 143.2260020
 153.1616860 124.6763560 143.2695980 152.2199980 125.7391290 142.7446050
 149.4213160 107.5764040 142.9901900 149.1397430 108.0797640 142.2262720
 149.8032860 106.7785790 142.6244030 148.3122260 124.8439700 127.7769580
 149.0441080 124.5598980 127.2293470 148.5715930 124.6052980 128.6668960
 147.4737050 120.9604430 127.7815910 146.8445930 121.4289530 128.3301740
 147.5884880 120.1153650 128.2162100 147.0770640 117.1008920 116.6902140
 146.2455520 116.8457630 117.0898650 147.6851620 117.1719690 117.4260060
 147.0571900 121.1349010 116.8860160 147.3599940 120.2446750 116.7070380
 147.8015490 121.6919230 116.6582410 145.4862590 112.0610810 110.4744530
 144.5979290 112.4026780 110.3724410 145.7703780 111.8611130 109.5825360
 143.4495600 114.6616460 116.3584230 144.0211710 113.8938660 116.3587870
 143.4497140 114.9605220 115.4490840 144.6920470 110.0700820 118.1453160
 144.5123310 109.1726570 118.4255920 144.2900550 110.6172690 118.8200110
 147.6623980 110.6442310 111.5082910 147.7690730 111.5446040 111.8151670
 146.7516340 110.5960280 111.2177560 145.3107140 112.5661320 116.7535500
 145.9917250 112.8299690 117.3722900 144.9955190 111.7262190 117.0873510
 149.5031710 113.6128680 115.8408090 150.0109930 114.1109650 116.4813110
 150.0344950 112.8363880 115.6647450 147.7867810 108.2527240 120.1071510
 147.7886250 108.7699630 119.3017410 146.9572120 107.7757420 120.0841440
 149.0370660 117.8922420 118.2845010 148.7040040 118.5191340 118.9266080
 149.2137340 118.4184300 117.5046680 147.4683140 109.9637200 118.1141960
 147.8099950 110.8079250 117.8195830 146.5298950 110.1120940 118.2307300
 148.2489760 119.8603220 120.0994190 148.8663760 120.5354300 119.8178640
 147.3882880 120.2691200 120.0081690 143.5422100 119.0503080 108.9801040
 143.1650080 119.5390180 108.2485940 143.7995170 119.7228360 109.6107570
 151.1511030 107.4519470 114.4386550 151.4586010 106.8966360 113.7222050
 150.2211730 107.5863930 114.2559540 149.1448430 116.0433040 113.9566400
 148.7405430 115.3310290 113.4612300 149.2311550 115.6986280 114.8454440
 149.6130130 119.7300600 116.1205610 149.3158420 119.1246070 115.4413390
 150.5629950 119.7677910 116.0094970 147.8577050 112.8176250 117.7365440
 148.4091640 112.9271590 116.9618690 148.3720560 113.1913850 118.4520670
 148.7048560 119.4682290 122.7713410 147.8077090 119.6922260 123.0186810
 148.7301430 119.5917230 121.8224810 147.5319780 116.3395610 121.3470780
 147.3927550 117.2118410 121.7158180 146.6501140 115.9968420 121.2018720
 149.3300130 122.2817310 123.5555930 149.3015560 122.6860260 122.6884360
 149.1665100 121.3527670 123.3927530 145.8453060 114.9378020 111.4573050
 145.7250660 115.6640110 110.8454320 145.5353950 114.1680930 110.9800960
 143.4838430 118.1093160 117.2641690 143.5618850 118.2441930 116.3197410
 144.0980110 117.4009050 117.4569810 144.7286060 119.8093350 113.6747870
 144.3214140 119.9507940 112.8201470 145.6199070 119.5253510 113.4719080
 149.0007720 124.0239130 111.7870540 148.8250200 123.1074670 111.5738340
 148.1463460 124.3826420 112.0268340 143.5397950 119.1507330 119.8036150
 143.7028990 118.6812690 118.9855520 144.0050400 118.6430890 120.4684990
 148.3116720 108.2813090 114.8396720 147.8684870 109.0622630 114.5081240
 148.8701710 108.6042980 115.5467660 152.5986530 111.1481610 120.4432040
 152.1365900 111.3564630 121.2551980 152.1964640 110.3340960 120.1402710
 151.4275540 107.9023790 109.7202550 150.8029720 107.8983660 110.4455860
 151.3405660 107.0354750 109.3238520 150.3492620 108.8260420 116.6986320
 150.6464950 109.7323250 116.6178340 150.8978180 108.3379200 116.0845890
 148.1030940 113.4046660 112.5677970 147.8771860 113.1883830 113.4724590
 147.3223470 113.8375120 112.2223940 150.5430150 114.3032240 123.2338240
 150.4473750 113.3626970 123.0838640 151.3862130 114.5247310 122.8386310
 145.6740690 110.7145910 121.3872020 145.2804080 111.5621120 121.5944800
 144.9859090 110.0772280 121.5780660 152.2485740 110.7980880 124.4568760
 151.5584060 110.6053080 125.0914850 152.9918040 111.0815520 124.9893060
 142.9757740 108.6374370 115.4202100 142.6870790 109.2077230 116.1327080
 143.7203500 108.1578820 115.7833330 143.1627970 112.5794490 106.6304820
 143.0802640 113.5225250 106.7719810 142.8111030 112.4369400 105.7517170
 150.9626100 111.3133520 115.6975170 150.9662160 110.8723470 114.8479710
 151.8577220 111.6350850 115.8046990 146.8128480 111.1960010 114.6569380
 146.4728530 111.6735240 115.4136430 146.0505800 110.7425130 114.2970480
 151.0246250 112.3145600 108.6881930 151.1459070 112.2732080 109.6367750
 150.6394760 113.1769750 108.5328660 150.0367750 114.6246740 108.0865230
 149.4684650 114.1764990 107.4601140 150.7456750 114.9839520 107.5530380
 145.1136930 118.5258760 121.9631960 144.7291720 117.8852430 122.5614920
 145.4249120 119.2294880 122.5326690 151.2634070 115.3735300 117.4440580
 151.6304200 114.8993870 118.1901920 151.0739130 116.2476870 117.7848920
 144.1274560 110.1178990 113.5734050 143.8421480 109.7534660 114.4112670
 144.0653420 109.3859450 112.9597190 149.0533440 114.4143940 119.7624790
 148.7490510 115.2935920 119.9875150 150.0079900 114.4743730 119.7982230
 147.5815230 118.6204930 110.3591640 146.8077490 118.0802550 110.1990360
 148.3109860 118.1011540 110.0209400 147.6252630 118.2885310 113.9970450
 148.1431300 117.4853570 113.9427340 147.1736650 118.2264450 114.8387280
 152.5122130 119.5551590 109.2697750 152.8537830 120.2993820 108.7741070
 151.6834840 119.8682710 109.6322580 145.1097170 115.2546680 120.9096150
 144.7512110 115.9200530 121.4969490 144.8151730 114.4230230 121.2808770
 148.3110290 115.7130920 123.7935700 148.0110430 115.8588100 122.8963520
 149.0821530 115.1536210 123.7009090 151.4812820 119.6365120 112.0413670
 152.1683950 120.1834330 112.4221260 150.6945240 120.1805850 112.0763280
 143.6205220 115.2537940 107.5330750 144.4900070 115.5362740 107.8166670
 143.1295540 116.0673810 107.4179560 150.7840030 116.6411150 111.6539030
 151.2402810 117.4516400 111.8799220 150.4328240 116.3234290 112.4857520
 146.6851810 106.9848800 112.1261550 146.5566440 106.9766700 113.0746470
 145.8613830 107.3231890 111.7752560 143.9876470 124.4665320 108.0992380
 144.3474110 125.0654660 107.4449650 143.8468810 125.0125210 108.8727410
 143.6845740 108.7439920 121.5868250 142.9704260 108.9436840 122.1920860
 144.1040780 107.9679490 121.9583050 143.9718330 122.7320180 122.5734780
 144.0809450 121.7914920 122.4330170 143.3198890 122.9974930 121.9248510
 151.9630920 121.0036070 123.9732900 151.6427790 120.2845310 124.5178590
 151.2889280 121.6791140 124.0468960 150.0045090 121.8496520 108.9166050
 149.9955190 122.5826210 108.3010560 149.0843450 121.6028100 109.0093010
 145.6051730 117.0711410 109.6612810 144.9979680 117.8110310 109.6708110
 146.0801080 117.1610770 108.8351010 152.9904690 121.9124760 107.5791240
 153.0916670 121.7088750 106.6493220 152.0906430 121.6583040 107.7839020
 150.5130580 112.4705120 111.5615140 149.8046730 112.9391460 112.0028750
 150.7975060 111.8127130 112.1960330 152.1386510 113.8901820 119.5607670
 152.6371760 114.3647640 120.2259520 152.2809460 112.9665340 119.7677700
 151.6322800 124.4311080 112.2738910 151.8864300 124.3932470 111.3518280
 150.6835280 124.3044410 112.2667160 148.7165600 110.7790200 108.9365850
 149.5656130 111.2160350 108.8706040 148.3496870 111.0910460 109.7637910
 147.6157020 117.0322560 107.4101380 148.3820290 116.9203920 107.9726810
 147.6931710 116.3360530 106.7578150 146.3103780 114.4647630 108.0934270
 146.3907370 113.5175140 108.2051670 147.2023530 114.7954510 108.1994930
 147.1118490 124.6143020 115.1968810 147.8480970 124.0658480 115.4677380
 147.4959410 125.4799030 115.0574800 143.9963970 120.6816590 111.0710320
 143.0703750 120.9237730 111.0615730 144.4620400 121.5090850 110.9495070
 146.1176770 123.7989090 124.3854390 146.9189500 124.1201140 124.7989790
 145.6028590 123.4384670 125.1074300 150.2220800 123.7873330 107.0194380
 151.0149410 124.0762160 106.5676170 149.7025150 123.3565500 106.3406860
 143.8374580 116.2862550 123.3290440 144.3413600 115.7069830 123.9006670
 143.0982000 116.5702780 123.8666810 150.7398200 119.0076740 106.8836730
 150.6348840 118.3929090 107.6098110 150.5722420 118.4842630 106.0999740
 150.8912520 117.6933540 122.8625960 150.1258190 118.2618540 122.7780630
 151.0728480 117.4009750 121.9694190 145.8697660 114.4292140 124.2240510
 145.9103000 114.1306010 125.1325740 146.7243160 114.8299750 124.0648030
 149.6476050 117.0287690 109.3844020 150.0692470 116.8627560 110.2275410
 149.7726890 116.2187920 108.8899160 147.8103470 113.0084240 122.1915000
 147.2799930 112.5175190 121.5638340 148.4791540 113.4368440 121.6572930
 152.1603690 116.0525300 106.6321120 152.6809350 115.3374320 106.2662270
 152.8072090 116.6911170 106.9321630 148.2975770 109.9746610 122.2712290
 148.2032640 109.3567360 121.5463160 147.7173160 110.7012900 122.0442200
 151.0637210 108.5319850 119.3039680 150.6154510 108.5544110 118.4585230
 150.4302410 108.1338870 119.9009980 151.4696760 117.4274180 119.9252120
 151.8884870 118.2706910 119.7528360 150.5505390 117.5646220 119.6958900
 148.5434950 113.1020920 106.3302180 148.3424010 112.2388280 106.6915520
 148.3727000 113.0154280 105.3923780 149.3204180 123.7327190 121.0409850
 148.7825270 124.4573250 120.7218550 149.5738140 123.2557530 120.2507190
 150.5729430 111.7011710 122.5665780 151.1629120 111.3927560 123.2543600
 149.7549670 111.2291460 122.7225680 147.3417750 110.2021540 106.3180060
 147.6443650 110.2088970 105.4099210 148.0812340 109.8519400 106.8147720
 152.1766390 124.9678400 121.2996500 152.1025090 125.8713540 121.6068870
 151.2745230 124.6490300 121.2718570 150.5602680 109.1456160 107.3036260
 150.2124680 108.4680150 106.7238710 150.7615450 108.6845670 108.1179650
 146.3647880 119.5063960 107.1509860 146.8022750 120.0493630 107.8067440
 146.8495610 118.6810910 107.1606200 143.5793680 122.2952990 114.6030120
 143.9096690 121.4274050 114.3708760 144.0084680 122.5011510 115.4335080
 148.1755600 120.6262000 112.2632090 147.8751140 120.5026970 113.1636000
 148.0693090 119.7670590 111.8547820 144.0683890 123.1623580 117.3411750
 143.6314880 123.3424380 118.1735900 144.6361570 123.9198200 117.1993470
 143.9008320 115.6743810 113.7000630 143.2457160 115.4055450 113.0560330
 144.7386270 115.5648290 113.2502610 144.9384250 116.0596380 118.2403970
 145.3057290 115.9723780 119.1199990 144.3695070 115.2962930 118.1410830
 144.4900250 112.9705470 122.1462390 143.5956300 112.9372230 122.4856100
 145.0297800 113.1692260 122.9113640 143.1146400 112.8842740 109.6425960
 142.2110480 113.1472940 109.4677620 143.5987020 113.1553910 108.8625920
 145.6573610 111.9408280 107.5520340 146.3665310 111.5191500 107.0667620
 144.9413550 112.0083510 106.9203690 145.3047770 107.9947610 106.5922990
 146.0275900 108.5356550 106.9104210 145.5772290 107.7211030 105.7164530
 144.9939960 107.2453800 116.4945610 145.6416150 106.6951180 116.0540770
 145.4141800 107.4996950 117.3161420 144.7471960 107.4009470 119.2370930
 144.3986780 107.8573290 120.0029110 144.4159660 106.5066600 119.3193360
 146.3536330 120.5729070 123.4024120 146.3105960 120.2021980 124.2838580
 146.4847340 121.5106640 123.5425940 150.0542360 122.1288660 119.0033840
 149.8133720 122.3963220 118.1164360 150.9945000 122.2994390 119.0584700
 145.4192600 106.9285670 122.5121700 145.9675590 106.7473720 121.7487810
 145.4847910 106.1379780 123.0478010 146.1924360 123.5191320 120.5221900
 145.5984680 123.3876020 121.2611940 146.1848200 122.6829460 120.0564000
 145.8236590 120.8849700 119.4729940 145.0970650 120.2654990 119.4055890
 145.8845740 121.2790310 118.6028020 149.4281690 123.0994700 116.2579350
 149.9446710 122.4882060 115.7327610 150.0779070 123.6023480 116.7490360
 152.1677190 123.9903190 117.0848330 152.4555000 123.7357490 116.2081340
 152.6800410 123.4380550 117.6753900 144.1066590 124.2024090 112.6826700
 143.9388630 123.5694770 113.3808590 143.2401100 124.4083490 112.3320890
 144.7294610 108.0340870 110.1858560 145.4873970 108.1469750 109.6122590
 144.2671780 108.8710070 110.1401990 151.2708420 110.1480140 113.1760870
 150.4582930 109.7737030 112.8356750 151.7750060 109.3925220 113.4782060
 145.7129290 122.8957320 110.1276840 145.1876910 123.2765350 109.4238800
 145.6373870 123.5208090 110.8486550 147.1019760 108.5604920 108.7260530
 147.6312520 107.7734720 108.5968480 147.7348080 109.2396110 108.9596060
 149.2957600 108.2980060 111.7805920 148.6660340 107.5967370 111.9476050
 148.7562740 109.0584190 111.5639080 152.2349550 124.9119290 124.4516530
 153.1616860 124.6763560 124.4952490 152.2199980 125.7391290 123.9702560
 149.4213160 107.5764040 124.2158410 149.1397430 108.0797640 123.4519230
 149.8032860 106.7785790 123.8500540 148.3122260 124.8439700 109.0026090
 149.0441080 124.5598980 108.4549980 148.5715930 124.6052980 109.8925470
 147.4737050 120.9604430 109.0072420 146.8445930 121.4289530 109.5558250
 147.5884880 120.1153650 109.4418610 147.0770640 117.1008920  97.9158650
 146.2455520 116.8457630  98.3155160 147.6851620 117.1719690  98.6516570
 147.0571900 121.1349010  98.1116670 147.3599940 120.2446750  97.9326890
 147.8015490 121.6919230  97.8838920 145.4862590 112.0610810  91.7001040
 144.5979290 112.4026780  91.5980920 145.7703780 111.8611130  90.8081870
 143.4495600 114.6616460  97.5840740 144.0211710 113.8938660  97.5844380
 143.4497140 114.9605220  96.6747350 144.6920470 110.0700820  99.3709670
 144.5123310 109.1726570  99.6512430 144.2900550 110.6172690 100.0456620
 147.6623980 110.6442310  92.7339420 147.7690730 111.5446040  93.0408180
 146.7516340 110.5960280  92.4434070 145.3107140 112.5661320  97.9792010
 145.9917250 112.8299690  98.5979410 144.9955190 111.7262190  98.3130020
 149.5031710 113.6128680  97.0664600 150.0109930 114.1109650  97.7069620
 150.0344950 112.8363880  96.8903960 147.7867810 108.2527240 101.3328020
 147.7886250 108.7699630 100.5273920 146.9572120 107.7757420 101.3097950
 149.0370660 117.8922420  99.5101520 148.7040040 118.5191340 100.1522590
 149.2137340 118.4184300  98.7303190 147.4683140 109.9637200  99.3398470
 147.8099950 110.8079250  99.0452340 146.5298950 110.1120940  99.4563810
 148.2489760 119.8603220 101.3250700 148.8663760 120.5354300 101.0435150
 147.3882880 120.2691200 101.2338200 143.5422100 119.0503080  90.2057550
 143.1650080 119.5390180  89.4742450 143.7995170 119.7228360  90.8364080
 151.1511030 107.4519470  95.6643060 151.4586010 106.8966360  94.9478560
 150.2211730 107.5863930  95.4816050 149.1448430 116.0433040  95.1822910
 148.7405430 115.3310290  94.6868810 149.2311550 115.6986280  96.0710950
 149.6130130 119.7300600  97.3462120 149.3158420 119.1246070  96.6669900
 150.5629950 119.7677910  97.2351480 147.8577050 112.8176250  98.9621950
 148.4091640 112.9271590  98.1875200 148.3720560 113.1913850  99.6777180
 148.7048560 119.4682290 103.9969920 147.8077090 119.6922260 104.2443320
 148.7301430 119.5917230 103.0481320 147.5319780 116.3395610 102.5727290
 147.3927550 117.2118410 102.9414690 146.6501140 115.9968420 102.4275230
 149.3300130 122.2817310 104.7812440 149.3015560 122.6860260 103.9140870
 149.1665100 121.3527670 104.6184040 145.8453060 114.9378020  92.6829560
 145.7250660 115.6640110  92.0710830 145.5353950 114.1680930  92.2057470
 143.4838430 118.1093160  98.4898200 143.5618850 118.2441930  97.5453920
 144.0980110 117.4009050  98.6826320 144.7286060 119.8093350  94.9004380
 144.3214140 119.9507940  94.0457980 145.6199070 119.5253510  94.6975590
 149.0007720 124.0239130  93.0127050 148.8250200 123.1074670  92.7994850
 148.1463460 124.3826420  93.2524850 143.5397950 119.1507330 101.0292660
 143.7028990 118.6812690 100.2112030 144.0050400 118.6430890 101.6941500
 148.3116720 108.2813090  96.0653230 147.8684870 109.0622630  95.7337750
 148.8701710 108.6042980  96.7724170 152.5986530 111.1481610 101.6688550
 152.1365900 111.3564630 102.4808490 152.1964640 110.3340960 101.3659220
 151.4275540 107.9023790  90.9459060 150.8029720 107.8983660  91.6712370
 151.3405660 107.0354750  90.5495030 150.3492620 108.8260420  97.9242830
 150.6464950 109.7323250  97.8434850 150.8978180 108.3379200  97.3102400
 148.1030940 113.4046660  93.7934480 147.8771860 113.1883830  94.6981100
 147.3223470 113.8375120  93.4480450 150.5430150 114.3032240 104.4594750
 150.4473750 113.3626970 104.3095150 151.3862130 114.5247310 104.0642820
 145.6740690 110.7145910 102.6128530 145.2804080 111.5621120 102.8201310
 144.9859090 110.0772280 102.8037170 152.2485740 110.7980880 105.6825270
 151.5584060 110.6053080 106.3171360 152.9918040 111.0815520 106.2149570
 142.9757740 108.6374370  96.6458610 142.6870790 109.2077230  97.3583590
 143.7203500 108.1578820  97.0089840 143.1627970 112.5794490  87.8561330
 143.0802640 113.5225250  87.9976320 142.8111030 112.4369400  86.9773680
 150.9626100 111.3133520  96.9231680 150.9662160 110.8723470  96.0736220
 151.8577220 111.6350850  97.0303500 146.8128480 111.1960010  95.8825890
 146.4728530 111.6735240  96.6392940 146.0505800 110.7425130  95.5226990
 151.0246250 112.3145600  89.9138440 151.1459070 112.2732080  90.8624260
 150.6394760 113.1769750  89.7585170 150.0367750 114.6246740  89.3121740
 149.4684650 114.1764990  88.6857650 150.7456750 114.9839520  88.7786890
 145.1136930 118.5258760 103.1888470 144.7291720 117.8852430 103.7871430
 145.4249120 119.2294880 103.7583200 151.2634070 115.3735300  98.6697090
 151.6304200 114.8993870  99.4158430 151.0739130 116.2476870  99.0105430
 144.1274560 110.1178990  94.7990560 143.8421480 109.7534660  95.6369180
 144.0653420 109.3859450  94.1853700 149.0533440 114.4143940 100.9881300
 148.7490510 115.2935920 101.2131660 150.0079900 114.4743730 101.0238740
 147.5815230 118.6204930  91.5848150 146.8077490 118.0802550  91.4246870
 148.3109860 118.1011540  91.2465910 147.6252630 118.2885310  95.2226960
 148.1431300 117.4853570  95.1683850 147.1736650 118.2264450  96.0643790
 152.5122130 119.5551590  90.4954260 152.8537830 120.2993820  89.9997580
 151.6834840 119.8682710  90.8579090 145.1097170 115.2546680 102.1352660
 144.7512110 115.9200530 102.7226000 144.8151730 114.4230230 102.5065280
 148.3110290 115.7130920 105.0192210 148.0110430 115.8588100 104.1220030
 149.0821530 115.1536210 104.9265600 151.4812820 119.6365120  93.2670180
 152.1683950 120.1834330  93.6477770 150.6945240 120.1805850  93.3019790
 143.6205220 115.2537940  88.7587260 144.4900070 115.5362740  89.0423180
 143.1295540 116.0673810  88.6436070 150.7840030 116.6411150  92.8795540
 151.2402810 117.4516400  93.1055730 150.4328240 116.3234290  93.7114030
 146.6851810 106.9848800  93.3518060 146.5566440 106.9766700  94.3002980
 145.8613830 107.3231890  93.0009070 143.9876470 124.4665320  89.3248890
 144.3474110 125.0654660  88.6706160 143.8468810 125.0125210  90.0983920
 143.6845740 108.7439920 102.8124760 142.9704260 108.9436840 103.4177370
 144.1040780 107.9679490 103.1839560 143.9718330 122.7320180 103.7991290
 144.0809450 121.7914920 103.6586680 143.3198890 122.9974930 103.1505020
 151.9630920 121.0036070 105.1989410 151.6427790 120.2845310 105.7435100
 151.2889280 121.6791140 105.2725470 150.0045090 121.8496520  90.1422560
 149.9955190 122.5826210  89.5267070 149.0843450 121.6028100  90.2349520
 145.6051730 117.0711410  90.8869320 144.9979680 117.8110310  90.8964620
 146.0801080 117.1610770  90.0607520 152.9904690 121.9124760  88.8047750
 153.0916670 121.7088750  87.8749730 152.0906430 121.6583040  89.0095530
 150.5130580 112.4705120  92.7871650 149.8046730 112.9391460  93.2285260
 150.7975060 111.8127130  93.4216840 152.1386510 113.8901820 100.7864180
 152.6371760 114.3647640 101.4516030 152.2809460 112.9665340 100.9934210
 151.6322800 124.4311080  93.4995420 151.8864300 124.3932470  92.5774790
 150.6835280 124.3044410  93.4923670 148.7165600 110.7790200  90.1622360
 149.5656130 111.2160350  90.0962550 148.3496870 111.0910460  90.9894420
 147.6157020 117.0322560  88.6357890 148.3820290 116.9203920  89.1983320
 147.6931710 116.3360530  87.9834660 146.3103780 114.4647630  89.3190780
 146.3907370 113.5175140  89.4308180 147.2023530 114.7954510  89.4251440
 147.1118490 124.6143020  96.4225320 147.8480970 124.0658480  96.6933890
 147.4959410 125.4799030  96.2831310 143.9963970 120.6816590  92.2966830
 143.0703750 120.9237730  92.2872240 144.4620400 121.5090850  92.1751580
 146.1176770 123.7989090 105.6110900 146.9189500 124.1201140 106.0246300
 145.6028590 123.4384670 106.3330810 150.2220800 123.7873330  88.2450890
 151.0149410 124.0762160  87.7932680 149.7025150 123.3565500  87.5663370
 143.8374580 116.2862550 104.5546950 144.3413600 115.7069830 105.1263180
 143.0982000 116.5702780 105.0923320 150.7398200 119.0076740  88.1093240
 150.6348840 118.3929090  88.8354620 150.5722420 118.4842630  87.3256250
 150.8912520 117.6933540 104.0882470 150.1258190 118.2618540 104.0037140
 151.0728480 117.4009750 103.1950700 145.8697660 114.4292140 105.4497020
 145.9103000 114.1306010 106.3582250 146.7243160 114.8299750 105.2904540
 149.6476050 117.0287690  90.6100530 150.0692470 116.8627560  91.4531920
 149.7726890 116.2187920  90.1155670 147.8103470 113.0084240 103.4171510
 147.2799930 112.5175190 102.7894850 148.4791540 113.4368440 102.8829440
 152.1603690 116.0525300  87.8577630 152.6809350 115.3374320  87.4918780
 152.8072090 116.6911170  88.1578140 148.2975770 109.9746610 103.4968800
 148.2032640 109.3567360 102.7719670 147.7173160 110.7012900 103.2698710
 151.0637210 108.5319850 100.5296190 150.6154510 108.5544110  99.6841740
 150.4302410 108.1338870 101.1266490 151.4696760 117.4274180 101.1508630
 151.8884870 118.2706910 100.9784870 150.5505390 117.5646220 100.9215410
 148.5434950 113.1020920  87.5558690 148.3424010 112.2388280  87.9172030
 148.3727000 113.0154280  86.6180290 149.3204180 123.7327190 102.2666360
 148.7825270 124.4573250 101.9475060 149.5738140 123.2557530 101.4763700
 150.5729430 111.7011710 103.7922290 151.1629120 111.3927560 104.4800110
 149.7549670 111.2291460 103.9482190 147.3417750 110.2021540  87.5436570
 147.6443650 110.2088970  86.6355720 148.0812340 109.8519400  88.0404230
 152.1766390 124.9678400 102.5253010 152.1025090 125.8713540 102.8325380
 151.2745230 124.6490300 102.4975080 150.5602680 109.1456160  88.5292770
 150.2124680 108.4680150  87.9495220 150.7615450 108.6845670  89.3436160
 146.3647880 119.5063960  88.3766370 146.8022750 120.0493630  89.0323950
 146.8495610 118.6810910  88.3862710 143.5793680 122.2952990  95.8286630
 143.9096690 121.4274050  95.5965270 144.0084680 122.5011510  96.6591590
 148.1755600 120.6262000  93.4888600 147.8751140 120.5026970  94.3892510
 148.0693090 119.7670590  93.0804330 144.0683890 123.1623580  98.5668260
 143.6314880 123.3424380  99.3992410 144.6361570 123.9198200  98.4249980
 143.9008320 115.6743810  94.9257140 143.2457160 115.4055450  94.2816840
 144.7386270 115.5648290  94.4759120 144.9384250 116.0596380  99.4660480
 145.3057290 115.9723780 100.3456500 144.3695070 115.2962930  99.3667340
 144.4900250 112.9705470 103.3718900 143.5956300 112.9372230 103.7112610
 145.0297800 113.1692260 104.1370150 143.1146400 112.8842740  90.8682470
 142.2110480 113.1472940  90.6934130 143.5987020 113.1553910  90.0882430
 145.6573610 111.9408280  88.7776850 146.3665310 111.5191500  88.2924130
 144.9413550 112.0083510  88.1460200 145.3047770 107.9947610  87.8179500
 146.0275900 108.5356550  88.1360720 145.5772290 107.7211030  86.9421040
 144.9939960 107.2453800  97.7202120 145.6416150 106.6951180  97.2797280
 145.4141800 107.4996950  98.5417930 144.7471960 107.4009470 100.4627440
 144.3986780 107.8573290 101.2285620 144.4159660 106.5066600 100.5449870
 146.3536330 120.5729070 104.6280630 146.3105960 120.2021980 105.5095090
 146.4847340 121.5106640 104.7682450 150.0542360 122.1288660 100.2290350
 149.8133720 122.3963220  99.3420870 150.9945000 122.2994390 100.2841210
 145.4192600 106.9285670 103.7378210 145.9675590 106.7473720 102.9744320
 145.4847910 106.1379780 104.2734520 146.1924360 123.5191320 101.7478410
 145.5984680 123.3876020 102.4868450 146.1848200 122.6829460 101.2820510
 145.8236590 120.8849700 100.6986450 145.0970650 120.2654990 100.6312400
 145.8845740 121.2790310  99.8284530 149.4281690 123.0994700  97.4835860
 149.9446710 122.4882060  96.9584120 150.0779070 123.6023480  97.9746870
 152.1677190 123.9903190  98.3104840 152.4555000 123.7357490  97.4337850
 152.6800410 123.4380550  98.9010410 144.1066590 124.2024090  93.9083210
 143.9388630 123.5694770  94.6065100 143.2401100 124.4083490  93.5577400
 144.7294610 108.0340870  91.4115070 145.4873970 108.1469750  90.8379100
 144.2671780 108.8710070  91.3658500 151.2708420 110.1480140  94.4017380
 150.4582930 109.7737030  94.0613260 151.7750060 109.3925220  94.7038570
 145.7129290 122.8957320  91.3533350 145.1876910 123.2765350  90.6495310
 145.6373870 123.5208090  92.0743060 147.1019760 108.5604920  89.9517040
 147.6312520 107.7734720  89.8224990 147.7348080 109.2396110  90.1852570
 149.2957600 108.2980060  93.0062430 148.6660340 107.5967370  93.1732560
 148.7562740 109.0584190  92.7895590 152.2349550 124.9119290 105.6773040
 153.1616860 124.6763560 105.7209000 152.2199980 125.7391290 105.1959070
 149.4213160 107.5764040 105.4414920 149.1397430 108.0797640 104.6775740
 149.8032860 106.7785790 105.0757050 148.3122260 124.8439700  90.2282600
 149.0441080 124.5598980  89.6806490 148.5715930 124.6052980  91.1181980
 147.4737050 120.9604430  90.2328930 146.8445930 121.4289530  90.7814760
 147.5884880 120.1153650  90.6675120 147.0770640 117.1008920  79.1415160
 146.2455520 116.8457630  79.5411670 147.6851620 117.1719690  79.8773080
 147.0571900 121.1349010  79.3373180 147.3599940 120.2446750  79.1583400
 147.8015490 121.6919230  79.1095430 145.4862590 112.0610810  72.9257550
 144.5979290 112.4026780  72.8237430 145.7703780 111.8611130  72.0338380
 143.4495600 114.6616460  78.8097250 144.0211710 113.8938660  78.8100890
 143.4497140 114.9605220  77.9003860 144.6920470 110.0700820  80.5966180
 144.5123310 109.1726570  80.8768940 144.2900550 110.6172690  81.2713130
 147.6623980 110.6442310  73.9595930 147.7690730 111.5446040  74.2664690
 146.7516340 110.5960280  73.6690580 145.3107140 112.5661320  79.2048520
 145.9917250 112.8299690  79.8235920 144.9955190 111.7262190  79.5386530
 149.5031710 113.6128680  78.2921110 150.0109930 114.1109650  78.9326130
 150.0344950 112.8363880  78.1160470 147.7867810 108.2527240  82.5584530
 147.7886250 108.7699630  81.7530430 146.9572120 107.7757420  82.5354460
 149.0370660 117.8922420  80.7358030 148.7040040 118.5191340  81.3779100
 149.2137340 118.4184300  79.9559700 147.4683140 109.9637200  80.5654980
 147.8099950 110.8079250  80.2708850 146.5298950 110.1120940  80.6820320
 148.2489760 119.8603220  82.5507210 148.8663760 120.5354300  82.2691660
 147.3882880 120.2691200  82.4594710 143.5422100 119.0503080  71.4314060
 143.1650080 119.5390180  70.6998960 143.7995170 119.7228360  72.0620590
 151.1511030 107.4519470  76.8899570 151.4586010 106.8966360  76.1735070
 150.2211730 107.5863930  76.7072560 149.1448430 116.0433040  76.4079420
 148.7405430 115.3310290  75.9125320 149.2311550 115.6986280  77.2967460
 149.6130130 119.7300600  78.5718630 149.3158420 119.1246070  77.8926410
 150.5629950 119.7677910  78.4607990 147.8577050 112.8176250  80.1878460
 148.4091640 112.9271590  79.4131710 148.3720560 113.1913850  80.9033690
 148.7048560 119.4682290  85.2226430 147.8077090 119.6922260  85.4699830
 148.7301430 119.5917230  84.2737830 147.5319780 116.3395610  83.7983800
 147.3927550 117.2118410  84.1671200 146.6501140 115.9968420  83.6531740
 149.3300130 122.2817310  86.0068950 149.3015560 122.6860260  85.1397380
 149.1665100 121.3527670  85.8440550 145.8453060 114.9378020  73.9086070
 145.7250660 115.6640110  73.2967340 145.5353950 114.1680930  73.4313980
 143.4838430 118.1093160  79.7154710 143.5618850 118.2441930  78.7710430
 144.0980110 117.4009050  79.9082830 144.7286060 119.8093350  76.1260890
 144.3214140 119.9507940  75.2714490 145.6199070 119.5253510  75.9232100
 149.0007720 124.0239130  74.2383560 148.8250200 123.1074670  74.0251360
 148.1463460 124.3826420  74.4781360 143.5397950 119.1507330  82.2549170
 143.7028990 118.6812690  81.4368540 144.0050400 118.6430890  82.9198010
 148.3116720 108.2813090  77.2909740 147.8684870 109.0622630  76.9594260
 148.8701710 108.6042980  77.9980680 152.5986530 111.1481610  82.8945060
 152.1365900 111.3564630  83.7065000 152.1964640 110.3340960  82.5915730
 151.4275540 107.9023790  72.1715570 150.8029720 107.8983660  72.8968880
 151.3405660 107.0354750  71.7751540 150.3492620 108.8260420  79.1499340
 150.6464950 109.7323250  79.0691360 150.8978180 108.3379200  78.5358910
 148.1030940 113.4046660  75.0190990 147.8771860 113.1883830  75.9237610
 147.3223470 113.8375120  74.6736960 150.5430150 114.3032240  85.6851260
 150.4473750 113.3626970  85.5351660 151.3862130 114.5247310  85.2899330
 145.6740690 110.7145910  83.8385040 145.2804080 111.5621120  84.0457820
 144.9859090 110.0772280  84.0293680 152.2485740 110.7980880  86.9081780
 151.5584060 110.6053080  87.5427870 152.9918040 111.0815520  87.4406080
 142.9757740 108.6374370  77.8715120 142.6870790 109.2077230  78.5840100
 143.7203500 108.1578820  78.2346350 143.1627970 112.5794490  69.0817840
 143.0802640 113.5225250  69.2232830 142.8111030 112.4369400  68.2030190
 150.9626100 111.3133520  78.1488190 150.9662160 110.8723470  77.2992730
 151.8577220 111.6350850  78.2560010 146.8128480 111.1960010  77.1082400
 146.4728530 111.6735240  77.8649450 146.0505800 110.7425130  76.7483500
 151.0246250 112.3145600  71.1394950 151.1459070 112.2732080  72.0880770
 150.6394760 113.1769750  70.9841680 150.0367750 114.6246740  70.5378250
 149.4684650 114.1764990  69.9114160 150.7456750 114.9839520  70.0043400
 145.1136930 118.5258760  84.4144980 144.7291720 117.8852430  85.0127940
 145.4249120 119.2294880  84.9839710 151.2634070 115.3735300  79.8953600
 151.6304200 114.8993870  80.6414940 151.0739130 116.2476870  80.2361940
 144.1274560 110.1178990  76.0247070 143.8421480 109.7534660  76.8625690
 144.0653420 109.3859450  75.4110210 149.0533440 114.4143940  82.2137810
 148.7490510 115.2935920  82.4388170 150.0079900 114.4743730  82.2495250
 147.5815230 118.6204930  72.8104660 146.8077490 118.0802550  72.6503380
 148.3109860 118.1011540  72.4722420 147.6252630 118.2885310  76.4483470
 148.1431300 117.4853570  76.3940360 147.1736650 118.2264450  77.2900300
 152.5122130 119.5551590  71.7210770 152.8537830 120.2993820  71.2254090
 151.6834840 119.8682710  72.0835600 145.1097170 115.2546680  83.3609170
 144.7512110 115.9200530  83.9482510 144.8151730 114.4230230  83.7321790
 148.3110290 115.7130920  86.2448720 148.0110430 115.8588100  85.3476540
 149.0821530 115.1536210  86.1522110 151.4812820 119.6365120  74.4926690
 152.1683950 120.1834330  74.8734280 150.6945240 120.1805850  74.5276300
 143.6205220 115.2537940  69.9843770 144.4900070 115.5362740  70.2679690
 143.1295540 116.0673810  69.8692580 150.7840030 116.6411150  74.1052050
 151.2402810 117.4516400  74.3312240 150.4328240 116.3234290  74.9370540
 146.6851810 106.9848800  74.5774570 146.5566440 106.9766700  75.5259490
 145.8613830 107.3231890  74.2265580 143.9876470 124.4665320  70.5505400
 144.3474110 125.0654660  69.8962670 143.8468810 125.0125210  71.3240430
 143.6845740 108.7439920  84.0381270 142.9704260 108.9436840  84.6433880
 144.1040780 107.9679490  84.4096070 143.9718330 122.7320180  85.0247800
 144.0809450 121.7914920  84.8843190 143.3198890 122.9974930  84.3761530
 151.9630920 121.0036070  86.4245920 151.6427790 120.2845310  86.9691610
 151.2889280 121.6791140  86.4981980 150.0045090 121.8496520  71.3679070
 149.9955190 122.5826210  70.7523580 149.0843450 121.6028100  71.4606030
 145.6051730 117.0711410  72.1125830 144.9979680 117.8110310  72.1221130
 146.0801080 117.1610770  71.2864030 152.9904690 121.9124760  70.0304260
 153.0916670 121.7088750  69.1006240 152.0906430 121.6583040  70.2352040
 150.5130580 112.4705120  74.0128160 149.8046730 112.9391460  74.4541770
 150.7975060 111.8127130  74.6473350 152.1386510 113.8901820  82.0120690
 152.6371760 114.3647640  82.6772540 152.2809460 112.9665340  82.2190720
 151.6322800 124.4311080  74.7251930 151.8864300 124.3932470  73.8031300
 150.6835280 124.3044410  74.7180180 148.7165600 110.7790200  71.3878870
 149.5656130 111.2160350  71.3219060 148.3496870 111.0910460  72.2150930
 147.6157020 117.0322560  69.8614400 148.3820290 116.9203920  70.4239830
 147.6931710 116.3360530  69.2091170 146.3103780 114.4647630  70.5447290
 146.3907370 113.5175140  70.6564690 147.2023530 114.7954510  70.6507950
 147.1118490 124.6143020  77.6481830 147.8480970 124.0658480  77.9190400
 147.4959410 125.4799030  77.5087820 143.9963970 120.6816590  73.5223340
 143.0703750 120.9237730  73.5128750 144.4620400 121.5090850  73.4008090
 146.1176770 123.7989090  86.8367410 146.9189500 124.1201140  87.2502810
 145.6028590 123.4384670  87.5587320 150.2220800 123.7873330  69.4707400
 151.0149410 124.0762160  69.0189190 149.7025150 123.3565500  68.7919880
 143.8374580 116.2862550  85.7803460 144.3413600 115.7069830  86.3519690
 143.0982000 116.5702780  86.3179830 150.7398200 119.0076740  69.3349750
 150.6348840 118.3929090  70.0611130 150.5722420 118.4842630  68.5512760
 150.8912520 117.6933540  85.3138980 150.1258190 118.2618540  85.2293650
 151.0728480 117.4009750  84.4207210 145.8697660 114.4292140  86.6753530
 145.9103000 114.1306010  87.5838760 146.7243160 114.8299750  86.5161050
 149.6476050 117.0287690  71.8357040 150.0692470 116.8627560  72.6788430
 149.7726890 116.2187920  71.3412180 147.8103470 113.0084240  84.6428020
 147.2799930 112.5175190  84.0151360 148.4791540 113.4368440  84.1085950
 152.1603690 116.0525300  69.0834140 152.6809350 115.3374320  68.7175290
 152.8072090 116.6911170  69.3834650 148.2975770 109.9746610  84.7225310
 148.2032640 109.3567360  83.9976180 147.7173160 110.7012900  84.4955220
 151.0637210 108.5319850  81.7552700 150.6154510 108.5544110  80.9098250
 150.4302410 108.1338870  82.3523000 151.4696760 117.4274180  82.3765140
 151.8884870 118.2706910  82.2041380 150.5505390 117.5646220  82.1471920
 148.5434950 113.1020920  68.7815200 148.3424010 112.2388280  69.1428540
 148.3727000 113.0154280  67.8436800 149.3204180 123.7327190  83.4922870
 148.7825270 124.4573250  83.1731570 149.5738140 123.2557530  82.7020210
 150.5729430 111.7011710  85.0178800 151.1629120 111.3927560  85.7056620
 149.7549670 111.2291460  85.1738700 147.3417750 110.2021540  68.7693080
 147.6443650 110.2088970  67.8612230 148.0812340 109.8519400  69.2660740
 152.1766390 124.9678400  83.7509520 152.1025090 125.8713540  84.0581890
 151.2745230 124.6490300  83.7231590 150.5602680 109.1456160  69.7549280
 150.2124680 108.4680150  69.1751730 150.7615450 108.6845670  70.5692670
 146.3647880 119.5063960  69.6022880 146.8022750 120.0493630  70.2580460
 146.8495610 118.6810910  69.6119220 143.5793680 122.2952990  77.0543140
 143.9096690 121.4274050  76.8221780 144.0084680 122.5011510  77.8848100
 148.1755600 120.6262000  74.7145110 147.8751140 120.5026970  75.6149020
 148.0693090 119.7670590  74.3060840 144.0683890 123.1623580  79.7924770
 143.6314880 123.3424380  80.6248920 144.6361570 123.9198200  79.6506490
 143.9008320 115.6743810  76.1513650 143.2457160 115.4055450  75.5073350
 144.7386270 115.5648290  75.7015630 144.9384250 116.0596380  80.6916990
 145.3057290 115.9723780  81.5713010 144.3695070 115.2962930  80.5923850
 144.4900250 112.9705470  84.5975410 143.5956300 112.9372230  84.9369120
 145.0297800 113.1692260  85.3626660 143.1146400 112.8842740  72.0938980
 142.2110480 113.1472940  71.9190640 143.5987020 113.1553910  71.3138940
 145.6573610 111.9408280  70.0033360 146.3665310 111.5191500  69.5180640
 144.9413550 112.0083510  69.3716710 145.3047770 107.9947610  69.0436010
 146.0275900 108.5356550  69.3617230 145.5772290 107.7211030  68.1677550
 144.9939960 107.2453800  78.9458630 145.6416150 106.6951180  78.5053790
 145.4141800 107.4996950  79.7674440 144.7471960 107.4009470  81.6883950
 144.3986780 107.8573290  82.4542130 144.4159660 106.5066600  81.7706380
 146.3536330 120.5729070  85.8537140 146.3105960 120.2021980  86.7351600
 146.4847340 121.5106640  85.9938960 150.0542360 122.1288660  81.4546860
 149.8133720 122.3963220  80.5677380 150.9945000 122.2994390  81.5097720
 145.4192600 106.9285670  84.9634720 145.9675590 106.7473720  84.2000830
 145.4847910 106.1379780  85.4991030 146.1924360 123.5191320  82.9734920
 145.5984680 123.3876020  83.7124960 146.1848200 122.6829460  82.5077020
 145.8236590 120.8849700  81.9242960 145.0970650 120.2654990  81.8568910
 145.8845740 121.2790310  81.0541040 149.4281690 123.0994700  78.7092370
 149.9446710 122.4882060  78.1840630 150.0779070 123.6023480  79.2003380
 152.1677190 123.9903190  79.5361350 152.4555000 123.7357490  78.6594360
 152.6800410 123.4380550  80.1266920 144.1066590 124.2024090  75.1339720
 143.9388630 123.5694770  75.8321610 143.2401100 124.4083490  74.7833910
 144.7294610 108.0340870  72.6371580 145.4873970 108.1469750  72.0635610
 144.2671780 108.8710070  72.5915010 151.2708420 110.1480140  75.6273890
 150.4582930 109.7737030  75.2869770 151.7750060 109.3925220  75.9295080
 145.7129290 122.8957320  72.5789860 145.1876910 123.2765350  71.8751820
 145.6373870 123.5208090  73.2999570 147.1019760 108.5604920  71.1773550
 147.6312520 107.7734720  71.0481500 147.7348080 109.2396110  71.4109080
 149.2957600 108.2980060  74.2318940 148.6660340 107.5967370  74.3989070
 148.7562740 109.0584190  74.0152100 152.2349550 124.9119290  86.9029550
 153.1616860 124.6763560  86.9465510 152.2199980 125.7391290  86.4215580
 149.4213160 107.5764040  86.6671430 149.1397430 108.0797640  85.9032250
 149.8032860 106.7785790  86.3013560 148.3122260 124.8439700  71.4539110
 149.0441080 124.5598980  70.9063000 148.5715930 124.6052980  72.3438490
 147.4737050 120.9604430  71.4585440 146.8445930 121.4289530  72.0071270
 147.5884880 120.1153650  71.8931630 147.0770640 117.1008920  60.3671670
 146.2455520 116.8457630  60.7668180 147.6851620 117.1719690  61.1029590
 147.0571900 121.1349010  60.5629690 147.3599940 120.2446750  60.3839910
 147.8015490 121.6919230  60.3351940 145.4862590 112.0610810  54.1514060
 144.5979290 112.4026780  54.0493940 145.7703780 111.8611130  53.2594890
 143.4495600 114.6616460  60.0353760 144.0211710 113.8938660  60.0357400
 143.4497140 114.9605220  59.1260370 144.6920470 110.0700820  61.8222690
 144.5123310 109.1726570  62.1025450 144.2900550 110.6172690  62.4969640
 147.6623980 110.6442310  55.1852440 147.7690730 111.5446040  55.4921200
 146.7516340 110.5960280  54.8947090 145.3107140 112.5661320  60.4305030
 145.9917250 112.8299690  61.0492430 144.9955190 111.7262190  60.7643040
 149.5031710 113.6128680  59.5177620 150.0109930 114.1109650  60.1582640
 150.0344950 112.8363880  59.3416980 147.7867810 108.2527240  63.7841040
 147.7886250 108.7699630  62.9786940 146.9572120 107.7757420  63.7610970
 149.0370660 117.8922420  61.9614540 148.7040040 118.5191340  62.6035610
 149.2137340 118.4184300  61.1816210 147.4683140 109.9637200  61.7911490
 147.8099950 110.8079250  61.4965360 146.5298950 110.1120940  61.9076830
 148.2489760 119.8603220  63.7763720 148.8663760 120.5354300  63.4948170
 147.3882880 120.2691200  63.6851220 143.5422100 119.0503080  52.6570570
 143.1650080 119.5390180  51.9255470 143.7995170 119.7228360  53.2877100
 151.1511030 107.4519470  58.1156080 151.4586010 106.8966360  57.3991580
 150.2211730 107.5863930  57.9329070 149.1448430 116.0433040  57.6335930
 148.7405430 115.3310290  57.1381830 149.2311550 115.6986280  58.5223970
 149.6130130 119.7300600  59.7975140 149.3158420 119.1246070  59.1182920
 150.5629950 119.7677910  59.6864500 147.8577050 112.8176250  61.4134970
 148.4091640 112.9271590  60.6388220 148.3720560 113.1913850  62.1290200
 148.7048560 119.4682290  66.4482940 147.8077090 119.6922260  66.6956340
 148.7301430 119.5917230  65.4994340 147.5319780 116.3395610  65.0240310
 147.3927550 117.2118410  65.3927710 146.6501140 115.9968420  64.8788250
 149.3300130 122.2817310  67.2325460 149.3015560 122.6860260  66.3653890
 149.1665100 121.3527670  67.0697060 145.8453060 114.9378020  55.1342580
 145.7250660 115.6640110  54.5223850 145.5353950 114.1680930  54.6570490
 143.4838430 118.1093160  60.9411220 143.5618850 118.2441930  59.9966940
 144.0980110 117.4009050  61.1339340 144.7286060 119.8093350  57.3517400
 144.3214140 119.9507940  56.4971000 145.6199070 119.5253510  57.1488610
 149.0007720 124.0239130  55.4640070 148.8250200 123.1074670  55.2507870
 148.1463460 124.3826420  55.7037870 143.5397950 119.1507330  63.4805680
 143.7028990 118.6812690  62.6625050 144.0050400 118.6430890  64.1454520
 148.3116720 108.2813090  58.5166250 147.8684870 109.0622630  58.1850770
 148.8701710 108.6042980  59.2237190 152.5986530 111.1481610  64.1201570
 152.1365900 111.3564630  64.9321510 152.1964640 110.3340960  63.8172240
 151.4275540 107.9023790  53.3972080 150.8029720 107.8983660  54.1225390
 151.3405660 107.0354750  53.0008050 150.3492620 108.8260420  60.3755850
 150.6464950 109.7323250  60.2947870 150.8978180 108.3379200  59.7615420
 148.1030940 113.4046660  56.2447500 147.8771860 113.1883830  57.1494120
 147.3223470 113.8375120  55.8993470 150.5430150 114.3032240  66.9107770
 150.4473750 113.3626970  66.7608170 151.3862130 114.5247310  66.5155840
 145.6740690 110.7145910  65.0641550 145.2804080 111.5621120  65.2714330
 144.9859090 110.0772280  65.2550190 152.2485740 110.7980880  68.1338290
 151.5584060 110.6053080  68.7684380 152.9918040 111.0815520  68.6662590
 142.9757740 108.6374370  59.0971630 142.6870790 109.2077230  59.8096610
 143.7203500 108.1578820  59.4602860 143.1627970 112.5794490  50.3074350
 143.0802640 113.5225250  50.4489340 142.8111030 112.4369400  49.4286700
 150.9626100 111.3133520  59.3744700 150.9662160 110.8723470  58.5249240
 151.8577220 111.6350850  59.4816520 146.8128480 111.1960010  58.3338910
 146.4728530 111.6735240  59.0905960 146.0505800 110.7425130  57.9740010
 151.0246250 112.3145600  52.3651460 151.1459070 112.2732080  53.3137280
 150.6394760 113.1769750  52.2098190 150.0367750 114.6246740  51.7634760
 149.4684650 114.1764990  51.1370670 150.7456750 114.9839520  51.2299910
 145.1136930 118.5258760  65.6401490 144.7291720 117.8852430  66.2384450
 145.4249120 119.2294880  66.2096220 151.2634070 115.3735300  61.1210110
 151.6304200 114.8993870  61.8671450 151.0739130 116.2476870  61.4618450
 144.1274560 110.1178990  57.2503580 143.8421480 109.7534660  58.0882200
 144.0653420 109.3859450  56.6366720 149.0533440 114.4143940  63.4394320
 148.7490510 115.2935920  63.6644680 150.0079900 114.4743730  63.4751760
 147.5815230 118.6204930  54.0361170 146.8077490 118.0802550  53.8759890
 148.3109860 118.1011540  53.6978930 147.6252630 118.2885310  57.6739980
 148.1431300 117.4853570  57.6196870 147.1736650 118.2264450  58.5156810
 152.5122130 119.5551590  52.9467280 152.8537830 120.2993820  52.4510600
 151.6834840 119.8682710  53.3092110 145.1097170 115.2546680  64.5865680
 144.7512110 115.9200530  65.1739020 144.8151730 114.4230230  64.9578300
 148.3110290 115.7130920  67.4705230 148.0110430 115.8588100  66.5733050
 149.0821530 115.1536210  67.3778620 151.4812820 119.6365120  55.7183200
 152.1683950 120.1834330  56.0990790 150.6945240 120.1805850  55.7532810
 143.6205220 115.2537940  51.2100280 144.4900070 115.5362740  51.4936200
 143.1295540 116.0673810  51.0949090 150.7840030 116.6411150  55.3308560
 151.2402810 117.4516400  55.5568750 150.4328240 116.3234290  56.1627050
 146.6851810 106.9848800  55.8031080 146.5566440 106.9766700  56.7516000
 145.8613830 107.3231890  55.4522090 143.9876470 124.4665320  51.7761910
 144.3474110 125.0654660  51.1219180 143.8468810 125.0125210  52.5496940
 143.6845740 108.7439920  65.2637780 142.9704260 108.9436840  65.8690390
 144.1040780 107.9679490  65.6352580 143.9718330 122.7320180  66.2504310
 144.0809450 121.7914920  66.1099700 143.3198890 122.9974930  65.6018040
 151.9630920 121.0036070  67.6502430 151.6427790 120.2845310  68.1948120
 151.2889280 121.6791140  67.7238490 150.0045090 121.8496520  52.5935580
 149.9955190 122.5826210  51.9780090 149.0843450 121.6028100  52.6862540
 145.6051730 117.0711410  53.3382340 144.9979680 117.8110310  53.3477640
 146.0801080 117.1610770  52.5120540 152.9904690 121.9124760  51.2560770
 153.0916670 121.7088750  50.3262750 152.0906430 121.6583040  51.4608550
 150.5130580 112.4705120  55.2384670 149.8046730 112.9391460  55.6798280
 150.7975060 111.8127130  55.8729860 152.1386510 113.8901820  63.2377200
 152.6371760 114.3647640  63.9029050 152.2809460 112.9665340  63.4447230
 151.6322800 124.4311080  55.9508440 151.8864300 124.3932470  55.0287810
 150.6835280 124.3044410  55.9436690 148.7165600 110.7790200  52.6135380
 149.5656130 111.2160350  52.5475570 148.3496870 111.0910460  53.4407440
 147.6157020 117.0322560  51.0870910 148.3820290 116.9203920  51.6496340
 147.6931710 116.3360530  50.4347680 146.3103780 114.4647630  51.7703800
 146.3907370 113.5175140  51.8821200 147.2023530 114.7954510  51.8764460
 147.1118490 124.6143020  58.8738340 147.8480970 124.0658480  59.1446910
 147.4959410 125.4799030  58.7344330 143.9963970 120.6816590  54.7479850
 143.0703750 120.9237730  54.7385260 144.4620400 121.5090850  54.6264600
 146.1176770 123.7989090  68.0623920 146.9189500 124.1201140  68.4759320
 145.6028590 123.4384670  68.7843830 150.2220800 123.7873330  50.6963910
 151.0149410 124.0762160  50.2445700 149.7025150 123.3565500  50.0176390
 143.8374580 116.2862550  67.0059970 144.3413600 115.7069830  67.5776200
 143.0982000 116.5702780  67.5436340 150.7398200 119.0076740  50.5606260
 150.6348840 118.3929090  51.2867640 150.5722420 118.4842630  49.7769270
 150.8912520 117.6933540  66.5395490 150.1258190 118.2618540  66.4550160
 151.0728480 117.4009750  65.6463720 145.8697660 114.4292140  67.9010040
 145.9103000 114.1306010  68.8095270 146.7243160 114.8299750  67.7417560
 149.6476050 117.0287690  53.0613550 150.0692470 116.8627560  53.9044940
 149.7726890 116.2187920  52.5668690 147.8103470 113.0084240  65.8684530
 147.2799930 112.5175190  65.2407870 148.4791540 113.4368440  65.3342460
 152.1603690 116.0525300  50.3090650 152.6809350 115.3374320  49.9431800
 152.8072090 116.6911170  50.6091160 148.2975770 109.9746610  65.9481820
 148.2032640 109.3567360  65.2232690 147.7173160 110.7012900  65.7211730
 151.0637210 108.5319850  62.9809210 150.6154510 108.5544110  62.1354760
 150.4302410 108.1338870  63.5779510 151.4696760 117.4274180  63.6021650
 151.8884870 118.2706910  63.4297890 150.5505390 117.5646220  63.3728430
 148.5434950 113.1020920  50.0071710 148.3424010 112.2388280  50.3685050
 148.3727000 113.0154280  49.0693310 149.3204180 123.7327190  64.7179380
 148.7825270 124.4573250  64.3988080 149.5738140 123.2557530  63.9276720
 150.5729430 111.7011710  66.2435310 151.1629120 111.3927560  66.9313130
 149.7549670 111.2291460  66.3995210 147.3417750 110.2021540  49.9949590
 147.6443650 110.2088970  49.0868740 148.0812340 109.8519400  50.4917250
 152.1766390 124.9678400  64.9766030 152.1025090 125.8713540  65.2838400
 151.2745230 124.6490300  64.9488100 150.5602680 109.1456160  50.9805790
 150.2124680 108.4680150  50.4008240 150.7615450 108.6845670  51.7949180
 146.3647880 119.5063960  50.8279390 146.8022750 120.0493630  51.4836970
 146.8495610 118.6810910  50.8375730 143.5793680 122.2952990  58.2799650
 143.9096690 121.4274050  58.0478290 144.0084680 122.5011510  59.1104610
 148.1755600 120.6262000  55.9401620 147.8751140 120.5026970  56.8405530
 148.0693090 119.7670590  55.5317350 144.0683890 123.1623580  61.0181280
 143.6314880 123.3424380  61.8505430 144.6361570 123.9198200  60.8763000
 143.9008320 115.6743810  57.3770160 143.2457160 115.4055450  56.7329860
 144.7386270 115.5648290  56.9272140 144.9384250 116.0596380  61.9173500
 145.3057290 115.9723780  62.7969520 144.3695070 115.2962930  61.8180360
 144.4900250 112.9705470  65.8231920 143.5956300 112.9372230  66.1625630
 145.0297800 113.1692260  66.5883170 143.1146400 112.8842740  53.3195490
 142.2110480 113.1472940  53.1447150 143.5987020 113.1553910  52.5395450
 145.6573610 111.9408280  51.2289870 146.3665310 111.5191500  50.7437150
 144.9413550 112.0083510  50.5973220 145.3047770 107.9947610  50.2692520
 146.0275900 108.5356550  50.5873740 145.5772290 107.7211030  49.3934060
 144.9939960 107.2453800  60.1715140 145.6416150 106.6951180  59.7310300
 145.4141800 107.4996950  60.9930950 144.7471960 107.4009470  62.9140460
 144.3986780 107.8573290  63.6798640 144.4159660 106.5066600  62.9962890
 146.3536330 120.5729070  67.0793650 146.3105960 120.2021980  67.9608110
 146.4847340 121.5106640  67.2195470 150.0542360 122.1288660  62.6803370
 149.8133720 122.3963220  61.7933890 150.9945000 122.2994390  62.7354230
 145.4192600 106.9285670  66.1891230 145.9675590 106.7473720  65.4257340
 145.4847910 106.1379780  66.7247540 146.1924360 123.5191320  64.1991430
 145.5984680 123.3876020  64.9381470 146.1848200 122.6829460  63.7333530
 145.8236590 120.8849700  63.1499470 145.0970650 120.2654990  63.0825420
 145.8845740 121.2790310  62.2797550 149.4281690 123.0994700  59.9348880
 149.9446710 122.4882060  59.4097140 150.0779070 123.6023480  60.4259890
 152.1677190 123.9903190  60.7617860 152.4555000 123.7357490  59.8850870
 152.6800410 123.4380550  61.3523430 144.1066590 124.2024090  56.3596230
 143.9388630 123.5694770  57.0578120 143.2401100 124.4083490  56.0090420
 144.7294610 108.0340870  53.8628090 145.4873970 108.1469750  53.2892120
 144.2671780 108.8710070  53.8171520 151.2708420 110.1480140  56.8530400
 150.4582930 109.7737030  56.5126280 151.7750060 109.3925220  57.1551590
 145.7129290 122.8957320  53.8046370 145.1876910 123.2765350  53.1008330
 145.6373870 123.5208090  54.5256080 147.1019760 108.5604920  52.4030060
 147.6312520 107.7734720  52.2738010 147.7348080 109.2396110  52.6365590
 149.2957600 108.2980060  55.4575450 148.6660340 107.5967370  55.6245580
 148.7562740 109.0584190  55.2408610 152.2349550 124.9119290  68.1286060
 153.1616860 124.6763560  68.1722020 152.2199980 125.7391290  67.6472090
 149.4213160 107.5764040  67.8927940 149.1397430 108.0797640  67.1288760
 149.8032860 106.7785790  67.5270070 148.3122260 124.8439700  52.6795620
 149.0441080 124.5598980  52.1319510 148.5715930 124.6052980  53.5695000
 147.4737050 120.9604430  52.6841950 146.8445930 121.4289530  53.2327780
 147.5884880 120.1153650  53.1188140 147.0770640 117.1008920  41.5928180
 146.2455520 116.8457630  41.9924690 147.6851620 117.1719690  42.3286100
 147.0571900 121.1349010  41.7886200 147.3599940 120.2446750  41.6096420
 147.8015490 121.6919230  41.5608450 145.4862590 112.0610810  35.3770570
 144.5979290 112.4026780  35.2750450 145.7703780 111.8611130  34.4851400
 143.4495600 114.6616460  41.2610270 144.0211710 113.8938660  41.2613910
 143.4497140 114.9605220  40.3516880 144.6920470 110.0700820  43.0479200
 144.5123310 109.1726570  43.3281960 144.2900550 110.6172690  43.7226150
 147.6623980 110.6442310  36.4108950 147.7690730 111.5446040  36.7177710
 146.7516340 110.5960280  36.1203600 145.3107140 112.5661320  41.6561540
 145.9917250 112.8299690  42.2748940 144.9955190 111.7262190  41.9899550
 149.5031710 113.6128680  40.7434130 150.0109930 114.1109650  41.3839150
 150.0344950 112.8363880  40.5673490 147.7867810 108.2527240  45.0097550
 147.7886250 108.7699630  44.2043450 146.9572120 107.7757420  44.9867480
 149.0370660 117.8922420  43.1871050 148.7040040 118.5191340  43.8292120
 149.2137340 118.4184300  42.4072720 147.4683140 109.9637200  43.0168000
 147.8099950 110.8079250  42.7221870 146.5298950 110.1120940  43.1333340
 148.2489760 119.8603220  45.0020230 148.8663760 120.5354300  44.7204680
 147.3882880 120.2691200  44.9107730 143.5422100 119.0503080  33.8827080
 143.1650080 119.5390180  33.1511980 143.7995170 119.7228360  34.5133610
 151.1511030 107.4519470  39.3412590 151.4586010 106.8966360  38.6248090
 150.2211730 107.5863930  39.1585580 149.1448430 116.0433040  38.8592440
 148.7405430 115.3310290  38.3638340 149.2311550 115.6986280  39.7480480
 149.6130130 119.7300600  41.0231650 149.3158420 119.1246070  40.3439430
 150.5629950 119.7677910  40.9121010 147.8577050 112.8176250  42.6391480
 148.4091640 112.9271590  41.8644730 148.3720560 113.1913850  43.3546710
 148.7048560 119.4682290  47.6739450 147.8077090 119.6922260  47.9212850
 148.7301430 119.5917230  46.7250850 147.5319780 116.3395610  46.2496820
 147.3927550 117.2118410  46.6184220 146.6501140 115.9968420  46.1044760
 149.3300130 122.2817310  48.4581970 149.3015560 122.6860260  47.5910400
 149.1665100 121.3527670  48.2953570 145.8453060 114.9378020  36.3599090
 145.7250660 115.6640110  35.7480360 145.5353950 114.1680930  35.8827000
 143.4838430 118.1093160  42.1667730 143.5618850 118.2441930  41.2223450
 144.0980110 117.4009050  42.3595850 144.7286060 119.8093350  38.5773910
 144.3214140 119.9507940  37.7227510 145.6199070 119.5253510  38.3745120
 149.0007720 124.0239130  36.6896580 148.8250200 123.1074670  36.4764380
 148.1463460 124.3826420  36.9294380 143.5397950 119.1507330  44.7062190
 143.7028990 118.6812690  43.8881560 144.0050400 118.6430890  45.3711030
 148.3116720 108.2813090  39.7422760 147.8684870 109.0622630  39.4107280
 148.8701710 108.6042980  40.4493700 152.5986530 111.1481610  45.3458080
 152.1365900 111.3564630  46.1578020 152.1964640 110.3340960  45.0428750
 151.4275540 107.9023790  34.6228590 150.8029720 107.8983660  35.3481900
 151.3405660 107.0354750  34.2264560 150.3492620 108.8260420  41.6012360
 150.6464950 109.7323250  41.5204380 150.8978180 108.3379200  40.9871930
 148.1030940 113.4046660  37.4704010 147.8771860 113.1883830  38.3750630
 147.3223470 113.8375120  37.1249980 150.5430150 114.3032240  48.1364280
 150.4473750 113.3626970  47.9864680 151.3862130 114.5247310  47.7412350
 145.6740690 110.7145910  46.2898060 145.2804080 111.5621120  46.4970840
 144.9859090 110.0772280  46.4806700 152.2485740 110.7980880  49.3594800
 151.5584060 110.6053080  49.9940890 152.9918040 111.0815520  49.8919100
 142.9757740 108.6374370  40.3228140 142.6870790 109.2077230  41.0353120
 143.7203500 108.1578820  40.6859370 143.1627970 112.5794490  31.5330860
 143.0802640 113.5225250  31.6745850 142.8111030 112.4369400  30.6543210
 150.9626100 111.3133520  40.6001210 150.9662160 110.8723470  39.7505750
 151.8577220 111.6350850  40.7073030 146.8128480 111.1960010  39.5595420
 146.4728530 111.6735240  40.3162470 146.0505800 110.7425130  39.1996520
 151.0246250 112.3145600  33.5907970 151.1459070 112.2732080  34.5393790
 150.6394760 113.1769750  33.4354700 150.0367750 114.6246740  32.9891270
 149.4684650 114.1764990  32.3627180 150.7456750 114.9839520  32.4556420
 145.1136930 118.5258760  46.8658000 144.7291720 117.8852430  47.4640960
 145.4249120 119.2294880  47.4352730 151.2634070 115.3735300  42.3466620
 151.6304200 114.8993870  43.0927960 151.0739130 116.2476870  42.6874960
 144.1274560 110.1178990  38.4760090 143.8421480 109.7534660  39.3138710
 144.0653420 109.3859450  37.8623230 149.0533440 114.4143940  44.6650830
 148.7490510 115.2935920  44.8901190 150.0079900 114.4743730  44.7008270
 147.5815230 118.6204930  35.2617680 146.8077490 118.0802550  35.1016400
 148.3109860 118.1011540  34.9235440 147.6252630 118.2885310  38.8996490
 148.1431300 117.4853570  38.8453380 147.1736650 118.2264450  39.7413320
 152.5122130 119.5551590  34.1723790 152.8537830 120.2993820  33.6767110
 151.6834840 119.8682710  34.5348620 145.1097170 115.2546680  45.8122190
 144.7512110 115.9200530  46.3995530 144.8151730 114.4230230  46.1834810
 148.3110290 115.7130920  48.6961740 148.0110430 115.8588100  47.7989560
 149.0821530 115.1536210  48.6035130 151.4812820 119.6365120  36.9439710
 152.1683950 120.1834330  37.3247300 150.6945240 120.1805850  36.9789320
 143.6205220 115.2537940  32.4356790 144.4900070 115.5362740  32.7192710
 143.1295540 116.0673810  32.3205600 150.7840030 116.6411150  36.5565070
 151.2402810 117.4516400  36.7825260 150.4328240 116.3234290  37.3883560
 146.6851810 106.9848800  37.0287590 146.5566440 106.9766700  37.9772510
 145.8613830 107.3231890  36.6778600 143.9876470 124.4665320  33.0018420
 144.3474110 125.0654660  32.3475690 143.8468810 125.0125210  33.7753450
 143.6845740 108.7439920  46.4894290 142.9704260 108.9436840  47.0946900
 144.1040780 107.9679490  46.8609090 143.9718330 122.7320180  47.4760820
 144.0809450 121.7914920  47.3356210 143.3198890 122.9974930  46.8274550
 151.9630920 121.0036070  48.8758940 151.6427790 120.2845310  49.4204630
 151.2889280 121.6791140  48.9495000 150.0045090 121.8496520  33.8192090
 149.9955190 122.5826210  33.2036600 149.0843450 121.6028100  33.9119050
 145.6051730 117.0711410  34.5638850 144.9979680 117.8110310  34.5734150
 146.0801080 117.1610770  33.7377050 152.9904690 121.9124760  32.4817280
 153.0916670 121.7088750  31.5519260 152.0906430 121.6583040  32.6865060
 150.5130580 112.4705120  36.4641180 149.8046730 112.9391460  36.9054790
 150.7975060 111.8127130  37.0986370 152.1386510 113.8901820  44.4633710
 152.6371760 114.3647640  45.1285560 152.2809460 112.9665340  44.6703740
 151.6322800 124.4311080  37.1764950 151.8864300 124.3932470  36.2544320
 150.6835280 124.3044410  37.1693200 148.7165600 110.7790200  33.8391890
 149.5656130 111.2160350  33.7732080 148.3496870 111.0910460  34.6663950
 147.6157020 117.0322560  32.3127420 148.3820290 116.9203920  32.8752850
 147.6931710 116.3360530  31.6604190 146.3103780 114.4647630  32.9960310
 146.3907370 113.5175140  33.1077710 147.2023530 114.7954510  33.1020970
 147.1118490 124.6143020  40.0994850 147.8480970 124.0658480  40.3703420
 147.4959410 125.4799030  39.9600840 143.9963970 120.6816590  35.9736360
 143.0703750 120.9237730  35.9641770 144.4620400 121.5090850  35.8521110
 146.1176770 123.7989090  49.2880430 146.9189500 124.1201140  49.7015830
 145.6028590 123.4384670  50.0100340 150.2220800 123.7873330  31.9220420
 151.0149410 124.0762160  31.4702210 149.7025150 123.3565500  31.2432900
 143.8374580 116.2862550  48.2316480 144.3413600 115.7069830  48.8032710
 143.0982000 116.5702780  48.7692850 150.7398200 119.0076740  31.7862770
 150.6348840 118.3929090  32.5124150 150.5722420 118.4842630  31.0025780
 150.8912520 117.6933540  47.7652000 150.1258190 118.2618540  47.6806670
 151.0728480 117.4009750  46.8720230 145.8697660 114.4292140  49.1266550
 145.9103000 114.1306010  50.0351780 146.7243160 114.8299750  48.9674070
 149.6476050 117.0287690  34.2870060 150.0692470 116.8627560  35.1301450
 149.7726890 116.2187920  33.7925200 147.8103470 113.0084240  47.0941040
 147.2799930 112.5175190  46.4664380 148.4791540 113.4368440  46.5598970
 152.1603690 116.0525300  31.5347160 152.6809350 115.3374320  31.1688310
 152.8072090 116.6911170  31.8347670 148.2975770 109.9746610  47.1738330
 148.2032640 109.3567360  46.4489200 147.7173160 110.7012900  46.9468240
 151.0637210 108.5319850  44.2065720 150.6154510 108.5544110  43.3611270
 150.4302410 108.1338870  44.8036020 151.4696760 117.4274180  44.8278160
 151.8884870 118.2706910  44.6554400 150.5505390 117.5646220  44.5984940
 148.5434950 113.1020920  31.2328220 148.3424010 112.2388280  31.5941560
 148.3727000 113.0154280  30.2949820 149.3204180 123.7327190  45.9435890
 148.7825270 124.4573250  45.6244590 149.5738140 123.2557530  45.1533230
 150.5729430 111.7011710  47.4691820 151.1629120 111.3927560  48.1569640
 149.7549670 111.2291460  47.6251720 147.3417750 110.2021540  31.2206100
 147.6443650 110.2088970  30.3125250 148.0812340 109.8519400  31.7173760
 152.1766390 124.9678400  46.2022540 152.1025090 125.8713540  46.5094910
 151.2745230 124.6490300  46.1744610 150.5602680 109.1456160  32.2062300
 150.2124680 108.4680150  31.6264750 150.7615450 108.6845670  33.0205690
 146.3647880 119.5063960  32.0535900 146.8022750 120.0493630  32.7093480
 146.8495610 118.6810910  32.0632240 143.5793680 122.2952990  39.5056160
 143.9096690 121.4274050  39.2734800 144.0084680 122.5011510  40.3361120
 148.1755600 120.6262000  37.1658130 147.8751140 120.5026970  38.0662040
 148.0693090 119.7670590  36.7573860 144.0683890 123.1623580  42.2437790
 143.6314880 123.3424380  43.0761940 144.6361570 123.9198200  42.1019510
 143.9008320 115.6743810  38.6026670 143.2457160 115.4055450  37.9586370
 144.7386270 115.5648290  38.1528650 144.9384250 116.0596380  43.1430010
 145.3057290 115.9723780  44.0226030 144.3695070 115.2962930  43.0436870
 144.4900250 112.9705470  47.0488430 143.5956300 112.9372230  47.3882140
 145.0297800 113.1692260  47.8139680 143.1146400 112.8842740  34.5452000
 142.2110480 113.1472940  34.3703660 143.5987020 113.1553910  33.7651960
 145.6573610 111.9408280  32.4546380 146.3665310 111.5191500  31.9693660
 144.9413550 112.0083510  31.8229730 145.3047770 107.9947610  31.4949030
 146.0275900 108.5356550  31.8130250 145.5772290 107.7211030  30.6190570
 144.9939960 107.2453800  41.3971650 145.6416150 106.6951180  40.9566810
 145.4141800 107.4996950  42.2187460 144.7471960 107.4009470  44.1396970
 144.3986780 107.8573290  44.9055150 144.4159660 106.5066600  44.2219400
 146.3536330 120.5729070  48.3050160 146.3105960 120.2021980  49.1864620
 146.4847340 121.5106640  48.4451980 150.0542360 122.1288660  43.9059880
 149.8133720 122.3963220  43.0190400 150.9945000 122.2994390  43.9610740
 145.4192600 106.9285670  47.4147740 145.9675590 106.7473720  46.6513850
 145.4847910 106.1379780  47.9504050 146.1924360 123.5191320  45.4247940
 145.5984680 123.3876020  46.1637980 146.1848200 122.6829460  44.9590040
 145.8236590 120.8849700  44.3755980 145.0970650 120.2654990  44.3081930
 145.8845740 121.2790310  43.5054060 149.4281690 123.0994700  41.1605390
 149.9446710 122.4882060  40.6353650 150.0779070 123.6023480  41.6516400
 152.1677190 123.9903190  41.9874370 152.4555000 123.7357490  41.1107380
 152.6800410 123.4380550  42.5779940 144.1066590 124.2024090  37.5852740
 143.9388630 123.5694770  38.2834630 143.2401100 124.4083490  37.2346930
 144.7294610 108.0340870  35.0884600 145.4873970 108.1469750  34.5148630
 144.2671780 108.8710070  35.0428030 151.2708420 110.1480140  38.0786910
 150.4582930 109.7737030  37.7382790 151.7750060 109.3925220  38.3808100
 145.7129290 122.8957320  35.0302880 145.1876910 123.2765350  34.3264840
 145.6373870 123.5208090  35.7512590 147.1019760 108.5604920  33.6286570
 147.6312520 107.7734720  33.4994520 147.7348080 109.2396110  33.8622100
 149.2957600 108.2980060  36.6831960 148.6660340 107.5967370  36.8502090
 148.7562740 109.0584190  36.4665120 152.2349550 124.9119290  49.3542570
 153.1616860 124.6763560  49.3978530 152.2199980 125.7391290  48.8728600
 149.4213160 107.5764040  49.1184450 149.1397430 108.0797640  48.3545270
 149.8032860 106.7785790  48.7526580 148.3122260 124.8439700  33.9052130
 149.0441080 124.5598980  33.3576020 148.5715930 124.6052980  34.7951510
 147.4737050 120.9604430  33.9098460 146.8445930 121.4289530  34.4584290
 147.5884880 120.1153650  34.3444650 147.0770640 117.1008920  22.8184690
 146.2455520 116.8457630  23.2181200 147.6851620 117.1719690  23.5542610
 147.0571900 121.1349010  23.0142710 147.3599940 120.2446750  22.8352930
 147.8015490 121.6919230  22.7864960 145.4862590 112.0610810  16.6027080
 144.5979290 112.4026780  16.5006960 145.7703780 111.8611130  15.7107910
 143.4495600 114.6616460  22.4866780 144.0211710 113.8938660  22.4870420
 143.4497140 114.9605220  21.5773390 144.6920470 110.0700820  24.2735710
 144.5123310 109.1726570  24.5538470 144.2900550 110.6172690  24.9482660
 147.6623980 110.6442310  17.6365460 147.7690730 111.5446040  17.9434220
 146.7516340 110.5960280  17.3460110 145.3107140 112.5661320  22.8818050
 145.9917250 112.8299690  23.5005450 144.9955190 111.7262190  23.2156060
 149.5031710 113.6128680  21.9690640 150.0109930 114.1109650  22.6095660
 150.0344950 112.8363880  21.7930000 147.7867810 108.2527240  26.2354060
 147.7886250 108.7699630  25.4299960 146.9572120 107.7757420  26.2123990
 149.0370660 117.8922420  24.4127560 148.7040040 118.5191340  25.0548630
 149.2137340 118.4184300  23.6329230 147.4683140 109.9637200  24.2424510
 147.8099950 110.8079250  23.9478380 146.5298950 110.1120940  24.3589850
 148.2489760 119.8603220  26.2276740 148.8663760 120.5354300  25.9461190
 147.3882880 120.2691200  26.1364240 143.5422100 119.0503080  15.1083590
 143.1650080 119.5390180  14.3768490 143.7995170 119.7228360  15.7390120
 151.1511030 107.4519470  20.5669100 151.4586010 106.8966360  19.8504600
 150.2211730 107.5863930  20.3842090 149.1448430 116.0433040  20.0848950
 148.7405430 115.3310290  19.5894850 149.2311550 115.6986280  20.9736990
 149.6130130 119.7300600  22.2488160 149.3158420 119.1246070  21.5695940
 150.5629950 119.7677910  22.1377520 147.8577050 112.8176250  23.8647990
 148.4091640 112.9271590  23.0901240 148.3720560 113.1913850  24.5803220
 148.7048560 119.4682290  28.8995960 147.8077090 119.6922260  29.1469360
 148.7301430 119.5917230  27.9507360 147.5319780 116.3395610  27.4753330
 147.3927550 117.2118410  27.8440730 146.6501140 115.9968420  27.3301270
 149.3300130 122.2817310  29.6838480 149.3015560 122.6860260  28.8166910
 149.1665100 121.3527670  29.5210080 145.8453060 114.9378020  17.5855600
 145.7250660 115.6640110  16.9736870 145.5353950 114.1680930  17.1083510
 143.4838430 118.1093160  23.3924240 143.5618850 118.2441930  22.4479960
 144.0980110 117.4009050  23.5852360 144.7286060 119.8093350  19.8030420
 144.3214140 119.9507940  18.9484020 145.6199070 119.5253510  19.6001630
 149.0007720 124.0239130  17.9153090 148.8250200 123.1074670  17.7020890
 148.1463460 124.3826420  18.1550890 143.5397950 119.1507330  25.9318700
 143.7028990 118.6812690  25.1138070 144.0050400 118.6430890  26.5967540
 148.3116720 108.2813090  20.9679270 147.8684870 109.0622630  20.6363790
 148.8701710 108.6042980  21.6750210 152.5986530 111.1481610  26.5714590
 152.1365900 111.3564630  27.3834530 152.1964640 110.3340960  26.2685260
 151.4275540 107.9023790  15.8485100 150.8029720 107.8983660  16.5738410
 151.3405660 107.0354750  15.4521070 150.3492620 108.8260420  22.8268870
 150.6464950 109.7323250  22.7460890 150.8978180 108.3379200  22.2128440
 148.1030940 113.4046660  18.6960520 147.8771860 113.1883830  19.6007140
 147.3223470 113.8375120  18.3506490 150.5430150 114.3032240  29.3620790
 150.4473750 113.3626970  29.2121190 151.3862130 114.5247310  28.9668860
 145.6740690 110.7145910  27.5154570 145.2804080 111.5621120  27.7227350
 144.9859090 110.0772280  27.7063210 152.2485740 110.7980880  30.5851310
 151.5584060 110.6053080  31.2197400 152.9918040 111.0815520  31.1175610
 142.9757740 108.6374370  21.5484650 142.6870790 109.2077230  22.2609630
 143.7203500 108.1578820  21.9115880 143.1627970 112.5794490  12.7587370
 143.0802640 113.5225250  12.9002360 142.8111030 112.4369400  11.8799720
 150.9626100 111.3133520  21.8257720 150.9662160 110.8723470  20.9762260
 151.8577220 111.6350850  21.9329540 146.8128480 111.1960010  20.7851930
 146.4728530 111.6735240  21.5418980 146.0505800 110.7425130  20.4253030
 151.0246250 112.3145600  14.8164480 151.1459070 112.2732080  15.7650300
 150.6394760 113.1769750  14.6611210 150.0367750 114.6246740  14.2147780
 149.4684650 114.1764990  13.5883690 150.7456750 114.9839520  13.6812930
 145.1136930 118.5258760  28.0914510 144.7291720 117.8852430  28.6897470
 145.4249120 119.2294880  28.6609240 151.2634070 115.3735300  23.5723130
 151.6304200 114.8993870  24.3184470 151.0739130 116.2476870  23.9131470
 144.1274560 110.1178990  19.7016600 143.8421480 109.7534660  20.5395220
 144.0653420 109.3859450  19.0879740 149.0533440 114.4143940  25.8907340
 148.7490510 115.2935920  26.1157700 150.0079900 114.4743730  25.9264780
 147.5815230 118.6204930  16.4874190 146.8077490 118.0802550  16.3272910
 148.3109860 118.1011540  16.1491950 147.6252630 118.2885310  20.1253000
 148.1431300 117.4853570  20.0709890 147.1736650 118.2264450  20.9669830
 152.5122130 119.5551590  15.3980300 152.8537830 120.2993820  14.9023620
 151.6834840 119.8682710  15.7605130 145.1097170 115.2546680  27.0378700
 144.7512110 115.9200530  27.6252040 144.8151730 114.4230230  27.4091320
 148.3110290 115.7130920  29.9218250 148.0110430 115.8588100  29.0246070
 149.0821530 115.1536210  29.8291640 151.4812820 119.6365120  18.1696220
 152.1683950 120.1834330  18.5503810 150.6945240 120.1805850  18.2045830
 143.6205220 115.2537940  13.6613300 144.4900070 115.5362740  13.9449220
 143.1295540 116.0673810  13.5462110 150.7840030 116.6411150  17.7821580
 151.2402810 117.4516400  18.0081770 150.4328240 116.3234290  18.6140070
 146.6851810 106.9848800  18.2544100 146.5566440 106.9766700  19.2029020
 145.8613830 107.3231890  17.9035110 143.9876470 124.4665320  14.2274930
 144.3474110 125.0654660  13.5732200 143.8468810 125.0125210  15.0009960
 143.6845740 108.7439920  27.7150800 142.9704260 108.9436840  28.3203410
 144.1040780 107.9679490  28.0865600 143.9718330 122.7320180  28.7017330
 144.0809450 121.7914920  28.5612720 143.3198890 122.9974930  28.0531060
 151.9630920 121.0036070  30.1015450 151.6427790 120.2845310  30.6461140
 151.2889280 121.6791140  30.1751510 150.0045090 121.8496520  15.0448600
 149.9955190 122.5826210  14.4293110 149.0843450 121.6028100  15.1375560
 145.6051730 117.0711410  15.7895360 144.9979680 117.8110310  15.7990660
 146.0801080 117.1610770  14.9633560 152.9904690 121.9124760  13.7073790
 153.0916670 121.7088750  12.7775770 152.0906430 121.6583040  13.9121570
 150.5130580 112.4705120  17.6897690 149.8046730 112.9391460  18.1311300
 150.7975060 111.8127130  18.3242880 152.1386510 113.8901820  25.6890220
 152.6371760 114.3647640  26.3542070 152.2809460 112.9665340  25.8960250
 151.6322800 124.4311080  18.4021460 151.8864300 124.3932470  17.4800830
 150.6835280 124.3044410  18.3949710 148.7165600 110.7790200  15.0648400
 149.5656130 111.2160350  14.9988590 148.3496870 111.0910460  15.8920460
 147.6157020 117.0322560  13.5383930 148.3820290 116.9203920  14.1009360
 147.6931710 116.3360530  12.8860700 146.3103780 114.4647630  14.2216820
 146.3907370 113.5175140  14.3334220 147.2023530 114.7954510  14.3277480
 147.1118490 124.6143020  21.3251360 147.8480970 124.0658480  21.5959930
 147.4959410 125.4799030  21.1857350 143.9963970 120.6816590  17.1992870
 143.0703750 120.9237730  17.1898280 144.4620400 121.5090850  17.0777620
 146.1176770 123.7989090  30.5136940 146.9189500 124.1201140  30.9272340
 145.6028590 123.4384670  31.2356850 150.2220800 123.7873330  13.1476930
 151.0149410 124.0762160  12.6958720 149.7025150 123.3565500  12.4689410
 143.8374580 116.2862550  29.4572990 144.3413600 115.7069830  30.0289220
 143.0982000 116.5702780  29.9949360 150.7398200 119.0076740  13.0119280
 150.6348840 118.3929090  13.7380660 150.5722420 118.4842630  12.2282290
 150.8912520 117.6933540  28.9908510 150.1258190 118.2618540  28.9063180
 151.0728480 117.4009750  28.0976740 145.8697660 114.4292140  30.3523060
 145.9103000 114.1306010  31.2608290 146.7243160 114.8299750  30.1930580
 149.6476050 117.0287690  15.5126570 150.0692470 116.8627560  16.3557960
 149.7726890 116.2187920  15.0181710 147.8103470 113.0084240  28.3197550
 147.2799930 112.5175190  27.6920890 148.4791540 113.4368440  27.7855480
 152.1603690 116.0525300  12.7603670 152.6809350 115.3374320  12.3944820
 152.8072090 116.6911170  13.0604180 148.2975770 109.9746610  28.3994840
 148.2032640 109.3567360  27.6745710 147.7173160 110.7012900  28.1724750
 151.0637210 108.5319850  25.4322230 150.6154510 108.5544110  24.5867780
 150.4302410 108.1338870  26.0292530 151.4696760 117.4274180  26.0534670
 151.8884870 118.2706910  25.8810910 150.5505390 117.5646220  25.8241450
 148.5434950 113.1020920  12.4584730 148.3424010 112.2388280  12.8198070
 148.3727000 113.0154280  11.5206330 149.3204180 123.7327190  27.1692400
 148.7825270 124.4573250  26.8501100 149.5738140 123.2557530  26.3789740
 150.5729430 111.7011710  28.6948330 151.1629120 111.3927560  29.3826150
 149.7549670 111.2291460  28.8508230 147.3417750 110.2021540  12.4462610
 147.6443650 110.2088970  11.5381760 148.0812340 109.8519400  12.9430270
 152.1766390 124.9678400  27.4279050 152.1025090 125.8713540  27.7351420
 151.2745230 124.6490300  27.4001120 150.5602680 109.1456160  13.4318810
 150.2124680 108.4680150  12.8521260 150.7615450 108.6845670  14.2462200
 146.3647880 119.5063960  13.2792410 146.8022750 120.0493630  13.9349990
 146.8495610 118.6810910  13.2888750 143.5793680 122.2952990  20.7312670
 143.9096690 121.4274050  20.4991310 144.0084680 122.5011510  21.5617630
 148.1755600 120.6262000  18.3914640 147.8751140 120.5026970  19.2918550
 148.0693090 119.7670590  17.9830370 144.0683890 123.1623580  23.4694300
 143.6314880 123.3424380  24.3018450 144.6361570 123.9198200  23.3276020
 143.9008320 115.6743810  19.8283180 143.2457160 115.4055450  19.1842880
 144.7386270 115.5648290  19.3785160 144.9384250 116.0596380  24.3686520
 145.3057290 115.9723780  25.2482540 144.3695070 115.2962930  24.2693380
 144.4900250 112.9705470  28.2744940 143.5956300 112.9372230  28.6138650
 145.0297800 113.1692260  29.0396190 143.1146400 112.8842740  15.7708510
 142.2110480 113.1472940  15.5960170 143.5987020 113.1553910  14.9908470
 145.6573610 111.9408280  13.6802890 146.3665310 111.5191500  13.1950170
 144.9413550 112.0083510  13.0486240 145.3047770 107.9947610  12.7205540
 146.0275900 108.5356550  13.0386760 145.5772290 107.7211030  11.8447080
 144.9939960 107.2453800  22.6228160 145.6416150 106.6951180  22.1823320
 145.4141800 107.4996950  23.4443970 144.7471960 107.4009470  25.3653480
 144.3986780 107.8573290  26.1311660 144.4159660 106.5066600  25.4475910
 146.3536330 120.5729070  29.5306670 146.3105960 120.2021980  30.4121130
 146.4847340 121.5106640  29.6708490 150.0542360 122.1288660  25.1316390
 149.8133720 122.3963220  24.2446910 150.9945000 122.2994390  25.1867250
 145.4192600 106.9285670  28.6404250 145.9675590 106.7473720  27.8770360
 145.4847910 106.1379780  29.1760560 146.1924360 123.5191320  26.6504450
 145.5984680 123.3876020  27.3894490 146.1848200 122.6829460  26.1846550
 145.8236590 120.8849700  25.6012490 145.0970650 120.2654990  25.5338440
 145.8845740 121.2790310  24.7310570 149.4281690 123.0994700  22.3861900
 149.9446710 122.4882060  21.8610160 150.0779070 123.6023480  22.8772910
 152.1677190 123.9903190  23.2130880 152.4555000 123.7357490  22.3363890
 152.6800410 123.4380550  23.8036450 144.1066590 124.2024090  18.8109250
 143.9388630 123.5694770  19.5091140 143.2401100 124.4083490  18.4603440
 144.7294610 108.0340870  16.3141110 145.4873970 108.1469750  15.7405140
 144.2671780 108.8710070  16.2684540 151.2708420 110.1480140  19.3043420
 150.4582930 109.7737030  18.9639300 151.7750060 109.3925220  19.6064610
 145.7129290 122.8957320  16.2559390 145.1876910 123.2765350  15.5521350
 145.6373870 123.5208090  16.9769100 147.1019760 108.5604920  14.8543080
 147.6312520 107.7734720  14.7251030 147.7348080 109.2396110  15.0878610
 149.2957600 108.2980060  17.9088470 148.6660340 107.5967370  18.0758600
 148.7562740 109.0584190  17.6921630 152.2349550 124.9119290  30.5799080
 153.1616860 124.6763560  30.6235040 152.2199980 125.7391290  30.0985110
 149.4213160 107.5764040  30.3440960 149.1397430 108.0797640  29.5801780
 149.8032860 106.7785790  29.9783090 148.3122260 124.8439700  15.1308640
 149.0441080 124.5598980  14.5832530 148.5715930 124.6052980  16.0208020
 147.4737050 120.9604430  15.1354970 146.8445930 121.4289530  15.6840800
 147.5884880 120.1153650  15.5701160 147.0770640 117.1008920   4.0441200
 146.2455520 116.8457630   4.4437710 147.6851620 117.1719690   4.7799120
 147.0571900 121.1349010   4.2399220 147.3599940 120.2446750   4.0609440
 147.8015490 121.6919230   4.0121470 143.4495600 114.6616460   3.7123290
 144.0211710 113.8938660   3.7126930 143.4497140 114.9605220   2.8029900
 144.6920470 110.0700820   5.4992220 144.5123310 109.1726570   5.7794980
 144.2900550 110.6172690   6.1739170 145.3107140 112.5661320   4.1074560
 145.9917250 112.8299690   4.7261960 144.9955190 111.7262190   4.4412570
 149.5031710 113.6128680   3.1947150 150.0109930 114.1109650   3.8352170
 150.0344950 112.8363880   3.0186510 147.7867810 108.2527240   7.4610570
 147.7886250 108.7699630   6.6556470 146.9572120 107.7757420   7.4380500
 149.0370660 117.8922420   5.6384070 148.7040040 118.5191340   6.2805140
 149.2137340 118.4184300   4.8585740 147.4683140 109.9637200   5.4681020
 147.8099950 110.8079250   5.1734890 146.5298950 110.1120940   5.5846360
 148.2489760 119.8603220   7.4533250 148.8663760 120.5354300   7.1717700
 147.3882880 120.2691200   7.3620750 149.6130130 119.7300600   3.4744670
 149.3158420 119.1246070   2.7952450 150.5629950 119.7677910   3.3634030
 147.8577050 112.8176250   5.0904500 148.4091640 112.9271590   4.3157750
 148.3720560 113.1913850   5.8059730 148.7048560 119.4682290  10.1252470
 147.8077090 119.6922260  10.3725870 148.7301430 119.5917230   9.1763870
 147.5319780 116.3395610   8.7009840 147.3927550 117.2118410   9.0697240
 146.6501140 115.9968420   8.5557780 149.3300130 122.2817310  10.9094990
 149.3015560 122.6860260  10.0423420 149.1665100 121.3527670  10.7466590
 143.4838430 118.1093160   4.6180750 143.5618850 118.2441930   3.6736470
 144.0980110 117.4009050   4.8108870 143.5397950 119.1507330   7.1575210
 143.7028990 118.6812690   6.3394580 144.0050400 118.6430890   7.8224050
 148.3116720 108.2813090   2.1935780 147.8684870 109.0622630   1.8620300
 148.8701710 108.6042980   2.9006720 152.5986530 111.1481610   7.7971100
 152.1365900 111.3564630   8.6091040 152.1964640 110.3340960   7.4941770
 150.3492620 108.8260420   4.0525380 150.6464950 109.7323250   3.9717400
 150.8978180 108.3379200   3.4384950 150.5430150 114.3032240  10.5877300
 150.4473750 113.3626970  10.4377700 151.3862130 114.5247310  10.1925370
 145.6740690 110.7145910   8.7411080 145.2804080 111.5621120   8.9483860
 144.9859090 110.0772280   8.9319720 152.2485740 110.7980880  11.8107820
 151.5584060 110.6053080  12.4453910 152.9918040 111.0815520  12.3432120
 142.9757740 108.6374370   2.7741160 142.6870790 109.2077230   3.4866140
 143.7203500 108.1578820   3.1372390 150.9626100 111.3133520   3.0514230
 150.9662160 110.8723470   2.2018770 151.8577220 111.6350850   3.1586050
 146.8128480 111.1960010   2.0108440 146.4728530 111.6735240   2.7675490
 146.0505800 110.7425130   1.6509540 145.1136930 118.5258760   9.3171020
 144.7291720 117.8852430   9.9153980 145.4249120 119.2294880   9.8865750
 151.2634070 115.3735300   4.7979640 151.6304200 114.8993870   5.5440980
 151.0739130 116.2476870   5.1387980 149.0533440 114.4143940   7.1163850
 148.7490510 115.2935920   7.3414210 150.0079900 114.4743730   7.1521290
 145.1097170 115.2546680   8.2635210 144.7512110 115.9200530   8.8508550
 144.8151730 114.4230230   8.6347830 148.3110290 115.7130920  11.1474760
 148.0110430 115.8588100  10.2502580 149.0821530 115.1536210  11.0548150
 143.6845740 108.7439920   8.9407310 142.9704260 108.9436840   9.5459920
 144.1040780 107.9679490   9.3122110 143.9718330 122.7320180   9.9273840
 144.0809450 121.7914920   9.7869230 143.3198890 122.9974930   9.2787570
 151.9630920 121.0036070  11.3271960 151.6427790 120.2845310  11.8717650
 151.2889280 121.6791140  11.4008020 152.1386510 113.8901820   6.9146730
 152.6371760 114.3647640   7.5798580 152.2809460 112.9665340   7.1216760
 147.1118490 124.6143020   2.5507870 147.8480970 124.0658480   2.8216440
 147.4959410 125.4799030   2.4113860 146.1176770 123.7989090  11.7393450
 146.9189500 124.1201140  12.1528850 145.6028590 123.4384670  12.4613360
 143.8374580 116.2862550  10.6829500 144.3413600 115.7069830  11.2545730
 143.0982000 116.5702780  11.2205870 150.8912520 117.6933540  10.2165020
 150.1258190 118.2618540  10.1319690 151.0728480 117.4009750   9.3233250
 145.8697660 114.4292140  11.5779570 145.9103000 114.1306010  12.4864800
 146.7243160 114.8299750  11.4187090 147.8103470 113.0084240   9.5454060
 147.2799930 112.5175190   8.9177400 148.4791540 113.4368440   9.0111990
 148.2975770 109.9746610   9.6251350 148.2032640 109.3567360   8.9002220
 147.7173160 110.7012900   9.3981260 151.0637210 108.5319850   6.6578740
 150.6154510 108.5544110   5.8124290 150.4302410 108.1338870   7.2549040
 151.4696760 117.4274180   7.2791180 151.8884870 118.2706910   7.1067420
 150.5505390 117.5646220   7.0497960 149.3204180 123.7327190   8.3948910
 148.7825270 124.4573250   8.0757610 149.5738140 123.2557530   7.6046250
 150.5729430 111.7011710   9.9204840 151.1629120 111.3927560  10.6082660
 149.7549670 111.2291460  10.0764740 152.1766390 124.9678400   8.6535560
 152.1025090 125.8713540   8.9607930 151.2745230 124.6490300   8.6257630
 143.5793680 122.2952990   1.9569180 143.9096690 121.4274050   1.7247820
 144.0084680 122.5011510   2.7874140 144.0683890 123.1623580   4.6950810
 143.6314880 123.3424380   5.5274960 144.6361570 123.9198200   4.5532530
 144.9384250 116.0596380   5.5943030 145.3057290 115.9723780   6.4739050
 144.3695070 115.2962930   5.4949890 144.4900250 112.9705470   9.5001450
 143.5956300 112.9372230   9.8395160 145.0297800 113.1692260  10.2652700
 144.9939960 107.2453800   3.8484670 145.6416150 106.6951180   3.4079830
 145.4141800 107.4996950   4.6700480 144.7471960 107.4009470   6.5909990
 144.3986780 107.8573290   7.3568170 144.4159660 106.5066600   6.6732420
 146.3536330 120.5729070  10.7563180 146.3105960 120.2021980  11.6377640
 146.4847340 121.5106640  10.8965000 150.0542360 122.1288660   6.3572900
 149.8133720 122.3963220   5.4703420 150.9945000 122.2994390   6.4123760
 145.4192600 106.9285670   9.8660760 145.9675590 106.7473720   9.1026870
 145.4847910 106.1379780  10.4017070 146.1924360 123.5191320   7.8760960
 145.5984680 123.3876020   8.6151000 146.1848200 122.6829460   7.4103060
 145.8236590 120.8849700   6.8269000 145.0970650 120.2654990   6.7594950
 145.8845740 121.2790310   5.9567080 149.4281690 123.0994700   3.6118410
 149.9446710 122.4882060   3.0866670 150.0779070 123.6023480   4.1029420
 152.1677190 123.9903190   4.4387390 152.4555000 123.7357490   3.5620400
 152.6800410 123.4380550   5.0292960 152.2349550 124.9119290  11.8055590
 153.1616860 124.6763560  11.8491550 152.2199980 125.7391290  11.3241620
 149.4213160 107.5764040  11.5697470 149.1397430 108.0797640  10.8058290
 149.8032860 106.7785790  11.2039600 147.0571900 102.3605520 154.4347140
 147.3599940 101.4703260 154.2557360 147.8015490 102.9175740 154.2069390
 145.4862590  93.2867320 148.0231510 144.5979290  93.6283290 147.9211390
 145.7703780  93.0867640 147.1312340 143.4495600  95.8872970 153.9071210
 144.0211710  95.1195170 153.9074850 143.4497140  96.1861730 152.9977820
 147.6623980  91.8698820 149.0569890 147.7690730  92.7702550 149.3638650
 146.7516340  91.8216790 148.7664540 149.5031710  94.8385190 153.3895070
 150.0109930  95.3366160 154.0300090 150.0344950  94.0620390 153.2134430
 143.5422100 100.2759590 146.5288020 143.1650080 100.7646690 145.7972920
 143.7995170 100.9484870 147.1594550 151.1511030  88.6775980 151.9873530
 151.4586010  88.1222870 151.2709030 150.2211730  88.8120440 151.8046520
 149.1448430  97.2689550 151.5053380 148.7405430  96.5566800 151.0099280
 149.2311550  96.9242790 152.3941420 149.6130130 100.9557110 153.6692590
 149.3158420 100.3502580 152.9900370 150.5629950 100.9934420 153.5581950
 145.8453060  96.1634530 149.0060030 145.7250660  96.8896620 148.3941300
 145.5353950  95.3937440 148.5287940 144.7286060 101.0349860 151.2234850
 144.3214140 101.1764450 150.3688450 145.6199070 100.7510020 151.0206060
 149.0007720 105.2495640 149.3357520 148.8250200 104.3331180 149.1225320
 148.1463460 105.6082930 149.5755320 148.3116720  89.5069600 152.3883700
 147.8684870  90.2879140 152.0568220 148.8701710  89.8299490 153.0954640
 151.4275540  89.1280300 147.2689530 150.8029720  89.1240170 147.9942840
 151.3405660  88.2611260 146.8725500 150.3492620  90.0516930 154.2473300
 150.6464950  90.9579760 154.1665320 150.8978180  89.5635710 153.6332870
 148.1030940  94.6303170 150.1164950 147.8771860  94.4140340 151.0211570
 147.3223470  95.0631630 149.7710920 142.9757740  89.8630880 152.9689080
 142.6870790  90.4333740 153.6814060 143.7203500  89.3835330 153.3320310
 143.1627970  93.8051000 144.1791800 143.0802640  94.7481760 144.3206790
 142.8111030  93.6625910 143.3004150 150.9626100  92.5390030 153.2462150
 150.9662160  92.0979980 152.3966690 151.8577220  92.8607360 153.3533970
 146.8128480  92.4216520 152.2056360 146.4728530  92.8991750 152.9623410
 146.0505800  91.9681640 151.8457460 151.0246250  93.5402110 146.2368910
 151.1459070  93.4988590 147.1854730 150.6394760  94.4026260 146.0815640
 150.0367750  95.8503250 145.6352210 149.4684650  95.4021500 145.0088120
 150.7456750  96.2096030 145.1017360 144.1274560  91.3435500 151.1221030
 143.8421480  90.9791170 151.9599650 144.0653420  90.6115960 150.5084170
 147.5815230  99.8461440 147.9078620 146.8077490  99.3059060 147.7477340
 148.3109860  99.3268050 147.5696380 147.6252630  99.5141820 151.5457430
 148.1431300  98.7110080 151.4914320 147.1736650  99.4520960 152.3874260
 152.5122130 100.7808100 146.8184730 152.8537830 101.5250330 146.3228050
 151.6834840 101.0939220 147.1809560 151.4812820 100.8621630 149.5900650
 152.1683950 101.4090840 149.9708240 150.6945240 101.4062360 149.6250260
 143.6205220  96.4794450 145.0817730 144.4900070  96.7619250 145.3653650
 143.1295540  97.2930320 144.9666540 150.7840030  97.8667660 149.2026010
 151.2402810  98.6772910 149.4286200 150.4328240  97.5490800 150.0344500
 146.6851810  88.2105310 149.6748530 146.5566440  88.2023210 150.6233450
 145.8613830  88.5488400 149.3239540 143.9876470 105.6921830 145.6479360
 144.3474110 106.2911170 144.9936630 143.8468810 106.2381720 146.4214390
 150.0045090 103.0753030 146.4653030 149.9955190 103.8082720 145.8497540
 149.0843450 102.8284610 146.5579990 145.6051730  98.2967920 147.2099790
 144.9979680  99.0366820 147.2195090 146.0801080  98.3867280 146.3837990
 152.9904690 103.1381270 145.1278220 153.0916670 102.9345260 144.1980200
 152.0906430 102.8839550 145.3326000 150.5130580  93.6961630 149.1102120
 149.8046730  94.1647970 149.5515730 150.7975060  93.0383640 149.7447310
 151.6322800 105.6567590 149.8225890 151.8864300 105.6188980 148.9005260
 150.6835280 105.5300920 149.8154140 148.7165600  92.0046710 146.4852830
 149.5656130  92.4416860 146.4193020 148.3496870  92.3166970 147.3124890
 147.6157020  98.2579070 144.9588360 148.3820290  98.1460430 145.5213790
 147.6931710  97.5617040 144.3065130 146.3103780  95.6904140 145.6421250
 146.3907370  94.7431650 145.7538650 147.2023530  96.0211020 145.7481910
 147.1118490 105.8399530 152.7455790 147.8480970 105.2914990 153.0164360
 147.4959410 106.7055540 152.6061780 143.9963970 101.9073100 148.6197300
 143.0703750 102.1494240 148.6102710 144.4620400 102.7347360 148.4982050
 150.2220800 105.0129840 144.5681360 151.0149410 105.3018670 144.1163150
 149.7025150 104.5822010 143.8893840 150.7398200 100.2333250 144.4323710
 150.6348840  99.6185600 145.1585090 150.5722420  99.7099140 143.6486720
 149.6476050  98.2544200 146.9331000 150.0692470  98.0884070 147.7762390
 149.7726890  97.4444430 146.4386140 152.1603690  97.2781810 144.1808100
 152.6809350  96.5630830 143.8149250 152.8072090  97.9167680 144.4808610
 148.5434950  94.3277430 143.8789160 148.3424010  93.4644790 144.2402500
 148.3727000  94.2410790 142.9410760 147.3417750  91.4278050 143.8667040
 147.6443650  91.4345480 142.9586190 148.0812340  91.0775910 144.3634700
 150.5602680  90.3712670 144.8523240 150.2124680  89.6936660 144.2725690
 150.7615450  89.9102180 145.6666630 146.3647880 100.7320470 144.6996840
 146.8022750 101.2750140 145.3554420 146.8495610  99.9067420 144.7093180
 143.5793680 103.5209500 152.1517100 143.9096690 102.6530560 151.9195740
 144.0084680 103.7268020 152.9822060 148.1755600 101.8518510 149.8119070
 147.8751140 101.7283480 150.7122980 148.0693090 100.9927100 149.4034800
 143.9008320  96.9000320 151.2487610 143.2457160  96.6311960 150.6047310
 144.7386270  96.7904800 150.7989590 143.1146400  94.1099250 147.1912940
 142.2110480  94.3729450 147.0164600 143.5987020  94.3810420 146.4112900
 145.6573610  93.1664790 145.1007320 146.3665310  92.7448010 144.6154600
 144.9413550  93.2340020 144.4690670 145.3047770  89.2204120 144.1409970
 146.0275900  89.7613060 144.4591190 145.5772290  88.9467540 143.2651510
 149.4281690 104.3251210 153.8066330 149.9446710 103.7138570 153.2814590
 150.0779070 104.8279990 154.2977340 144.1066590 105.4280600 150.2313680
 143.9388630 104.7951280 150.9295570 143.2401100 105.6340000 149.8807870
 144.7294610  89.2597380 147.7345540 145.4873970  89.3726260 147.1609570
 144.2671780  90.0966580 147.6888970 151.2708420  91.3736650 150.7247850
 150.4582930  90.9993540 150.3843730 151.7750060  90.6181730 151.0269040
 145.7129290 104.1213830 147.6763820 145.1876910 104.5021860 146.9725780
 145.6373870 104.7464600 148.3973530 147.1019760  89.7861430 146.2747510
 147.6312520  88.9991230 146.1455460 147.7348080  90.4652620 146.5083040
 149.2957600  89.5236570 149.3292900 148.6660340  88.8223880 149.4963030
 148.7562740  90.2840700 149.1126060 148.3122260 106.0696210 146.5513070
 149.0441080 105.7855490 146.0036960 148.5715930 105.8309490 147.4412450
 147.4737050 102.1860940 146.5559400 146.8445930 102.6546040 147.1045230
 147.5884880 101.3410160 146.9905590 147.0770640  98.3265430 135.4645630
 146.2455520  98.0714140 135.8642140 147.6851620  98.3976200 136.2003550
 147.0571900 102.3605520 135.6603650 147.3599940 101.4703260 135.4813870
 147.8015490 102.9175740 135.4325900 145.4862590  93.2867320 129.2488020
 144.5979290  93.6283290 129.1467900 145.7703780  93.0867640 128.3568850
 143.4495600  95.8872970 135.1327720 144.0211710  95.1195170 135.1331360
 143.4497140  96.1861730 134.2234330 144.6920470  91.2957330 136.9196650
 144.5123310  90.3983080 137.1999410 144.2900550  91.8429200 137.5943600
 147.6623980  91.8698820 130.2826400 147.7690730  92.7702550 130.5895160
 146.7516340  91.8216790 129.9921050 145.3107140  93.7917830 135.5278990
 145.9917250  94.0556200 136.1466390 144.9955190  92.9518700 135.8617000
 149.5031710  94.8385190 134.6151580 150.0109930  95.3366160 135.2556600
 150.0344950  94.0620390 134.4390940 147.7867810  89.4783750 138.8815000
 147.7886250  89.9956140 138.0760900 146.9572120  89.0013930 138.8584930
 149.0370660  99.1178930 137.0588500 148.7040040  99.7447850 137.7009570
 149.2137340  99.6440810 136.2790170 147.4683140  91.1893710 136.8885450
 147.8099950  92.0335760 136.5939320 146.5298950  91.3377450 137.0050790
 148.2489760 101.0859730 138.8737680 148.8663760 101.7610810 138.5922130
 147.3882880 101.4947710 138.7825180 143.5422100 100.2759590 127.7544530
 143.1650080 100.7646690 127.0229430 143.7995170 100.9484870 128.3851060
 151.1511030  88.6775980 133.2130040 151.4586010  88.1222870 132.4965540
 150.2211730  88.8120440 133.0303030 149.1448430  97.2689550 132.7309890
 148.7405430  96.5566800 132.2355790 149.2311550  96.9242790 133.6197930
 149.6130130 100.9557110 134.8949100 149.3158420 100.3502580 134.2156880
 150.5629950 100.9934420 134.7838460 147.8577050  94.0432760 136.5108930
 148.4091640  94.1528100 135.7362180 148.3720560  94.4170360 137.2264160
 148.7048560 100.6938800 141.5456900 147.8077090 100.9178770 141.7930300
 148.7301430 100.8173740 140.5968300 147.5319780  97.5652120 140.1214270
 147.3927550  98.4374920 140.4901670 146.6501140  97.2224930 139.9762210
 149.3300130 103.5073820 142.3299420 149.3015560 103.9116770 141.4627850
 149.1665100 102.5784180 142.1671020 145.8453060  96.1634530 130.2316540
 145.7250660  96.8896620 129.6197810 145.5353950  95.3937440 129.7544450
 143.4838430  99.3349670 136.0385180 143.5618850  99.4698440 135.0940900
 144.0980110  98.6265560 136.2313300 144.7286060 101.0349860 132.4491360
 144.3214140 101.1764450 131.5944960 145.6199070 100.7510020 132.2462570
 149.0007720 105.2495640 130.5614030 148.8250200 104.3331180 130.3481830
 148.1463460 105.6082930 130.8011830 143.5397950 100.3763840 138.5779640
 143.7028990  99.9069200 137.7599010 144.0050400  99.8687400 139.2428480
 148.3116720  89.5069600 133.6140210 147.8684870  90.2879140 133.2824730
 148.8701710  89.8299490 134.3211150 152.5986530  92.3738120 139.2175530
 152.1365900  92.5821140 140.0295470 152.1964640  91.5597470 138.9146200
 151.4275540  89.1280300 128.4946040 150.8029720  89.1240170 129.2199350
 151.3405660  88.2611260 128.0982010 150.3492620  90.0516930 135.4729810
 150.6464950  90.9579760 135.3921830 150.8978180  89.5635710 134.8589380
 148.1030940  94.6303170 131.3421460 147.8771860  94.4140340 132.2468080
 147.3223470  95.0631630 130.9967430 150.5430150  95.5288750 142.0081730
 150.4473750  94.5883480 141.8582130 151.3862130  95.7503820 141.6129800
 145.6740690  91.9402420 140.1615510 145.2804080  92.7877630 140.3688290
 144.9859090  91.3028790 140.3524150 152.2485740  92.0237390 143.2312250
 151.5584060  91.8309590 143.8658340 152.9918040  92.3072030 143.7636550
 142.9757740  89.8630880 134.1945590 142.6870790  90.4333740 134.9070570
 143.7203500  89.3835330 134.5576820 143.1627970  93.8051000 125.4048310
 143.0802640  94.7481760 125.5463300 142.8111030  93.6625910 124.5260660
 150.9626100  92.5390030 134.4718660 150.9662160  92.0979980 133.6223200
 151.8577220  92.8607360 134.5790480 146.8128480  92.4216520 133.4312870
 146.4728530  92.8991750 134.1879920 146.0505800  91.9681640 133.0713970
 151.0246250  93.5402110 127.4625420 151.1459070  93.4988590 128.4111240
 150.6394760  94.4026260 127.3072150 150.0367750  95.8503250 126.8608720
 149.4684650  95.4021500 126.2344630 150.7456750  96.2096030 126.3273870
 145.1136930  99.7515270 140.7375450 144.7291720  99.1108940 141.3358410
 145.4249120 100.4551390 141.3070180 151.2634070  96.5991810 136.2184070
 151.6304200  96.1250380 136.9645410 151.0739130  97.4733380 136.5592410
 144.1274560  91.3435500 132.3477540 143.8421480  90.9791170 133.1856160
 144.0653420  90.6115960 131.7340680 149.0533440  95.6400450 138.5368280
 148.7490510  96.5192430 138.7618640 150.0079900  95.7000240 138.5725720
 147.5815230  99.8461440 129.1335130 146.8077490  99.3059060 128.9733850
 148.3109860  99.3268050 128.7952890 147.6252630  99.5141820 132.7713940
 148.1431300  98.7110080 132.7170830 147.1736650  99.4520960 133.6130770
 152.5122130 100.7808100 128.0441240 152.8537830 101.5250330 127.5484560
 151.6834840 101.0939220 128.4066070 145.1097170  96.4803190 139.6839640
 144.7512110  97.1457040 140.2712980 144.8151730  95.6486740 140.0552260
 148.3110290  96.9387430 142.5679190 148.0110430  97.0844610 141.6707010
 149.0821530  96.3792720 142.4752580 151.4812820 100.8621630 130.8157160
 152.1683950 101.4090840 131.1964750 150.6945240 101.4062360 130.8506770
 143.6205220  96.4794450 126.3074240 144.4900070  96.7619250 126.5910160
 143.1295540  97.2930320 126.1923050 150.7840030  97.8667660 130.4282520
 151.2402810  98.6772910 130.6542710 150.4328240  97.5490800 131.2601010
 146.6851810  88.2105310 130.9005040 146.5566440  88.2023210 131.8489960
 145.8613830  88.5488400 130.5496050 143.9876470 105.6921830 126.8735870
 144.3474110 106.2911170 126.2193140 143.8468810 106.2381720 127.6470900
 143.6845740  89.9696430 140.3611740 142.9704260  90.1693350 140.9664350
 144.1040780  89.1936000 140.7326540 143.9718330 103.9576690 141.3478270
 144.0809450 103.0171430 141.2073660 143.3198890 104.2231440 140.6992000
 151.9630920 102.2292580 142.7476390 151.6427790 101.5101820 143.2922080
 151.2889280 102.9047650 142.8212450 150.0045090 103.0753030 127.6909540
 149.9955190 103.8082720 127.0754050 149.0843450 102.8284610 127.7836500
 145.6051730  98.2967920 128.4356300 144.9979680  99.0366820 128.4451600
 146.0801080  98.3867280 127.6094500 152.9904690 103.1381270 126.3534730
 153.0916670 102.9345260 125.4236710 152.0906430 102.8839550 126.5582510
 150.5130580  93.6961630 130.3358630 149.8046730  94.1647970 130.7772240
 150.7975060  93.0383640 130.9703820 152.1386510  95.1158330 138.3351160
 152.6371760  95.5904150 139.0003010 152.2809460  94.1921850 138.5421190
 151.6322800 105.6567590 131.0482400 151.8864300 105.6188980 130.1261770
 150.6835280 105.5300920 131.0410650 148.7165600  92.0046710 127.7109340
 149.5656130  92.4416860 127.6449530 148.3496870  92.3166970 128.5381400
 147.6157020  98.2579070 126.1844870 148.3820290  98.1460430 126.7470300
 147.6931710  97.5617040 125.5321640 146.3103780  95.6904140 126.8677760
 146.3907370  94.7431650 126.9795160 147.2023530  96.0211020 126.9738420
 147.1118490 105.8399530 133.9712300 147.8480970 105.2914990 134.2420870
 147.4959410 106.7055540 133.8318290 143.9963970 101.9073100 129.8453810
 143.0703750 102.1494240 129.8359220 144.4620400 102.7347360 129.7238560
 146.1176770 105.0245600 143.1597880 146.9189500 105.3457650 143.5733280
 145.6028590 104.6641180 143.8817790 150.2220800 105.0129840 125.7937870
 151.0149410 105.3018670 125.3419660 149.7025150 104.5822010 125.1150350
 143.8374580  97.5119060 142.1033930 144.3413600  96.9326340 142.6750160
 143.0982000  97.7959290 142.6410300 150.7398200 100.2333250 125.6580220
 150.6348840  99.6185600 126.3841600 150.5722420  99.7099140 124.8743230
 150.8912520  98.9190050 141.6369450 150.1258190  99.4875050 141.5524120
 151.0728480  98.6266260 140.7437680 145.8697660  95.6548650 142.9984000
 145.9103000  95.3562520 143.9069230 146.7243160  96.0556260 142.8391520
 149.6476050  98.2544200 128.1587510 150.0692470  98.0884070 129.0018900
 149.7726890  97.4444430 127.6642650 147.8103470  94.2340750 140.9658490
 147.2799930  93.7431700 140.3381830 148.4791540  94.6624950 140.4316420
 152.1603690  97.2781810 125.4064610 152.6809350  96.5630830 125.0405760
 152.8072090  97.9167680 125.7065120 148.2975770  91.2003120 141.0455780
 148.2032640  90.5823870 140.3206650 147.7173160  91.9269410 140.8185690
 151.0637210  89.7576360 138.0783170 150.6154510  89.7800620 137.2328720
 150.4302410  89.3595380 138.6753470 151.4696760  98.6530690 138.6995610
 151.8884870  99.4963420 138.5271850 150.5505390  98.7902730 138.4702390
 148.5434950  94.3277430 125.1045670 148.3424010  93.4644790 125.4659010
 148.3727000  94.2410790 124.1667270 149.3204180 104.9583700 139.8153340
 148.7825270 105.6829760 139.4962040 149.5738140 104.4814040 139.0250680
 150.5729430  92.9268220 141.3409270 151.1629120  92.6184070 142.0287090
 149.7549670  92.4547970 141.4969170 147.3417750  91.4278050 125.0923550
 147.6443650  91.4345480 124.1842700 148.0812340  91.0775910 125.5891210
 152.1766390 106.1934910 140.0739990 152.1025090 107.0970050 140.3812360
 151.2745230 105.8746810 140.0462060 150.5602680  90.3712670 126.0779750
 150.2124680  89.6936660 125.4982200 150.7615450  89.9102180 126.8923140
 146.3647880 100.7320470 125.9253350 146.8022750 101.2750140 126.5810930
 146.8495610  99.9067420 125.9349690 143.5793680 103.5209500 133.3773610
 143.9096690 102.6530560 133.1452250 144.0084680 103.7268020 134.2078570
 148.1755600 101.8518510 131.0375580 147.8751140 101.7283480 131.9379490
 148.0693090 100.9927100 130.6291310 144.0683890 104.3880090 136.1155240
 143.6314880 104.5680890 136.9479390 144.6361570 105.1454710 135.9736960
 143.9008320  96.9000320 132.4744120 143.2457160  96.6311960 131.8303820
 144.7386270  96.7904800 132.0246100 144.9384250  97.2852890 137.0147460
 145.3057290  97.1980290 137.8943480 144.3695070  96.5219440 136.9154320
 144.4900250  94.1961980 140.9205880 143.5956300  94.1628740 141.2599590
 145.0297800  94.3948770 141.6857130 143.1146400  94.1099250 128.4169450
 142.2110480  94.3729450 128.2421110 143.5987020  94.3810420 127.6369410
 145.6573610  93.1664790 126.3263830 146.3665310  92.7448010 125.8411110
 144.9413550  93.2340020 125.6947180 145.3047770  89.2204120 125.3666480
 146.0275900  89.7613060 125.6847700 145.5772290  88.9467540 124.4908020
 144.9939960  88.4710310 135.2689100 145.6416150  87.9207690 134.8284260
 145.4141800  88.7253460 136.0904910 144.7471960  88.6265980 138.0114420
 144.3986780  89.0829800 138.7772600 144.4159660  87.7323110 138.0936850
 146.3536330 101.7985580 142.1767610 146.3105960 101.4278490 143.0582070
 146.4847340 102.7363150 142.3169430 150.0542360 103.3545170 137.7777330
 149.8133720 103.6219730 136.8907850 150.9945000 103.5250900 137.8328190
 145.4192600  88.1542180 141.2865190 145.9675590  87.9730230 140.5231300
 145.4847910  87.3636290 141.8221500 146.1924360 104.7447830 139.2965390
 145.5984680 104.6132530 140.0355430 146.1848200 103.9085970 138.8307490
 145.8236590 102.1106210 138.2473430 145.0970650 101.4911500 138.1799380
 145.8845740 102.5046820 137.3771510 149.4281690 104.3251210 135.0322840
 149.9446710 103.7138570 134.5071100 150.0779070 104.8279990 135.5233850
 152.1677190 105.2159700 135.8591820 152.4555000 104.9614000 134.9824830
 152.6800410 104.6637060 136.4497390 144.1066590 105.4280600 131.4570190
 143.9388630 104.7951280 132.1552080 143.2401100 105.6340000 131.1064380
 144.7294610  89.2597380 128.9602050 145.4873970  89.3726260 128.3866080
 144.2671780  90.0966580 128.9145480 151.2708420  91.3736650 131.9504360
 150.4582930  90.9993540 131.6100240 151.7750060  90.6181730 132.2525550
 145.7129290 104.1213830 128.9020330 145.1876910 104.5021860 128.1982290
 145.6373870 104.7464600 129.6230040 147.1019760  89.7861430 127.5004020
 147.6312520  88.9991230 127.3711970 147.7348080  90.4652620 127.7339550
 149.2957600  89.5236570 130.5549410 148.6660340  88.8223880 130.7219540
 148.7562740  90.2840700 130.3382570 152.2349550 106.1375800 143.2260020
 153.1616860 105.9020070 143.2695980 152.2199980 106.9647800 142.7446050
 149.4213160  88.8020550 142.9901900 149.1397430  89.3054150 142.2262720
 149.8032860  88.0042300 142.6244030 148.3122260 106.0696210 127.7769580
 149.0441080 105.7855490 127.2293470 148.5715930 105.8309490 128.6668960
 147.4737050 102.1860940 127.7815910 146.8445930 102.6546040 128.3301740
 147.5884880 101.3410160 128.2162100 147.0770640  98.3265430 116.6902140
 146.2455520  98.0714140 117.0898650 147.6851620  98.3976200 117.4260060
 147.0571900 102.3605520 116.8860160 147.3599940 101.4703260 116.7070380
 147.8015490 102.9175740 116.6582410 145.4862590  93.2867320 110.4744530
 144.5979290  93.6283290 110.3724410 145.7703780  93.0867640 109.5825360
 143.4495600  95.8872970 116.3584230 144.0211710  95.1195170 116.3587870
 143.4497140  96.1861730 115.4490840 144.6920470  91.2957330 118.1453160
 144.5123310  90.3983080 118.4255920 144.2900550  91.8429200 118.8200110
 147.6623980  91.8698820 111.5082910 147.7690730  92.7702550 111.8151670
 146.7516340  91.8216790 111.2177560 145.3107140  93.7917830 116.7535500
 145.9917250  94.0556200 117.3722900 144.9955190  92.9518700 117.0873510
 149.5031710  94.8385190 115.8408090 150.0109930  95.3366160 116.4813110
 150.0344950  94.0620390 115.6647450 147.7867810  89.4783750 120.1071510
 147.7886250  89.9956140 119.3017410 146.9572120  89.0013930 120.0841440
 149.0370660  99.1178930 118.2845010 148.7040040  99.7447850 118.9266080
 149.2137340  99.6440810 117.5046680 147.4683140  91.1893710 118.1141960
 147.8099950  92.0335760 117.8195830 146.5298950  91.3377450 118.2307300
 148.2489760 101.0859730 120.0994190 148.8663760 101.7610810 119.8178640
 147.3882880 101.4947710 120.0081690 143.5422100 100.2759590 108.9801040
 143.1650080 100.7646690 108.2485940 143.7995170 100.9484870 109.6107570
 151.1511030  88.6775980 114.4386550 151.4586010  88.1222870 113.7222050
 150.2211730  88.8120440 114.2559540 149.1448430  97.2689550 113.9566400
 148.7405430  96.5566800 113.4612300 149.2311550  96.9242790 114.8454440
 149.6130130 100.9557110 116.1205610 149.3158420 100.3502580 115.4413390
 150.5629950 100.9934420 116.0094970 147.8577050  94.0432760 117.7365440
 148.4091640  94.1528100 116.9618690 148.3720560  94.4170360 118.4520670
 148.7048560 100.6938800 122.7713410 147.8077090 100.9178770 123.0186810
 148.7301430 100.8173740 121.8224810 147.5319780  97.5652120 121.3470780
 147.3927550  98.4374920 121.7158180 146.6501140  97.2224930 121.2018720
 149.3300130 103.5073820 123.5555930 149.3015560 103.9116770 122.6884360
 149.1665100 102.5784180 123.3927530 145.8453060  96.1634530 111.4573050
 145.7250660  96.8896620 110.8454320 145.5353950  95.3937440 110.9800960
 143.4838430  99.3349670 117.2641690 143.5618850  99.4698440 116.3197410
 144.0980110  98.6265560 117.4569810 144.7286060 101.0349860 113.6747870
 144.3214140 101.1764450 112.8201470 145.6199070 100.7510020 113.4719080
 149.0007720 105.2495640 111.7870540 148.8250200 104.3331180 111.5738340
 148.1463460 105.6082930 112.0268340 143.5397950 100.3763840 119.8036150
 143.7028990  99.9069200 118.9855520 144.0050400  99.8687400 120.4684990
 148.3116720  89.5069600 114.8396720 147.8684870  90.2879140 114.5081240
 148.8701710  89.8299490 115.5467660 152.5986530  92.3738120 120.4432040
 152.1365900  92.5821140 121.2551980 152.1964640  91.5597470 120.1402710
 151.4275540  89.1280300 109.7202550 150.8029720  89.1240170 110.4455860
 151.3405660  88.2611260 109.3238520 150.3492620  90.0516930 116.6986320
 150.6464950  90.9579760 116.6178340 150.8978180  89.5635710 116.0845890
 148.1030940  94.6303170 112.5677970 147.8771860  94.4140340 113.4724590
 147.3223470  95.0631630 112.2223940 150.5430150  95.5288750 123.2338240
 150.4473750  94.5883480 123.0838640 151.3862130  95.7503820 122.8386310
 145.6740690  91.9402420 121.3872020 145.2804080  92.7877630 121.5944800
 144.9859090  91.3028790 121.5780660 152.2485740  92.0237390 124.4568760
 151.5584060  91.8309590 125.0914850 152.9918040  92.3072030 124.9893060
 142.9757740  89.8630880 115.4202100 142.6870790  90.4333740 116.1327080
 143.7203500  89.3835330 115.7833330 143.1627970  93.8051000 106.6304820
 143.0802640  94.7481760 106.7719810 142.8111030  93.6625910 105.7517170
 150.9626100  92.5390030 115.6975170 150.9662160  92.0979980 114.8479710
 151.8577220  92.8607360 115.8046990 146.8128480  92.4216520 114.6569380
 146.4728530  92.8991750 115.4136430 146.0505800  91.9681640 114.2970480
 151.0246250  93.5402110 108.6881930 151.1459070  93.4988590 109.6367750
 150.6394760  94.4026260 108.5328660 150.0367750  95.8503250 108.0865230
 149.4684650  95.4021500 107.4601140 150.7456750  96.2096030 107.5530380
 145.1136930  99.7515270 121.9631960 144.7291720  99.1108940 122.5614920
 145.4249120 100.4551390 122.5326690 151.2634070  96.5991810 117.4440580
 151.6304200  96.1250380 118.1901920 151.0739130  97.4733380 117.7848920
 144.1274560  91.3435500 113.5734050 143.8421480  90.9791170 114.4112670
 144.0653420  90.6115960 112.9597190 149.0533440  95.6400450 119.7624790
 148.7490510  96.5192430 119.9875150 150.0079900  95.7000240 119.7982230
 147.5815230  99.8461440 110.3591640 146.8077490  99.3059060 110.1990360
 148.3109860  99.3268050 110.0209400 147.6252630  99.5141820 113.9970450
 148.1431300  98.7110080 113.9427340 147.1736650  99.4520960 114.8387280
 152.5122130 100.7808100 109.2697750 152.8537830 101.5250330 108.7741070
 151.6834840 101.0939220 109.6322580 145.1097170  96.4803190 120.9096150
 144.7512110  97.1457040 121.4969490 144.8151730  95.6486740 121.2808770
 148.3110290  96.9387430 123.7935700 148.0110430  97.0844610 122.8963520
 149.0821530  96.3792720 123.7009090 151.4812820 100.8621630 112.0413670
 152.1683950 101.4090840 112.4221260 150.6945240 101.4062360 112.0763280
 143.6205220  96.4794450 107.5330750 144.4900070  96.7619250 107.8166670
 143.1295540  97.2930320 107.4179560 150.7840030  97.8667660 111.6539030
 151.2402810  98.6772910 111.8799220 150.4328240  97.5490800 112.4857520
 146.6851810  88.2105310 112.1261550 146.5566440  88.2023210 113.0746470
 145.8613830  88.5488400 111.7752560 143.9876470 105.6921830 108.0992380
 144.3474110 106.2911170 107.4449650 143.8468810 106.2381720 108.8727410
 143.6845740  89.9696430 121.5868250 142.9704260  90.1693350 122.1920860
 144.1040780  89.1936000 121.9583050 143.9718330 103.9576690 122.5734780
 144.0809450 103.0171430 122.4330170 143.3198890 104.2231440 121.9248510
 151.9630920 102.2292580 123.9732900 151.6427790 101.5101820 124.5178590
 151.2889280 102.9047650 124.0468960 150.0045090 103.0753030 108.9166050
 149.9955190 103.8082720 108.3010560 149.0843450 102.8284610 109.0093010
 145.6051730  98.2967920 109.6612810 144.9979680  99.0366820 109.6708110
 146.0801080  98.3867280 108.8351010 152.9904690 103.1381270 107.5791240
 153.0916670 102.9345260 106.6493220 152.0906430 102.8839550 107.7839020
 150.5130580  93.6961630 111.5615140 149.8046730  94.1647970 112.0028750
 150.7975060  93.0383640 112.1960330 152.1386510  95.1158330 119.5607670
 152.6371760  95.5904150 120.2259520 152.2809460  94.1921850 119.7677700
 151.6322800 105.6567590 112.2738910 151.8864300 105.6188980 111.3518280
 150.6835280 105.5300920 112.2667160 148.7165600  92.0046710 108.9365850
 149.5656130  92.4416860 108.8706040 148.3496870  92.3166970 109.7637910
 147.6157020  98.2579070 107.4101380 148.3820290  98.1460430 107.9726810
 147.6931710  97.5617040 106.7578150 146.3103780  95.6904140 108.0934270
 146.3907370  94.7431650 108.2051670 147.2023530  96.0211020 108.1994930
 147.1118490 105.8399530 115.1968810 147.8480970 105.2914990 115.4677380
 147.4959410 106.7055540 115.0574800 143.9963970 101.9073100 111.0710320
 143.0703750 102.1494240 111.0615730 144.4620400 102.7347360 110.9495070
 146.1176770 105.0245600 124.3854390 146.9189500 105.3457650 124.7989790
 145.6028590 104.6641180 125.1074300 150.2220800 105.0129840 107.0194380
 151.0149410 105.3018670 106.5676170 149.7025150 104.5822010 106.3406860
 143.8374580  97.5119060 123.3290440 144.3413600  96.9326340 123.9006670
 143.0982000  97.7959290 123.8666810 150.7398200 100.2333250 106.8836730
 150.6348840  99.6185600 107.6098110 150.5722420  99.7099140 106.0999740
 150.8912520  98.9190050 122.8625960 150.1258190  99.4875050 122.7780630
 151.0728480  98.6266260 121.9694190 145.8697660  95.6548650 124.2240510
 145.9103000  95.3562520 125.1325740 146.7243160  96.0556260 124.0648030
 149.6476050  98.2544200 109.3844020 150.0692470  98.0884070 110.2275410
 149.7726890  97.4444430 108.8899160 147.8103470  94.2340750 122.1915000
 147.2799930  93.7431700 121.5638340 148.4791540  94.6624950 121.6572930
 152.1603690  97.2781810 106.6321120 152.6809350  96.5630830 106.2662270
 152.8072090  97.9167680 106.9321630 148.2975770  91.2003120 122.2712290
 148.2032640  90.5823870 121.5463160 147.7173160  91.9269410 122.0442200
 151.0637210  89.7576360 119.3039680 150.6154510  89.7800620 118.4585230
 150.4302410  89.3595380 119.9009980 151.4696760  98.6530690 119.9252120
 151.8884870  99.4963420 119.7528360 150.5505390  98.7902730 119.6958900
 148.5434950  94.3277430 106.3302180 148.3424010  93.4644790 106.6915520
 148.3727000  94.2410790 105.3923780 149.3204180 104.9583700 121.0409850
 148.7825270 105.6829760 120.7218550 149.5738140 104.4814040 120.2507190
 150.5729430  92.9268220 122.5665780 151.1629120  92.6184070 123.2543600
 149.7549670  92.4547970 122.7225680 147.3417750  91.4278050 106.3180060
 147.6443650  91.4345480 105.4099210 148.0812340  91.0775910 106.8147720
 152.1766390 106.1934910 121.2996500 152.1025090 107.0970050 121.6068870
 151.2745230 105.8746810 121.2718570 150.5602680  90.3712670 107.3036260
 150.2124680  89.6936660 106.7238710 150.7615450  89.9102180 108.1179650
 146.3647880 100.7320470 107.1509860 146.8022750 101.2750140 107.8067440
 146.8495610  99.9067420 107.1606200 143.5793680 103.5209500 114.6030120
 143.9096690 102.6530560 114.3708760 144.0084680 103.7268020 115.4335080
 148.1755600 101.8518510 112.2632090 147.8751140 101.7283480 113.1636000
 148.0693090 100.9927100 111.8547820 144.0683890 104.3880090 117.3411750
 143.6314880 104.5680890 118.1735900 144.6361570 105.1454710 117.1993470
 143.9008320  96.9000320 113.7000630 143.2457160  96.6311960 113.0560330
 144.7386270  96.7904800 113.2502610 144.9384250  97.2852890 118.2403970
 145.3057290  97.1980290 119.1199990 144.3695070  96.5219440 118.1410830
 144.4900250  94.1961980 122.1462390 143.5956300  94.1628740 122.4856100
 145.0297800  94.3948770 122.9113640 143.1146400  94.1099250 109.6425960
 142.2110480  94.3729450 109.4677620 143.5987020  94.3810420 108.8625920
 145.6573610  93.1664790 107.5520340 146.3665310  92.7448010 107.0667620
 144.9413550  93.2340020 106.9203690 145.3047770  89.2204120 106.5922990
 146.0275900  89.7613060 106.9104210 145.5772290  88.9467540 105.7164530
 144.9939960  88.4710310 116.4945610 145.6416150  87.9207690 116.0540770
 145.4141800  88.7253460 117.3161420 144.7471960  88.6265980 119.2370930
 144.3986780  89.0829800 120.0029110 144.4159660  87.7323110 119.3193360
 146.3536330 101.7985580 123.4024120 146.3105960 101.4278490 124.2838580
 146.4847340 102.7363150 123.5425940 150.0542360 103.3545170 119.0033840
 149.8133720 103.6219730 118.1164360 150.9945000 103.5250900 119.0584700
 145.4192600  88.1542180 122.5121700 145.9675590  87.9730230 121.7487810
 145.4847910  87.3636290 123.0478010 146.1924360 104.7447830 120.5221900
 145.5984680 104.6132530 121.2611940 146.1848200 103.9085970 120.0564000
 145.8236590 102.1106210 119.4729940 145.0970650 101.4911500 119.4055890
 145.8845740 102.5046820 118.6028020 149.4281690 104.3251210 116.2579350
 149.9446710 103.7138570 115.7327610 150.0779070 104.8279990 116.7490360
 152.1677190 105.2159700 117.0848330 152.4555000 104.9614000 116.2081340
 152.6800410 104.6637060 117.6753900 144.1066590 105.4280600 112.6826700
 143.9388630 104.7951280 113.3808590 143.2401100 105.6340000 112.3320890
 144.7294610  89.2597380 110.1858560 145.4873970  89.3726260 109.6122590
 144.2671780  90.0966580 110.1401990 151.2708420  91.3736650 113.1760870
 150.4582930  90.9993540 112.8356750 151.7750060  90.6181730 113.4782060
 145.7129290 104.1213830 110.1276840 145.1876910 104.5021860 109.4238800
 145.6373870 104.7464600 110.8486550 147.1019760  89.7861430 108.7260530
 147.6312520  88.9991230 108.5968480 147.7348080  90.4652620 108.9596060
 149.2957600  89.5236570 111.7805920 148.6660340  88.8223880 111.9476050
 148.7562740  90.2840700 111.5639080 152.2349550 106.1375800 124.4516530
 153.1616860 105.9020070 124.4952490 152.2199980 106.9647800 123.9702560
 149.4213160  88.8020550 124.2158410 149.1397430  89.3054150 123.4519230
 149.8032860  88.0042300 123.8500540 148.3122260 106.0696210 109.0026090
 149.0441080 105.7855490 108.4549980 148.5715930 105.8309490 109.8925470
 147.4737050 102.1860940 109.0072420 146.8445930 102.6546040 109.5558250
 147.5884880 101.3410160 109.4418610 147.0770640  98.3265430  97.9158650
 146.2455520  98.0714140  98.3155160 147.6851620  98.3976200  98.6516570
 147.0571900 102.3605520  98.1116670 147.3599940 101.4703260  97.9326890
 147.8015490 102.9175740  97.8838920 145.4862590  93.2867320  91.7001040
 144.5979290  93.6283290  91.5980920 145.7703780  93.0867640  90.8081870
 143.4495600  95.8872970  97.5840740 144.0211710  95.1195170  97.5844380
 143.4497140  96.1861730  96.6747350 144.6920470  91.2957330  99.3709670
 144.5123310  90.3983080  99.6512430 144.2900550  91.8429200 100.0456620
 147.6623980  91.8698820  92.7339420 147.7690730  92.7702550  93.0408180
 146.7516340  91.8216790  92.4434070 145.3107140  93.7917830  97.9792010
 145.9917250  94.0556200  98.5979410 144.9955190  92.9518700  98.3130020
 149.5031710  94.8385190  97.0664600 150.0109930  95.3366160  97.7069620
 150.0344950  94.0620390  96.8903960 147.7867810  89.4783750 101.3328020
 147.7886250  89.9956140 100.5273920 146.9572120  89.0013930 101.3097950
 149.0370660  99.1178930  99.5101520 148.7040040  99.7447850 100.1522590
 149.2137340  99.6440810  98.7303190 147.4683140  91.1893710  99.3398470
 147.8099950  92.0335760  99.0452340 146.5298950  91.3377450  99.4563810
 148.2489760 101.0859730 101.3250700 148.8663760 101.7610810 101.0435150
 147.3882880 101.4947710 101.2338200 143.5422100 100.2759590  90.2057550
 143.1650080 100.7646690  89.4742450 143.7995170 100.9484870  90.8364080
 151.1511030  88.6775980  95.6643060 151.4586010  88.1222870  94.9478560
 150.2211730  88.8120440  95.4816050 149.1448430  97.2689550  95.1822910
 148.7405430  96.5566800  94.6868810 149.2311550  96.9242790  96.0710950
 149.6130130 100.9557110  97.3462120 149.3158420 100.3502580  96.6669900
 150.5629950 100.9934420  97.2351480 147.8577050  94.0432760  98.9621950
 148.4091640  94.1528100  98.1875200 148.3720560  94.4170360  99.6777180
 148.7048560 100.6938800 103.9969920 147.8077090 100.9178770 104.2443320
 148.7301430 100.8173740 103.0481320 147.5319780  97.5652120 102.5727290
 147.3927550  98.4374920 102.9414690 146.6501140  97.2224930 102.4275230
 149.3300130 103.5073820 104.7812440 149.3015560 103.9116770 103.9140870
 149.1665100 102.5784180 104.6184040 145.8453060  96.1634530  92.6829560
 145.7250660  96.8896620  92.0710830 145.5353950  95.3937440  92.2057470
 143.4838430  99.3349670  98.4898200 143.5618850  99.4698440  97.5453920
 144.0980110  98.6265560  98.6826320 144.7286060 101.0349860  94.9004380
 144.3214140 101.1764450  94.0457980 145.6199070 100.7510020  94.6975590
 149.0007720 105.2495640  93.0127050 148.8250200 104.3331180  92.7994850
 148.1463460 105.6082930  93.2524850 143.5397950 100.3763840 101.0292660
 143.7028990  99.9069200 100.2112030 144.0050400  99.8687400 101.6941500
 148.3116720  89.5069600  96.0653230 147.8684870  90.2879140  95.7337750
 148.8701710  89.8299490  96.7724170 152.5986530  92.3738120 101.6688550
 152.1365900  92.5821140 102.4808490 152.1964640  91.5597470 101.3659220
 151.4275540  89.1280300  90.9459060 150.8029720  89.1240170  91.6712370
 151.3405660  88.2611260  90.5495030 150.3492620  90.0516930  97.9242830
 150.6464950  90.9579760  97.8434850 150.8978180  89.5635710  97.3102400
 148.1030940  94.6303170  93.7934480 147.8771860  94.4140340  94.6981100
 147.3223470  95.0631630  93.4480450 150.5430150  95.5288750 104.4594750
 150.4473750  94.5883480 104.3095150 151.3862130  95.7503820 104.0642820
 145.6740690  91.9402420 102.6128530 145.2804080  92.7877630 102.8201310
 144.9859090  91.3028790 102.8037170 152.2485740  92.0237390 105.6825270
 151.5584060  91.8309590 106.3171360 152.9918040  92.3072030 106.2149570
 142.9757740  89.8630880  96.6458610 142.6870790  90.4333740  97.3583590
 143.7203500  89.3835330  97.0089840 143.1627970  93.8051000  87.8561330
 143.0802640  94.7481760  87.9976320 142.8111030  93.6625910  86.9773680
 150.9626100  92.5390030  96.9231680 150.9662160  92.0979980  96.0736220
 151.8577220  92.8607360  97.0303500 146.8128480  92.4216520  95.8825890
 146.4728530  92.8991750  96.6392940 146.0505800  91.9681640  95.5226990
 151.0246250  93.5402110  89.9138440 151.1459070  93.4988590  90.8624260
 150.6394760  94.4026260  89.7585170 150.0367750  95.8503250  89.3121740
 149.4684650  95.4021500  88.6857650 150.7456750  96.2096030  88.7786890
 145.1136930  99.7515270 103.1888470 144.7291720  99.1108940 103.7871430
 145.4249120 100.4551390 103.7583200 151.2634070  96.5991810  98.6697090
 151.6304200  96.1250380  99.4158430 151.0739130  97.4733380  99.0105430
 144.1274560  91.3435500  94.7990560 143.8421480  90.9791170  95.6369180
 144.0653420  90.6115960  94.1853700 149.0533440  95.6400450 100.9881300
 148.7490510  96.5192430 101.2131660 150.0079900  95.7000240 101.0238740
 147.5815230  99.8461440  91.5848150 146.8077490  99.3059060  91.4246870
 148.3109860  99.3268050  91.2465910 147.6252630  99.5141820  95.2226960
 148.1431300  98.7110080  95.1683850 147.1736650  99.4520960  96.0643790
 152.5122130 100.7808100  90.4954260 152.8537830 101.5250330  89.9997580
 151.6834840 101.0939220  90.8579090 145.1097170  96.4803190 102.1352660
 144.7512110  97.1457040 102.7226000 144.8151730  95.6486740 102.5065280
 148.3110290  96.9387430 105.0192210 148.0110430  97.0844610 104.1220030
 149.0821530  96.3792720 104.9265600 151.4812820 100.8621630  93.2670180
 152.1683950 101.4090840  93.6477770 150.6945240 101.4062360  93.3019790
 143.6205220  96.4794450  88.7587260 144.4900070  96.7619250  89.0423180
 143.1295540  97.2930320  88.6436070 150.7840030  97.8667660  92.8795540
 151.2402810  98.6772910  93.1055730 150.4328240  97.5490800  93.7114030
 146.6851810  88.2105310  93.3518060 146.5566440  88.2023210  94.3002980
 145.8613830  88.5488400  93.0009070 143.9876470 105.6921830  89.3248890
 144.3474110 106.2911170  88.6706160 143.8468810 106.2381720  90.0983920
 143.6845740  89.9696430 102.8124760 142.9704260  90.1693350 103.4177370
 144.1040780  89.1936000 103.1839560 143.9718330 103.9576690 103.7991290
 144.0809450 103.0171430 103.6586680 143.3198890 104.2231440 103.1505020
 151.9630920 102.2292580 105.1989410 151.6427790 101.5101820 105.7435100
 151.2889280 102.9047650 105.2725470 150.0045090 103.0753030  90.1422560
 149.9955190 103.8082720  89.5267070 149.0843450 102.8284610  90.2349520
 145.6051730  98.2967920  90.8869320 144.9979680  99.0366820  90.8964620
 146.0801080  98.3867280  90.0607520 152.9904690 103.1381270  88.8047750
 153.0916670 102.9345260  87.8749730 152.0906430 102.8839550  89.0095530
 150.5130580  93.6961630  92.7871650 149.8046730  94.1647970  93.2285260
 150.7975060  93.0383640  93.4216840 152.1386510  95.1158330 100.7864180
 152.6371760  95.5904150 101.4516030 152.2809460  94.1921850 100.9934210
 151.6322800 105.6567590  93.4995420 151.8864300 105.6188980  92.5774790
 150.6835280 105.5300920  93.4923670 148.7165600  92.0046710  90.1622360
 149.5656130  92.4416860  90.0962550 148.3496870  92.3166970  90.9894420
 147.6157020  98.2579070  88.6357890 148.3820290  98.1460430  89.1983320
 147.6931710  97.5617040  87.9834660 146.3103780  95.6904140  89.3190780
 146.3907370  94.7431650  89.4308180 147.2023530  96.0211020  89.4251440
 147.1118490 105.8399530  96.4225320 147.8480970 105.2914990  96.6933890
 147.4959410 106.7055540  96.2831310 143.9963970 101.9073100  92.2966830
 143.0703750 102.1494240  92.2872240 144.4620400 102.7347360  92.1751580
 146.1176770 105.0245600 105.6110900 146.9189500 105.3457650 106.0246300
 145.6028590 104.6641180 106.3330810 150.2220800 105.0129840  88.2450890
 151.0149410 105.3018670  87.7932680 149.7025150 104.5822010  87.5663370
 143.8374580  97.5119060 104.5546950 144.3413600  96.9326340 105.1263180
 143.0982000  97.7959290 105.0923320 150.7398200 100.2333250  88.1093240
 150.6348840  99.6185600  88.8354620 150.5722420  99.7099140  87.3256250
 150.8912520  98.9190050 104.0882470 150.1258190  99.4875050 104.0037140
 151.0728480  98.6266260 103.1950700 145.8697660  95.6548650 105.4497020
 145.9103000  95.3562520 106.3582250 146.7243160  96.0556260 105.2904540
 149.6476050  98.2544200  90.6100530 150.0692470  98.0884070  91.4531920
 149.7726890  97.4444430  90.1155670 147.8103470  94.2340750 103.4171510
 147.2799930  93.7431700 102.7894850 148.4791540  94.6624950 102.8829440
 152.1603690  97.2781810  87.8577630 152.6809350  96.5630830  87.4918780
 152.8072090  97.9167680  88.1578140 148.2975770  91.2003120 103.4968800
 148.2032640  90.5823870 102.7719670 147.7173160  91.9269410 103.2698710
 151.0637210  89.7576360 100.5296190 150.6154510  89.7800620  99.6841740
 150.4302410  89.3595380 101.1266490 151.4696760  98.6530690 101.1508630
 151.8884870  99.4963420 100.9784870 150.5505390  98.7902730 100.9215410
 148.5434950  94.3277430  87.5558690 148.3424010  93.4644790  87.9172030
 148.3727000  94.2410790  86.6180290 149.3204180 104.9583700 102.2666360
 148.7825270 105.6829760 101.9475060 149.5738140 104.4814040 101.4763700
 150.5729430  92.9268220 103.7922290 151.1629120  92.6184070 104.4800110
 149.7549670  92.4547970 103.9482190 147.3417750  91.4278050  87.5436570
 147.6443650  91.4345480  86.6355720 148.0812340  91.0775910  88.0404230
 152.1766390 106.1934910 102.5253010 152.1025090 107.0970050 102.8325380
 151.2745230 105.8746810 102.4975080 150.5602680  90.3712670  88.5292770
 150.2124680  89.6936660  87.9495220 150.7615450  89.9102180  89.3436160
 146.3647880 100.7320470  88.3766370 146.8022750 101.2750140  89.0323950
 146.8495610  99.9067420  88.3862710 143.5793680 103.5209500  95.8286630
 143.9096690 102.6530560  95.5965270 144.0084680 103.7268020  96.6591590
 148.1755600 101.8518510  93.4888600 147.8751140 101.7283480  94.3892510
 148.0693090 100.9927100  93.0804330 144.0683890 104.3880090  98.5668260
 143.6314880 104.5680890  99.3992410 144.6361570 105.1454710  98.4249980
 143.9008320  96.9000320  94.9257140 143.2457160  96.6311960  94.2816840
 144.7386270  96.7904800  94.4759120 144.9384250  97.2852890  99.4660480
 145.3057290  97.1980290 100.3456500 144.3695070  96.5219440  99.3667340
 144.4900250  94.1961980 103.3718900 143.5956300  94.1628740 103.7112610
 145.0297800  94.3948770 104.1370150 143.1146400  94.1099250  90.8682470
 142.2110480  94.3729450  90.6934130 143.5987020  94.3810420  90.0882430
 145.6573610  93.1664790  88.7776850 146.3665310  92.7448010  88.2924130
 144.9413550  93.2340020  88.1460200 145.3047770  89.2204120  87.8179500
 146.0275900  89.7613060  88.1360720 145.5772290  88.9467540  86.9421040
 144.9939960  88.4710310  97.7202120 145.6416150  87.9207690  97.2797280
 145.4141800  88.7253460  98.5417930 144.7471960  88.6265980 100.4627440
 144.3986780  89.0829800 101.2285620 144.4159660  87.7323110 100.5449870
 146.3536330 101.7985580 104.6280630 146.3105960 101.4278490 105.5095090
 146.4847340 102.7363150 104.7682450 150.0542360 103.3545170 100.2290350
 149.8133720 103.6219730  99.3420870 150.9945000 103.5250900 100.2841210
 145.4192600  88.1542180 103.7378210 145.9675590  87.9730230 102.9744320
 145.4847910  87.3636290 104.2734520 146.1924360 104.7447830 101.7478410
 145.5984680 104.6132530 102.4868450 146.1848200 103.9085970 101.2820510
 145.8236590 102.1106210 100.6986450 145.0970650 101.4911500 100.6312400
 145.8845740 102.5046820  99.8284530 149.4281690 104.3251210  97.4835860
 149.9446710 103.7138570  96.9584120 150.0779070 104.8279990  97.9746870
 152.1677190 105.2159700  98.3104840 152.4555000 104.9614000  97.4337850
 152.6800410 104.6637060  98.9010410 144.1066590 105.4280600  93.9083210
 143.9388630 104.7951280  94.6065100 143.2401100 105.6340000  93.5577400
 144.7294610  89.2597380  91.4115070 145.4873970  89.3726260  90.8379100
 144.2671780  90.0966580  91.3658500 151.2708420  91.3736650  94.4017380
 150.4582930  90.9993540  94.0613260 151.7750060  90.6181730  94.7038570
 145.7129290 104.1213830  91.3533350 145.1876910 104.5021860  90.6495310
 145.6373870 104.7464600  92.0743060 147.1019760  89.7861430  89.9517040
 147.6312520  88.9991230  89.8224990 147.7348080  90.4652620  90.1852570
 149.2957600  89.5236570  93.0062430 148.6660340  88.8223880  93.1732560
 148.7562740  90.2840700  92.7895590 152.2349550 106.1375800 105.6773040
 153.1616860 105.9020070 105.7209000 152.2199980 106.9647800 105.1959070
 149.4213160  88.8020550 105.4414920 149.1397430  89.3054150 104.6775740
 149.8032860  88.0042300 105.0757050 148.3122260 106.0696210  90.2282600
 149.0441080 105.7855490  89.6806490 148.5715930 105.8309490  91.1181980
 147.4737050 102.1860940  90.2328930 146.8445930 102.6546040  90.7814760
 147.5884880 101.3410160  90.6675120 147.0770640  98.3265430  79.1415160
 146.2455520  98.0714140  79.5411670 147.6851620  98.3976200  79.8773080
 147.0571900 102.3605520  79.3373180 147.3599940 101.4703260  79.1583400
 147.8015490 102.9175740  79.1095430 145.4862590  93.2867320  72.9257550
 144.5979290  93.6283290  72.8237430 145.7703780  93.0867640  72.0338380
 143.4495600  95.8872970  78.8097250 144.0211710  95.1195170  78.8100890
 143.4497140  96.1861730  77.9003860 144.6920470  91.2957330  80.5966180
 144.5123310  90.3983080  80.8768940 144.2900550  91.8429200  81.2713130
 147.6623980  91.8698820  73.9595930 147.7690730  92.7702550  74.2664690
 146.7516340  91.8216790  73.6690580 145.3107140  93.7917830  79.2048520
 145.9917250  94.0556200  79.8235920 144.9955190  92.9518700  79.5386530
 149.5031710  94.8385190  78.2921110 150.0109930  95.3366160  78.9326130
 150.0344950  94.0620390  78.1160470 147.7867810  89.4783750  82.5584530
 147.7886250  89.9956140  81.7530430 146.9572120  89.0013930  82.5354460
 149.0370660  99.1178930  80.7358030 148.7040040  99.7447850  81.3779100
 149.2137340  99.6440810  79.9559700 147.4683140  91.1893710  80.5654980
 147.8099950  92.0335760  80.2708850 146.5298950  91.3377450  80.6820320
 148.2489760 101.0859730  82.5507210 148.8663760 101.7610810  82.2691660
 147.3882880 101.4947710  82.4594710 143.5422100 100.2759590  71.4314060
 143.1650080 100.7646690  70.6998960 143.7995170 100.9484870  72.0620590
 151.1511030  88.6775980  76.8899570 151.4586010  88.1222870  76.1735070
 150.2211730  88.8120440  76.7072560 149.1448430  97.2689550  76.4079420
 148.7405430  96.5566800  75.9125320 149.2311550  96.9242790  77.2967460
 149.6130130 100.9557110  78.5718630 149.3158420 100.3502580  77.8926410
 150.5629950 100.9934420  78.4607990 147.8577050  94.0432760  80.1878460
 148.4091640  94.1528100  79.4131710 148.3720560  94.4170360  80.9033690
 148.7048560 100.6938800  85.2226430 147.8077090 100.9178770  85.4699830
 148.7301430 100.8173740  84.2737830 147.5319780  97.5652120  83.7983800
 147.3927550  98.4374920  84.1671200 146.6501140  97.2224930  83.6531740
 149.3300130 103.5073820  86.0068950 149.3015560 103.9116770  85.1397380
 149.1665100 102.5784180  85.8440550 145.8453060  96.1634530  73.9086070
 145.7250660  96.8896620  73.2967340 145.5353950  95.3937440  73.4313980
 143.4838430  99.3349670  79.7154710 143.5618850  99.4698440  78.7710430
 144.0980110  98.6265560  79.9082830 144.7286060 101.0349860  76.1260890
 144.3214140 101.1764450  75.2714490 145.6199070 100.7510020  75.9232100
 149.0007720 105.2495640  74.2383560 148.8250200 104.3331180  74.0251360
 148.1463460 105.6082930  74.4781360 143.5397950 100.3763840  82.2549170
 143.7028990  99.9069200  81.4368540 144.0050400  99.8687400  82.9198010
 148.3116720  89.5069600  77.2909740 147.8684870  90.2879140  76.9594260
 148.8701710  89.8299490  77.9980680 152.5986530  92.3738120  82.8945060
 152.1365900  92.5821140  83.7065000 152.1964640  91.5597470  82.5915730
 151.4275540  89.1280300  72.1715570 150.8029720  89.1240170  72.8968880
 151.3405660  88.2611260  71.7751540 150.3492620  90.0516930  79.1499340
 150.6464950  90.9579760  79.0691360 150.8978180  89.5635710  78.5358910
 148.1030940  94.6303170  75.0190990 147.8771860  94.4140340  75.9237610
 147.3223470  95.0631630  74.6736960 150.5430150  95.5288750  85.6851260
 150.4473750  94.5883480  85.5351660 151.3862130  95.7503820  85.2899330
 145.6740690  91.9402420  83.8385040 145.2804080  92.7877630  84.0457820
 144.9859090  91.3028790  84.0293680 152.2485740  92.0237390  86.9081780
 151.5584060  91.8309590  87.5427870 152.9918040  92.3072030  87.4406080
 142.9757740  89.8630880  77.8715120 142.6870790  90.4333740  78.5840100
 143.7203500  89.3835330  78.2346350 143.1627970  93.8051000  69.0817840
 143.0802640  94.7481760  69.2232830 142.8111030  93.6625910  68.2030190
 150.9626100  92.5390030  78.1488190 150.9662160  92.0979980  77.2992730
 151.8577220  92.8607360  78.2560010 146.8128480  92.4216520  77.1082400
 146.4728530  92.8991750  77.8649450 146.0505800  91.9681640  76.7483500
 151.0246250  93.5402110  71.1394950 151.1459070  93.4988590  72.0880770
 150.6394760  94.4026260  70.9841680 150.0367750  95.8503250  70.5378250
 149.4684650  95.4021500  69.9114160 150.7456750  96.2096030  70.0043400
 145.1136930  99.7515270  84.4144980 144.7291720  99.1108940  85.0127940
 145.4249120 100.4551390  84.9839710 151.2634070  96.5991810  79.8953600
 151.6304200  96.1250380  80.6414940 151.0739130  97.4733380  80.2361940
 144.1274560  91.3435500  76.0247070 143.8421480  90.9791170  76.8625690
 144.0653420  90.6115960  75.4110210 149.0533440  95.6400450  82.2137810
 148.7490510  96.5192430  82.4388170 150.0079900  95.7000240  82.2495250
 147.5815230  99.8461440  72.8104660 146.8077490  99.3059060  72.6503380
 148.3109860  99.3268050  72.4722420 147.6252630  99.5141820  76.4483470
 148.1431300  98.7110080  76.3940360 147.1736650  99.4520960  77.2900300
 152.5122130 100.7808100  71.7210770 152.8537830 101.5250330  71.2254090
 151.6834840 101.0939220  72.0835600 145.1097170  96.4803190  83.3609170
 144.7512110  97.1457040  83.9482510 144.8151730  95.6486740  83.7321790
 148.3110290  96.9387430  86.2448720 148.0110430  97.0844610  85.3476540
 149.0821530  96.3792720  86.1522110 151.4812820 100.8621630  74.4926690
 152.1683950 101.4090840  74.8734280 150.6945240 101.4062360  74.5276300
 143.6205220  96.4794450  69.9843770 144.4900070  96.7619250  70.2679690
 143.1295540  97.2930320  69.8692580 150.7840030  97.8667660  74.1052050
 151.2402810  98.6772910  74.3312240 150.4328240  97.5490800  74.9370540
 146.6851810  88.2105310  74.5774570 146.5566440  88.2023210  75.5259490
 145.8613830  88.5488400  74.2265580 143.9876470 105.6921830  70.5505400
 144.3474110 106.2911170  69.8962670 143.8468810 106.2381720  71.3240430
 143.6845740  89.9696430  84.0381270 142.9704260  90.1693350  84.6433880
 144.1040780  89.1936000  84.4096070 143.9718330 103.9576690  85.0247800
 144.0809450 103.0171430  84.8843190 143.3198890 104.2231440  84.3761530
 151.9630920 102.2292580  86.4245920 151.6427790 101.5101820  86.9691610
 151.2889280 102.9047650  86.4981980 150.0045090 103.0753030  71.3679070
 149.9955190 103.8082720  70.7523580 149.0843450 102.8284610  71.4606030
 145.6051730  98.2967920  72.1125830 144.9979680  99.0366820  72.1221130
 146.0801080  98.3867280  71.2864030 152.9904690 103.1381270  70.0304260
 153.0916670 102.9345260  69.1006240 152.0906430 102.8839550  70.2352040
 150.5130580  93.6961630  74.0128160 149.8046730  94.1647970  74.4541770
 150.7975060  93.0383640  74.6473350 152.1386510  95.1158330  82.0120690
 152.6371760  95.5904150  82.6772540 152.2809460  94.1921850  82.2190720
 151.6322800 105.6567590  74.7251930 151.8864300 105.6188980  73.8031300
 150.6835280 105.5300920  74.7180180 148.7165600  92.0046710  71.3878870
 149.5656130  92.4416860  71.3219060 148.3496870  92.3166970  72.2150930
 147.6157020  98.2579070  69.8614400 148.3820290  98.1460430  70.4239830
 147.6931710  97.5617040  69.2091170 146.3103780  95.6904140  70.5447290
 146.3907370  94.7431650  70.6564690 147.2023530  96.0211020  70.6507950
 147.1118490 105.8399530  77.6481830 147.8480970 105.2914990  77.9190400
 147.4959410 106.7055540  77.5087820 143.9963970 101.9073100  73.5223340
 143.0703750 102.1494240  73.5128750 144.4620400 102.7347360  73.4008090
 146.1176770 105.0245600  86.8367410 146.9189500 105.3457650  87.2502810
 145.6028590 104.6641180  87.5587320 150.2220800 105.0129840  69.4707400
 151.0149410 105.3018670  69.0189190 149.7025150 104.5822010  68.7919880
 143.8374580  97.5119060  85.7803460 144.3413600  96.9326340  86.3519690
 143.0982000  97.7959290  86.3179830 150.7398200 100.2333250  69.3349750
 150.6348840  99.6185600  70.0611130 150.5722420  99.7099140  68.5512760
 150.8912520  98.9190050  85.3138980 150.1258190  99.4875050  85.2293650
 151.0728480  98.6266260  84.4207210 145.8697660  95.6548650  86.6753530
 145.9103000  95.3562520  87.5838760 146.7243160  96.0556260  86.5161050
 149.6476050  98.2544200  71.8357040 150.0692470  98.0884070  72.6788430
 149.7726890  97.4444430  71.3412180 147.8103470  94.2340750  84.6428020
 147.2799930  93.7431700  84.0151360 148.4791540  94.6624950  84.1085950
 152.1603690  97.2781810  69.0834140 152.6809350  96.5630830  68.7175290
 152.8072090  97.9167680  69.3834650 148.2975770  91.2003120  84.7225310
 148.2032640  90.5823870  83.9976180 147.7173160  91.9269410  84.4955220
 151.0637210  89.7576360  81.7552700 150.6154510  89.7800620  80.9098250
 150.4302410  89.3595380  82.3523000 151.4696760  98.6530690  82.3765140
 151.8884870  99.4963420  82.2041380 150.5505390  98.7902730  82.1471920
 148.5434950  94.3277430  68.7815200 148.3424010  93.4644790  69.1428540
 148.3727000  94.2410790  67.8436800 149.3204180 104.9583700  83.4922870
 148.7825270 105.6829760  83.1731570 149.5738140 104.4814040  82.7020210
 150.5729430  92.9268220  85.0178800 151.1629120  92.6184070  85.7056620
 149.7549670  92.4547970  85.1738700 147.3417750  91.4278050  68.7693080
 147.6443650  91.4345480  67.8612230 148.0812340  91.0775910  69.2660740
 152.1766390 106.1934910  83.7509520 152.1025090 107.0970050  84.0581890
 151.2745230 105.8746810  83.7231590 150.5602680  90.3712670  69.7549280
 150.2124680  89.6936660  69.1751730 150.7615450  89.9102180  70.5692670
 146.3647880 100.7320470  69.6022880 146.8022750 101.2750140  70.2580460
 146.8495610  99.9067420  69.6119220 143.5793680 103.5209500  77.0543140
 143.9096690 102.6530560  76.8221780 144.0084680 103.7268020  77.8848100
 148.1755600 101.8518510  74.7145110 147.8751140 101.7283480  75.6149020
 148.0693090 100.9927100  74.3060840 144.0683890 104.3880090  79.7924770
 143.6314880 104.5680890  80.6248920 144.6361570 105.1454710  79.6506490
 143.9008320  96.9000320  76.1513650 143.2457160  96.6311960  75.5073350
 144.7386270  96.7904800  75.7015630 144.9384250  97.2852890  80.6916990
 145.3057290  97.1980290  81.5713010 144.3695070  96.5219440  80.5923850
 144.4900250  94.1961980  84.5975410 143.5956300  94.1628740  84.9369120
 145.0297800  94.3948770  85.3626660 143.1146400  94.1099250  72.0938980
 142.2110480  94.3729450  71.9190640 143.5987020  94.3810420  71.3138940
 145.6573610  93.1664790  70.0033360 146.3665310  92.7448010  69.5180640
 144.9413550  93.2340020  69.3716710 145.3047770  89.2204120  69.0436010
 146.0275900  89.7613060  69.3617230 145.5772290  88.9467540  68.1677550
 144.9939960  88.4710310  78.9458630 145.6416150  87.9207690  78.5053790
 145.4141800  88.7253460  79.7674440 144.7471960  88.6265980  81.6883950
 144.3986780  89.0829800  82.4542130 144.4159660  87.7323110  81.7706380
 146.3536330 101.7985580  85.8537140 146.3105960 101.4278490  86.7351600
 146.4847340 102.7363150  85.9938960 150.0542360 103.3545170  81.4546860
 149.8133720 103.6219730  80.5677380 150.9945000 103.5250900  81.5097720
 145.4192600  88.1542180  84.9634720 145.9675590  87.9730230  84.2000830
 145.4847910  87.3636290  85.4991030 146.1924360 104.7447830  82.9734920
 145.5984680 104.6132530  83.7124960 146.1848200 103.9085970  82.5077020
 145.8236590 102.1106210  81.9242960 145.0970650 101.4911500  81.8568910
 145.8845740 102.5046820  81.0541040 149.4281690 104.3251210  78.7092370
 149.9446710 103.7138570  78.1840630 150.0779070 104.8279990  79.2003380
 152.1677190 105.2159700  79.5361350 152.4555000 104.9614000  78.6594360
 152.6800410 104.6637060  80.1266920 144.1066590 105.4280600  75.1339720
 143.9388630 104.7951280  75.8321610 143.2401100 105.6340000  74.7833910
 144.7294610  89.2597380  72.6371580 145.4873970  89.3726260  72.0635610
 144.2671780  90.0966580  72.5915010 151.2708420  91.3736650  75.6273890
 150.4582930  90.9993540  75.2869770 151.7750060  90.6181730  75.9295080
 145.7129290 104.1213830  72.5789860 145.1876910 104.5021860  71.8751820
 145.6373870 104.7464600  73.2999570 147.1019760  89.7861430  71.1773550
 147.6312520  88.9991230  71.0481500 147.7348080  90.4652620  71.4109080
 149.2957600  89.5236570  74.2318940 148.6660340  88.8223880  74.3989070
 148.7562740  90.2840700  74.0152100 152.2349550 106.1375800  86.9029550
 153.1616860 105.9020070  86.9465510 152.2199980 106.9647800  86.4215580
 149.4213160  88.8020550  86.6671430 149.1397430  89.3054150  85.9032250
 149.8032860  88.0042300  86.3013560 148.3122260 106.0696210  71.4539110
 149.0441080 105.7855490  70.9063000 148.5715930 105.8309490  72.3438490
 147.4737050 102.1860940  71.4585440 146.8445930 102.6546040  72.0071270
 147.5884880 101.3410160  71.8931630 147.0770640  98.3265430  60.3671670
 146.2455520  98.0714140  60.7668180 147.6851620  98.3976200  61.1029590
 147.0571900 102.3605520  60.5629690 147.3599940 101.4703260  60.3839910
 147.8015490 102.9175740  60.3351940 145.4862590  93.2867320  54.1514060
 144.5979290  93.6283290  54.0493940 145.7703780  93.0867640  53.2594890
 143.4495600  95.8872970  60.0353760 144.0211710  95.1195170  60.0357400
 143.4497140  96.1861730  59.1260370 144.6920470  91.2957330  61.8222690
 144.5123310  90.3983080  62.1025450 144.2900550  91.8429200  62.4969640
 147.6623980  91.8698820  55.1852440 147.7690730  92.7702550  55.4921200
 146.7516340  91.8216790  54.8947090 145.3107140  93.7917830  60.4305030
 145.9917250  94.0556200  61.0492430 144.9955190  92.9518700  60.7643040
 149.5031710  94.8385190  59.5177620 150.0109930  95.3366160  60.1582640
 150.0344950  94.0620390  59.3416980 147.7867810  89.4783750  63.7841040
 147.7886250  89.9956140  62.9786940 146.9572120  89.0013930  63.7610970
 149.0370660  99.1178930  61.9614540 148.7040040  99.7447850  62.6035610
 149.2137340  99.6440810  61.1816210 147.4683140  91.1893710  61.7911490
 147.8099950  92.0335760  61.4965360 146.5298950  91.3377450  61.9076830
 148.2489760 101.0859730  63.7763720 148.8663760 101.7610810  63.4948170
 147.3882880 101.4947710  63.6851220 143.5422100 100.2759590  52.6570570
 143.1650080 100.7646690  51.9255470 143.7995170 100.9484870  53.2877100
 151.1511030  88.6775980  58.1156080 151.4586010  88.1222870  57.3991580
 150.2211730  88.8120440  57.9329070 149.1448430  97.2689550  57.6335930
 148.7405430  96.5566800  57.1381830 149.2311550  96.9242790  58.5223970
 149.6130130 100.9557110  59.7975140 149.3158420 100.3502580  59.1182920
 150.5629950 100.9934420  59.6864500 147.8577050  94.0432760  61.4134970
 148.4091640  94.1528100  60.6388220 148.3720560  94.4170360  62.1290200
 148.7048560 100.6938800  66.4482940 147.8077090 100.9178770  66.6956340
 148.7301430 100.8173740  65.4994340 147.5319780  97.5652120  65.0240310
 147.3927550  98.4374920  65.3927710 146.6501140  97.2224930  64.8788250
 149.3300130 103.5073820  67.2325460 149.3015560 103.9116770  66.3653890
 149.1665100 102.5784180  67.0697060 145.8453060  96.1634530  55.1342580
 145.7250660  96.8896620  54.5223850 145.5353950  95.3937440  54.6570490
 143.4838430  99.3349670  60.9411220 143.5618850  99.4698440  59.9966940
 144.0980110  98.6265560  61.1339340 144.7286060 101.0349860  57.3517400
 144.3214140 101.1764450  56.4971000 145.6199070 100.7510020  57.1488610
 149.0007720 105.2495640  55.4640070 148.8250200 104.3331180  55.2507870
 148.1463460 105.6082930  55.7037870 143.5397950 100.3763840  63.4805680
 143.7028990  99.9069200  62.6625050 144.0050400  99.8687400  64.1454520
 148.3116720  89.5069600  58.5166250 147.8684870  90.2879140  58.1850770
 148.8701710  89.8299490  59.2237190 152.5986530  92.3738120  64.1201570
 152.1365900  92.5821140  64.9321510 152.1964640  91.5597470  63.8172240
 151.4275540  89.1280300  53.3972080 150.8029720  89.1240170  54.1225390
 151.3405660  88.2611260  53.0008050 150.3492620  90.0516930  60.3755850
 150.6464950  90.9579760  60.2947870 150.8978180  89.5635710  59.7615420
 148.1030940  94.6303170  56.2447500 147.8771860  94.4140340  57.1494120
 147.3223470  95.0631630  55.8993470 150.5430150  95.5288750  66.9107770
 150.4473750  94.5883480  66.7608170 151.3862130  95.7503820  66.5155840
 145.6740690  91.9402420  65.0641550 145.2804080  92.7877630  65.2714330
 144.9859090  91.3028790  65.2550190 152.2485740  92.0237390  68.1338290
 151.5584060  91.8309590  68.7684380 152.9918040  92.3072030  68.6662590
 142.9757740  89.8630880  59.0971630 142.6870790  90.4333740  59.8096610
 143.7203500  89.3835330  59.4602860 143.1627970  93.8051000  50.3074350
 143.0802640  94.7481760  50.4489340 142.8111030  93.6625910  49.4286700
 150.9626100  92.5390030  59.3744700 150.9662160  92.0979980  58.5249240
 151.8577220  92.8607360  59.4816520 146.8128480  92.4216520  58.3338910
 146.4728530  92.8991750  59.0905960 146.0505800  91.9681640  57.9740010
 151.0246250  93.5402110  52.3651460 151.1459070  93.4988590  53.3137280
 150.6394760  94.4026260  52.2098190 150.0367750  95.8503250  51.7634760
 149.4684650  95.4021500  51.1370670 150.7456750  96.2096030  51.2299910
 145.1136930  99.7515270  65.6401490 144.7291720  99.1108940  66.2384450
 145.4249120 100.4551390  66.2096220 151.2634070  96.5991810  61.1210110
 151.6304200  96.1250380  61.8671450 151.0739130  97.4733380  61.4618450
 144.1274560  91.3435500  57.2503580 143.8421480  90.9791170  58.0882200
 144.0653420  90.6115960  56.6366720 149.0533440  95.6400450  63.4394320
 148.7490510  96.5192430  63.6644680 150.0079900  95.7000240  63.4751760
 147.5815230  99.8461440  54.0361170 146.8077490  99.3059060  53.8759890
 148.3109860  99.3268050  53.6978930 147.6252630  99.5141820  57.6739980
 148.1431300  98.7110080  57.6196870 147.1736650  99.4520960  58.5156810
 152.5122130 100.7808100  52.9467280 152.8537830 101.5250330  52.4510600
 151.6834840 101.0939220  53.3092110 145.1097170  96.4803190  64.5865680
 144.7512110  97.1457040  65.1739020 144.8151730  95.6486740  64.9578300
 148.3110290  96.9387430  67.4705230 148.0110430  97.0844610  66.5733050
 149.0821530  96.3792720  67.3778620 151.4812820 100.8621630  55.7183200
 152.1683950 101.4090840  56.0990790 150.6945240 101.4062360  55.7532810
 143.6205220  96.4794450  51.2100280 144.4900070  96.7619250  51.4936200
 143.1295540  97.2930320  51.0949090 150.7840030  97.8667660  55.3308560
 151.2402810  98.6772910  55.5568750 150.4328240  97.5490800  56.1627050
 146.6851810  88.2105310  55.8031080 146.5566440  88.2023210  56.7516000
 145.8613830  88.5488400  55.4522090 143.9876470 105.6921830  51.7761910
 144.3474110 106.2911170  51.1219180 143.8468810 106.2381720  52.5496940
 143.6845740  89.9696430  65.2637780 142.9704260  90.1693350  65.8690390
 144.1040780  89.1936000  65.6352580 143.9718330 103.9576690  66.2504310
 144.0809450 103.0171430  66.1099700 143.3198890 104.2231440  65.6018040
 151.9630920 102.2292580  67.6502430 151.6427790 101.5101820  68.1948120
 151.2889280 102.9047650  67.7238490 150.0045090 103.0753030  52.5935580
 149.9955190 103.8082720  51.9780090 149.0843450 102.8284610  52.6862540
 145.6051730  98.2967920  53.3382340 144.9979680  99.0366820  53.3477640
 146.0801080  98.3867280  52.5120540 152.9904690 103.1381270  51.2560770
 153.0916670 102.9345260  50.3262750 152.0906430 102.8839550  51.4608550
 150.5130580  93.6961630  55.2384670 149.8046730  94.1647970  55.6798280
 150.7975060  93.0383640  55.8729860 152.1386510  95.1158330  63.2377200
 152.6371760  95.5904150  63.9029050 152.2809460  94.1921850  63.4447230
 151.6322800 105.6567590  55.9508440 151.8864300 105.6188980  55.0287810
 150.6835280 105.5300920  55.9436690 148.7165600  92.0046710  52.6135380
 149.5656130  92.4416860  52.5475570 148.3496870  92.3166970  53.4407440
 147.6157020  98.2579070  51.0870910 148.3820290  98.1460430  51.6496340
 147.6931710  97.5617040  50.4347680 146.3103780  95.6904140  51.7703800
 146.3907370  94.7431650  51.8821200 147.2023530  96.0211020  51.8764460
 147.1118490 105.8399530  58.8738340 147.8480970 105.2914990  59.1446910
 147.4959410 106.7055540  58.7344330 143.9963970 101.9073100  54.7479850
 143.0703750 102.1494240  54.7385260 144.4620400 102.7347360  54.6264600
 146.1176770 105.0245600  68.0623920 146.9189500 105.3457650  68.4759320
 145.6028590 104.6641180  68.7843830 150.2220800 105.0129840  50.6963910
 151.0149410 105.3018670  50.2445700 149.7025150 104.5822010  50.0176390
 143.8374580  97.5119060  67.0059970 144.3413600  96.9326340  67.5776200
 143.0982000  97.7959290  67.5436340 150.7398200 100.2333250  50.5606260
 150.6348840  99.6185600  51.2867640 150.5722420  99.7099140  49.7769270
 150.8912520  98.9190050  66.5395490 150.1258190  99.4875050  66.4550160
 151.0728480  98.6266260  65.6463720 145.8697660  95.6548650  67.9010040
 145.9103000  95.3562520  68.8095270 146.7243160  96.0556260  67.7417560
 149.6476050  98.2544200  53.0613550 150.0692470  98.0884070  53.9044940
 149.7726890  97.4444430  52.5668690 147.8103470  94.2340750  65.8684530
 147.2799930  93.7431700  65.2407870 148.4791540  94.6624950  65.3342460
 152.1603690  97.2781810  50.3090650 152.6809350  96.5630830  49.9431800
 152.8072090  97.9167680  50.6091160 148.2975770  91.2003120  65.9481820
 148.2032640  90.5823870  65.2232690 147.7173160  91.9269410  65.7211730
 151.0637210  89.7576360  62.9809210 150.6154510  89.7800620  62.1354760
 150.4302410  89.3595380  63.5779510 151.4696760  98.6530690  63.6021650
 151.8884870  99.4963420  63.4297890 150.5505390  98.7902730  63.3728430
 148.5434950  94.3277430  50.0071710 148.3424010  93.4644790  50.3685050
 148.3727000  94.2410790  49.0693310 149.3204180 104.9583700  64.7179380
 148.7825270 105.6829760  64.3988080 149.5738140 104.4814040  63.9276720
 150.5729430  92.9268220  66.2435310 151.1629120  92.6184070  66.9313130
 149.7549670  92.4547970  66.3995210 147.3417750  91.4278050  49.9949590
 147.6443650  91.4345480  49.0868740 148.0812340  91.0775910  50.4917250
 152.1766390 106.1934910  64.9766030 152.1025090 107.0970050  65.2838400
 151.2745230 105.8746810  64.9488100 150.5602680  90.3712670  50.9805790
 150.2124680  89.6936660  50.4008240 150.7615450  89.9102180  51.7949180
 146.3647880 100.7320470  50.8279390 146.8022750 101.2750140  51.4836970
 146.8495610  99.9067420  50.8375730 143.5793680 103.5209500  58.2799650
 143.9096690 102.6530560  58.0478290 144.0084680 103.7268020  59.1104610
 148.1755600 101.8518510  55.9401620 147.8751140 101.7283480  56.8405530
 148.0693090 100.9927100  55.5317350 144.0683890 104.3880090  61.0181280
 143.6314880 104.5680890  61.8505430 144.6361570 105.1454710  60.8763000
 143.9008320  96.9000320  57.3770160 143.2457160  96.6311960  56.7329860
 144.7386270  96.7904800  56.9272140 144.9384250  97.2852890  61.9173500
 145.3057290  97.1980290  62.7969520 144.3695070  96.5219440  61.8180360
 144.4900250  94.1961980  65.8231920 143.5956300  94.1628740  66.1625630
 145.0297800  94.3948770  66.5883170 143.1146400  94.1099250  53.3195490
 142.2110480  94.3729450  53.1447150 143.5987020  94.3810420  52.5395450
 145.6573610  93.1664790  51.2289870 146.3665310  92.7448010  50.7437150
 144.9413550  93.2340020  50.5973220 145.3047770  89.2204120  50.2692520
 146.0275900  89.7613060  50.5873740 145.5772290  88.9467540  49.3934060
 144.9939960  88.4710310  60.1715140 145.6416150  87.9207690  59.7310300
 145.4141800  88.7253460  60.9930950 144.7471960  88.6265980  62.9140460
 144.3986780  89.0829800  63.6798640 144.4159660  87.7323110  62.9962890
 146.3536330 101.7985580  67.0793650 146.3105960 101.4278490  67.9608110
 146.4847340 102.7363150  67.2195470 150.0542360 103.3545170  62.6803370
 149.8133720 103.6219730  61.7933890 150.9945000 103.5250900  62.7354230
 145.4192600  88.1542180  66.1891230 145.9675590  87.9730230  65.4257340
 145.4847910  87.3636290  66.7247540 146.1924360 104.7447830  64.1991430
 145.5984680 104.6132530  64.9381470 146.1848200 103.9085970  63.7333530
 145.8236590 102.1106210  63.1499470 145.0970650 101.4911500  63.0825420
 145.8845740 102.5046820  62.2797550 149.4281690 104.3251210  59.9348880
 149.9446710 103.7138570  59.4097140 150.0779070 104.8279990  60.4259890
 152.1677190 105.2159700  60.7617860 152.4555000 104.9614000  59.8850870
 152.6800410 104.6637060  61.3523430 144.1066590 105.4280600  56.3596230
 143.9388630 104.7951280  57.0578120 143.2401100 105.6340000  56.0090420
 144.7294610  89.2597380  53.8628090 145.4873970  89.3726260  53.2892120
 144.2671780  90.0966580  53.8171520 151.2708420  91.3736650  56.8530400
 150.4582930  90.9993540  56.5126280 151.7750060  90.6181730  57.1551590
 145.7129290 104.1213830  53.8046370 145.1876910 104.5021860  53.1008330
 145.6373870 104.7464600  54.5256080 147.1019760  89.7861430  52.4030060
 147.6312520  88.9991230  52.2738010 147.7348080  90.4652620  52.6365590
 149.2957600  89.5236570  55.4575450 148.6660340  88.8223880  55.6245580
 148.7562740  90.2840700  55.2408610 152.2349550 106.1375800  68.1286060
 153.1616860 105.9020070  68.1722020 152.2199980 106.9647800  67.6472090
 149.4213160  88.8020550  67.8927940 149.1397430  89.3054150  67.1288760
 149.8032860  88.0042300  67.5270070 148.3122260 106.0696210  52.6795620
 149.0441080 105.7855490  52.1319510 148.5715930 105.8309490  53.5695000
 147.4737050 102.1860940  52.6841950 146.8445930 102.6546040  53.2327780
 147.5884880 101.3410160  53.1188140 147.0770640  98.3265430  41.5928180
 146.2455520  98.0714140  41.9924690 147.6851620  98.3976200  42.3286100
 147.0571900 102.3605520  41.7886200 147.3599940 101.4703260  41.6096420
 147.8015490 102.9175740  41.5608450 145.4862590  93.2867320  35.3770570
 144.5979290  93.6283290  35.2750450 145.7703780  93.0867640  34.4851400
 143.4495600  95.8872970  41.2610270 144.0211710  95.1195170  41.2613910
 143.4497140  96.1861730  40.3516880 144.6920470  91.2957330  43.0479200
 144.5123310  90.3983080  43.3281960 144.2900550  91.8429200  43.7226150
 147.6623980  91.8698820  36.4108950 147.7690730  92.7702550  36.7177710
 146.7516340  91.8216790  36.1203600 145.3107140  93.7917830  41.6561540
 145.9917250  94.0556200  42.2748940 144.9955190  92.9518700  41.9899550
 149.5031710  94.8385190  40.7434130 150.0109930  95.3366160  41.3839150
 150.0344950  94.0620390  40.5673490 147.7867810  89.4783750  45.0097550
 147.7886250  89.9956140  44.2043450 146.9572120  89.0013930  44.9867480
 149.0370660  99.1178930  43.1871050 148.7040040  99.7447850  43.8292120
 149.2137340  99.6440810  42.4072720 147.4683140  91.1893710  43.0168000
 147.8099950  92.0335760  42.7221870 146.5298950  91.3377450  43.1333340
 148.2489760 101.0859730  45.0020230 148.8663760 101.7610810  44.7204680
 147.3882880 101.4947710  44.9107730 143.5422100 100.2759590  33.8827080
 143.1650080 100.7646690  33.1511980 143.7995170 100.9484870  34.5133610
 151.1511030  88.6775980  39.3412590 151.4586010  88.1222870  38.6248090
 150.2211730  88.8120440  39.1585580 149.1448430  97.2689550  38.8592440
 148.7405430  96.5566800  38.3638340 149.2311550  96.9242790  39.7480480
 149.6130130 100.9557110  41.0231650 149.3158420 100.3502580  40.3439430
 150.5629950 100.9934420  40.9121010 147.8577050  94.0432760  42.6391480
 148.4091640  94.1528100  41.8644730 148.3720560  94.4170360  43.3546710
 148.7048560 100.6938800  47.6739450 147.8077090 100.9178770  47.9212850
 148.7301430 100.8173740  46.7250850 147.5319780  97.5652120  46.2496820
 147.3927550  98.4374920  46.6184220 146.6501140  97.2224930  46.1044760
 149.3300130 103.5073820  48.4581970 149.3015560 103.9116770  47.5910400
 149.1665100 102.5784180  48.2953570 145.8453060  96.1634530  36.3599090
 145.7250660  96.8896620  35.7480360 145.5353950  95.3937440  35.8827000
 143.4838430  99.3349670  42.1667730 143.5618850  99.4698440  41.2223450
 144.0980110  98.6265560  42.3595850 144.7286060 101.0349860  38.5773910
 144.3214140 101.1764450  37.7227510 145.6199070 100.7510020  38.3745120
 149.0007720 105.2495640  36.6896580 148.8250200 104.3331180  36.4764380
 148.1463460 105.6082930  36.9294380 143.5397950 100.3763840  44.7062190
 143.7028990  99.9069200  43.8881560 144.0050400  99.8687400  45.3711030
 148.3116720  89.5069600  39.7422760 147.8684870  90.2879140  39.4107280
 148.8701710  89.8299490  40.4493700 152.5986530  92.3738120  45.3458080
 152.1365900  92.5821140  46.1578020 152.1964640  91.5597470  45.0428750
 151.4275540  89.1280300  34.6228590 150.8029720  89.1240170  35.3481900
 151.3405660  88.2611260  34.2264560 150.3492620  90.0516930  41.6012360
 150.6464950  90.9579760  41.5204380 150.8978180  89.5635710  40.9871930
 148.1030940  94.6303170  37.4704010 147.8771860  94.4140340  38.3750630
 147.3223470  95.0631630  37.1249980 150.5430150  95.5288750  48.1364280
 150.4473750  94.5883480  47.9864680 151.3862130  95.7503820  47.7412350
 145.6740690  91.9402420  46.2898060 145.2804080  92.7877630  46.4970840
 144.9859090  91.3028790  46.4806700 152.2485740  92.0237390  49.3594800
 151.5584060  91.8309590  49.9940890 152.9918040  92.3072030  49.8919100
 142.9757740  89.8630880  40.3228140 142.6870790  90.4333740  41.0353120
 143.7203500  89.3835330  40.6859370 143.1627970  93.8051000  31.5330860
 143.0802640  94.7481760  31.6745850 142.8111030  93.6625910  30.6543210
 150.9626100  92.5390030  40.6001210 150.9662160  92.0979980  39.7505750
 151.8577220  92.8607360  40.7073030 146.8128480  92.4216520  39.5595420
 146.4728530  92.8991750  40.3162470 146.0505800  91.9681640  39.1996520
 151.0246250  93.5402110  33.5907970 151.1459070  93.4988590  34.5393790
 150.6394760  94.4026260  33.4354700 150.0367750  95.8503250  32.9891270
 149.4684650  95.4021500  32.3627180 150.7456750  96.2096030  32.4556420
 145.1136930  99.7515270  46.8658000 144.7291720  99.1108940  47.4640960
 145.4249120 100.4551390  47.4352730 151.2634070  96.5991810  42.3466620
 151.6304200  96.1250380  43.0927960 151.0739130  97.4733380  42.6874960
 144.1274560  91.3435500  38.4760090 143.8421480  90.9791170  39.3138710
 144.0653420  90.6115960  37.8623230 149.0533440  95.6400450  44.6650830
 148.7490510  96.5192430  44.8901190 150.0079900  95.7000240  44.7008270
 147.5815230  99.8461440  35.2617680 146.8077490  99.3059060  35.1016400
 148.3109860  99.3268050  34.9235440 147.6252630  99.5141820  38.8996490
 148.1431300  98.7110080  38.8453380 147.1736650  99.4520960  39.7413320
 152.5122130 100.7808100  34.1723790 152.8537830 101.5250330  33.6767110
 151.6834840 101.0939220  34.5348620 145.1097170  96.4803190  45.8122190
 144.7512110  97.1457040  46.3995530 144.8151730  95.6486740  46.1834810
 148.3110290  96.9387430  48.6961740 148.0110430  97.0844610  47.7989560
 149.0821530  96.3792720  48.6035130 151.4812820 100.8621630  36.9439710
 152.1683950 101.4090840  37.3247300 150.6945240 101.4062360  36.9789320
 143.6205220  96.4794450  32.4356790 144.4900070  96.7619250  32.7192710
 143.1295540  97.2930320  32.3205600 150.7840030  97.8667660  36.5565070
 151.2402810  98.6772910  36.7825260 150.4328240  97.5490800  37.3883560
 146.6851810  88.2105310  37.0287590 146.5566440  88.2023210  37.9772510
 145.8613830  88.5488400  36.6778600 143.9876470 105.6921830  33.0018420
 144.3474110 106.2911170  32.3475690 143.8468810 106.2381720  33.7753450
 143.6845740  89.9696430  46.4894290 142.9704260  90.1693350  47.0946900
 144.1040780  89.1936000  46.8609090 143.9718330 103.9576690  47.4760820
 144.0809450 103.0171430  47.3356210 143.3198890 104.2231440  46.8274550
 151.9630920 102.2292580  48.8758940 151.6427790 101.5101820  49.4204630
 151.2889280 102.9047650  48.9495000 150.0045090 103.0753030  33.8192090
 149.9955190 103.8082720  33.2036600 149.0843450 102.8284610  33.9119050
 145.6051730  98.2967920  34.5638850 144.9979680  99.0366820  34.5734150
 146.0801080  98.3867280  33.7377050 152.9904690 103.1381270  32.4817280
 153.0916670 102.9345260  31.5519260 152.0906430 102.8839550  32.6865060
 150.5130580  93.6961630  36.4641180 149.8046730  94.1647970  36.9054790
 150.7975060  93.0383640  37.0986370 152.1386510  95.1158330  44.4633710
 152.6371760  95.5904150  45.1285560 152.2809460  94.1921850  44.6703740
 151.6322800 105.6567590  37.1764950 151.8864300 105.6188980  36.2544320
 150.6835280 105.5300920  37.1693200 148.7165600  92.0046710  33.8391890
 149.5656130  92.4416860  33.7732080 148.3496870  92.3166970  34.6663950
 147.6157020  98.2579070  32.3127420 148.3820290  98.1460430  32.8752850
 147.6931710  97.5617040  31.6604190 146.3103780  95.6904140  32.9960310
 146.3907370  94.7431650  33.1077710 147.2023530  96.0211020  33.1020970
 147.1118490 105.8399530  40.0994850 147.8480970 105.2914990  40.3703420
 147.4959410 106.7055540  39.9600840 143.9963970 101.9073100  35.9736360
 143.0703750 102.1494240  35.9641770 144.4620400 102.7347360  35.8521110
 146.1176770 105.0245600  49.2880430 146.9189500 105.3457650  49.7015830
 145.6028590 104.6641180  50.0100340 150.2220800 105.0129840  31.9220420
 151.0149410 105.3018670  31.4702210 149.7025150 104.5822010  31.2432900
 143.8374580  97.5119060  48.2316480 144.3413600  96.9326340  48.8032710
 143.0982000  97.7959290  48.7692850 150.7398200 100.2333250  31.7862770
 150.6348840  99.6185600  32.5124150 150.5722420  99.7099140  31.0025780
 150.8912520  98.9190050  47.7652000 150.1258190  99.4875050  47.6806670
 151.0728480  98.6266260  46.8720230 145.8697660  95.6548650  49.1266550
 145.9103000  95.3562520  50.0351780 146.7243160  96.0556260  48.9674070
 149.6476050  98.2544200  34.2870060 150.0692470  98.0884070  35.1301450
 149.7726890  97.4444430  33.7925200 147.8103470  94.2340750  47.0941040
 147.2799930  93.7431700  46.4664380 148.4791540  94.6624950  46.5598970
 152.1603690  97.2781810  31.5347160 152.6809350  96.5630830  31.1688310
 152.8072090  97.9167680  31.8347670 148.2975770  91.2003120  47.1738330
 148.2032640  90.5823870  46.4489200 147.7173160  91.9269410  46.9468240
 151.0637210  89.7576360  44.2065720 150.6154510  89.7800620  43.3611270
 150.4302410  89.3595380  44.8036020 151.4696760  98.6530690  44.8278160
 151.8884870  99.4963420  44.6554400 150.5505390  98.7902730  44.5984940
 148.5434950  94.3277430  31.2328220 148.3424010  93.4644790  31.5941560
 148.3727000  94.2410790  30.2949820 149.3204180 104.9583700  45.9435890
 148.7825270 105.6829760  45.6244590 149.5738140 104.4814040  45.1533230
 150.5729430  92.9268220  47.4691820 151.1629120  92.6184070  48.1569640
 149.7549670  92.4547970  47.6251720 147.3417750  91.4278050  31.2206100
 147.6443650  91.4345480  30.3125250 148.0812340  91.0775910  31.7173760
 152.1766390 106.1934910  46.2022540 152.1025090 107.0970050  46.5094910
 151.2745230 105.8746810  46.1744610 150.5602680  90.3712670  32.2062300
 150.2124680  89.6936660  31.6264750 150.7615450  89.9102180  33.0205690
 146.3647880 100.7320470  32.0535900 146.8022750 101.2750140  32.7093480
 146.8495610  99.9067420  32.0632240 143.5793680 103.5209500  39.5056160
 143.9096690 102.6530560  39.2734800 144.0084680 103.7268020  40.3361120
 148.1755600 101.8518510  37.1658130 147.8751140 101.7283480  38.0662040
 148.0693090 100.9927100  36.7573860 144.0683890 104.3880090  42.2437790
 143.6314880 104.5680890  43.0761940 144.6361570 105.1454710  42.1019510
 143.9008320  96.9000320  38.6026670 143.2457160  96.6311960  37.9586370
 144.7386270  96.7904800  38.1528650 144.9384250  97.2852890  43.1430010
 145.3057290  97.1980290  44.0226030 144.3695070  96.5219440  43.0436870
 144.4900250  94.1961980  47.0488430 143.5956300  94.1628740  47.3882140
 145.0297800  94.3948770  47.8139680 143.1146400  94.1099250  34.5452000
 142.2110480  94.3729450  34.3703660 143.5987020  94.3810420  33.7651960
 145.6573610  93.1664790  32.4546380 146.3665310  92.7448010  31.9693660
 144.9413550  93.2340020  31.8229730 145.3047770  89.2204120  31.4949030
 146.0275900  89.7613060  31.8130250 145.5772290  88.9467540  30.6190570
 144.9939960  88.4710310  41.3971650 145.6416150  87.9207690  40.9566810
 145.4141800  88.7253460  42.2187460 144.7471960  88.6265980  44.1396970
 144.3986780  89.0829800  44.9055150 144.4159660  87.7323110  44.2219400
 146.3536330 101.7985580  48.3050160 146.3105960 101.4278490  49.1864620
 146.4847340 102.7363150  48.4451980 150.0542360 103.3545170  43.9059880
 149.8133720 103.6219730  43.0190400 150.9945000 103.5250900  43.9610740
 145.4192600  88.1542180  47.4147740 145.9675590  87.9730230  46.6513850
 145.4847910  87.3636290  47.9504050 146.1924360 104.7447830  45.4247940
 145.5984680 104.6132530  46.1637980 146.1848200 103.9085970  44.9590040
 145.8236590 102.1106210  44.3755980 145.0970650 101.4911500  44.3081930
 145.8845740 102.5046820  43.5054060 149.4281690 104.3251210  41.1605390
 149.9446710 103.7138570  40.6353650 150.0779070 104.8279990  41.6516400
 152.1677190 105.2159700  41.9874370 152.4555000 104.9614000  41.1107380
 152.6800410 104.6637060  42.5779940 144.1066590 105.4280600  37.5852740
 143.9388630 104.7951280  38.2834630 143.2401100 105.6340000  37.2346930
 144.7294610  89.2597380  35.0884600 145.4873970  89.3726260  34.5148630
 144.2671780  90.0966580  35.0428030 151.2708420  91.3736650  38.0786910
 150.4582930  90.9993540  37.7382790 151.7750060  90.6181730  38.3808100
 145.7129290 104.1213830  35.0302880 145.1876910 104.5021860  34.3264840
 145.6373870 104.7464600  35.7512590 147.1019760  89.7861430  33.6286570
 147.6312520  88.9991230  33.4994520 147.7348080  90.4652620  33.8622100
 149.2957600  89.5236570  36.6831960 148.6660340  88.8223880  36.8502090
 148.7562740  90.2840700  36.4665120 152.2349550 106.1375800  49.3542570
 153.1616860 105.9020070  49.3978530 152.2199980 106.9647800  48.8728600
 149.4213160  88.8020550  49.1184450 149.1397430  89.3054150  48.3545270
 149.8032860  88.0042300  48.7526580 148.3122260 106.0696210  33.9052130
 149.0441080 105.7855490  33.3576020 148.5715930 105.8309490  34.7951510
 147.4737050 102.1860940  33.9098460 146.8445930 102.6546040  34.4584290
 147.5884880 101.3410160  34.3444650 147.0770640  98.3265430  22.8184690
 146.2455520  98.0714140  23.2181200 147.6851620  98.3976200  23.5542610
 147.0571900 102.3605520  23.0142710 147.3599940 101.4703260  22.8352930
 147.8015490 102.9175740  22.7864960 145.4862590  93.2867320  16.6027080
 144.5979290  93.6283290  16.5006960 145.7703780  93.0867640  15.7107910
 143.4495600  95.8872970  22.4866780 144.0211710  95.1195170  22.4870420
 143.4497140  96.1861730  21.5773390 144.6920470  91.2957330  24.2735710
 144.5123310  90.3983080  24.5538470 144.2900550  91.8429200  24.9482660
 147.6623980  91.8698820  17.6365460 147.7690730  92.7702550  17.9434220
 146.7516340  91.8216790  17.3460110 145.3107140  93.7917830  22.8818050
 145.9917250  94.0556200  23.5005450 144.9955190  92.9518700  23.2156060
 149.5031710  94.8385190  21.9690640 150.0109930  95.3366160  22.6095660
 150.0344950  94.0620390  21.7930000 147.7867810  89.4783750  26.2354060
 147.7886250  89.9956140  25.4299960 146.9572120  89.0013930  26.2123990
 149.0370660  99.1178930  24.4127560 148.7040040  99.7447850  25.0548630
 149.2137340  99.6440810  23.6329230 147.4683140  91.1893710  24.2424510
 147.8099950  92.0335760  23.9478380 146.5298950  91.3377450  24.3589850
 148.2489760 101.0859730  26.2276740 148.8663760 101.7610810  25.9461190
 147.3882880 101.4947710  26.1364240 143.5422100 100.2759590  15.1083590
 143.1650080 100.7646690  14.3768490 143.7995170 100.9484870  15.7390120
 151.1511030  88.6775980  20.5669100 151.4586010  88.1222870  19.8504600
 150.2211730  88.8120440  20.3842090 149.1448430  97.2689550  20.0848950
 148.7405430  96.5566800  19.5894850 149.2311550  96.9242790  20.9736990
 149.6130130 100.9557110  22.2488160 149.3158420 100.3502580  21.5695940
 150.5629950 100.9934420  22.1377520 147.8577050  94.0432760  23.8647990
 148.4091640  94.1528100  23.0901240 148.3720560  94.4170360  24.5803220
 148.7048560 100.6938800  28.8995960 147.8077090 100.9178770  29.1469360
 148.7301430 100.8173740  27.9507360 147.5319780  97.5652120  27.4753330
 147.3927550  98.4374920  27.8440730 146.6501140  97.2224930  27.3301270
 149.3300130 103.5073820  29.6838480 149.3015560 103.9116770  28.8166910
 149.1665100 102.5784180  29.5210080 145.8453060  96.1634530  17.5855600
 145.7250660  96.8896620  16.9736870 145.5353950  95.3937440  17.1083510
 143.4838430  99.3349670  23.3924240 143.5618850  99.4698440  22.4479960
 144.0980110  98.6265560  23.5852360 144.7286060 101.0349860  19.8030420
 144.3214140 101.1764450  18.9484020 145.6199070 100.7510020  19.6001630
 149.0007720 105.2495640  17.9153090 148.8250200 104.3331180  17.7020890
 148.1463460 105.6082930  18.1550890 143.5397950 100.3763840  25.9318700
 143.7028990  99.9069200  25.1138070 144.0050400  99.8687400  26.5967540
 148.3116720  89.5069600  20.9679270 147.8684870  90.2879140  20.6363790
 148.8701710  89.8299490  21.6750210 152.5986530  92.3738120  26.5714590
 152.1365900  92.5821140  27.3834530 152.1964640  91.5597470  26.2685260
 151.4275540  89.1280300  15.8485100 150.8029720  89.1240170  16.5738410
 151.3405660  88.2611260  15.4521070 150.3492620  90.0516930  22.8268870
 150.6464950  90.9579760  22.7460890 150.8978180  89.5635710  22.2128440
 148.1030940  94.6303170  18.6960520 147.8771860  94.4140340  19.6007140
 147.3223470  95.0631630  18.3506490 150.5430150  95.5288750  29.3620790
 150.4473750  94.5883480  29.2121190 151.3862130  95.7503820  28.9668860
 145.6740690  91.9402420  27.5154570 145.2804080  92.7877630  27.7227350
 144.9859090  91.3028790  27.7063210 152.2485740  92.0237390  30.5851310
 151.5584060  91.8309590  31.2197400 152.9918040  92.3072030  31.1175610
 142.9757740  89.8630880  21.5484650 142.6870790  90.4333740  22.2609630
 143.7203500  89.3835330  21.9115880 143.1627970  93.8051000  12.7587370
 143.0802640  94.7481760  12.9002360 142.8111030  93.6625910  11.8799720
 150.9626100  92.5390030  21.8257720 150.9662160  92.0979980  20.9762260
 151.8577220  92.8607360  21.9329540 146.8128480  92.4216520  20.7851930
 146.4728530  92.8991750  21.5418980 146.0505800  91.9681640  20.4253030
 151.0246250  93.5402110  14.8164480 151.1459070  93.4988590  15.7650300
 150.6394760  94.4026260  14.6611210 150.0367750  95.8503250  14.2147780
 149.4684650  95.4021500  13.5883690 150.7456750  96.2096030  13.6812930
 145.1136930  99.7515270  28.0914510 144.7291720  99.1108940  28.6897470
 145.4249120 100.4551390  28.6609240 151.2634070  96.5991810  23.5723130
 151.6304200  96.1250380  24.3184470 151.0739130  97.4733380  23.9131470
 144.1274560  91.3435500  19.7016600 143.8421480  90.9791170  20.5395220
 144.0653420  90.6115960  19.0879740 149.0533440  95.6400450  25.8907340
 148.7490510  96.5192430  26.1157700 150.0079900  95.7000240  25.9264780
 147.5815230  99.8461440  16.4874190 146.8077490  99.3059060  16.3272910
 148.3109860  99.3268050  16.1491950 147.6252630  99.5141820  20.1253000
 148.1431300  98.7110080  20.0709890 147.1736650  99.4520960  20.9669830
 152.5122130 100.7808100  15.3980300 152.8537830 101.5250330  14.9023620
 151.6834840 101.0939220  15.7605130 145.1097170  96.4803190  27.0378700
 144.7512110  97.1457040  27.6252040 144.8151730  95.6486740  27.4091320
 148.3110290  96.9387430  29.9218250 148.0110430  97.0844610  29.0246070
 149.0821530  96.3792720  29.8291640 151.4812820 100.8621630  18.1696220
 152.1683950 101.4090840  18.5503810 150.6945240 101.4062360  18.2045830
 143.6205220  96.4794450  13.6613300 144.4900070  96.7619250  13.9449220
 143.1295540  97.2930320  13.5462110 150.7840030  97.8667660  17.7821580
 151.2402810  98.6772910  18.0081770 150.4328240  97.5490800  18.6140070
 146.6851810  88.2105310  18.2544100 146.5566440  88.2023210  19.2029020
 145.8613830  88.5488400  17.9035110 143.9876470 105.6921830  14.2274930
 144.3474110 106.2911170  13.5732200 143.8468810 106.2381720  15.0009960
 143.6845740  89.9696430  27.7150800 142.9704260  90.1693350  28.3203410
 144.1040780  89.1936000  28.0865600 143.9718330 103.9576690  28.7017330
 144.0809450 103.0171430  28.5612720 143.3198890 104.2231440  28.0531060
 151.9630920 102.2292580  30.1015450 151.6427790 101.5101820  30.6461140
 151.2889280 102.9047650  30.1751510 150.0045090 103.0753030  15.0448600
 149.9955190 103.8082720  14.4293110 149.0843450 102.8284610  15.1375560
 145.6051730  98.2967920  15.7895360 144.9979680  99.0366820  15.7990660
 146.0801080  98.3867280  14.9633560 152.9904690 103.1381270  13.7073790
 153.0916670 102.9345260  12.7775770 152.0906430 102.8839550  13.9121570
 150.5130580  93.6961630  17.6897690 149.8046730  94.1647970  18.1311300
 150.7975060  93.0383640  18.3242880 152.1386510  95.1158330  25.6890220
 152.6371760  95.5904150  26.3542070 152.2809460  94.1921850  25.8960250
 151.6322800 105.6567590  18.4021460 151.8864300 105.6188980  17.4800830
 150.6835280 105.5300920  18.3949710 148.7165600  92.0046710  15.0648400
 149.5656130  92.4416860  14.9988590 148.3496870  92.3166970  15.8920460
 147.6157020  98.2579070  13.5383930 148.3820290  98.1460430  14.1009360
 147.6931710  97.5617040  12.8860700 146.3103780  95.6904140  14.2216820
 146.3907370  94.7431650  14.3334220 147.2023530  96.0211020  14.3277480
 147.1118490 105.8399530  21.3251360 147.8480970 105.2914990  21.5959930
 147.4959410 106.7055540  21.1857350 143.9963970 101.9073100  17.1992870
 143.0703750 102.1494240  17.1898280 144.4620400 102.7347360  17.0777620
 146.1176770 105.0245600  30.5136940 146.9189500 105.3457650  30.9272340
 145.6028590 104.6641180  31.2356850 150.2220800 105.0129840  13.1476930
 151.0149410 105.3018670  12.6958720 149.7025150 104.5822010  12.4689410
 143.8374580  97.5119060  29.4572990 144.3413600  96.9326340  30.0289220
 143.0982000  97.7959290  29.9949360 150.7398200 100.2333250  13.0119280
 150.6348840  99.6185600  13.7380660 150.5722420  99.7099140  12.2282290
 150.8912520  98.9190050  28.9908510 150.1258190  99.4875050  28.9063180
 151.0728480  98.6266260  28.0976740 145.8697660  95.6548650  30.3523060
 145.9103000  95.3562520  31.2608290 146.7243160  96.0556260  30.1930580
 149.6476050  98.2544200  15.5126570 150.0692470  98.0884070  16.3557960
 149.7726890  97.4444430  15.0181710 147.8103470  94.2340750  28.3197550
 147.2799930  93.7431700  27.6920890 148.4791540  94.6624950  27.7855480
 152.1603690  97.2781810  12.7603670 152.6809350  96.5630830  12.3944820
 152.8072090  97.9167680  13.0604180 148.2975770  91.2003120  28.3994840
 148.2032640  90.5823870  27.6745710 147.7173160  91.9269410  28.1724750
 151.0637210  89.7576360  25.4322230 150.6154510  89.7800620  24.5867780
 150.4302410  89.3595380  26.0292530 151.4696760  98.6530690  26.0534670
 151.8884870  99.4963420  25.8810910 150.5505390  98.7902730  25.8241450
 148.5434950  94.3277430  12.4584730 148.3424010  93.4644790  12.8198070
 148.3727000  94.2410790  11.5206330 149.3204180 104.9583700  27.1692400
 148.7825270 105.6829760  26.8501100 149.5738140 104.4814040  26.3789740
 150.5729430  92.9268220  28.6948330 151.1629120  92.6184070  29.3826150
 149.7549670  92.4547970  28.8508230 147.3417750  91.4278050  12.4462610
 147.6443650  91.4345480  11.5381760 148.0812340  91.0775910  12.9430270
 152.1766390 106.1934910  27.4279050 152.1025090 107.0970050  27.7351420
 151.2745230 105.8746810  27.4001120 150.5602680  90.3712670  13.4318810
 150.2124680  89.6936660  12.8521260 150.7615450  89.9102180  14.2462200
 146.3647880 100.7320470  13.2792410 146.8022750 101.2750140  13.9349990
 146.8495610  99.9067420  13.2888750 143.5793680 103.5209500  20.7312670
 143.9096690 102.6530560  20.4991310 144.0084680 103.7268020  21.5617630
 148.1755600 101.8518510  18.3914640 147.8751140 101.7283480  19.2918550
 148.0693090 100.9927100  17.9830370 144.0683890 104.3880090  23.4694300
 143.6314880 104.5680890  24.3018450 144.6361570 105.1454710  23.3276020
 143.9008320  96.9000320  19.8283180 143.2457160  96.6311960  19.1842880
 144.7386270  96.7904800  19.3785160 144.9384250  97.2852890  24.3686520
 145.3057290  97.1980290  25.2482540 144.3695070  96.5219440  24.2693380
 144.4900250  94.1961980  28.2744940 143.5956300  94.1628740  28.6138650
 145.0297800  94.3948770  29.0396190 143.1146400  94.1099250  15.7708510
 142.2110480  94.3729450  15.5960170 143.5987020  94.3810420  14.9908470
 145.6573610  93.1664790  13.6802890 146.3665310  92.7448010  13.1950170
 144.9413550  93.2340020  13.0486240 145.3047770  89.2204120  12.7205540
 146.0275900  89.7613060  13.0386760 145.5772290  88.9467540  11.8447080
 144.9939960  88.4710310  22.6228160 145.6416150  87.9207690  22.1823320
 145.4141800  88.7253460  23.4443970 144.7471960  88.6265980  25.3653480
 144.3986780  89.0829800  26.1311660 144.4159660  87.7323110  25.4475910
 146.3536330 101.7985580  29.5306670 146.3105960 101.4278490  30.4121130
 146.4847340 102.7363150  29.6708490 150.0542360 103.3545170  25.1316390
 149.8133720 103.6219730  24.2446910 150.9945000 103.5250900  25.1867250
 145.4192600  88.1542180  28.6404250 145.9675590  87.9730230  27.8770360
 145.4847910  87.3636290  29.1760560 146.1924360 104.7447830  26.6504450
 145.5984680 104.6132530  27.3894490 146.1848200 103.9085970  26.1846550
 145.8236590 102.1106210  25.6012490 145.0970650 101.4911500  25.5338440
 145.8845740 102.5046820  24.7310570 149.4281690 104.3251210  22.3861900
 149.9446710 103.7138570  21.8610160 150.0779070 104.8279990  22.8772910
 152.1677190 105.2159700  23.2130880 152.4555000 104.9614000  22.3363890
 152.6800410 104.6637060  23.8036450 144.1066590 105.4280600  18.8109250
 143.9388630 104.7951280  19.5091140 143.2401100 105.6340000  18.4603440
 144.7294610  89.2597380  16.3141110 145.4873970  89.3726260  15.7405140
 144.2671780  90.0966580  16.2684540 151.2708420  91.3736650  19.3043420
 150.4582930  90.9993540  18.9639300 151.7750060  90.6181730  19.6064610
 145.7129290 104.1213830  16.2559390 145.1876910 104.5021860  15.5521350
 145.6373870 104.7464600  16.9769100 147.1019760  89.7861430  14.8543080
 147.6312520  88.9991230  14.7251030 147.7348080  90.4652620  15.0878610
 149.2957600  89.5236570  17.9088470 148.6660340  88.8223880  18.0758600
 148.7562740  90.2840700  17.6921630 152.2349550 106.1375800  30.5799080
 153.1616860 105.9020070  30.6235040 152.2199980 106.9647800  30.0985110
 149.4213160  88.8020550  30.3440960 149.1397430  89.3054150  29.5801780
 149.8032860  88.0042300  29.9783090 148.3122260 106.0696210  15.1308640
 149.0441080 105.7855490  14.5832530 148.5715930 105.8309490  16.0208020
 147.4737050 102.1860940  15.1354970 146.8445930 102.6546040  15.6840800
 147.5884880 101.3410160  15.5701160 147.0770640  98.3265430   4.0441200
 146.2455520  98.0714140   4.4437710 147.6851620  98.3976200   4.7799120
 147.0571900 102.3605520   4.2399220 147.3599940 101.4703260   4.0609440
 147.8015490 102.9175740   4.0121470 143.4495600  95.8872970   3.7123290
 144.0211710  95.1195170   3.7126930 143.4497140  96.1861730   2.8029900
 144.6920470  91.2957330   5.4992220 144.5123310  90.3983080   5.7794980
 144.2900550  91.8429200   6.1739170 145.3107140  93.7917830   4.1074560
 145.9917250  94.0556200   4.7261960 144.9955190  92.9518700   4.4412570
 149.5031710  94.8385190   3.1947150 150.0109930  95.3366160   3.8352170
 150.0344950  94.0620390   3.0186510 147.7867810  89.4783750   7.4610570
 147.7886250  89.9956140   6.6556470 146.9572120  89.0013930   7.4380500
 149.0370660  99.1178930   5.6384070 148.7040040  99.7447850   6.2805140
 149.2137340  99.6440810   4.8585740 147.4683140  91.1893710   5.4681020
 147.8099950  92.0335760   5.1734890 146.5298950  91.3377450   5.5846360
 148.2489760 101.0859730   7.4533250 148.8663760 101.7610810   7.1717700
 147.3882880 101.4947710   7.3620750 149.6130130 100.9557110   3.4744670
 149.3158420 100.3502580   2.7952450 150.5629950 100.9934420   3.3634030
 147.8577050  94.0432760   5.0904500 148.4091640  94.1528100   4.3157750
 148.3720560  94.4170360   5.8059730 148.7048560 100.6938800  10.1252470
 147.8077090 100.9178770  10.3725870 148.7301430 100.8173740   9.1763870
 147.5319780  97.5652120   8.7009840 147.3927550  98.4374920   9.0697240
 146.6501140  97.2224930   8.5557780 149.3300130 103.5073820  10.9094990
 149.3015560 103.9116770  10.0423420 149.1665100 102.5784180  10.7466590
 143.4838430  99.3349670   4.6180750 143.5618850  99.4698440   3.6736470
 144.0980110  98.6265560   4.8108870 143.5397950 100.3763840   7.1575210
 143.7028990  99.9069200   6.3394580 144.0050400  99.8687400   7.8224050
 148.3116720  89.5069600   2.1935780 147.8684870  90.2879140   1.8620300
 148.8701710  89.8299490   2.9006720 152.5986530  92.3738120   7.7971100
 152.1365900  92.5821140   8.6091040 152.1964640  91.5597470   7.4941770
 150.3492620  90.0516930   4.0525380 150.6464950  90.9579760   3.9717400
 150.8978180  89.5635710   3.4384950 150.5430150  95.5288750  10.5877300
 150.4473750  94.5883480  10.4377700 151.3862130  95.7503820  10.1925370
 145.6740690  91.9402420   8.7411080 145.2804080  92.7877630   8.9483860
 144.9859090  91.3028790   8.9319720 152.2485740  92.0237390  11.8107820
 151.5584060  91.8309590  12.4453910 152.9918040  92.3072030  12.3432120
 142.9757740  89.8630880   2.7741160 142.6870790  90.4333740   3.4866140
 143.7203500  89.3835330   3.1372390 150.9626100  92.5390030   3.0514230
 150.9662160  92.0979980   2.2018770 151.8577220  92.8607360   3.1586050
 146.8128480  92.4216520   2.0108440 146.4728530  92.8991750   2.7675490
 146.0505800  91.9681640   1.6509540 145.1136930  99.7515270   9.3171020
 144.7291720  99.1108940   9.9153980 145.4249120 100.4551390   9.8865750
 151.2634070  96.5991810   4.7979640 151.6304200  96.1250380   5.5440980
 151.0739130  97.4733380   5.1387980 149.0533440  95.6400450   7.1163850
 148.7490510  96.5192430   7.3414210 150.0079900  95.7000240   7.1521290
 145.1097170  96.4803190   8.2635210 144.7512110  97.1457040   8.8508550
 144.8151730  95.6486740   8.6347830 148.3110290  96.9387430  11.1474760
 148.0110430  97.0844610  10.2502580 149.0821530  96.3792720  11.0548150
 143.6845740  89.9696430   8.9407310 142.9704260  90.1693350   9.5459920
 144.1040780  89.1936000   9.3122110 143.9718330 103.9576690   9.9273840
 144.0809450 103.0171430   9.7869230 143.3198890 104.2231440   9.2787570
 151.9630920 102.2292580  11.3271960 151.6427790 101.5101820  11.8717650
 151.2889280 102.9047650  11.4008020 152.1386510  95.1158330   6.9146730
 152.6371760  95.5904150   7.5798580 152.2809460  94.1921850   7.1216760
 147.1118490 105.8399530   2.5507870 147.8480970 105.2914990   2.8216440
 147.4959410 106.7055540   2.4113860 146.1176770 105.0245600  11.7393450
 146.9189500 105.3457650  12.1528850 145.6028590 104.6641180  12.4613360
 143.8374580  97.5119060  10.6829500 144.3413600  96.9326340  11.2545730
 143.0982000  97.7959290  11.2205870 150.8912520  98.9190050  10.2165020
 150.1258190  99.4875050  10.1319690 151.0728480  98.6266260   9.3233250
 145.8697660  95.6548650  11.5779570 145.9103000  95.3562520  12.4864800
 146.7243160  96.0556260  11.4187090 147.8103470  94.2340750   9.5454060
 147.2799930  93.7431700   8.9177400 148.4791540  94.6624950   9.0111990
 148.2975770  91.2003120   9.6251350 148.2032640  90.5823870   8.9002220
 147.7173160  91.9269410   9.3981260 151.0637210  89.7576360   6.6578740
 150.6154510  89.7800620   5.8124290 150.4302410  89.3595380   7.2549040
 151.4696760  98.6530690   7.2791180 151.8884870  99.4963420   7.1067420
 150.5505390  98.7902730   7.0497960 149.3204180 104.9583700   8.3948910
 148.7825270 105.6829760   8.0757610 149.5738140 104.4814040   7.6046250
 150.5729430  92.9268220   9.9204840 151.1629120  92.6184070  10.6082660
 149.7549670  92.4547970  10.0764740 152.1766390 106.1934910   8.6535560
 152.1025090 107.0970050   8.9607930 151.2745230 105.8746810   8.6257630
 143.5793680 103.5209500   1.9569180 143.9096690 102.6530560   1.7247820
 144.0084680 103.7268020   2.7874140 144.0683890 104.3880090   4.6950810
 143.6314880 104.5680890   5.5274960 144.6361570 105.1454710   4.5532530
 144.9384250  97.2852890   5.5943030 145.3057290  97.1980290   6.4739050
 144.3695070  96.5219440   5.4949890 144.4900250  94.1961980   9.5001450
 143.5956300  94.1628740   9.8395160 145.0297800  94.3948770  10.2652700
 144.9939960  88.4710310   3.8484670 145.6416150  87.9207690   3.4079830
 145.4141800  88.7253460   4.6700480 144.7471960  88.6265980   6.5909990
 144.3986780  89.0829800   7.3568170 144.4159660  87.7323110   6.6732420
 146.3536330 101.7985580  10.7563180 146.3105960 101.4278490  11.6377640
 146.4847340 102.7363150  10.8965000 150.0542360 103.3545170   6.3572900
 149.8133720 103.6219730   5.4703420 150.9945000 103.5250900   6.4123760
 145.4192600  88.1542180   9.8660760 145.9675590  87.9730230   9.1026870
 145.4847910  87.3636290  10.4017070 146.1924360 104.7447830   7.8760960
 145.5984680 104.6132530   8.6151000 146.1848200 103.9085970   7.4103060
 145.8236590 102.1106210   6.8269000 145.0970650 101.4911500   6.7594950
 145.8845740 102.5046820   5.9567080 149.4281690 104.3251210   3.6118410
 149.9446710 103.7138570   3.0866670 150.0779070 104.8279990   4.1029420
 152.1677190 105.2159700   4.4387390 152.4555000 104.9614000   3.5620400
 152.6800410 104.6637060   5.0292960 152.2349550 106.1375800  11.8055590
 153.1616860 105.9020070  11.8491550 152.2199980 106.9647800  11.3241620
 149.4213160  88.8020550  11.5697470 149.1397430  89.3054150  10.8058290
 149.8032860  88.0042300  11.2039600 147.0571900  83.5862030 154.4347140
 147.3599940  82.6959770 154.2557360 147.8015490  84.1432250 154.2069390
 145.4862590  74.5123830 148.0231510 144.5979290  74.8539800 147.9211390
 145.7703780  74.3124150 147.1312340 143.4495600  77.1129480 153.9071210
 144.0211710  76.3451680 153.9074850 143.4497140  77.4118240 152.9977820
 147.6623980  73.0955330 149.0569890 147.7690730  73.9959060 149.3638650
 146.7516340  73.0473300 148.7664540 149.5031710  76.0641700 153.3895070
 150.0109930  76.5622670 154.0300090 150.0344950  75.2876900 153.2134430
 143.5422100  81.5016100 146.5288020 143.1650080  81.9903200 145.7972920
 143.7995170  82.1741380 147.1594550 151.1511030  69.9032490 151.9873530
 151.4586010  69.3479380 151.2709030 150.2211730  70.0376950 151.8046520
 149.1448430  78.4946060 151.5053380 148.7405430  77.7823310 151.0099280
 149.2311550  78.1499300 152.3941420 149.6130130  82.1813620 153.6692590
 149.3158420  81.5759090 152.9900370 150.5629950  82.2190930 153.5581950
 145.8453060  77.3891040 149.0060030 145.7250660  78.1153130 148.3941300
 145.5353950  76.6193950 148.5287940 144.7286060  82.2606370 151.2234850
 144.3214140  82.4020960 150.3688450 145.6199070  81.9766530 151.0206060
 149.0007720  86.4752150 149.3357520 148.8250200  85.5587690 149.1225320
 148.1463460  86.8339440 149.5755320 148.3116720  70.7326110 152.3883700
 147.8684870  71.5135650 152.0568220 148.8701710  71.0556000 153.0954640
 151.4275540  70.3536810 147.2689530 150.8029720  70.3496680 147.9942840
 151.3405660  69.4867770 146.8725500 150.3492620  71.2773440 154.2473300
 150.6464950  72.1836270 154.1665320 150.8978180  70.7892220 153.6332870
 148.1030940  75.8559680 150.1164950 147.8771860  75.6396850 151.0211570
 147.3223470  76.2888140 149.7710920 142.9757740  71.0887390 152.9689080
 142.6870790  71.6590250 153.6814060 143.7203500  70.6091840 153.3320310
 143.1627970  75.0307510 144.1791800 143.0802640  75.9738270 144.3206790
 142.8111030  74.8882420 143.3004150 150.9626100  73.7646540 153.2462150
 150.9662160  73.3236490 152.3966690 151.8577220  74.0863870 153.3533970
 146.8128480  73.6473030 152.2056360 146.4728530  74.1248260 152.9623410
 146.0505800  73.1938150 151.8457460 151.0246250  74.7658620 146.2368910
 151.1459070  74.7245100 147.1854730 150.6394760  75.6282770 146.0815640
 150.0367750  77.0759760 145.6352210 149.4684650  76.6278010 145.0088120
 150.7456750  77.4352540 145.1017360 144.1274560  72.5692010 151.1221030
 143.8421480  72.2047680 151.9599650 144.0653420  71.8372470 150.5084170
 147.5815230  81.0717950 147.9078620 146.8077490  80.5315570 147.7477340
 148.3109860  80.5524560 147.5696380 147.6252630  80.7398330 151.5457430
 148.1431300  79.9366590 151.4914320 147.1736650  80.6777470 152.3874260
 152.5122130  82.0064610 146.8184730 152.8537830  82.7506840 146.3228050
 151.6834840  82.3195730 147.1809560 151.4812820  82.0878140 149.5900650
 152.1683950  82.6347350 149.9708240 150.6945240  82.6318870 149.6250260
 143.6205220  77.7050960 145.0817730 144.4900070  77.9875760 145.3653650
 143.1295540  78.5186830 144.9666540 150.7840030  79.0924170 149.2026010
 151.2402810  79.9029420 149.4286200 150.4328240  78.7747310 150.0344500
 146.6851810  69.4361820 149.6748530 146.5566440  69.4279720 150.6233450
 145.8613830  69.7744910 149.3239540 143.9876470  86.9178340 145.6479360
 144.3474110  87.5167680 144.9936630 143.8468810  87.4638230 146.4214390
 150.0045090  84.3009540 146.4653030 149.9955190  85.0339230 145.8497540
 149.0843450  84.0541120 146.5579990 145.6051730  79.5224430 147.2099790
 144.9979680  80.2623330 147.2195090 146.0801080  79.6123790 146.3837990
 152.9904690  84.3637780 145.1278220 153.0916670  84.1601770 144.1980200
 152.0906430  84.1096060 145.3326000 150.5130580  74.9218140 149.1102120
 149.8046730  75.3904480 149.5515730 150.7975060  74.2640150 149.7447310
 151.6322800  86.8824100 149.8225890 151.8864300  86.8445490 148.9005260
 150.6835280  86.7557430 149.8154140 148.7165600  73.2303220 146.4852830
 149.5656130  73.6673370 146.4193020 148.3496870  73.5423480 147.3124890
 147.6157020  79.4835580 144.9588360 148.3820290  79.3716940 145.5213790
 147.6931710  78.7873550 144.3065130 146.3103780  76.9160650 145.6421250
 146.3907370  75.9688160 145.7538650 147.2023530  77.2467530 145.7481910
 147.1118490  87.0656040 152.7455790 147.8480970  86.5171500 153.0164360
 147.4959410  87.9312050 152.6061780 143.9963970  83.1329610 148.6197300
 143.0703750  83.3750750 148.6102710 144.4620400  83.9603870 148.4982050
 150.2220800  86.2386350 144.5681360 151.0149410  86.5275180 144.1163150
 149.7025150  85.8078520 143.8893840 150.7398200  81.4589760 144.4323710
 150.6348840  80.8442110 145.1585090 150.5722420  80.9355650 143.6486720
 149.6476050  79.4800710 146.9331000 150.0692470  79.3140580 147.7762390
 149.7726890  78.6700940 146.4386140 152.1603690  78.5038320 144.1808100
 152.6809350  77.7887340 143.8149250 152.8072090  79.1424190 144.4808610
 148.5434950  75.5533940 143.8789160 148.3424010  74.6901300 144.2402500
 148.3727000  75.4667300 142.9410760 147.3417750  72.6534560 143.8667040
 147.6443650  72.6601990 142.9586190 148.0812340  72.3032420 144.3634700
 150.5602680  71.5969180 144.8523240 150.2124680  70.9193170 144.2725690
 150.7615450  71.1358690 145.6666630 146.3647880  81.9576980 144.6996840
 146.8022750  82.5006650 145.3554420 146.8495610  81.1323930 144.7093180
 143.5793680  84.7466010 152.1517100 143.9096690  83.8787070 151.9195740
 144.0084680  84.9524530 152.9822060 148.1755600  83.0775020 149.8119070
 147.8751140  82.9539990 150.7122980 148.0693090  82.2183610 149.4034800
 143.9008320  78.1256830 151.2487610 143.2457160  77.8568470 150.6047310
 144.7386270  78.0161310 150.7989590 143.1146400  75.3355760 147.1912940
 142.2110480  75.5985960 147.0164600 143.5987020  75.6066930 146.4112900
 145.6573610  74.3921300 145.1007320 146.3665310  73.9704520 144.6154600
 144.9413550  74.4596530 144.4690670 145.3047770  70.4460630 144.1409970
 146.0275900  70.9869570 144.4591190 145.5772290  70.1724050 143.2651510
 149.4281690  85.5507720 153.8066330 149.9446710  84.9395080 153.2814590
 150.0779070  86.0536500 154.2977340 144.1066590  86.6537110 150.2313680
 143.9388630  86.0207790 150.9295570 143.2401100  86.8596510 149.8807870
 144.7294610  70.4853890 147.7345540 145.4873970  70.5982770 147.1609570
 144.2671780  71.3223090 147.6888970 151.2708420  72.5993160 150.7247850
 150.4582930  72.2250050 150.3843730 151.7750060  71.8438240 151.0269040
 145.7129290  85.3470340 147.6763820 145.1876910  85.7278370 146.9725780
 145.6373870  85.9721110 148.3973530 147.1019760  71.0117940 146.2747510
 147.6312520  70.2247740 146.1455460 147.7348080  71.6909130 146.5083040
 149.2957600  70.7493080 149.3292900 148.6660340  70.0480390 149.4963030
 148.7562740  71.5097210 149.1126060 148.3122260  87.2952720 146.5513070
 149.0441080  87.0112000 146.0036960 148.5715930  87.0566000 147.4412450
 147.4737050  83.4117450 146.5559400 146.8445930  83.8802550 147.1045230
 147.5884880  82.5666670 146.9905590 147.0770640  79.5521940 135.4645630
 146.2455520  79.2970650 135.8642140 147.6851620  79.6232710 136.2003550
 147.0571900  83.5862030 135.6603650 147.3599940  82.6959770 135.4813870
 147.8015490  84.1432250 135.4325900 145.4862590  74.5123830 129.2488020
 144.5979290  74.8539800 129.1467900 145.7703780  74.3124150 128.3568850
 143.4495600  77.1129480 135.1327720 144.0211710  76.3451680 135.1331360
 143.4497140  77.4118240 134.2234330 144.6920470  72.5213840 136.9196650
 144.5123310  71.6239590 137.1999410 144.2900550  73.0685710 137.5943600
 147.6623980  73.0955330 130.2826400 147.7690730  73.9959060 130.5895160
 146.7516340  73.0473300 129.9921050 145.3107140  75.0174340 135.5278990
 145.9917250  75.2812710 136.1466390 144.9955190  74.1775210 135.8617000
 149.5031710  76.0641700 134.6151580 150.0109930  76.5622670 135.2556600
 150.0344950  75.2876900 134.4390940 147.7867810  70.7040260 138.8815000
 147.7886250  71.2212650 138.0760900 146.9572120  70.2270440 138.8584930
 149.0370660  80.3435440 137.0588500 148.7040040  80.9704360 137.7009570
 149.2137340  80.8697320 136.2790170 147.4683140  72.4150220 136.8885450
 147.8099950  73.2592270 136.5939320 146.5298950  72.5633960 137.0050790
 148.2489760  82.3116240 138.8737680 148.8663760  82.9867320 138.5922130
 147.3882880  82.7204220 138.7825180 143.5422100  81.5016100 127.7544530
 143.1650080  81.9903200 127.0229430 143.7995170  82.1741380 128.3851060
 151.1511030  69.9032490 133.2130040 151.4586010  69.3479380 132.4965540
 150.2211730  70.0376950 133.0303030 149.1448430  78.4946060 132.7309890
 148.7405430  77.7823310 132.2355790 149.2311550  78.1499300 133.6197930
 149.6130130  82.1813620 134.8949100 149.3158420  81.5759090 134.2156880
 150.5629950  82.2190930 134.7838460 147.8577050  75.2689270 136.5108930
 148.4091640  75.3784610 135.7362180 148.3720560  75.6426870 137.2264160
 148.7048560  81.9195310 141.5456900 147.8077090  82.1435280 141.7930300
 148.7301430  82.0430250 140.5968300 147.5319780  78.7908630 140.1214270
 147.3927550  79.6631430 140.4901670 146.6501140  78.4481440 139.9762210
 149.3300130  84.7330330 142.3299420 149.3015560  85.1373280 141.4627850
 149.1665100  83.8040690 142.1671020 145.8453060  77.3891040 130.2316540
 145.7250660  78.1153130 129.6197810 145.5353950  76.6193950 129.7544450
 143.4838430  80.5606180 136.0385180 143.5618850  80.6954950 135.0940900
 144.0980110  79.8522070 136.2313300 144.7286060  82.2606370 132.4491360
 144.3214140  82.4020960 131.5944960 145.6199070  81.9766530 132.2462570
 149.0007720  86.4752150 130.5614030 148.8250200  85.5587690 130.3481830
 148.1463460  86.8339440 130.8011830 143.5397950  81.6020350 138.5779640
 143.7028990  81.1325710 137.7599010 144.0050400  81.0943910 139.2428480
 148.3116720  70.7326110 133.6140210 147.8684870  71.5135650 133.2824730
 148.8701710  71.0556000 134.3211150 152.5986530  73.5994630 139.2175530
 152.1365900  73.8077650 140.0295470 152.1964640  72.7853980 138.9146200
 151.4275540  70.3536810 128.4946040 150.8029720  70.3496680 129.2199350
 151.3405660  69.4867770 128.0982010 150.3492620  71.2773440 135.4729810
 150.6464950  72.1836270 135.3921830 150.8978180  70.7892220 134.8589380
 148.1030940  75.8559680 131.3421460 147.8771860  75.6396850 132.2468080
 147.3223470  76.2888140 130.9967430 150.5430150  76.7545260 142.0081730
 150.4473750  75.8139990 141.8582130 151.3862130  76.9760330 141.6129800
 145.6740690  73.1658930 140.1615510 145.2804080  74.0134140 140.3688290
 144.9859090  72.5285300 140.3524150 152.2485740  73.2493900 143.2312250
 151.5584060  73.0566100 143.8658340 152.9918040  73.5328540 143.7636550
 142.9757740  71.0887390 134.1945590 142.6870790  71.6590250 134.9070570
 143.7203500  70.6091840 134.5576820 143.1627970  75.0307510 125.4048310
 143.0802640  75.9738270 125.5463300 142.8111030  74.8882420 124.5260660
 150.9626100  73.7646540 134.4718660 150.9662160  73.3236490 133.6223200
 151.8577220  74.0863870 134.5790480 146.8128480  73.6473030 133.4312870
 146.4728530  74.1248260 134.1879920 146.0505800  73.1938150 133.0713970
 151.0246250  74.7658620 127.4625420 151.1459070  74.7245100 128.4111240
 150.6394760  75.6282770 127.3072150 150.0367750  77.0759760 126.8608720
 149.4684650  76.6278010 126.2344630 150.7456750  77.4352540 126.3273870
 145.1136930  80.9771780 140.7375450 144.7291720  80.3365450 141.3358410
 145.4249120  81.6807900 141.3070180 151.2634070  77.8248320 136.2184070
 151.6304200  77.3506890 136.9645410 151.0739130  78.6989890 136.5592410
 144.1274560  72.5692010 132.3477540 143.8421480  72.2047680 133.1856160
 144.0653420  71.8372470 131.7340680 149.0533440  76.8656960 138.5368280
 148.7490510  77.7448940 138.7618640 150.0079900  76.9256750 138.5725720
 147.5815230  81.0717950 129.1335130 146.8077490  80.5315570 128.9733850
 148.3109860  80.5524560 128.7952890 147.6252630  80.7398330 132.7713940
 148.1431300  79.9366590 132.7170830 147.1736650  80.6777470 133.6130770
 152.5122130  82.0064610 128.0441240 152.8537830  82.7506840 127.5484560
 151.6834840  82.3195730 128.4066070 145.1097170  77.7059700 139.6839640
 144.7512110  78.3713550 140.2712980 144.8151730  76.8743250 140.0552260
 148.3110290  78.1643940 142.5679190 148.0110430  78.3101120 141.6707010
 149.0821530  77.6049230 142.4752580 151.4812820  82.0878140 130.8157160
 152.1683950  82.6347350 131.1964750 150.6945240  82.6318870 130.8506770
 143.6205220  77.7050960 126.3074240 144.4900070  77.9875760 126.5910160
 143.1295540  78.5186830 126.1923050 150.7840030  79.0924170 130.4282520
 151.2402810  79.9029420 130.6542710 150.4328240  78.7747310 131.2601010
 146.6851810  69.4361820 130.9005040 146.5566440  69.4279720 131.8489960
 145.8613830  69.7744910 130.5496050 143.9876470  86.9178340 126.8735870
 144.3474110  87.5167680 126.2193140 143.8468810  87.4638230 127.6470900
 143.6845740  71.1952940 140.3611740 142.9704260  71.3949860 140.9664350
 144.1040780  70.4192510 140.7326540 143.9718330  85.1833200 141.3478270
 144.0809450  84.2427940 141.2073660 143.3198890  85.4487950 140.6992000
 151.9630920  83.4549090 142.7476390 151.6427790  82.7358330 143.2922080
 151.2889280  84.1304160 142.8212450 150.0045090  84.3009540 127.6909540
 149.9955190  85.0339230 127.0754050 149.0843450  84.0541120 127.7836500
 145.6051730  79.5224430 128.4356300 144.9979680  80.2623330 128.4451600
 146.0801080  79.6123790 127.6094500 152.9904690  84.3637780 126.3534730
 153.0916670  84.1601770 125.4236710 152.0906430  84.1096060 126.5582510
 150.5130580  74.9218140 130.3358630 149.8046730  75.3904480 130.7772240
 150.7975060  74.2640150 130.9703820 152.1386510  76.3414840 138.3351160
 152.6371760  76.8160660 139.0003010 152.2809460  75.4178360 138.5421190
 151.6322800  86.8824100 131.0482400 151.8864300  86.8445490 130.1261770
 150.6835280  86.7557430 131.0410650 148.7165600  73.2303220 127.7109340
 149.5656130  73.6673370 127.6449530 148.3496870  73.5423480 128.5381400
 147.6157020  79.4835580 126.1844870 148.3820290  79.3716940 126.7470300
 147.6931710  78.7873550 125.5321640 146.3103780  76.9160650 126.8677760
 146.3907370  75.9688160 126.9795160 147.2023530  77.2467530 126.9738420
 147.1118490  87.0656040 133.9712300 147.8480970  86.5171500 134.2420870
 147.4959410  87.9312050 133.8318290 143.9963970  83.1329610 129.8453810
 143.0703750  83.3750750 129.8359220 144.4620400  83.9603870 129.7238560
 146.1176770  86.2502110 143.1597880 146.9189500  86.5714160 143.5733280
 145.6028590  85.8897690 143.8817790 150.2220800  86.2386350 125.7937870
 151.0149410  86.5275180 125.3419660 149.7025150  85.8078520 125.1150350
 143.8374580  78.7375570 142.1033930 144.3413600  78.1582850 142.6750160
 143.0982000  79.0215800 142.6410300 150.7398200  81.4589760 125.6580220
 150.6348840  80.8442110 126.3841600 150.5722420  80.9355650 124.8743230
 150.8912520  80.1446560 141.6369450 150.1258190  80.7131560 141.5524120
 151.0728480  79.8522770 140.7437680 145.8697660  76.8805160 142.9984000
 145.9103000  76.5819030 143.9069230 146.7243160  77.2812770 142.8391520
 149.6476050  79.4800710 128.1587510 150.0692470  79.3140580 129.0018900
 149.7726890  78.6700940 127.6642650 147.8103470  75.4597260 140.9658490
 147.2799930  74.9688210 140.3381830 148.4791540  75.8881460 140.4316420
 152.1603690  78.5038320 125.4064610 152.6809350  77.7887340 125.0405760
 152.8072090  79.1424190 125.7065120 148.2975770  72.4259630 141.0455780
 148.2032640  71.8080380 140.3206650 147.7173160  73.1525920 140.8185690
 151.0637210  70.9832870 138.0783170 150.6154510  71.0057130 137.2328720
 150.4302410  70.5851890 138.6753470 151.4696760  79.8787200 138.6995610
 151.8884870  80.7219930 138.5271850 150.5505390  80.0159240 138.4702390
 148.5434950  75.5533940 125.1045670 148.3424010  74.6901300 125.4659010
 148.3727000  75.4667300 124.1667270 149.3204180  86.1840210 139.8153340
 148.7825270  86.9086270 139.4962040 149.5738140  85.7070550 139.0250680
 150.5729430  74.1524730 141.3409270 151.1629120  73.8440580 142.0287090
 149.7549670  73.6804480 141.4969170 147.3417750  72.6534560 125.0923550
 147.6443650  72.6601990 124.1842700 148.0812340  72.3032420 125.5891210
 152.1766390  87.4191420 140.0739990 152.1025090  88.3226560 140.3812360
 151.2745230  87.1003320 140.0462060 150.5602680  71.5969180 126.0779750
 150.2124680  70.9193170 125.4982200 150.7615450  71.1358690 126.8923140
 146.3647880  81.9576980 125.9253350 146.8022750  82.5006650 126.5810930
 146.8495610  81.1323930 125.9349690 143.5793680  84.7466010 133.3773610
 143.9096690  83.8787070 133.1452250 144.0084680  84.9524530 134.2078570
 148.1755600  83.0775020 131.0375580 147.8751140  82.9539990 131.9379490
 148.0693090  82.2183610 130.6291310 144.0683890  85.6136600 136.1155240
 143.6314880  85.7937400 136.9479390 144.6361570  86.3711220 135.9736960
 143.9008320  78.1256830 132.4744120 143.2457160  77.8568470 131.8303820
 144.7386270  78.0161310 132.0246100 144.9384250  78.5109400 137.0147460
 145.3057290  78.4236800 137.8943480 144.3695070  77.7475950 136.9154320
 144.4900250  75.4218490 140.9205880 143.5956300  75.3885250 141.2599590
 145.0297800  75.6205280 141.6857130 143.1146400  75.3355760 128.4169450
 142.2110480  75.5985960 128.2421110 143.5987020  75.6066930 127.6369410
 145.6573610  74.3921300 126.3263830 146.3665310  73.9704520 125.8411110
 144.9413550  74.4596530 125.6947180 145.3047770  70.4460630 125.3666480
 146.0275900  70.9869570 125.6847700 145.5772290  70.1724050 124.4908020
 144.9939960  69.6966820 135.2689100 145.6416150  69.1464200 134.8284260
 145.4141800  69.9509970 136.0904910 144.7471960  69.8522490 138.0114420
 144.3986780  70.3086310 138.7772600 144.4159660  68.9579620 138.0936850
 146.3536330  83.0242090 142.1767610 146.3105960  82.6535000 143.0582070
 146.4847340  83.9619660 142.3169430 150.0542360  84.5801680 137.7777330
 149.8133720  84.8476240 136.8907850 150.9945000  84.7507410 137.8328190
 145.4192600  69.3798690 141.2865190 145.9675590  69.1986740 140.5231300
 145.4847910  68.5892800 141.8221500 146.1924360  85.9704340 139.2965390
 145.5984680  85.8389040 140.0355430 146.1848200  85.1342480 138.8307490
 145.8236590  83.3362720 138.2473430 145.0970650  82.7168010 138.1799380
 145.8845740  83.7303330 137.3771510 149.4281690  85.5507720 135.0322840
 149.9446710  84.9395080 134.5071100 150.0779070  86.0536500 135.5233850
 152.1677190  86.4416210 135.8591820 152.4555000  86.1870510 134.9824830
 152.6800410  85.8893570 136.4497390 144.1066590  86.6537110 131.4570190
 143.9388630  86.0207790 132.1552080 143.2401100  86.8596510 131.1064380
 144.7294610  70.4853890 128.9602050 145.4873970  70.5982770 128.3866080
 144.2671780  71.3223090 128.9145480 151.2708420  72.5993160 131.9504360
 150.4582930  72.2250050 131.6100240 151.7750060  71.8438240 132.2525550
 145.7129290  85.3470340 128.9020330 145.1876910  85.7278370 128.1982290
 145.6373870  85.9721110 129.6230040 147.1019760  71.0117940 127.5004020
 147.6312520  70.2247740 127.3711970 147.7348080  71.6909130 127.7339550
 149.2957600  70.7493080 130.5549410 148.6660340  70.0480390 130.7219540
 148.7562740  71.5097210 130.3382570 152.2349550  87.3632310 143.2260020
 153.1616860  87.1276580 143.2695980 152.2199980  88.1904310 142.7446050
 149.4213160  70.0277060 142.9901900 149.1397430  70.5310660 142.2262720
 149.8032860  69.2298810 142.6244030 148.3122260  87.2952720 127.7769580
 149.0441080  87.0112000 127.2293470 148.5715930  87.0566000 128.6668960
 147.4737050  83.4117450 127.7815910 146.8445930  83.8802550 128.3301740
 147.5884880  82.5666670 128.2162100 147.0770640  79.5521940 116.6902140
 146.2455520  79.2970650 117.0898650 147.6851620  79.6232710 117.4260060
 147.0571900  83.5862030 116.8860160 147.3599940  82.6959770 116.7070380
 147.8015490  84.1432250 116.6582410 145.4862590  74.5123830 110.4744530
 144.5979290  74.8539800 110.3724410 145.7703780  74.3124150 109.5825360
 143.4495600  77.1129480 116.3584230 144.0211710  76.3451680 116.3587870
 143.4497140  77.4118240 115.4490840 144.6920470  72.5213840 118.1453160
 144.5123310  71.6239590 118.4255920 144.2900550  73.0685710 118.8200110
 147.6623980  73.0955330 111.5082910 147.7690730  73.9959060 111.8151670
 146.7516340  73.0473300 111.2177560 145.3107140  75.0174340 116.7535500
 145.9917250  75.2812710 117.3722900 144.9955190  74.1775210 117.0873510
 149.5031710  76.0641700 115.8408090 150.0109930  76.5622670 116.4813110
 150.0344950  75.2876900 115.6647450 147.7867810  70.7040260 120.1071510
 147.7886250  71.2212650 119.3017410 146.9572120  70.2270440 120.0841440
 149.0370660  80.3435440 118.2845010 148.7040040  80.9704360 118.9266080
 149.2137340  80.8697320 117.5046680 147.4683140  72.4150220 118.1141960
 147.8099950  73.2592270 117.8195830 146.5298950  72.5633960 118.2307300
 148.2489760  82.3116240 120.0994190 148.8663760  82.9867320 119.8178640
 147.3882880  82.7204220 120.0081690 143.5422100  81.5016100 108.9801040
 143.1650080  81.9903200 108.2485940 143.7995170  82.1741380 109.6107570
 151.1511030  69.9032490 114.4386550 151.4586010  69.3479380 113.7222050
 150.2211730  70.0376950 114.2559540 149.1448430  78.4946060 113.9566400
 148.7405430  77.7823310 113.4612300 149.2311550  78.1499300 114.8454440
 149.6130130  82.1813620 116.1205610 149.3158420  81.5759090 115.4413390
 150.5629950  82.2190930 116.0094970 147.8577050  75.2689270 117.7365440
 148.4091640  75.3784610 116.9618690 148.3720560  75.6426870 118.4520670
 148.7048560  81.9195310 122.7713410 147.8077090  82.1435280 123.0186810
 148.7301430  82.0430250 121.8224810 147.5319780  78.7908630 121.3470780
 147.3927550  79.6631430 121.7158180 146.6501140  78.4481440 121.2018720
 149.3300130  84.7330330 123.5555930 149.3015560  85.1373280 122.6884360
 149.1665100  83.8040690 123.3927530 145.8453060  77.3891040 111.4573050
 145.7250660  78.1153130 110.8454320 145.5353950  76.6193950 110.9800960
 143.4838430  80.5606180 117.2641690 143.5618850  80.6954950 116.3197410
 144.0980110  79.8522070 117.4569810 144.7286060  82.2606370 113.6747870
 144.3214140  82.4020960 112.8201470 145.6199070  81.9766530 113.4719080
 149.0007720  86.4752150 111.7870540 148.8250200  85.5587690 111.5738340
 148.1463460  86.8339440 112.0268340 143.5397950  81.6020350 119.8036150
 143.7028990  81.1325710 118.9855520 144.0050400  81.0943910 120.4684990
 148.3116720  70.7326110 114.8396720 147.8684870  71.5135650 114.5081240
 148.8701710  71.0556000 115.5467660 152.5986530  73.5994630 120.4432040
 152.1365900  73.8077650 121.2551980 152.1964640  72.7853980 120.1402710
 151.4275540  70.3536810 109.7202550 150.8029720  70.3496680 110.4455860
 151.3405660  69.4867770 109.3238520 150.3492620  71.2773440 116.6986320
 150.6464950  72.1836270 116.6178340 150.8978180  70.7892220 116.0845890
 148.1030940  75.8559680 112.5677970 147.8771860  75.6396850 113.4724590
 147.3223470  76.2888140 112.2223940 150.5430150  76.7545260 123.2338240
 150.4473750  75.8139990 123.0838640 151.3862130  76.9760330 122.8386310
 145.6740690  73.1658930 121.3872020 145.2804080  74.0134140 121.5944800
 144.9859090  72.5285300 121.5780660 152.2485740  73.2493900 124.4568760
 151.5584060  73.0566100 125.0914850 152.9918040  73.5328540 124.9893060
 142.9757740  71.0887390 115.4202100 142.6870790  71.6590250 116.1327080
 143.7203500  70.6091840 115.7833330 143.1627970  75.0307510 106.6304820
 143.0802640  75.9738270 106.7719810 142.8111030  74.8882420 105.7517170
 150.9626100  73.7646540 115.6975170 150.9662160  73.3236490 114.8479710
 151.8577220  74.0863870 115.8046990 146.8128480  73.6473030 114.6569380
 146.4728530  74.1248260 115.4136430 146.0505800  73.1938150 114.2970480
 151.0246250  74.7658620 108.6881930 151.1459070  74.7245100 109.6367750
 150.6394760  75.6282770 108.5328660 150.0367750  77.0759760 108.0865230
 149.4684650  76.6278010 107.4601140 150.7456750  77.4352540 107.5530380
 145.1136930  80.9771780 121.9631960 144.7291720  80.3365450 122.5614920
 145.4249120  81.6807900 122.5326690 151.2634070  77.8248320 117.4440580
 151.6304200  77.3506890 118.1901920 151.0739130  78.6989890 117.7848920
 144.1274560  72.5692010 113.5734050 143.8421480  72.2047680 114.4112670
 144.0653420  71.8372470 112.9597190 149.0533440  76.8656960 119.7624790
 148.7490510  77.7448940 119.9875150 150.0079900  76.9256750 119.7982230
 147.5815230  81.0717950 110.3591640 146.8077490  80.5315570 110.1990360
 148.3109860  80.5524560 110.0209400 147.6252630  80.7398330 113.9970450
 148.1431300  79.9366590 113.9427340 147.1736650  80.6777470 114.8387280
 152.5122130  82.0064610 109.2697750 152.8537830  82.7506840 108.7741070
 151.6834840  82.3195730 109.6322580 145.1097170  77.7059700 120.9096150
 144.7512110  78.3713550 121.4969490 144.8151730  76.8743250 121.2808770
 148.3110290  78.1643940 123.7935700 148.0110430  78.3101120 122.8963520
 149.0821530  77.6049230 123.7009090 151.4812820  82.0878140 112.0413670
 152.1683950  82.6347350 112.4221260 150.6945240  82.6318870 112.0763280
 143.6205220  77.7050960 107.5330750 144.4900070  77.9875760 107.8166670
 143.1295540  78.5186830 107.4179560 150.7840030  79.0924170 111.6539030
 151.2402810  79.9029420 111.8799220 150.4328240  78.7747310 112.4857520
 146.6851810  69.4361820 112.1261550 146.5566440  69.4279720 113.0746470
 145.8613830  69.7744910 111.7752560 143.9876470  86.9178340 108.0992380
 144.3474110  87.5167680 107.4449650 143.8468810  87.4638230 108.8727410
 143.6845740  71.1952940 121.5868250 142.9704260  71.3949860 122.1920860
 144.1040780  70.4192510 121.9583050 143.9718330  85.1833200 122.5734780
 144.0809450  84.2427940 122.4330170 143.3198890  85.4487950 121.9248510
 151.9630920  83.4549090 123.9732900 151.6427790  82.7358330 124.5178590
 151.2889280  84.1304160 124.0468960 150.0045090  84.3009540 108.9166050
 149.9955190  85.0339230 108.3010560 149.0843450  84.0541120 109.0093010
 145.6051730  79.5224430 109.6612810 144.9979680  80.2623330 109.6708110
 146.0801080  79.6123790 108.8351010 152.9904690  84.3637780 107.5791240
 153.0916670  84.1601770 106.6493220 152.0906430  84.1096060 107.7839020
 150.5130580  74.9218140 111.5615140 149.8046730  75.3904480 112.0028750
 150.7975060  74.2640150 112.1960330 152.1386510  76.3414840 119.5607670
 152.6371760  76.8160660 120.2259520 152.2809460  75.4178360 119.7677700
 151.6322800  86.8824100 112.2738910 151.8864300  86.8445490 111.3518280
 150.6835280  86.7557430 112.2667160 148.7165600  73.2303220 108.9365850
 149.5656130  73.6673370 108.8706040 148.3496870  73.5423480 109.7637910
 147.6157020  79.4835580 107.4101380 148.3820290  79.3716940 107.9726810
 147.6931710  78.7873550 106.7578150 146.3103780  76.9160650 108.0934270
 146.3907370  75.9688160 108.2051670 147.2023530  77.2467530 108.1994930
 147.1118490  87.0656040 115.1968810 147.8480970  86.5171500 115.4677380
 147.4959410  87.9312050 115.0574800 143.9963970  83.1329610 111.0710320
 143.0703750  83.3750750 111.0615730 144.4620400  83.9603870 110.9495070
 146.1176770  86.2502110 124.3854390 146.9189500  86.5714160 124.7989790
 145.6028590  85.8897690 125.1074300 150.2220800  86.2386350 107.0194380
 151.0149410  86.5275180 106.5676170 149.7025150  85.8078520 106.3406860
 143.8374580  78.7375570 123.3290440 144.3413600  78.1582850 123.9006670
 143.0982000  79.0215800 123.8666810 150.7398200  81.4589760 106.8836730
 150.6348840  80.8442110 107.6098110 150.5722420  80.9355650 106.0999740
 150.8912520  80.1446560 122.8625960 150.1258190  80.7131560 122.7780630
 151.0728480  79.8522770 121.9694190 145.8697660  76.8805160 124.2240510
 145.9103000  76.5819030 125.1325740 146.7243160  77.2812770 124.0648030
 149.6476050  79.4800710 109.3844020 150.0692470  79.3140580 110.2275410
 149.7726890  78.6700940 108.8899160 147.8103470  75.4597260 122.1915000
 147.2799930  74.9688210 121.5638340 148.4791540  75.8881460 121.6572930
 152.1603690  78.5038320 106.6321120 152.6809350  77.7887340 106.2662270
 152.8072090  79.1424190 106.9321630 148.2975770  72.4259630 122.2712290
 148.2032640  71.8080380 121.5463160 147.7173160  73.1525920 122.0442200
 151.0637210  70.9832870 119.3039680 150.6154510  71.0057130 118.4585230
 150.4302410  70.5851890 119.9009980 151.4696760  79.8787200 119.9252120
 151.8884870  80.7219930 119.7528360 150.5505390  80.0159240 119.6958900
 148.5434950  75.5533940 106.3302180 148.3424010  74.6901300 106.6915520
 148.3727000  75.4667300 105.3923780 149.3204180  86.1840210 121.0409850
 148.7825270  86.9086270 120.7218550 149.5738140  85.7070550 120.2507190
 150.5729430  74.1524730 122.5665780 151.1629120  73.8440580 123.2543600
 149.7549670  73.6804480 122.7225680 147.3417750  72.6534560 106.3180060
 147.6443650  72.6601990 105.4099210 148.0812340  72.3032420 106.8147720
 152.1766390  87.4191420 121.2996500 152.1025090  88.3226560 121.6068870
 151.2745230  87.1003320 121.2718570 150.5602680  71.5969180 107.3036260
 150.2124680  70.9193170 106.7238710 150.7615450  71.1358690 108.1179650
 146.3647880  81.9576980 107.1509860 146.8022750  82.5006650 107.8067440
 146.8495610  81.1323930 107.1606200 143.5793680  84.7466010 114.6030120
 143.9096690  83.8787070 114.3708760 144.0084680  84.9524530 115.4335080
 148.1755600  83.0775020 112.2632090 147.8751140  82.9539990 113.1636000
 148.0693090  82.2183610 111.8547820 144.0683890  85.6136600 117.3411750
 143.6314880  85.7937400 118.1735900 144.6361570  86.3711220 117.1993470
 143.9008320  78.1256830 113.7000630 143.2457160  77.8568470 113.0560330
 144.7386270  78.0161310 113.2502610 144.9384250  78.5109400 118.2403970
 145.3057290  78.4236800 119.1199990 144.3695070  77.7475950 118.1410830
 144.4900250  75.4218490 122.1462390 143.5956300  75.3885250 122.4856100
 145.0297800  75.6205280 122.9113640 143.1146400  75.3355760 109.6425960
 142.2110480  75.5985960 109.4677620 143.5987020  75.6066930 108.8625920
 145.6573610  74.3921300 107.5520340 146.3665310  73.9704520 107.0667620
 144.9413550  74.4596530 106.9203690 145.3047770  70.4460630 106.5922990
 146.0275900  70.9869570 106.9104210 145.5772290  70.1724050 105.7164530
 144.9939960  69.6966820 116.4945610 145.6416150  69.1464200 116.0540770
 145.4141800  69.9509970 117.3161420 144.7471960  69.8522490 119.2370930
 144.3986780  70.3086310 120.0029110 144.4159660  68.9579620 119.3193360
 146.3536330  83.0242090 123.4024120 146.3105960  82.6535000 124.2838580
 146.4847340  83.9619660 123.5425940 150.0542360  84.5801680 119.0033840
 149.8133720  84.8476240 118.1164360 150.9945000  84.7507410 119.0584700
 145.4192600  69.3798690 122.5121700 145.9675590  69.1986740 121.7487810
 145.4847910  68.5892800 123.0478010 146.1924360  85.9704340 120.5221900
 145.5984680  85.8389040 121.2611940 146.1848200  85.1342480 120.0564000
 145.8236590  83.3362720 119.4729940 145.0970650  82.7168010 119.4055890
 145.8845740  83.7303330 118.6028020 149.4281690  85.5507720 116.2579350
 149.9446710  84.9395080 115.7327610 150.0779070  86.0536500 116.7490360
 152.1677190  86.4416210 117.0848330 152.4555000  86.1870510 116.2081340
 152.6800410  85.8893570 117.6753900 144.1066590  86.6537110 112.6826700
 143.9388630  86.0207790 113.3808590 143.2401100  86.8596510 112.3320890
 144.7294610  70.4853890 110.1858560 145.4873970  70.5982770 109.6122590
 144.2671780  71.3223090 110.1401990 151.2708420  72.5993160 113.1760870
 150.4582930  72.2250050 112.8356750 151.7750060  71.8438240 113.4782060
 145.7129290  85.3470340 110.1276840 145.1876910  85.7278370 109.4238800
 145.6373870  85.9721110 110.8486550 147.1019760  71.0117940 108.7260530
 147.6312520  70.2247740 108.5968480 147.7348080  71.6909130 108.9596060
 149.2957600  70.7493080 111.7805920 148.6660340  70.0480390 111.9476050
 148.7562740  71.5097210 111.5639080 152.2349550  87.3632310 124.4516530
 153.1616860  87.1276580 124.4952490 152.2199980  88.1904310 123.9702560
 149.4213160  70.0277060 124.2158410 149.1397430  70.5310660 123.4519230
 149.8032860  69.2298810 123.8500540 148.3122260  87.2952720 109.0026090
 149.0441080  87.0112000 108.4549980 148.5715930  87.0566000 109.8925470
 147.4737050  83.4117450 109.0072420 146.8445930  83.8802550 109.5558250
 147.5884880  82.5666670 109.4418610 147.0770640  79.5521940  97.9158650
 146.2455520  79.2970650  98.3155160 147.6851620  79.6232710  98.6516570
 147.0571900  83.5862030  98.1116670 147.3599940  82.6959770  97.9326890
 147.8015490  84.1432250  97.8838920 145.4862590  74.5123830  91.7001040
 144.5979290  74.8539800  91.5980920 145.7703780  74.3124150  90.8081870
 143.4495600  77.1129480  97.5840740 144.0211710  76.3451680  97.5844380
 143.4497140  77.4118240  96.6747350 144.6920470  72.5213840  99.3709670
 144.5123310  71.6239590  99.6512430 144.2900550  73.0685710 100.0456620
 147.6623980  73.0955330  92.7339420 147.7690730  73.9959060  93.0408180
 146.7516340  73.0473300  92.4434070 145.3107140  75.0174340  97.9792010
 145.9917250  75.2812710  98.5979410 144.9955190  74.1775210  98.3130020
 149.5031710  76.0641700  97.0664600 150.0109930  76.5622670  97.7069620
 150.0344950  75.2876900  96.8903960 147.7867810  70.7040260 101.3328020
 147.7886250  71.2212650 100.5273920 146.9572120  70.2270440 101.3097950
 149.0370660  80.3435440  99.5101520 148.7040040  80.9704360 100.1522590
 149.2137340  80.8697320  98.7303190 147.4683140  72.4150220  99.3398470
 147.8099950  73.2592270  99.0452340 146.5298950  72.5633960  99.4563810
 148.2489760  82.3116240 101.3250700 148.8663760  82.9867320 101.0435150
 147.3882880  82.7204220 101.2338200 143.5422100  81.5016100  90.2057550
 143.1650080  81.9903200  89.4742450 143.7995170  82.1741380  90.8364080
 151.1511030  69.9032490  95.6643060 151.4586010  69.3479380  94.9478560
 150.2211730  70.0376950  95.4816050 149.1448430  78.4946060  95.1822910
 148.7405430  77.7823310  94.6868810 149.2311550  78.1499300  96.0710950
 149.6130130  82.1813620  97.3462120 149.3158420  81.5759090  96.6669900
 150.5629950  82.2190930  97.2351480 147.8577050  75.2689270  98.9621950
 148.4091640  75.3784610  98.1875200 148.3720560  75.6426870  99.6777180
 148.7048560  81.9195310 103.9969920 147.8077090  82.1435280 104.2443320
 148.7301430  82.0430250 103.0481320 147.5319780  78.7908630 102.5727290
 147.3927550  79.6631430 102.9414690 146.6501140  78.4481440 102.4275230
 149.3300130  84.7330330 104.7812440 149.3015560  85.1373280 103.9140870
 149.1665100  83.8040690 104.6184040 145.8453060  77.3891040  92.6829560
 145.7250660  78.1153130  92.0710830 145.5353950  76.6193950  92.2057470
 143.4838430  80.5606180  98.4898200 143.5618850  80.6954950  97.5453920
 144.0980110  79.8522070  98.6826320 144.7286060  82.2606370  94.9004380
 144.3214140  82.4020960  94.0457980 145.6199070  81.9766530  94.6975590
 149.0007720  86.4752150  93.0127050 148.8250200  85.5587690  92.7994850
 148.1463460  86.8339440  93.2524850 143.5397950  81.6020350 101.0292660
 143.7028990  81.1325710 100.2112030 144.0050400  81.0943910 101.6941500
 148.3116720  70.7326110  96.0653230 147.8684870  71.5135650  95.7337750
 148.8701710  71.0556000  96.7724170 152.5986530  73.5994630 101.6688550
 152.1365900  73.8077650 102.4808490 152.1964640  72.7853980 101.3659220
 151.4275540  70.3536810  90.9459060 150.8029720  70.3496680  91.6712370
 151.3405660  69.4867770  90.5495030 150.3492620  71.2773440  97.9242830
 150.6464950  72.1836270  97.8434850 150.8978180  70.7892220  97.3102400
 148.1030940  75.8559680  93.7934480 147.8771860  75.6396850  94.6981100
 147.3223470  76.2888140  93.4480450 150.5430150  76.7545260 104.4594750
 150.4473750  75.8139990 104.3095150 151.3862130  76.9760330 104.0642820
 145.6740690  73.1658930 102.6128530 145.2804080  74.0134140 102.8201310
 144.9859090  72.5285300 102.8037170 152.2485740  73.2493900 105.6825270
 151.5584060  73.0566100 106.3171360 152.9918040  73.5328540 106.2149570
 143.1627970  75.0307510  87.8561330 143.0802640  75.9738270  87.9976320
 142.8111030  74.8882420  86.9773680 150.9626100  73.7646540  96.9231680
 150.9662160  73.3236490  96.0736220 151.8577220  74.0863870  97.0303500
 146.8128480  73.6473030  95.8825890 146.4728530  74.1248260  96.6392940
 146.0505800  73.1938150  95.5226990 151.0246250  74.7658620  89.9138440
 151.1459070  74.7245100  90.8624260 150.6394760  75.6282770  89.7585170
 150.0367750  77.0759760  89.3121740 149.4684650  76.6278010  88.6857650
 150.7456750  77.4352540  88.7786890 145.1136930  80.9771780 103.1888470
 144.7291720  80.3365450 103.7871430 145.4249120  81.6807900 103.7583200
 151.2634070  77.8248320  98.6697090 151.6304200  77.3506890  99.4158430
 151.0739130  78.6989890  99.0105430 144.1274560  72.5692010  94.7990560
 143.8421480  72.2047680  95.6369180 144.0653420  71.8372470  94.1853700
 149.0533440  76.8656960 100.9881300 148.7490510  77.7448940 101.2131660
 150.0079900  76.9256750 101.0238740 147.5815230  81.0717950  91.5848150
 146.8077490  80.5315570  91.4246870 148.3109860  80.5524560  91.2465910
 147.6252630  80.7398330  95.2226960 148.1431300  79.9366590  95.1683850
 147.1736650  80.6777470  96.0643790 152.5122130  82.0064610  90.4954260
 152.8537830  82.7506840  89.9997580 151.6834840  82.3195730  90.8579090
 145.1097170  77.7059700 102.1352660 144.7512110  78.3713550 102.7226000
 144.8151730  76.8743250 102.5065280 148.3110290  78.1643940 105.0192210
 148.0110430  78.3101120 104.1220030 149.0821530  77.6049230 104.9265600
 151.4812820  82.0878140  93.2670180 152.1683950  82.6347350  93.6477770
 150.6945240  82.6318870  93.3019790 143.6205220  77.7050960  88.7587260
 144.4900070  77.9875760  89.0423180 143.1295540  78.5186830  88.6436070
 150.7840030  79.0924170  92.8795540 151.2402810  79.9029420  93.1055730
 150.4328240  78.7747310  93.7114030 146.6851810  69.4361820  93.3518060
 146.5566440  69.4279720  94.3002980 145.8613830  69.7744910  93.0009070
 143.9876470  86.9178340  89.3248890 144.3474110  87.5167680  88.6706160
 143.8468810  87.4638230  90.0983920 143.6845740  71.1952940 102.8124760
 142.9704260  71.3949860 103.4177370 144.1040780  70.4192510 103.1839560
 143.9718330  85.1833200 103.7991290 144.0809450  84.2427940 103.6586680
 143.3198890  85.4487950 103.1505020 151.9630920  83.4549090 105.1989410
 151.6427790  82.7358330 105.7435100 151.2889280  84.1304160 105.2725470
 150.0045090  84.3009540  90.1422560 149.9955190  85.0339230  89.5267070
 149.0843450  84.0541120  90.2349520 145.6051730  79.5224430  90.8869320
 144.9979680  80.2623330  90.8964620 146.0801080  79.6123790  90.0607520
 152.9904690  84.3637780  88.8047750 153.0916670  84.1601770  87.8749730
 152.0906430  84.1096060  89.0095530 150.5130580  74.9218140  92.7871650
 149.8046730  75.3904480  93.2285260 150.7975060  74.2640150  93.4216840
 152.1386510  76.3414840 100.7864180 152.6371760  76.8160660 101.4516030
 152.2809460  75.4178360 100.9934210 151.6322800  86.8824100  93.4995420
 151.8864300  86.8445490  92.5774790 150.6835280  86.7557430  93.4923670
 148.7165600  73.2303220  90.1622360 149.5656130  73.6673370  90.0962550
 148.3496870  73.5423480  90.9894420 147.6157020  79.4835580  88.6357890
 148.3820290  79.3716940  89.1983320 147.6931710  78.7873550  87.9834660
 146.3103780  76.9160650  89.3190780 146.3907370  75.9688160  89.4308180
 147.2023530  77.2467530  89.4251440 147.1118490  87.0656040  96.4225320
 147.8480970  86.5171500  96.6933890 147.4959410  87.9312050  96.2831310
 143.9963970  83.1329610  92.2966830 143.0703750  83.3750750  92.2872240
 144.4620400  83.9603870  92.1751580 146.1176770  86.2502110 105.6110900
 146.9189500  86.5714160 106.0246300 145.6028590  85.8897690 106.3330810
 150.2220800  86.2386350  88.2450890 151.0149410  86.5275180  87.7932680
 149.7025150  85.8078520  87.5663370 143.8374580  78.7375570 104.5546950
 144.3413600  78.1582850 105.1263180 143.0982000  79.0215800 105.0923320
 150.7398200  81.4589760  88.1093240 150.6348840  80.8442110  88.8354620
 150.5722420  80.9355650  87.3256250 150.8912520  80.1446560 104.0882470
 150.1258190  80.7131560 104.0037140 151.0728480  79.8522770 103.1950700
 145.8697660  76.8805160 105.4497020 145.9103000  76.5819030 106.3582250
 146.7243160  77.2812770 105.2904540 149.6476050  79.4800710  90.6100530
 150.0692470  79.3140580  91.4531920 149.7726890  78.6700940  90.1155670
 147.8103470  75.4597260 103.4171510 147.2799930  74.9688210 102.7894850
 148.4791540  75.8881460 102.8829440 152.1603690  78.5038320  87.8577630
 152.6809350  77.7887340  87.4918780 152.8072090  79.1424190  88.1578140
 148.2975770  72.4259630 103.4968800 148.2032640  71.8080380 102.7719670
 147.7173160  73.1525920 103.2698710 151.0637210  70.9832870 100.5296190
 150.6154510  71.0057130  99.6841740 150.4302410  70.5851890 101.1266490
 151.4696760  79.8787200 101.1508630 151.8884870  80.7219930 100.9784870
 150.5505390  80.0159240 100.9215410 148.5434950  75.5533940  87.5558690
 148.3424010  74.6901300  87.9172030 148.3727000  75.4667300  86.6180290
 149.3204180  86.1840210 102.2666360 148.7825270  86.9086270 101.9475060
 149.5738140  85.7070550 101.4763700 150.5729430  74.1524730 103.7922290
 151.1629120  73.8440580 104.4800110 149.7549670  73.6804480 103.9482190
 147.3417750  72.6534560  87.5436570 147.6443650  72.6601990  86.6355720
 148.0812340  72.3032420  88.0404230 152.1766390  87.4191420 102.5253010
 152.1025090  88.3226560 102.8325380 151.2745230  87.1003320 102.4975080
 150.5602680  71.5969180  88.5292770 150.2124680  70.9193170  87.9495220
 150.7615450  71.1358690  89.3436160 146.3647880  81.9576980  88.3766370
 146.8022750  82.5006650  89.0323950 146.8495610  81.1323930  88.3862710
 143.5793680  84.7466010  95.8286630 143.9096690  83.8787070  95.5965270
 144.0084680  84.9524530  96.6591590 148.1755600  83.0775020  93.4888600
 147.8751140  82.9539990  94.3892510 148.0693090  82.2183610  93.0804330
 144.0683890  85.6136600  98.5668260 143.6314880  85.7937400  99.3992410
 144.6361570  86.3711220  98.4249980 143.9008320  78.1256830  94.9257140
 143.2457160  77.8568470  94.2816840 144.7386270  78.0161310  94.4759120
 144.9384250  78.5109400  99.4660480 145.3057290  78.4236800 100.3456500
 144.3695070  77.7475950  99.3667340 144.4900250  75.4218490 103.3718900
 143.5956300  75.3885250 103.7112610 145.0297800  75.6205280 104.1370150
 143.1146400  75.3355760  90.8682470 142.2110480  75.5985960  90.6934130
 143.5987020  75.6066930  90.0882430 145.6573610  74.3921300  88.7776850
 146.3665310  73.9704520  88.2924130 144.9413550  74.4596530  88.1460200
 145.3047770  70.4460630  87.8179500 146.0275900  70.9869570  88.1360720
 145.5772290  70.1724050  86.9421040 144.9939960  69.6966820  97.7202120
 145.6416150  69.1464200  97.2797280 145.4141800  69.9509970  98.5417930
 144.7471960  69.8522490 100.4627440 144.3986780  70.3086310 101.2285620
 144.4159660  68.9579620 100.5449870 146.3536330  83.0242090 104.6280630
 146.3105960  82.6535000 105.5095090 146.4847340  83.9619660 104.7682450
 150.0542360  84.5801680 100.2290350 149.8133720  84.8476240  99.3420870
 150.9945000  84.7507410 100.2841210 145.4192600  69.3798690 103.7378210
 145.9675590  69.1986740 102.9744320 145.4847910  68.5892800 104.2734520
 146.1924360  85.9704340 101.7478410 145.5984680  85.8389040 102.4868450
 146.1848200  85.1342480 101.2820510 145.8236590  83.3362720 100.6986450
 145.0970650  82.7168010 100.6312400 145.8845740  83.7303330  99.8284530
 149.4281690  85.5507720  97.4835860 149.9446710  84.9395080  96.9584120
 150.0779070  86.0536500  97.9746870 152.1677190  86.4416210  98.3104840
 152.4555000  86.1870510  97.4337850 152.6800410  85.8893570  98.9010410
 144.1066590  86.6537110  93.9083210 143.9388630  86.0207790  94.6065100
 143.2401100  86.8596510  93.5577400 144.7294610  70.4853890  91.4115070
 145.4873970  70.5982770  90.8379100 144.2671780  71.3223090  91.3658500
 151.2708420  72.5993160  94.4017380 150.4582930  72.2250050  94.0613260
 151.7750060  71.8438240  94.7038570 145.7129290  85.3470340  91.3533350
 145.1876910  85.7278370  90.6495310 145.6373870  85.9721110  92.0743060
 147.1019760  71.0117940  89.9517040 147.6312520  70.2247740  89.8224990
 147.7348080  71.6909130  90.1852570 149.2957600  70.7493080  93.0062430
 148.6660340  70.0480390  93.1732560 148.7562740  71.5097210  92.7895590
 152.2349550  87.3632310 105.6773040 153.1616860  87.1276580 105.7209000
 152.2199980  88.1904310 105.1959070 149.4213160  70.0277060 105.4414920
 149.1397430  70.5310660 104.6775740 149.8032860  69.2298810 105.0757050
 148.3122260  87.2952720  90.2282600 149.0441080  87.0112000  89.6806490
 148.5715930  87.0566000  91.1181980 147.4737050  83.4117450  90.2328930
 146.8445930  83.8802550  90.7814760 147.5884880  82.5666670  90.6675120
 147.0770640  79.5521940  79.1415160 146.2455520  79.2970650  79.5411670
 147.6851620  79.6232710  79.8773080 147.0571900  83.5862030  79.3373180
 147.3599940  82.6959770  79.1583400 147.8015490  84.1432250  79.1095430
 145.4862590  74.5123830  72.9257550 144.5979290  74.8539800  72.8237430
 145.7703780  74.3124150  72.0338380 143.4495600  77.1129480  78.8097250
 144.0211710  76.3451680  78.8100890 143.4497140  77.4118240  77.9003860
 144.6920470  72.5213840  80.5966180 144.5123310  71.6239590  80.8768940
 144.2900550  73.0685710  81.2713130 147.6623980  73.0955330  73.9595930
 147.7690730  73.9959060  74.2664690 146.7516340  73.0473300  73.6690580
 145.3107140  75.0174340  79.2048520 145.9917250  75.2812710  79.8235920
 144.9955190  74.1775210  79.5386530 149.5031710  76.0641700  78.2921110
 150.0109930  76.5622670  78.9326130 150.0344950  75.2876900  78.1160470
 147.7867810  70.7040260  82.5584530 147.7886250  71.2212650  81.7530430
 146.9572120  70.2270440  82.5354460 149.0370660  80.3435440  80.7358030
 148.7040040  80.9704360  81.3779100 149.2137340  80.8697320  79.9559700
 147.4683140  72.4150220  80.5654980 147.8099950  73.2592270  80.2708850
 146.5298950  72.5633960  80.6820320 148.2489760  82.3116240  82.5507210
 148.8663760  82.9867320  82.2691660 147.3882880  82.7204220  82.4594710
 143.5422100  81.5016100  71.4314060 143.1650080  81.9903200  70.6998960
 143.7995170  82.1741380  72.0620590 151.1511030  69.9032490  76.8899570
 151.4586010  69.3479380  76.1735070 150.2211730  70.0376950  76.7072560
 149.1448430  78.4946060  76.4079420 148.7405430  77.7823310  75.9125320
 149.2311550  78.1499300  77.2967460 149.6130130  82.1813620  78.5718630
 149.3158420  81.5759090  77.8926410 150.5629950  82.2190930  78.4607990
 147.8577050  75.2689270  80.1878460 148.4091640  75.3784610  79.4131710
 148.3720560  75.6426870  80.9033690 148.7048560  81.9195310  85.2226430
 147.8077090  82.1435280  85.4699830 148.7301430  82.0430250  84.2737830
 147.5319780  78.7908630  83.7983800 147.3927550  79.6631430  84.1671200
 146.6501140  78.4481440  83.6531740 149.3300130  84.7330330  86.0068950
 149.3015560  85.1373280  85.1397380 149.1665100  83.8040690  85.8440550
 145.8453060  77.3891040  73.9086070 145.7250660  78.1153130  73.2967340
 145.5353950  76.6193950  73.4313980 143.4838430  80.5606180  79.7154710
 143.5618850  80.6954950  78.7710430 144.0980110  79.8522070  79.9082830
 144.7286060  82.2606370  76.1260890 144.3214140  82.4020960  75.2714490
 145.6199070  81.9766530  75.9232100 149.0007720  86.4752150  74.2383560
 148.8250200  85.5587690  74.0251360 148.1463460  86.8339440  74.4781360
 143.5397950  81.6020350  82.2549170 143.7028990  81.1325710  81.4368540
 144.0050400  81.0943910  82.9198010 148.3116720  70.7326110  77.2909740
 147.8684870  71.5135650  76.9594260 148.8701710  71.0556000  77.9980680
 152.5986530  73.5994630  82.8945060 152.1365900  73.8077650  83.7065000
 152.1964640  72.7853980  82.5915730 151.4275540  70.3536810  72.1715570
 150.8029720  70.3496680  72.8968880 151.3405660  69.4867770  71.7751540
 150.3492620  71.2773440  79.1499340 150.6464950  72.1836270  79.0691360
 150.8978180  70.7892220  78.5358910 148.1030940  75.8559680  75.0190990
 147.8771860  75.6396850  75.9237610 147.3223470  76.2888140  74.6736960
 150.5430150  76.7545260  85.6851260 150.4473750  75.8139990  85.5351660
 151.3862130  76.9760330  85.2899330 145.6740690  73.1658930  83.8385040
 145.2804080  74.0134140  84.0457820 144.9859090  72.5285300  84.0293680
 152.2485740  73.2493900  86.9081780 151.5584060  73.0566100  87.5427870
 152.9918040  73.5328540  87.4406080 143.1627970  75.0307510  69.0817840
 143.0802640  75.9738270  69.2232830 142.8111030  74.8882420  68.2030190
 150.9626100  73.7646540  78.1488190 150.9662160  73.3236490  77.2992730
 151.8577220  74.0863870  78.2560010 146.8128480  73.6473030  77.1082400
 146.4728530  74.1248260  77.8649450 146.0505800  73.1938150  76.7483500
 151.0246250  74.7658620  71.1394950 151.1459070  74.7245100  72.0880770
 150.6394760  75.6282770  70.9841680 150.0367750  77.0759760  70.5378250
 149.4684650  76.6278010  69.9114160 150.7456750  77.4352540  70.0043400
 145.1136930  80.9771780  84.4144980 144.7291720  80.3365450  85.0127940
 145.4249120  81.6807900  84.9839710 151.2634070  77.8248320  79.8953600
 151.6304200  77.3506890  80.6414940 151.0739130  78.6989890  80.2361940
 144.1274560  72.5692010  76.0247070 143.8421480  72.2047680  76.8625690
 144.0653420  71.8372470  75.4110210 149.0533440  76.8656960  82.2137810
 148.7490510  77.7448940  82.4388170 150.0079900  76.9256750  82.2495250
 147.5815230  81.0717950  72.8104660 146.8077490  80.5315570  72.6503380
 148.3109860  80.5524560  72.4722420 147.6252630  80.7398330  76.4483470
 148.1431300  79.9366590  76.3940360 147.1736650  80.6777470  77.2900300
 152.5122130  82.0064610  71.7210770 152.8537830  82.7506840  71.2254090
 151.6834840  82.3195730  72.0835600 145.1097170  77.7059700  83.3609170
 144.7512110  78.3713550  83.9482510 144.8151730  76.8743250  83.7321790
 148.3110290  78.1643940  86.2448720 148.0110430  78.3101120  85.3476540
 149.0821530  77.6049230  86.1522110 151.4812820  82.0878140  74.4926690
 152.1683950  82.6347350  74.8734280 150.6945240  82.6318870  74.5276300
 143.6205220  77.7050960  69.9843770 144.4900070  77.9875760  70.2679690
 143.1295540  78.5186830  69.8692580 150.7840030  79.0924170  74.1052050
 151.2402810  79.9029420  74.3312240 150.4328240  78.7747310  74.9370540
 146.6851810  69.4361820  74.5774570 146.5566440  69.4279720  75.5259490
 145.8613830  69.7744910  74.2265580 143.9876470  86.9178340  70.5505400
 144.3474110  87.5167680  69.8962670 143.8468810  87.4638230  71.3240430
 143.6845740  71.1952940  84.0381270 142.9704260  71.3949860  84.6433880
 144.1040780  70.4192510  84.4096070 143.9718330  85.1833200  85.0247800
 144.0809450  84.2427940  84.8843190 143.3198890  85.4487950  84.3761530
 151.9630920  83.4549090  86.4245920 151.6427790  82.7358330  86.9691610
 151.2889280  84.1304160  86.4981980 150.0045090  84.3009540  71.3679070
 149.9955190  85.0339230  70.7523580 149.0843450  84.0541120  71.4606030
 145.6051730  79.5224430  72.1125830 144.9979680  80.2623330  72.1221130
 146.0801080  79.6123790  71.2864030 152.9904690  84.3637780  70.0304260
 153.0916670  84.1601770  69.1006240 152.0906430  84.1096060  70.2352040
 150.5130580  74.9218140  74.0128160 149.8046730  75.3904480  74.4541770
 150.7975060  74.2640150  74.6473350 152.1386510  76.3414840  82.0120690
 152.6371760  76.8160660  82.6772540 152.2809460  75.4178360  82.2190720
 151.6322800  86.8824100  74.7251930 151.8864300  86.8445490  73.8031300
 150.6835280  86.7557430  74.7180180 148.7165600  73.2303220  71.3878870
 149.5656130  73.6673370  71.3219060 148.3496870  73.5423480  72.2150930
 147.6157020  79.4835580  69.8614400 148.3820290  79.3716940  70.4239830
 147.6931710  78.7873550  69.2091170 146.3103780  76.9160650  70.5447290
 146.3907370  75.9688160  70.6564690 147.2023530  77.2467530  70.6507950
 147.1118490  87.0656040  77.6481830 147.8480970  86.5171500  77.9190400
 147.4959410  87.9312050  77.5087820 143.9963970  83.1329610  73.5223340
 143.0703750  83.3750750  73.5128750 144.4620400  83.9603870  73.4008090
 146.1176770  86.2502110  86.8367410 146.9189500  86.5714160  87.2502810
 145.6028590  85.8897690  87.5587320 150.2220800  86.2386350  69.4707400
 151.0149410  86.5275180  69.0189190 149.7025150  85.8078520  68.7919880
 143.8374580  78.7375570  85.7803460 144.3413600  78.1582850  86.3519690
 143.0982000  79.0215800  86.3179830 150.7398200  81.4589760  69.3349750
 150.6348840  80.8442110  70.0611130 150.5722420  80.9355650  68.5512760
 150.8912520  80.1446560  85.3138980 150.1258190  80.7131560  85.2293650
 151.0728480  79.8522770  84.4207210 145.8697660  76.8805160  86.6753530
 145.9103000  76.5819030  87.5838760 146.7243160  77.2812770  86.5161050
 149.6476050  79.4800710  71.8357040 150.0692470  79.3140580  72.6788430
 149.7726890  78.6700940  71.3412180 147.8103470  75.4597260  84.6428020
 147.2799930  74.9688210  84.0151360 148.4791540  75.8881460  84.1085950
 152.1603690  78.5038320  69.0834140 152.6809350  77.7887340  68.7175290
 152.8072090  79.1424190  69.3834650 148.2975770  72.4259630  84.7225310
 148.2032640  71.8080380  83.9976180 147.7173160  73.1525920  84.4955220
 151.0637210  70.9832870  81.7552700 150.6154510  71.0057130  80.9098250
 150.4302410  70.5851890  82.3523000 151.4696760  79.8787200  82.3765140
 151.8884870  80.7219930  82.2041380 150.5505390  80.0159240  82.1471920
 148.5434950  75.5533940  68.7815200 148.3424010  74.6901300  69.1428540
 148.3727000  75.4667300  67.8436800 149.3204180  86.1840210  83.4922870
 148.7825270  86.9086270  83.1731570 149.5738140  85.7070550  82.7020210
 150.5729430  74.1524730  85.0178800 151.1629120  73.8440580  85.7056620
 149.7549670  73.6804480  85.1738700 147.3417750  72.6534560  68.7693080
 147.6443650  72.6601990  67.8612230 148.0812340  72.3032420  69.2660740
 152.1766390  87.4191420  83.7509520 152.1025090  88.3226560  84.0581890
 151.2745230  87.1003320  83.7231590 150.5602680  71.5969180  69.7549280
 150.2124680  70.9193170  69.1751730 150.7615450  71.1358690  70.5692670
 146.3647880  81.9576980  69.6022880 146.8022750  82.5006650  70.2580460
 146.8495610  81.1323930  69.6119220 143.5793680  84.7466010  77.0543140
 143.9096690  83.8787070  76.8221780 144.0084680  84.9524530  77.8848100
 148.1755600  83.0775020  74.7145110 147.8751140  82.9539990  75.6149020
 148.0693090  82.2183610  74.3060840 144.0683890  85.6136600  79.7924770
 143.6314880  85.7937400  80.6248920 144.6361570  86.3711220  79.6506490
 143.9008320  78.1256830  76.1513650 143.2457160  77.8568470  75.5073350
 144.7386270  78.0161310  75.7015630 144.9384250  78.5109400  80.6916990
 145.3057290  78.4236800  81.5713010 144.3695070  77.7475950  80.5923850
 144.4900250  75.4218490  84.5975410 143.5956300  75.3885250  84.9369120
 145.0297800  75.6205280  85.3626660 143.1146400  75.3355760  72.0938980
 142.2110480  75.5985960  71.9190640 143.5987020  75.6066930  71.3138940
 145.6573610  74.3921300  70.0033360 146.3665310  73.9704520  69.5180640
 144.9413550  74.4596530  69.3716710 145.3047770  70.4460630  69.0436010
 146.0275900  70.9869570  69.3617230 145.5772290  70.1724050  68.1677550
 144.9939960  69.6966820  78.9458630 145.6416150  69.1464200  78.5053790
 145.4141800  69.9509970  79.7674440 144.7471960  69.8522490  81.6883950
 144.3986780  70.3086310  82.4542130 144.4159660  68.9579620  81.7706380
 146.3536330  83.0242090  85.8537140 146.3105960  82.6535000  86.7351600
 146.4847340  83.9619660  85.9938960 150.0542360  84.5801680  81.4546860
 149.8133720  84.8476240  80.5677380 150.9945000  84.7507410  81.5097720
 145.4192600  69.3798690  84.9634720 145.9675590  69.1986740  84.2000830
 145.4847910  68.5892800  85.4991030 146.1924360  85.9704340  82.9734920
 145.5984680  85.8389040  83.7124960 146.1848200  85.1342480  82.5077020
 145.8236590  83.3362720  81.9242960 145.0970650  82.7168010  81.8568910
 145.8845740  83.7303330  81.0541040 149.4281690  85.5507720  78.7092370
 149.9446710  84.9395080  78.1840630 150.0779070  86.0536500  79.2003380
 152.1677190  86.4416210  79.5361350 152.4555000  86.1870510  78.6594360
 152.6800410  85.8893570  80.1266920 144.1066590  86.6537110  75.1339720
 143.9388630  86.0207790  75.8321610 143.2401100  86.8596510  74.7833910
 144.7294610  70.4853890  72.6371580 145.4873970  70.5982770  72.0635610
 144.2671780  71.3223090  72.5915010 151.2708420  72.5993160  75.6273890
 150.4582930  72.2250050  75.2869770 151.7750060  71.8438240  75.9295080
 145.7129290  85.3470340  72.5789860 145.1876910  85.7278370  71.8751820
 145.6373870  85.9721110  73.2999570 147.1019760  71.0117940  71.1773550
 147.6312520  70.2247740  71.0481500 147.7348080  71.6909130  71.4109080
 149.2957600  70.7493080  74.2318940 148.6660340  70.0480390  74.3989070
 148.7562740  71.5097210  74.0152100 152.2349550  87.3632310  86.9029550
 153.1616860  87.1276580  86.9465510 152.2199980  88.1904310  86.4215580
 149.4213160  70.0277060  86.6671430 149.1397430  70.5310660  85.9032250
 149.8032860  69.2298810  86.3013560 148.3122260  87.2952720  71.4539110
 149.0441080  87.0112000  70.9063000 148.5715930  87.0566000  72.3438490
 147.4737050  83.4117450  71.4585440 146.8445930  83.8802550  72.0071270
 147.5884880  82.5666670  71.8931630 147.0770640  79.5521940  60.3671670
 146.2455520  79.2970650  60.7668180 147.6851620  79.6232710  61.1029590
 147.0571900  83.5862030  60.5629690 147.3599940  82.6959770  60.3839910
 147.8015490  84.1432250  60.3351940 145.4862590  74.5123830  54.1514060
 144.5979290  74.8539800  54.0493940 145.7703780  74.3124150  53.2594890
 143.4495600  77.1129480  60.0353760 144.0211710  76.3451680  60.0357400
 143.4497140  77.4118240  59.1260370 144.6920470  72.5213840  61.8222690
 144.5123310  71.6239590  62.1025450 144.2900550  73.0685710  62.4969640
 147.6623980  73.0955330  55.1852440 147.7690730  73.9959060  55.4921200
 146.7516340  73.0473300  54.8947090 145.3107140  75.0174340  60.4305030
 145.9917250  75.2812710  61.0492430 144.9955190  74.1775210  60.7643040
 149.5031710  76.0641700  59.5177620 150.0109930  76.5622670  60.1582640
 150.0344950  75.2876900  59.3416980 147.7867810  70.7040260  63.7841040
 147.7886250  71.2212650  62.9786940 146.9572120  70.2270440  63.7610970
 149.0370660  80.3435440  61.9614540 148.7040040  80.9704360  62.6035610
 149.2137340  80.8697320  61.1816210 147.4683140  72.4150220  61.7911490
 147.8099950  73.2592270  61.4965360 146.5298950  72.5633960  61.9076830
 148.2489760  82.3116240  63.7763720 148.8663760  82.9867320  63.4948170
 147.3882880  82.7204220  63.6851220 143.5422100  81.5016100  52.6570570
 143.1650080  81.9903200  51.9255470 143.7995170  82.1741380  53.2877100
 151.1511030  69.9032490  58.1156080 151.4586010  69.3479380  57.3991580
 150.2211730  70.0376950  57.9329070 149.1448430  78.4946060  57.6335930
 148.7405430  77.7823310  57.1381830 149.2311550  78.1499300  58.5223970
 149.6130130  82.1813620  59.7975140 149.3158420  81.5759090  59.1182920
 150.5629950  82.2190930  59.6864500 147.8577050  75.2689270  61.4134970
 148.4091640  75.3784610  60.6388220 148.3720560  75.6426870  62.1290200
 148.7048560  81.9195310  66.4482940 147.8077090  82.1435280  66.6956340
 148.7301430  82.0430250  65.4994340 147.5319780  78.7908630  65.0240310
 147.3927550  79.6631430  65.3927710 146.6501140  78.4481440  64.8788250
 149.3300130  84.7330330  67.2325460 149.3015560  85.1373280  66.3653890
 149.1665100  83.8040690  67.0697060 145.8453060  77.3891040  55.1342580
 145.7250660  78.1153130  54.5223850 145.5353950  76.6193950  54.6570490
 143.4838430  80.5606180  60.9411220 143.5618850  80.6954950  59.9966940
 144.0980110  79.8522070  61.1339340 144.7286060  82.2606370  57.3517400
 144.3214140  82.4020960  56.4971000 145.6199070  81.9766530  57.1488610
 149.0007720  86.4752150  55.4640070 148.8250200  85.5587690  55.2507870
 148.1463460  86.8339440  55.7037870 143.5397950  81.6020350  63.4805680
 143.7028990  81.1325710  62.6625050 144.0050400  81.0943910  64.1454520
 148.3116720  70.7326110  58.5166250 147.8684870  71.5135650  58.1850770
 148.8701710  71.0556000  59.2237190 152.5986530  73.5994630  64.1201570
 152.1365900  73.8077650  64.9321510 152.1964640  72.7853980  63.8172240
 151.4275540  70.3536810  53.3972080 150.8029720  70.3496680  54.1225390
 151.3405660  69.4867770  53.0008050 150.3492620  71.2773440  60.3755850
 150.6464950  72.1836270  60.2947870 150.8978180  70.7892220  59.7615420
 148.1030940  75.8559680  56.2447500 147.8771860  75.6396850  57.1494120
 147.3223470  76.2888140  55.8993470 150.5430150  76.7545260  66.9107770
 150.4473750  75.8139990  66.7608170 151.3862130  76.9760330  66.5155840
 145.6740690  73.1658930  65.0641550 145.2804080  74.0134140  65.2714330
 144.9859090  72.5285300  65.2550190 152.2485740  73.2493900  68.1338290
 151.5584060  73.0566100  68.7684380 152.9918040  73.5328540  68.6662590
 142.9757740  71.0887390  59.0971630 142.6870790  71.6590250  59.8096610
 143.7203500  70.6091840  59.4602860 143.1627970  75.0307510  50.3074350
 143.0802640  75.9738270  50.4489340 142.8111030  74.8882420  49.4286700
 150.9626100  73.7646540  59.3744700 150.9662160  73.3236490  58.5249240
 151.8577220  74.0863870  59.4816520 146.8128480  73.6473030  58.3338910
 146.4728530  74.1248260  59.0905960 146.0505800  73.1938150  57.9740010
 151.0246250  74.7658620  52.3651460 151.1459070  74.7245100  53.3137280
 150.6394760  75.6282770  52.2098190 150.0367750  77.0759760  51.7634760
 149.4684650  76.6278010  51.1370670 150.7456750  77.4352540  51.2299910
 145.1136930  80.9771780  65.6401490 144.7291720  80.3365450  66.2384450
 145.4249120  81.6807900  66.2096220 151.2634070  77.8248320  61.1210110
 151.6304200  77.3506890  61.8671450 151.0739130  78.6989890  61.4618450
 144.1274560  72.5692010  57.2503580 143.8421480  72.2047680  58.0882200
 144.0653420  71.8372470  56.6366720 149.0533440  76.8656960  63.4394320
 148.7490510  77.7448940  63.6644680 150.0079900  76.9256750  63.4751760
 147.5815230  81.0717950  54.0361170 146.8077490  80.5315570  53.8759890
 148.3109860  80.5524560  53.6978930 147.6252630  80.7398330  57.6739980
 148.1431300  79.9366590  57.6196870 147.1736650  80.6777470  58.5156810
 152.5122130  82.0064610  52.9467280 152.8537830  82.7506840  52.4510600
 151.6834840  82.3195730  53.3092110 145.1097170  77.7059700  64.5865680
 144.7512110  78.3713550  65.1739020 144.8151730  76.8743250  64.9578300
 148.3110290  78.1643940  67.4705230 148.0110430  78.3101120  66.5733050
 149.0821530  77.6049230  67.3778620 151.4812820  82.0878140  55.7183200
 152.1683950  82.6347350  56.0990790 150.6945240  82.6318870  55.7532810
 143.6205220  77.7050960  51.2100280 144.4900070  77.9875760  51.4936200
 143.1295540  78.5186830  51.0949090 150.7840030  79.0924170  55.3308560
 151.2402810  79.9029420  55.5568750 150.4328240  78.7747310  56.1627050
 146.6851810  69.4361820  55.8031080 146.5566440  69.4279720  56.7516000
 145.8613830  69.7744910  55.4522090 143.9876470  86.9178340  51.7761910
 144.3474110  87.5167680  51.1219180 143.8468810  87.4638230  52.5496940
 143.6845740  71.1952940  65.2637780 142.9704260  71.3949860  65.8690390
 144.1040780  70.4192510  65.6352580 143.9718330  85.1833200  66.2504310
 144.0809450  84.2427940  66.1099700 143.3198890  85.4487950  65.6018040
 151.9630920  83.4549090  67.6502430 151.6427790  82.7358330  68.1948120
 151.2889280  84.1304160  67.7238490 150.0045090  84.3009540  52.5935580
 149.9955190  85.0339230  51.9780090 149.0843450  84.0541120  52.6862540
 145.6051730  79.5224430  53.3382340 144.9979680  80.2623330  53.3477640
 146.0801080  79.6123790  52.5120540 152.9904690  84.3637780  51.2560770
 153.0916670  84.1601770  50.3262750 152.0906430  84.1096060  51.4608550
 150.5130580  74.9218140  55.2384670 149.8046730  75.3904480  55.6798280
 150.7975060  74.2640150  55.8729860 152.1386510  76.3414840  63.2377200
 152.6371760  76.8160660  63.9029050 152.2809460  75.4178360  63.4447230
 151.6322800  86.8824100  55.9508440 151.8864300  86.8445490  55.0287810
 150.6835280  86.7557430  55.9436690 148.7165600  73.2303220  52.6135380
 149.5656130  73.6673370  52.5475570 148.3496870  73.5423480  53.4407440
 147.6157020  79.4835580  51.0870910 148.3820290  79.3716940  51.6496340
 147.6931710  78.7873550  50.4347680 146.3103780  76.9160650  51.7703800
 146.3907370  75.9688160  51.8821200 147.2023530  77.2467530  51.8764460
 147.1118490  87.0656040  58.8738340 147.8480970  86.5171500  59.1446910
 147.4959410  87.9312050  58.7344330 143.9963970  83.1329610  54.7479850
 143.0703750  83.3750750  54.7385260 144.4620400  83.9603870  54.6264600
 146.1176770  86.2502110  68.0623920 146.9189500  86.5714160  68.4759320
 145.6028590  85.8897690  68.7843830 150.2220800  86.2386350  50.6963910
 151.0149410  86.5275180  50.2445700 149.7025150  85.8078520  50.0176390
 143.8374580  78.7375570  67.0059970 144.3413600  78.1582850  67.5776200
 143.0982000  79.0215800  67.5436340 150.7398200  81.4589760  50.5606260
 150.6348840  80.8442110  51.2867640 150.5722420  80.9355650  49.7769270
 150.8912520  80.1446560  66.5395490 150.1258190  80.7131560  66.4550160
 151.0728480  79.8522770  65.6463720 145.8697660  76.8805160  67.9010040
 145.9103000  76.5819030  68.8095270 146.7243160  77.2812770  67.7417560
 149.6476050  79.4800710  53.0613550 150.0692470  79.3140580  53.9044940
 149.7726890  78.6700940  52.5668690 147.8103470  75.4597260  65.8684530
 147.2799930  74.9688210  65.2407870 148.4791540  75.8881460  65.3342460
 152.1603690  78.5038320  50.3090650 152.6809350  77.7887340  49.9431800
 152.8072090  79.1424190  50.6091160 148.2975770  72.4259630  65.9481820
 148.2032640  71.8080380  65.2232690 147.7173160  73.1525920  65.7211730
 151.0637210  70.9832870  62.9809210 150.6154510  71.0057130  62.1354760
 150.4302410  70.5851890  63.5779510 151.4696760  79.8787200  63.6021650
 151.8884870  80.7219930  63.4297890 150.5505390  80.0159240  63.3728430
 148.5434950  75.5533940  50.0071710 148.3424010  74.6901300  50.3685050
 148.3727000  75.4667300  49.0693310 149.3204180  86.1840210  64.7179380
 148.7825270  86.9086270  64.3988080 149.5738140  85.7070550  63.9276720
 150.5729430  74.1524730  66.2435310 151.1629120  73.8440580  66.9313130
 149.7549670  73.6804480  66.3995210 147.3417750  72.6534560  49.9949590
 147.6443650  72.6601990  49.0868740 148.0812340  72.3032420  50.4917250
 152.1766390  87.4191420  64.9766030 152.1025090  88.3226560  65.2838400
 151.2745230  87.1003320  64.9488100 150.5602680  71.5969180  50.9805790
 150.2124680  70.9193170  50.4008240 150.7615450  71.1358690  51.7949180
 146.3647880  81.9576980  50.8279390 146.8022750  82.5006650  51.4836970
 146.8495610  81.1323930  50.8375730 143.5793680  84.7466010  58.2799650
 143.9096690  83.8787070  58.0478290 144.0084680  84.9524530  59.1104610
 148.1755600  83.0775020  55.9401620 147.8751140  82.9539990  56.8405530
 148.0693090  82.2183610  55.5317350 144.0683890  85.6136600  61.0181280
 143.6314880  85.7937400  61.8505430 144.6361570  86.3711220  60.8763000
 143.9008320  78.1256830  57.3770160 143.2457160  77.8568470  56.7329860
 144.7386270  78.0161310  56.9272140 144.9384250  78.5109400  61.9173500
 145.3057290  78.4236800  62.7969520 144.3695070  77.7475950  61.8180360
 144.4900250  75.4218490  65.8231920 143.5956300  75.3885250  66.1625630
 145.0297800  75.6205280  66.5883170 143.1146400  75.3355760  53.3195490
 142.2110480  75.5985960  53.1447150 143.5987020  75.6066930  52.5395450
 145.6573610  74.3921300  51.2289870 146.3665310  73.9704520  50.7437150
 144.9413550  74.4596530  50.5973220 145.3047770  70.4460630  50.2692520
 146.0275900  70.9869570  50.5873740 145.5772290  70.1724050  49.3934060
 144.9939960  69.6966820  60.1715140 145.6416150  69.1464200  59.7310300
 145.4141800  69.9509970  60.9930950 144.7471960  69.8522490  62.9140460
 144.3986780  70.3086310  63.6798640 144.4159660  68.9579620  62.9962890
 146.3536330  83.0242090  67.0793650 146.3105960  82.6535000  67.9608110
 146.4847340  83.9619660  67.2195470 150.0542360  84.5801680  62.6803370
 149.8133720  84.8476240  61.7933890 150.9945000  84.7507410  62.7354230
 145.4192600  69.3798690  66.1891230 145.9675590  69.1986740  65.4257340
 145.4847910  68.5892800  66.7247540 146.1924360  85.9704340  64.1991430
 145.5984680  85.8389040  64.9381470 146.1848200  85.1342480  63.7333530
 145.8236590  83.3362720  63.1499470 145.0970650  82.7168010  63.0825420
 145.8845740  83.7303330  62.2797550 149.4281690  85.5507720  59.9348880
 149.9446710  84.9395080  59.4097140 150.0779070  86.0536500  60.4259890
 152.1677190  86.4416210  60.7617860 152.4555000  86.1870510  59.8850870
 152.6800410  85.8893570  61.3523430 144.1066590  86.6537110  56.3596230
 143.9388630  86.0207790  57.0578120 143.2401100  86.8596510  56.0090420
 144.7294610  70.4853890  53.8628090 145.4873970  70.5982770  53.2892120
 144.2671780  71.3223090  53.8171520 151.2708420  72.5993160  56.8530400
 150.4582930  72.2250050  56.5126280 151.7750060  71.8438240  57.1551590
 145.7129290  85.3470340  53.8046370 145.1876910  85.7278370  53.1008330
 145.6373870  85.9721110  54.5256080 147.1019760  71.0117940  52.4030060
 147.6312520  70.2247740  52.2738010 147.7348080  71.6909130  52.6365590
 149.2957600  70.7493080  55.4575450 148.6660340  70.0480390  55.6245580
 148.7562740  71.5097210  55.2408610 152.2349550  87.3632310  68.1286060
 153.1616860  87.1276580  68.1722020 152.2199980  88.1904310  67.6472090
 149.4213160  70.0277060  67.8927940 149.1397430  70.5310660  67.1288760
 149.8032860  69.2298810  67.5270070 148.3122260  87.2952720  52.6795620
 149.0441080  87.0112000  52.1319510 148.5715930  87.0566000  53.5695000
 147.4737050  83.4117450  52.6841950 146.8445930  83.8802550  53.2327780
 147.5884880  82.5666670  53.1188140 147.0770640  79.5521940  41.5928180
 146.2455520  79.2970650  41.9924690 147.6851620  79.6232710  42.3286100
 147.0571900  83.5862030  41.7886200 147.3599940  82.6959770  41.6096420
 147.8015490  84.1432250  41.5608450 145.4862590  74.5123830  35.3770570
 144.5979290  74.8539800  35.2750450 145.7703780  74.3124150  34.4851400
 143.4495600  77.1129480  41.2610270 144.0211710  76.3451680  41.2613910
 143.4497140  77.4118240  40.3516880 144.6920470  72.5213840  43.0479200
 144.5123310  71.6239590  43.3281960 144.2900550  73.0685710  43.7226150
 147.6623980  73.0955330  36.4108950 147.7690730  73.9959060  36.7177710
 146.7516340  73.0473300  36.1203600 145.3107140  75.0174340  41.6561540
 145.9917250  75.2812710  42.2748940 144.9955190  74.1775210  41.9899550
 149.5031710  76.0641700  40.7434130 150.0109930  76.5622670  41.3839150
 150.0344950  75.2876900  40.5673490 147.7867810  70.7040260  45.0097550
 147.7886250  71.2212650  44.2043450 146.9572120  70.2270440  44.9867480
 149.0370660  80.3435440  43.1871050 148.7040040  80.9704360  43.8292120
 149.2137340  80.8697320  42.4072720 147.4683140  72.4150220  43.0168000
 147.8099950  73.2592270  42.7221870 146.5298950  72.5633960  43.1333340
 148.2489760  82.3116240  45.0020230 148.8663760  82.9867320  44.7204680
 147.3882880  82.7204220  44.9107730 143.5422100  81.5016100  33.8827080
 143.1650080  81.9903200  33.1511980 143.7995170  82.1741380  34.5133610
 151.1511030  69.9032490  39.3412590 151.4586010  69.3479380  38.6248090
 150.2211730  70.0376950  39.1585580 149.1448430  78.4946060  38.8592440
 148.7405430  77.7823310  38.3638340 149.2311550  78.1499300  39.7480480
 149.6130130  82.1813620  41.0231650 149.3158420  81.5759090  40.3439430
 150.5629950  82.2190930  40.9121010 147.8577050  75.2689270  42.6391480
 148.4091640  75.3784610  41.8644730 148.3720560  75.6426870  43.3546710
 148.7048560  81.9195310  47.6739450 147.8077090  82.1435280  47.9212850
 148.7301430  82.0430250  46.7250850 147.5319780  78.7908630  46.2496820
 147.3927550  79.6631430  46.6184220 146.6501140  78.4481440  46.1044760
 149.3300130  84.7330330  48.4581970 149.3015560  85.1373280  47.5910400
 149.1665100  83.8040690  48.2953570 145.8453060  77.3891040  36.3599090
 145.7250660  78.1153130  35.7480360 145.5353950  76.6193950  35.8827000
 143.4838430  80.5606180  42.1667730 143.5618850  80.6954950  41.2223450
 144.0980110  79.8522070  42.3595850 144.7286060  82.2606370  38.5773910
 144.3214140  82.4020960  37.7227510 145.6199070  81.9766530  38.3745120
 149.0007720  86.4752150  36.6896580 148.8250200  85.5587690  36.4764380
 148.1463460  86.8339440  36.9294380 143.5397950  81.6020350  44.7062190
 143.7028990  81.1325710  43.8881560 144.0050400  81.0943910  45.3711030
 148.3116720  70.7326110  39.7422760 147.8684870  71.5135650  39.4107280
 148.8701710  71.0556000  40.4493700 152.5986530  73.5994630  45.3458080
 152.1365900  73.8077650  46.1578020 152.1964640  72.7853980  45.0428750
 151.4275540  70.3536810  34.6228590 150.8029720  70.3496680  35.3481900
 151.3405660  69.4867770  34.2264560 150.3492620  71.2773440  41.6012360
 150.6464950  72.1836270  41.5204380 150.8978180  70.7892220  40.9871930
 148.1030940  75.8559680  37.4704010 147.8771860  75.6396850  38.3750630
 147.3223470  76.2888140  37.1249980 150.5430150  76.7545260  48.1364280
 150.4473750  75.8139990  47.9864680 151.3862130  76.9760330  47.7412350
 145.6740690  73.1658930  46.2898060 145.2804080  74.0134140  46.4970840
 144.9859090  72.5285300  46.4806700 152.2485740  73.2493900  49.3594800
 151.5584060  73.0566100  49.9940890 152.9918040  73.5328540  49.8919100
 142.9757740  71.0887390  40.3228140 142.6870790  71.6590250  41.0353120
 143.7203500  70.6091840  40.6859370 143.1627970  75.0307510  31.5330860
 143.0802640  75.9738270  31.6745850 142.8111030  74.8882420  30.6543210
 150.9626100  73.7646540  40.6001210 150.9662160  73.3236490  39.7505750
 151.8577220  74.0863870  40.7073030 146.8128480  73.6473030  39.5595420
 146.4728530  74.1248260  40.3162470 146.0505800  73.1938150  39.1996520
 151.0246250  74.7658620  33.5907970 151.1459070  74.7245100  34.5393790
 150.6394760  75.6282770  33.4354700 150.0367750  77.0759760  32.9891270
 149.4684650  76.6278010  32.3627180 150.7456750  77.4352540  32.4556420
 145.1136930  80.9771780  46.8658000 144.7291720  80.3365450  47.4640960
 145.4249120  81.6807900  47.4352730 151.2634070  77.8248320  42.3466620
 151.6304200  77.3506890  43.0927960 151.0739130  78.6989890  42.6874960
 144.1274560  72.5692010  38.4760090 143.8421480  72.2047680  39.3138710
 144.0653420  71.8372470  37.8623230 149.0533440  76.8656960  44.6650830
 148.7490510  77.7448940  44.8901190 150.0079900  76.9256750  44.7008270
 147.5815230  81.0717950  35.2617680 146.8077490  80.5315570  35.1016400
 148.3109860  80.5524560  34.9235440 147.6252630  80.7398330  38.8996490
 148.1431300  79.9366590  38.8453380 147.1736650  80.6777470  39.7413320
 152.5122130  82.0064610  34.1723790 152.8537830  82.7506840  33.6767110
 151.6834840  82.3195730  34.5348620 145.1097170  77.7059700  45.8122190
 144.7512110  78.3713550  46.3995530 144.8151730  76.8743250  46.1834810
 148.3110290  78.1643940  48.6961740 148.0110430  78.3101120  47.7989560
 149.0821530  77.6049230  48.6035130 151.4812820  82.0878140  36.9439710
 152.1683950  82.6347350  37.3247300 150.6945240  82.6318870  36.9789320
 143.6205220  77.7050960  32.4356790 144.4900070  77.9875760  32.7192710
 143.1295540  78.5186830  32.3205600 150.7840030  79.0924170  36.5565070
 151.2402810  79.9029420  36.7825260 150.4328240  78.7747310  37.3883560
 146.6851810  69.4361820  37.0287590 146.5566440  69.4279720  37.9772510
 145.8613830  69.7744910  36.6778600 143.9876470  86.9178340  33.0018420
 144.3474110  87.5167680  32.3475690 143.8468810  87.4638230  33.7753450
 143.6845740  71.1952940  46.4894290 142.9704260  71.3949860  47.0946900
 144.1040780  70.4192510  46.8609090 143.9718330  85.1833200  47.4760820
 144.0809450  84.2427940  47.3356210 143.3198890  85.4487950  46.8274550
 151.9630920  83.4549090  48.8758940 151.6427790  82.7358330  49.4204630
 151.2889280  84.1304160  48.9495000 150.0045090  84.3009540  33.8192090
 149.9955190  85.0339230  33.2036600 149.0843450  84.0541120  33.9119050
 145.6051730  79.5224430  34.5638850 144.9979680  80.2623330  34.5734150
 146.0801080  79.6123790  33.7377050 152.9904690  84.3637780  32.4817280
 153.0916670  84.1601770  31.5519260 152.0906430  84.1096060  32.6865060
 150.5130580  74.9218140  36.4641180 149.8046730  75.3904480  36.9054790
 150.7975060  74.2640150  37.0986370 152.1386510  76.3414840  44.4633710
 152.6371760  76.8160660  45.1285560 152.2809460  75.4178360  44.6703740
 151.6322800  86.8824100  37.1764950 151.8864300  86.8445490  36.2544320
 150.6835280  86.7557430  37.1693200 148.7165600  73.2303220  33.8391890
 149.5656130  73.6673370  33.7732080 148.3496870  73.5423480  34.6663950
 147.6157020  79.4835580  32.3127420 148.3820290  79.3716940  32.8752850
 147.6931710  78.7873550  31.6604190 146.3103780  76.9160650  32.9960310
 146.3907370  75.9688160  33.1077710 147.2023530  77.2467530  33.1020970
 147.1118490  87.0656040  40.0994850 147.8480970  86.5171500  40.3703420
 147.4959410  87.9312050  39.9600840 143.9963970  83.1329610  35.9736360
 143.0703750  83.3750750  35.9641770 144.4620400  83.9603870  35.8521110
 146.1176770  86.2502110  49.2880430 146.9189500  86.5714160  49.7015830
 145.6028590  85.8897690  50.0100340 150.2220800  86.2386350  31.9220420
 151.0149410  86.5275180  31.4702210 149.7025150  85.8078520  31.2432900
 143.8374580  78.7375570  48.2316480 144.3413600  78.1582850  48.8032710
 143.0982000  79.0215800  48.7692850 150.7398200  81.4589760  31.7862770
 150.6348840  80.8442110  32.5124150 150.5722420  80.9355650  31.0025780
 150.8912520  80.1446560  47.7652000 150.1258190  80.7131560  47.6806670
 151.0728480  79.8522770  46.8720230 145.8697660  76.8805160  49.1266550
 145.9103000  76.5819030  50.0351780 146.7243160  77.2812770  48.9674070
 149.6476050  79.4800710  34.2870060 150.0692470  79.3140580  35.1301450
 149.7726890  78.6700940  33.7925200 147.8103470  75.4597260  47.0941040
 147.2799930  74.9688210  46.4664380 148.4791540  75.8881460  46.5598970
 152.1603690  78.5038320  31.5347160 152.6809350  77.7887340  31.1688310
 152.8072090  79.1424190  31.8347670 148.2975770  72.4259630  47.1738330
 148.2032640  71.8080380  46.4489200 147.7173160  73.1525920  46.9468240
 151.0637210  70.9832870  44.2065720 150.6154510  71.0057130  43.3611270
 150.4302410  70.5851890  44.8036020 151.4696760  79.8787200  44.8278160
 151.8884870  80.7219930  44.6554400 150.5505390  80.0159240  44.5984940
 148.5434950  75.5533940  31.2328220 148.3424010  74.6901300  31.5941560
 148.3727000  75.4667300  30.2949820 149.3204180  86.1840210  45.9435890
 148.7825270  86.9086270  45.6244590 149.5738140  85.7070550  45.1533230
 150.5729430  74.1524730  47.4691820 151.1629120  73.8440580  48.1569640
 149.7549670  73.6804480  47.6251720 147.3417750  72.6534560  31.2206100
 147.6443650  72.6601990  30.3125250 148.0812340  72.3032420  31.7173760
 152.1766390  87.4191420  46.2022540 152.1025090  88.3226560  46.5094910
 151.2745230  87.1003320  46.1744610 150.5602680  71.5969180  32.2062300
 150.2124680  70.9193170  31.6264750 150.7615450  71.1358690  33.0205690
 146.3647880  81.9576980  32.0535900 146.8022750  82.5006650  32.7093480
 146.8495610  81.1323930  32.0632240 143.5793680  84.7466010  39.5056160
 143.9096690  83.8787070  39.2734800 144.0084680  84.9524530  40.3361120
 148.1755600  83.0775020  37.1658130 147.8751140  82.9539990  38.0662040
 148.0693090  82.2183610  36.7573860 144.0683890  85.6136600  42.2437790
 143.6314880  85.7937400  43.0761940 144.6361570  86.3711220  42.1019510
 143.9008320  78.1256830  38.6026670 143.2457160  77.8568470  37.9586370
 144.7386270  78.0161310  38.1528650 144.9384250  78.5109400  43.1430010
 145.3057290  78.4236800  44.0226030 144.3695070  77.7475950  43.0436870
 144.4900250  75.4218490  47.0488430 143.5956300  75.3885250  47.3882140
 145.0297800  75.6205280  47.8139680 143.1146400  75.3355760  34.5452000
 142.2110480  75.5985960  34.3703660 143.5987020  75.6066930  33.7651960
 145.6573610  74.3921300  32.4546380 146.3665310  73.9704520  31.9693660
 144.9413550  74.4596530  31.8229730 145.3047770  70.4460630  31.4949030
 146.0275900  70.9869570  31.8130250 145.5772290  70.1724050  30.6190570
 144.9939960  69.6966820  41.3971650 145.6416150  69.1464200  40.9566810
 145.4141800  69.9509970  42.2187460 144.7471960  69.8522490  44.1396970
 144.3986780  70.3086310  44.9055150 144.4159660  68.9579620  44.2219400
 146.3536330  83.0242090  48.3050160 146.3105960  82.6535000  49.1864620
 146.4847340  83.9619660  48.4451980 150.0542360  84.5801680  43.9059880
 149.8133720  84.8476240  43.0190400 150.9945000  84.7507410  43.9610740
 145.4192600  69.3798690  47.4147740 145.9675590  69.1986740  46.6513850
 145.4847910  68.5892800  47.9504050 146.1924360  85.9704340  45.4247940
 145.5984680  85.8389040  46.1637980 146.1848200  85.1342480  44.9590040
 145.8236590  83.3362720  44.3755980 145.0970650  82.7168010  44.3081930
 145.8845740  83.7303330  43.5054060 149.4281690  85.5507720  41.1605390
 149.9446710  84.9395080  40.6353650 150.0779070  86.0536500  41.6516400
 152.1677190  86.4416210  41.9874370 152.4555000  86.1870510  41.1107380
 152.6800410  85.8893570  42.5779940 144.1066590  86.6537110  37.5852740
 143.9388630  86.0207790  38.2834630 143.2401100  86.8596510  37.2346930
 144.7294610  70.4853890  35.0884600 145.4873970  70.5982770  34.5148630
 144.2671780  71.3223090  35.0428030 151.2708420  72.5993160  38.0786910
 150.4582930  72.2250050  37.7382790 151.7750060  71.8438240  38.3808100
 145.7129290  85.3470340  35.0302880 145.1876910  85.7278370  34.3264840
 145.6373870  85.9721110  35.7512590 147.1019760  71.0117940  33.6286570
 147.6312520  70.2247740  33.4994520 147.7348080  71.6909130  33.8622100
 149.2957600  70.7493080  36.6831960 148.6660340  70.0480390  36.8502090
 148.7562740  71.5097210  36.4665120 152.2349550  87.3632310  49.3542570
 153.1616860  87.1276580  49.3978530 152.2199980  88.1904310  48.8728600
 149.4213160  70.0277060  49.1184450 149.1397430  70.5310660  48.3545270
 149.8032860  69.2298810  48.7526580 148.3122260  87.2952720  33.9052130
 149.0441080  87.0112000  33.3576020 148.5715930  87.0566000  34.7951510
 147.4737050  83.4117450  33.9098460 146.8445930  83.8802550  34.4584290
 147.5884880  82.5666670  34.3444650 147.0770640  79.5521940  22.8184690
 146.2455520  79.2970650  23.2181200 147.6851620  79.6232710  23.5542610
 147.0571900  83.5862030  23.0142710 147.3599940  82.6959770  22.8352930
 147.8015490  84.1432250  22.7864960 145.4862590  74.5123830  16.6027080
 144.5979290  74.8539800  16.5006960 145.7703780  74.3124150  15.7107910
 143.4495600  77.1129480  22.4866780 144.0211710  76.3451680  22.4870420
 143.4497140  77.4118240  21.5773390 144.6920470  72.5213840  24.2735710
 144.5123310  71.6239590  24.5538470 144.2900550  73.0685710  24.9482660
 147.6623980  73.0955330  17.6365460 147.7690730  73.9959060  17.9434220
 146.7516340  73.0473300  17.3460110 145.3107140  75.0174340  22.8818050
 145.9917250  75.2812710  23.5005450 144.9955190  74.1775210  23.2156060
 149.5031710  76.0641700  21.9690640 150.0109930  76.5622670  22.6095660
 150.0344950  75.2876900  21.7930000 147.7867810  70.7040260  26.2354060
 147.7886250  71.2212650  25.4299960 146.9572120  70.2270440  26.2123990
 149.0370660  80.3435440  24.4127560 148.7040040  80.9704360  25.0548630
 149.2137340  80.8697320  23.6329230 147.4683140  72.4150220  24.2424510
 147.8099950  73.2592270  23.9478380 146.5298950  72.5633960  24.3589850
 148.2489760  82.3116240  26.2276740 148.8663760  82.9867320  25.9461190
 147.3882880  82.7204220  26.1364240 143.5422100  81.5016100  15.1083590
 143.1650080  81.9903200  14.3768490 143.7995170  82.1741380  15.7390120
 151.1511030  69.9032490  20.5669100 151.4586010  69.3479380  19.8504600
 150.2211730  70.0376950  20.3842090 149.1448430  78.4946060  20.0848950
 148.7405430  77.7823310  19.5894850 149.2311550  78.1499300  20.9736990
 149.6130130  82.1813620  22.2488160 149.3158420  81.5759090  21.5695940
 150.5629950  82.2190930  22.1377520 147.8577050  75.2689270  23.8647990
 148.4091640  75.3784610  23.0901240 148.3720560  75.6426870  24.5803220
 148.7048560  81.9195310  28.8995960 147.8077090  82.1435280  29.1469360
 148.7301430  82.0430250  27.9507360 147.5319780  78.7908630  27.4753330
 147.3927550  79.6631430  27.8440730 146.6501140  78.4481440  27.3301270
 149.3300130  84.7330330  29.6838480 149.3015560  85.1373280  28.8166910
 149.1665100  83.8040690  29.5210080 145.8453060  77.3891040  17.5855600
 145.7250660  78.1153130  16.9736870 145.5353950  76.6193950  17.1083510
 143.4838430  80.5606180  23.3924240 143.5618850  80.6954950  22.4479960
 144.0980110  79.8522070  23.5852360 144.7286060  82.2606370  19.8030420
 144.3214140  82.4020960  18.9484020 145.6199070  81.9766530  19.6001630
 149.0007720  86.4752150  17.9153090 148.8250200  85.5587690  17.7020890
 148.1463460  86.8339440  18.1550890 143.5397950  81.6020350  25.9318700
 143.7028990  81.1325710  25.1138070 144.0050400  81.0943910  26.5967540
 148.3116720  70.7326110  20.9679270 147.8684870  71.5135650  20.6363790
 148.8701710  71.0556000  21.6750210 152.5986530  73.5994630  26.5714590
 152.1365900  73.8077650  27.3834530 152.1964640  72.7853980  26.2685260
 151.4275540  70.3536810  15.8485100 150.8029720  70.3496680  16.5738410
 151.3405660  69.4867770  15.4521070 150.3492620  71.2773440  22.8268870
 150.6464950  72.1836270  22.7460890 150.8978180  70.7892220  22.2128440
 148.1030940  75.8559680  18.6960520 147.8771860  75.6396850  19.6007140
 147.3223470  76.2888140  18.3506490 150.5430150  76.7545260  29.3620790
 150.4473750  75.8139990  29.2121190 151.3862130  76.9760330  28.9668860
 145.6740690  73.1658930  27.5154570 145.2804080  74.0134140  27.7227350
 144.9859090  72.5285300  27.7063210 152.2485740  73.2493900  30.5851310
 151.5584060  73.0566100  31.2197400 152.9918040  73.5328540  31.1175610
 142.9757740  71.0887390  21.5484650 142.6870790  71.6590250  22.2609630
 143.7203500  70.6091840  21.9115880 143.1627970  75.0307510  12.7587370
 143.0802640  75.9738270  12.9002360 142.8111030  74.8882420  11.8799720
 150.9626100  73.7646540  21.8257720 150.9662160  73.3236490  20.9762260
 151.8577220  74.0863870  21.9329540 146.8128480  73.6473030  20.7851930
 146.4728530  74.1248260  21.5418980 146.0505800  73.1938150  20.4253030
 151.0246250  74.7658620  14.8164480 151.1459070  74.7245100  15.7650300
 150.6394760  75.6282770  14.6611210 150.0367750  77.0759760  14.2147780
 149.4684650  76.6278010  13.5883690 150.7456750  77.4352540  13.6812930
 145.1136930  80.9771780  28.0914510 144.7291720  80.3365450  28.6897470
 145.4249120  81.6807900  28.6609240 151.2634070  77.8248320  23.5723130
 151.6304200  77.3506890  24.3184470 151.0739130  78.6989890  23.9131470
 144.1274560  72.5692010  19.7016600 143.8421480  72.2047680  20.5395220
 144.0653420  71.8372470  19.0879740 149.0533440  76.8656960  25.8907340
 148.7490510  77.7448940  26.1157700 150.0079900  76.9256750  25.9264780
 147.5815230  81.0717950  16.4874190 146.8077490  80.5315570  16.3272910
 148.3109860  80.5524560  16.1491950 147.6252630  80.7398330  20.1253000
 148.1431300  79.9366590  20.0709890 147.1736650  80.6777470  20.9669830
 152.5122130  82.0064610  15.3980300 152.8537830  82.7506840  14.9023620
 151.6834840  82.3195730  15.7605130 145.1097170  77.7059700  27.0378700
 144.7512110  78.3713550  27.6252040 144.8151730  76.8743250  27.4091320
 148.3110290  78.1643940  29.9218250 148.0110430  78.3101120  29.0246070
 149.0821530  77.6049230  29.8291640 151.4812820  82.0878140  18.1696220
 152.1683950  82.6347350  18.5503810 150.6945240  82.6318870  18.2045830
 143.6205220  77.7050960  13.6613300 144.4900070  77.9875760  13.9449220
 143.1295540  78.5186830  13.5462110 150.7840030  79.0924170  17.7821580
 151.2402810  79.9029420  18.0081770 150.4328240  78.7747310  18.6140070
 146.6851810  69.4361820  18.2544100 146.5566440  69.4279720  19.2029020
 145.8613830  69.7744910  17.9035110 143.9876470  86.9178340  14.2274930
 144.3474110  87.5167680  13.5732200 143.8468810  87.4638230  15.0009960
 143.6845740  71.1952940  27.7150800 142.9704260  71.3949860  28.3203410
 144.1040780  70.4192510  28.0865600 143.9718330  85.1833200  28.7017330
 144.0809450  84.2427940  28.5612720 143.3198890  85.4487950  28.0531060
 151.9630920  83.4549090  30.1015450 151.6427790  82.7358330  30.6461140
 151.2889280  84.1304160  30.1751510 150.0045090  84.3009540  15.0448600
 149.9955190  85.0339230  14.4293110 149.0843450  84.0541120  15.1375560
 145.6051730  79.5224430  15.7895360 144.9979680  80.2623330  15.7990660
 146.0801080  79.6123790  14.9633560 152.9904690  84.3637780  13.7073790
 153.0916670  84.1601770  12.7775770 152.0906430  84.1096060  13.9121570
 150.5130580  74.9218140  17.6897690 149.8046730  75.3904480  18.1311300
 150.7975060  74.2640150  18.3242880 152.1386510  76.3414840  25.6890220
 152.6371760  76.8160660  26.3542070 152.2809460  75.4178360  25.8960250
 151.6322800  86.8824100  18.4021460 151.8864300  86.8445490  17.4800830
 150.6835280  86.7557430  18.3949710 148.7165600  73.2303220  15.0648400
 149.5656130  73.6673370  14.9988590 148.3496870  73.5423480  15.8920460
 147.6157020  79.4835580  13.5383930 148.3820290  79.3716940  14.1009360
 147.6931710  78.7873550  12.8860700 146.3103780  76.9160650  14.2216820
 146.3907370  75.9688160  14.3334220 147.2023530  77.2467530  14.3277480
 147.1118490  87.0656040  21.3251360 147.8480970  86.5171500  21.5959930
 147.4959410  87.9312050  21.1857350 143.9963970  83.1329610  17.1992870
 143.0703750  83.3750750  17.1898280 144.4620400  83.9603870  17.0777620
 146.1176770  86.2502110  30.5136940 146.9189500  86.5714160  30.9272340
 145.6028590  85.8897690  31.2356850 150.2220800  86.2386350  13.1476930
 151.0149410  86.5275180  12.6958720 149.7025150  85.8078520  12.4689410
 143.8374580  78.7375570  29.4572990 144.3413600  78.1582850  30.0289220
 143.0982000  79.0215800  29.9949360 150.7398200  81.4589760  13.0119280
 150.6348840  80.8442110  13.7380660 150.5722420  80.9355650  12.2282290
 150.8912520  80.1446560  28.9908510 150.1258190  80.7131560  28.9063180
 151.0728480  79.8522770  28.0976740 145.8697660  76.8805160  30.3523060
 145.9103000  76.5819030  31.2608290 146.7243160  77.2812770  30.1930580
 149.6476050  79.4800710  15.5126570 150.0692470  79.3140580  16.3557960
 149.7726890  78.6700940  15.0181710 147.8103470  75.4597260  28.3197550
 147.2799930  74.9688210  27.6920890 148.4791540  75.8881460  27.7855480
 152.1603690  78.5038320  12.7603670 152.6809350  77.7887340  12.3944820
 152.8072090  79.1424190  13.0604180 148.2975770  72.4259630  28.3994840
 148.2032640  71.8080380  27.6745710 147.7173160  73.1525920  28.1724750
 151.0637210  70.9832870  25.4322230 150.6154510  71.0057130  24.5867780
 150.4302410  70.5851890  26.0292530 151.4696760  79.8787200  26.0534670
 151.8884870  80.7219930  25.8810910 150.5505390  80.0159240  25.8241450
 148.5434950  75.5533940  12.4584730 148.3424010  74.6901300  12.8198070
 148.3727000  75.4667300  11.5206330 149.3204180  86.1840210  27.1692400
 148.7825270  86.9086270  26.8501100 149.5738140  85.7070550  26.3789740
 150.5729430  74.1524730  28.6948330 151.1629120  73.8440580  29.3826150
 149.7549670  73.6804480  28.8508230 147.3417750  72.6534560  12.4462610
 147.6443650  72.6601990  11.5381760 148.0812340  72.3032420  12.9430270
 152.1766390  87.4191420  27.4279050 152.1025090  88.3226560  27.7351420
 151.2745230  87.1003320  27.4001120 150.5602680  71.5969180  13.4318810
 150.2124680  70.9193170  12.8521260 150.7615450  71.1358690  14.2462200
 146.3647880  81.9576980  13.2792410 146.8022750  82.5006650  13.9349990
 146.8495610  81.1323930  13.2888750 143.5793680  84.7466010  20.7312670
 143.9096690  83.8787070  20.4991310 144.0084680  84.9524530  21.5617630
 148.1755600  83.0775020  18.3914640 147.8751140  82.9539990  19.2918550
 148.0693090  82.2183610  17.9830370 144.0683890  85.6136600  23.4694300
 143.6314880  85.7937400  24.3018450 144.6361570  86.3711220  23.3276020
 143.9008320  78.1256830  19.8283180 143.2457160  77.8568470  19.1842880
 144.7386270  78.0161310  19.3785160 144.9384250  78.5109400  24.3686520
 145.3057290  78.4236800  25.2482540 144.3695070  77.7475950  24.2693380
 144.4900250  75.4218490  28.2744940 143.5956300  75.3885250  28.6138650
 145.0297800  75.6205280  29.0396190 143.1146400  75.3355760  15.7708510
 142.2110480  75.5985960  15.5960170 143.5987020  75.6066930  14.9908470
 145.6573610  74.3921300  13.6802890 146.3665310  73.9704520  13.1950170
 144.9413550  74.4596530  13.0486240 145.3047770  70.4460630  12.7205540
 146.0275900  70.9869570  13.0386760 145.5772290  70.1724050  11.8447080
 144.9939960  69.6966820  22.6228160 145.6416150  69.1464200  22.1823320
 145.4141800  69.9509970  23.4443970 144.7471960  69.8522490  25.3653480
 144.3986780  70.3086310  26.1311660 144.4159660  68.9579620  25.4475910
 146.3536330  83.0242090  29.5306670 146.3105960  82.6535000  30.4121130
 146.4847340  83.9619660  29.6708490 150.0542360  84.5801680  25.1316390
 149.8133720  84.8476240  24.2446910 150.9945000  84.7507410  25.1867250
 145.4192600  69.3798690  28.6404250 145.9675590  69.1986740  27.8770360
 145.4847910  68.5892800  29.1760560 146.1924360  85.9704340  26.6504450
 145.5984680  85.8389040  27.3894490 146.1848200  85.1342480  26.1846550
 145.8236590  83.3362720  25.6012490 145.0970650  82.7168010  25.5338440
 145.8845740  83.7303330  24.7310570 149.4281690  85.5507720  22.3861900
 149.9446710  84.9395080  21.8610160 150.0779070  86.0536500  22.8772910
 152.1677190  86.4416210  23.2130880 152.4555000  86.1870510  22.3363890
 152.6800410  85.8893570  23.8036450 144.1066590  86.6537110  18.8109250
 143.9388630  86.0207790  19.5091140 143.2401100  86.8596510  18.4603440
 144.7294610  70.4853890  16.3141110 145.4873970  70.5982770  15.7405140
 144.2671780  71.3223090  16.2684540 151.2708420  72.5993160  19.3043420
 150.4582930  72.2250050  18.9639300 151.7750060  71.8438240  19.6064610
 145.7129290  85.3470340  16.2559390 145.1876910  85.7278370  15.5521350
 145.6373870  85.9721110  16.9769100 147.1019760  71.0117940  14.8543080
 147.6312520  70.2247740  14.7251030 147.7348080  71.6909130  15.0878610
 149.2957600  70.7493080  17.9088470 148.6660340  70.0480390  18.0758600
 148.7562740  71.5097210  17.6921630 152.2349550  87.3632310  30.5799080
 153.1616860  87.1276580  30.6235040 152.2199980  88.1904310  30.0985110
 149.4213160  70.0277060  30.3440960 149.1397430  70.5310660  29.5801780
 149.8032860  69.2298810  29.9783090 148.3122260  87.2952720  15.1308640
 149.0441080  87.0112000  14.5832530 148.5715930  87.0566000  16.0208020
 147.4737050  83.4117450  15.1354970 146.8445930  83.8802550  15.6840800
 147.5884880  82.5666670  15.5701160 147.0770640  79.5521940   4.0441200
 146.2455520  79.2970650   4.4437710 147.6851620  79.6232710   4.7799120
 147.0571900  83.5862030   4.2399220 147.3599940  82.6959770   4.0609440
 147.8015490  84.1432250   4.0121470 143.4495600  77.1129480   3.7123290
 144.0211710  76.3451680   3.7126930 143.4497140  77.4118240   2.8029900
 144.6920470  72.5213840   5.4992220 144.5123310  71.6239590   5.7794980
 144.2900550  73.0685710   6.1739170 145.3107140  75.0174340   4.1074560
 145.9917250  75.2812710   4.7261960 144.9955190  74.1775210   4.4412570
 149.5031710  76.0641700   3.1947150 150.0109930  76.5622670   3.8352170
 150.0344950  75.2876900   3.0186510 147.7867810  70.7040260   7.4610570
 147.7886250  71.2212650   6.6556470 146.9572120  70.2270440   7.4380500
 149.0370660  80.3435440   5.6384070 148.7040040  80.9704360   6.2805140
 149.2137340  80.8697320   4.8585740 147.4683140  72.4150220   5.4681020
 147.8099950  73.2592270   5.1734890 146.5298950  72.5633960   5.5846360
 148.2489760  82.3116240   7.4533250 148.8663760  82.9867320   7.1717700
 147.3882880  82.7204220   7.3620750 149.6130130  82.1813620   3.4744670
 149.3158420  81.5759090   2.7952450 150.5629950  82.2190930   3.3634030
 147.8577050  75.2689270   5.0904500 148.4091640  75.3784610   4.3157750
 148.3720560  75.6426870   5.8059730 148.7048560  81.9195310  10.1252470
 147.8077090  82.1435280  10.3725870 148.7301430  82.0430250   9.1763870
 147.5319780  78.7908630   8.7009840 147.3927550  79.6631430   9.0697240
 146.6501140  78.4481440   8.5557780 149.3300130  84.7330330  10.9094990
 149.3015560  85.1373280  10.0423420 149.1665100  83.8040690  10.7466590
 143.4838430  80.5606180   4.6180750 143.5618850  80.6954950   3.6736470
 144.0980110  79.8522070   4.8108870 143.5397950  81.6020350   7.1575210
 143.7028990  81.1325710   6.3394580 144.0050400  81.0943910   7.8224050
 148.3116720  70.7326110   2.1935780 147.8684870  71.5135650   1.8620300
 148.8701710  71.0556000   2.9006720 152.5986530  73.5994630   7.7971100
 152.1365900  73.8077650   8.6091040 152.1964640  72.7853980   7.4941770
 150.3492620  71.2773440   4.0525380 150.6464950  72.1836270   3.9717400
 150.8978180  70.7892220   3.4384950 150.5430150  76.7545260  10.5877300
 150.4473750  75.8139990  10.4377700 151.3862130  76.9760330  10.1925370
 145.6740690  73.1658930   8.7411080 145.2804080  74.0134140   8.9483860
 144.9859090  72.5285300   8.9319720 152.2485740  73.2493900  11.8107820
 151.5584060  73.0566100  12.4453910 152.9918040  73.5328540  12.3432120
 142.9757740  71.0887390   2.7741160 142.6870790  71.6590250   3.4866140
 143.7203500  70.6091840   3.1372390 150.9626100  73.7646540   3.0514230
 150.9662160  73.3236490   2.2018770 151.8577220  74.0863870   3.1586050
 146.8128480  73.6473030   2.0108440 146.4728530  74.1248260   2.7675490
 146.0505800  73.1938150   1.6509540 145.1136930  80.9771780   9.3171020
 144.7291720  80.3365450   9.9153980 145.4249120  81.6807900   9.8865750
 151.2634070  77.8248320   4.7979640 151.6304200  77.3506890   5.5440980
 151.0739130  78.6989890   5.1387980 149.0533440  76.8656960   7.1163850
 148.7490510  77.7448940   7.3414210 150.0079900  76.9256750   7.1521290
 145.1097170  77.7059700   8.2635210 144.7512110  78.3713550   8.8508550
 144.8151730  76.8743250   8.6347830 148.3110290  78.1643940  11.1474760
 148.0110430  78.3101120  10.2502580 149.0821530  77.6049230  11.0548150
 143.6845740  71.1952940   8.9407310 142.9704260  71.3949860   9.5459920
 144.1040780  70.4192510   9.3122110 143.9718330  85.1833200   9.9273840
 144.0809450  84.2427940   9.7869230 143.3198890  85.4487950   9.2787570
 151.9630920  83.4549090  11.3271960 151.6427790  82.7358330  11.8717650
 151.2889280  84.1304160  11.4008020 152.1386510  76.3414840   6.9146730
 152.6371760  76.8160660   7.5798580 152.2809460  75.4178360   7.1216760
 147.1118490  87.0656040   2.5507870 147.8480970  86.5171500   2.8216440
 147.4959410  87.9312050   2.4113860 146.1176770  86.2502110  11.7393450
 146.9189500  86.5714160  12.1528850 145.6028590  85.8897690  12.4613360
 143.8374580  78.7375570  10.6829500 144.3413600  78.1582850  11.2545730
 143.0982000  79.0215800  11.2205870 150.8912520  80.1446560  10.2165020
 150.1258190  80.7131560  10.1319690 151.0728480  79.8522770   9.3233250
 145.8697660  76.8805160  11.5779570 145.9103000  76.5819030  12.4864800
 146.7243160  77.2812770  11.4187090 147.8103470  75.4597260   9.5454060
 147.2799930  74.9688210   8.9177400 148.4791540  75.8881460   9.0111990
 148.2975770  72.4259630   9.6251350 148.2032640  71.8080380   8.9002220
 147.7173160  73.1525920   9.3981260 151.0637210  70.9832870   6.6578740
 150.6154510  71.0057130   5.8124290 150.4302410  70.5851890   7.2549040
 151.4696760  79.8787200   7.2791180 151.8884870  80.7219930   7.1067420
 150.5505390  80.0159240   7.0497960 149.3204180  86.1840210   8.3948910
 148.7825270  86.9086270   8.0757610 149.5738140  85.7070550   7.6046250
 150.5729430  74.1524730   9.9204840 151.1629120  73.8440580  10.6082660
 149.7549670  73.6804480  10.0764740 152.1766390  87.4191420   8.6535560
 152.1025090  88.3226560   8.9607930 151.2745230  87.1003320   8.6257630
 143.5793680  84.7466010   1.9569180 143.9096690  83.8787070   1.7247820
 144.0084680  84.9524530   2.7874140 144.0683890  85.6136600   4.6950810
 143.6314880  85.7937400   5.5274960 144.6361570  86.3711220   4.5532530
 144.9384250  78.5109400   5.5943030 145.3057290  78.4236800   6.4739050
 144.3695070  77.7475950   5.4949890 144.4900250  75.4218490   9.5001450
 143.5956300  75.3885250   9.8395160 145.0297800  75.6205280  10.2652700
 144.9939960  69.6966820   3.8484670 145.6416150  69.1464200   3.4079830
 145.4141800  69.9509970   4.6700480 144.7471960  69.8522490   6.5909990
 144.3986780  70.3086310   7.3568170 144.4159660  68.9579620   6.6732420
 146.3536330  83.0242090  10.7563180 146.3105960  82.6535000  11.6377640
 146.4847340  83.9619660  10.8965000 150.0542360  84.5801680   6.3572900
 149.8133720  84.8476240   5.4703420 150.9945000  84.7507410   6.4123760
 145.4192600  69.3798690   9.8660760 145.9675590  69.1986740   9.1026870
 145.4847910  68.5892800  10.4017070 146.1924360  85.9704340   7.8760960
 145.5984680  85.8389040   8.6151000 146.1848200  85.1342480   7.4103060
 145.8236590  83.3362720   6.8269000 145.0970650  82.7168010   6.7594950
 145.8845740  83.7303330   5.9567080 149.4281690  85.5507720   3.6118410
 149.9446710  84.9395080   3.0866670 150.0779070  86.0536500   4.1029420
 152.1677190  86.4416210   4.4387390 152.4555000  86.1870510   3.5620400
 152.6800410  85.8893570   5.0292960 152.2349550  87.3632310  11.8055590
 153.1616860  87.1276580  11.8491550 152.2199980  88.1904310  11.3241620
 149.4213160  70.0277060  11.5697470 149.1397430  70.5310660  10.8058290
 149.8032860  69.2298810  11.2039600 147.0571900  64.8118540 154.4347140
 147.3599940  63.9216280 154.2557360 147.8015490  65.3688760 154.2069390
 145.4862590  55.7380340 148.0231510 144.5979290  56.0796310 147.9211390
 145.7703780  55.5380660 147.1312340 143.4495600  58.3385990 153.9071210
 144.0211710  57.5708190 153.9074850 143.4497140  58.6374750 152.9977820
 147.6623980  54.3211840 149.0569890 147.7690730  55.2215570 149.3638650
 146.7516340  54.2729810 148.7664540 149.5031710  57.2898210 153.3895070
 150.0109930  57.7879180 154.0300090 150.0344950  56.5133410 153.2134430
 143.5422100  62.7272610 146.5288020 143.1650080  63.2159710 145.7972920
 143.7995170  63.3997890 147.1594550 151.1511030  51.1289000 151.9873530
 151.4586010  50.5735890 151.2709030 150.2211730  51.2633460 151.8046520
 149.1448430  59.7202570 151.5053380 148.7405430  59.0079820 151.0099280
 149.2311550  59.3755810 152.3941420 149.6130130  63.4070130 153.6692590
 149.3158420  62.8015600 152.9900370 150.5629950  63.4447440 153.5581950
 145.8453060  58.6147550 149.0060030 145.7250660  59.3409640 148.3941300
 145.5353950  57.8450460 148.5287940 144.7286060  63.4862880 151.2234850
 144.3214140  63.6277470 150.3688450 145.6199070  63.2023040 151.0206060
 149.0007720  67.7008660 149.3357520 148.8250200  66.7844200 149.1225320
 148.1463460  68.0595950 149.5755320 148.3116720  51.9582620 152.3883700
 147.8684870  52.7392160 152.0568220 148.8701710  52.2812510 153.0954640
 151.4275540  51.5793320 147.2689530 150.8029720  51.5753190 147.9942840
 151.3405660  50.7124280 146.8725500 150.3492620  52.5029950 154.2473300
 150.6464950  53.4092780 154.1665320 150.8978180  52.0148730 153.6332870
 148.1030940  57.0816190 150.1164950 147.8771860  56.8653360 151.0211570
 147.3223470  57.5144650 149.7710920 142.9757740  52.3143900 152.9689080
 142.6870790  52.8846760 153.6814060 143.7203500  51.8348350 153.3320310
 143.1627970  56.2564020 144.1791800 143.0802640  57.1994780 144.3206790
 142.8111030  56.1138930 143.3004150 150.9626100  54.9903050 153.2462150
 150.9662160  54.5493000 152.3966690 151.8577220  55.3120380 153.3533970
 146.8128480  54.8729540 152.2056360 146.4728530  55.3504770 152.9623410
 146.0505800  54.4194660 151.8457460 151.0246250  55.9915130 146.2368910
 151.1459070  55.9501610 147.1854730 150.6394760  56.8539280 146.0815640
 150.0367750  58.3016270 145.6352210 149.4684650  57.8534520 145.0088120
 150.7456750  58.6609050 145.1017360 144.1274560  53.7948520 151.1221030
 143.8421480  53.4304190 151.9599650 144.0653420  53.0628980 150.5084170
 147.5815230  62.2974460 147.9078620 146.8077490  61.7572080 147.7477340
 148.3109860  61.7781070 147.5696380 147.6252630  61.9654840 151.5457430
 148.1431300  61.1623100 151.4914320 147.1736650  61.9033980 152.3874260
 152.5122130  63.2321120 146.8184730 152.8537830  63.9763350 146.3228050
 151.6834840  63.5452240 147.1809560 151.4812820  63.3134650 149.5900650
 152.1683950  63.8603860 149.9708240 150.6945240  63.8575380 149.6250260
 143.6205220  58.9307470 145.0817730 144.4900070  59.2132270 145.3653650
 143.1295540  59.7443340 144.9666540 150.7840030  60.3180680 149.2026010
 151.2402810  61.1285930 149.4286200 150.4328240  60.0003820 150.0344500
 146.6851810  50.6618330 149.6748530 146.5566440  50.6536230 150.6233450
 145.8613830  51.0001420 149.3239540 143.9876470  68.1434850 145.6479360
 144.3474110  68.7424190 144.9936630 143.8468810  68.6894740 146.4214390
 150.0045090  65.5266050 146.4653030 149.9955190  66.2595740 145.8497540
 149.0843450  65.2797630 146.5579990 145.6051730  60.7480940 147.2099790
 144.9979680  61.4879840 147.2195090 146.0801080  60.8380300 146.3837990
 152.9904690  65.5894290 145.1278220 153.0916670  65.3858280 144.1980200
 152.0906430  65.3352570 145.3326000 150.5130580  56.1474650 149.1102120
 149.8046730  56.6160990 149.5515730 150.7975060  55.4896660 149.7447310
 151.6322800  68.1080610 149.8225890 151.8864300  68.0702000 148.9005260
 150.6835280  67.9813940 149.8154140 148.7165600  54.4559730 146.4852830
 149.5656130  54.8929880 146.4193020 148.3496870  54.7679990 147.3124890
 147.6157020  60.7092090 144.9588360 148.3820290  60.5973450 145.5213790
 147.6931710  60.0130060 144.3065130 146.3103780  58.1417160 145.6421250
 146.3907370  57.1944670 145.7538650 147.2023530  58.4724040 145.7481910
 147.1118490  68.2912550 152.7455790 147.8480970  67.7428010 153.0164360
 147.4959410  69.1568560 152.6061780 143.9963970  64.3586120 148.6197300
 143.0703750  64.6007260 148.6102710 144.4620400  65.1860380 148.4982050
 150.2220800  67.4642860 144.5681360 151.0149410  67.7531690 144.1163150
 149.7025150  67.0335030 143.8893840 150.7398200  62.6846270 144.4323710
 150.6348840  62.0698620 145.1585090 150.5722420  62.1612160 143.6486720
 149.6476050  60.7057220 146.9331000 150.0692470  60.5397090 147.7762390
 149.7726890  59.8957450 146.4386140 152.1603690  59.7294830 144.1808100
 152.6809350  59.0143850 143.8149250 152.8072090  60.3680700 144.4808610
 148.5434950  56.7790450 143.8789160 148.3424010  55.9157810 144.2402500
 148.3727000  56.6923810 142.9410760 147.3417750  53.8791070 143.8667040
 147.6443650  53.8858500 142.9586190 148.0812340  53.5288930 144.3634700
 150.5602680  52.8225690 144.8523240 150.2124680  52.1449680 144.2725690
 150.7615450  52.3615200 145.6666630 146.3647880  63.1833490 144.6996840
 146.8022750  63.7263160 145.3554420 146.8495610  62.3580440 144.7093180
 143.5793680  65.9722520 152.1517100 143.9096690  65.1043580 151.9195740
 144.0084680  66.1781040 152.9822060 148.1755600  64.3031530 149.8119070
 147.8751140  64.1796500 150.7122980 148.0693090  63.4440120 149.4034800
 143.9008320  59.3513340 151.2487610 143.2457160  59.0824980 150.6047310
 144.7386270  59.2417820 150.7989590 143.1146400  56.5612270 147.1912940
 142.2110480  56.8242470 147.0164600 143.5987020  56.8323440 146.4112900
 145.6573610  55.6177810 145.1007320 146.3665310  55.1961030 144.6154600
 144.9413550  55.6853040 144.4690670 145.3047770  51.6717140 144.1409970
 146.0275900  52.2126080 144.4591190 145.5772290  51.3980560 143.2651510
 149.4281690  66.7764230 153.8066330 149.9446710  66.1651590 153.2814590
 150.0779070  67.2793010 154.2977340 144.1066590  67.8793620 150.2313680
 143.9388630  67.2464300 150.9295570 143.2401100  68.0853020 149.8807870
 144.7294610  51.7110400 147.7345540 145.4873970  51.8239280 147.1609570
 144.2671780  52.5479600 147.6888970 151.2708420  53.8249670 150.7247850
 150.4582930  53.4506560 150.3843730 151.7750060  53.0694750 151.0269040
 145.7129290  66.5726850 147.6763820 145.1876910  66.9534880 146.9725780
 145.6373870  67.1977620 148.3973530 147.1019760  52.2374450 146.2747510
 147.6312520  51.4504250 146.1455460 147.7348080  52.9165640 146.5083040
 149.2957600  51.9749590 149.3292900 148.6660340  51.2736900 149.4963030
 148.7562740  52.7353720 149.1126060 148.3122260  68.5209230 146.5513070
 149.0441080  68.2368510 146.0036960 148.5715930  68.2822510 147.4412450
 147.4737050  64.6373960 146.5559400 146.8445930  65.1059060 147.1045230
 147.5884880  63.7923180 146.9905590 147.0770640  60.7778450 135.4645630
 146.2455520  60.5227160 135.8642140 147.6851620  60.8489220 136.2003550
 147.0571900  64.8118540 135.6603650 147.3599940  63.9216280 135.4813870
 147.8015490  65.3688760 135.4325900 145.4862590  55.7380340 129.2488020
 144.5979290  56.0796310 129.1467900 145.7703780  55.5380660 128.3568850
 143.4495600  58.3385990 135.1327720 144.0211710  57.5708190 135.1331360
 143.4497140  58.6374750 134.2234330 144.6920470  53.7470350 136.9196650
 144.5123310  52.8496100 137.1999410 144.2900550  54.2942220 137.5943600
 147.6623980  54.3211840 130.2826400 147.7690730  55.2215570 130.5895160
 146.7516340  54.2729810 129.9921050 145.3107140  56.2430850 135.5278990
 145.9917250  56.5069220 136.1466390 144.9955190  55.4031720 135.8617000
 149.5031710  57.2898210 134.6151580 150.0109930  57.7879180 135.2556600
 150.0344950  56.5133410 134.4390940 147.7867810  51.9296770 138.8815000
 147.7886250  52.4469160 138.0760900 146.9572120  51.4526950 138.8584930
 149.0370660  61.5691950 137.0588500 148.7040040  62.1960870 137.7009570
 149.2137340  62.0953830 136.2790170 147.4683140  53.6406730 136.8885450
 147.8099950  54.4848780 136.5939320 146.5298950  53.7890470 137.0050790
 148.2489760  63.5372750 138.8737680 148.8663760  64.2123830 138.5922130
 147.3882880  63.9460730 138.7825180 143.5422100  62.7272610 127.7544530
 143.1650080  63.2159710 127.0229430 143.7995170  63.3997890 128.3851060
 151.1511030  51.1289000 133.2130040 151.4586010  50.5735890 132.4965540
 150.2211730  51.2633460 133.0303030 149.1448430  59.7202570 132.7309890
 148.7405430  59.0079820 132.2355790 149.2311550  59.3755810 133.6197930
 149.6130130  63.4070130 134.8949100 149.3158420  62.8015600 134.2156880
 150.5629950  63.4447440 134.7838460 147.8577050  56.4945780 136.5108930
 148.4091640  56.6041120 135.7362180 148.3720560  56.8683380 137.2264160
 148.7048560  63.1451820 141.5456900 147.8077090  63.3691790 141.7930300
 148.7301430  63.2686760 140.5968300 147.5319780  60.0165140 140.1214270
 147.3927550  60.8887940 140.4901670 146.6501140  59.6737950 139.9762210
 149.3300130  65.9586840 142.3299420 149.3015560  66.3629790 141.4627850
 149.1665100  65.0297200 142.1671020 145.8453060  58.6147550 130.2316540
 145.7250660  59.3409640 129.6197810 145.5353950  57.8450460 129.7544450
 143.4838430  61.7862690 136.0385180 143.5618850  61.9211460 135.0940900
 144.0980110  61.0778580 136.2313300 144.7286060  63.4862880 132.4491360
 144.3214140  63.6277470 131.5944960 145.6199070  63.2023040 132.2462570
 149.0007720  67.7008660 130.5614030 148.8250200  66.7844200 130.3481830
 148.1463460  68.0595950 130.8011830 143.5397950  62.8276860 138.5779640
 143.7028990  62.3582220 137.7599010 144.0050400  62.3200420 139.2428480
 148.3116720  51.9582620 133.6140210 147.8684870  52.7392160 133.2824730
 148.8701710  52.2812510 134.3211150 152.5986530  54.8251140 139.2175530
 152.1365900  55.0334160 140.0295470 152.1964640  54.0110490 138.9146200
 151.4275540  51.5793320 128.4946040 150.8029720  51.5753190 129.2199350
 151.3405660  50.7124280 128.0982010 150.3492620  52.5029950 135.4729810
 150.6464950  53.4092780 135.3921830 150.8978180  52.0148730 134.8589380
 148.1030940  57.0816190 131.3421460 147.8771860  56.8653360 132.2468080
 147.3223470  57.5144650 130.9967430 150.5430150  57.9801770 142.0081730
 150.4473750  57.0396500 141.8582130 151.3862130  58.2016840 141.6129800
 145.6740690  54.3915440 140.1615510 145.2804080  55.2390650 140.3688290
 144.9859090  53.7541810 140.3524150 152.2485740  54.4750410 143.2312250
 151.5584060  54.2822610 143.8658340 152.9918040  54.7585050 143.7636550
 142.9757740  52.3143900 134.1945590 142.6870790  52.8846760 134.9070570
 143.7203500  51.8348350 134.5576820 143.1627970  56.2564020 125.4048310
 143.0802640  57.1994780 125.5463300 142.8111030  56.1138930 124.5260660
 150.9626100  54.9903050 134.4718660 150.9662160  54.5493000 133.6223200
 151.8577220  55.3120380 134.5790480 146.8128480  54.8729540 133.4312870
 146.4728530  55.3504770 134.1879920 146.0505800  54.4194660 133.0713970
 151.0246250  55.9915130 127.4625420 151.1459070  55.9501610 128.4111240
 150.6394760  56.8539280 127.3072150 150.0367750  58.3016270 126.8608720
 149.4684650  57.8534520 126.2344630 150.7456750  58.6609050 126.3273870
 145.1136930  62.2028290 140.7375450 144.7291720  61.5621960 141.3358410
 145.4249120  62.9064410 141.3070180 151.2634070  59.0504830 136.2184070
 151.6304200  58.5763400 136.9645410 151.0739130  59.9246400 136.5592410
 144.1274560  53.7948520 132.3477540 143.8421480  53.4304190 133.1856160
 144.0653420  53.0628980 131.7340680 149.0533440  58.0913470 138.5368280
 148.7490510  58.9705450 138.7618640 150.0079900  58.1513260 138.5725720
 147.5815230  62.2974460 129.1335130 146.8077490  61.7572080 128.9733850
 148.3109860  61.7781070 128.7952890 147.6252630  61.9654840 132.7713940
 148.1431300  61.1623100 132.7170830 147.1736650  61.9033980 133.6130770
 152.5122130  63.2321120 128.0441240 152.8537830  63.9763350 127.5484560
 151.6834840  63.5452240 128.4066070 145.1097170  58.9316210 139.6839640
 144.7512110  59.5970060 140.2712980 144.8151730  58.0999760 140.0552260
 148.3110290  59.3900450 142.5679190 148.0110430  59.5357630 141.6707010
 149.0821530  58.8305740 142.4752580 151.4812820  63.3134650 130.8157160
 152.1683950  63.8603860 131.1964750 150.6945240  63.8575380 130.8506770
 143.6205220  58.9307470 126.3074240 144.4900070  59.2132270 126.5910160
 143.1295540  59.7443340 126.1923050 150.7840030  60.3180680 130.4282520
 151.2402810  61.1285930 130.6542710 150.4328240  60.0003820 131.2601010
 146.6851810  50.6618330 130.9005040 146.5566440  50.6536230 131.8489960
 145.8613830  51.0001420 130.5496050 143.9876470  68.1434850 126.8735870
 144.3474110  68.7424190 126.2193140 143.8468810  68.6894740 127.6470900
 143.6845740  52.4209450 140.3611740 142.9704260  52.6206370 140.9664350
 144.1040780  51.6449020 140.7326540 143.9718330  66.4089710 141.3478270
 144.0809450  65.4684450 141.2073660 143.3198890  66.6744460 140.6992000
 151.9630920  64.6805600 142.7476390 151.6427790  63.9614840 143.2922080
 151.2889280  65.3560670 142.8212450 150.0045090  65.5266050 127.6909540
 149.9955190  66.2595740 127.0754050 149.0843450  65.2797630 127.7836500
 145.6051730  60.7480940 128.4356300 144.9979680  61.4879840 128.4451600
 146.0801080  60.8380300 127.6094500 152.9904690  65.5894290 126.3534730
 153.0916670  65.3858280 125.4236710 152.0906430  65.3352570 126.5582510
 150.5130580  56.1474650 130.3358630 149.8046730  56.6160990 130.7772240
 150.7975060  55.4896660 130.9703820 152.1386510  57.5671350 138.3351160
 152.6371760  58.0417170 139.0003010 152.2809460  56.6434870 138.5421190
 151.6322800  68.1080610 131.0482400 151.8864300  68.0702000 130.1261770
 150.6835280  67.9813940 131.0410650 148.7165600  54.4559730 127.7109340
 149.5656130  54.8929880 127.6449530 148.3496870  54.7679990 128.5381400
 147.6157020  60.7092090 126.1844870 148.3820290  60.5973450 126.7470300
 147.6931710  60.0130060 125.5321640 146.3103780  58.1417160 126.8677760
 146.3907370  57.1944670 126.9795160 147.2023530  58.4724040 126.9738420
 147.1118490  68.2912550 133.9712300 147.8480970  67.7428010 134.2420870
 147.4959410  69.1568560 133.8318290 143.9963970  64.3586120 129.8453810
 143.0703750  64.6007260 129.8359220 144.4620400  65.1860380 129.7238560
 146.1176770  67.4758620 143.1597880 146.9189500  67.7970670 143.5733280
 145.6028590  67.1154200 143.8817790 150.2220800  67.4642860 125.7937870
 151.0149410  67.7531690 125.3419660 149.7025150  67.0335030 125.1150350
 143.8374580  59.9632080 142.1033930 144.3413600  59.3839360 142.6750160
 143.0982000  60.2472310 142.6410300 150.7398200  62.6846270 125.6580220
 150.6348840  62.0698620 126.3841600 150.5722420  62.1612160 124.8743230
 150.8912520  61.3703070 141.6369450 150.1258190  61.9388070 141.5524120
 151.0728480  61.0779280 140.7437680 145.8697660  58.1061670 142.9984000
 145.9103000  57.8075540 143.9069230 146.7243160  58.5069280 142.8391520
 149.6476050  60.7057220 128.1587510 150.0692470  60.5397090 129.0018900
 149.7726890  59.8957450 127.6642650 147.8103470  56.6853770 140.9658490
 147.2799930  56.1944720 140.3381830 148.4791540  57.1137970 140.4316420
 152.1603690  59.7294830 125.4064610 152.6809350  59.0143850 125.0405760
 152.8072090  60.3680700 125.7065120 148.2975770  53.6516140 141.0455780
 148.2032640  53.0336890 140.3206650 147.7173160  54.3782430 140.8185690
 151.0637210  52.2089380 138.0783170 150.6154510  52.2313640 137.2328720
 150.4302410  51.8108400 138.6753470 151.4696760  61.1043710 138.6995610
 151.8884870  61.9476440 138.5271850 150.5505390  61.2415750 138.4702390
 148.5434950  56.7790450 125.1045670 148.3424010  55.9157810 125.4659010
 148.3727000  56.6923810 124.1667270 149.3204180  67.4096720 139.8153340
 148.7825270  68.1342780 139.4962040 149.5738140  66.9327060 139.0250680
 150.5729430  55.3781240 141.3409270 151.1629120  55.0697090 142.0287090
 149.7549670  54.9060990 141.4969170 147.3417750  53.8791070 125.0923550
 147.6443650  53.8858500 124.1842700 148.0812340  53.5288930 125.5891210
 152.1766390  68.6447930 140.0739990 152.1025090  69.5483070 140.3812360
 151.2745230  68.3259830 140.0462060 150.5602680  52.8225690 126.0779750
 150.2124680  52.1449680 125.4982200 150.7615450  52.3615200 126.8923140
 146.3647880  63.1833490 125.9253350 146.8022750  63.7263160 126.5810930
 146.8495610  62.3580440 125.9349690 143.5793680  65.9722520 133.3773610
 143.9096690  65.1043580 133.1452250 144.0084680  66.1781040 134.2078570
 148.1755600  64.3031530 131.0375580 147.8751140  64.1796500 131.9379490
 148.0693090  63.4440120 130.6291310 144.0683890  66.8393110 136.1155240
 143.6314880  67.0193910 136.9479390 144.6361570  67.5967730 135.9736960
 143.9008320  59.3513340 132.4744120 143.2457160  59.0824980 131.8303820
 144.7386270  59.2417820 132.0246100 144.9384250  59.7365910 137.0147460
 145.3057290  59.6493310 137.8943480 144.3695070  58.9732460 136.9154320
 144.4900250  56.6475000 140.9205880 143.5956300  56.6141760 141.2599590
 145.0297800  56.8461790 141.6857130 143.1146400  56.5612270 128.4169450
 142.2110480  56.8242470 128.2421110 143.5987020  56.8323440 127.6369410
 145.6573610  55.6177810 126.3263830 146.3665310  55.1961030 125.8411110
 144.9413550  55.6853040 125.6947180 145.3047770  51.6717140 125.3666480
 146.0275900  52.2126080 125.6847700 145.5772290  51.3980560 124.4908020
 144.9939960  50.9223330 135.2689100 145.6416150  50.3720710 134.8284260
 145.4141800  51.1766480 136.0904910 144.7471960  51.0779000 138.0114420
 144.3986780  51.5342820 138.7772600 144.4159660  50.1836130 138.0936850
 146.3536330  64.2498600 142.1767610 146.3105960  63.8791510 143.0582070
 146.4847340  65.1876170 142.3169430 150.0542360  65.8058190 137.7777330
 149.8133720  66.0732750 136.8907850 150.9945000  65.9763920 137.8328190
 145.4192600  50.6055200 141.2865190 145.9675590  50.4243250 140.5231300
 145.4847910  49.8149310 141.8221500 146.1924360  67.1960850 139.2965390
 145.5984680  67.0645550 140.0355430 146.1848200  66.3598990 138.8307490
 145.8236590  64.5619230 138.2473430 145.0970650  63.9424520 138.1799380
 145.8845740  64.9559840 137.3771510 149.4281690  66.7764230 135.0322840
 149.9446710  66.1651590 134.5071100 150.0779070  67.2793010 135.5233850
 152.1677190  67.6672720 135.8591820 152.4555000  67.4127020 134.9824830
 152.6800410  67.1150080 136.4497390 144.1066590  67.8793620 131.4570190
 143.9388630  67.2464300 132.1552080 143.2401100  68.0853020 131.1064380
 144.7294610  51.7110400 128.9602050 145.4873970  51.8239280 128.3866080
 144.2671780  52.5479600 128.9145480 151.2708420  53.8249670 131.9504360
 150.4582930  53.4506560 131.6100240 151.7750060  53.0694750 132.2525550
 145.7129290  66.5726850 128.9020330 145.1876910  66.9534880 128.1982290
 145.6373870  67.1977620 129.6230040 147.1019760  52.2374450 127.5004020
 147.6312520  51.4504250 127.3711970 147.7348080  52.9165640 127.7339550
 149.2957600  51.9749590 130.5549410 148.6660340  51.2736900 130.7219540
 148.7562740  52.7353720 130.3382570 152.2349550  68.5888820 143.2260020
 153.1616860  68.3533090 143.2695980 152.2199980  69.4160820 142.7446050
 149.4213160  51.2533570 142.9901900 149.1397430  51.7567170 142.2262720
 149.8032860  50.4555320 142.6244030 148.3122260  68.5209230 127.7769580
 149.0441080  68.2368510 127.2293470 148.5715930  68.2822510 128.6668960
 147.4737050  64.6373960 127.7815910 146.8445930  65.1059060 128.3301740
 147.5884880  63.7923180 128.2162100 147.0770640  60.7778450 116.6902140
 146.2455520  60.5227160 117.0898650 147.6851620  60.8489220 117.4260060
 147.0571900  64.8118540 116.8860160 147.3599940  63.9216280 116.7070380
 147.8015490  65.3688760 116.6582410 145.4862590  55.7380340 110.4744530
 144.5979290  56.0796310 110.3724410 145.7703780  55.5380660 109.5825360
 143.4495600  58.3385990 116.3584230 144.0211710  57.5708190 116.3587870
 143.4497140  58.6374750 115.4490840 144.6920470  53.7470350 118.1453160
 144.5123310  52.8496100 118.4255920 144.2900550  54.2942220 118.8200110
 147.6623980  54.3211840 111.5082910 147.7690730  55.2215570 111.8151670
 146.7516340  54.2729810 111.2177560 145.3107140  56.2430850 116.7535500
 145.9917250  56.5069220 117.3722900 144.9955190  55.4031720 117.0873510
 149.5031710  57.2898210 115.8408090 150.0109930  57.7879180 116.4813110
 150.0344950  56.5133410 115.6647450 147.7867810  51.9296770 120.1071510
 147.7886250  52.4469160 119.3017410 146.9572120  51.4526950 120.0841440
 149.0370660  61.5691950 118.2845010 148.7040040  62.1960870 118.9266080
 149.2137340  62.0953830 117.5046680 147.4683140  53.6406730 118.1141960
 147.8099950  54.4848780 117.8195830 146.5298950  53.7890470 118.2307300
 148.2489760  63.5372750 120.0994190 148.8663760  64.2123830 119.8178640
 147.3882880  63.9460730 120.0081690 143.5422100  62.7272610 108.9801040
 143.1650080  63.2159710 108.2485940 143.7995170  63.3997890 109.6107570
 151.1511030  51.1289000 114.4386550 151.4586010  50.5735890 113.7222050
 150.2211730  51.2633460 114.2559540 149.1448430  59.7202570 113.9566400
 148.7405430  59.0079820 113.4612300 149.2311550  59.3755810 114.8454440
 149.6130130  63.4070130 116.1205610 149.3158420  62.8015600 115.4413390
 150.5629950  63.4447440 116.0094970 147.8577050  56.4945780 117.7365440
 148.4091640  56.6041120 116.9618690 148.3720560  56.8683380 118.4520670
 148.7048560  63.1451820 122.7713410 147.8077090  63.3691790 123.0186810
 148.7301430  63.2686760 121.8224810 147.5319780  60.0165140 121.3470780
 147.3927550  60.8887940 121.7158180 146.6501140  59.6737950 121.2018720
 149.3300130  65.9586840 123.5555930 149.3015560  66.3629790 122.6884360
 149.1665100  65.0297200 123.3927530 145.8453060  58.6147550 111.4573050
 145.7250660  59.3409640 110.8454320 145.5353950  57.8450460 110.9800960
 143.4838430  61.7862690 117.2641690 143.5618850  61.9211460 116.3197410
 144.0980110  61.0778580 117.4569810 144.7286060  63.4862880 113.6747870
 144.3214140  63.6277470 112.8201470 145.6199070  63.2023040 113.4719080
 149.0007720  67.7008660 111.7870540 148.8250200  66.7844200 111.5738340
 148.1463460  68.0595950 112.0268340 143.5397950  62.8276860 119.8036150
 143.7028990  62.3582220 118.9855520 144.0050400  62.3200420 120.4684990
 148.3116720  51.9582620 114.8396720 147.8684870  52.7392160 114.5081240
 148.8701710  52.2812510 115.5467660 152.5986530  54.8251140 120.4432040
 152.1365900  55.0334160 121.2551980 152.1964640  54.0110490 120.1402710
 151.4275540  51.5793320 109.7202550 150.8029720  51.5753190 110.4455860
 151.3405660  50.7124280 109.3238520 150.3492620  52.5029950 116.6986320
 150.6464950  53.4092780 116.6178340 150.8978180  52.0148730 116.0845890
 148.1030940  57.0816190 112.5677970 147.8771860  56.8653360 113.4724590
 147.3223470  57.5144650 112.2223940 150.5430150  57.9801770 123.2338240
 150.4473750  57.0396500 123.0838640 151.3862130  58.2016840 122.8386310
 145.6740690  54.3915440 121.3872020 145.2804080  55.2390650 121.5944800
 144.9859090  53.7541810 121.5780660 152.2485740  54.4750410 124.4568760
 151.5584060  54.2822610 125.0914850 152.9918040  54.7585050 124.9893060
 142.9757740  52.3143900 115.4202100 142.6870790  52.8846760 116.1327080
 143.7203500  51.8348350 115.7833330 143.1627970  56.2564020 106.6304820
 143.0802640  57.1994780 106.7719810 142.8111030  56.1138930 105.7517170
 150.9626100  54.9903050 115.6975170 150.9662160  54.5493000 114.8479710
 151.8577220  55.3120380 115.8046990 146.8128480  54.8729540 114.6569380
 146.4728530  55.3504770 115.4136430 146.0505800  54.4194660 114.2970480
 151.0246250  55.9915130 108.6881930 151.1459070  55.9501610 109.6367750
 150.6394760  56.8539280 108.5328660 150.0367750  58.3016270 108.0865230
 149.4684650  57.8534520 107.4601140 150.7456750  58.6609050 107.5530380
 145.1136930  62.2028290 121.9631960 144.7291720  61.5621960 122.5614920
 145.4249120  62.9064410 122.5326690 151.2634070  59.0504830 117.4440580
 151.6304200  58.5763400 118.1901920 151.0739130  59.9246400 117.7848920
 144.1274560  53.7948520 113.5734050 143.8421480  53.4304190 114.4112670
 144.0653420  53.0628980 112.9597190 149.0533440  58.0913470 119.7624790
 148.7490510  58.9705450 119.9875150 150.0079900  58.1513260 119.7982230
 147.5815230  62.2974460 110.3591640 146.8077490  61.7572080 110.1990360
 148.3109860  61.7781070 110.0209400 147.6252630  61.9654840 113.9970450
 148.1431300  61.1623100 113.9427340 147.1736650  61.9033980 114.8387280
 152.5122130  63.2321120 109.2697750 152.8537830  63.9763350 108.7741070
 151.6834840  63.5452240 109.6322580 145.1097170  58.9316210 120.9096150
 144.7512110  59.5970060 121.4969490 144.8151730  58.0999760 121.2808770
 148.3110290  59.3900450 123.7935700 148.0110430  59.5357630 122.8963520
 149.0821530  58.8305740 123.7009090 151.4812820  63.3134650 112.0413670
 152.1683950  63.8603860 112.4221260 150.6945240  63.8575380 112.0763280
 143.6205220  58.9307470 107.5330750 144.4900070  59.2132270 107.8166670
 143.1295540  59.7443340 107.4179560 150.7840030  60.3180680 111.6539030
 151.2402810  61.1285930 111.8799220 150.4328240  60.0003820 112.4857520
 146.6851810  50.6618330 112.1261550 146.5566440  50.6536230 113.0746470
 145.8613830  51.0001420 111.7752560 143.9876470  68.1434850 108.0992380
 144.3474110  68.7424190 107.4449650 143.8468810  68.6894740 108.8727410
 143.6845740  52.4209450 121.5868250 142.9704260  52.6206370 122.1920860
 144.1040780  51.6449020 121.9583050 143.9718330  66.4089710 122.5734780
 144.0809450  65.4684450 122.4330170 143.3198890  66.6744460 121.9248510
 151.9630920  64.6805600 123.9732900 151.6427790  63.9614840 124.5178590
 151.2889280  65.3560670 124.0468960 150.0045090  65.5266050 108.9166050
 149.9955190  66.2595740 108.3010560 149.0843450  65.2797630 109.0093010
 145.6051730  60.7480940 109.6612810 144.9979680  61.4879840 109.6708110
 146.0801080  60.8380300 108.8351010 152.9904690  65.5894290 107.5791240
 153.0916670  65.3858280 106.6493220 152.0906430  65.3352570 107.7839020
 150.5130580  56.1474650 111.5615140 149.8046730  56.6160990 112.0028750
 150.7975060  55.4896660 112.1960330 152.1386510  57.5671350 119.5607670
 152.6371760  58.0417170 120.2259520 152.2809460  56.6434870 119.7677700
 151.6322800  68.1080610 112.2738910 151.8864300  68.0702000 111.3518280
 150.6835280  67.9813940 112.2667160 148.7165600  54.4559730 108.9365850
 149.5656130  54.8929880 108.8706040 148.3496870  54.7679990 109.7637910
 147.6157020  60.7092090 107.4101380 148.3820290  60.5973450 107.9726810
 147.6931710  60.0130060 106.7578150 146.3103780  58.1417160 108.0934270
 146.3907370  57.1944670 108.2051670 147.2023530  58.4724040 108.1994930
 147.1118490  68.2912550 115.1968810 147.8480970  67.7428010 115.4677380
 147.4959410  69.1568560 115.0574800 143.9963970  64.3586120 111.0710320
 143.0703750  64.6007260 111.0615730 144.4620400  65.1860380 110.9495070
 146.1176770  67.4758620 124.3854390 146.9189500  67.7970670 124.7989790
 145.6028590  67.1154200 125.1074300 150.2220800  67.4642860 107.0194380
 151.0149410  67.7531690 106.5676170 149.7025150  67.0335030 106.3406860
 143.8374580  59.9632080 123.3290440 144.3413600  59.3839360 123.9006670
 143.0982000  60.2472310 123.8666810 150.7398200  62.6846270 106.8836730
 150.6348840  62.0698620 107.6098110 150.5722420  62.1612160 106.0999740
 150.8912520  61.3703070 122.8625960 150.1258190  61.9388070 122.7780630
 151.0728480  61.0779280 121.9694190 145.8697660  58.1061670 124.2240510
 145.9103000  57.8075540 125.1325740 146.7243160  58.5069280 124.0648030
 149.6476050  60.7057220 109.3844020 150.0692470  60.5397090 110.2275410
 149.7726890  59.8957450 108.8899160 147.8103470  56.6853770 122.1915000
 147.2799930  56.1944720 121.5638340 148.4791540  57.1137970 121.6572930
 152.1603690  59.7294830 106.6321120 152.6809350  59.0143850 106.2662270
 152.8072090  60.3680700 106.9321630 148.2975770  53.6516140 122.2712290
 148.2032640  53.0336890 121.5463160 147.7173160  54.3782430 122.0442200
 151.0637210  52.2089380 119.3039680 150.6154510  52.2313640 118.4585230
 150.4302410  51.8108400 119.9009980 151.4696760  61.1043710 119.9252120
 151.8884870  61.9476440 119.7528360 150.5505390  61.2415750 119.6958900
 148.5434950  56.7790450 106.3302180 148.3424010  55.9157810 106.6915520
 148.3727000  56.6923810 105.3923780 149.3204180  67.4096720 121.0409850
 148.7825270  68.1342780 120.7218550 149.5738140  66.9327060 120.2507190
 150.5729430  55.3781240 122.5665780 151.1629120  55.0697090 123.2543600
 149.7549670  54.9060990 122.7225680 147.3417750  53.8791070 106.3180060
 147.6443650  53.8858500 105.4099210 148.0812340  53.5288930 106.8147720
 152.1766390  68.6447930 121.2996500 152.1025090  69.5483070 121.6068870
 151.2745230  68.3259830 121.2718570 150.5602680  52.8225690 107.3036260
 150.2124680  52.1449680 106.7238710 150.7615450  52.3615200 108.1179650
 146.3647880  63.1833490 107.1509860 146.8022750  63.7263160 107.8067440
 146.8495610  62.3580440 107.1606200 143.5793680  65.9722520 114.6030120
 143.9096690  65.1043580 114.3708760 144.0084680  66.1781040 115.4335080
 148.1755600  64.3031530 112.2632090 147.8751140  64.1796500 113.1636000
 148.0693090  63.4440120 111.8547820 144.0683890  66.8393110 117.3411750
 143.6314880  67.0193910 118.1735900 144.6361570  67.5967730 117.1993470
 143.9008320  59.3513340 113.7000630 143.2457160  59.0824980 113.0560330
 144.7386270  59.2417820 113.2502610 144.9384250  59.7365910 118.2403970
 145.3057290  59.6493310 119.1199990 144.3695070  58.9732460 118.1410830
 144.4900250  56.6475000 122.1462390 143.5956300  56.6141760 122.4856100
 145.0297800  56.8461790 122.9113640 143.1146400  56.5612270 109.6425960
 142.2110480  56.8242470 109.4677620 143.5987020  56.8323440 108.8625920
 145.6573610  55.6177810 107.5520340 146.3665310  55.1961030 107.0667620
 144.9413550  55.6853040 106.9203690 145.3047770  51.6717140 106.5922990
 146.0275900  52.2126080 106.9104210 145.5772290  51.3980560 105.7164530
 144.9939960  50.9223330 116.4945610 145.6416150  50.3720710 116.0540770
 145.4141800  51.1766480 117.3161420 144.7471960  51.0779000 119.2370930
 144.3986780  51.5342820 120.0029110 144.4159660  50.1836130 119.3193360
 146.3536330  64.2498600 123.4024120 146.3105960  63.8791510 124.2838580
 146.4847340  65.1876170 123.5425940 150.0542360  65.8058190 119.0033840
 149.8133720  66.0732750 118.1164360 150.9945000  65.9763920 119.0584700
 145.4192600  50.6055200 122.5121700 145.9675590  50.4243250 121.7487810
 145.4847910  49.8149310 123.0478010 146.1924360  67.1960850 120.5221900
 145.5984680  67.0645550 121.2611940 146.1848200  66.3598990 120.0564000
 145.8236590  64.5619230 119.4729940 145.0970650  63.9424520 119.4055890
 145.8845740  64.9559840 118.6028020 149.4281690  66.7764230 116.2579350
 149.9446710  66.1651590 115.7327610 150.0779070  67.2793010 116.7490360
 152.1677190  67.6672720 117.0848330 152.4555000  67.4127020 116.2081340
 152.6800410  67.1150080 117.6753900 144.1066590  67.8793620 112.6826700
 143.9388630  67.2464300 113.3808590 143.2401100  68.0853020 112.3320890
 144.7294610  51.7110400 110.1858560 145.4873970  51.8239280 109.6122590
 144.2671780  52.5479600 110.1401990 151.2708420  53.8249670 113.1760870
 150.4582930  53.4506560 112.8356750 151.7750060  53.0694750 113.4782060
 145.7129290  66.5726850 110.1276840 145.1876910  66.9534880 109.4238800
 145.6373870  67.1977620 110.8486550 147.1019760  52.2374450 108.7260530
 147.6312520  51.4504250 108.5968480 147.7348080  52.9165640 108.9596060
 149.2957600  51.9749590 111.7805920 148.6660340  51.2736900 111.9476050
 148.7562740  52.7353720 111.5639080 152.2349550  68.5888820 124.4516530
 153.1616860  68.3533090 124.4952490 152.2199980  69.4160820 123.9702560
 149.4213160  51.2533570 124.2158410 149.1397430  51.7567170 123.4519230
 149.8032860  50.4555320 123.8500540 148.3122260  68.5209230 109.0026090
 149.0441080  68.2368510 108.4549980 148.5715930  68.2822510 109.8925470
 147.4737050  64.6373960 109.0072420 146.8445930  65.1059060 109.5558250
 147.5884880  63.7923180 109.4418610 147.0770640  60.7778450  97.9158650
 146.2455520  60.5227160  98.3155160 147.6851620  60.8489220  98.6516570
 147.0571900  64.8118540  98.1116670 147.3599940  63.9216280  97.9326890
 147.8015490  65.3688760  97.8838920 145.4862590  55.7380340  91.7001040
 144.5979290  56.0796310  91.5980920 145.7703780  55.5380660  90.8081870
 143.4495600  58.3385990  97.5840740 144.0211710  57.5708190  97.5844380
 143.4497140  58.6374750  96.6747350 144.6920470  53.7470350  99.3709670
 144.5123310  52.8496100  99.6512430 144.2900550  54.2942220 100.0456620
 147.6623980  54.3211840  92.7339420 147.7690730  55.2215570  93.0408180
 146.7516340  54.2729810  92.4434070 145.3107140  56.2430850  97.9792010
 145.9917250  56.5069220  98.5979410 144.9955190  55.4031720  98.3130020
 149.5031710  57.2898210  97.0664600 150.0109930  57.7879180  97.7069620
 150.0344950  56.5133410  96.8903960 147.7867810  51.9296770 101.3328020
 147.7886250  52.4469160 100.5273920 146.9572120  51.4526950 101.3097950
 149.0370660  61.5691950  99.5101520 148.7040040  62.1960870 100.1522590
 149.2137340  62.0953830  98.7303190 147.4683140  53.6406730  99.3398470
 147.8099950  54.4848780  99.0452340 146.5298950  53.7890470  99.4563810
 148.2489760  63.5372750 101.3250700 148.8663760  64.2123830 101.0435150
 147.3882880  63.9460730 101.2338200 143.5422100  62.7272610  90.2057550
 143.1650080  63.2159710  89.4742450 143.7995170  63.3997890  90.8364080
 151.1511030  51.1289000  95.6643060 151.4586010  50.5735890  94.9478560
 150.2211730  51.2633460  95.4816050 149.1448430  59.7202570  95.1822910
 148.7405430  59.0079820  94.6868810 149.2311550  59.3755810  96.0710950
 149.6130130  63.4070130  97.3462120 149.3158420  62.8015600  96.6669900
 150.5629950  63.4447440  97.2351480 147.8577050  56.4945780  98.9621950
 148.4091640  56.6041120  98.1875200 148.3720560  56.8683380  99.6777180
 148.7048560  63.1451820 103.9969920 147.8077090  63.3691790 104.2443320
 148.7301430  63.2686760 103.0481320 147.5319780  60.0165140 102.5727290
 147.3927550  60.8887940 102.9414690 146.6501140  59.6737950 102.4275230
 149.3300130  65.9586840 104.7812440 149.3015560  66.3629790 103.9140870
 149.1665100  65.0297200 104.6184040 145.8453060  58.6147550  92.6829560
 145.7250660  59.3409640  92.0710830 145.5353950  57.8450460  92.2057470
 143.4838430  61.7862690  98.4898200 143.5618850  61.9211460  97.5453920
 144.0980110  61.0778580  98.6826320 144.7286060  63.4862880  94.9004380
 144.3214140  63.6277470  94.0457980 145.6199070  63.2023040  94.6975590
 149.0007720  67.7008660  93.0127050 148.8250200  66.7844200  92.7994850
 148.1463460  68.0595950  93.2524850 143.5397950  62.8276860 101.0292660
 143.7028990  62.3582220 100.2112030 144.0050400  62.3200420 101.6941500
 148.3116720  51.9582620  96.0653230 147.8684870  52.7392160  95.7337750
 148.8701710  52.2812510  96.7724170 152.5986530  54.8251140 101.6688550
 152.1365900  55.0334160 102.4808490 152.1964640  54.0110490 101.3659220
 151.4275540  51.5793320  90.9459060 150.8029720  51.5753190  91.6712370
 151.3405660  50.7124280  90.5495030 150.3492620  52.5029950  97.9242830
 150.6464950  53.4092780  97.8434850 150.8978180  52.0148730  97.3102400
 148.1030940  57.0816190  93.7934480 147.8771860  56.8653360  94.6981100
 147.3223470  57.5144650  93.4480450 150.5430150  57.9801770 104.4594750
 150.4473750  57.0396500 104.3095150 151.3862130  58.2016840 104.0642820
 145.6740690  54.3915440 102.6128530 145.2804080  55.2390650 102.8201310
 144.9859090  53.7541810 102.8037170 152.2485740  54.4750410 105.6825270
 151.5584060  54.2822610 106.3171360 152.9918040  54.7585050 106.2149570
 142.9757740  52.3143900  96.6458610 142.6870790  52.8846760  97.3583590
 143.7203500  51.8348350  97.0089840 143.1627970  56.2564020  87.8561330
 143.0802640  57.1994780  87.9976320 142.8111030  56.1138930  86.9773680
 150.9626100  54.9903050  96.9231680 150.9662160  54.5493000  96.0736220
 151.8577220  55.3120380  97.0303500 146.8128480  54.8729540  95.8825890
 146.4728530  55.3504770  96.6392940 146.0505800  54.4194660  95.5226990
 151.0246250  55.9915130  89.9138440 151.1459070  55.9501610  90.8624260
 150.6394760  56.8539280  89.7585170 150.0367750  58.3016270  89.3121740
 149.4684650  57.8534520  88.6857650 150.7456750  58.6609050  88.7786890
 145.1136930  62.2028290 103.1888470 144.7291720  61.5621960 103.7871430
 145.4249120  62.9064410 103.7583200 151.2634070  59.0504830  98.6697090
 151.6304200  58.5763400  99.4158430 151.0739130  59.9246400  99.0105430
 144.1274560  53.7948520  94.7990560 143.8421480  53.4304190  95.6369180
 144.0653420  53.0628980  94.1853700 149.0533440  58.0913470 100.9881300
 148.7490510  58.9705450 101.2131660 150.0079900  58.1513260 101.0238740
 147.5815230  62.2974460  91.5848150 146.8077490  61.7572080  91.4246870
 148.3109860  61.7781070  91.2465910 147.6252630  61.9654840  95.2226960
 148.1431300  61.1623100  95.1683850 147.1736650  61.9033980  96.0643790
 152.5122130  63.2321120  90.4954260 152.8537830  63.9763350  89.9997580
 151.6834840  63.5452240  90.8579090 145.1097170  58.9316210 102.1352660
 144.7512110  59.5970060 102.7226000 144.8151730  58.0999760 102.5065280
 148.3110290  59.3900450 105.0192210 148.0110430  59.5357630 104.1220030
 149.0821530  58.8305740 104.9265600 151.4812820  63.3134650  93.2670180
 152.1683950  63.8603860  93.6477770 150.6945240  63.8575380  93.3019790
 143.6205220  58.9307470  88.7587260 144.4900070  59.2132270  89.0423180
 143.1295540  59.7443340  88.6436070 150.7840030  60.3180680  92.8795540
 151.2402810  61.1285930  93.1055730 150.4328240  60.0003820  93.7114030
 146.6851810  50.6618330  93.3518060 146.5566440  50.6536230  94.3002980
 145.8613830  51.0001420  93.0009070 143.9876470  68.1434850  89.3248890
 144.3474110  68.7424190  88.6706160 143.8468810  68.6894740  90.0983920
 143.6845740  52.4209450 102.8124760 142.9704260  52.6206370 103.4177370
 144.1040780  51.6449020 103.1839560 143.9718330  66.4089710 103.7991290
 144.0809450  65.4684450 103.6586680 143.3198890  66.6744460 103.1505020
 151.9630920  64.6805600 105.1989410 151.6427790  63.9614840 105.7435100
 151.2889280  65.3560670 105.2725470 150.0045090  65.5266050  90.1422560
 149.9955190  66.2595740  89.5267070 149.0843450  65.2797630  90.2349520
 145.6051730  60.7480940  90.8869320 144.9979680  61.4879840  90.8964620
 146.0801080  60.8380300  90.0607520 152.9904690  65.5894290  88.8047750
 153.0916670  65.3858280  87.8749730 152.0906430  65.3352570  89.0095530
 150.5130580  56.1474650  92.7871650 149.8046730  56.6160990  93.2285260
 150.7975060  55.4896660  93.4216840 152.1386510  57.5671350 100.7864180
 152.6371760  58.0417170 101.4516030 152.2809460  56.6434870 100.9934210
 151.6322800  68.1080610  93.4995420 151.8864300  68.0702000  92.5774790
 150.6835280  67.9813940  93.4923670 148.7165600  54.4559730  90.1622360
 149.5656130  54.8929880  90.0962550 148.3496870  54.7679990  90.9894420
 147.6157020  60.7092090  88.6357890 148.3820290  60.5973450  89.1983320
 147.6931710  60.0130060  87.9834660 146.3103780  58.1417160  89.3190780
 146.3907370  57.1944670  89.4308180 147.2023530  58.4724040  89.4251440
 147.1118490  68.2912550  96.4225320 147.8480970  67.7428010  96.6933890
 147.4959410  69.1568560  96.2831310 143.9963970  64.3586120  92.2966830
 143.0703750  64.6007260  92.2872240 144.4620400  65.1860380  92.1751580
 146.1176770  67.4758620 105.6110900 146.9189500  67.7970670 106.0246300
 145.6028590  67.1154200 106.3330810 150.2220800  67.4642860  88.2450890
 151.0149410  67.7531690  87.7932680 149.7025150  67.0335030  87.5663370
 143.8374580  59.9632080 104.5546950 144.3413600  59.3839360 105.1263180
 143.0982000  60.2472310 105.0923320 150.7398200  62.6846270  88.1093240
 150.6348840  62.0698620  88.8354620 150.5722420  62.1612160  87.3256250
 150.8912520  61.3703070 104.0882470 150.1258190  61.9388070 104.0037140
 151.0728480  61.0779280 103.1950700 145.8697660  58.1061670 105.4497020
 145.9103000  57.8075540 106.3582250 146.7243160  58.5069280 105.2904540
 149.6476050  60.7057220  90.6100530 150.0692470  60.5397090  91.4531920
 149.7726890  59.8957450  90.1155670 147.8103470  56.6853770 103.4171510
 147.2799930  56.1944720 102.7894850 148.4791540  57.1137970 102.8829440
 152.1603690  59.7294830  87.8577630 152.6809350  59.0143850  87.4918780
 152.8072090  60.3680700  88.1578140 148.2975770  53.6516140 103.4968800
 148.2032640  53.0336890 102.7719670 147.7173160  54.3782430 103.2698710
 151.0637210  52.2089380 100.5296190 150.6154510  52.2313640  99.6841740
 150.4302410  51.8108400 101.1266490 151.4696760  61.1043710 101.1508630
 151.8884870  61.9476440 100.9784870 150.5505390  61.2415750 100.9215410
 148.5434950  56.7790450  87.5558690 148.3424010  55.9157810  87.9172030
 148.3727000  56.6923810  86.6180290 149.3204180  67.4096720 102.2666360
 148.7825270  68.1342780 101.9475060 149.5738140  66.9327060 101.4763700
 150.5729430  55.3781240 103.7922290 151.1629120  55.0697090 104.4800110
 149.7549670  54.9060990 103.9482190 147.3417750  53.8791070  87.5436570
 147.6443650  53.8858500  86.6355720 148.0812340  53.5288930  88.0404230
 152.1766390  68.6447930 102.5253010 152.1025090  69.5483070 102.8325380
 151.2745230  68.3259830 102.4975080 150.5602680  52.8225690  88.5292770
 150.2124680  52.1449680  87.9495220 150.7615450  52.3615200  89.3436160
 146.3647880  63.1833490  88.3766370 146.8022750  63.7263160  89.0323950
 146.8495610  62.3580440  88.3862710 143.5793680  65.9722520  95.8286630
 143.9096690  65.1043580  95.5965270 144.0084680  66.1781040  96.6591590
 148.1755600  64.3031530  93.4888600 147.8751140  64.1796500  94.3892510
 148.0693090  63.4440120  93.0804330 144.0683890  66.8393110  98.5668260
 143.6314880  67.0193910  99.3992410 144.6361570  67.5967730  98.4249980
 143.9008320  59.3513340  94.9257140 143.2457160  59.0824980  94.2816840
 144.7386270  59.2417820  94.4759120 144.9384250  59.7365910  99.4660480
 145.3057290  59.6493310 100.3456500 144.3695070  58.9732460  99.3667340
 144.4900250  56.6475000 103.3718900 143.5956300  56.6141760 103.7112610
 145.0297800  56.8461790 104.1370150 143.1146400  56.5612270  90.8682470
 142.2110480  56.8242470  90.6934130 143.5987020  56.8323440  90.0882430
 145.6573610  55.6177810  88.7776850 146.3665310  55.1961030  88.2924130
 144.9413550  55.6853040  88.1460200 145.3047770  51.6717140  87.8179500
 146.0275900  52.2126080  88.1360720 145.5772290  51.3980560  86.9421040
 144.9939960  50.9223330  97.7202120 145.6416150  50.3720710  97.2797280
 145.4141800  51.1766480  98.5417930 144.7471960  51.0779000 100.4627440
 144.3986780  51.5342820 101.2285620 144.4159660  50.1836130 100.5449870
 146.3536330  64.2498600 104.6280630 146.3105960  63.8791510 105.5095090
 146.4847340  65.1876170 104.7682450 150.0542360  65.8058190 100.2290350
 149.8133720  66.0732750  99.3420870 150.9945000  65.9763920 100.2841210
 145.4192600  50.6055200 103.7378210 145.9675590  50.4243250 102.9744320
 145.4847910  49.8149310 104.2734520 146.1924360  67.1960850 101.7478410
 145.5984680  67.0645550 102.4868450 146.1848200  66.3598990 101.2820510
 145.8236590  64.5619230 100.6986450 145.0970650  63.9424520 100.6312400
 145.8845740  64.9559840  99.8284530 149.4281690  66.7764230  97.4835860
 149.9446710  66.1651590  96.9584120 150.0779070  67.2793010  97.9746870
 152.1677190  67.6672720  98.3104840 152.4555000  67.4127020  97.4337850
 152.6800410  67.1150080  98.9010410 144.1066590  67.8793620  93.9083210
 143.9388630  67.2464300  94.6065100 143.2401100  68.0853020  93.5577400
 144.7294610  51.7110400  91.4115070 145.4873970  51.8239280  90.8379100
 144.2671780  52.5479600  91.3658500 151.2708420  53.8249670  94.4017380
 150.4582930  53.4506560  94.0613260 151.7750060  53.0694750  94.7038570
 145.7129290  66.5726850  91.3533350 145.1876910  66.9534880  90.6495310
 145.6373870  67.1977620  92.0743060 147.1019760  52.2374450  89.9517040
 147.6312520  51.4504250  89.8224990 147.7348080  52.9165640  90.1852570
 149.2957600  51.9749590  93.0062430 148.6660340  51.2736900  93.1732560
 148.7562740  52.7353720  92.7895590 152.2349550  68.5888820 105.6773040
 153.1616860  68.3533090 105.7209000 152.2199980  69.4160820 105.1959070
 149.4213160  51.2533570 105.4414920 149.1397430  51.7567170 104.6775740
 149.8032860  50.4555320 105.0757050 148.3122260  68.5209230  90.2282600
 149.0441080  68.2368510  89.6806490 148.5715930  68.2822510  91.1181980
 147.4737050  64.6373960  90.2328930 146.8445930  65.1059060  90.7814760
 147.5884880  63.7923180  90.6675120 147.0770640  60.7778450  79.1415160
 146.2455520  60.5227160  79.5411670 147.6851620  60.8489220  79.8773080
 147.0571900  64.8118540  79.3373180 147.3599940  63.9216280  79.1583400
 147.8015490  65.3688760  79.1095430 145.4862590  55.7380340  72.9257550
 144.5979290  56.0796310  72.8237430 145.7703780  55.5380660  72.0338380
 143.4495600  58.3385990  78.8097250 144.0211710  57.5708190  78.8100890
 143.4497140  58.6374750  77.9003860 144.6920470  53.7470350  80.5966180
 144.5123310  52.8496100  80.8768940 144.2900550  54.2942220  81.2713130
 147.6623980  54.3211840  73.9595930 147.7690730  55.2215570  74.2664690
 146.7516340  54.2729810  73.6690580 145.3107140  56.2430850  79.2048520
 145.9917250  56.5069220  79.8235920 144.9955190  55.4031720  79.5386530
 149.5031710  57.2898210  78.2921110 150.0109930  57.7879180  78.9326130
 150.0344950  56.5133410  78.1160470 147.7867810  51.9296770  82.5584530
 147.7886250  52.4469160  81.7530430 146.9572120  51.4526950  82.5354460
 149.0370660  61.5691950  80.7358030 148.7040040  62.1960870  81.3779100
 149.2137340  62.0953830  79.9559700 147.4683140  53.6406730  80.5654980
 147.8099950  54.4848780  80.2708850 146.5298950  53.7890470  80.6820320
 148.2489760  63.5372750  82.5507210 148.8663760  64.2123830  82.2691660
 147.3882880  63.9460730  82.4594710 143.5422100  62.7272610  71.4314060
 143.1650080  63.2159710  70.6998960 143.7995170  63.3997890  72.0620590
 151.1511030  51.1289000  76.8899570 151.4586010  50.5735890  76.1735070
 150.2211730  51.2633460  76.7072560 149.1448430  59.7202570  76.4079420
 148.7405430  59.0079820  75.9125320 149.2311550  59.3755810  77.2967460
 149.6130130  63.4070130  78.5718630 149.3158420  62.8015600  77.8926410
 150.5629950  63.4447440  78.4607990 147.8577050  56.4945780  80.1878460
 148.4091640  56.6041120  79.4131710 148.3720560  56.8683380  80.9033690
 148.7048560  63.1451820  85.2226430 147.8077090  63.3691790  85.4699830
 148.7301430  63.2686760  84.2737830 147.5319780  60.0165140  83.7983800
 147.3927550  60.8887940  84.1671200 146.6501140  59.6737950  83.6531740
 149.3300130  65.9586840  86.0068950 149.3015560  66.3629790  85.1397380
 149.1665100  65.0297200  85.8440550 145.8453060  58.6147550  73.9086070
 145.7250660  59.3409640  73.2967340 145.5353950  57.8450460  73.4313980
 143.4838430  61.7862690  79.7154710 143.5618850  61.9211460  78.7710430
 144.0980110  61.0778580  79.9082830 144.7286060  63.4862880  76.1260890
 144.3214140  63.6277470  75.2714490 145.6199070  63.2023040  75.9232100
 149.0007720  67.7008660  74.2383560 148.8250200  66.7844200  74.0251360
 148.1463460  68.0595950  74.4781360 143.5397950  62.8276860  82.2549170
 143.7028990  62.3582220  81.4368540 144.0050400  62.3200420  82.9198010
 148.3116720  51.9582620  77.2909740 147.8684870  52.7392160  76.9594260
 148.8701710  52.2812510  77.9980680 152.5986530  54.8251140  82.8945060
 152.1365900  55.0334160  83.7065000 152.1964640  54.0110490  82.5915730
 151.4275540  51.5793320  72.1715570 150.8029720  51.5753190  72.8968880
 151.3405660  50.7124280  71.7751540 150.3492620  52.5029950  79.1499340
 150.6464950  53.4092780  79.0691360 150.8978180  52.0148730  78.5358910
 148.1030940  57.0816190  75.0190990 147.8771860  56.8653360  75.9237610
 147.3223470  57.5144650  74.6736960 150.5430150  57.9801770  85.6851260
 150.4473750  57.0396500  85.5351660 151.3862130  58.2016840  85.2899330
 145.6740690  54.3915440  83.8385040 145.2804080  55.2390650  84.0457820
 144.9859090  53.7541810  84.0293680 152.2485740  54.4750410  86.9081780
 151.5584060  54.2822610  87.5427870 152.9918040  54.7585050  87.4406080
 142.9757740  52.3143900  77.8715120 142.6870790  52.8846760  78.5840100
 143.7203500  51.8348350  78.2346350 143.1627970  56.2564020  69.0817840
 143.0802640  57.1994780  69.2232830 142.8111030  56.1138930  68.2030190
 150.9626100  54.9903050  78.1488190 150.9662160  54.5493000  77.2992730
 151.8577220  55.3120380  78.2560010 146.8128480  54.8729540  77.1082400
 146.4728530  55.3504770  77.8649450 146.0505800  54.4194660  76.7483500
 151.0246250  55.9915130  71.1394950 151.1459070  55.9501610  72.0880770
 150.6394760  56.8539280  70.9841680 150.0367750  58.3016270  70.5378250
 149.4684650  57.8534520  69.9114160 150.7456750  58.6609050  70.0043400
 145.1136930  62.2028290  84.4144980 144.7291720  61.5621960  85.0127940
 145.4249120  62.9064410  84.9839710 151.2634070  59.0504830  79.8953600
 151.6304200  58.5763400  80.6414940 151.0739130  59.9246400  80.2361940
 144.1274560  53.7948520  76.0247070 143.8421480  53.4304190  76.8625690
 144.0653420  53.0628980  75.4110210 149.0533440  58.0913470  82.2137810
 148.7490510  58.9705450  82.4388170 150.0079900  58.1513260  82.2495250
 147.5815230  62.2974460  72.8104660 146.8077490  61.7572080  72.6503380
 148.3109860  61.7781070  72.4722420 147.6252630  61.9654840  76.4483470
 148.1431300  61.1623100  76.3940360 147.1736650  61.9033980  77.2900300
 152.5122130  63.2321120  71.7210770 152.8537830  63.9763350  71.2254090
 151.6834840  63.5452240  72.0835600 145.1097170  58.9316210  83.3609170
 144.7512110  59.5970060  83.9482510 144.8151730  58.0999760  83.7321790
 148.3110290  59.3900450  86.2448720 148.0110430  59.5357630  85.3476540
 149.0821530  58.8305740  86.1522110 151.4812820  63.3134650  74.4926690
 152.1683950  63.8603860  74.8734280 150.6945240  63.8575380  74.5276300
 143.6205220  58.9307470  69.9843770 144.4900070  59.2132270  70.2679690
 143.1295540  59.7443340  69.8692580 150.7840030  60.3180680  74.1052050
 151.2402810  61.1285930  74.3312240 150.4328240  60.0003820  74.9370540
 146.6851810  50.6618330  74.5774570 146.5566440  50.6536230  75.5259490
 145.8613830  51.0001420  74.2265580 143.9876470  68.1434850  70.5505400
 144.3474110  68.7424190  69.8962670 143.8468810  68.6894740  71.3240430
 143.6845740  52.4209450  84.0381270 142.9704260  52.6206370  84.6433880
 144.1040780  51.6449020  84.4096070 143.9718330  66.4089710  85.0247800
 144.0809450  65.4684450  84.8843190 143.3198890  66.6744460  84.3761530
 151.9630920  64.6805600  86.4245920 151.6427790  63.9614840  86.9691610
 151.2889280  65.3560670  86.4981980 150.0045090  65.5266050  71.3679070
 149.9955190  66.2595740  70.7523580 149.0843450  65.2797630  71.4606030
 145.6051730  60.7480940  72.1125830 144.9979680  61.4879840  72.1221130
 146.0801080  60.8380300  71.2864030 152.9904690  65.5894290  70.0304260
 153.0916670  65.3858280  69.1006240 152.0906430  65.3352570  70.2352040
 150.5130580  56.1474650  74.0128160 149.8046730  56.6160990  74.4541770
 150.7975060  55.4896660  74.6473350 152.1386510  57.5671350  82.0120690
 152.6371760  58.0417170  82.6772540 152.2809460  56.6434870  82.2190720
 151.6322800  68.1080610  74.7251930 151.8864300  68.0702000  73.8031300
 150.6835280  67.9813940  74.7180180 148.7165600  54.4559730  71.3878870
 149.5656130  54.8929880  71.3219060 148.3496870  54.7679990  72.2150930
 147.6157020  60.7092090  69.8614400 148.3820290  60.5973450  70.4239830
 147.6931710  60.0130060  69.2091170 146.3103780  58.1417160  70.5447290
 146.3907370  57.1944670  70.6564690 147.2023530  58.4724040  70.6507950
 147.1118490  68.2912550  77.6481830 147.8480970  67.7428010  77.9190400
 147.4959410  69.1568560  77.5087820 143.9963970  64.3586120  73.5223340
 143.0703750  64.6007260  73.5128750 144.4620400  65.1860380  73.4008090
 146.1176770  67.4758620  86.8367410 146.9189500  67.7970670  87.2502810
 145.6028590  67.1154200  87.5587320 150.2220800  67.4642860  69.4707400
 151.0149410  67.7531690  69.0189190 149.7025150  67.0335030  68.7919880
 143.8374580  59.9632080  85.7803460 144.3413600  59.3839360  86.3519690
 143.0982000  60.2472310  86.3179830 150.7398200  62.6846270  69.3349750
 150.6348840  62.0698620  70.0611130 150.5722420  62.1612160  68.5512760
 150.8912520  61.3703070  85.3138980 150.1258190  61.9388070  85.2293650
 151.0728480  61.0779280  84.4207210 145.8697660  58.1061670  86.6753530
 145.9103000  57.8075540  87.5838760 146.7243160  58.5069280  86.5161050
 149.6476050  60.7057220  71.8357040 150.0692470  60.5397090  72.6788430
 149.7726890  59.8957450  71.3412180 147.8103470  56.6853770  84.6428020
 147.2799930  56.1944720  84.0151360 148.4791540  57.1137970  84.1085950
 152.1603690  59.7294830  69.0834140 152.6809350  59.0143850  68.7175290
 152.8072090  60.3680700  69.3834650 148.2975770  53.6516140  84.7225310
 148.2032640  53.0336890  83.9976180 147.7173160  54.3782430  84.4955220
 151.0637210  52.2089380  81.7552700 150.6154510  52.2313640  80.9098250
 150.4302410  51.8108400  82.3523000 151.4696760  61.1043710  82.3765140
 151.8884870  61.9476440  82.2041380 150.5505390  61.2415750  82.1471920
 148.5434950  56.7790450  68.7815200 148.3424010  55.9157810  69.1428540
 148.3727000  56.6923810  67.8436800 149.3204180  67.4096720  83.4922870
 148.7825270  68.1342780  83.1731570 149.5738140  66.9327060  82.7020210
 150.5729430  55.3781240  85.0178800 151.1629120  55.0697090  85.7056620
 149.7549670  54.9060990  85.1738700 147.3417750  53.8791070  68.7693080
 147.6443650  53.8858500  67.8612230 148.0812340  53.5288930  69.2660740
 152.1766390  68.6447930  83.7509520 152.1025090  69.5483070  84.0581890
 151.2745230  68.3259830  83.7231590 150.5602680  52.8225690  69.7549280
 150.2124680  52.1449680  69.1751730 150.7615450  52.3615200  70.5692670
 146.3647880  63.1833490  69.6022880 146.8022750  63.7263160  70.2580460
 146.8495610  62.3580440  69.6119220 143.5793680  65.9722520  77.0543140
 143.9096690  65.1043580  76.8221780 144.0084680  66.1781040  77.8848100
 148.1755600  64.3031530  74.7145110 147.8751140  64.1796500  75.6149020
 148.0693090  63.4440120  74.3060840 144.0683890  66.8393110  79.7924770
 143.6314880  67.0193910  80.6248920 144.6361570  67.5967730  79.6506490
 143.9008320  59.3513340  76.1513650 143.2457160  59.0824980  75.5073350
 144.7386270  59.2417820  75.7015630 144.9384250  59.7365910  80.6916990
 145.3057290  59.6493310  81.5713010 144.3695070  58.9732460  80.5923850
 144.4900250  56.6475000  84.5975410 143.5956300  56.6141760  84.9369120
 145.0297800  56.8461790  85.3626660 143.1146400  56.5612270  72.0938980
 142.2110480  56.8242470  71.9190640 143.5987020  56.8323440  71.3138940
 145.6573610  55.6177810  70.0033360 146.3665310  55.1961030  69.5180640
 144.9413550  55.6853040  69.3716710 145.3047770  51.6717140  69.0436010
 146.0275900  52.2126080  69.3617230 145.5772290  51.3980560  68.1677550
 144.9939960  50.9223330  78.9458630 145.6416150  50.3720710  78.5053790
 145.4141800  51.1766480  79.7674440 144.7471960  51.0779000  81.6883950
 144.3986780  51.5342820  82.4542130 144.4159660  50.1836130  81.7706380
 146.3536330  64.2498600  85.8537140 146.3105960  63.8791510  86.7351600
 146.4847340  65.1876170  85.9938960 150.0542360  65.8058190  81.4546860
 149.8133720  66.0732750  80.5677380 150.9945000  65.9763920  81.5097720
 145.4192600  50.6055200  84.9634720 145.9675590  50.4243250  84.2000830
 145.4847910  49.8149310  85.4991030 146.1924360  67.1960850  82.9734920
 145.5984680  67.0645550  83.7124960 146.1848200  66.3598990  82.5077020
 145.8236590  64.5619230  81.9242960 145.0970650  63.9424520  81.8568910
 145.8845740  64.9559840  81.0541040 149.4281690  66.7764230  78.7092370
 149.9446710  66.1651590  78.1840630 150.0779070  67.2793010  79.2003380
 152.1677190  67.6672720  79.5361350 152.4555000  67.4127020  78.6594360
 152.6800410  67.1150080  80.1266920 144.1066590  67.8793620  75.1339720
 143.9388630  67.2464300  75.8321610 143.2401100  68.0853020  74.7833910
 144.7294610  51.7110400  72.6371580 145.4873970  51.8239280  72.0635610
 144.2671780  52.5479600  72.5915010 151.2708420  53.8249670  75.6273890
 150.4582930  53.4506560  75.2869770 151.7750060  53.0694750  75.9295080
 145.7129290  66.5726850  72.5789860 145.1876910  66.9534880  71.8751820
 145.6373870  67.1977620  73.2999570 147.1019760  52.2374450  71.1773550
 147.6312520  51.4504250  71.0481500 147.7348080  52.9165640  71.4109080
 149.2957600  51.9749590  74.2318940 148.6660340  51.2736900  74.3989070
 148.7562740  52.7353720  74.0152100 152.2349550  68.5888820  86.9029550
 153.1616860  68.3533090  86.9465510 152.2199980  69.4160820  86.4215580
 149.4213160  51.2533570  86.6671430 149.1397430  51.7567170  85.9032250
 149.8032860  50.4555320  86.3013560 148.3122260  68.5209230  71.4539110
 149.0441080  68.2368510  70.9063000 148.5715930  68.2822510  72.3438490
 147.4737050  64.6373960  71.4585440 146.8445930  65.1059060  72.0071270
 147.5884880  63.7923180  71.8931630 147.0770640  60.7778450  60.3671670
 146.2455520  60.5227160  60.7668180 147.6851620  60.8489220  61.1029590
 147.0571900  64.8118540  60.5629690 147.3599940  63.9216280  60.3839910
 147.8015490  65.3688760  60.3351940 145.4862590  55.7380340  54.1514060
 144.5979290  56.0796310  54.0493940 145.7703780  55.5380660  53.2594890
 143.4495600  58.3385990  60.0353760 144.0211710  57.5708190  60.0357400
 143.4497140  58.6374750  59.1260370 144.6920470  53.7470350  61.8222690
 144.5123310  52.8496100  62.1025450 144.2900550  54.2942220  62.4969640
 147.6623980  54.3211840  55.1852440 147.7690730  55.2215570  55.4921200
 146.7516340  54.2729810  54.8947090 145.3107140  56.2430850  60.4305030
 145.9917250  56.5069220  61.0492430 144.9955190  55.4031720  60.7643040
 149.5031710  57.2898210  59.5177620 150.0109930  57.7879180  60.1582640
 150.0344950  56.5133410  59.3416980 147.7867810  51.9296770  63.7841040
 147.7886250  52.4469160  62.9786940 146.9572120  51.4526950  63.7610970
 149.0370660  61.5691950  61.9614540 148.7040040  62.1960870  62.6035610
 149.2137340  62.0953830  61.1816210 147.4683140  53.6406730  61.7911490
 147.8099950  54.4848780  61.4965360 146.5298950  53.7890470  61.9076830
 148.2489760  63.5372750  63.7763720 148.8663760  64.2123830  63.4948170
 147.3882880  63.9460730  63.6851220 143.5422100  62.7272610  52.6570570
 143.1650080  63.2159710  51.9255470 143.7995170  63.3997890  53.2877100
 151.1511030  51.1289000  58.1156080 151.4586010  50.5735890  57.3991580
 150.2211730  51.2633460  57.9329070 149.1448430  59.7202570  57.6335930
 148.7405430  59.0079820  57.1381830 149.2311550  59.3755810  58.5223970
 149.6130130  63.4070130  59.7975140 149.3158420  62.8015600  59.1182920
 150.5629950  63.4447440  59.6864500 147.8577050  56.4945780  61.4134970
 148.4091640  56.6041120  60.6388220 148.3720560  56.8683380  62.1290200
 148.7048560  63.1451820  66.4482940 147.8077090  63.3691790  66.6956340
 148.7301430  63.2686760  65.4994340 147.5319780  60.0165140  65.0240310
 147.3927550  60.8887940  65.3927710 146.6501140  59.6737950  64.8788250
 149.3300130  65.9586840  67.2325460 149.3015560  66.3629790  66.3653890
 149.1665100  65.0297200  67.0697060 145.8453060  58.6147550  55.1342580
 145.7250660  59.3409640  54.5223850 145.5353950  57.8450460  54.6570490
 143.4838430  61.7862690  60.9411220 143.5618850  61.9211460  59.9966940
 144.0980110  61.0778580  61.1339340 144.7286060  63.4862880  57.3517400
 144.3214140  63.6277470  56.4971000 145.6199070  63.2023040  57.1488610
 149.0007720  67.7008660  55.4640070 148.8250200  66.7844200  55.2507870
 148.1463460  68.0595950  55.7037870 143.5397950  62.8276860  63.4805680
 143.7028990  62.3582220  62.6625050 144.0050400  62.3200420  64.1454520
 148.3116720  51.9582620  58.5166250 147.8684870  52.7392160  58.1850770
 148.8701710  52.2812510  59.2237190 152.5986530  54.8251140  64.1201570
 152.1365900  55.0334160  64.9321510 152.1964640  54.0110490  63.8172240
 151.4275540  51.5793320  53.3972080 150.8029720  51.5753190  54.1225390
 151.3405660  50.7124280  53.0008050 150.3492620  52.5029950  60.3755850
 150.6464950  53.4092780  60.2947870 150.8978180  52.0148730  59.7615420
 148.1030940  57.0816190  56.2447500 147.8771860  56.8653360  57.1494120
 147.3223470  57.5144650  55.8993470 150.5430150  57.9801770  66.9107770
 150.4473750  57.0396500  66.7608170 151.3862130  58.2016840  66.5155840
 145.6740690  54.3915440  65.0641550 145.2804080  55.2390650  65.2714330
 144.9859090  53.7541810  65.2550190 152.2485740  54.4750410  68.1338290
 151.5584060  54.2822610  68.7684380 152.9918040  54.7585050  68.6662590
 142.9757740  52.3143900  59.0971630 142.6870790  52.8846760  59.8096610
 143.7203500  51.8348350  59.4602860 143.1627970  56.2564020  50.3074350
 143.0802640  57.1994780  50.4489340 142.8111030  56.1138930  49.4286700
 150.9626100  54.9903050  59.3744700 150.9662160  54.5493000  58.5249240
 151.8577220  55.3120380  59.4816520 146.8128480  54.8729540  58.3338910
 146.4728530  55.3504770  59.0905960 146.0505800  54.4194660  57.9740010
 151.0246250  55.9915130  52.3651460 151.1459070  55.9501610  53.3137280
 150.6394760  56.8539280  52.2098190 150.0367750  58.3016270  51.7634760
 149.4684650  57.8534520  51.1370670 150.7456750  58.6609050  51.2299910
 145.1136930  62.2028290  65.6401490 144.7291720  61.5621960  66.2384450
 145.4249120  62.9064410  66.2096220 151.2634070  59.0504830  61.1210110
 151.6304200  58.5763400  61.8671450 151.0739130  59.9246400  61.4618450
 144.1274560  53.7948520  57.2503580 143.8421480  53.4304190  58.0882200
 144.0653420  53.0628980  56.6366720 149.0533440  58.0913470  63.4394320
 148.7490510  58.9705450  63.6644680 150.0079900  58.1513260  63.4751760
 147.5815230  62.2974460  54.0361170 146.8077490  61.7572080  53.8759890
 148.3109860  61.7781070  53.6978930 147.6252630  61.9654840  57.6739980
 148.1431300  61.1623100  57.6196870 147.1736650  61.9033980  58.5156810
 152.5122130  63.2321120  52.9467280 152.8537830  63.9763350  52.4510600
 151.6834840  63.5452240  53.3092110 145.1097170  58.9316210  64.5865680
 144.7512110  59.5970060  65.1739020 144.8151730  58.0999760  64.9578300
 148.3110290  59.3900450  67.4705230 148.0110430  59.5357630  66.5733050
 149.0821530  58.8305740  67.3778620 151.4812820  63.3134650  55.7183200
 152.1683950  63.8603860  56.0990790 150.6945240  63.8575380  55.7532810
 143.6205220  58.9307470  51.2100280 144.4900070  59.2132270  51.4936200
 143.1295540  59.7443340  51.0949090 150.7840030  60.3180680  55.3308560
 151.2402810  61.1285930  55.5568750 150.4328240  60.0003820  56.1627050
 146.6851810  50.6618330  55.8031080 146.5566440  50.6536230  56.7516000
 145.8613830  51.0001420  55.4522090 143.9876470  68.1434850  51.7761910
 144.3474110  68.7424190  51.1219180 143.8468810  68.6894740  52.5496940
 143.6845740  52.4209450  65.2637780 142.9704260  52.6206370  65.8690390
 144.1040780  51.6449020  65.6352580 143.9718330  66.4089710  66.2504310
 144.0809450  65.4684450  66.1099700 143.3198890  66.6744460  65.6018040
 151.9630920  64.6805600  67.6502430 151.6427790  63.9614840  68.1948120
 151.2889280  65.3560670  67.7238490 150.0045090  65.5266050  52.5935580
 149.9955190  66.2595740  51.9780090 149.0843450  65.2797630  52.6862540
 145.6051730  60.7480940  53.3382340 144.9979680  61.4879840  53.3477640
 146.0801080  60.8380300  52.5120540 152.9904690  65.5894290  51.2560770
 153.0916670  65.3858280  50.3262750 152.0906430  65.3352570  51.4608550
 150.5130580  56.1474650  55.2384670 149.8046730  56.6160990  55.6798280
 150.7975060  55.4896660  55.8729860 152.1386510  57.5671350  63.2377200
 152.6371760  58.0417170  63.9029050 152.2809460  56.6434870  63.4447230
 151.6322800  68.1080610  55.9508440 151.8864300  68.0702000  55.0287810
 150.6835280  67.9813940  55.9436690 148.7165600  54.4559730  52.6135380
 149.5656130  54.8929880  52.5475570 148.3496870  54.7679990  53.4407440
 147.6157020  60.7092090  51.0870910 148.3820290  60.5973450  51.6496340
 147.6931710  60.0130060  50.4347680 146.3103780  58.1417160  51.7703800
 146.3907370  57.1944670  51.8821200 147.2023530  58.4724040  51.8764460
 147.1118490  68.2912550  58.8738340 147.8480970  67.7428010  59.1446910
 147.4959410  69.1568560  58.7344330 143.9963970  64.3586120  54.7479850
 143.0703750  64.6007260  54.7385260 144.4620400  65.1860380  54.6264600
 146.1176770  67.4758620  68.0623920 146.9189500  67.7970670  68.4759320
 145.6028590  67.1154200  68.7843830 150.2220800  67.4642860  50.6963910
 151.0149410  67.7531690  50.2445700 149.7025150  67.0335030  50.0176390
 143.8374580  59.9632080  67.0059970 144.3413600  59.3839360  67.5776200
 143.0982000  60.2472310  67.5436340 150.7398200  62.6846270  50.5606260
 150.6348840  62.0698620  51.2867640 150.5722420  62.1612160  49.7769270
 150.8912520  61.3703070  66.5395490 150.1258190  61.9388070  66.4550160
 151.0728480  61.0779280  65.6463720 145.8697660  58.1061670  67.9010040
 145.9103000  57.8075540  68.8095270 146.7243160  58.5069280  67.7417560
 149.6476050  60.7057220  53.0613550 150.0692470  60.5397090  53.9044940
 149.7726890  59.8957450  52.5668690 147.8103470  56.6853770  65.8684530
 147.2799930  56.1944720  65.2407870 148.4791540  57.1137970  65.3342460
 152.1603690  59.7294830  50.3090650 152.6809350  59.0143850  49.9431800
 152.8072090  60.3680700  50.6091160 148.2975770  53.6516140  65.9481820
 148.2032640  53.0336890  65.2232690 147.7173160  54.3782430  65.7211730
 151.0637210  52.2089380  62.9809210 150.6154510  52.2313640  62.1354760
 150.4302410  51.8108400  63.5779510 151.4696760  61.1043710  63.6021650
 151.8884870  61.9476440  63.4297890 150.5505390  61.2415750  63.3728430
 148.5434950  56.7790450  50.0071710 148.3424010  55.9157810  50.3685050
 148.3727000  56.6923810  49.0693310 149.3204180  67.4096720  64.7179380
 148.7825270  68.1342780  64.3988080 149.5738140  66.9327060  63.9276720
 150.5729430  55.3781240  66.2435310 151.1629120  55.0697090  66.9313130
 149.7549670  54.9060990  66.3995210 147.3417750  53.8791070  49.9949590
 147.6443650  53.8858500  49.0868740 148.0812340  53.5288930  50.4917250
 152.1766390  68.6447930  64.9766030 152.1025090  69.5483070  65.2838400
 151.2745230  68.3259830  64.9488100 150.5602680  52.8225690  50.9805790
 150.2124680  52.1449680  50.4008240 150.7615450  52.3615200  51.7949180
 146.3647880  63.1833490  50.8279390 146.8022750  63.7263160  51.4836970
 146.8495610  62.3580440  50.8375730 143.5793680  65.9722520  58.2799650
 143.9096690  65.1043580  58.0478290 144.0084680  66.1781040  59.1104610
 148.1755600  64.3031530  55.9401620 147.8751140  64.1796500  56.8405530
 148.0693090  63.4440120  55.5317350 144.0683890  66.8393110  61.0181280
 143.6314880  67.0193910  61.8505430 144.6361570  67.5967730  60.8763000
 143.9008320  59.3513340  57.3770160 143.2457160  59.0824980  56.7329860
 144.7386270  59.2417820  56.9272140 144.9384250  59.7365910  61.9173500
 145.3057290  59.6493310  62.7969520 144.3695070  58.9732460  61.8180360
 144.4900250  56.6475000  65.8231920 143.5956300  56.6141760  66.1625630
 145.0297800  56.8461790  66.5883170 143.1146400  56.5612270  53.3195490
 142.2110480  56.8242470  53.1447150 143.5987020  56.8323440  52.5395450
 145.6573610  55.6177810  51.2289870 146.3665310  55.1961030  50.7437150
 144.9413550  55.6853040  50.5973220 145.3047770  51.6717140  50.2692520
 146.0275900  52.2126080  50.5873740 145.5772290  51.3980560  49.3934060
 144.9939960  50.9223330  60.1715140 145.6416150  50.3720710  59.7310300
 145.4141800  51.1766480  60.9930950 144.7471960  51.0779000  62.9140460
 144.3986780  51.5342820  63.6798640 144.4159660  50.1836130  62.9962890
 146.3536330  64.2498600  67.0793650 146.3105960  63.8791510  67.9608110
 146.4847340  65.1876170  67.2195470 150.0542360  65.8058190  62.6803370
 149.8133720  66.0732750  61.7933890 150.9945000  65.9763920  62.7354230
 145.4192600  50.6055200  66.1891230 145.9675590  50.4243250  65.4257340
 145.4847910  49.8149310  66.7247540 146.1924360  67.1960850  64.1991430
 145.5984680  67.0645550  64.9381470 146.1848200  66.3598990  63.7333530
 145.8236590  64.5619230  63.1499470 145.0970650  63.9424520  63.0825420
 145.8845740  64.9559840  62.2797550 149.4281690  66.7764230  59.9348880
 149.9446710  66.1651590  59.4097140 150.0779070  67.2793010  60.4259890
 152.1677190  67.6672720  60.7617860 152.4555000  67.4127020  59.8850870
 152.6800410  67.1150080  61.3523430 144.1066590  67.8793620  56.3596230
 143.9388630  67.2464300  57.0578120 143.2401100  68.0853020  56.0090420
 144.7294610  51.7110400  53.8628090 145.4873970  51.8239280  53.2892120
 144.2671780  52.5479600  53.8171520 151.2708420  53.8249670  56.8530400
 150.4582930  53.4506560  56.5126280 151.7750060  53.0694750  57.1551590
 145.7129290  66.5726850  53.8046370 145.1876910  66.9534880  53.1008330
 145.6373870  67.1977620  54.5256080 147.1019760  52.2374450  52.4030060
 147.6312520  51.4504250  52.2738010 147.7348080  52.9165640  52.6365590
 149.2957600  51.9749590  55.4575450 148.6660340  51.2736900  55.6245580
 148.7562740  52.7353720  55.2408610 152.2349550  68.5888820  68.1286060
 153.1616860  68.3533090  68.1722020 152.2199980  69.4160820  67.6472090
 149.4213160  51.2533570  67.8927940 149.1397430  51.7567170  67.1288760
 149.8032860  50.4555320  67.5270070 148.3122260  68.5209230  52.6795620
 149.0441080  68.2368510  52.1319510 148.5715930  68.2822510  53.5695000
 147.4737050  64.6373960  52.6841950 146.8445930  65.1059060  53.2327780
 147.5884880  63.7923180  53.1188140 147.0770640  60.7778450  41.5928180
 146.2455520  60.5227160  41.9924690 147.6851620  60.8489220  42.3286100
 147.0571900  64.8118540  41.7886200 147.3599940  63.9216280  41.6096420
 147.8015490  65.3688760  41.5608450 145.4862590  55.7380340  35.3770570
 144.5979290  56.0796310  35.2750450 145.7703780  55.5380660  34.4851400
 143.4495600  58.3385990  41.2610270 144.0211710  57.5708190  41.2613910
 143.4497140  58.6374750  40.3516880 144.6920470  53.7470350  43.0479200
 144.5123310  52.8496100  43.3281960 144.2900550  54.2942220  43.7226150
 147.6623980  54.3211840  36.4108950 147.7690730  55.2215570  36.7177710
 146.7516340  54.2729810  36.1203600 145.3107140  56.2430850  41.6561540
 145.9917250  56.5069220  42.2748940 144.9955190  55.4031720  41.9899550
 149.5031710  57.2898210  40.7434130 150.0109930  57.7879180  41.3839150
 150.0344950  56.5133410  40.5673490 147.7867810  51.9296770  45.0097550
 147.7886250  52.4469160  44.2043450 146.9572120  51.4526950  44.9867480
 149.0370660  61.5691950  43.1871050 148.7040040  62.1960870  43.8292120
 149.2137340  62.0953830  42.4072720 147.4683140  53.6406730  43.0168000
 147.8099950  54.4848780  42.7221870 146.5298950  53.7890470  43.1333340
 148.2489760  63.5372750  45.0020230 148.8663760  64.2123830  44.7204680
 147.3882880  63.9460730  44.9107730 143.5422100  62.7272610  33.8827080
 143.1650080  63.2159710  33.1511980 143.7995170  63.3997890  34.5133610
 151.1511030  51.1289000  39.3412590 151.4586010  50.5735890  38.6248090
 150.2211730  51.2633460  39.1585580 149.1448430  59.7202570  38.8592440
 148.7405430  59.0079820  38.3638340 149.2311550  59.3755810  39.7480480
 149.6130130  63.4070130  41.0231650 149.3158420  62.8015600  40.3439430
 150.5629950  63.4447440  40.9121010 147.8577050  56.4945780  42.6391480
 148.4091640  56.6041120  41.8644730 148.3720560  56.8683380  43.3546710
 148.7048560  63.1451820  47.6739450 147.8077090  63.3691790  47.9212850
 148.7301430  63.2686760  46.7250850 147.5319780  60.0165140  46.2496820
 147.3927550  60.8887940  46.6184220 146.6501140  59.6737950  46.1044760
 149.3300130  65.9586840  48.4581970 149.3015560  66.3629790  47.5910400
 149.1665100  65.0297200  48.2953570 145.8453060  58.6147550  36.3599090
 145.7250660  59.3409640  35.7480360 145.5353950  57.8450460  35.8827000
 143.4838430  61.7862690  42.1667730 143.5618850  61.9211460  41.2223450
 144.0980110  61.0778580  42.3595850 144.7286060  63.4862880  38.5773910
 144.3214140  63.6277470  37.7227510 145.6199070  63.2023040  38.3745120
 149.0007720  67.7008660  36.6896580 148.8250200  66.7844200  36.4764380
 148.1463460  68.0595950  36.9294380 143.5397950  62.8276860  44.7062190
 143.7028990  62.3582220  43.8881560 144.0050400  62.3200420  45.3711030
 148.3116720  51.9582620  39.7422760 147.8684870  52.7392160  39.4107280
 148.8701710  52.2812510  40.4493700 152.5986530  54.8251140  45.3458080
 152.1365900  55.0334160  46.1578020 152.1964640  54.0110490  45.0428750
 151.4275540  51.5793320  34.6228590 150.8029720  51.5753190  35.3481900
 151.3405660  50.7124280  34.2264560 150.3492620  52.5029950  41.6012360
 150.6464950  53.4092780  41.5204380 150.8978180  52.0148730  40.9871930
 148.1030940  57.0816190  37.4704010 147.8771860  56.8653360  38.3750630
 147.3223470  57.5144650  37.1249980 150.5430150  57.9801770  48.1364280
 150.4473750  57.0396500  47.9864680 151.3862130  58.2016840  47.7412350
 145.6740690  54.3915440  46.2898060 145.2804080  55.2390650  46.4970840
 144.9859090  53.7541810  46.4806700 152.2485740  54.4750410  49.3594800
 151.5584060  54.2822610  49.9940890 152.9918040  54.7585050  49.8919100
 142.9757740  52.3143900  40.3228140 142.6870790  52.8846760  41.0353120
 143.7203500  51.8348350  40.6859370 143.1627970  56.2564020  31.5330860
 143.0802640  57.1994780  31.6745850 142.8111030  56.1138930  30.6543210
 150.9626100  54.9903050  40.6001210 150.9662160  54.5493000  39.7505750
 151.8577220  55.3120380  40.7073030 146.8128480  54.8729540  39.5595420
 146.4728530  55.3504770  40.3162470 146.0505800  54.4194660  39.1996520
 151.0246250  55.9915130  33.5907970 151.1459070  55.9501610  34.5393790
 150.6394760  56.8539280  33.4354700 150.0367750  58.3016270  32.9891270
 149.4684650  57.8534520  32.3627180 150.7456750  58.6609050  32.4556420
 145.1136930  62.2028290  46.8658000 144.7291720  61.5621960  47.4640960
 145.4249120  62.9064410  47.4352730 151.2634070  59.0504830  42.3466620
 151.6304200  58.5763400  43.0927960 151.0739130  59.9246400  42.6874960
 144.1274560  53.7948520  38.4760090 143.8421480  53.4304190  39.3138710
 144.0653420  53.0628980  37.8623230 149.0533440  58.0913470  44.6650830
 148.7490510  58.9705450  44.8901190 150.0079900  58.1513260  44.7008270
 147.5815230  62.2974460  35.2617680 146.8077490  61.7572080  35.1016400
 148.3109860  61.7781070  34.9235440 147.6252630  61.9654840  38.8996490
 148.1431300  61.1623100  38.8453380 147.1736650  61.9033980  39.7413320
 152.5122130  63.2321120  34.1723790 152.8537830  63.9763350  33.6767110
 151.6834840  63.5452240  34.5348620 145.1097170  58.9316210  45.8122190
 144.7512110  59.5970060  46.3995530 144.8151730  58.0999760  46.1834810
 148.3110290  59.3900450  48.6961740 148.0110430  59.5357630  47.7989560
 149.0821530  58.8305740  48.6035130 151.4812820  63.3134650  36.9439710
 152.1683950  63.8603860  37.3247300 150.6945240  63.8575380  36.9789320
 143.6205220  58.9307470  32.4356790 144.4900070  59.2132270  32.7192710
 143.1295540  59.7443340  32.3205600 150.7840030  60.3180680  36.5565070
 151.2402810  61.1285930  36.7825260 150.4328240  60.0003820  37.3883560
 146.6851810  50.6618330  37.0287590 146.5566440  50.6536230  37.9772510
 145.8613830  51.0001420  36.6778600 143.9876470  68.1434850  33.0018420
 144.3474110  68.7424190  32.3475690 143.8468810  68.6894740  33.7753450
 143.6845740  52.4209450  46.4894290 142.9704260  52.6206370  47.0946900
 144.1040780  51.6449020  46.8609090 143.9718330  66.4089710  47.4760820
 144.0809450  65.4684450  47.3356210 143.3198890  66.6744460  46.8274550
 151.9630920  64.6805600  48.8758940 151.6427790  63.9614840  49.4204630
 151.2889280  65.3560670  48.9495000 150.0045090  65.5266050  33.8192090
 149.9955190  66.2595740  33.2036600 149.0843450  65.2797630  33.9119050
 145.6051730  60.7480940  34.5638850 144.9979680  61.4879840  34.5734150
 146.0801080  60.8380300  33.7377050 152.9904690  65.5894290  32.4817280
 153.0916670  65.3858280  31.5519260 152.0906430  65.3352570  32.6865060
 150.5130580  56.1474650  36.4641180 149.8046730  56.6160990  36.9054790
 150.7975060  55.4896660  37.0986370 152.1386510  57.5671350  44.4633710
 152.6371760  58.0417170  45.1285560 152.2809460  56.6434870  44.6703740
 151.6322800  68.1080610  37.1764950 151.8864300  68.0702000  36.2544320
 150.6835280  67.9813940  37.1693200 148.7165600  54.4559730  33.8391890
 149.5656130  54.8929880  33.7732080 148.3496870  54.7679990  34.6663950
 147.6157020  60.7092090  32.3127420 148.3820290  60.5973450  32.8752850
 147.6931710  60.0130060  31.6604190 146.3103780  58.1417160  32.9960310
 146.3907370  57.1944670  33.1077710 147.2023530  58.4724040  33.1020970
 147.1118490  68.2912550  40.0994850 147.8480970  67.7428010  40.3703420
 147.4959410  69.1568560  39.9600840 143.9963970  64.3586120  35.9736360
 143.0703750  64.6007260  35.9641770 144.4620400  65.1860380  35.8521110
 146.1176770  67.4758620  49.2880430 146.9189500  67.7970670  49.7015830
 145.6028590  67.1154200  50.0100340 150.2220800  67.4642860  31.9220420
 151.0149410  67.7531690  31.4702210 149.7025150  67.0335030  31.2432900
 143.8374580  59.9632080  48.2316480 144.3413600  59.3839360  48.8032710
 143.0982000  60.2472310  48.7692850 150.7398200  62.6846270  31.7862770
 150.6348840  62.0698620  32.5124150 150.5722420  62.1612160  31.0025780
 150.8912520  61.3703070  47.7652000 150.1258190  61.9388070  47.6806670
 151.0728480  61.0779280  46.8720230 145.8697660  58.1061670  49.1266550
 145.9103000  57.8075540  50.0351780 146.7243160  58.5069280  48.9674070
 149.6476050  60.7057220  34.2870060 150.0692470  60.5397090  35.1301450
 149.7726890  59.8957450  33.7925200 147.8103470  56.6853770  47.0941040
 147.2799930  56.1944720  46.4664380 148.4791540  57.1137970  46.5598970
 152.1603690  59.7294830  31.5347160 152.6809350  59.0143850  31.1688310
 152.8072090  60.3680700  31.8347670 148.2975770  53.6516140  47.1738330
 148.2032640  53.0336890  46.4489200 147.7173160  54.3782430  46.9468240
 151.0637210  52.2089380  44.2065720 150.6154510  52.2313640  43.3611270
 150.4302410  51.8108400  44.8036020 151.4696760  61.1043710  44.8278160
 151.8884870  61.9476440  44.6554400 150.5505390  61.2415750  44.5984940
 148.5434950  56.7790450  31.2328220 148.3424010  55.9157810  31.5941560
 148.3727000  56.6923810  30.2949820 149.3204180  67.4096720  45.9435890
 148.7825270  68.1342780  45.6244590 149.5738140  66.9327060  45.1533230
 150.5729430  55.3781240  47.4691820 151.1629120  55.0697090  48.1569640
 149.7549670  54.9060990  47.6251720 147.3417750  53.8791070  31.2206100
 147.6443650  53.8858500  30.3125250 148.0812340  53.5288930  31.7173760
 152.1766390  68.6447930  46.2022540 152.1025090  69.5483070  46.5094910
 151.2745230  68.3259830  46.1744610 150.5602680  52.8225690  32.2062300
 150.2124680  52.1449680  31.6264750 150.7615450  52.3615200  33.0205690
 146.3647880  63.1833490  32.0535900 146.8022750  63.7263160  32.7093480
 146.8495610  62.3580440  32.0632240 143.5793680  65.9722520  39.5056160
 143.9096690  65.1043580  39.2734800 144.0084680  66.1781040  40.3361120
 148.1755600  64.3031530  37.1658130 147.8751140  64.1796500  38.0662040
 148.0693090  63.4440120  36.7573860 144.0683890  66.8393110  42.2437790
 143.6314880  67.0193910  43.0761940 144.6361570  67.5967730  42.1019510
 143.9008320  59.3513340  38.6026670 143.2457160  59.0824980  37.9586370
 144.7386270  59.2417820  38.1528650 144.9384250  59.7365910  43.1430010
 145.3057290  59.6493310  44.0226030 144.3695070  58.9732460  43.0436870
 144.4900250  56.6475000  47.0488430 143.5956300  56.6141760  47.3882140
 145.0297800  56.8461790  47.8139680 143.1146400  56.5612270  34.5452000
 142.2110480  56.8242470  34.3703660 143.5987020  56.8323440  33.7651960
 145.6573610  55.6177810  32.4546380 146.3665310  55.1961030  31.9693660
 144.9413550  55.6853040  31.8229730 145.3047770  51.6717140  31.4949030
 146.0275900  52.2126080  31.8130250 145.5772290  51.3980560  30.6190570
 144.9939960  50.9223330  41.3971650 145.6416150  50.3720710  40.9566810
 145.4141800  51.1766480  42.2187460 144.7471960  51.0779000  44.1396970
 144.3986780  51.5342820  44.9055150 144.4159660  50.1836130  44.2219400
 146.3536330  64.2498600  48.3050160 146.3105960  63.8791510  49.1864620
 146.4847340  65.1876170  48.4451980 150.0542360  65.8058190  43.9059880
 149.8133720  66.0732750  43.0190400 150.9945000  65.9763920  43.9610740
 145.4192600  50.6055200  47.4147740 145.9675590  50.4243250  46.6513850
 145.4847910  49.8149310  47.9504050 146.1924360  67.1960850  45.4247940
 145.5984680  67.0645550  46.1637980 146.1848200  66.3598990  44.9590040
 145.8236590  64.5619230  44.3755980 145.0970650  63.9424520  44.3081930
 145.8845740  64.9559840  43.5054060 149.4281690  66.7764230  41.1605390
 149.9446710  66.1651590  40.6353650 150.0779070  67.2793010  41.6516400
 152.1677190  67.6672720  41.9874370 152.4555000  67.4127020  41.1107380
 152.6800410  67.1150080  42.5779940 144.1066590  67.8793620  37.5852740
 143.9388630  67.2464300  38.2834630 143.2401100  68.0853020  37.2346930
 144.7294610  51.7110400  35.0884600 145.4873970  51.8239280  34.5148630
 144.2671780  52.5479600  35.0428030 151.2708420  53.8249670  38.0786910
 150.4582930  53.4506560  37.7382790 151.7750060  53.0694750  38.3808100
 145.7129290  66.5726850  35.0302880 145.1876910  66.9534880  34.3264840
 145.6373870  67.1977620  35.7512590 147.1019760  52.2374450  33.6286570
 147.6312520  51.4504250  33.4994520 147.7348080  52.9165640  33.8622100
 149.2957600  51.9749590  36.6831960 148.6660340  51.2736900  36.8502090
 148.7562740  52.7353720  36.4665120 152.2349550  68.5888820  49.3542570
 153.1616860  68.3533090  49.3978530 152.2199980  69.4160820  48.8728600
 149.4213160  51.2533570  49.1184450 149.1397430  51.7567170  48.3545270
 149.8032860  50.4555320  48.7526580 148.3122260  68.5209230  33.9052130
 149.0441080  68.2368510  33.3576020 148.5715930  68.2822510  34.7951510
 147.4737050  64.6373960  33.9098460 146.8445930  65.1059060  34.4584290
 147.5884880  63.7923180  34.3444650 147.0770640  60.7778450  22.8184690
 146.2455520  60.5227160  23.2181200 147.6851620  60.8489220  23.5542610
 147.0571900  64.8118540  23.0142710 147.3599940  63.9216280  22.8352930
 147.8015490  65.3688760  22.7864960 145.4862590  55.7380340  16.6027080
 144.5979290  56.0796310  16.5006960 145.7703780  55.5380660  15.7107910
 143.4495600  58.3385990  22.4866780 144.0211710  57.5708190  22.4870420
 143.4497140  58.6374750  21.5773390 144.6920470  53.7470350  24.2735710
 144.5123310  52.8496100  24.5538470 144.2900550  54.2942220  24.9482660
 147.6623980  54.3211840  17.6365460 147.7690730  55.2215570  17.9434220
 146.7516340  54.2729810  17.3460110 145.3107140  56.2430850  22.8818050
 145.9917250  56.5069220  23.5005450 144.9955190  55.4031720  23.2156060
 149.5031710  57.2898210  21.9690640 150.0109930  57.7879180  22.6095660
 150.0344950  56.5133410  21.7930000 147.7867810  51.9296770  26.2354060
 147.7886250  52.4469160  25.4299960 146.9572120  51.4526950  26.2123990
 149.0370660  61.5691950  24.4127560 148.7040040  62.1960870  25.0548630
 149.2137340  62.0953830  23.6329230 147.4683140  53.6406730  24.2424510
 147.8099950  54.4848780  23.9478380 146.5298950  53.7890470  24.3589850
 148.2489760  63.5372750  26.2276740 148.8663760  64.2123830  25.9461190
 147.3882880  63.9460730  26.1364240 143.5422100  62.7272610  15.1083590
 143.1650080  63.2159710  14.3768490 143.7995170  63.3997890  15.7390120
 151.1511030  51.1289000  20.5669100 151.4586010  50.5735890  19.8504600
 150.2211730  51.2633460  20.3842090 149.1448430  59.7202570  20.0848950
 148.7405430  59.0079820  19.5894850 149.2311550  59.3755810  20.9736990
 149.6130130  63.4070130  22.2488160 149.3158420  62.8015600  21.5695940
 150.5629950  63.4447440  22.1377520 147.8577050  56.4945780  23.8647990
 148.4091640  56.6041120  23.0901240 148.3720560  56.8683380  24.5803220
 148.7048560  63.1451820  28.8995960 147.8077090  63.3691790  29.1469360
 148.7301430  63.2686760  27.9507360 147.5319780  60.0165140  27.4753330
 147.3927550  60.8887940  27.8440730 146.6501140  59.6737950  27.3301270
 149.3300130  65.9586840  29.6838480 149.3015560  66.3629790  28.8166910
 149.1665100  65.0297200  29.5210080 145.8453060  58.6147550  17.5855600
 145.7250660  59.3409640  16.9736870 145.5353950  57.8450460  17.1083510
 143.4838430  61.7862690  23.3924240 143.5618850  61.9211460  22.4479960
 144.0980110  61.0778580  23.5852360 144.7286060  63.4862880  19.8030420
 144.3214140  63.6277470  18.9484020 145.6199070  63.2023040  19.6001630
 149.0007720  67.7008660  17.9153090 148.8250200  66.7844200  17.7020890
 148.1463460  68.0595950  18.1550890 143.5397950  62.8276860  25.9318700
 143.7028990  62.3582220  25.1138070 144.0050400  62.3200420  26.5967540
 148.3116720  51.9582620  20.9679270 147.8684870  52.7392160  20.6363790
 148.8701710  52.2812510  21.6750210 152.5986530  54.8251140  26.5714590
 152.1365900  55.0334160  27.3834530 152.1964640  54.0110490  26.2685260
 151.4275540  51.5793320  15.8485100 150.8029720  51.5753190  16.5738410
 151.3405660  50.7124280  15.4521070 150.3492620  52.5029950  22.8268870
 150.6464950  53.4092780  22.7460890 150.8978180  52.0148730  22.2128440
 148.1030940  57.0816190  18.6960520 147.8771860  56.8653360  19.6007140
 147.3223470  57.5144650  18.3506490 150.5430150  57.9801770  29.3620790
 150.4473750  57.0396500  29.2121190 151.3862130  58.2016840  28.9668860
 145.6740690  54.3915440  27.5154570 145.2804080  55.2390650  27.7227350
 144.9859090  53.7541810  27.7063210 152.2485740  54.4750410  30.5851310
 151.5584060  54.2822610  31.2197400 152.9918040  54.7585050  31.1175610
 142.9757740  52.3143900  21.5484650 142.6870790  52.8846760  22.2609630
 143.7203500  51.8348350  21.9115880 143.1627970  56.2564020  12.7587370
 143.0802640  57.1994780  12.9002360 142.8111030  56.1138930  11.8799720
 150.9626100  54.9903050  21.8257720 150.9662160  54.5493000  20.9762260
 151.8577220  55.3120380  21.9329540 146.8128480  54.8729540  20.7851930
 146.4728530  55.3504770  21.5418980 146.0505800  54.4194660  20.4253030
 151.0246250  55.9915130  14.8164480 151.1459070  55.9501610  15.7650300
 150.6394760  56.8539280  14.6611210 150.0367750  58.3016270  14.2147780
 149.4684650  57.8534520  13.5883690 150.7456750  58.6609050  13.6812930
 145.1136930  62.2028290  28.0914510 144.7291720  61.5621960  28.6897470
 145.4249120  62.9064410  28.6609240 151.2634070  59.0504830  23.5723130
 151.6304200  58.5763400  24.3184470 151.0739130  59.9246400  23.9131470
 144.1274560  53.7948520  19.7016600 143.8421480  53.4304190  20.5395220
 144.0653420  53.0628980  19.0879740 149.0533440  58.0913470  25.8907340
 148.7490510  58.9705450  26.1157700 150.0079900  58.1513260  25.9264780
 147.5815230  62.2974460  16.4874190 146.8077490  61.7572080  16.3272910
 148.3109860  61.7781070  16.1491950 147.6252630  61.9654840  20.1253000
 148.1431300  61.1623100  20.0709890 147.1736650  61.9033980  20.9669830
 152.5122130  63.2321120  15.3980300 152.8537830  63.9763350  14.9023620
 151.6834840  63.5452240  15.7605130 145.1097170  58.9316210  27.0378700
 144.7512110  59.5970060  27.6252040 144.8151730  58.0999760  27.4091320
 148.3110290  59.3900450  29.9218250 148.0110430  59.5357630  29.0246070
 149.0821530  58.8305740  29.8291640 151.4812820  63.3134650  18.1696220
 152.1683950  63.8603860  18.5503810 150.6945240  63.8575380  18.2045830
 143.6205220  58.9307470  13.6613300 144.4900070  59.2132270  13.9449220
 143.1295540  59.7443340  13.5462110 150.7840030  60.3180680  17.7821580
 151.2402810  61.1285930  18.0081770 150.4328240  60.0003820  18.6140070
 146.6851810  50.6618330  18.2544100 146.5566440  50.6536230  19.2029020
 145.8613830  51.0001420  17.9035110 143.9876470  68.1434850  14.2274930
 144.3474110  68.7424190  13.5732200 143.8468810  68.6894740  15.0009960
 143.6845740  52.4209450  27.7150800 142.9704260  52.6206370  28.3203410
 144.1040780  51.6449020  28.0865600 143.9718330  66.4089710  28.7017330
 144.0809450  65.4684450  28.5612720 143.3198890  66.6744460  28.0531060
 151.9630920  64.6805600  30.1015450 151.6427790  63.9614840  30.6461140
 151.2889280  65.3560670  30.1751510 150.0045090  65.5266050  15.0448600
 149.9955190  66.2595740  14.4293110 149.0843450  65.2797630  15.1375560
 145.6051730  60.7480940  15.7895360 144.9979680  61.4879840  15.7990660
 146.0801080  60.8380300  14.9633560 152.9904690  65.5894290  13.7073790
 153.0916670  65.3858280  12.7775770 152.0906430  65.3352570  13.9121570
 150.5130580  56.1474650  17.6897690 149.8046730  56.6160990  18.1311300
 150.7975060  55.4896660  18.3242880 152.1386510  57.5671350  25.6890220
 152.6371760  58.0417170  26.3542070 152.2809460  56.6434870  25.8960250
 151.6322800  68.1080610  18.4021460 151.8864300  68.0702000  17.4800830
 150.6835280  67.9813940  18.3949710 148.7165600  54.4559730  15.0648400
 149.5656130  54.8929880  14.9988590 148.3496870  54.7679990  15.8920460
 147.6157020  60.7092090  13.5383930 148.3820290  60.5973450  14.1009360
 147.6931710  60.0130060  12.8860700 146.3103780  58.1417160  14.2216820
 146.3907370  57.1944670  14.3334220 147.2023530  58.4724040  14.3277480
 147.1118490  68.2912550  21.3251360 147.8480970  67.7428010  21.5959930
 147.4959410  69.1568560  21.1857350 143.9963970  64.3586120  17.1992870
 143.0703750  64.6007260  17.1898280 144.4620400  65.1860380  17.0777620
 146.1176770  67.4758620  30.5136940 146.9189500  67.7970670  30.9272340
 145.6028590  67.1154200  31.2356850 150.2220800  67.4642860  13.1476930
 151.0149410  67.7531690  12.6958720 149.7025150  67.0335030  12.4689410
 143.8374580  59.9632080  29.4572990 144.3413600  59.3839360  30.0289220
 143.0982000  60.2472310  29.9949360 150.7398200  62.6846270  13.0119280
 150.6348840  62.0698620  13.7380660 150.5722420  62.1612160  12.2282290
 150.8912520  61.3703070  28.9908510 150.1258190  61.9388070  28.9063180
 151.0728480  61.0779280  28.0976740 145.8697660  58.1061670  30.3523060
 145.9103000  57.8075540  31.2608290 146.7243160  58.5069280  30.1930580
 149.6476050  60.7057220  15.5126570 150.0692470  60.5397090  16.3557960
 149.7726890  59.8957450  15.0181710 147.8103470  56.6853770  28.3197550
 147.2799930  56.1944720  27.6920890 148.4791540  57.1137970  27.7855480
 152.1603690  59.7294830  12.7603670 152.6809350  59.0143850  12.3944820
 152.8072090  60.3680700  13.0604180 148.2975770  53.6516140  28.3994840
 148.2032640  53.0336890  27.6745710 147.7173160  54.3782430  28.1724750
 151.0637210  52.2089380  25.4322230 150.6154510  52.2313640  24.5867780
 150.4302410  51.8108400  26.0292530 151.4696760  61.1043710  26.0534670
 151.8884870  61.9476440  25.8810910 150.5505390  61.2415750  25.8241450
 148.5434950  56.7790450  12.4584730 148.3424010  55.9157810  12.8198070
 148.3727000  56.6923810  11.5206330 149.3204180  67.4096720  27.1692400
 148.7825270  68.1342780  26.8501100 149.5738140  66.9327060  26.3789740
 150.5729430  55.3781240  28.6948330 151.1629120  55.0697090  29.3826150
 149.7549670  54.9060990  28.8508230 147.3417750  53.8791070  12.4462610
 147.6443650  53.8858500  11.5381760 148.0812340  53.5288930  12.9430270
 152.1766390  68.6447930  27.4279050 152.1025090  69.5483070  27.7351420
 151.2745230  68.3259830  27.4001120 150.5602680  52.8225690  13.4318810
 150.2124680  52.1449680  12.8521260 150.7615450  52.3615200  14.2462200
 146.3647880  63.1833490  13.2792410 146.8022750  63.7263160  13.9349990
 146.8495610  62.3580440  13.2888750 143.5793680  65.9722520  20.7312670
 143.9096690  65.1043580  20.4991310 144.0084680  66.1781040  21.5617630
 148.1755600  64.3031530  18.3914640 147.8751140  64.1796500  19.2918550
 148.0693090  63.4440120  17.9830370 144.0683890  66.8393110  23.4694300
 143.6314880  67.0193910  24.3018450 144.6361570  67.5967730  23.3276020
 143.9008320  59.3513340  19.8283180 143.2457160  59.0824980  19.1842880
 144.7386270  59.2417820  19.3785160 144.9384250  59.7365910  24.3686520
 145.3057290  59.6493310  25.2482540 144.3695070  58.9732460  24.2693380
 144.4900250  56.6475000  28.2744940 143.5956300  56.6141760  28.6138650
 145.0297800  56.8461790  29.0396190 143.1146400  56.5612270  15.7708510
 142.2110480  56.8242470  15.5960170 143.5987020  56.8323440  14.9908470
 145.6573610  55.6177810  13.6802890 146.3665310  55.1961030  13.1950170
 144.9413550  55.6853040  13.0486240 145.3047770  51.6717140  12.7205540
 146.0275900  52.2126080  13.0386760 145.5772290  51.3980560  11.8447080
 144.9939960  50.9223330  22.6228160 145.6416150  50.3720710  22.1823320
 145.4141800  51.1766480  23.4443970 144.7471960  51.0779000  25.3653480
 144.3986780  51.5342820  26.1311660 144.4159660  50.1836130  25.4475910
 146.3536330  64.2498600  29.5306670 146.3105960  63.8791510  30.4121130
 146.4847340  65.1876170  29.6708490 150.0542360  65.8058190  25.1316390
 149.8133720  66.0732750  24.2446910 150.9945000  65.9763920  25.1867250
 145.4192600  50.6055200  28.6404250 145.9675590  50.4243250  27.8770360
 145.4847910  49.8149310  29.1760560 146.1924360  67.1960850  26.6504450
 145.5984680  67.0645550  27.3894490 146.1848200  66.3598990  26.1846550
 145.8236590  64.5619230  25.6012490 145.0970650  63.9424520  25.5338440
 145.8845740  64.9559840  24.7310570 149.4281690  66.7764230  22.3861900
 149.9446710  66.1651590  21.8610160 150.0779070  67.2793010  22.8772910
 152.1677190  67.6672720  23.2130880 152.4555000  67.4127020  22.3363890
 152.6800410  67.1150080  23.8036450 144.1066590  67.8793620  18.8109250
 143.9388630  67.2464300  19.5091140 143.2401100  68.0853020  18.4603440
 144.7294610  51.7110400  16.3141110 145.4873970  51.8239280  15.7405140
 144.2671780  52.5479600  16.2684540 151.2708420  53.8249670  19.3043420
 150.4582930  53.4506560  18.9639300 151.7750060  53.0694750  19.6064610
 145.7129290  66.5726850  16.2559390 145.1876910  66.9534880  15.5521350
 145.6373870  67.1977620  16.9769100 147.1019760  52.2374450  14.8543080
 147.6312520  51.4504250  14.7251030 147.7348080  52.9165640  15.0878610
 149.2957600  51.9749590  17.9088470 148.6660340  51.2736900  18.0758600
 148.7562740  52.7353720  17.6921630 152.2349550  68.5888820  30.5799080
 153.1616860  68.3533090  30.6235040 152.2199980  69.4160820  30.0985110
 149.4213160  51.2533570  30.3440960 149.1397430  51.7567170  29.5801780
 149.8032860  50.4555320  29.9783090 148.3122260  68.5209230  15.1308640
 149.0441080  68.2368510  14.5832530 148.5715930  68.2822510  16.0208020
 147.4737050  64.6373960  15.1354970 146.8445930  65.1059060  15.6840800
 147.5884880  63.7923180  15.5701160 147.0770640  60.7778450   4.0441200
 146.2455520  60.5227160   4.4437710 147.6851620  60.8489220   4.7799120
 147.0571900  64.8118540   4.2399220 147.3599940  63.9216280   4.0609440
 147.8015490  65.3688760   4.0121470 143.4495600  58.3385990   3.7123290
 144.0211710  57.5708190   3.7126930 143.4497140  58.6374750   2.8029900
 144.6920470  53.7470350   5.4992220 144.5123310  52.8496100   5.7794980
 144.2900550  54.2942220   6.1739170 145.3107140  56.2430850   4.1074560
 145.9917250  56.5069220   4.7261960 144.9955190  55.4031720   4.4412570
 149.5031710  57.2898210   3.1947150 150.0109930  57.7879180   3.8352170
 150.0344950  56.5133410   3.0186510 147.7867810  51.9296770   7.4610570
 147.7886250  52.4469160   6.6556470 146.9572120  51.4526950   7.4380500
 149.0370660  61.5691950   5.6384070 148.7040040  62.1960870   6.2805140
 149.2137340  62.0953830   4.8585740 147.4683140  53.6406730   5.4681020
 147.8099950  54.4848780   5.1734890 146.5298950  53.7890470   5.5846360
 148.2489760  63.5372750   7.4533250 148.8663760  64.2123830   7.1717700
 147.3882880  63.9460730   7.3620750 149.6130130  63.4070130   3.4744670
 149.3158420  62.8015600   2.7952450 150.5629950  63.4447440   3.3634030
 147.8577050  56.4945780   5.0904500 148.4091640  56.6041120   4.3157750
 148.3720560  56.8683380   5.8059730 148.7048560  63.1451820  10.1252470
 147.8077090  63.3691790  10.3725870 148.7301430  63.2686760   9.1763870
 147.5319780  60.0165140   8.7009840 147.3927550  60.8887940   9.0697240
 146.6501140  59.6737950   8.5557780 149.3300130  65.9586840  10.9094990
 149.3015560  66.3629790  10.0423420 149.1665100  65.0297200  10.7466590
 143.4838430  61.7862690   4.6180750 143.5618850  61.9211460   3.6736470
 144.0980110  61.0778580   4.8108870 143.5397950  62.8276860   7.1575210
 143.7028990  62.3582220   6.3394580 144.0050400  62.3200420   7.8224050
 148.3116720  51.9582620   2.1935780 147.8684870  52.7392160   1.8620300
 148.8701710  52.2812510   2.9006720 152.5986530  54.8251140   7.7971100
 152.1365900  55.0334160   8.6091040 152.1964640  54.0110490   7.4941770
 150.3492620  52.5029950   4.0525380 150.6464950  53.4092780   3.9717400
 150.8978180  52.0148730   3.4384950 150.5430150  57.9801770  10.5877300
 150.4473750  57.0396500  10.4377700 151.3862130  58.2016840  10.1925370
 145.6740690  54.3915440   8.7411080 145.2804080  55.2390650   8.9483860
 144.9859090  53.7541810   8.9319720 152.2485740  54.4750410  11.8107820
 151.5584060  54.2822610  12.4453910 152.9918040  54.7585050  12.3432120
 142.9757740  52.3143900   2.7741160 142.6870790  52.8846760   3.4866140
 143.7203500  51.8348350   3.1372390 150.9626100  54.9903050   3.0514230
 150.9662160  54.5493000   2.2018770 151.8577220  55.3120380   3.1586050
 146.8128480  54.8729540   2.0108440 146.4728530  55.3504770   2.7675490
 146.0505800  54.4194660   1.6509540 145.1136930  62.2028290   9.3171020
 144.7291720  61.5621960   9.9153980 145.4249120  62.9064410   9.8865750
 151.2634070  59.0504830   4.7979640 151.6304200  58.5763400   5.5440980
 151.0739130  59.9246400   5.1387980 149.0533440  58.0913470   7.1163850
 148.7490510  58.9705450   7.3414210 150.0079900  58.1513260   7.1521290
 145.1097170  58.9316210   8.2635210 144.7512110  59.5970060   8.8508550
 144.8151730  58.0999760   8.6347830 148.3110290  59.3900450  11.1474760
 148.0110430  59.5357630  10.2502580 149.0821530  58.8305740  11.0548150
 143.6845740  52.4209450   8.9407310 142.9704260  52.6206370   9.5459920
 144.1040780  51.6449020   9.3122110 143.9718330  66.4089710   9.9273840
 144.0809450  65.4684450   9.7869230 143.3198890  66.6744460   9.2787570
 151.9630920  64.6805600  11.3271960 151.6427790  63.9614840  11.8717650
 151.2889280  65.3560670  11.4008020 152.1386510  57.5671350   6.9146730
 152.6371760  58.0417170   7.5798580 152.2809460  56.6434870   7.1216760
 147.1118490  68.2912550   2.5507870 147.8480970  67.7428010   2.8216440
 147.4959410  69.1568560   2.4113860 146.1176770  67.4758620  11.7393450
 146.9189500  67.7970670  12.1528850 145.6028590  67.1154200  12.4613360
 143.8374580  59.9632080  10.6829500 144.3413600  59.3839360  11.2545730
 143.0982000  60.2472310  11.2205870 150.8912520  61.3703070  10.2165020
 150.1258190  61.9388070  10.1319690 151.0728480  61.0779280   9.3233250
 145.8697660  58.1061670  11.5779570 145.9103000  57.8075540  12.4864800
 146.7243160  58.5069280  11.4187090 147.8103470  56.6853770   9.5454060
 147.2799930  56.1944720   8.9177400 148.4791540  57.1137970   9.0111990
 148.2975770  53.6516140   9.6251350 148.2032640  53.0336890   8.9002220
 147.7173160  54.3782430   9.3981260 151.0637210  52.2089380   6.6578740
 150.6154510  52.2313640   5.8124290 150.4302410  51.8108400   7.2549040
 151.4696760  61.1043710   7.2791180 151.8884870  61.9476440   7.1067420
 150.5505390  61.2415750   7.0497960 149.3204180  67.4096720   8.3948910
 148.7825270  68.1342780   8.0757610 149.5738140  66.9327060   7.6046250
 150.5729430  55.3781240   9.9204840 151.1629120  55.0697090  10.6082660
 149.7549670  54.9060990  10.0764740 152.1766390  68.6447930   8.6535560
 152.1025090  69.5483070   8.9607930 151.2745230  68.3259830   8.6257630
 143.5793680  65.9722520   1.9569180 143.9096690  65.1043580   1.7247820
 144.0084680  66.1781040   2.7874140 144.0683890  66.8393110   4.6950810
 143.6314880  67.0193910   5.5274960 144.6361570  67.5967730   4.5532530
 144.9384250  59.7365910   5.5943030 145.3057290  59.6493310   6.4739050
 144.3695070  58.9732460   5.4949890 144.4900250  56.6475000   9.5001450
 143.5956300  56.6141760   9.8395160 145.0297800  56.8461790  10.2652700
 144.9939960  50.9223330   3.8484670 145.6416150  50.3720710   3.4079830
 145.4141800  51.1766480   4.6700480 144.7471960  51.0779000   6.5909990
 144.3986780  51.5342820   7.3568170 144.4159660  50.1836130   6.6732420
 146.3536330  64.2498600  10.7563180 146.3105960  63.8791510  11.6377640
 146.4847340  65.1876170  10.8965000 150.0542360  65.8058190   6.3572900
 149.8133720  66.0732750   5.4703420 150.9945000  65.9763920   6.4123760
 145.4192600  50.6055200   9.8660760 145.9675590  50.4243250   9.1026870
 145.4847910  49.8149310  10.4017070 146.1924360  67.1960850   7.8760960
 145.5984680  67.0645550   8.6151000 146.1848200  66.3598990   7.4103060
 145.8236590  64.5619230   6.8269000 145.0970650  63.9424520   6.7594950
 145.8845740  64.9559840   5.9567080 149.4281690  66.7764230   3.6118410
 149.9446710  66.1651590   3.0866670 150.0779070  67.2793010   4.1029420
 152.1677190  67.6672720   4.4387390 152.4555000  67.4127020   3.5620400
 152.6800410  67.1150080   5.0292960 152.2349550  68.5888820  11.8055590
 153.1616860  68.3533090  11.8491550 152.2199980  69.4160820  11.3241620
 149.4213160  51.2533570  11.5697470 149.1397430  51.7567170  10.8058290
 149.8032860  50.4555320  11.2039600 147.0571900  46.0375050 154.4347140
 147.3599940  45.1472790 154.2557360 147.8015490  46.5945270 154.2069390
 145.4862590  36.9636850 148.0231510 144.5979290  37.3052820 147.9211390
 145.7703780  36.7637170 147.1312340 143.4495600  39.5642500 153.9071210
 144.0211710  38.7964700 153.9074850 143.4497140  39.8631260 152.9977820
 147.6623980  35.5468350 149.0569890 147.7690730  36.4472080 149.3638650
 146.7516340  35.4986320 148.7664540 149.5031710  38.5154720 153.3895070
 150.0109930  39.0135690 154.0300090 150.0344950  37.7389920 153.2134430
 143.5422100  43.9529120 146.5288020 143.1650080  44.4416220 145.7972920
 143.7995170  44.6254400 147.1594550 151.1511030  32.3545510 151.9873530
 151.4586010  31.7992400 151.2709030 150.2211730  32.4889970 151.8046520
 149.1448430  40.9459080 151.5053380 148.7405430  40.2336330 151.0099280
 149.2311550  40.6012320 152.3941420 149.6130130  44.6326640 153.6692590
 149.3158420  44.0272110 152.9900370 150.5629950  44.6703950 153.5581950
 145.8453060  39.8404060 149.0060030 145.7250660  40.5666150 148.3941300
 145.5353950  39.0706970 148.5287940 144.7286060  44.7119390 151.2234850
 144.3214140  44.8533980 150.3688450 145.6199070  44.4279550 151.0206060
 149.0007720  48.9265170 149.3357520 148.8250200  48.0100710 149.1225320
 148.1463460  49.2852460 149.5755320 148.3116720  33.1839130 152.3883700
 147.8684870  33.9648670 152.0568220 148.8701710  33.5069020 153.0954640
 151.4275540  32.8049830 147.2689530 150.8029720  32.8009700 147.9942840
 151.3405660  31.9380790 146.8725500 150.3492620  33.7286460 154.2473300
 150.6464950  34.6349290 154.1665320 150.8978180  33.2405240 153.6332870
 148.1030940  38.3072700 150.1164950 147.8771860  38.0909870 151.0211570
 147.3223470  38.7401160 149.7710920 142.9757740  33.5400410 152.9689080
 142.6870790  34.1103270 153.6814060 143.7203500  33.0604860 153.3320310
 143.1627970  37.4820530 144.1791800 143.0802640  38.4251290 144.3206790
 142.8111030  37.3395440 143.3004150 150.9626100  36.2159560 153.2462150
 150.9662160  35.7749510 152.3966690 151.8577220  36.5376890 153.3533970
 146.8128480  36.0986050 152.2056360 146.4728530  36.5761280 152.9623410
 146.0505800  35.6451170 151.8457460 151.0246250  37.2171640 146.2368910
 151.1459070  37.1758120 147.1854730 150.6394760  38.0795790 146.0815640
 150.0367750  39.5272780 145.6352210 149.4684650  39.0791030 145.0088120
 150.7456750  39.8865560 145.1017360 144.1274560  35.0205030 151.1221030
 143.8421480  34.6560700 151.9599650 144.0653420  34.2885490 150.5084170
 147.5815230  43.5230970 147.9078620 146.8077490  42.9828590 147.7477340
 148.3109860  43.0037580 147.5696380 147.6252630  43.1911350 151.5457430
 148.1431300  42.3879610 151.4914320 147.1736650  43.1290490 152.3874260
 152.5122130  44.4577630 146.8184730 152.8537830  45.2019860 146.3228050
 151.6834840  44.7708750 147.1809560 151.4812820  44.5391160 149.5900650
 152.1683950  45.0860370 149.9708240 150.6945240  45.0831890 149.6250260
 143.6205220  40.1563980 145.0817730 144.4900070  40.4388780 145.3653650
 143.1295540  40.9699850 144.9666540 150.7840030  41.5437190 149.2026010
 151.2402810  42.3542440 149.4286200 150.4328240  41.2260330 150.0344500
 146.6851810  31.8874840 149.6748530 146.5566440  31.8792740 150.6233450
 145.8613830  32.2257930 149.3239540 143.9876470  49.3691360 145.6479360
 144.3474110  49.9680700 144.9936630 143.8468810  49.9151250 146.4214390
 150.0045090  46.7522560 146.4653030 149.9955190  47.4852250 145.8497540
 149.0843450  46.5054140 146.5579990 145.6051730  41.9737450 147.2099790
 144.9979680  42.7136350 147.2195090 146.0801080  42.0636810 146.3837990
 152.9904690  46.8150800 145.1278220 153.0916670  46.6114790 144.1980200
 152.0906430  46.5609080 145.3326000 150.5130580  37.3731160 149.1102120
 149.8046730  37.8417500 149.5515730 150.7975060  36.7153170 149.7447310
 151.6322800  49.3337120 149.8225890 151.8864300  49.2958510 148.9005260
 150.6835280  49.2070450 149.8154140 148.7165600  35.6816240 146.4852830
 149.5656130  36.1186390 146.4193020 148.3496870  35.9936500 147.3124890
 147.6157020  41.9348600 144.9588360 148.3820290  41.8229960 145.5213790
 147.6931710  41.2386570 144.3065130 146.3103780  39.3673670 145.6421250
 146.3907370  38.4201180 145.7538650 147.2023530  39.6980550 145.7481910
 147.1118490  49.5169060 152.7455790 147.8480970  48.9684520 153.0164360
 147.4959410  50.3825070 152.6061780 143.9963970  45.5842630 148.6197300
 143.0703750  45.8263770 148.6102710 144.4620400  46.4116890 148.4982050
 150.2220800  48.6899370 144.5681360 151.0149410  48.9788200 144.1163150
 149.7025150  48.2591540 143.8893840 150.7398200  43.9102780 144.4323710
 150.6348840  43.2955130 145.1585090 150.5722420  43.3868670 143.6486720
 149.6476050  41.9313730 146.9331000 150.0692470  41.7653600 147.7762390
 149.7726890  41.1213960 146.4386140 152.1603690  40.9551340 144.1808100
 152.6809350  40.2400360 143.8149250 152.8072090  41.5937210 144.4808610
 148.5434950  38.0046960 143.8789160 148.3424010  37.1414320 144.2402500
 148.3727000  37.9180320 142.9410760 147.3417750  35.1047580 143.8667040
 147.6443650  35.1115010 142.9586190 148.0812340  34.7545440 144.3634700
 150.5602680  34.0482200 144.8523240 150.2124680  33.3706190 144.2725690
 150.7615450  33.5871710 145.6666630 146.3647880  44.4090000 144.6996840
 146.8022750  44.9519670 145.3554420 146.8495610  43.5836950 144.7093180
 143.5793680  47.1979030 152.1517100 143.9096690  46.3300090 151.9195740
 144.0084680  47.4037550 152.9822060 148.1755600  45.5288040 149.8119070
 147.8751140  45.4053010 150.7122980 148.0693090  44.6696630 149.4034800
 143.9008320  40.5769850 151.2487610 143.2457160  40.3081490 150.6047310
 144.7386270  40.4674330 150.7989590 143.1146400  37.7868780 147.1912940
 142.2110480  38.0498980 147.0164600 143.5987020  38.0579950 146.4112900
 145.6573610  36.8434320 145.1007320 146.3665310  36.4217540 144.6154600
 144.9413550  36.9109550 144.4690670 145.3047770  32.8973650 144.1409970
 146.0275900  33.4382590 144.4591190 145.5772290  32.6237070 143.2651510
 149.4281690  48.0020740 153.8066330 149.9446710  47.3908100 153.2814590
 150.0779070  48.5049520 154.2977340 144.1066590  49.1050130 150.2313680
 143.9388630  48.4720810 150.9295570 143.2401100  49.3109530 149.8807870
 144.7294610  32.9366910 147.7345540 145.4873970  33.0495790 147.1609570
 144.2671780  33.7736110 147.6888970 151.2708420  35.0506180 150.7247850
 150.4582930  34.6763070 150.3843730 151.7750060  34.2951260 151.0269040
 145.7129290  47.7983360 147.6763820 145.1876910  48.1791390 146.9725780
 145.6373870  48.4234130 148.3973530 147.1019760  33.4630960 146.2747510
 147.6312520  32.6760760 146.1455460 147.7348080  34.1422150 146.5083040
 149.2957600  33.2006100 149.3292900 148.6660340  32.4993410 149.4963030
 148.7562740  33.9610230 149.1126060 148.3122260  49.7465740 146.5513070
 149.0441080  49.4625020 146.0036960 148.5715930  49.5079020 147.4412450
 147.4737050  45.8630470 146.5559400 146.8445930  46.3315570 147.1045230
 147.5884880  45.0179690 146.9905590 147.0770640  42.0034960 135.4645630
 146.2455520  41.7483670 135.8642140 147.6851620  42.0745730 136.2003550
 147.0571900  46.0375050 135.6603650 147.3599940  45.1472790 135.4813870
 147.8015490  46.5945270 135.4325900 145.4862590  36.9636850 129.2488020
 144.5979290  37.3052820 129.1467900 145.7703780  36.7637170 128.3568850
 143.4495600  39.5642500 135.1327720 144.0211710  38.7964700 135.1331360
 143.4497140  39.8631260 134.2234330 144.6920470  34.9726860 136.9196650
 144.5123310  34.0752610 137.1999410 144.2900550  35.5198730 137.5943600
 147.6623980  35.5468350 130.2826400 147.7690730  36.4472080 130.5895160
 146.7516340  35.4986320 129.9921050 145.3107140  37.4687360 135.5278990
 145.9917250  37.7325730 136.1466390 144.9955190  36.6288230 135.8617000
 149.5031710  38.5154720 134.6151580 150.0109930  39.0135690 135.2556600
 150.0344950  37.7389920 134.4390940 147.7867810  33.1553280 138.8815000
 147.7886250  33.6725670 138.0760900 146.9572120  32.6783460 138.8584930
 149.0370660  42.7948460 137.0588500 148.7040040  43.4217380 137.7009570
 149.2137340  43.3210340 136.2790170 147.4683140  34.8663240 136.8885450
 147.8099950  35.7105290 136.5939320 146.5298950  35.0146980 137.0050790
 148.2489760  44.7629260 138.8737680 148.8663760  45.4380340 138.5922130
 147.3882880  45.1717240 138.7825180 143.5422100  43.9529120 127.7544530
 143.1650080  44.4416220 127.0229430 143.7995170  44.6254400 128.3851060
 151.1511030  32.3545510 133.2130040 151.4586010  31.7992400 132.4965540
 150.2211730  32.4889970 133.0303030 149.1448430  40.9459080 132.7309890
 148.7405430  40.2336330 132.2355790 149.2311550  40.6012320 133.6197930
 149.6130130  44.6326640 134.8949100 149.3158420  44.0272110 134.2156880
 150.5629950  44.6703950 134.7838460 147.8577050  37.7202290 136.5108930
 148.4091640  37.8297630 135.7362180 148.3720560  38.0939890 137.2264160
 148.7048560  44.3708330 141.5456900 147.8077090  44.5948300 141.7930300
 148.7301430  44.4943270 140.5968300 147.5319780  41.2421650 140.1214270
 147.3927550  42.1144450 140.4901670 146.6501140  40.8994460 139.9762210
 149.3300130  47.1843350 142.3299420 149.3015560  47.5886300 141.4627850
 149.1665100  46.2553710 142.1671020 145.8453060  39.8404060 130.2316540
 145.7250660  40.5666150 129.6197810 145.5353950  39.0706970 129.7544450
 143.4838430  43.0119200 136.0385180 143.5618850  43.1467970 135.0940900
 144.0980110  42.3035090 136.2313300 144.7286060  44.7119390 132.4491360
 144.3214140  44.8533980 131.5944960 145.6199070  44.4279550 132.2462570
 149.0007720  48.9265170 130.5614030 148.8250200  48.0100710 130.3481830
 148.1463460  49.2852460 130.8011830 143.5397950  44.0533370 138.5779640
 143.7028990  43.5838730 137.7599010 144.0050400  43.5456930 139.2428480
 148.3116720  33.1839130 133.6140210 147.8684870  33.9648670 133.2824730
 148.8701710  33.5069020 134.3211150 152.5986530  36.0507650 139.2175530
 152.1365900  36.2590670 140.0295470 152.1964640  35.2367000 138.9146200
 151.4275540  32.8049830 128.4946040 150.8029720  32.8009700 129.2199350
 151.3405660  31.9380790 128.0982010 150.3492620  33.7286460 135.4729810
 150.6464950  34.6349290 135.3921830 150.8978180  33.2405240 134.8589380
 148.1030940  38.3072700 131.3421460 147.8771860  38.0909870 132.2468080
 147.3223470  38.7401160 130.9967430 150.5430150  39.2058280 142.0081730
 150.4473750  38.2653010 141.8582130 151.3862130  39.4273350 141.6129800
 145.6740690  35.6171950 140.1615510 145.2804080  36.4647160 140.3688290
 144.9859090  34.9798320 140.3524150 152.2485740  35.7006920 143.2312250
 151.5584060  35.5079120 143.8658340 152.9918040  35.9841560 143.7636550
 142.9757740  33.5400410 134.1945590 142.6870790  34.1103270 134.9070570
 143.7203500  33.0604860 134.5576820 143.1627970  37.4820530 125.4048310
 143.0802640  38.4251290 125.5463300 142.8111030  37.3395440 124.5260660
 150.9626100  36.2159560 134.4718660 150.9662160  35.7749510 133.6223200
 151.8577220  36.5376890 134.5790480 146.8128480  36.0986050 133.4312870
 146.4728530  36.5761280 134.1879920 146.0505800  35.6451170 133.0713970
 151.0246250  37.2171640 127.4625420 151.1459070  37.1758120 128.4111240
 150.6394760  38.0795790 127.3072150 150.0367750  39.5272780 126.8608720
 149.4684650  39.0791030 126.2344630 150.7456750  39.8865560 126.3273870
 145.1136930  43.4284800 140.7375450 144.7291720  42.7878470 141.3358410
 145.4249120  44.1320920 141.3070180 151.2634070  40.2761340 136.2184070
 151.6304200  39.8019910 136.9645410 151.0739130  41.1502910 136.5592410
 144.1274560  35.0205030 132.3477540 143.8421480  34.6560700 133.1856160
 144.0653420  34.2885490 131.7340680 149.0533440  39.3169980 138.5368280
 148.7490510  40.1961960 138.7618640 150.0079900  39.3769770 138.5725720
 147.5815230  43.5230970 129.1335130 146.8077490  42.9828590 128.9733850
 148.3109860  43.0037580 128.7952890 147.6252630  43.1911350 132.7713940
 148.1431300  42.3879610 132.7170830 147.1736650  43.1290490 133.6130770
 152.5122130  44.4577630 128.0441240 152.8537830  45.2019860 127.5484560
 151.6834840  44.7708750 128.4066070 145.1097170  40.1572720 139.6839640
 144.7512110  40.8226570 140.2712980 144.8151730  39.3256270 140.0552260
 148.3110290  40.6156960 142.5679190 148.0110430  40.7614140 141.6707010
 149.0821530  40.0562250 142.4752580 151.4812820  44.5391160 130.8157160
 152.1683950  45.0860370 131.1964750 150.6945240  45.0831890 130.8506770
 143.6205220  40.1563980 126.3074240 144.4900070  40.4388780 126.5910160
 143.1295540  40.9699850 126.1923050 150.7840030  41.5437190 130.4282520
 151.2402810  42.3542440 130.6542710 150.4328240  41.2260330 131.2601010
 146.6851810  31.8874840 130.9005040 146.5566440  31.8792740 131.8489960
 145.8613830  32.2257930 130.5496050 143.9876470  49.3691360 126.8735870
 144.3474110  49.9680700 126.2193140 143.8468810  49.9151250 127.6470900
 143.6845740  33.6465960 140.3611740 142.9704260  33.8462880 140.9664350
 144.1040780  32.8705530 140.7326540 143.9718330  47.6346220 141.3478270
 144.0809450  46.6940960 141.2073660 143.3198890  47.9000970 140.6992000
 151.9630920  45.9062110 142.7476390 151.6427790  45.1871350 143.2922080
 151.2889280  46.5817180 142.8212450 150.0045090  46.7522560 127.6909540
 149.9955190  47.4852250 127.0754050 149.0843450  46.5054140 127.7836500
 145.6051730  41.9737450 128.4356300 144.9979680  42.7136350 128.4451600
 146.0801080  42.0636810 127.6094500 152.9904690  46.8150800 126.3534730
 153.0916670  46.6114790 125.4236710 152.0906430  46.5609080 126.5582510
 150.5130580  37.3731160 130.3358630 149.8046730  37.8417500 130.7772240
 150.7975060  36.7153170 130.9703820 152.1386510  38.7927860 138.3351160
 152.6371760  39.2673680 139.0003010 152.2809460  37.8691380 138.5421190
 151.6322800  49.3337120 131.0482400 151.8864300  49.2958510 130.1261770
 150.6835280  49.2070450 131.0410650 148.7165600  35.6816240 127.7109340
 149.5656130  36.1186390 127.6449530 148.3496870  35.9936500 128.5381400
 147.6157020  41.9348600 126.1844870 148.3820290  41.8229960 126.7470300
 147.6931710  41.2386570 125.5321640 146.3103780  39.3673670 126.8677760
 146.3907370  38.4201180 126.9795160 147.2023530  39.6980550 126.9738420
 147.1118490  49.5169060 133.9712300 147.8480970  48.9684520 134.2420870
 147.4959410  50.3825070 133.8318290 143.9963970  45.5842630 129.8453810
 143.0703750  45.8263770 129.8359220 144.4620400  46.4116890 129.7238560
 146.1176770  48.7015130 143.1597880 146.9189500  49.0227180 143.5733280
 145.6028590  48.3410710 143.8817790 150.2220800  48.6899370 125.7937870
 151.0149410  48.9788200 125.3419660 149.7025150  48.2591540 125.1150350
 143.8374580  41.1888590 142.1033930 144.3413600  40.6095870 142.6750160
 143.0982000  41.4728820 142.6410300 150.7398200  43.9102780 125.6580220
 150.6348840  43.2955130 126.3841600 150.5722420  43.3868670 124.8743230
 150.8912520  42.5959580 141.6369450 150.1258190  43.1644580 141.5524120
 151.0728480  42.3035790 140.7437680 145.8697660  39.3318180 142.9984000
 145.9103000  39.0332050 143.9069230 146.7243160  39.7325790 142.8391520
 149.6476050  41.9313730 128.1587510 150.0692470  41.7653600 129.0018900
 149.7726890  41.1213960 127.6642650 147.8103470  37.9110280 140.9658490
 147.2799930  37.4201230 140.3381830 148.4791540  38.3394480 140.4316420
 152.1603690  40.9551340 125.4064610 152.6809350  40.2400360 125.0405760
 152.8072090  41.5937210 125.7065120 148.2975770  34.8772650 141.0455780
 148.2032640  34.2593400 140.3206650 147.7173160  35.6038940 140.8185690
 151.0637210  33.4345890 138.0783170 150.6154510  33.4570150 137.2328720
 150.4302410  33.0364910 138.6753470 151.4696760  42.3300220 138.6995610
 151.8884870  43.1732950 138.5271850 150.5505390  42.4672260 138.4702390
 148.5434950  38.0046960 125.1045670 148.3424010  37.1414320 125.4659010
 148.3727000  37.9180320 124.1667270 149.3204180  48.6353230 139.8153340
 148.7825270  49.3599290 139.4962040 149.5738140  48.1583570 139.0250680
 150.5729430  36.6037750 141.3409270 151.1629120  36.2953600 142.0287090
 149.7549670  36.1317500 141.4969170 147.3417750  35.1047580 125.0923550
 147.6443650  35.1115010 124.1842700 148.0812340  34.7545440 125.5891210
 152.1766390  49.8704440 140.0739990 152.1025090  50.7739580 140.3812360
 151.2745230  49.5516340 140.0462060 150.5602680  34.0482200 126.0779750
 150.2124680  33.3706190 125.4982200 150.7615450  33.5871710 126.8923140
 146.3647880  44.4090000 125.9253350 146.8022750  44.9519670 126.5810930
 146.8495610  43.5836950 125.9349690 143.5793680  47.1979030 133.3773610
 143.9096690  46.3300090 133.1452250 144.0084680  47.4037550 134.2078570
 148.1755600  45.5288040 131.0375580 147.8751140  45.4053010 131.9379490
 148.0693090  44.6696630 130.6291310 144.0683890  48.0649620 136.1155240
 143.6314880  48.2450420 136.9479390 144.6361570  48.8224240 135.9736960
 143.9008320  40.5769850 132.4744120 143.2457160  40.3081490 131.8303820
 144.7386270  40.4674330 132.0246100 144.9384250  40.9622420 137.0147460
 145.3057290  40.8749820 137.8943480 144.3695070  40.1988970 136.9154320
 144.4900250  37.8731510 140.9205880 143.5956300  37.8398270 141.2599590
 145.0297800  38.0718300 141.6857130 143.1146400  37.7868780 128.4169450
 142.2110480  38.0498980 128.2421110 143.5987020  38.0579950 127.6369410
 145.6573610  36.8434320 126.3263830 146.3665310  36.4217540 125.8411110
 144.9413550  36.9109550 125.6947180 145.3047770  32.8973650 125.3666480
 146.0275900  33.4382590 125.6847700 145.5772290  32.6237070 124.4908020
 144.9939960  32.1479840 135.2689100 145.6416150  31.5977220 134.8284260
 145.4141800  32.4022990 136.0904910 144.7471960  32.3035510 138.0114420
 144.3986780  32.7599330 138.7772600 144.4159660  31.4092640 138.0936850
 146.3536330  45.4755110 142.1767610 146.3105960  45.1048020 143.0582070
 146.4847340  46.4132680 142.3169430 150.0542360  47.0314700 137.7777330
 149.8133720  47.2989260 136.8907850 150.9945000  47.2020430 137.8328190
 145.4192600  31.8311710 141.2865190 145.9675590  31.6499760 140.5231300
 145.4847910  31.0405820 141.8221500 146.1924360  48.4217360 139.2965390
 145.5984680  48.2902060 140.0355430 146.1848200  47.5855500 138.8307490
 145.8236590  45.7875740 138.2473430 145.0970650  45.1681030 138.1799380
 145.8845740  46.1816350 137.3771510 149.4281690  48.0020740 135.0322840
 149.9446710  47.3908100 134.5071100 150.0779070  48.5049520 135.5233850
 152.1677190  48.8929230 135.8591820 152.4555000  48.6383530 134.9824830
 152.6800410  48.3406590 136.4497390 144.1066590  49.1050130 131.4570190
 143.9388630  48.4720810 132.1552080 143.2401100  49.3109530 131.1064380
 144.7294610  32.9366910 128.9602050 145.4873970  33.0495790 128.3866080
 144.2671780  33.7736110 128.9145480 151.2708420  35.0506180 131.9504360
 150.4582930  34.6763070 131.6100240 151.7750060  34.2951260 132.2525550
 145.7129290  47.7983360 128.9020330 145.1876910  48.1791390 128.1982290
 145.6373870  48.4234130 129.6230040 147.1019760  33.4630960 127.5004020
 147.6312520  32.6760760 127.3711970 147.7348080  34.1422150 127.7339550
 149.2957600  33.2006100 130.5549410 148.6660340  32.4993410 130.7219540
 148.7562740  33.9610230 130.3382570 152.2349550  49.8145330 143.2260020
 153.1616860  49.5789600 143.2695980 152.2199980  50.6417330 142.7446050
 149.4213160  32.4790080 142.9901900 149.1397430  32.9823680 142.2262720
 149.8032860  31.6811830 142.6244030 148.3122260  49.7465740 127.7769580
 149.0441080  49.4625020 127.2293470 148.5715930  49.5079020 128.6668960
 147.4737050  45.8630470 127.7815910 146.8445930  46.3315570 128.3301740
 147.5884880  45.0179690 128.2162100 147.0770640  42.0034960 116.6902140
 146.2455520  41.7483670 117.0898650 147.6851620  42.0745730 117.4260060
 147.0571900  46.0375050 116.8860160 147.3599940  45.1472790 116.7070380
 147.8015490  46.5945270 116.6582410 145.4862590  36.9636850 110.4744530
 144.5979290  37.3052820 110.3724410 145.7703780  36.7637170 109.5825360
 143.4495600  39.5642500 116.3584230 144.0211710  38.7964700 116.3587870
 143.4497140  39.8631260 115.4490840 144.6920470  34.9726860 118.1453160
 144.5123310  34.0752610 118.4255920 144.2900550  35.5198730 118.8200110
 147.6623980  35.5468350 111.5082910 147.7690730  36.4472080 111.8151670
 146.7516340  35.4986320 111.2177560 145.3107140  37.4687360 116.7535500
 145.9917250  37.7325730 117.3722900 144.9955190  36.6288230 117.0873510
 149.5031710  38.5154720 115.8408090 150.0109930  39.0135690 116.4813110
 150.0344950  37.7389920 115.6647450 147.7867810  33.1553280 120.1071510
 147.7886250  33.6725670 119.3017410 146.9572120  32.6783460 120.0841440
 149.0370660  42.7948460 118.2845010 148.7040040  43.4217380 118.9266080
 149.2137340  43.3210340 117.5046680 147.4683140  34.8663240 118.1141960
 147.8099950  35.7105290 117.8195830 146.5298950  35.0146980 118.2307300
 148.2489760  44.7629260 120.0994190 148.8663760  45.4380340 119.8178640
 147.3882880  45.1717240 120.0081690 143.5422100  43.9529120 108.9801040
 143.1650080  44.4416220 108.2485940 143.7995170  44.6254400 109.6107570
 151.1511030  32.3545510 114.4386550 151.4586010  31.7992400 113.7222050
 150.2211730  32.4889970 114.2559540 149.1448430  40.9459080 113.9566400
 148.7405430  40.2336330 113.4612300 149.2311550  40.6012320 114.8454440
 149.6130130  44.6326640 116.1205610 149.3158420  44.0272110 115.4413390
 150.5629950  44.6703950 116.0094970 147.8577050  37.7202290 117.7365440
 148.4091640  37.8297630 116.9618690 148.3720560  38.0939890 118.4520670
 148.7048560  44.3708330 122.7713410 147.8077090  44.5948300 123.0186810
 148.7301430  44.4943270 121.8224810 147.5319780  41.2421650 121.3470780
 147.3927550  42.1144450 121.7158180 146.6501140  40.8994460 121.2018720
 149.3300130  47.1843350 123.5555930 149.3015560  47.5886300 122.6884360
 149.1665100  46.2553710 123.3927530 145.8453060  39.8404060 111.4573050
 145.7250660  40.5666150 110.8454320 145.5353950  39.0706970 110.9800960
 143.4838430  43.0119200 117.2641690 143.5618850  43.1467970 116.3197410
 144.0980110  42.3035090 117.4569810 144.7286060  44.7119390 113.6747870
 144.3214140  44.8533980 112.8201470 145.6199070  44.4279550 113.4719080
 149.0007720  48.9265170 111.7870540 148.8250200  48.0100710 111.5738340
 148.1463460  49.2852460 112.0268340 143.5397950  44.0533370 119.8036150
 143.7028990  43.5838730 118.9855520 144.0050400  43.5456930 120.4684990
 148.3116720  33.1839130 114.8396720 147.8684870  33.9648670 114.5081240
 148.8701710  33.5069020 115.5467660 152.5986530  36.0507650 120.4432040
 152.1365900  36.2590670 121.2551980 152.1964640  35.2367000 120.1402710
 151.4275540  32.8049830 109.7202550 150.8029720  32.8009700 110.4455860
 151.3405660  31.9380790 109.3238520 150.3492620  33.7286460 116.6986320
 150.6464950  34.6349290 116.6178340 150.8978180  33.2405240 116.0845890
 148.1030940  38.3072700 112.5677970 147.8771860  38.0909870 113.4724590
 147.3223470  38.7401160 112.2223940 150.5430150  39.2058280 123.2338240
 150.4473750  38.2653010 123.0838640 151.3862130  39.4273350 122.8386310
 145.6740690  35.6171950 121.3872020 145.2804080  36.4647160 121.5944800
 144.9859090  34.9798320 121.5780660 152.2485740  35.7006920 124.4568760
 151.5584060  35.5079120 125.0914850 152.9918040  35.9841560 124.9893060
 142.9757740  33.5400410 115.4202100 142.6870790  34.1103270 116.1327080
 143.7203500  33.0604860 115.7833330 143.1627970  37.4820530 106.6304820
 143.0802640  38.4251290 106.7719810 142.8111030  37.3395440 105.7517170
 150.9626100  36.2159560 115.6975170 150.9662160  35.7749510 114.8479710
 151.8577220  36.5376890 115.8046990 146.8128480  36.0986050 114.6569380
 146.4728530  36.5761280 115.4136430 146.0505800  35.6451170 114.2970480
 151.0246250  37.2171640 108.6881930 151.1459070  37.1758120 109.6367750
 150.6394760  38.0795790 108.5328660 150.0367750  39.5272780 108.0865230
 149.4684650  39.0791030 107.4601140 150.7456750  39.8865560 107.5530380
 145.1136930  43.4284800 121.9631960 144.7291720  42.7878470 122.5614920
 145.4249120  44.1320920 122.5326690 151.2634070  40.2761340 117.4440580
 151.6304200  39.8019910 118.1901920 151.0739130  41.1502910 117.7848920
 144.1274560  35.0205030 113.5734050 143.8421480  34.6560700 114.4112670
 144.0653420  34.2885490 112.9597190 149.0533440  39.3169980 119.7624790
 148.7490510  40.1961960 119.9875150 150.0079900  39.3769770 119.7982230
 147.5815230  43.5230970 110.3591640 146.8077490  42.9828590 110.1990360
 148.3109860  43.0037580 110.0209400 147.6252630  43.1911350 113.9970450
 148.1431300  42.3879610 113.9427340 147.1736650  43.1290490 114.8387280
 152.5122130  44.4577630 109.2697750 152.8537830  45.2019860 108.7741070
 151.6834840  44.7708750 109.6322580 145.1097170  40.1572720 120.9096150
 144.7512110  40.8226570 121.4969490 144.8151730  39.3256270 121.2808770
 148.3110290  40.6156960 123.7935700 148.0110430  40.7614140 122.8963520
 149.0821530  40.0562250 123.7009090 151.4812820  44.5391160 112.0413670
 152.1683950  45.0860370 112.4221260 150.6945240  45.0831890 112.0763280
 143.6205220  40.1563980 107.5330750 144.4900070  40.4388780 107.8166670
 143.1295540  40.9699850 107.4179560 150.7840030  41.5437190 111.6539030
 151.2402810  42.3542440 111.8799220 150.4328240  41.2260330 112.4857520
 146.6851810  31.8874840 112.1261550 146.5566440  31.8792740 113.0746470
 145.8613830  32.2257930 111.7752560 143.9876470  49.3691360 108.0992380
 144.3474110  49.9680700 107.4449650 143.8468810  49.9151250 108.8727410
 143.6845740  33.6465960 121.5868250 142.9704260  33.8462880 122.1920860
 144.1040780  32.8705530 121.9583050 143.9718330  47.6346220 122.5734780
 144.0809450  46.6940960 122.4330170 143.3198890  47.9000970 121.9248510
 151.9630920  45.9062110 123.9732900 151.6427790  45.1871350 124.5178590
 151.2889280  46.5817180 124.0468960 150.0045090  46.7522560 108.9166050
 149.9955190  47.4852250 108.3010560 149.0843450  46.5054140 109.0093010
 145.6051730  41.9737450 109.6612810 144.9979680  42.7136350 109.6708110
 146.0801080  42.0636810 108.8351010 152.9904690  46.8150800 107.5791240
 153.0916670  46.6114790 106.6493220 152.0906430  46.5609080 107.7839020
 150.5130580  37.3731160 111.5615140 149.8046730  37.8417500 112.0028750
 150.7975060  36.7153170 112.1960330 152.1386510  38.7927860 119.5607670
 152.6371760  39.2673680 120.2259520 152.2809460  37.8691380 119.7677700
 151.6322800  49.3337120 112.2738910 151.8864300  49.2958510 111.3518280
 150.6835280  49.2070450 112.2667160 148.7165600  35.6816240 108.9365850
 149.5656130  36.1186390 108.8706040 148.3496870  35.9936500 109.7637910
 147.6157020  41.9348600 107.4101380 148.3820290  41.8229960 107.9726810
 147.6931710  41.2386570 106.7578150 146.3103780  39.3673670 108.0934270
 146.3907370  38.4201180 108.2051670 147.2023530  39.6980550 108.1994930
 147.1118490  49.5169060 115.1968810 147.8480970  48.9684520 115.4677380
 147.4959410  50.3825070 115.0574800 143.9963970  45.5842630 111.0710320
 143.0703750  45.8263770 111.0615730 144.4620400  46.4116890 110.9495070
 146.1176770  48.7015130 124.3854390 146.9189500  49.0227180 124.7989790
 145.6028590  48.3410710 125.1074300 150.2220800  48.6899370 107.0194380
 151.0149410  48.9788200 106.5676170 149.7025150  48.2591540 106.3406860
 143.8374580  41.1888590 123.3290440 144.3413600  40.6095870 123.9006670
 143.0982000  41.4728820 123.8666810 150.7398200  43.9102780 106.8836730
 150.6348840  43.2955130 107.6098110 150.5722420  43.3868670 106.0999740
 150.8912520  42.5959580 122.8625960 150.1258190  43.1644580 122.7780630
 151.0728480  42.3035790 121.9694190 145.8697660  39.3318180 124.2240510
 145.9103000  39.0332050 125.1325740 146.7243160  39.7325790 124.0648030
 149.6476050  41.9313730 109.3844020 150.0692470  41.7653600 110.2275410
 149.7726890  41.1213960 108.8899160 147.8103470  37.9110280 122.1915000
 147.2799930  37.4201230 121.5638340 148.4791540  38.3394480 121.6572930
 152.1603690  40.9551340 106.6321120 152.6809350  40.2400360 106.2662270
 152.8072090  41.5937210 106.9321630 148.2975770  34.8772650 122.2712290
 148.2032640  34.2593400 121.5463160 147.7173160  35.6038940 122.0442200
 151.0637210  33.4345890 119.3039680 150.6154510  33.4570150 118.4585230
 150.4302410  33.0364910 119.9009980 151.4696760  42.3300220 119.9252120
 151.8884870  43.1732950 119.7528360 150.5505390  42.4672260 119.6958900
 148.5434950  38.0046960 106.3302180 148.3424010  37.1414320 106.6915520
 148.3727000  37.9180320 105.3923780 149.3204180  48.6353230 121.0409850
 148.7825270  49.3599290 120.7218550 149.5738140  48.1583570 120.2507190
 150.5729430  36.6037750 122.5665780 151.1629120  36.2953600 123.2543600
 149.7549670  36.1317500 122.7225680 147.3417750  35.1047580 106.3180060
 147.6443650  35.1115010 105.4099210 148.0812340  34.7545440 106.8147720
 152.1766390  49.8704440 121.2996500 152.1025090  50.7739580 121.6068870
 151.2745230  49.5516340 121.2718570 150.5602680  34.0482200 107.3036260
 150.2124680  33.3706190 106.7238710 150.7615450  33.5871710 108.1179650
 146.3647880  44.4090000 107.1509860 146.8022750  44.9519670 107.8067440
 146.8495610  43.5836950 107.1606200 143.5793680  47.1979030 114.6030120
 143.9096690  46.3300090 114.3708760 144.0084680  47.4037550 115.4335080
 148.1755600  45.5288040 112.2632090 147.8751140  45.4053010 113.1636000
 148.0693090  44.6696630 111.8547820 144.0683890  48.0649620 117.3411750
 143.6314880  48.2450420 118.1735900 144.6361570  48.8224240 117.1993470
 143.9008320  40.5769850 113.7000630 143.2457160  40.3081490 113.0560330
 144.7386270  40.4674330 113.2502610 144.9384250  40.9622420 118.2403970
 145.3057290  40.8749820 119.1199990 144.3695070  40.1988970 118.1410830
 144.4900250  37.8731510 122.1462390 143.5956300  37.8398270 122.4856100
 145.0297800  38.0718300 122.9113640 143.1146400  37.7868780 109.6425960
 142.2110480  38.0498980 109.4677620 143.5987020  38.0579950 108.8625920
 145.6573610  36.8434320 107.5520340 146.3665310  36.4217540 107.0667620
 144.9413550  36.9109550 106.9203690 145.3047770  32.8973650 106.5922990
 146.0275900  33.4382590 106.9104210 145.5772290  32.6237070 105.7164530
 144.9939960  32.1479840 116.4945610 145.6416150  31.5977220 116.0540770
 145.4141800  32.4022990 117.3161420 144.7471960  32.3035510 119.2370930
 144.3986780  32.7599330 120.0029110 144.4159660  31.4092640 119.3193360
 146.3536330  45.4755110 123.4024120 146.3105960  45.1048020 124.2838580
 146.4847340  46.4132680 123.5425940 150.0542360  47.0314700 119.0033840
 149.8133720  47.2989260 118.1164360 150.9945000  47.2020430 119.0584700
 145.4192600  31.8311710 122.5121700 145.9675590  31.6499760 121.7487810
 145.4847910  31.0405820 123.0478010 146.1924360  48.4217360 120.5221900
 145.5984680  48.2902060 121.2611940 146.1848200  47.5855500 120.0564000
 145.8236590  45.7875740 119.4729940 145.0970650  45.1681030 119.4055890
 145.8845740  46.1816350 118.6028020 149.4281690  48.0020740 116.2579350
 149.9446710  47.3908100 115.7327610 150.0779070  48.5049520 116.7490360
 152.1677190  48.8929230 117.0848330 152.4555000  48.6383530 116.2081340
 152.6800410  48.3406590 117.6753900 144.1066590  49.1050130 112.6826700
 143.9388630  48.4720810 113.3808590 143.2401100  49.3109530 112.3320890
 144.7294610  32.9366910 110.1858560 145.4873970  33.0495790 109.6122590
 144.2671780  33.7736110 110.1401990 151.2708420  35.0506180 113.1760870
 150.4582930  34.6763070 112.8356750 151.7750060  34.2951260 113.4782060
 145.7129290  47.7983360 110.1276840 145.1876910  48.1791390 109.4238800
 145.6373870  48.4234130 110.8486550 147.1019760  33.4630960 108.7260530
 147.6312520  32.6760760 108.5968480 147.7348080  34.1422150 108.9596060
 149.2957600  33.2006100 111.7805920 148.6660340  32.4993410 111.9476050
 148.7562740  33.9610230 111.5639080 152.2349550  49.8145330 124.4516530
 153.1616860  49.5789600 124.4952490 152.2199980  50.6417330 123.9702560
 149.4213160  32.4790080 124.2158410 149.1397430  32.9823680 123.4519230
 149.8032860  31.6811830 123.8500540 148.3122260  49.7465740 109.0026090
 149.0441080  49.4625020 108.4549980 148.5715930  49.5079020 109.8925470
 147.4737050  45.8630470 109.0072420 146.8445930  46.3315570 109.5558250
 147.5884880  45.0179690 109.4418610 147.0770640  42.0034960  97.9158650
 146.2455520  41.7483670  98.3155160 147.6851620  42.0745730  98.6516570
 147.0571900  46.0375050  98.1116670 147.3599940  45.1472790  97.9326890
 147.8015490  46.5945270  97.8838920 145.4862590  36.9636850  91.7001040
 144.5979290  37.3052820  91.5980920 145.7703780  36.7637170  90.8081870
 143.4495600  39.5642500  97.5840740 144.0211710  38.7964700  97.5844380
 143.4497140  39.8631260  96.6747350 144.6920470  34.9726860  99.3709670
 144.5123310  34.0752610  99.6512430 144.2900550  35.5198730 100.0456620
 147.6623980  35.5468350  92.7339420 147.7690730  36.4472080  93.0408180
 146.7516340  35.4986320  92.4434070 145.3107140  37.4687360  97.9792010
 145.9917250  37.7325730  98.5979410 144.9955190  36.6288230  98.3130020
 149.5031710  38.5154720  97.0664600 150.0109930  39.0135690  97.7069620
 150.0344950  37.7389920  96.8903960 147.7867810  33.1553280 101.3328020
 147.7886250  33.6725670 100.5273920 146.9572120  32.6783460 101.3097950
 149.0370660  42.7948460  99.5101520 148.7040040  43.4217380 100.1522590
 149.2137340  43.3210340  98.7303190 147.4683140  34.8663240  99.3398470
 147.8099950  35.7105290  99.0452340 146.5298950  35.0146980  99.4563810
 148.2489760  44.7629260 101.3250700 148.8663760  45.4380340 101.0435150
 147.3882880  45.1717240 101.2338200 143.5422100  43.9529120  90.2057550
 143.1650080  44.4416220  89.4742450 143.7995170  44.6254400  90.8364080
 151.1511030  32.3545510  95.6643060 151.4586010  31.7992400  94.9478560
 150.2211730  32.4889970  95.4816050 149.1448430  40.9459080  95.1822910
 148.7405430  40.2336330  94.6868810 149.2311550  40.6012320  96.0710950
 149.6130130  44.6326640  97.3462120 149.3158420  44.0272110  96.6669900
 150.5629950  44.6703950  97.2351480 147.8577050  37.7202290  98.9621950
 148.4091640  37.8297630  98.1875200 148.3720560  38.0939890  99.6777180
 148.7048560  44.3708330 103.9969920 147.8077090  44.5948300 104.2443320
 148.7301430  44.4943270 103.0481320 147.5319780  41.2421650 102.5727290
 147.3927550  42.1144450 102.9414690 146.6501140  40.8994460 102.4275230
 149.3300130  47.1843350 104.7812440 149.3015560  47.5886300 103.9140870
 149.1665100  46.2553710 104.6184040 145.8453060  39.8404060  92.6829560
 145.7250660  40.5666150  92.0710830 145.5353950  39.0706970  92.2057470
 143.4838430  43.0119200  98.4898200 143.5618850  43.1467970  97.5453920
 144.0980110  42.3035090  98.6826320 144.7286060  44.7119390  94.9004380
 144.3214140  44.8533980  94.0457980 145.6199070  44.4279550  94.6975590
 149.0007720  48.9265170  93.0127050 148.8250200  48.0100710  92.7994850
 148.1463460  49.2852460  93.2524850 143.5397950  44.0533370 101.0292660
 143.7028990  43.5838730 100.2112030 144.0050400  43.5456930 101.6941500
 148.3116720  33.1839130  96.0653230 147.8684870  33.9648670  95.7337750
 148.8701710  33.5069020  96.7724170 152.5986530  36.0507650 101.6688550
 152.1365900  36.2590670 102.4808490 152.1964640  35.2367000 101.3659220
 151.4275540  32.8049830  90.9459060 150.8029720  32.8009700  91.6712370
 151.3405660  31.9380790  90.5495030 150.3492620  33.7286460  97.9242830
 150.6464950  34.6349290  97.8434850 150.8978180  33.2405240  97.3102400
 148.1030940  38.3072700  93.7934480 147.8771860  38.0909870  94.6981100
 147.3223470  38.7401160  93.4480450 150.5430150  39.2058280 104.4594750
 150.4473750  38.2653010 104.3095150 151.3862130  39.4273350 104.0642820
 145.6740690  35.6171950 102.6128530 145.2804080  36.4647160 102.8201310
 144.9859090  34.9798320 102.8037170 152.2485740  35.7006920 105.6825270
 151.5584060  35.5079120 106.3171360 152.9918040  35.9841560 106.2149570
 142.9757740  33.5400410  96.6458610 142.6870790  34.1103270  97.3583590
 143.7203500  33.0604860  97.0089840 143.1627970  37.4820530  87.8561330
 143.0802640  38.4251290  87.9976320 142.8111030  37.3395440  86.9773680
 150.9626100  36.2159560  96.9231680 150.9662160  35.7749510  96.0736220
 151.8577220  36.5376890  97.0303500 146.8128480  36.0986050  95.8825890
 146.4728530  36.5761280  96.6392940 146.0505800  35.6451170  95.5226990
 151.0246250  37.2171640  89.9138440 151.1459070  37.1758120  90.8624260
 150.6394760  38.0795790  89.7585170 150.0367750  39.5272780  89.3121740
 149.4684650  39.0791030  88.6857650 150.7456750  39.8865560  88.7786890
 145.1136930  43.4284800 103.1888470 144.7291720  42.7878470 103.7871430
 145.4249120  44.1320920 103.7583200 151.2634070  40.2761340  98.6697090
 151.6304200  39.8019910  99.4158430 151.0739130  41.1502910  99.0105430
 144.1274560  35.0205030  94.7990560 143.8421480  34.6560700  95.6369180
 144.0653420  34.2885490  94.1853700 149.0533440  39.3169980 100.9881300
 148.7490510  40.1961960 101.2131660 150.0079900  39.3769770 101.0238740
 147.5815230  43.5230970  91.5848150 146.8077490  42.9828590  91.4246870
 148.3109860  43.0037580  91.2465910 147.6252630  43.1911350  95.2226960
 148.1431300  42.3879610  95.1683850 147.1736650  43.1290490  96.0643790
 152.5122130  44.4577630  90.4954260 152.8537830  45.2019860  89.9997580
 151.6834840  44.7708750  90.8579090 145.1097170  40.1572720 102.1352660
 144.7512110  40.8226570 102.7226000 144.8151730  39.3256270 102.5065280
 148.3110290  40.6156960 105.0192210 148.0110430  40.7614140 104.1220030
 149.0821530  40.0562250 104.9265600 151.4812820  44.5391160  93.2670180
 152.1683950  45.0860370  93.6477770 150.6945240  45.0831890  93.3019790
 143.6205220  40.1563980  88.7587260 144.4900070  40.4388780  89.0423180
 143.1295540  40.9699850  88.6436070 150.7840030  41.5437190  92.8795540
 151.2402810  42.3542440  93.1055730 150.4328240  41.2260330  93.7114030
 146.6851810  31.8874840  93.3518060 146.5566440  31.8792740  94.3002980
 145.8613830  32.2257930  93.0009070 143.9876470  49.3691360  89.3248890
 144.3474110  49.9680700  88.6706160 143.8468810  49.9151250  90.0983920
 143.6845740  33.6465960 102.8124760 142.9704260  33.8462880 103.4177370
 144.1040780  32.8705530 103.1839560 143.9718330  47.6346220 103.7991290
 144.0809450  46.6940960 103.6586680 143.3198890  47.9000970 103.1505020
 151.9630920  45.9062110 105.1989410 151.6427790  45.1871350 105.7435100
 151.2889280  46.5817180 105.2725470 150.0045090  46.7522560  90.1422560
 149.9955190  47.4852250  89.5267070 149.0843450  46.5054140  90.2349520
 145.6051730  41.9737450  90.8869320 144.9979680  42.7136350  90.8964620
 146.0801080  42.0636810  90.0607520 152.9904690  46.8150800  88.8047750
 153.0916670  46.6114790  87.8749730 152.0906430  46.5609080  89.0095530
 150.5130580  37.3731160  92.7871650 149.8046730  37.8417500  93.2285260
 150.7975060  36.7153170  93.4216840 152.1386510  38.7927860 100.7864180
 152.6371760  39.2673680 101.4516030 152.2809460  37.8691380 100.9934210
 151.6322800  49.3337120  93.4995420 151.8864300  49.2958510  92.5774790
 150.6835280  49.2070450  93.4923670 148.7165600  35.6816240  90.1622360
 149.5656130  36.1186390  90.0962550 148.3496870  35.9936500  90.9894420
 147.6157020  41.9348600  88.6357890 148.3820290  41.8229960  89.1983320
 147.6931710  41.2386570  87.9834660 146.3103780  39.3673670  89.3190780
 146.3907370  38.4201180  89.4308180 147.2023530  39.6980550  89.4251440
 147.1118490  49.5169060  96.4225320 147.8480970  48.9684520  96.6933890
 147.4959410  50.3825070  96.2831310 143.9963970  45.5842630  92.2966830
 143.0703750  45.8263770  92.2872240 144.4620400  46.4116890  92.1751580
 146.1176770  48.7015130 105.6110900 146.9189500  49.0227180 106.0246300
 145.6028590  48.3410710 106.3330810 150.2220800  48.6899370  88.2450890
 151.0149410  48.9788200  87.7932680 149.7025150  48.2591540  87.5663370
 143.8374580  41.1888590 104.5546950 144.3413600  40.6095870 105.1263180
 143.0982000  41.4728820 105.0923320 150.7398200  43.9102780  88.1093240
 150.6348840  43.2955130  88.8354620 150.5722420  43.3868670  87.3256250
 150.8912520  42.5959580 104.0882470 150.1258190  43.1644580 104.0037140
 151.0728480  42.3035790 103.1950700 145.8697660  39.3318180 105.4497020
 145.9103000  39.0332050 106.3582250 146.7243160  39.7325790 105.2904540
 149.6476050  41.9313730  90.6100530 150.0692470  41.7653600  91.4531920
 149.7726890  41.1213960  90.1155670 147.8103470  37.9110280 103.4171510
 147.2799930  37.4201230 102.7894850 148.4791540  38.3394480 102.8829440
 152.1603690  40.9551340  87.8577630 152.6809350  40.2400360  87.4918780
 152.8072090  41.5937210  88.1578140 148.2975770  34.8772650 103.4968800
 148.2032640  34.2593400 102.7719670 147.7173160  35.6038940 103.2698710
 151.0637210  33.4345890 100.5296190 150.6154510  33.4570150  99.6841740
 150.4302410  33.0364910 101.1266490 151.4696760  42.3300220 101.1508630
 151.8884870  43.1732950 100.9784870 150.5505390  42.4672260 100.9215410
 148.5434950  38.0046960  87.5558690 148.3424010  37.1414320  87.9172030
 148.3727000  37.9180320  86.6180290 149.3204180  48.6353230 102.2666360
 148.7825270  49.3599290 101.9475060 149.5738140  48.1583570 101.4763700
 150.5729430  36.6037750 103.7922290 151.1629120  36.2953600 104.4800110
 149.7549670  36.1317500 103.9482190 147.3417750  35.1047580  87.5436570
 147.6443650  35.1115010  86.6355720 148.0812340  34.7545440  88.0404230
 152.1766390  49.8704440 102.5253010 152.1025090  50.7739580 102.8325380
 151.2745230  49.5516340 102.4975080 150.5602680  34.0482200  88.5292770
 150.2124680  33.3706190  87.9495220 150.7615450  33.5871710  89.3436160
 146.3647880  44.4090000  88.3766370 146.8022750  44.9519670  89.0323950
 146.8495610  43.5836950  88.3862710 143.5793680  47.1979030  95.8286630
 143.9096690  46.3300090  95.5965270 144.0084680  47.4037550  96.6591590
 148.1755600  45.5288040  93.4888600 147.8751140  45.4053010  94.3892510
 148.0693090  44.6696630  93.0804330 144.0683890  48.0649620  98.5668260
 143.6314880  48.2450420  99.3992410 144.6361570  48.8224240  98.4249980
 143.9008320  40.5769850  94.9257140 143.2457160  40.3081490  94.2816840
 144.7386270  40.4674330  94.4759120 144.9384250  40.9622420  99.4660480
 145.3057290  40.8749820 100.3456500 144.3695070  40.1988970  99.3667340
 144.4900250  37.8731510 103.3718900 143.5956300  37.8398270 103.7112610
 145.0297800  38.0718300 104.1370150 143.1146400  37.7868780  90.8682470
 142.2110480  38.0498980  90.6934130 143.5987020  38.0579950  90.0882430
 145.6573610  36.8434320  88.7776850 146.3665310  36.4217540  88.2924130
 144.9413550  36.9109550  88.1460200 145.3047770  32.8973650  87.8179500
 146.0275900  33.4382590  88.1360720 145.5772290  32.6237070  86.9421040
 144.9939960  32.1479840  97.7202120 145.6416150  31.5977220  97.2797280
 145.4141800  32.4022990  98.5417930 144.7471960  32.3035510 100.4627440
 144.3986780  32.7599330 101.2285620 144.4159660  31.4092640 100.5449870
 146.3536330  45.4755110 104.6280630 146.3105960  45.1048020 105.5095090
 146.4847340  46.4132680 104.7682450 150.0542360  47.0314700 100.2290350
 149.8133720  47.2989260  99.3420870 150.9945000  47.2020430 100.2841210
 145.4192600  31.8311710 103.7378210 145.9675590  31.6499760 102.9744320
 145.4847910  31.0405820 104.2734520 146.1924360  48.4217360 101.7478410
 145.5984680  48.2902060 102.4868450 146.1848200  47.5855500 101.2820510
 145.8236590  45.7875740 100.6986450 145.0970650  45.1681030 100.6312400
 145.8845740  46.1816350  99.8284530 149.4281690  48.0020740  97.4835860
 149.9446710  47.3908100  96.9584120 150.0779070  48.5049520  97.9746870
 152.1677190  48.8929230  98.3104840 152.4555000  48.6383530  97.4337850
 152.6800410  48.3406590  98.9010410 144.1066590  49.1050130  93.9083210
 143.9388630  48.4720810  94.6065100 143.2401100  49.3109530  93.5577400
 144.7294610  32.9366910  91.4115070 145.4873970  33.0495790  90.8379100
 144.2671780  33.7736110  91.3658500 151.2708420  35.0506180  94.4017380
 150.4582930  34.6763070  94.0613260 151.7750060  34.2951260  94.7038570
 145.7129290  47.7983360  91.3533350 145.1876910  48.1791390  90.6495310
 145.6373870  48.4234130  92.0743060 147.1019760  33.4630960  89.9517040
 147.6312520  32.6760760  89.8224990 147.7348080  34.1422150  90.1852570
 149.2957600  33.2006100  93.0062430 148.6660340  32.4993410  93.1732560
 148.7562740  33.9610230  92.7895590 152.2349550  49.8145330 105.6773040
 153.1616860  49.5789600 105.7209000 152.2199980  50.6417330 105.1959070
 149.4213160  32.4790080 105.4414920 149.1397430  32.9823680 104.6775740
 149.8032860  31.6811830 105.0757050 148.3122260  49.7465740  90.2282600
 149.0441080  49.4625020  89.6806490 148.5715930  49.5079020  91.1181980
 147.4737050  45.8630470  90.2328930 146.8445930  46.3315570  90.7814760
 147.5884880  45.0179690  90.6675120 147.0770640  42.0034960  79.1415160
 146.2455520  41.7483670  79.5411670 147.6851620  42.0745730  79.8773080
 147.0571900  46.0375050  79.3373180 147.3599940  45.1472790  79.1583400
 147.8015490  46.5945270  79.1095430 145.4862590  36.9636850  72.9257550
 144.5979290  37.3052820  72.8237430 145.7703780  36.7637170  72.0338380
 143.4495600  39.5642500  78.8097250 144.0211710  38.7964700  78.8100890
 143.4497140  39.8631260  77.9003860 144.6920470  34.9726860  80.5966180
 144.5123310  34.0752610  80.8768940 144.2900550  35.5198730  81.2713130
 147.6623980  35.5468350  73.9595930 147.7690730  36.4472080  74.2664690
 146.7516340  35.4986320  73.6690580 145.3107140  37.4687360  79.2048520
 145.9917250  37.7325730  79.8235920 144.9955190  36.6288230  79.5386530
 149.5031710  38.5154720  78.2921110 150.0109930  39.0135690  78.9326130
 150.0344950  37.7389920  78.1160470 147.7867810  33.1553280  82.5584530
 147.7886250  33.6725670  81.7530430 146.9572120  32.6783460  82.5354460
 149.0370660  42.7948460  80.7358030 148.7040040  43.4217380  81.3779100
 149.2137340  43.3210340  79.9559700 147.4683140  34.8663240  80.5654980
 147.8099950  35.7105290  80.2708850 146.5298950  35.0146980  80.6820320
 148.2489760  44.7629260  82.5507210 148.8663760  45.4380340  82.2691660
 147.3882880  45.1717240  82.4594710 143.5422100  43.9529120  71.4314060
 143.1650080  44.4416220  70.6998960 143.7995170  44.6254400  72.0620590
 151.1511030  32.3545510  76.8899570 151.4586010  31.7992400  76.1735070
 150.2211730  32.4889970  76.7072560 149.1448430  40.9459080  76.4079420
 148.7405430  40.2336330  75.9125320 149.2311550  40.6012320  77.2967460
 149.6130130  44.6326640  78.5718630 149.3158420  44.0272110  77.8926410
 150.5629950  44.6703950  78.4607990 147.8577050  37.7202290  80.1878460
 148.4091640  37.8297630  79.4131710 148.3720560  38.0939890  80.9033690
 148.7048560  44.3708330  85.2226430 147.8077090  44.5948300  85.4699830
 148.7301430  44.4943270  84.2737830 147.5319780  41.2421650  83.7983800
 147.3927550  42.1144450  84.1671200 146.6501140  40.8994460  83.6531740
 149.3300130  47.1843350  86.0068950 149.3015560  47.5886300  85.1397380
 149.1665100  46.2553710  85.8440550 145.8453060  39.8404060  73.9086070
 145.7250660  40.5666150  73.2967340 145.5353950  39.0706970  73.4313980
 143.4838430  43.0119200  79.7154710 143.5618850  43.1467970  78.7710430
 144.0980110  42.3035090  79.9082830 144.7286060  44.7119390  76.1260890
 144.3214140  44.8533980  75.2714490 145.6199070  44.4279550  75.9232100
 149.0007720  48.9265170  74.2383560 148.8250200  48.0100710  74.0251360
 148.1463460  49.2852460  74.4781360 143.5397950  44.0533370  82.2549170
 143.7028990  43.5838730  81.4368540 144.0050400  43.5456930  82.9198010
 148.3116720  33.1839130  77.2909740 147.8684870  33.9648670  76.9594260
 148.8701710  33.5069020  77.9980680 152.5986530  36.0507650  82.8945060
 152.1365900  36.2590670  83.7065000 152.1964640  35.2367000  82.5915730
 151.4275540  32.8049830  72.1715570 150.8029720  32.8009700  72.8968880
 151.3405660  31.9380790  71.7751540 150.3492620  33.7286460  79.1499340
 150.6464950  34.6349290  79.0691360 150.8978180  33.2405240  78.5358910
 148.1030940  38.3072700  75.0190990 147.8771860  38.0909870  75.9237610
 147.3223470  38.7401160  74.6736960 150.5430150  39.2058280  85.6851260
 150.4473750  38.2653010  85.5351660 151.3862130  39.4273350  85.2899330
 145.6740690  35.6171950  83.8385040 145.2804080  36.4647160  84.0457820
 144.9859090  34.9798320  84.0293680 152.2485740  35.7006920  86.9081780
 151.5584060  35.5079120  87.5427870 152.9918040  35.9841560  87.4406080
 142.9757740  33.5400410  77.8715120 142.6870790  34.1103270  78.5840100
 143.7203500  33.0604860  78.2346350 143.1627970  37.4820530  69.0817840
 143.0802640  38.4251290  69.2232830 142.8111030  37.3395440  68.2030190
 150.9626100  36.2159560  78.1488190 150.9662160  35.7749510  77.2992730
 151.8577220  36.5376890  78.2560010 146.8128480  36.0986050  77.1082400
 146.4728530  36.5761280  77.8649450 146.0505800  35.6451170  76.7483500
 151.0246250  37.2171640  71.1394950 151.1459070  37.1758120  72.0880770
 150.6394760  38.0795790  70.9841680 150.0367750  39.5272780  70.5378250
 149.4684650  39.0791030  69.9114160 150.7456750  39.8865560  70.0043400
 145.1136930  43.4284800  84.4144980 144.7291720  42.7878470  85.0127940
 145.4249120  44.1320920  84.9839710 151.2634070  40.2761340  79.8953600
 151.6304200  39.8019910  80.6414940 151.0739130  41.1502910  80.2361940
 144.1274560  35.0205030  76.0247070 143.8421480  34.6560700  76.8625690
 144.0653420  34.2885490  75.4110210 149.0533440  39.3169980  82.2137810
 148.7490510  40.1961960  82.4388170 150.0079900  39.3769770  82.2495250
 147.5815230  43.5230970  72.8104660 146.8077490  42.9828590  72.6503380
 148.3109860  43.0037580  72.4722420 147.6252630  43.1911350  76.4483470
 148.1431300  42.3879610  76.3940360 147.1736650  43.1290490  77.2900300
 152.5122130  44.4577630  71.7210770 152.8537830  45.2019860  71.2254090
 151.6834840  44.7708750  72.0835600 145.1097170  40.1572720  83.3609170
 144.7512110  40.8226570  83.9482510 144.8151730  39.3256270  83.7321790
 148.3110290  40.6156960  86.2448720 148.0110430  40.7614140  85.3476540
 149.0821530  40.0562250  86.1522110 151.4812820  44.5391160  74.4926690
 152.1683950  45.0860370  74.8734280 150.6945240  45.0831890  74.5276300
 143.6205220  40.1563980  69.9843770 144.4900070  40.4388780  70.2679690
 143.1295540  40.9699850  69.8692580 150.7840030  41.5437190  74.1052050
 151.2402810  42.3542440  74.3312240 150.4328240  41.2260330  74.9370540
 146.6851810  31.8874840  74.5774570 146.5566440  31.8792740  75.5259490
 145.8613830  32.2257930  74.2265580 143.9876470  49.3691360  70.5505400
 144.3474110  49.9680700  69.8962670 143.8468810  49.9151250  71.3240430
 143.6845740  33.6465960  84.0381270 142.9704260  33.8462880  84.6433880
 144.1040780  32.8705530  84.4096070 143.9718330  47.6346220  85.0247800
 144.0809450  46.6940960  84.8843190 143.3198890  47.9000970  84.3761530
 151.9630920  45.9062110  86.4245920 151.6427790  45.1871350  86.9691610
 151.2889280  46.5817180  86.4981980 150.0045090  46.7522560  71.3679070
 149.9955190  47.4852250  70.7523580 149.0843450  46.5054140  71.4606030
 145.6051730  41.9737450  72.1125830 144.9979680  42.7136350  72.1221130
 146.0801080  42.0636810  71.2864030 152.9904690  46.8150800  70.0304260
 153.0916670  46.6114790  69.1006240 152.0906430  46.5609080  70.2352040
 150.5130580  37.3731160  74.0128160 149.8046730  37.8417500  74.4541770
 150.7975060  36.7153170  74.6473350 152.1386510  38.7927860  82.0120690
 152.6371760  39.2673680  82.6772540 152.2809460  37.8691380  82.2190720
 151.6322800  49.3337120  74.7251930 151.8864300  49.2958510  73.8031300
 150.6835280  49.2070450  74.7180180 148.7165600  35.6816240  71.3878870
 149.5656130  36.1186390  71.3219060 148.3496870  35.9936500  72.2150930
 147.6157020  41.9348600  69.8614400 148.3820290  41.8229960  70.4239830
 147.6931710  41.2386570  69.2091170 146.3103780  39.3673670  70.5447290
 146.3907370  38.4201180  70.6564690 147.2023530  39.6980550  70.6507950
 147.1118490  49.5169060  77.6481830 147.8480970  48.9684520  77.9190400
 147.4959410  50.3825070  77.5087820 143.9963970  45.5842630  73.5223340
 143.0703750  45.8263770  73.5128750 144.4620400  46.4116890  73.4008090
 146.1176770  48.7015130  86.8367410 146.9189500  49.0227180  87.2502810
 145.6028590  48.3410710  87.5587320 150.2220800  48.6899370  69.4707400
 151.0149410  48.9788200  69.0189190 149.7025150  48.2591540  68.7919880
 143.8374580  41.1888590  85.7803460 144.3413600  40.6095870  86.3519690
 143.0982000  41.4728820  86.3179830 150.7398200  43.9102780  69.3349750
 150.6348840  43.2955130  70.0611130 150.5722420  43.3868670  68.5512760
 150.8912520  42.5959580  85.3138980 150.1258190  43.1644580  85.2293650
 151.0728480  42.3035790  84.4207210 145.8697660  39.3318180  86.6753530
 145.9103000  39.0332050  87.5838760 146.7243160  39.7325790  86.5161050
 149.6476050  41.9313730  71.8357040 150.0692470  41.7653600  72.6788430
 149.7726890  41.1213960  71.3412180 147.8103470  37.9110280  84.6428020
 147.2799930  37.4201230  84.0151360 148.4791540  38.3394480  84.1085950
 152.1603690  40.9551340  69.0834140 152.6809350  40.2400360  68.7175290
 152.8072090  41.5937210  69.3834650 148.2975770  34.8772650  84.7225310
 148.2032640  34.2593400  83.9976180 147.7173160  35.6038940  84.4955220
 151.0637210  33.4345890  81.7552700 150.6154510  33.4570150  80.9098250
 150.4302410  33.0364910  82.3523000 151.4696760  42.3300220  82.3765140
 151.8884870  43.1732950  82.2041380 150.5505390  42.4672260  82.1471920
 148.5434950  38.0046960  68.7815200 148.3424010  37.1414320  69.1428540
 148.3727000  37.9180320  67.8436800 149.3204180  48.6353230  83.4922870
 148.7825270  49.3599290  83.1731570 149.5738140  48.1583570  82.7020210
 150.5729430  36.6037750  85.0178800 151.1629120  36.2953600  85.7056620
 149.7549670  36.1317500  85.1738700 147.3417750  35.1047580  68.7693080
 147.6443650  35.1115010  67.8612230 148.0812340  34.7545440  69.2660740
 152.1766390  49.8704440  83.7509520 152.1025090  50.7739580  84.0581890
 151.2745230  49.5516340  83.7231590 150.5602680  34.0482200  69.7549280
 150.2124680  33.3706190  69.1751730 150.7615450  33.5871710  70.5692670
 146.3647880  44.4090000  69.6022880 146.8022750  44.9519670  70.2580460
 146.8495610  43.5836950  69.6119220 143.5793680  47.1979030  77.0543140
 143.9096690  46.3300090  76.8221780 144.0084680  47.4037550  77.8848100
 148.1755600  45.5288040  74.7145110 147.8751140  45.4053010  75.6149020
 148.0693090  44.6696630  74.3060840 144.0683890  48.0649620  79.7924770
 143.6314880  48.2450420  80.6248920 144.6361570  48.8224240  79.6506490
 143.9008320  40.5769850  76.1513650 143.2457160  40.3081490  75.5073350
 144.7386270  40.4674330  75.7015630 144.9384250  40.9622420  80.6916990
 145.3057290  40.8749820  81.5713010 144.3695070  40.1988970  80.5923850
 144.4900250  37.8731510  84.5975410 143.5956300  37.8398270  84.9369120
 145.0297800  38.0718300  85.3626660 143.1146400  37.7868780  72.0938980
 142.2110480  38.0498980  71.9190640 143.5987020  38.0579950  71.3138940
 145.6573610  36.8434320  70.0033360 146.3665310  36.4217540  69.5180640
 144.9413550  36.9109550  69.3716710 145.3047770  32.8973650  69.0436010
 146.0275900  33.4382590  69.3617230 145.5772290  32.6237070  68.1677550
 144.9939960  32.1479840  78.9458630 145.6416150  31.5977220  78.5053790
 145.4141800  32.4022990  79.7674440 144.7471960  32.3035510  81.6883950
 144.3986780  32.7599330  82.4542130 144.4159660  31.4092640  81.7706380
 146.3536330  45.4755110  85.8537140 146.3105960  45.1048020  86.7351600
 146.4847340  46.4132680  85.9938960 150.0542360  47.0314700  81.4546860
 149.8133720  47.2989260  80.5677380 150.9945000  47.2020430  81.5097720
 145.4192600  31.8311710  84.9634720 145.9675590  31.6499760  84.2000830
 145.4847910  31.0405820  85.4991030 146.1924360  48.4217360  82.9734920
 145.5984680  48.2902060  83.7124960 146.1848200  47.5855500  82.5077020
 145.8236590  45.7875740  81.9242960 145.0970650  45.1681030  81.8568910
 145.8845740  46.1816350  81.0541040 149.4281690  48.0020740  78.7092370
 149.9446710  47.3908100  78.1840630 150.0779070  48.5049520  79.2003380
 152.1677190  48.8929230  79.5361350 152.4555000  48.6383530  78.6594360
 152.6800410  48.3406590  80.1266920 144.1066590  49.1050130  75.1339720
 143.9388630  48.4720810  75.8321610 143.2401100  49.3109530  74.7833910
 144.7294610  32.9366910  72.6371580 145.4873970  33.0495790  72.0635610
 144.2671780  33.7736110  72.5915010 151.2708420  35.0506180  75.6273890
 150.4582930  34.6763070  75.2869770 151.7750060  34.2951260  75.9295080
 145.7129290  47.7983360  72.5789860 145.1876910  48.1791390  71.8751820
 145.6373870  48.4234130  73.2999570 147.1019760  33.4630960  71.1773550
 147.6312520  32.6760760  71.0481500 147.7348080  34.1422150  71.4109080
 149.2957600  33.2006100  74.2318940 148.6660340  32.4993410  74.3989070
 148.7562740  33.9610230  74.0152100 152.2349550  49.8145330  86.9029550
 153.1616860  49.5789600  86.9465510 152.2199980  50.6417330  86.4215580
 149.4213160  32.4790080  86.6671430 149.1397430  32.9823680  85.9032250
 149.8032860  31.6811830  86.3013560 148.3122260  49.7465740  71.4539110
 149.0441080  49.4625020  70.9063000 148.5715930  49.5079020  72.3438490
 147.4737050  45.8630470  71.4585440 146.8445930  46.3315570  72.0071270
 147.5884880  45.0179690  71.8931630 147.0770640  42.0034960  60.3671670
 146.2455520  41.7483670  60.7668180 147.6851620  42.0745730  61.1029590
 147.0571900  46.0375050  60.5629690 147.3599940  45.1472790  60.3839910
 147.8015490  46.5945270  60.3351940 145.4862590  36.9636850  54.1514060
 144.5979290  37.3052820  54.0493940 145.7703780  36.7637170  53.2594890
 143.4495600  39.5642500  60.0353760 144.0211710  38.7964700  60.0357400
 143.4497140  39.8631260  59.1260370 144.6920470  34.9726860  61.8222690
 144.5123310  34.0752610  62.1025450 144.2900550  35.5198730  62.4969640
 147.6623980  35.5468350  55.1852440 147.7690730  36.4472080  55.4921200
 146.7516340  35.4986320  54.8947090 145.3107140  37.4687360  60.4305030
 145.9917250  37.7325730  61.0492430 144.9955190  36.6288230  60.7643040
 149.5031710  38.5154720  59.5177620 150.0109930  39.0135690  60.1582640
 150.0344950  37.7389920  59.3416980 147.7867810  33.1553280  63.7841040
 147.7886250  33.6725670  62.9786940 146.9572120  32.6783460  63.7610970
 149.0370660  42.7948460  61.9614540 148.7040040  43.4217380  62.6035610
 149.2137340  43.3210340  61.1816210 147.4683140  34.8663240  61.7911490
 147.8099950  35.7105290  61.4965360 146.5298950  35.0146980  61.9076830
 148.2489760  44.7629260  63.7763720 148.8663760  45.4380340  63.4948170
 147.3882880  45.1717240  63.6851220 143.5422100  43.9529120  52.6570570
 143.1650080  44.4416220  51.9255470 143.7995170  44.6254400  53.2877100
 151.1511030  32.3545510  58.1156080 151.4586010  31.7992400  57.3991580
 150.2211730  32.4889970  57.9329070 149.1448430  40.9459080  57.6335930
 148.7405430  40.2336330  57.1381830 149.2311550  40.6012320  58.5223970
 149.6130130  44.6326640  59.7975140 149.3158420  44.0272110  59.1182920
 150.5629950  44.6703950  59.6864500 147.8577050  37.7202290  61.4134970
 148.4091640  37.8297630  60.6388220 148.3720560  38.0939890  62.1290200
 148.7048560  44.3708330  66.4482940 147.8077090  44.5948300  66.6956340
 148.7301430  44.4943270  65.4994340 147.5319780  41.2421650  65.0240310
 147.3927550  42.1144450  65.3927710 146.6501140  40.8994460  64.8788250
 149.3300130  47.1843350  67.2325460 149.3015560  47.5886300  66.3653890
 149.1665100  46.2553710  67.0697060 145.8453060  39.8404060  55.1342580
 145.7250660  40.5666150  54.5223850 145.5353950  39.0706970  54.6570490
 143.4838430  43.0119200  60.9411220 143.5618850  43.1467970  59.9966940
 144.0980110  42.3035090  61.1339340 144.7286060  44.7119390  57.3517400
 144.3214140  44.8533980  56.4971000 145.6199070  44.4279550  57.1488610
 149.0007720  48.9265170  55.4640070 148.8250200  48.0100710  55.2507870
 148.1463460  49.2852460  55.7037870 143.5397950  44.0533370  63.4805680
 143.7028990  43.5838730  62.6625050 144.0050400  43.5456930  64.1454520
 148.3116720  33.1839130  58.5166250 147.8684870  33.9648670  58.1850770
 148.8701710  33.5069020  59.2237190 152.5986530  36.0507650  64.1201570
 152.1365900  36.2590670  64.9321510 152.1964640  35.2367000  63.8172240
 151.4275540  32.8049830  53.3972080 150.8029720  32.8009700  54.1225390
 151.3405660  31.9380790  53.0008050 150.3492620  33.7286460  60.3755850
 150.6464950  34.6349290  60.2947870 150.8978180  33.2405240  59.7615420
 148.1030940  38.3072700  56.2447500 147.8771860  38.0909870  57.1494120
 147.3223470  38.7401160  55.8993470 150.5430150  39.2058280  66.9107770
 150.4473750  38.2653010  66.7608170 151.3862130  39.4273350  66.5155840
 145.6740690  35.6171950  65.0641550 145.2804080  36.4647160  65.2714330
 144.9859090  34.9798320  65.2550190 152.2485740  35.7006920  68.1338290
 151.5584060  35.5079120  68.7684380 152.9918040  35.9841560  68.6662590
 142.9757740  33.5400410  59.0971630 142.6870790  34.1103270  59.8096610
 143.7203500  33.0604860  59.4602860 143.1627970  37.4820530  50.3074350
 143.0802640  38.4251290  50.4489340 142.8111030  37.3395440  49.4286700
 150.9626100  36.2159560  59.3744700 150.9662160  35.7749510  58.5249240
 151.8577220  36.5376890  59.4816520 146.8128480  36.0986050  58.3338910
 146.4728530  36.5761280  59.0905960 146.0505800  35.6451170  57.9740010
 151.0246250  37.2171640  52.3651460 151.1459070  37.1758120  53.3137280
 150.6394760  38.0795790  52.2098190 150.0367750  39.5272780  51.7634760
 149.4684650  39.0791030  51.1370670 150.7456750  39.8865560  51.2299910
 145.1136930  43.4284800  65.6401490 144.7291720  42.7878470  66.2384450
 145.4249120  44.1320920  66.2096220 151.2634070  40.2761340  61.1210110
 151.6304200  39.8019910  61.8671450 151.0739130  41.1502910  61.4618450
 144.1274560  35.0205030  57.2503580 143.8421480  34.6560700  58.0882200
 144.0653420  34.2885490  56.6366720 149.0533440  39.3169980  63.4394320
 148.7490510  40.1961960  63.6644680 150.0079900  39.3769770  63.4751760
 147.5815230  43.5230970  54.0361170 146.8077490  42.9828590  53.8759890
 148.3109860  43.0037580  53.6978930 147.6252630  43.1911350  57.6739980
 148.1431300  42.3879610  57.6196870 147.1736650  43.1290490  58.5156810
 152.5122130  44.4577630  52.9467280 152.8537830  45.2019860  52.4510600
 151.6834840  44.7708750  53.3092110 145.1097170  40.1572720  64.5865680
 144.7512110  40.8226570  65.1739020 144.8151730  39.3256270  64.9578300
 148.3110290  40.6156960  67.4705230 148.0110430  40.7614140  66.5733050
 149.0821530  40.0562250  67.3778620 151.4812820  44.5391160  55.7183200
 152.1683950  45.0860370  56.0990790 150.6945240  45.0831890  55.7532810
 143.6205220  40.1563980  51.2100280 144.4900070  40.4388780  51.4936200
 143.1295540  40.9699850  51.0949090 150.7840030  41.5437190  55.3308560
 151.2402810  42.3542440  55.5568750 150.4328240  41.2260330  56.1627050
 146.6851810  31.8874840  55.8031080 146.5566440  31.8792740  56.7516000
 145.8613830  32.2257930  55.4522090 143.9876470  49.3691360  51.7761910
 144.3474110  49.9680700  51.1219180 143.8468810  49.9151250  52.5496940
 143.6845740  33.6465960  65.2637780 142.9704260  33.8462880  65.8690390
 144.1040780  32.8705530  65.6352580 143.9718330  47.6346220  66.2504310
 144.0809450  46.6940960  66.1099700 143.3198890  47.9000970  65.6018040
 151.9630920  45.9062110  67.6502430 151.6427790  45.1871350  68.1948120
 151.2889280  46.5817180  67.7238490 150.0045090  46.7522560  52.5935580
 149.9955190  47.4852250  51.9780090 149.0843450  46.5054140  52.6862540
 145.6051730  41.9737450  53.3382340 144.9979680  42.7136350  53.3477640
 146.0801080  42.0636810  52.5120540 152.9904690  46.8150800  51.2560770
 153.0916670  46.6114790  50.3262750 152.0906430  46.5609080  51.4608550
 150.5130580  37.3731160  55.2384670 149.8046730  37.8417500  55.6798280
 150.7975060  36.7153170  55.8729860 152.1386510  38.7927860  63.2377200
 152.6371760  39.2673680  63.9029050 152.2809460  37.8691380  63.4447230
 151.6322800  49.3337120  55.9508440 151.8864300  49.2958510  55.0287810
 150.6835280  49.2070450  55.9436690 148.7165600  35.6816240  52.6135380
 149.5656130  36.1186390  52.5475570 148.3496870  35.9936500  53.4407440
 147.6157020  41.9348600  51.0870910 148.3820290  41.8229960  51.6496340
 147.6931710  41.2386570  50.4347680 146.3103780  39.3673670  51.7703800
 146.3907370  38.4201180  51.8821200 147.2023530  39.6980550  51.8764460
 147.1118490  49.5169060  58.8738340 147.8480970  48.9684520  59.1446910
 147.4959410  50.3825070  58.7344330 143.9963970  45.5842630  54.7479850
 143.0703750  45.8263770  54.7385260 144.4620400  46.4116890  54.6264600
 146.1176770  48.7015130  68.0623920 146.9189500  49.0227180  68.4759320
 145.6028590  48.3410710  68.7843830 150.2220800  48.6899370  50.6963910
 151.0149410  48.9788200  50.2445700 149.7025150  48.2591540  50.0176390
 143.8374580  41.1888590  67.0059970 144.3413600  40.6095870  67.5776200
 143.0982000  41.4728820  67.5436340 150.7398200  43.9102780  50.5606260
 150.6348840  43.2955130  51.2867640 150.5722420  43.3868670  49.7769270
 150.8912520  42.5959580  66.5395490 150.1258190  43.1644580  66.4550160
 151.0728480  42.3035790  65.6463720 145.8697660  39.3318180  67.9010040
 145.9103000  39.0332050  68.8095270 146.7243160  39.7325790  67.7417560
 149.6476050  41.9313730  53.0613550 150.0692470  41.7653600  53.9044940
 149.7726890  41.1213960  52.5668690 147.8103470  37.9110280  65.8684530
 147.2799930  37.4201230  65.2407870 148.4791540  38.3394480  65.3342460
 152.1603690  40.9551340  50.3090650 152.6809350  40.2400360  49.9431800
 152.8072090  41.5937210  50.6091160 148.2975770  34.8772650  65.9481820
 148.2032640  34.2593400  65.2232690 147.7173160  35.6038940  65.7211730
 151.0637210  33.4345890  62.9809210 150.6154510  33.4570150  62.1354760
 150.4302410  33.0364910  63.5779510 151.4696760  42.3300220  63.6021650
 151.8884870  43.1732950  63.4297890 150.5505390  42.4672260  63.3728430
 148.5434950  38.0046960  50.0071710 148.3424010  37.1414320  50.3685050
 148.3727000  37.9180320  49.0693310 149.3204180  48.6353230  64.7179380
 148.7825270  49.3599290  64.3988080 149.5738140  48.1583570  63.9276720
 150.5729430  36.6037750  66.2435310 151.1629120  36.2953600  66.9313130
 149.7549670  36.1317500  66.3995210 147.3417750  35.1047580  49.9949590
 147.6443650  35.1115010  49.0868740 148.0812340  34.7545440  50.4917250
 152.1766390  49.8704440  64.9766030 152.1025090  50.7739580  65.2838400
 151.2745230  49.5516340  64.9488100 150.5602680  34.0482200  50.9805790
 150.2124680  33.3706190  50.4008240 150.7615450  33.5871710  51.7949180
 146.3647880  44.4090000  50.8279390 146.8022750  44.9519670  51.4836970
 146.8495610  43.5836950  50.8375730 143.5793680  47.1979030  58.2799650
 143.9096690  46.3300090  58.0478290 144.0084680  47.4037550  59.1104610
 148.1755600  45.5288040  55.9401620 147.8751140  45.4053010  56.8405530
 148.0693090  44.6696630  55.5317350 144.0683890  48.0649620  61.0181280
 143.6314880  48.2450420  61.8505430 144.6361570  48.8224240  60.8763000
 143.9008320  40.5769850  57.3770160 143.2457160  40.3081490  56.7329860
 144.7386270  40.4674330  56.9272140 144.9384250  40.9622420  61.9173500
 145.3057290  40.8749820  62.7969520 144.3695070  40.1988970  61.8180360
 144.4900250  37.8731510  65.8231920 143.5956300  37.8398270  66.1625630
 145.0297800  38.0718300  66.5883170 143.1146400  37.7868780  53.3195490
 142.2110480  38.0498980  53.1447150 143.5987020  38.0579950  52.5395450
 145.6573610  36.8434320  51.2289870 146.3665310  36.4217540  50.7437150
 144.9413550  36.9109550  50.5973220 145.3047770  32.8973650  50.2692520
 146.0275900  33.4382590  50.5873740 145.5772290  32.6237070  49.3934060
 144.9939960  32.1479840  60.1715140 145.6416150  31.5977220  59.7310300
 145.4141800  32.4022990  60.9930950 144.7471960  32.3035510  62.9140460
 144.3986780  32.7599330  63.6798640 144.4159660  31.4092640  62.9962890
 146.3536330  45.4755110  67.0793650 146.3105960  45.1048020  67.9608110
 146.4847340  46.4132680  67.2195470 150.0542360  47.0314700  62.6803370
 149.8133720  47.2989260  61.7933890 150.9945000  47.2020430  62.7354230
 145.4192600  31.8311710  66.1891230 145.9675590  31.6499760  65.4257340
 145.4847910  31.0405820  66.7247540 146.1924360  48.4217360  64.1991430
 145.5984680  48.2902060  64.9381470 146.1848200  47.5855500  63.7333530
 145.8236590  45.7875740  63.1499470 145.0970650  45.1681030  63.0825420
 145.8845740  46.1816350  62.2797550 149.4281690  48.0020740  59.9348880
 149.9446710  47.3908100  59.4097140 150.0779070  48.5049520  60.4259890
 152.1677190  48.8929230  60.7617860 152.4555000  48.6383530  59.8850870
 152.6800410  48.3406590  61.3523430 144.1066590  49.1050130  56.3596230
 143.9388630  48.4720810  57.0578120 143.2401100  49.3109530  56.0090420
 144.7294610  32.9366910  53.8628090 145.4873970  33.0495790  53.2892120
 144.2671780  33.7736110  53.8171520 151.2708420  35.0506180  56.8530400
 150.4582930  34.6763070  56.5126280 151.7750060  34.2951260  57.1551590
 145.7129290  47.7983360  53.8046370 145.1876910  48.1791390  53.1008330
 145.6373870  48.4234130  54.5256080 147.1019760  33.4630960  52.4030060
 147.6312520  32.6760760  52.2738010 147.7348080  34.1422150  52.6365590
 149.2957600  33.2006100  55.4575450 148.6660340  32.4993410  55.6245580
 148.7562740  33.9610230  55.2408610 152.2349550  49.8145330  68.1286060
 153.1616860  49.5789600  68.1722020 152.2199980  50.6417330  67.6472090
 149.4213160  32.4790080  67.8927940 149.1397430  32.9823680  67.1288760
 149.8032860  31.6811830  67.5270070 148.3122260  49.7465740  52.6795620
 149.0441080  49.4625020  52.1319510 148.5715930  49.5079020  53.5695000
 147.4737050  45.8630470  52.6841950 146.8445930  46.3315570  53.2327780
 147.5884880  45.0179690  53.1188140 147.0770640  42.0034960  41.5928180
 146.2455520  41.7483670  41.9924690 147.6851620  42.0745730  42.3286100
 147.0571900  46.0375050  41.7886200 147.3599940  45.1472790  41.6096420
 147.8015490  46.5945270  41.5608450 145.4862590  36.9636850  35.3770570
 144.5979290  37.3052820  35.2750450 145.7703780  36.7637170  34.4851400
 143.4495600  39.5642500  41.2610270 144.0211710  38.7964700  41.2613910
 143.4497140  39.8631260  40.3516880 144.6920470  34.9726860  43.0479200
 144.5123310  34.0752610  43.3281960 144.2900550  35.5198730  43.7226150
 147.6623980  35.5468350  36.4108950 147.7690730  36.4472080  36.7177710
 146.7516340  35.4986320  36.1203600 145.3107140  37.4687360  41.6561540
 145.9917250  37.7325730  42.2748940 144.9955190  36.6288230  41.9899550
 149.5031710  38.5154720  40.7434130 150.0109930  39.0135690  41.3839150
 150.0344950  37.7389920  40.5673490 147.7867810  33.1553280  45.0097550
 147.7886250  33.6725670  44.2043450 146.9572120  32.6783460  44.9867480
 149.0370660  42.7948460  43.1871050 148.7040040  43.4217380  43.8292120
 149.2137340  43.3210340  42.4072720 147.4683140  34.8663240  43.0168000
 147.8099950  35.7105290  42.7221870 146.5298950  35.0146980  43.1333340
 148.2489760  44.7629260  45.0020230 148.8663760  45.4380340  44.7204680
 147.3882880  45.1717240  44.9107730 143.5422100  43.9529120  33.8827080
 143.1650080  44.4416220  33.1511980 143.7995170  44.6254400  34.5133610
 151.1511030  32.3545510  39.3412590 151.4586010  31.7992400  38.6248090
 150.2211730  32.4889970  39.1585580 149.1448430  40.9459080  38.8592440
 148.7405430  40.2336330  38.3638340 149.2311550  40.6012320  39.7480480
 149.6130130  44.6326640  41.0231650 149.3158420  44.0272110  40.3439430
 150.5629950  44.6703950  40.9121010 147.8577050  37.7202290  42.6391480
 148.4091640  37.8297630  41.8644730 148.3720560  38.0939890  43.3546710
 148.7048560  44.3708330  47.6739450 147.8077090  44.5948300  47.9212850
 148.7301430  44.4943270  46.7250850 147.5319780  41.2421650  46.2496820
 147.3927550  42.1144450  46.6184220 146.6501140  40.8994460  46.1044760
 149.3300130  47.1843350  48.4581970 149.3015560  47.5886300  47.5910400
 149.1665100  46.2553710  48.2953570 145.8453060  39.8404060  36.3599090
 145.7250660  40.5666150  35.7480360 145.5353950  39.0706970  35.8827000
 143.4838430  43.0119200  42.1667730 143.5618850  43.1467970  41.2223450
 144.0980110  42.3035090  42.3595850 144.7286060  44.7119390  38.5773910
 144.3214140  44.8533980  37.7227510 145.6199070  44.4279550  38.3745120
 149.0007720  48.9265170  36.6896580 148.8250200  48.0100710  36.4764380
 148.1463460  49.2852460  36.9294380 143.5397950  44.0533370  44.7062190
 143.7028990  43.5838730  43.8881560 144.0050400  43.5456930  45.3711030
 148.3116720  33.1839130  39.7422760 147.8684870  33.9648670  39.4107280
 148.8701710  33.5069020  40.4493700 152.5986530  36.0507650  45.3458080
 152.1365900  36.2590670  46.1578020 152.1964640  35.2367000  45.0428750
 151.4275540  32.8049830  34.6228590 150.8029720  32.8009700  35.3481900
 151.3405660  31.9380790  34.2264560 150.3492620  33.7286460  41.6012360
 150.6464950  34.6349290  41.5204380 150.8978180  33.2405240  40.9871930
 148.1030940  38.3072700  37.4704010 147.8771860  38.0909870  38.3750630
 147.3223470  38.7401160  37.1249980 150.5430150  39.2058280  48.1364280
 150.4473750  38.2653010  47.9864680 151.3862130  39.4273350  47.7412350
 145.6740690  35.6171950  46.2898060 145.2804080  36.4647160  46.4970840
 144.9859090  34.9798320  46.4806700 152.2485740  35.7006920  49.3594800
 151.5584060  35.5079120  49.9940890 152.9918040  35.9841560  49.8919100
 142.9757740  33.5400410  40.3228140 142.6870790  34.1103270  41.0353120
 143.7203500  33.0604860  40.6859370 143.1627970  37.4820530  31.5330860
 143.0802640  38.4251290  31.6745850 142.8111030  37.3395440  30.6543210
 150.9626100  36.2159560  40.6001210 150.9662160  35.7749510  39.7505750
 151.8577220  36.5376890  40.7073030 146.8128480  36.0986050  39.5595420
 146.4728530  36.5761280  40.3162470 146.0505800  35.6451170  39.1996520
 151.0246250  37.2171640  33.5907970 151.1459070  37.1758120  34.5393790
 150.6394760  38.0795790  33.4354700 150.0367750  39.5272780  32.9891270
 149.4684650  39.0791030  32.3627180 150.7456750  39.8865560  32.4556420
 145.1136930  43.4284800  46.8658000 144.7291720  42.7878470  47.4640960
 145.4249120  44.1320920  47.4352730 151.2634070  40.2761340  42.3466620
 151.6304200  39.8019910  43.0927960 151.0739130  41.1502910  42.6874960
 144.1274560  35.0205030  38.4760090 143.8421480  34.6560700  39.3138710
 144.0653420  34.2885490  37.8623230 149.0533440  39.3169980  44.6650830
 148.7490510  40.1961960  44.8901190 150.0079900  39.3769770  44.7008270
 147.5815230  43.5230970  35.2617680 146.8077490  42.9828590  35.1016400
 148.3109860  43.0037580  34.9235440 147.6252630  43.1911350  38.8996490
 148.1431300  42.3879610  38.8453380 147.1736650  43.1290490  39.7413320
 152.5122130  44.4577630  34.1723790 152.8537830  45.2019860  33.6767110
 151.6834840  44.7708750  34.5348620 145.1097170  40.1572720  45.8122190
 144.7512110  40.8226570  46.3995530 144.8151730  39.3256270  46.1834810
 148.3110290  40.6156960  48.6961740 148.0110430  40.7614140  47.7989560
 149.0821530  40.0562250  48.6035130 151.4812820  44.5391160  36.9439710
 152.1683950  45.0860370  37.3247300 150.6945240  45.0831890  36.9789320
 143.6205220  40.1563980  32.4356790 144.4900070  40.4388780  32.7192710
 143.1295540  40.9699850  32.3205600 150.7840030  41.5437190  36.5565070
 151.2402810  42.3542440  36.7825260 150.4328240  41.2260330  37.3883560
 146.6851810  31.8874840  37.0287590 146.5566440  31.8792740  37.9772510
 145.8613830  32.2257930  36.6778600 143.9876470  49.3691360  33.0018420
 144.3474110  49.9680700  32.3475690 143.8468810  49.9151250  33.7753450
 143.6845740  33.6465960  46.4894290 142.9704260  33.8462880  47.0946900
 144.1040780  32.8705530  46.8609090 143.9718330  47.6346220  47.4760820
 144.0809450  46.6940960  47.3356210 143.3198890  47.9000970  46.8274550
 151.9630920  45.9062110  48.8758940 151.6427790  45.1871350  49.4204630
 151.2889280  46.5817180  48.9495000 150.0045090  46.7522560  33.8192090
 149.9955190  47.4852250  33.2036600 149.0843450  46.5054140  33.9119050
 145.6051730  41.9737450  34.5638850 144.9979680  42.7136350  34.5734150
 146.0801080  42.0636810  33.7377050 152.9904690  46.8150800  32.4817280
 153.0916670  46.6114790  31.5519260 152.0906430  46.5609080  32.6865060
 150.5130580  37.3731160  36.4641180 149.8046730  37.8417500  36.9054790
 150.7975060  36.7153170  37.0986370 152.1386510  38.7927860  44.4633710
 152.6371760  39.2673680  45.1285560 152.2809460  37.8691380  44.6703740
 151.6322800  49.3337120  37.1764950 151.8864300  49.2958510  36.2544320
 150.6835280  49.2070450  37.1693200 148.7165600  35.6816240  33.8391890
 149.5656130  36.1186390  33.7732080 148.3496870  35.9936500  34.6663950
 147.6157020  41.9348600  32.3127420 148.3820290  41.8229960  32.8752850
 147.6931710  41.2386570  31.6604190 146.3103780  39.3673670  32.9960310
 146.3907370  38.4201180  33.1077710 147.2023530  39.6980550  33.1020970
 147.1118490  49.5169060  40.0994850 147.8480970  48.9684520  40.3703420
 147.4959410  50.3825070  39.9600840 143.9963970  45.5842630  35.9736360
 143.0703750  45.8263770  35.9641770 144.4620400  46.4116890  35.8521110
 146.1176770  48.7015130  49.2880430 146.9189500  49.0227180  49.7015830
 145.6028590  48.3410710  50.0100340 150.2220800  48.6899370  31.9220420
 151.0149410  48.9788200  31.4702210 149.7025150  48.2591540  31.2432900
 143.8374580  41.1888590  48.2316480 144.3413600  40.6095870  48.8032710
 143.0982000  41.4728820  48.7692850 150.7398200  43.9102780  31.7862770
 150.6348840  43.2955130  32.5124150 150.5722420  43.3868670  31.0025780
 150.8912520  42.5959580  47.7652000 150.1258190  43.1644580  47.6806670
 151.0728480  42.3035790  46.8720230 145.8697660  39.3318180  49.1266550
 145.9103000  39.0332050  50.0351780 146.7243160  39.7325790  48.9674070
 149.6476050  41.9313730  34.2870060 150.0692470  41.7653600  35.1301450
 149.7726890  41.1213960  33.7925200 147.8103470  37.9110280  47.0941040
 147.2799930  37.4201230  46.4664380 148.4791540  38.3394480  46.5598970
 152.1603690  40.9551340  31.5347160 152.6809350  40.2400360  31.1688310
 152.8072090  41.5937210  31.8347670 148.2975770  34.8772650  47.1738330
 148.2032640  34.2593400  46.4489200 147.7173160  35.6038940  46.9468240
 151.0637210  33.4345890  44.2065720 150.6154510  33.4570150  43.3611270
 150.4302410  33.0364910  44.8036020 151.4696760  42.3300220  44.8278160
 151.8884870  43.1732950  44.6554400 150.5505390  42.4672260  44.5984940
 148.5434950  38.0046960  31.2328220 148.3424010  37.1414320  31.5941560
 148.3727000  37.9180320  30.2949820 149.3204180  48.6353230  45.9435890
 148.7825270  49.3599290  45.6244590 149.5738140  48.1583570  45.1533230
 150.5729430  36.6037750  47.4691820 151.1629120  36.2953600  48.1569640
 149.7549670  36.1317500  47.6251720 147.3417750  35.1047580  31.2206100
 147.6443650  35.1115010  30.3125250 148.0812340  34.7545440  31.7173760
 152.1766390  49.8704440  46.2022540 152.1025090  50.7739580  46.5094910
 151.2745230  49.5516340  46.1744610 150.5602680  34.0482200  32.2062300
 150.2124680  33.3706190  31.6264750 150.7615450  33.5871710  33.0205690
 146.3647880  44.4090000  32.0535900 146.8022750  44.9519670  32.7093480
 146.8495610  43.5836950  32.0632240 143.5793680  47.1979030  39.5056160
 143.9096690  46.3300090  39.2734800 144.0084680  47.4037550  40.3361120
 148.1755600  45.5288040  37.1658130 147.8751140  45.4053010  38.0662040
 148.0693090  44.6696630  36.7573860 144.0683890  48.0649620  42.2437790
 143.6314880  48.2450420  43.0761940 144.6361570  48.8224240  42.1019510
 143.9008320  40.5769850  38.6026670 143.2457160  40.3081490  37.9586370
 144.7386270  40.4674330  38.1528650 144.9384250  40.9622420  43.1430010
 145.3057290  40.8749820  44.0226030 144.3695070  40.1988970  43.0436870
 144.4900250  37.8731510  47.0488430 143.5956300  37.8398270  47.3882140
 145.0297800  38.0718300  47.8139680 143.1146400  37.7868780  34.5452000
 142.2110480  38.0498980  34.3703660 143.5987020  38.0579950  33.7651960
 145.6573610  36.8434320  32.4546380 146.3665310  36.4217540  31.9693660
 144.9413550  36.9109550  31.8229730 145.3047770  32.8973650  31.4949030
 146.0275900  33.4382590  31.8130250 145.5772290  32.6237070  30.6190570
 144.9939960  32.1479840  41.3971650 145.6416150  31.5977220  40.9566810
 145.4141800  32.4022990  42.2187460 144.7471960  32.3035510  44.1396970
 144.3986780  32.7599330  44.9055150 144.4159660  31.4092640  44.2219400
 146.3536330  45.4755110  48.3050160 146.3105960  45.1048020  49.1864620
 146.4847340  46.4132680  48.4451980 150.0542360  47.0314700  43.9059880
 149.8133720  47.2989260  43.0190400 150.9945000  47.2020430  43.9610740
 145.4192600  31.8311710  47.4147740 145.9675590  31.6499760  46.6513850
 145.4847910  31.0405820  47.9504050 146.1924360  48.4217360  45.4247940
 145.5984680  48.2902060  46.1637980 146.1848200  47.5855500  44.9590040
 145.8236590  45.7875740  44.3755980 145.0970650  45.1681030  44.3081930
 145.8845740  46.1816350  43.5054060 149.4281690  48.0020740  41.1605390
 149.9446710  47.3908100  40.6353650 150.0779070  48.5049520  41.6516400
 152.1677190  48.8929230  41.9874370 152.4555000  48.6383530  41.1107380
 152.6800410  48.3406590  42.5779940 144.1066590  49.1050130  37.5852740
 143.9388630  48.4720810  38.2834630 143.2401100  49.3109530  37.2346930
 144.7294610  32.9366910  35.0884600 145.4873970  33.0495790  34.5148630
 144.2671780  33.7736110  35.0428030 151.2708420  35.0506180  38.0786910
 150.4582930  34.6763070  37.7382790 151.7750060  34.2951260  38.3808100
 145.7129290  47.7983360  35.0302880 145.1876910  48.1791390  34.3264840
 145.6373870  48.4234130  35.7512590 147.1019760  33.4630960  33.6286570
 147.6312520  32.6760760  33.4994520 147.7348080  34.1422150  33.8622100
 149.2957600  33.2006100  36.6831960 148.6660340  32.4993410  36.8502090
 148.7562740  33.9610230  36.4665120 152.2349550  49.8145330  49.3542570
 153.1616860  49.5789600  49.3978530 152.2199980  50.6417330  48.8728600
 149.4213160  32.4790080  49.1184450 149.1397430  32.9823680  48.3545270
 149.8032860  31.6811830  48.7526580 148.3122260  49.7465740  33.9052130
 149.0441080  49.4625020  33.3576020 148.5715930  49.5079020  34.7951510
 147.4737050  45.8630470  33.9098460 146.8445930  46.3315570  34.4584290
 147.5884880  45.0179690  34.3444650 147.0770640  42.0034960  22.8184690
 146.2455520  41.7483670  23.2181200 147.6851620  42.0745730  23.5542610
 147.0571900  46.0375050  23.0142710 147.3599940  45.1472790  22.8352930
 147.8015490  46.5945270  22.7864960 145.4862590  36.9636850  16.6027080
 144.5979290  37.3052820  16.5006960 145.7703780  36.7637170  15.7107910
 143.4495600  39.5642500  22.4866780 144.0211710  38.7964700  22.4870420
 143.4497140  39.8631260  21.5773390 144.6920470  34.9726860  24.2735710
 144.5123310  34.0752610  24.5538470 144.2900550  35.5198730  24.9482660
 147.6623980  35.5468350  17.6365460 147.7690730  36.4472080  17.9434220
 146.7516340  35.4986320  17.3460110 145.3107140  37.4687360  22.8818050
 145.9917250  37.7325730  23.5005450 144.9955190  36.6288230  23.2156060
 149.5031710  38.5154720  21.9690640 150.0109930  39.0135690  22.6095660
 150.0344950  37.7389920  21.7930000 147.7867810  33.1553280  26.2354060
 147.7886250  33.6725670  25.4299960 146.9572120  32.6783460  26.2123990
 149.0370660  42.7948460  24.4127560 148.7040040  43.4217380  25.0548630
 149.2137340  43.3210340  23.6329230 147.4683140  34.8663240  24.2424510
 147.8099950  35.7105290  23.9478380 146.5298950  35.0146980  24.3589850
 148.2489760  44.7629260  26.2276740 148.8663760  45.4380340  25.9461190
 147.3882880  45.1717240  26.1364240 143.5422100  43.9529120  15.1083590
 143.1650080  44.4416220  14.3768490 143.7995170  44.6254400  15.7390120
 151.1511030  32.3545510  20.5669100 151.4586010  31.7992400  19.8504600
 150.2211730  32.4889970  20.3842090 149.1448430  40.9459080  20.0848950
 148.7405430  40.2336330  19.5894850 149.2311550  40.6012320  20.9736990
 149.6130130  44.6326640  22.2488160 149.3158420  44.0272110  21.5695940
 150.5629950  44.6703950  22.1377520 147.8577050  37.7202290  23.8647990
 148.4091640  37.8297630  23.0901240 148.3720560  38.0939890  24.5803220
 148.7048560  44.3708330  28.8995960 147.8077090  44.5948300  29.1469360
 148.7301430  44.4943270  27.9507360 147.5319780  41.2421650  27.4753330
 147.3927550  42.1144450  27.8440730 146.6501140  40.8994460  27.3301270
 149.3300130  47.1843350  29.6838480 149.3015560  47.5886300  28.8166910
 149.1665100  46.2553710  29.5210080 145.8453060  39.8404060  17.5855600
 145.7250660  40.5666150  16.9736870 145.5353950  39.0706970  17.1083510
 143.4838430  43.0119200  23.3924240 143.5618850  43.1467970  22.4479960
 144.0980110  42.3035090  23.5852360 144.7286060  44.7119390  19.8030420
 144.3214140  44.8533980  18.9484020 145.6199070  44.4279550  19.6001630
 149.0007720  48.9265170  17.9153090 148.8250200  48.0100710  17.7020890
 148.1463460  49.2852460  18.1550890 143.5397950  44.0533370  25.9318700
 143.7028990  43.5838730  25.1138070 144.0050400  43.5456930  26.5967540
 148.3116720  33.1839130  20.9679270 147.8684870  33.9648670  20.6363790
 148.8701710  33.5069020  21.6750210 152.5986530  36.0507650  26.5714590
 152.1365900  36.2590670  27.3834530 152.1964640  35.2367000  26.2685260
 151.4275540  32.8049830  15.8485100 150.8029720  32.8009700  16.5738410
 151.3405660  31.9380790  15.4521070 150.3492620  33.7286460  22.8268870
 150.6464950  34.6349290  22.7460890 150.8978180  33.2405240  22.2128440
 148.1030940  38.3072700  18.6960520 147.8771860  38.0909870  19.6007140
 147.3223470  38.7401160  18.3506490 150.5430150  39.2058280  29.3620790
 150.4473750  38.2653010  29.2121190 151.3862130  39.4273350  28.9668860
 145.6740690  35.6171950  27.5154570 145.2804080  36.4647160  27.7227350
 144.9859090  34.9798320  27.7063210 152.2485740  35.7006920  30.5851310
 151.5584060  35.5079120  31.2197400 152.9918040  35.9841560  31.1175610
 142.9757740  33.5400410  21.5484650 142.6870790  34.1103270  22.2609630
 143.7203500  33.0604860  21.9115880 143.1627970  37.4820530  12.7587370
 143.0802640  38.4251290  12.9002360 142.8111030  37.3395440  11.8799720
 150.9626100  36.2159560  21.8257720 150.9662160  35.7749510  20.9762260
 151.8577220  36.5376890  21.9329540 146.8128480  36.0986050  20.7851930
 146.4728530  36.5761280  21.5418980 146.0505800  35.6451170  20.4253030
 151.0246250  37.2171640  14.8164480 151.1459070  37.1758120  15.7650300
 150.6394760  38.0795790  14.6611210 150.0367750  39.5272780  14.2147780
 149.4684650  39.0791030  13.5883690 150.7456750  39.8865560  13.6812930
 145.1136930  43.4284800  28.0914510 144.7291720  42.7878470  28.6897470
 145.4249120  44.1320920  28.6609240 151.2634070  40.2761340  23.5723130
 151.6304200  39.8019910  24.3184470 151.0739130  41.1502910  23.9131470
 144.1274560  35.0205030  19.7016600 143.8421480  34.6560700  20.5395220
 144.0653420  34.2885490  19.0879740 149.0533440  39.3169980  25.8907340
 148.7490510  40.1961960  26.1157700 150.0079900  39.3769770  25.9264780
 147.5815230  43.5230970  16.4874190 146.8077490  42.9828590  16.3272910
 148.3109860  43.0037580  16.1491950 147.6252630  43.1911350  20.1253000
 148.1431300  42.3879610  20.0709890 147.1736650  43.1290490  20.9669830
 152.5122130  44.4577630  15.3980300 152.8537830  45.2019860  14.9023620
 151.6834840  44.7708750  15.7605130 145.1097170  40.1572720  27.0378700
 144.7512110  40.8226570  27.6252040 144.8151730  39.3256270  27.4091320
 148.3110290  40.6156960  29.9218250 148.0110430  40.7614140  29.0246070
 149.0821530  40.0562250  29.8291640 151.4812820  44.5391160  18.1696220
 152.1683950  45.0860370  18.5503810 150.6945240  45.0831890  18.2045830
 143.6205220  40.1563980  13.6613300 144.4900070  40.4388780  13.9449220
 143.1295540  40.9699850  13.5462110 150.7840030  41.5437190  17.7821580
 151.2402810  42.3542440  18.0081770 150.4328240  41.2260330  18.6140070
 146.6851810  31.8874840  18.2544100 146.5566440  31.8792740  19.2029020
 145.8613830  32.2257930  17.9035110 143.9876470  49.3691360  14.2274930
 144.3474110  49.9680700  13.5732200 143.8468810  49.9151250  15.0009960
 143.6845740  33.6465960  27.7150800 142.9704260  33.8462880  28.3203410
 144.1040780  32.8705530  28.0865600 143.9718330  47.6346220  28.7017330
 144.0809450  46.6940960  28.5612720 143.3198890  47.9000970  28.0531060
 151.9630920  45.9062110  30.1015450 151.6427790  45.1871350  30.6461140
 151.2889280  46.5817180  30.1751510 150.0045090  46.7522560  15.0448600
 149.9955190  47.4852250  14.4293110 149.0843450  46.5054140  15.1375560
 145.6051730  41.9737450  15.7895360 144.9979680  42.7136350  15.7990660
 146.0801080  42.0636810  14.9633560 152.9904690  46.8150800  13.7073790
 153.0916670  46.6114790  12.7775770 152.0906430  46.5609080  13.9121570
 150.5130580  37.3731160  17.6897690 149.8046730  37.8417500  18.1311300
 150.7975060  36.7153170  18.3242880 152.1386510  38.7927860  25.6890220
 152.6371760  39.2673680  26.3542070 152.2809460  37.8691380  25.8960250
 151.6322800  49.3337120  18.4021460 151.8864300  49.2958510  17.4800830
 150.6835280  49.2070450  18.3949710 148.7165600  35.6816240  15.0648400
 149.5656130  36.1186390  14.9988590 148.3496870  35.9936500  15.8920460
 147.6157020  41.9348600  13.5383930 148.3820290  41.8229960  14.1009360
 147.6931710  41.2386570  12.8860700 146.3103780  39.3673670  14.2216820
 146.3907370  38.4201180  14.3334220 147.2023530  39.6980550  14.3277480
 147.1118490  49.5169060  21.3251360 147.8480970  48.9684520  21.5959930
 147.4959410  50.3825070  21.1857350 143.9963970  45.5842630  17.1992870
 143.0703750  45.8263770  17.1898280 144.4620400  46.4116890  17.0777620
 146.1176770  48.7015130  30.5136940 146.9189500  49.0227180  30.9272340
 145.6028590  48.3410710  31.2356850 150.2220800  48.6899370  13.1476930
 151.0149410  48.9788200  12.6958720 149.7025150  48.2591540  12.4689410
 143.8374580  41.1888590  29.4572990 144.3413600  40.6095870  30.0289220
 143.0982000  41.4728820  29.9949360 150.7398200  43.9102780  13.0119280
 150.6348840  43.2955130  13.7380660 150.5722420  43.3868670  12.2282290
 150.8912520  42.5959580  28.9908510 150.1258190  43.1644580  28.9063180
 151.0728480  42.3035790  28.0976740 145.8697660  39.3318180  30.3523060
 145.9103000  39.0332050  31.2608290 146.7243160  39.7325790  30.1930580
 149.6476050  41.9313730  15.5126570 150.0692470  41.7653600  16.3557960
 149.7726890  41.1213960  15.0181710 147.8103470  37.9110280  28.3197550
 147.2799930  37.4201230  27.6920890 148.4791540  38.3394480  27.7855480
 152.1603690  40.9551340  12.7603670 152.6809350  40.2400360  12.3944820
 152.8072090  41.5937210  13.0604180 148.2975770  34.8772650  28.3994840
 148.2032640  34.2593400  27.6745710 147.7173160  35.6038940  28.1724750
 151.0637210  33.4345890  25.4322230 150.6154510  33.4570150  24.5867780
 150.4302410  33.0364910  26.0292530 151.4696760  42.3300220  26.0534670
 151.8884870  43.1732950  25.8810910 150.5505390  42.4672260  25.8241450
 148.5434950  38.0046960  12.4584730 148.3424010  37.1414320  12.8198070
 148.3727000  37.9180320  11.5206330 149.3204180  48.6353230  27.1692400
 148.7825270  49.3599290  26.8501100 149.5738140  48.1583570  26.3789740
 150.5729430  36.6037750  28.6948330 151.1629120  36.2953600  29.3826150
 149.7549670  36.1317500  28.8508230 147.3417750  35.1047580  12.4462610
 147.6443650  35.1115010  11.5381760 148.0812340  34.7545440  12.9430270
 152.1766390  49.8704440  27.4279050 152.1025090  50.7739580  27.7351420
 151.2745230  49.5516340  27.4001120 150.5602680  34.0482200  13.4318810
 150.2124680  33.3706190  12.8521260 150.7615450  33.5871710  14.2462200
 146.3647880  44.4090000  13.2792410 146.8022750  44.9519670  13.9349990
 146.8495610  43.5836950  13.2888750 143.5793680  47.1979030  20.7312670
 143.9096690  46.3300090  20.4991310 144.0084680  47.4037550  21.5617630
 148.1755600  45.5288040  18.3914640 147.8751140  45.4053010  19.2918550
 148.0693090  44.6696630  17.9830370 144.0683890  48.0649620  23.4694300
 143.6314880  48.2450420  24.3018450 144.6361570  48.8224240  23.3276020
 143.9008320  40.5769850  19.8283180 143.2457160  40.3081490  19.1842880
 144.7386270  40.4674330  19.3785160 144.9384250  40.9622420  24.3686520
 145.3057290  40.8749820  25.2482540 144.3695070  40.1988970  24.2693380
 144.4900250  37.8731510  28.2744940 143.5956300  37.8398270  28.6138650
 145.0297800  38.0718300  29.0396190 143.1146400  37.7868780  15.7708510
 142.2110480  38.0498980  15.5960170 143.5987020  38.0579950  14.9908470
 145.6573610  36.8434320  13.6802890 146.3665310  36.4217540  13.1950170
 144.9413550  36.9109550  13.0486240 145.3047770  32.8973650  12.7205540
 146.0275900  33.4382590  13.0386760 145.5772290  32.6237070  11.8447080
 144.9939960  32.1479840  22.6228160 145.6416150  31.5977220  22.1823320
 145.4141800  32.4022990  23.4443970 144.7471960  32.3035510  25.3653480
 144.3986780  32.7599330  26.1311660 144.4159660  31.4092640  25.4475910
 146.3536330  45.4755110  29.5306670 146.3105960  45.1048020  30.4121130
 146.4847340  46.4132680  29.6708490 150.0542360  47.0314700  25.1316390
 149.8133720  47.2989260  24.2446910 150.9945000  47.2020430  25.1867250
 145.4192600  31.8311710  28.6404250 145.9675590  31.6499760  27.8770360
 145.4847910  31.0405820  29.1760560 146.1924360  48.4217360  26.6504450
 145.5984680  48.2902060  27.3894490 146.1848200  47.5855500  26.1846550
 145.8236590  45.7875740  25.6012490 145.0970650  45.1681030  25.5338440
 145.8845740  46.1816350  24.7310570 149.4281690  48.0020740  22.3861900
 149.9446710  47.3908100  21.8610160 150.0779070  48.5049520  22.8772910
 152.1677190  48.8929230  23.2130880 152.4555000  48.6383530  22.3363890
 152.6800410  48.3406590  23.8036450 144.1066590  49.1050130  18.8109250
 143.9388630  48.4720810  19.5091140 143.2401100  49.3109530  18.4603440
 144.7294610  32.9366910  16.3141110 145.4873970  33.0495790  15.7405140
 144.2671780  33.7736110  16.2684540 151.2708420  35.0506180  19.3043420
 150.4582930  34.6763070  18.9639300 151.7750060  34.2951260  19.6064610
 145.7129290  47.7983360  16.2559390 145.1876910  48.1791390  15.5521350
 145.6373870  48.4234130  16.9769100 147.1019760  33.4630960  14.8543080
 147.6312520  32.6760760  14.7251030 147.7348080  34.1422150  15.0878610
 149.2957600  33.2006100  17.9088470 148.6660340  32.4993410  18.0758600
 148.7562740  33.9610230  17.6921630 152.2349550  49.8145330  30.5799080
 153.1616860  49.5789600  30.6235040 152.2199980  50.6417330  30.0985110
 149.4213160  32.4790080  30.3440960 149.1397430  32.9823680  29.5801780
 149.8032860  31.6811830  29.9783090 148.3122260  49.7465740  15.1308640
 149.0441080  49.4625020  14.5832530 148.5715930  49.5079020  16.0208020
 147.4737050  45.8630470  15.1354970 146.8445930  46.3315570  15.6840800
 147.5884880  45.0179690  15.5701160 147.0770640  42.0034960   4.0441200
 146.2455520  41.7483670   4.4437710 147.6851620  42.0745730   4.7799120
 147.0571900  46.0375050   4.2399220 147.3599940  45.1472790   4.0609440
 147.8015490  46.5945270   4.0121470 143.4495600  39.5642500   3.7123290
 144.0211710  38.7964700   3.7126930 143.4497140  39.8631260   2.8029900
 144.6920470  34.9726860   5.4992220 144.5123310  34.0752610   5.7794980
 144.2900550  35.5198730   6.1739170 145.3107140  37.4687360   4.1074560
 145.9917250  37.7325730   4.7261960 144.9955190  36.6288230   4.4412570
 149.5031710  38.5154720   3.1947150 150.0109930  39.0135690   3.8352170
 150.0344950  37.7389920   3.0186510 147.7867810  33.1553280   7.4610570
 147.7886250  33.6725670   6.6556470 146.9572120  32.6783460   7.4380500
 149.0370660  42.7948460   5.6384070 148.7040040  43.4217380   6.2805140
 149.2137340  43.3210340   4.8585740 147.4683140  34.8663240   5.4681020
 147.8099950  35.7105290   5.1734890 146.5298950  35.0146980   5.5846360
 148.2489760  44.7629260   7.4533250 148.8663760  45.4380340   7.1717700
 147.3882880  45.1717240   7.3620750 149.6130130  44.6326640   3.4744670
 149.3158420  44.0272110   2.7952450 150.5629950  44.6703950   3.3634030
 147.8577050  37.7202290   5.0904500 148.4091640  37.8297630   4.3157750
 148.3720560  38.0939890   5.8059730 148.7048560  44.3708330  10.1252470
 147.8077090  44.5948300  10.3725870 148.7301430  44.4943270   9.1763870
 147.5319780  41.2421650   8.7009840 147.3927550  42.1144450   9.0697240
 146.6501140  40.8994460   8.5557780 149.3300130  47.1843350  10.9094990
 149.3015560  47.5886300  10.0423420 149.1665100  46.2553710  10.7466590
 143.4838430  43.0119200   4.6180750 143.5618850  43.1467970   3.6736470
 144.0980110  42.3035090   4.8108870 143.5397950  44.0533370   7.1575210
 143.7028990  43.5838730   6.3394580 144.0050400  43.5456930   7.8224050
 148.3116720  33.1839130   2.1935780 147.8684870  33.9648670   1.8620300
 148.8701710  33.5069020   2.9006720 152.5986530  36.0507650   7.7971100
 152.1365900  36.2590670   8.6091040 152.1964640  35.2367000   7.4941770
 150.3492620  33.7286460   4.0525380 150.6464950  34.6349290   3.9717400
 150.8978180  33.2405240   3.4384950 150.5430150  39.2058280  10.5877300
 150.4473750  38.2653010  10.4377700 151.3862130  39.4273350  10.1925370
 145.6740690  35.6171950   8.7411080 145.2804080  36.4647160   8.9483860
 144.9859090  34.9798320   8.9319720 152.2485740  35.7006920  11.8107820
 151.5584060  35.5079120  12.4453910 152.9918040  35.9841560  12.3432120
 142.9757740  33.5400410   2.7741160 142.6870790  34.1103270   3.4866140
 143.7203500  33.0604860   3.1372390 150.9626100  36.2159560   3.0514230
 150.9662160  35.7749510   2.2018770 151.8577220  36.5376890   3.1586050
 146.8128480  36.0986050   2.0108440 146.4728530  36.5761280   2.7675490
 146.0505800  35.6451170   1.6509540 145.1136930  43.4284800   9.3171020
 144.7291720  42.7878470   9.9153980 145.4249120  44.1320920   9.8865750
 151.2634070  40.2761340   4.7979640 151.6304200  39.8019910   5.5440980
 151.0739130  41.1502910   5.1387980 149.0533440  39.3169980   7.1163850
 148.7490510  40.1961960   7.3414210 150.0079900  39.3769770   7.1521290
 145.1097170  40.1572720   8.2635210 144.7512110  40.8226570   8.8508550
 144.8151730  39.3256270   8.6347830 148.3110290  40.6156960  11.1474760
 148.0110430  40.7614140  10.2502580 149.0821530  40.0562250  11.0548150
 143.6845740  33.6465960   8.9407310 142.9704260  33.8462880   9.5459920
 144.1040780  32.8705530   9.3122110 143.9718330  47.6346220   9.9273840
 144.0809450  46.6940960   9.7869230 143.3198890  47.9000970   9.2787570
 151.9630920  45.9062110  11.3271960 151.6427790  45.1871350  11.8717650
 151.2889280  46.5817180  11.4008020 152.1386510  38.7927860   6.9146730
 152.6371760  39.2673680   7.5798580 152.2809460  37.8691380   7.1216760
 147.1118490  49.5169060   2.5507870 147.8480970  48.9684520   2.8216440
 147.4959410  50.3825070   2.4113860 146.1176770  48.7015130  11.7393450
 146.9189500  49.0227180  12.1528850 145.6028590  48.3410710  12.4613360
 143.8374580  41.1888590  10.6829500 144.3413600  40.6095870  11.2545730
 143.0982000  41.4728820  11.2205870 150.8912520  42.5959580  10.2165020
 150.1258190  43.1644580  10.1319690 151.0728480  42.3035790   9.3233250
 145.8697660  39.3318180  11.5779570 145.9103000  39.0332050  12.4864800
 146.7243160  39.7325790  11.4187090 147.8103470  37.9110280   9.5454060
 147.2799930  37.4201230   8.9177400 148.4791540  38.3394480   9.0111990
 148.2975770  34.8772650   9.6251350 148.2032640  34.2593400   8.9002220
 147.7173160  35.6038940   9.3981260 151.0637210  33.4345890   6.6578740
 150.6154510  33.4570150   5.8124290 150.4302410  33.0364910   7.2549040
 151.4696760  42.3300220   7.2791180 151.8884870  43.1732950   7.1067420
 150.5505390  42.4672260   7.0497960 149.3204180  48.6353230   8.3948910
 148.7825270  49.3599290   8.0757610 149.5738140  48.1583570   7.6046250
 150.5729430  36.6037750   9.9204840 151.1629120  36.2953600  10.6082660
 149.7549670  36.1317500  10.0764740 152.1766390  49.8704440   8.6535560
 152.1025090  50.7739580   8.9607930 151.2745230  49.5516340   8.6257630
 143.5793680  47.1979030   1.9569180 143.9096690  46.3300090   1.7247820
 144.0084680  47.4037550   2.7874140 144.0683890  48.0649620   4.6950810
 143.6314880  48.2450420   5.5274960 144.6361570  48.8224240   4.5532530
 144.9384250  40.9622420   5.5943030 145.3057290  40.8749820   6.4739050
 144.3695070  40.1988970   5.4949890 144.4900250  37.8731510   9.5001450
 143.5956300  37.8398270   9.8395160 145.0297800  38.0718300  10.2652700
 144.9939960  32.1479840   3.8484670 145.6416150  31.5977220   3.4079830
 145.4141800  32.4022990   4.6700480 144.7471960  32.3035510   6.5909990
 144.3986780  32.7599330   7.3568170 144.4159660  31.4092640   6.6732420
 146.3536330  45.4755110  10.7563180 146.3105960  45.1048020  11.6377640
 146.4847340  46.4132680  10.8965000 150.0542360  47.0314700   6.3572900
 149.8133720  47.2989260   5.4703420 150.9945000  47.2020430   6.4123760
 145.4192600  31.8311710   9.8660760 145.9675590  31.6499760   9.1026870
 145.4847910  31.0405820  10.4017070 146.1924360  48.4217360   7.8760960
 145.5984680  48.2902060   8.6151000 146.1848200  47.5855500   7.4103060
 145.8236590  45.7875740   6.8269000 145.0970650  45.1681030   6.7594950
 145.8845740  46.1816350   5.9567080 149.4281690  48.0020740   3.6118410
 149.9446710  47.3908100   3.0866670 150.0779070  48.5049520   4.1029420
 152.1677190  48.8929230   4.4387390 152.4555000  48.6383530   3.5620400
 152.6800410  48.3406590   5.0292960 152.2349550  49.8145330  11.8055590
 153.1616860  49.5789600  11.8491550 152.2199980  50.6417330  11.3241620
 149.4213160  32.4790080  11.5697470 149.1397430  32.9823680  10.8058290
 149.8032860  31.6811830  11.2039600 147.0571900  27.2631560 154.4347140
 147.3599940  26.3729300 154.2557360 147.8015490  27.8201780 154.2069390
 145.4862590  18.1893360 148.0231510 144.5979290  18.5309330 147.9211390
 145.7703780  17.9893680 147.1312340 143.4495600  20.7899010 153.9071210
 144.0211710  20.0221210 153.9074850 143.4497140  21.0887770 152.9977820
 147.6623980  16.7724860 149.0569890 147.7690730  17.6728590 149.3638650
 146.7516340  16.7242830 148.7664540 149.5031710  19.7411230 153.3895070
 150.0109930  20.2392200 154.0300090 150.0344950  18.9646430 153.2134430
 143.5422100  25.1785630 146.5288020 143.1650080  25.6672730 145.7972920
 143.7995170  25.8510910 147.1594550 151.1511030  13.5802020 151.9873530
 151.4586010  13.0248910 151.2709030 150.2211730  13.7146480 151.8046520
 149.1448430  22.1715590 151.5053380 148.7405430  21.4592840 151.0099280
 149.2311550  21.8268830 152.3941420 149.6130130  25.8583150 153.6692590
 149.3158420  25.2528620 152.9900370 150.5629950  25.8960460 153.5581950
 145.8453060  21.0660570 149.0060030 145.7250660  21.7922660 148.3941300
 145.5353950  20.2963480 148.5287940 144.7286060  25.9375900 151.2234850
 144.3214140  26.0790490 150.3688450 145.6199070  25.6536060 151.0206060
 149.0007720  30.1521680 149.3357520 148.8250200  29.2357220 149.1225320
 148.1463460  30.5108970 149.5755320 148.3116720  14.4095640 152.3883700
 147.8684870  15.1905180 152.0568220 148.8701710  14.7325530 153.0954640
 151.4275540  14.0306340 147.2689530 150.8029720  14.0266210 147.9942840
 151.3405660  13.1637300 146.8725500 150.3492620  14.9542970 154.2473300
 150.6464950  15.8605800 154.1665320 150.8978180  14.4661750 153.6332870
 148.1030940  19.5329210 150.1164950 147.8771860  19.3166380 151.0211570
 147.3223470  19.9657670 149.7710920 142.9757740  14.7656920 152.9689080
 142.6870790  15.3359780 153.6814060 143.7203500  14.2861370 153.3320310
 143.1627970  18.7077040 144.1791800 143.0802640  19.6507800 144.3206790
 142.8111030  18.5651950 143.3004150 150.9626100  17.4416070 153.2462150
 150.9662160  17.0006020 152.3966690 151.8577220  17.7633400 153.3533970
 146.8128480  17.3242560 152.2056360 146.4728530  17.8017790 152.9623410
 146.0505800  16.8707680 151.8457460 151.0246250  18.4428150 146.2368910
 151.1459070  18.4014630 147.1854730 150.6394760  19.3052300 146.0815640
 150.0367750  20.7529290 145.6352210 149.4684650  20.3047540 145.0088120
 150.7456750  21.1122070 145.1017360 144.1274560  16.2461540 151.1221030
 143.8421480  15.8817210 151.9599650 144.0653420  15.5142000 150.5084170
 147.5815230  24.7487480 147.9078620 146.8077490  24.2085100 147.7477340
 148.3109860  24.2294090 147.5696380 147.6252630  24.4167860 151.5457430
 148.1431300  23.6136120 151.4914320 147.1736650  24.3547000 152.3874260
 152.5122130  25.6834140 146.8184730 152.8537830  26.4276370 146.3228050
 151.6834840  25.9965260 147.1809560 151.4812820  25.7647670 149.5900650
 152.1683950  26.3116880 149.9708240 150.6945240  26.3088400 149.6250260
 143.6205220  21.3820490 145.0817730 144.4900070  21.6645290 145.3653650
 143.1295540  22.1956360 144.9666540 150.7840030  22.7693700 149.2026010
 151.2402810  23.5798950 149.4286200 150.4328240  22.4516840 150.0344500
 146.6851810  13.1131350 149.6748530 146.5566440  13.1049250 150.6233450
 145.8613830  13.4514440 149.3239540 143.9876470  30.5947870 145.6479360
 144.3474110  31.1937210 144.9936630 143.8468810  31.1407760 146.4214390
 150.0045090  27.9779070 146.4653030 149.9955190  28.7108760 145.8497540
 149.0843450  27.7310650 146.5579990 145.6051730  23.1993960 147.2099790
 144.9979680  23.9392860 147.2195090 146.0801080  23.2893320 146.3837990
 152.9904690  28.0407310 145.1278220 153.0916670  27.8371300 144.1980200
 152.0906430  27.7865590 145.3326000 150.5130580  18.5987670 149.1102120
 149.8046730  19.0674010 149.5515730 150.7975060  17.9409680 149.7447310
 151.6322800  30.5593630 149.8225890 151.8864300  30.5215020 148.9005260
 150.6835280  30.4326960 149.8154140 148.7165600  16.9072750 146.4852830
 149.5656130  17.3442900 146.4193020 148.3496870  17.2193010 147.3124890
 147.6157020  23.1605110 144.9588360 148.3820290  23.0486470 145.5213790
 147.6931710  22.4643080 144.3065130 146.3103780  20.5930180 145.6421250
 146.3907370  19.6457690 145.7538650 147.2023530  20.9237060 145.7481910
 147.1118490  30.7425570 152.7455790 147.8480970  30.1941030 153.0164360
 147.4959410  31.6081580 152.6061780 143.9963970  26.8099140 148.6197300
 143.0703750  27.0520280 148.6102710 144.4620400  27.6373400 148.4982050
 150.2220800  29.9155880 144.5681360 151.0149410  30.2044710 144.1163150
 149.7025150  29.4848050 143.8893840 150.7398200  25.1359290 144.4323710
 150.6348840  24.5211640 145.1585090 150.5722420  24.6125180 143.6486720
 149.6476050  23.1570240 146.9331000 150.0692470  22.9910110 147.7762390
 149.7726890  22.3470470 146.4386140 152.1603690  22.1807850 144.1808100
 152.6809350  21.4656870 143.8149250 152.8072090  22.8193720 144.4808610
 148.5434950  19.2303470 143.8789160 148.3424010  18.3670830 144.2402500
 148.3727000  19.1436830 142.9410760 147.3417750  16.3304090 143.8667040
 147.6443650  16.3371520 142.9586190 148.0812340  15.9801950 144.3634700
 150.5602680  15.2738710 144.8523240 150.2124680  14.5962700 144.2725690
 150.7615450  14.8128220 145.6666630 146.3647880  25.6346510 144.6996840
 146.8022750  26.1776180 145.3554420 146.8495610  24.8093460 144.7093180
 143.5793680  28.4235540 152.1517100 143.9096690  27.5556600 151.9195740
 144.0084680  28.6294060 152.9822060 148.1755600  26.7544550 149.8119070
 147.8751140  26.6309520 150.7122980 148.0693090  25.8953140 149.4034800
 143.9008320  21.8026360 151.2487610 143.2457160  21.5338000 150.6047310
 144.7386270  21.6930840 150.7989590 143.1146400  19.0125290 147.1912940
 142.2110480  19.2755490 147.0164600 143.5987020  19.2836460 146.4112900
 145.6573610  18.0690830 145.1007320 146.3665310  17.6474050 144.6154600
 144.9413550  18.1366060 144.4690670 145.3047770  14.1230160 144.1409970
 146.0275900  14.6639100 144.4591190 145.5772290  13.8493580 143.2651510
 149.4281690  29.2277250 153.8066330 149.9446710  28.6164610 153.2814590
 150.0779070  29.7306030 154.2977340 144.1066590  30.3306640 150.2313680
 143.9388630  29.6977320 150.9295570 143.2401100  30.5366040 149.8807870
 144.7294610  14.1623420 147.7345540 145.4873970  14.2752300 147.1609570
 144.2671780  14.9992620 147.6888970 151.2708420  16.2762690 150.7247850
 150.4582930  15.9019580 150.3843730 151.7750060  15.5207770 151.0269040
 145.7129290  29.0239870 147.6763820 145.1876910  29.4047900 146.9725780
 145.6373870  29.6490640 148.3973530 147.1019760  14.6887470 146.2747510
 147.6312520  13.9017270 146.1455460 147.7348080  15.3678660 146.5083040
 149.2957600  14.4262610 149.3292900 148.6660340  13.7249920 149.4963030
 148.7562740  15.1866740 149.1126060 148.3122260  30.9722250 146.5513070
 149.0441080  30.6881530 146.0036960 148.5715930  30.7335530 147.4412450
 147.4737050  27.0886980 146.5559400 146.8445930  27.5572080 147.1045230
 147.5884880  26.2436200 146.9905590 147.0770640  23.2291470 135.4645630
 146.2455520  22.9740180 135.8642140 147.6851620  23.3002240 136.2003550
 147.0571900  27.2631560 135.6603650 147.3599940  26.3729300 135.4813870
 147.8015490  27.8201780 135.4325900 145.4862590  18.1893360 129.2488020
 144.5979290  18.5309330 129.1467900 145.7703780  17.9893680 128.3568850
 143.4495600  20.7899010 135.1327720 144.0211710  20.0221210 135.1331360
 143.4497140  21.0887770 134.2234330 144.6920470  16.1983370 136.9196650
 144.5123310  15.3009120 137.1999410 144.2900550  16.7455240 137.5943600
 147.6623980  16.7724860 130.2826400 147.7690730  17.6728590 130.5895160
 146.7516340  16.7242830 129.9921050 145.3107140  18.6943870 135.5278990
 145.9917250  18.9582240 136.1466390 144.9955190  17.8544740 135.8617000
 149.5031710  19.7411230 134.6151580 150.0109930  20.2392200 135.2556600
 150.0344950  18.9646430 134.4390940 147.7867810  14.3809790 138.8815000
 147.7886250  14.8982180 138.0760900 146.9572120  13.9039970 138.8584930
 149.0370660  24.0204970 137.0588500 148.7040040  24.6473890 137.7009570
 149.2137340  24.5466850 136.2790170 147.4683140  16.0919750 136.8885450
 147.8099950  16.9361800 136.5939320 146.5298950  16.2403490 137.0050790
 148.2489760  25.9885770 138.8737680 148.8663760  26.6636850 138.5922130
 147.3882880  26.3973750 138.7825180 143.5422100  25.1785630 127.7544530
 143.1650080  25.6672730 127.0229430 143.7995170  25.8510910 128.3851060
 151.1511030  13.5802020 133.2130040 151.4586010  13.0248910 132.4965540
 150.2211730  13.7146480 133.0303030 149.1448430  22.1715590 132.7309890
 148.7405430  21.4592840 132.2355790 149.2311550  21.8268830 133.6197930
 149.6130130  25.8583150 134.8949100 149.3158420  25.2528620 134.2156880
 150.5629950  25.8960460 134.7838460 147.8577050  18.9458800 136.5108930
 148.4091640  19.0554140 135.7362180 148.3720560  19.3196400 137.2264160
 148.7048560  25.5964840 141.5456900 147.8077090  25.8204810 141.7930300
 148.7301430  25.7199780 140.5968300 147.5319780  22.4678160 140.1214270
 147.3927550  23.3400960 140.4901670 146.6501140  22.1250970 139.9762210
 149.3300130  28.4099860 142.3299420 149.3015560  28.8142810 141.4627850
 149.1665100  27.4810220 142.1671020 145.8453060  21.0660570 130.2316540
 145.7250660  21.7922660 129.6197810 145.5353950  20.2963480 129.7544450
 143.4838430  24.2375710 136.0385180 143.5618850  24.3724480 135.0940900
 144.0980110  23.5291600 136.2313300 144.7286060  25.9375900 132.4491360
 144.3214140  26.0790490 131.5944960 145.6199070  25.6536060 132.2462570
 149.0007720  30.1521680 130.5614030 148.8250200  29.2357220 130.3481830
 148.1463460  30.5108970 130.8011830 143.5397950  25.2789880 138.5779640
 143.7028990  24.8095240 137.7599010 144.0050400  24.7713440 139.2428480
 148.3116720  14.4095640 133.6140210 147.8684870  15.1905180 133.2824730
 148.8701710  14.7325530 134.3211150 152.5986530  17.2764160 139.2175530
 152.1365900  17.4847180 140.0295470 152.1964640  16.4623510 138.9146200
 151.4275540  14.0306340 128.4946040 150.8029720  14.0266210 129.2199350
 151.3405660  13.1637300 128.0982010 150.3492620  14.9542970 135.4729810
 150.6464950  15.8605800 135.3921830 150.8978180  14.4661750 134.8589380
 148.1030940  19.5329210 131.3421460 147.8771860  19.3166380 132.2468080
 147.3223470  19.9657670 130.9967430 150.5430150  20.4314790 142.0081730
 150.4473750  19.4909520 141.8582130 151.3862130  20.6529860 141.6129800
 145.6740690  16.8428460 140.1615510 145.2804080  17.6903670 140.3688290
 144.9859090  16.2054830 140.3524150 152.2485740  16.9263430 143.2312250
 151.5584060  16.7335630 143.8658340 152.9918040  17.2098070 143.7636550
 142.9757740  14.7656920 134.1945590 142.6870790  15.3359780 134.9070570
 143.7203500  14.2861370 134.5576820 143.1627970  18.7077040 125.4048310
 143.0802640  19.6507800 125.5463300 142.8111030  18.5651950 124.5260660
 150.9626100  17.4416070 134.4718660 150.9662160  17.0006020 133.6223200
 151.8577220  17.7633400 134.5790480 146.8128480  17.3242560 133.4312870
 146.4728530  17.8017790 134.1879920 146.0505800  16.8707680 133.0713970
 151.0246250  18.4428150 127.4625420 151.1459070  18.4014630 128.4111240
 150.6394760  19.3052300 127.3072150 150.0367750  20.7529290 126.8608720
 149.4684650  20.3047540 126.2344630 150.7456750  21.1122070 126.3273870
 145.1136930  24.6541310 140.7375450 144.7291720  24.0134980 141.3358410
 145.4249120  25.3577430 141.3070180 151.2634070  21.5017850 136.2184070
 151.6304200  21.0276420 136.9645410 151.0739130  22.3759420 136.5592410
 144.1274560  16.2461540 132.3477540 143.8421480  15.8817210 133.1856160
 144.0653420  15.5142000 131.7340680 149.0533440  20.5426490 138.5368280
 148.7490510  21.4218470 138.7618640 150.0079900  20.6026280 138.5725720
 147.5815230  24.7487480 129.1335130 146.8077490  24.2085100 128.9733850
 148.3109860  24.2294090 128.7952890 147.6252630  24.4167860 132.7713940
 148.1431300  23.6136120 132.7170830 147.1736650  24.3547000 133.6130770
 152.5122130  25.6834140 128.0441240 152.8537830  26.4276370 127.5484560
 151.6834840  25.9965260 128.4066070 145.1097170  21.3829230 139.6839640
 144.7512110  22.0483080 140.2712980 144.8151730  20.5512780 140.0552260
 148.3110290  21.8413470 142.5679190 148.0110430  21.9870650 141.6707010
 149.0821530  21.2818760 142.4752580 151.4812820  25.7647670 130.8157160
 152.1683950  26.3116880 131.1964750 150.6945240  26.3088400 130.8506770
 143.6205220  21.3820490 126.3074240 144.4900070  21.6645290 126.5910160
 143.1295540  22.1956360 126.1923050 150.7840030  22.7693700 130.4282520
 151.2402810  23.5798950 130.6542710 150.4328240  22.4516840 131.2601010
 146.6851810  13.1131350 130.9005040 146.5566440  13.1049250 131.8489960
 145.8613830  13.4514440 130.5496050 143.9876470  30.5947870 126.8735870
 144.3474110  31.1937210 126.2193140 143.8468810  31.1407760 127.6470900
 143.6845740  14.8722470 140.3611740 142.9704260  15.0719390 140.9664350
 144.1040780  14.0962040 140.7326540 143.9718330  28.8602730 141.3478270
 144.0809450  27.9197470 141.2073660 143.3198890  29.1257480 140.6992000
 151.9630920  27.1318620 142.7476390 151.6427790  26.4127860 143.2922080
 151.2889280  27.8073690 142.8212450 150.0045090  27.9779070 127.6909540
 149.9955190  28.7108760 127.0754050 149.0843450  27.7310650 127.7836500
 145.6051730  23.1993960 128.4356300 144.9979680  23.9392860 128.4451600
 146.0801080  23.2893320 127.6094500 152.9904690  28.0407310 126.3534730
 153.0916670  27.8371300 125.4236710 152.0906430  27.7865590 126.5582510
 150.5130580  18.5987670 130.3358630 149.8046730  19.0674010 130.7772240
 150.7975060  17.9409680 130.9703820 152.1386510  20.0184370 138.3351160
 152.6371760  20.4930190 139.0003010 152.2809460  19.0947890 138.5421190
 151.6322800  30.5593630 131.0482400 151.8864300  30.5215020 130.1261770
 150.6835280  30.4326960 131.0410650 148.7165600  16.9072750 127.7109340
 149.5656130  17.3442900 127.6449530 148.3496870  17.2193010 128.5381400
 147.6157020  23.1605110 126.1844870 148.3820290  23.0486470 126.7470300
 147.6931710  22.4643080 125.5321640 146.3103780  20.5930180 126.8677760
 146.3907370  19.6457690 126.9795160 147.2023530  20.9237060 126.9738420
 147.1118490  30.7425570 133.9712300 147.8480970  30.1941030 134.2420870
 147.4959410  31.6081580 133.8318290 143.9963970  26.8099140 129.8453810
 143.0703750  27.0520280 129.8359220 144.4620400  27.6373400 129.7238560
 146.1176770  29.9271640 143.1597880 146.9189500  30.2483690 143.5733280
 145.6028590  29.5667220 143.8817790 150.2220800  29.9155880 125.7937870
 151.0149410  30.2044710 125.3419660 149.7025150  29.4848050 125.1150350
 143.8374580  22.4145100 142.1033930 144.3413600  21.8352380 142.6750160
 143.0982000  22.6985330 142.6410300 150.7398200  25.1359290 125.6580220
 150.6348840  24.5211640 126.3841600 150.5722420  24.6125180 124.8743230
 150.8912520  23.8216090 141.6369450 150.1258190  24.3901090 141.5524120
 151.0728480  23.5292300 140.7437680 145.8697660  20.5574690 142.9984000
 145.9103000  20.2588560 143.9069230 146.7243160  20.9582300 142.8391520
 149.6476050  23.1570240 128.1587510 150.0692470  22.9910110 129.0018900
 149.7726890  22.3470470 127.6642650 147.8103470  19.1366790 140.9658490
 147.2799930  18.6457740 140.3381830 148.4791540  19.5650990 140.4316420
 152.1603690  22.1807850 125.4064610 152.6809350  21.4656870 125.0405760
 152.8072090  22.8193720 125.7065120 148.2975770  16.1029160 141.0455780
 148.2032640  15.4849910 140.3206650 147.7173160  16.8295450 140.8185690
 151.0637210  14.6602400 138.0783170 150.6154510  14.6826660 137.2328720
 150.4302410  14.2621420 138.6753470 151.4696760  23.5556730 138.6995610
 151.8884870  24.3989460 138.5271850 150.5505390  23.6928770 138.4702390
 148.5434950  19.2303470 125.1045670 148.3424010  18.3670830 125.4659010
 148.3727000  19.1436830 124.1667270 149.3204180  29.8609740 139.8153340
 148.7825270  30.5855800 139.4962040 149.5738140  29.3840080 139.0250680
 150.5729430  17.8294260 141.3409270 151.1629120  17.5210110 142.0287090
 149.7549670  17.3574010 141.4969170 147.3417750  16.3304090 125.0923550
 147.6443650  16.3371520 124.1842700 148.0812340  15.9801950 125.5891210
 152.1766390  31.0960950 140.0739990 152.1025090  31.9996090 140.3812360
 151.2745230  30.7772850 140.0462060 150.5602680  15.2738710 126.0779750
 150.2124680  14.5962700 125.4982200 150.7615450  14.8128220 126.8923140
 146.3647880  25.6346510 125.9253350 146.8022750  26.1776180 126.5810930
 146.8495610  24.8093460 125.9349690 143.5793680  28.4235540 133.3773610
 143.9096690  27.5556600 133.1452250 144.0084680  28.6294060 134.2078570
 148.1755600  26.7544550 131.0375580 147.8751140  26.6309520 131.9379490
 148.0693090  25.8953140 130.6291310 144.0683890  29.2906130 136.1155240
 143.6314880  29.4706930 136.9479390 144.6361570  30.0480750 135.9736960
 143.9008320  21.8026360 132.4744120 143.2457160  21.5338000 131.8303820
 144.7386270  21.6930840 132.0246100 144.9384250  22.1878930 137.0147460
 145.3057290  22.1006330 137.8943480 144.3695070  21.4245480 136.9154320
 144.4900250  19.0988020 140.9205880 143.5956300  19.0654780 141.2599590
 145.0297800  19.2974810 141.6857130 143.1146400  19.0125290 128.4169450
 142.2110480  19.2755490 128.2421110 143.5987020  19.2836460 127.6369410
 145.6573610  18.0690830 126.3263830 146.3665310  17.6474050 125.8411110
 144.9413550  18.1366060 125.6947180 145.3047770  14.1230160 125.3666480
 146.0275900  14.6639100 125.6847700 145.5772290  13.8493580 124.4908020
 144.9939960  13.3736350 135.2689100 145.6416150  12.8233730 134.8284260
 145.4141800  13.6279500 136.0904910 144.7471960  13.5292020 138.0114420
 144.3986780  13.9855840 138.7772600 144.4159660  12.6349150 138.0936850
 146.3536330  26.7011620 142.1767610 146.3105960  26.3304530 143.0582070
 146.4847340  27.6389190 142.3169430 150.0542360  28.2571210 137.7777330
 149.8133720  28.5245770 136.8907850 150.9945000  28.4276940 137.8328190
 145.4192600  13.0568220 141.2865190 145.9675590  12.8756270 140.5231300
 145.4847910  12.2662330 141.8221500 146.1924360  29.6473870 139.2965390
 145.5984680  29.5158570 140.0355430 146.1848200  28.8112010 138.8307490
 145.8236590  27.0132250 138.2473430 145.0970650  26.3937540 138.1799380
 145.8845740  27.4072860 137.3771510 149.4281690  29.2277250 135.0322840
 149.9446710  28.6164610 134.5071100 150.0779070  29.7306030 135.5233850
 152.1677190  30.1185740 135.8591820 152.4555000  29.8640040 134.9824830
 152.6800410  29.5663100 136.4497390 144.1066590  30.3306640 131.4570190
 143.9388630  29.6977320 132.1552080 143.2401100  30.5366040 131.1064380
 144.7294610  14.1623420 128.9602050 145.4873970  14.2752300 128.3866080
 144.2671780  14.9992620 128.9145480 151.2708420  16.2762690 131.9504360
 150.4582930  15.9019580 131.6100240 151.7750060  15.5207770 132.2525550
 145.7129290  29.0239870 128.9020330 145.1876910  29.4047900 128.1982290
 145.6373870  29.6490640 129.6230040 147.1019760  14.6887470 127.5004020
 147.6312520  13.9017270 127.3711970 147.7348080  15.3678660 127.7339550
 149.2957600  14.4262610 130.5549410 148.6660340  13.7249920 130.7219540
 148.7562740  15.1866740 130.3382570 152.2349550  31.0401840 143.2260020
 153.1616860  30.8046110 143.2695980 152.2199980  31.8673840 142.7446050
 149.4213160  13.7046590 142.9901900 149.1397430  14.2080190 142.2262720
 149.8032860  12.9068340 142.6244030 148.3122260  30.9722250 127.7769580
 149.0441080  30.6881530 127.2293470 148.5715930  30.7335530 128.6668960
 147.4737050  27.0886980 127.7815910 146.8445930  27.5572080 128.3301740
 147.5884880  26.2436200 128.2162100 147.0770640  23.2291470 116.6902140
 146.2455520  22.9740180 117.0898650 147.6851620  23.3002240 117.4260060
 147.0571900  27.2631560 116.8860160 147.3599940  26.3729300 116.7070380
 147.8015490  27.8201780 116.6582410 145.4862590  18.1893360 110.4744530
 144.5979290  18.5309330 110.3724410 145.7703780  17.9893680 109.5825360
 143.4495600  20.7899010 116.3584230 144.0211710  20.0221210 116.3587870
 143.4497140  21.0887770 115.4490840 144.6920470  16.1983370 118.1453160
 144.5123310  15.3009120 118.4255920 144.2900550  16.7455240 118.8200110
 147.6623980  16.7724860 111.5082910 147.7690730  17.6728590 111.8151670
 146.7516340  16.7242830 111.2177560 145.3107140  18.6943870 116.7535500
 145.9917250  18.9582240 117.3722900 144.9955190  17.8544740 117.0873510
 149.5031710  19.7411230 115.8408090 150.0109930  20.2392200 116.4813110
 150.0344950  18.9646430 115.6647450 147.7867810  14.3809790 120.1071510
 147.7886250  14.8982180 119.3017410 146.9572120  13.9039970 120.0841440
 149.0370660  24.0204970 118.2845010 148.7040040  24.6473890 118.9266080
 149.2137340  24.5466850 117.5046680 147.4683140  16.0919750 118.1141960
 147.8099950  16.9361800 117.8195830 146.5298950  16.2403490 118.2307300
 148.2489760  25.9885770 120.0994190 148.8663760  26.6636850 119.8178640
 147.3882880  26.3973750 120.0081690 143.5422100  25.1785630 108.9801040
 143.1650080  25.6672730 108.2485940 143.7995170  25.8510910 109.6107570
 151.1511030  13.5802020 114.4386550 151.4586010  13.0248910 113.7222050
 150.2211730  13.7146480 114.2559540 149.1448430  22.1715590 113.9566400
 148.7405430  21.4592840 113.4612300 149.2311550  21.8268830 114.8454440
 149.6130130  25.8583150 116.1205610 149.3158420  25.2528620 115.4413390
 150.5629950  25.8960460 116.0094970 147.8577050  18.9458800 117.7365440
 148.4091640  19.0554140 116.9618690 148.3720560  19.3196400 118.4520670
 148.7048560  25.5964840 122.7713410 147.8077090  25.8204810 123.0186810
 148.7301430  25.7199780 121.8224810 147.5319780  22.4678160 121.3470780
 147.3927550  23.3400960 121.7158180 146.6501140  22.1250970 121.2018720
 149.3300130  28.4099860 123.5555930 149.3015560  28.8142810 122.6884360
 149.1665100  27.4810220 123.3927530 145.8453060  21.0660570 111.4573050
 145.7250660  21.7922660 110.8454320 145.5353950  20.2963480 110.9800960
 143.4838430  24.2375710 117.2641690 143.5618850  24.3724480 116.3197410
 144.0980110  23.5291600 117.4569810 144.7286060  25.9375900 113.6747870
 144.3214140  26.0790490 112.8201470 145.6199070  25.6536060 113.4719080
 149.0007720  30.1521680 111.7870540 148.8250200  29.2357220 111.5738340
 148.1463460  30.5108970 112.0268340 143.5397950  25.2789880 119.8036150
 143.7028990  24.8095240 118.9855520 144.0050400  24.7713440 120.4684990
 148.3116720  14.4095640 114.8396720 147.8684870  15.1905180 114.5081240
 148.8701710  14.7325530 115.5467660 152.5986530  17.2764160 120.4432040
 152.1365900  17.4847180 121.2551980 152.1964640  16.4623510 120.1402710
 151.4275540  14.0306340 109.7202550 150.8029720  14.0266210 110.4455860
 151.3405660  13.1637300 109.3238520 150.3492620  14.9542970 116.6986320
 150.6464950  15.8605800 116.6178340 150.8978180  14.4661750 116.0845890
 148.1030940  19.5329210 112.5677970 147.8771860  19.3166380 113.4724590
 147.3223470  19.9657670 112.2223940 150.5430150  20.4314790 123.2338240
 150.4473750  19.4909520 123.0838640 151.3862130  20.6529860 122.8386310
 145.6740690  16.8428460 121.3872020 145.2804080  17.6903670 121.5944800
 144.9859090  16.2054830 121.5780660 152.2485740  16.9263430 124.4568760
 151.5584060  16.7335630 125.0914850 152.9918040  17.2098070 124.9893060
 142.9757740  14.7656920 115.4202100 142.6870790  15.3359780 116.1327080
 143.7203500  14.2861370 115.7833330 143.1627970  18.7077040 106.6304820
 143.0802640  19.6507800 106.7719810 142.8111030  18.5651950 105.7517170
 150.9626100  17.4416070 115.6975170 150.9662160  17.0006020 114.8479710
 151.8577220  17.7633400 115.8046990 146.8128480  17.3242560 114.6569380
 146.4728530  17.8017790 115.4136430 146.0505800  16.8707680 114.2970480
 151.0246250  18.4428150 108.6881930 151.1459070  18.4014630 109.6367750
 150.6394760  19.3052300 108.5328660 150.0367750  20.7529290 108.0865230
 149.4684650  20.3047540 107.4601140 150.7456750  21.1122070 107.5530380
 145.1136930  24.6541310 121.9631960 144.7291720  24.0134980 122.5614920
 145.4249120  25.3577430 122.5326690 151.2634070  21.5017850 117.4440580
 151.6304200  21.0276420 118.1901920 151.0739130  22.3759420 117.7848920
 144.1274560  16.2461540 113.5734050 143.8421480  15.8817210 114.4112670
 144.0653420  15.5142000 112.9597190 149.0533440  20.5426490 119.7624790
 148.7490510  21.4218470 119.9875150 150.0079900  20.6026280 119.7982230
 147.5815230  24.7487480 110.3591640 146.8077490  24.2085100 110.1990360
 148.3109860  24.2294090 110.0209400 147.6252630  24.4167860 113.9970450
 148.1431300  23.6136120 113.9427340 147.1736650  24.3547000 114.8387280
 152.5122130  25.6834140 109.2697750 152.8537830  26.4276370 108.7741070
 151.6834840  25.9965260 109.6322580 145.1097170  21.3829230 120.9096150
 144.7512110  22.0483080 121.4969490 144.8151730  20.5512780 121.2808770
 148.3110290  21.8413470 123.7935700 148.0110430  21.9870650 122.8963520
 149.0821530  21.2818760 123.7009090 151.4812820  25.7647670 112.0413670
 152.1683950  26.3116880 112.4221260 150.6945240  26.3088400 112.0763280
 143.6205220  21.3820490 107.5330750 144.4900070  21.6645290 107.8166670
 143.1295540  22.1956360 107.4179560 150.7840030  22.7693700 111.6539030
 151.2402810  23.5798950 111.8799220 150.4328240  22.4516840 112.4857520
 146.6851810  13.1131350 112.1261550 146.5566440  13.1049250 113.0746470
 145.8613830  13.4514440 111.7752560 143.9876470  30.5947870 108.0992380
 144.3474110  31.1937210 107.4449650 143.8468810  31.1407760 108.8727410
 143.6845740  14.8722470 121.5868250 142.9704260  15.0719390 122.1920860
 144.1040780  14.0962040 121.9583050 143.9718330  28.8602730 122.5734780
 144.0809450  27.9197470 122.4330170 143.3198890  29.1257480 121.9248510
 151.9630920  27.1318620 123.9732900 151.6427790  26.4127860 124.5178590
 151.2889280  27.8073690 124.0468960 150.0045090  27.9779070 108.9166050
 149.9955190  28.7108760 108.3010560 149.0843450  27.7310650 109.0093010
 145.6051730  23.1993960 109.6612810 144.9979680  23.9392860 109.6708110
 146.0801080  23.2893320 108.8351010 152.9904690  28.0407310 107.5791240
 153.0916670  27.8371300 106.6493220 152.0906430  27.7865590 107.7839020
 150.5130580  18.5987670 111.5615140 149.8046730  19.0674010 112.0028750
 150.7975060  17.9409680 112.1960330 152.1386510  20.0184370 119.5607670
 152.6371760  20.4930190 120.2259520 152.2809460  19.0947890 119.7677700
 151.6322800  30.5593630 112.2738910 151.8864300  30.5215020 111.3518280
 150.6835280  30.4326960 112.2667160 148.7165600  16.9072750 108.9365850
 149.5656130  17.3442900 108.8706040 148.3496870  17.2193010 109.7637910
 147.6157020  23.1605110 107.4101380 148.3820290  23.0486470 107.9726810
 147.6931710  22.4643080 106.7578150 146.3103780  20.5930180 108.0934270
 146.3907370  19.6457690 108.2051670 147.2023530  20.9237060 108.1994930
 147.1118490  30.7425570 115.1968810 147.8480970  30.1941030 115.4677380
 147.4959410  31.6081580 115.0574800 143.9963970  26.8099140 111.0710320
 143.0703750  27.0520280 111.0615730 144.4620400  27.6373400 110.9495070
 146.1176770  29.9271640 124.3854390 146.9189500  30.2483690 124.7989790
 145.6028590  29.5667220 125.1074300 150.2220800  29.9155880 107.0194380
 151.0149410  30.2044710 106.5676170 149.7025150  29.4848050 106.3406860
 143.8374580  22.4145100 123.3290440 144.3413600  21.8352380 123.9006670
 143.0982000  22.6985330 123.8666810 150.7398200  25.1359290 106.8836730
 150.6348840  24.5211640 107.6098110 150.5722420  24.6125180 106.0999740
 150.8912520  23.8216090 122.8625960 150.1258190  24.3901090 122.7780630
 151.0728480  23.5292300 121.9694190 145.8697660  20.5574690 124.2240510
 145.9103000  20.2588560 125.1325740 146.7243160  20.9582300 124.0648030
 149.6476050  23.1570240 109.3844020 150.0692470  22.9910110 110.2275410
 149.7726890  22.3470470 108.8899160 147.8103470  19.1366790 122.1915000
 147.2799930  18.6457740 121.5638340 148.4791540  19.5650990 121.6572930
 152.1603690  22.1807850 106.6321120 152.6809350  21.4656870 106.2662270
 152.8072090  22.8193720 106.9321630 148.2975770  16.1029160 122.2712290
 148.2032640  15.4849910 121.5463160 147.7173160  16.8295450 122.0442200
 151.0637210  14.6602400 119.3039680 150.6154510  14.6826660 118.4585230
 150.4302410  14.2621420 119.9009980 151.4696760  23.5556730 119.9252120
 151.8884870  24.3989460 119.7528360 150.5505390  23.6928770 119.6958900
 148.5434950  19.2303470 106.3302180 148.3424010  18.3670830 106.6915520
 148.3727000  19.1436830 105.3923780 149.3204180  29.8609740 121.0409850
 148.7825270  30.5855800 120.7218550 149.5738140  29.3840080 120.2507190
 150.5729430  17.8294260 122.5665780 151.1629120  17.5210110 123.2543600
 149.7549670  17.3574010 122.7225680 147.3417750  16.3304090 106.3180060
 147.6443650  16.3371520 105.4099210 148.0812340  15.9801950 106.8147720
 152.1766390  31.0960950 121.2996500 152.1025090  31.9996090 121.6068870
 151.2745230  30.7772850 121.2718570 150.5602680  15.2738710 107.3036260
 150.2124680  14.5962700 106.7238710 150.7615450  14.8128220 108.1179650
 146.3647880  25.6346510 107.1509860 146.8022750  26.1776180 107.8067440
 146.8495610  24.8093460 107.1606200 143.5793680  28.4235540 114.6030120
 143.9096690  27.5556600 114.3708760 144.0084680  28.6294060 115.4335080
 148.1755600  26.7544550 112.2632090 147.8751140  26.6309520 113.1636000
 148.0693090  25.8953140 111.8547820 144.0683890  29.2906130 117.3411750
 143.6314880  29.4706930 118.1735900 144.6361570  30.0480750 117.1993470
 143.9008320  21.8026360 113.7000630 143.2457160  21.5338000 113.0560330
 144.7386270  21.6930840 113.2502610 144.9384250  22.1878930 118.2403970
 145.3057290  22.1006330 119.1199990 144.3695070  21.4245480 118.1410830
 144.4900250  19.0988020 122.1462390 143.5956300  19.0654780 122.4856100
 145.0297800  19.2974810 122.9113640 143.1146400  19.0125290 109.6425960
 142.2110480  19.2755490 109.4677620 143.5987020  19.2836460 108.8625920
 145.6573610  18.0690830 107.5520340 146.3665310  17.6474050 107.0667620
 144.9413550  18.1366060 106.9203690 145.3047770  14.1230160 106.5922990
 146.0275900  14.6639100 106.9104210 145.5772290  13.8493580 105.7164530
 144.9939960  13.3736350 116.4945610 145.6416150  12.8233730 116.0540770
 145.4141800  13.6279500 117.3161420 144.7471960  13.5292020 119.2370930
 144.3986780  13.9855840 120.0029110 144.4159660  12.6349150 119.3193360
 146.3536330  26.7011620 123.4024120 146.3105960  26.3304530 124.2838580
 146.4847340  27.6389190 123.5425940 150.0542360  28.2571210 119.0033840
 149.8133720  28.5245770 118.1164360 150.9945000  28.4276940 119.0584700
 145.4192600  13.0568220 122.5121700 145.9675590  12.8756270 121.7487810
 145.4847910  12.2662330 123.0478010 146.1924360  29.6473870 120.5221900
 145.5984680  29.5158570 121.2611940 146.1848200  28.8112010 120.0564000
 145.8236590  27.0132250 119.4729940 145.0970650  26.3937540 119.4055890
 145.8845740  27.4072860 118.6028020 149.4281690  29.2277250 116.2579350
 149.9446710  28.6164610 115.7327610 150.0779070  29.7306030 116.7490360
 152.1677190  30.1185740 117.0848330 152.4555000  29.8640040 116.2081340
 152.6800410  29.5663100 117.6753900 144.1066590  30.3306640 112.6826700
 143.9388630  29.6977320 113.3808590 143.2401100  30.5366040 112.3320890
 144.7294610  14.1623420 110.1858560 145.4873970  14.2752300 109.6122590
 144.2671780  14.9992620 110.1401990 151.2708420  16.2762690 113.1760870
 150.4582930  15.9019580 112.8356750 151.7750060  15.5207770 113.4782060
 145.7129290  29.0239870 110.1276840 145.1876910  29.4047900 109.4238800
 145.6373870  29.6490640 110.8486550 147.1019760  14.6887470 108.7260530
 147.6312520  13.9017270 108.5968480 147.7348080  15.3678660 108.9596060
 149.2957600  14.4262610 111.7805920 148.6660340  13.7249920 111.9476050
 148.7562740  15.1866740 111.5639080 152.2349550  31.0401840 124.4516530
 153.1616860  30.8046110 124.4952490 152.2199980  31.8673840 123.9702560
 149.4213160  13.7046590 124.2158410 149.1397430  14.2080190 123.4519230
 149.8032860  12.9068340 123.8500540 148.3122260  30.9722250 109.0026090
 149.0441080  30.6881530 108.4549980 148.5715930  30.7335530 109.8925470
 147.4737050  27.0886980 109.0072420 146.8445930  27.5572080 109.5558250
 147.5884880  26.2436200 109.4418610 147.0770640  23.2291470  97.9158650
 146.2455520  22.9740180  98.3155160 147.6851620  23.3002240  98.6516570
 147.0571900  27.2631560  98.1116670 147.3599940  26.3729300  97.9326890
 147.8015490  27.8201780  97.8838920 145.4862590  18.1893360  91.7001040
 144.5979290  18.5309330  91.5980920 145.7703780  17.9893680  90.8081870
 143.4495600  20.7899010  97.5840740 144.0211710  20.0221210  97.5844380
 143.4497140  21.0887770  96.6747350 144.6920470  16.1983370  99.3709670
 144.5123310  15.3009120  99.6512430 144.2900550  16.7455240 100.0456620
 147.6623980  16.7724860  92.7339420 147.7690730  17.6728590  93.0408180
 146.7516340  16.7242830  92.4434070 145.3107140  18.6943870  97.9792010
 145.9917250  18.9582240  98.5979410 144.9955190  17.8544740  98.3130020
 149.5031710  19.7411230  97.0664600 150.0109930  20.2392200  97.7069620
 150.0344950  18.9646430  96.8903960 147.7867810  14.3809790 101.3328020
 147.7886250  14.8982180 100.5273920 146.9572120  13.9039970 101.3097950
 149.0370660  24.0204970  99.5101520 148.7040040  24.6473890 100.1522590
 149.2137340  24.5466850  98.7303190 147.4683140  16.0919750  99.3398470
 147.8099950  16.9361800  99.0452340 146.5298950  16.2403490  99.4563810
 148.2489760  25.9885770 101.3250700 148.8663760  26.6636850 101.0435150
 147.3882880  26.3973750 101.2338200 143.5422100  25.1785630  90.2057550
 143.1650080  25.6672730  89.4742450 143.7995170  25.8510910  90.8364080
 151.1511030  13.5802020  95.6643060 151.4586010  13.0248910  94.9478560
 150.2211730  13.7146480  95.4816050 149.1448430  22.1715590  95.1822910
 148.7405430  21.4592840  94.6868810 149.2311550  21.8268830  96.0710950
 149.6130130  25.8583150  97.3462120 149.3158420  25.2528620  96.6669900
 150.5629950  25.8960460  97.2351480 147.8577050  18.9458800  98.9621950
 148.4091640  19.0554140  98.1875200 148.3720560  19.3196400  99.6777180
 148.7048560  25.5964840 103.9969920 147.8077090  25.8204810 104.2443320
 148.7301430  25.7199780 103.0481320 147.5319780  22.4678160 102.5727290
 147.3927550  23.3400960 102.9414690 146.6501140  22.1250970 102.4275230
 149.3300130  28.4099860 104.7812440 149.3015560  28.8142810 103.9140870
 149.1665100  27.4810220 104.6184040 145.8453060  21.0660570  92.6829560
 145.7250660  21.7922660  92.0710830 145.5353950  20.2963480  92.2057470
 143.4838430  24.2375710  98.4898200 143.5618850  24.3724480  97.5453920
 144.0980110  23.5291600  98.6826320 144.7286060  25.9375900  94.9004380
 144.3214140  26.0790490  94.0457980 145.6199070  25.6536060  94.6975590
 149.0007720  30.1521680  93.0127050 148.8250200  29.2357220  92.7994850
 148.1463460  30.5108970  93.2524850 143.5397950  25.2789880 101.0292660
 143.7028990  24.8095240 100.2112030 144.0050400  24.7713440 101.6941500
 148.3116720  14.4095640  96.0653230 147.8684870  15.1905180  95.7337750
 148.8701710  14.7325530  96.7724170 152.5986530  17.2764160 101.6688550
 152.1365900  17.4847180 102.4808490 152.1964640  16.4623510 101.3659220
 151.4275540  14.0306340  90.9459060 150.8029720  14.0266210  91.6712370
 151.3405660  13.1637300  90.5495030 150.3492620  14.9542970  97.9242830
 150.6464950  15.8605800  97.8434850 150.8978180  14.4661750  97.3102400
 148.1030940  19.5329210  93.7934480 147.8771860  19.3166380  94.6981100
 147.3223470  19.9657670  93.4480450 150.5430150  20.4314790 104.4594750
 150.4473750  19.4909520 104.3095150 151.3862130  20.6529860 104.0642820
 145.6740690  16.8428460 102.6128530 145.2804080  17.6903670 102.8201310
 144.9859090  16.2054830 102.8037170 152.2485740  16.9263430 105.6825270
 151.5584060  16.7335630 106.3171360 152.9918040  17.2098070 106.2149570
 142.9757740  14.7656920  96.6458610 142.6870790  15.3359780  97.3583590
 143.7203500  14.2861370  97.0089840 143.1627970  18.7077040  87.8561330
 143.0802640  19.6507800  87.9976320 142.8111030  18.5651950  86.9773680
 150.9626100  17.4416070  96.9231680 150.9662160  17.0006020  96.0736220
 151.8577220  17.7633400  97.0303500 146.8128480  17.3242560  95.8825890
 146.4728530  17.8017790  96.6392940 146.0505800  16.8707680  95.5226990
 151.0246250  18.4428150  89.9138440 151.1459070  18.4014630  90.8624260
 150.6394760  19.3052300  89.7585170 150.0367750  20.7529290  89.3121740
 149.4684650  20.3047540  88.6857650 150.7456750  21.1122070  88.7786890
 145.1136930  24.6541310 103.1888470 144.7291720  24.0134980 103.7871430
 145.4249120  25.3577430 103.7583200 151.2634070  21.5017850  98.6697090
 151.6304200  21.0276420  99.4158430 151.0739130  22.3759420  99.0105430
 144.1274560  16.2461540  94.7990560 143.8421480  15.8817210  95.6369180
 144.0653420  15.5142000  94.1853700 149.0533440  20.5426490 100.9881300
 148.7490510  21.4218470 101.2131660 150.0079900  20.6026280 101.0238740
 147.5815230  24.7487480  91.5848150 146.8077490  24.2085100  91.4246870
 148.3109860  24.2294090  91.2465910 147.6252630  24.4167860  95.2226960
 148.1431300  23.6136120  95.1683850 147.1736650  24.3547000  96.0643790
 152.5122130  25.6834140  90.4954260 152.8537830  26.4276370  89.9997580
 151.6834840  25.9965260  90.8579090 145.1097170  21.3829230 102.1352660
 144.7512110  22.0483080 102.7226000 144.8151730  20.5512780 102.5065280
 148.3110290  21.8413470 105.0192210 148.0110430  21.9870650 104.1220030
 149.0821530  21.2818760 104.9265600 151.4812820  25.7647670  93.2670180
 152.1683950  26.3116880  93.6477770 150.6945240  26.3088400  93.3019790
 143.6205220  21.3820490  88.7587260 144.4900070  21.6645290  89.0423180
 143.1295540  22.1956360  88.6436070 150.7840030  22.7693700  92.8795540
 151.2402810  23.5798950  93.1055730 150.4328240  22.4516840  93.7114030
 146.6851810  13.1131350  93.3518060 146.5566440  13.1049250  94.3002980
 145.8613830  13.4514440  93.0009070 143.9876470  30.5947870  89.3248890
 144.3474110  31.1937210  88.6706160 143.8468810  31.1407760  90.0983920
 143.6845740  14.8722470 102.8124760 142.9704260  15.0719390 103.4177370
 144.1040780  14.0962040 103.1839560 143.9718330  28.8602730 103.7991290
 144.0809450  27.9197470 103.6586680 143.3198890  29.1257480 103.1505020
 151.9630920  27.1318620 105.1989410 151.6427790  26.4127860 105.7435100
 151.2889280  27.8073690 105.2725470 150.0045090  27.9779070  90.1422560
 149.9955190  28.7108760  89.5267070 149.0843450  27.7310650  90.2349520
 145.6051730  23.1993960  90.8869320 144.9979680  23.9392860  90.8964620
 146.0801080  23.2893320  90.0607520 152.9904690  28.0407310  88.8047750
 153.0916670  27.8371300  87.8749730 152.0906430  27.7865590  89.0095530
 150.5130580  18.5987670  92.7871650 149.8046730  19.0674010  93.2285260
 150.7975060  17.9409680  93.4216840 152.1386510  20.0184370 100.7864180
 152.6371760  20.4930190 101.4516030 152.2809460  19.0947890 100.9934210
 151.6322800  30.5593630  93.4995420 151.8864300  30.5215020  92.5774790
 150.6835280  30.4326960  93.4923670 148.7165600  16.9072750  90.1622360
 149.5656130  17.3442900  90.0962550 148.3496870  17.2193010  90.9894420
 147.6157020  23.1605110  88.6357890 148.3820290  23.0486470  89.1983320
 147.6931710  22.4643080  87.9834660 146.3103780  20.5930180  89.3190780
 146.3907370  19.6457690  89.4308180 147.2023530  20.9237060  89.4251440
 147.1118490  30.7425570  96.4225320 147.8480970  30.1941030  96.6933890
 147.4959410  31.6081580  96.2831310 143.9963970  26.8099140  92.2966830
 143.0703750  27.0520280  92.2872240 144.4620400  27.6373400  92.1751580
 146.1176770  29.9271640 105.6110900 146.9189500  30.2483690 106.0246300
 145.6028590  29.5667220 106.3330810 150.2220800  29.9155880  88.2450890
 151.0149410  30.2044710  87.7932680 149.7025150  29.4848050  87.5663370
 143.8374580  22.4145100 104.5546950 144.3413600  21.8352380 105.1263180
 143.0982000  22.6985330 105.0923320 150.7398200  25.1359290  88.1093240
 150.6348840  24.5211640  88.8354620 150.5722420  24.6125180  87.3256250
 150.8912520  23.8216090 104.0882470 150.1258190  24.3901090 104.0037140
 151.0728480  23.5292300 103.1950700 145.8697660  20.5574690 105.4497020
 145.9103000  20.2588560 106.3582250 146.7243160  20.9582300 105.2904540
 149.6476050  23.1570240  90.6100530 150.0692470  22.9910110  91.4531920
 149.7726890  22.3470470  90.1155670 147.8103470  19.1366790 103.4171510
 147.2799930  18.6457740 102.7894850 148.4791540  19.5650990 102.8829440
 152.1603690  22.1807850  87.8577630 152.6809350  21.4656870  87.4918780
 152.8072090  22.8193720  88.1578140 148.2975770  16.1029160 103.4968800
 148.2032640  15.4849910 102.7719670 147.7173160  16.8295450 103.2698710
 151.0637210  14.6602400 100.5296190 150.6154510  14.6826660  99.6841740
 150.4302410  14.2621420 101.1266490 151.4696760  23.5556730 101.1508630
 151.8884870  24.3989460 100.9784870 150.5505390  23.6928770 100.9215410
 148.5434950  19.2303470  87.5558690 148.3424010  18.3670830  87.9172030
 148.3727000  19.1436830  86.6180290 149.3204180  29.8609740 102.2666360
 148.7825270  30.5855800 101.9475060 149.5738140  29.3840080 101.4763700
 150.5729430  17.8294260 103.7922290 151.1629120  17.5210110 104.4800110
 149.7549670  17.3574010 103.9482190 147.3417750  16.3304090  87.5436570
 147.6443650  16.3371520  86.6355720 148.0812340  15.9801950  88.0404230
 152.1766390  31.0960950 102.5253010 152.1025090  31.9996090 102.8325380
 151.2745230  30.7772850 102.4975080 150.5602680  15.2738710  88.5292770
 150.2124680  14.5962700  87.9495220 150.7615450  14.8128220  89.3436160
 146.3647880  25.6346510  88.3766370 146.8022750  26.1776180  89.0323950
 146.8495610  24.8093460  88.3862710 143.5793680  28.4235540  95.8286630
 143.9096690  27.5556600  95.5965270 144.0084680  28.6294060  96.6591590
 148.1755600  26.7544550  93.4888600 147.8751140  26.6309520  94.3892510
 148.0693090  25.8953140  93.0804330 144.0683890  29.2906130  98.5668260
 143.6314880  29.4706930  99.3992410 144.6361570  30.0480750  98.4249980
 143.9008320  21.8026360  94.9257140 143.2457160  21.5338000  94.2816840
 144.7386270  21.6930840  94.4759120 144.9384250  22.1878930  99.4660480
 145.3057290  22.1006330 100.3456500 144.3695070  21.4245480  99.3667340
 144.4900250  19.0988020 103.3718900 143.5956300  19.0654780 103.7112610
 145.0297800  19.2974810 104.1370150 143.1146400  19.0125290  90.8682470
 142.2110480  19.2755490  90.6934130 143.5987020  19.2836460  90.0882430
 145.6573610  18.0690830  88.7776850 146.3665310  17.6474050  88.2924130
 144.9413550  18.1366060  88.1460200 145.3047770  14.1230160  87.8179500
 146.0275900  14.6639100  88.1360720 145.5772290  13.8493580  86.9421040
 144.9939960  13.3736350  97.7202120 145.6416150  12.8233730  97.2797280
 145.4141800  13.6279500  98.5417930 144.7471960  13.5292020 100.4627440
 144.3986780  13.9855840 101.2285620 144.4159660  12.6349150 100.5449870
 146.3536330  26.7011620 104.6280630 146.3105960  26.3304530 105.5095090
 146.4847340  27.6389190 104.7682450 150.0542360  28.2571210 100.2290350
 149.8133720  28.5245770  99.3420870 150.9945000  28.4276940 100.2841210
 145.4192600  13.0568220 103.7378210 145.9675590  12.8756270 102.9744320
 145.4847910  12.2662330 104.2734520 146.1924360  29.6473870 101.7478410
 145.5984680  29.5158570 102.4868450 146.1848200  28.8112010 101.2820510
 145.8236590  27.0132250 100.6986450 145.0970650  26.3937540 100.6312400
 145.8845740  27.4072860  99.8284530 149.4281690  29.2277250  97.4835860
 149.9446710  28.6164610  96.9584120 150.0779070  29.7306030  97.9746870
 152.1677190  30.1185740  98.3104840 152.4555000  29.8640040  97.4337850
 152.6800410  29.5663100  98.9010410 144.1066590  30.3306640  93.9083210
 143.9388630  29.6977320  94.6065100 143.2401100  30.5366040  93.5577400
 144.7294610  14.1623420  91.4115070 145.4873970  14.2752300  90.8379100
 144.2671780  14.9992620  91.3658500 151.2708420  16.2762690  94.4017380
 150.4582930  15.9019580  94.0613260 151.7750060  15.5207770  94.7038570
 145.7129290  29.0239870  91.3533350 145.1876910  29.4047900  90.6495310
 145.6373870  29.6490640  92.0743060 147.1019760  14.6887470  89.9517040
 147.6312520  13.9017270  89.8224990 147.7348080  15.3678660  90.1852570
 149.2957600  14.4262610  93.0062430 148.6660340  13.7249920  93.1732560
 148.7562740  15.1866740  92.7895590 152.2349550  31.0401840 105.6773040
 153.1616860  30.8046110 105.7209000 152.2199980  31.8673840 105.1959070
 149.4213160  13.7046590 105.4414920 149.1397430  14.2080190 104.6775740
 149.8032860  12.9068340 105.0757050 148.3122260  30.9722250  90.2282600
 149.0441080  30.6881530  89.6806490 148.5715930  30.7335530  91.1181980
 147.4737050  27.0886980  90.2328930 146.8445930  27.5572080  90.7814760
 147.5884880  26.2436200  90.6675120 147.0770640  23.2291470  79.1415160
 146.2455520  22.9740180  79.5411670 147.6851620  23.3002240  79.8773080
 147.0571900  27.2631560  79.3373180 147.3599940  26.3729300  79.1583400
 147.8015490  27.8201780  79.1095430 145.4862590  18.1893360  72.9257550
 144.5979290  18.5309330  72.8237430 145.7703780  17.9893680  72.0338380
 143.4495600  20.7899010  78.8097250 144.0211710  20.0221210  78.8100890
 143.4497140  21.0887770  77.9003860 144.6920470  16.1983370  80.5966180
 144.5123310  15.3009120  80.8768940 144.2900550  16.7455240  81.2713130
 147.6623980  16.7724860  73.9595930 147.7690730  17.6728590  74.2664690
 146.7516340  16.7242830  73.6690580 145.3107140  18.6943870  79.2048520
 145.9917250  18.9582240  79.8235920 144.9955190  17.8544740  79.5386530
 149.5031710  19.7411230  78.2921110 150.0109930  20.2392200  78.9326130
 150.0344950  18.9646430  78.1160470 147.7867810  14.3809790  82.5584530
 147.7886250  14.8982180  81.7530430 146.9572120  13.9039970  82.5354460
 149.0370660  24.0204970  80.7358030 148.7040040  24.6473890  81.3779100
 149.2137340  24.5466850  79.9559700 147.4683140  16.0919750  80.5654980
 147.8099950  16.9361800  80.2708850 146.5298950  16.2403490  80.6820320
 148.2489760  25.9885770  82.5507210 148.8663760  26.6636850  82.2691660
 147.3882880  26.3973750  82.4594710 143.5422100  25.1785630  71.4314060
 143.1650080  25.6672730  70.6998960 143.7995170  25.8510910  72.0620590
 151.1511030  13.5802020  76.8899570 151.4586010  13.0248910  76.1735070
 150.2211730  13.7146480  76.7072560 149.1448430  22.1715590  76.4079420
 148.7405430  21.4592840  75.9125320 149.2311550  21.8268830  77.2967460
 149.6130130  25.8583150  78.5718630 149.3158420  25.2528620  77.8926410
 150.5629950  25.8960460  78.4607990 147.8577050  18.9458800  80.1878460
 148.4091640  19.0554140  79.4131710 148.3720560  19.3196400  80.9033690
 148.7048560  25.5964840  85.2226430 147.8077090  25.8204810  85.4699830
 148.7301430  25.7199780  84.2737830 147.5319780  22.4678160  83.7983800
 147.3927550  23.3400960  84.1671200 146.6501140  22.1250970  83.6531740
 149.3300130  28.4099860  86.0068950 149.3015560  28.8142810  85.1397380
 149.1665100  27.4810220  85.8440550 145.8453060  21.0660570  73.9086070
 145.7250660  21.7922660  73.2967340 145.5353950  20.2963480  73.4313980
 143.4838430  24.2375710  79.7154710 143.5618850  24.3724480  78.7710430
 144.0980110  23.5291600  79.9082830 144.7286060  25.9375900  76.1260890
 144.3214140  26.0790490  75.2714490 145.6199070  25.6536060  75.9232100
 149.0007720  30.1521680  74.2383560 148.8250200  29.2357220  74.0251360
 148.1463460  30.5108970  74.4781360 143.5397950  25.2789880  82.2549170
 143.7028990  24.8095240  81.4368540 144.0050400  24.7713440  82.9198010
 148.3116720  14.4095640  77.2909740 147.8684870  15.1905180  76.9594260
 148.8701710  14.7325530  77.9980680 152.5986530  17.2764160  82.8945060
 152.1365900  17.4847180  83.7065000 152.1964640  16.4623510  82.5915730
 151.4275540  14.0306340  72.1715570 150.8029720  14.0266210  72.8968880
 151.3405660  13.1637300  71.7751540 150.3492620  14.9542970  79.1499340
 150.6464950  15.8605800  79.0691360 150.8978180  14.4661750  78.5358910
 148.1030940  19.5329210  75.0190990 147.8771860  19.3166380  75.9237610
 147.3223470  19.9657670  74.6736960 150.5430150  20.4314790  85.6851260
 150.4473750  19.4909520  85.5351660 151.3862130  20.6529860  85.2899330
 145.6740690  16.8428460  83.8385040 145.2804080  17.6903670  84.0457820
 144.9859090  16.2054830  84.0293680 152.2485740  16.9263430  86.9081780
 151.5584060  16.7335630  87.5427870 152.9918040  17.2098070  87.4406080
 142.9757740  14.7656920  77.8715120 142.6870790  15.3359780  78.5840100
 143.7203500  14.2861370  78.2346350 143.1627970  18.7077040  69.0817840
 143.0802640  19.6507800  69.2232830 142.8111030  18.5651950  68.2030190
 150.9626100  17.4416070  78.1488190 150.9662160  17.0006020  77.2992730
 151.8577220  17.7633400  78.2560010 146.8128480  17.3242560  77.1082400
 146.4728530  17.8017790  77.8649450 146.0505800  16.8707680  76.7483500
 151.0246250  18.4428150  71.1394950 151.1459070  18.4014630  72.0880770
 150.6394760  19.3052300  70.9841680 150.0367750  20.7529290  70.5378250
 149.4684650  20.3047540  69.9114160 150.7456750  21.1122070  70.0043400
 145.1136930  24.6541310  84.4144980 144.7291720  24.0134980  85.0127940
 145.4249120  25.3577430  84.9839710 151.2634070  21.5017850  79.8953600
 151.6304200  21.0276420  80.6414940 151.0739130  22.3759420  80.2361940
 144.1274560  16.2461540  76.0247070 143.8421480  15.8817210  76.8625690
 144.0653420  15.5142000  75.4110210 149.0533440  20.5426490  82.2137810
 148.7490510  21.4218470  82.4388170 150.0079900  20.6026280  82.2495250
 147.5815230  24.7487480  72.8104660 146.8077490  24.2085100  72.6503380
 148.3109860  24.2294090  72.4722420 147.6252630  24.4167860  76.4483470
 148.1431300  23.6136120  76.3940360 147.1736650  24.3547000  77.2900300
 152.5122130  25.6834140  71.7210770 152.8537830  26.4276370  71.2254090
 151.6834840  25.9965260  72.0835600 145.1097170  21.3829230  83.3609170
 144.7512110  22.0483080  83.9482510 144.8151730  20.5512780  83.7321790
 148.3110290  21.8413470  86.2448720 148.0110430  21.9870650  85.3476540
 149.0821530  21.2818760  86.1522110 151.4812820  25.7647670  74.4926690
 152.1683950  26.3116880  74.8734280 150.6945240  26.3088400  74.5276300
 143.6205220  21.3820490  69.9843770 144.4900070  21.6645290  70.2679690
 143.1295540  22.1956360  69.8692580 150.7840030  22.7693700  74.1052050
 151.2402810  23.5798950  74.3312240 150.4328240  22.4516840  74.9370540
 146.6851810  13.1131350  74.5774570 146.5566440  13.1049250  75.5259490
 145.8613830  13.4514440  74.2265580 143.9876470  30.5947870  70.5505400
 144.3474110  31.1937210  69.8962670 143.8468810  31.1407760  71.3240430
 143.6845740  14.8722470  84.0381270 142.9704260  15.0719390  84.6433880
 144.1040780  14.0962040  84.4096070 143.9718330  28.8602730  85.0247800
 144.0809450  27.9197470  84.8843190 143.3198890  29.1257480  84.3761530
 151.9630920  27.1318620  86.4245920 151.6427790  26.4127860  86.9691610
 151.2889280  27.8073690  86.4981980 150.0045090  27.9779070  71.3679070
 149.9955190  28.7108760  70.7523580 149.0843450  27.7310650  71.4606030
 145.6051730  23.1993960  72.1125830 144.9979680  23.9392860  72.1221130
 146.0801080  23.2893320  71.2864030 152.9904690  28.0407310  70.0304260
 153.0916670  27.8371300  69.1006240 152.0906430  27.7865590  70.2352040
 150.5130580  18.5987670  74.0128160 149.8046730  19.0674010  74.4541770
 150.7975060  17.9409680  74.6473350 152.1386510  20.0184370  82.0120690
 152.6371760  20.4930190  82.6772540 152.2809460  19.0947890  82.2190720
 151.6322800  30.5593630  74.7251930 151.8864300  30.5215020  73.8031300
 150.6835280  30.4326960  74.7180180 148.7165600  16.9072750  71.3878870
 149.5656130  17.3442900  71.3219060 148.3496870  17.2193010  72.2150930
 147.6157020  23.1605110  69.8614400 148.3820290  23.0486470  70.4239830
 147.6931710  22.4643080  69.2091170 146.3103780  20.5930180  70.5447290
 146.3907370  19.6457690  70.6564690 147.2023530  20.9237060  70.6507950
 147.1118490  30.7425570  77.6481830 147.8480970  30.1941030  77.9190400
 147.4959410  31.6081580  77.5087820 143.9963970  26.8099140  73.5223340
 143.0703750  27.0520280  73.5128750 144.4620400  27.6373400  73.4008090
 146.1176770  29.9271640  86.8367410 146.9189500  30.2483690  87.2502810
 145.6028590  29.5667220  87.5587320 150.2220800  29.9155880  69.4707400
 151.0149410  30.2044710  69.0189190 149.7025150  29.4848050  68.7919880
 143.8374580  22.4145100  85.7803460 144.3413600  21.8352380  86.3519690
 143.0982000  22.6985330  86.3179830 150.7398200  25.1359290  69.3349750
 150.6348840  24.5211640  70.0611130 150.5722420  24.6125180  68.5512760
 150.8912520  23.8216090  85.3138980 150.1258190  24.3901090  85.2293650
 151.0728480  23.5292300  84.4207210 145.8697660  20.5574690  86.6753530
 145.9103000  20.2588560  87.5838760 146.7243160  20.9582300  86.5161050
 149.6476050  23.1570240  71.8357040 150.0692470  22.9910110  72.6788430
 149.7726890  22.3470470  71.3412180 147.8103470  19.1366790  84.6428020
 147.2799930  18.6457740  84.0151360 148.4791540  19.5650990  84.1085950
 152.1603690  22.1807850  69.0834140 152.6809350  21.4656870  68.7175290
 152.8072090  22.8193720  69.3834650 148.2975770  16.1029160  84.7225310
 148.2032640  15.4849910  83.9976180 147.7173160  16.8295450  84.4955220
 151.0637210  14.6602400  81.7552700 150.6154510  14.6826660  80.9098250
 150.4302410  14.2621420  82.3523000 151.4696760  23.5556730  82.3765140
 151.8884870  24.3989460  82.2041380 150.5505390  23.6928770  82.1471920
 148.5434950  19.2303470  68.7815200 148.3424010  18.3670830  69.1428540
 148.3727000  19.1436830  67.8436800 149.3204180  29.8609740  83.4922870
 148.7825270  30.5855800  83.1731570 149.5738140  29.3840080  82.7020210
 150.5729430  17.8294260  85.0178800 151.1629120  17.5210110  85.7056620
 149.7549670  17.3574010  85.1738700 147.3417750  16.3304090  68.7693080
 147.6443650  16.3371520  67.8612230 148.0812340  15.9801950  69.2660740
 152.1766390  31.0960950  83.7509520 152.1025090  31.9996090  84.0581890
 151.2745230  30.7772850  83.7231590 150.5602680  15.2738710  69.7549280
 150.2124680  14.5962700  69.1751730 150.7615450  14.8128220  70.5692670
 146.3647880  25.6346510  69.6022880 146.8022750  26.1776180  70.2580460
 146.8495610  24.8093460  69.6119220 143.5793680  28.4235540  77.0543140
 143.9096690  27.5556600  76.8221780 144.0084680  28.6294060  77.8848100
 148.1755600  26.7544550  74.7145110 147.8751140  26.6309520  75.6149020
 148.0693090  25.8953140  74.3060840 144.0683890  29.2906130  79.7924770
 143.6314880  29.4706930  80.6248920 144.6361570  30.0480750  79.6506490
 143.9008320  21.8026360  76.1513650 143.2457160  21.5338000  75.5073350
 144.7386270  21.6930840  75.7015630 144.9384250  22.1878930  80.6916990
 145.3057290  22.1006330  81.5713010 144.3695070  21.4245480  80.5923850
 144.4900250  19.0988020  84.5975410 143.5956300  19.0654780  84.9369120
 145.0297800  19.2974810  85.3626660 143.1146400  19.0125290  72.0938980
 142.2110480  19.2755490  71.9190640 143.5987020  19.2836460  71.3138940
 145.6573610  18.0690830  70.0033360 146.3665310  17.6474050  69.5180640
 144.9413550  18.1366060  69.3716710 145.3047770  14.1230160  69.0436010
 146.0275900  14.6639100  69.3617230 145.5772290  13.8493580  68.1677550
 144.9939960  13.3736350  78.9458630 145.6416150  12.8233730  78.5053790
 145.4141800  13.6279500  79.7674440 144.7471960  13.5292020  81.6883950
 144.3986780  13.9855840  82.4542130 144.4159660  12.6349150  81.7706380
 146.3536330  26.7011620  85.8537140 146.3105960  26.3304530  86.7351600
 146.4847340  27.6389190  85.9938960 150.0542360  28.2571210  81.4546860
 149.8133720  28.5245770  80.5677380 150.9945000  28.4276940  81.5097720
 145.4192600  13.0568220  84.9634720 145.9675590  12.8756270  84.2000830
 145.4847910  12.2662330  85.4991030 146.1924360  29.6473870  82.9734920
 145.5984680  29.5158570  83.7124960 146.1848200  28.8112010  82.5077020
 145.8236590  27.0132250  81.9242960 145.0970650  26.3937540  81.8568910
 145.8845740  27.4072860  81.0541040 149.4281690  29.2277250  78.7092370
 149.9446710  28.6164610  78.1840630 150.0779070  29.7306030  79.2003380
 152.1677190  30.1185740  79.5361350 152.4555000  29.8640040  78.6594360
 152.6800410  29.5663100  80.1266920 144.1066590  30.3306640  75.1339720
 143.9388630  29.6977320  75.8321610 143.2401100  30.5366040  74.7833910
 144.7294610  14.1623420  72.6371580 145.4873970  14.2752300  72.0635610
 144.2671780  14.9992620  72.5915010 151.2708420  16.2762690  75.6273890
 150.4582930  15.9019580  75.2869770 151.7750060  15.5207770  75.9295080
 145.7129290  29.0239870  72.5789860 145.1876910  29.4047900  71.8751820
 145.6373870  29.6490640  73.2999570 147.1019760  14.6887470  71.1773550
 147.6312520  13.9017270  71.0481500 147.7348080  15.3678660  71.4109080
 149.2957600  14.4262610  74.2318940 148.6660340  13.7249920  74.3989070
 148.7562740  15.1866740  74.0152100 152.2349550  31.0401840  86.9029550
 153.1616860  30.8046110  86.9465510 152.2199980  31.8673840  86.4215580
 149.4213160  13.7046590  86.6671430 149.1397430  14.2080190  85.9032250
 149.8032860  12.9068340  86.3013560 148.3122260  30.9722250  71.4539110
 149.0441080  30.6881530  70.9063000 148.5715930  30.7335530  72.3438490
 147.4737050  27.0886980  71.4585440 146.8445930  27.5572080  72.0071270
 147.5884880  26.2436200  71.8931630 147.0770640  23.2291470  60.3671670
 146.2455520  22.9740180  60.7668180 147.6851620  23.3002240  61.1029590
 147.0571900  27.2631560  60.5629690 147.3599940  26.3729300  60.3839910
 147.8015490  27.8201780  60.3351940 145.4862590  18.1893360  54.1514060
 144.5979290  18.5309330  54.0493940 145.7703780  17.9893680  53.2594890
 143.4495600  20.7899010  60.0353760 144.0211710  20.0221210  60.0357400
 143.4497140  21.0887770  59.1260370 144.6920470  16.1983370  61.8222690
 144.5123310  15.3009120  62.1025450 144.2900550  16.7455240  62.4969640
 147.6623980  16.7724860  55.1852440 147.7690730  17.6728590  55.4921200
 146.7516340  16.7242830  54.8947090 145.3107140  18.6943870  60.4305030
 145.9917250  18.9582240  61.0492430 144.9955190  17.8544740  60.7643040
 149.5031710  19.7411230  59.5177620 150.0109930  20.2392200  60.1582640
 150.0344950  18.9646430  59.3416980 147.7867810  14.3809790  63.7841040
 147.7886250  14.8982180  62.9786940 146.9572120  13.9039970  63.7610970
 149.0370660  24.0204970  61.9614540 148.7040040  24.6473890  62.6035610
 149.2137340  24.5466850  61.1816210 147.4683140  16.0919750  61.7911490
 147.8099950  16.9361800  61.4965360 146.5298950  16.2403490  61.9076830
 148.2489760  25.9885770  63.7763720 148.8663760  26.6636850  63.4948170
 147.3882880  26.3973750  63.6851220 143.5422100  25.1785630  52.6570570
 143.1650080  25.6672730  51.9255470 143.7995170  25.8510910  53.2877100
 151.1511030  13.5802020  58.1156080 151.4586010  13.0248910  57.3991580
 150.2211730  13.7146480  57.9329070 149.1448430  22.1715590  57.6335930
 148.7405430  21.4592840  57.1381830 149.2311550  21.8268830  58.5223970
 149.6130130  25.8583150  59.7975140 149.3158420  25.2528620  59.1182920
 150.5629950  25.8960460  59.6864500 147.8577050  18.9458800  61.4134970
 148.4091640  19.0554140  60.6388220 148.3720560  19.3196400  62.1290200
 148.7048560  25.5964840  66.4482940 147.8077090  25.8204810  66.6956340
 148.7301430  25.7199780  65.4994340 147.5319780  22.4678160  65.0240310
 147.3927550  23.3400960  65.3927710 146.6501140  22.1250970  64.8788250
 149.3300130  28.4099860  67.2325460 149.3015560  28.8142810  66.3653890
 149.1665100  27.4810220  67.0697060 145.8453060  21.0660570  55.1342580
 145.7250660  21.7922660  54.5223850 145.5353950  20.2963480  54.6570490
 143.4838430  24.2375710  60.9411220 143.5618850  24.3724480  59.9966940
 144.0980110  23.5291600  61.1339340 144.7286060  25.9375900  57.3517400
 144.3214140  26.0790490  56.4971000 145.6199070  25.6536060  57.1488610
 149.0007720  30.1521680  55.4640070 148.8250200  29.2357220  55.2507870
 148.1463460  30.5108970  55.7037870 143.5397950  25.2789880  63.4805680
 143.7028990  24.8095240  62.6625050 144.0050400  24.7713440  64.1454520
 148.3116720  14.4095640  58.5166250 147.8684870  15.1905180  58.1850770
 148.8701710  14.7325530  59.2237190 152.5986530  17.2764160  64.1201570
 152.1365900  17.4847180  64.9321510 152.1964640  16.4623510  63.8172240
 151.4275540  14.0306340  53.3972080 150.8029720  14.0266210  54.1225390
 151.3405660  13.1637300  53.0008050 150.3492620  14.9542970  60.3755850
 150.6464950  15.8605800  60.2947870 150.8978180  14.4661750  59.7615420
 148.1030940  19.5329210  56.2447500 147.8771860  19.3166380  57.1494120
 147.3223470  19.9657670  55.8993470 150.5430150  20.4314790  66.9107770
 150.4473750  19.4909520  66.7608170 151.3862130  20.6529860  66.5155840
 145.6740690  16.8428460  65.0641550 145.2804080  17.6903670  65.2714330
 144.9859090  16.2054830  65.2550190 152.2485740  16.9263430  68.1338290
 151.5584060  16.7335630  68.7684380 152.9918040  17.2098070  68.6662590
 142.9757740  14.7656920  59.0971630 142.6870790  15.3359780  59.8096610
 143.7203500  14.2861370  59.4602860 143.1627970  18.7077040  50.3074350
 143.0802640  19.6507800  50.4489340 142.8111030  18.5651950  49.4286700
 150.9626100  17.4416070  59.3744700 150.9662160  17.0006020  58.5249240
 151.8577220  17.7633400  59.4816520 146.8128480  17.3242560  58.3338910
 146.4728530  17.8017790  59.0905960 146.0505800  16.8707680  57.9740010
 151.0246250  18.4428150  52.3651460 151.1459070  18.4014630  53.3137280
 150.6394760  19.3052300  52.2098190 150.0367750  20.7529290  51.7634760
 149.4684650  20.3047540  51.1370670 150.7456750  21.1122070  51.2299910
 145.1136930  24.6541310  65.6401490 144.7291720  24.0134980  66.2384450
 145.4249120  25.3577430  66.2096220 151.2634070  21.5017850  61.1210110
 151.6304200  21.0276420  61.8671450 151.0739130  22.3759420  61.4618450
 144.1274560  16.2461540  57.2503580 143.8421480  15.8817210  58.0882200
 144.0653420  15.5142000  56.6366720 149.0533440  20.5426490  63.4394320
 148.7490510  21.4218470  63.6644680 150.0079900  20.6026280  63.4751760
 147.5815230  24.7487480  54.0361170 146.8077490  24.2085100  53.8759890
 148.3109860  24.2294090  53.6978930 147.6252630  24.4167860  57.6739980
 148.1431300  23.6136120  57.6196870 147.1736650  24.3547000  58.5156810
 152.5122130  25.6834140  52.9467280 152.8537830  26.4276370  52.4510600
 151.6834840  25.9965260  53.3092110 145.1097170  21.3829230  64.5865680
 144.7512110  22.0483080  65.1739020 144.8151730  20.5512780  64.9578300
 148.3110290  21.8413470  67.4705230 148.0110430  21.9870650  66.5733050
 149.0821530  21.2818760  67.3778620 151.4812820  25.7647670  55.7183200
 152.1683950  26.3116880  56.0990790 150.6945240  26.3088400  55.7532810
 143.6205220  21.3820490  51.2100280 144.4900070  21.6645290  51.4936200
 143.1295540  22.1956360  51.0949090 150.7840030  22.7693700  55.3308560
 151.2402810  23.5798950  55.5568750 150.4328240  22.4516840  56.1627050
 146.6851810  13.1131350  55.8031080 146.5566440  13.1049250  56.7516000
 145.8613830  13.4514440  55.4522090 143.9876470  30.5947870  51.7761910
 144.3474110  31.1937210  51.1219180 143.8468810  31.1407760  52.5496940
 143.6845740  14.8722470  65.2637780 142.9704260  15.0719390  65.8690390
 144.1040780  14.0962040  65.6352580 143.9718330  28.8602730  66.2504310
 144.0809450  27.9197470  66.1099700 143.3198890  29.1257480  65.6018040
 151.9630920  27.1318620  67.6502430 151.6427790  26.4127860  68.1948120
 151.2889280  27.8073690  67.7238490 150.0045090  27.9779070  52.5935580
 149.9955190  28.7108760  51.9780090 149.0843450  27.7310650  52.6862540
 145.6051730  23.1993960  53.3382340 144.9979680  23.9392860  53.3477640
 146.0801080  23.2893320  52.5120540 152.9904690  28.0407310  51.2560770
 153.0916670  27.8371300  50.3262750 152.0906430  27.7865590  51.4608550
 150.5130580  18.5987670  55.2384670 149.8046730  19.0674010  55.6798280
 150.7975060  17.9409680  55.8729860 152.1386510  20.0184370  63.2377200
 152.6371760  20.4930190  63.9029050 152.2809460  19.0947890  63.4447230
 151.6322800  30.5593630  55.9508440 151.8864300  30.5215020  55.0287810
 150.6835280  30.4326960  55.9436690 148.7165600  16.9072750  52.6135380
 149.5656130  17.3442900  52.5475570 148.3496870  17.2193010  53.4407440
 147.6157020  23.1605110  51.0870910 148.3820290  23.0486470  51.6496340
 147.6931710  22.4643080  50.4347680 146.3103780  20.5930180  51.7703800
 146.3907370  19.6457690  51.8821200 147.2023530  20.9237060  51.8764460
 147.1118490  30.7425570  58.8738340 147.8480970  30.1941030  59.1446910
 147.4959410  31.6081580  58.7344330 143.9963970  26.8099140  54.7479850
 143.0703750  27.0520280  54.7385260 144.4620400  27.6373400  54.6264600
 146.1176770  29.9271640  68.0623920 146.9189500  30.2483690  68.4759320
 145.6028590  29.5667220  68.7843830 150.2220800  29.9155880  50.6963910
 151.0149410  30.2044710  50.2445700 149.7025150  29.4848050  50.0176390
 143.8374580  22.4145100  67.0059970 144.3413600  21.8352380  67.5776200
 143.0982000  22.6985330  67.5436340 150.7398200  25.1359290  50.5606260
 150.6348840  24.5211640  51.2867640 150.5722420  24.6125180  49.7769270
 150.8912520  23.8216090  66.5395490 150.1258190  24.3901090  66.4550160
 151.0728480  23.5292300  65.6463720 145.8697660  20.5574690  67.9010040
 145.9103000  20.2588560  68.8095270 146.7243160  20.9582300  67.7417560
 149.6476050  23.1570240  53.0613550 150.0692470  22.9910110  53.9044940
 149.7726890  22.3470470  52.5668690 147.8103470  19.1366790  65.8684530
 147.2799930  18.6457740  65.2407870 148.4791540  19.5650990  65.3342460
 152.1603690  22.1807850  50.3090650 152.6809350  21.4656870  49.9431800
 152.8072090  22.8193720  50.6091160 148.2975770  16.1029160  65.9481820
 148.2032640  15.4849910  65.2232690 147.7173160  16.8295450  65.7211730
 151.0637210  14.6602400  62.9809210 150.6154510  14.6826660  62.1354760
 150.4302410  14.2621420  63.5779510 151.4696760  23.5556730  63.6021650
 151.8884870  24.3989460  63.4297890 150.5505390  23.6928770  63.3728430
 148.5434950  19.2303470  50.0071710 148.3424010  18.3670830  50.3685050
 148.3727000  19.1436830  49.0693310 149.3204180  29.8609740  64.7179380
 148.7825270  30.5855800  64.3988080 149.5738140  29.3840080  63.9276720
 150.5729430  17.8294260  66.2435310 151.1629120  17.5210110  66.9313130
 149.7549670  17.3574010  66.3995210 147.3417750  16.3304090  49.9949590
 147.6443650  16.3371520  49.0868740 148.0812340  15.9801950  50.4917250
 152.1766390  31.0960950  64.9766030 152.1025090  31.9996090  65.2838400
 151.2745230  30.7772850  64.9488100 150.5602680  15.2738710  50.9805790
 150.2124680  14.5962700  50.4008240 150.7615450  14.8128220  51.7949180
 146.3647880  25.6346510  50.8279390 146.8022750  26.1776180  51.4836970
 146.8495610  24.8093460  50.8375730 143.5793680  28.4235540  58.2799650
 143.9096690  27.5556600  58.0478290 144.0084680  28.6294060  59.1104610
 148.1755600  26.7544550  55.9401620 147.8751140  26.6309520  56.8405530
 148.0693090  25.8953140  55.5317350 144.0683890  29.2906130  61.0181280
 143.6314880  29.4706930  61.8505430 144.6361570  30.0480750  60.8763000
 143.9008320  21.8026360  57.3770160 143.2457160  21.5338000  56.7329860
 144.7386270  21.6930840  56.9272140 144.9384250  22.1878930  61.9173500
 145.3057290  22.1006330  62.7969520 144.3695070  21.4245480  61.8180360
 144.4900250  19.0988020  65.8231920 143.5956300  19.0654780  66.1625630
 145.0297800  19.2974810  66.5883170 143.1146400  19.0125290  53.3195490
 142.2110480  19.2755490  53.1447150 143.5987020  19.2836460  52.5395450
 145.6573610  18.0690830  51.2289870 146.3665310  17.6474050  50.7437150
 144.9413550  18.1366060  50.5973220 145.3047770  14.1230160  50.2692520
 146.0275900  14.6639100  50.5873740 145.5772290  13.8493580  49.3934060
 144.9939960  13.3736350  60.1715140 145.6416150  12.8233730  59.7310300
 145.4141800  13.6279500  60.9930950 144.7471960  13.5292020  62.9140460
 144.3986780  13.9855840  63.6798640 144.4159660  12.6349150  62.9962890
 146.3536330  26.7011620  67.0793650 146.3105960  26.3304530  67.9608110
 146.4847340  27.6389190  67.2195470 150.0542360  28.2571210  62.6803370
 149.8133720  28.5245770  61.7933890 150.9945000  28.4276940  62.7354230
 145.4192600  13.0568220  66.1891230 145.9675590  12.8756270  65.4257340
 145.4847910  12.2662330  66.7247540 146.1924360  29.6473870  64.1991430
 145.5984680  29.5158570  64.9381470 146.1848200  28.8112010  63.7333530
 145.8236590  27.0132250  63.1499470 145.0970650  26.3937540  63.0825420
 145.8845740  27.4072860  62.2797550 149.4281690  29.2277250  59.9348880
 149.9446710  28.6164610  59.4097140 150.0779070  29.7306030  60.4259890
 152.1677190  30.1185740  60.7617860 152.4555000  29.8640040  59.8850870
 152.6800410  29.5663100  61.3523430 144.1066590  30.3306640  56.3596230
 143.9388630  29.6977320  57.0578120 143.2401100  30.5366040  56.0090420
 144.7294610  14.1623420  53.8628090 145.4873970  14.2752300  53.2892120
 144.2671780  14.9992620  53.8171520 151.2708420  16.2762690  56.8530400
 150.4582930  15.9019580  56.5126280 151.7750060  15.5207770  57.1551590
 145.7129290  29.0239870  53.8046370 145.1876910  29.4047900  53.1008330
 145.6373870  29.6490640  54.5256080 147.1019760  14.6887470  52.4030060
 147.6312520  13.9017270  52.2738010 147.7348080  15.3678660  52.6365590
 149.2957600  14.4262610  55.4575450 148.6660340  13.7249920  55.6245580
 148.7562740  15.1866740  55.2408610 152.2349550  31.0401840  68.1286060
 153.1616860  30.8046110  68.1722020 152.2199980  31.8673840  67.6472090
 149.4213160  13.7046590  67.8927940 149.1397430  14.2080190  67.1288760
 149.8032860  12.9068340  67.5270070 148.3122260  30.9722250  52.6795620
 149.0441080  30.6881530  52.1319510 148.5715930  30.7335530  53.5695000
 147.4737050  27.0886980  52.6841950 146.8445930  27.5572080  53.2327780
 147.5884880  26.2436200  53.1188140 147.0770640  23.2291470  41.5928180
 146.2455520  22.9740180  41.9924690 147.6851620  23.3002240  42.3286100
 147.0571900  27.2631560  41.7886200 147.3599940  26.3729300  41.6096420
 147.8015490  27.8201780  41.5608450 145.4862590  18.1893360  35.3770570
 144.5979290  18.5309330  35.2750450 145.7703780  17.9893680  34.4851400
 143.4495600  20.7899010  41.2610270 144.0211710  20.0221210  41.2613910
 143.4497140  21.0887770  40.3516880 144.6920470  16.1983370  43.0479200
 144.5123310  15.3009120  43.3281960 144.2900550  16.7455240  43.7226150
 147.6623980  16.7724860  36.4108950 147.7690730  17.6728590  36.7177710
 146.7516340  16.7242830  36.1203600 145.3107140  18.6943870  41.6561540
 145.9917250  18.9582240  42.2748940 144.9955190  17.8544740  41.9899550
 149.5031710  19.7411230  40.7434130 150.0109930  20.2392200  41.3839150
 150.0344950  18.9646430  40.5673490 147.7867810  14.3809790  45.0097550
 147.7886250  14.8982180  44.2043450 146.9572120  13.9039970  44.9867480
 149.0370660  24.0204970  43.1871050 148.7040040  24.6473890  43.8292120
 149.2137340  24.5466850  42.4072720 147.4683140  16.0919750  43.0168000
 147.8099950  16.9361800  42.7221870 146.5298950  16.2403490  43.1333340
 148.2489760  25.9885770  45.0020230 148.8663760  26.6636850  44.7204680
 147.3882880  26.3973750  44.9107730 143.5422100  25.1785630  33.8827080
 143.1650080  25.6672730  33.1511980 143.7995170  25.8510910  34.5133610
 151.1511030  13.5802020  39.3412590 151.4586010  13.0248910  38.6248090
 150.2211730  13.7146480  39.1585580 149.1448430  22.1715590  38.8592440
 148.7405430  21.4592840  38.3638340 149.2311550  21.8268830  39.7480480
 149.6130130  25.8583150  41.0231650 149.3158420  25.2528620  40.3439430
 150.5629950  25.8960460  40.9121010 147.8577050  18.9458800  42.6391480
 148.4091640  19.0554140  41.8644730 148.3720560  19.3196400  43.3546710
 148.7048560  25.5964840  47.6739450 147.8077090  25.8204810  47.9212850
 148.7301430  25.7199780  46.7250850 147.5319780  22.4678160  46.2496820
 147.3927550  23.3400960  46.6184220 146.6501140  22.1250970  46.1044760
 149.3300130  28.4099860  48.4581970 149.3015560  28.8142810  47.5910400
 149.1665100  27.4810220  48.2953570 145.8453060  21.0660570  36.3599090
 145.7250660  21.7922660  35.7480360 145.5353950  20.2963480  35.8827000
 143.4838430  24.2375710  42.1667730 143.5618850  24.3724480  41.2223450
 144.0980110  23.5291600  42.3595850 144.7286060  25.9375900  38.5773910
 144.3214140  26.0790490  37.7227510 145.6199070  25.6536060  38.3745120
 149.0007720  30.1521680  36.6896580 148.8250200  29.2357220  36.4764380
 148.1463460  30.5108970  36.9294380 143.5397950  25.2789880  44.7062190
 143.7028990  24.8095240  43.8881560 144.0050400  24.7713440  45.3711030
 148.3116720  14.4095640  39.7422760 147.8684870  15.1905180  39.4107280
 148.8701710  14.7325530  40.4493700 152.5986530  17.2764160  45.3458080
 152.1365900  17.4847180  46.1578020 152.1964640  16.4623510  45.0428750
 151.4275540  14.0306340  34.6228590 150.8029720  14.0266210  35.3481900
 151.3405660  13.1637300  34.2264560 150.3492620  14.9542970  41.6012360
 150.6464950  15.8605800  41.5204380 150.8978180  14.4661750  40.9871930
 148.1030940  19.5329210  37.4704010 147.8771860  19.3166380  38.3750630
 147.3223470  19.9657670  37.1249980 150.5430150  20.4314790  48.1364280
 150.4473750  19.4909520  47.9864680 151.3862130  20.6529860  47.7412350
 145.6740690  16.8428460  46.2898060 145.2804080  17.6903670  46.4970840
 144.9859090  16.2054830  46.4806700 152.2485740  16.9263430  49.3594800
 151.5584060  16.7335630  49.9940890 152.9918040  17.2098070  49.8919100
 142.9757740  14.7656920  40.3228140 142.6870790  15.3359780  41.0353120
 143.7203500  14.2861370  40.6859370 143.1627970  18.7077040  31.5330860
 143.0802640  19.6507800  31.6745850 142.8111030  18.5651950  30.6543210
 150.9626100  17.4416070  40.6001210 150.9662160  17.0006020  39.7505750
 151.8577220  17.7633400  40.7073030 146.8128480  17.3242560  39.5595420
 146.4728530  17.8017790  40.3162470 146.0505800  16.8707680  39.1996520
 151.0246250  18.4428150  33.5907970 151.1459070  18.4014630  34.5393790
 150.6394760  19.3052300  33.4354700 150.0367750  20.7529290  32.9891270
 149.4684650  20.3047540  32.3627180 150.7456750  21.1122070  32.4556420
 145.1136930  24.6541310  46.8658000 144.7291720  24.0134980  47.4640960
 145.4249120  25.3577430  47.4352730 151.2634070  21.5017850  42.3466620
 151.6304200  21.0276420  43.0927960 151.0739130  22.3759420  42.6874960
 144.1274560  16.2461540  38.4760090 143.8421480  15.8817210  39.3138710
 144.0653420  15.5142000  37.8623230 149.0533440  20.5426490  44.6650830
 148.7490510  21.4218470  44.8901190 150.0079900  20.6026280  44.7008270
 147.5815230  24.7487480  35.2617680 146.8077490  24.2085100  35.1016400
 148.3109860  24.2294090  34.9235440 147.6252630  24.4167860  38.8996490
 148.1431300  23.6136120  38.8453380 147.1736650  24.3547000  39.7413320
 152.5122130  25.6834140  34.1723790 152.8537830  26.4276370  33.6767110
 151.6834840  25.9965260  34.5348620 145.1097170  21.3829230  45.8122190
 144.7512110  22.0483080  46.3995530 144.8151730  20.5512780  46.1834810
 148.3110290  21.8413470  48.6961740 148.0110430  21.9870650  47.7989560
 149.0821530  21.2818760  48.6035130 151.4812820  25.7647670  36.9439710
 152.1683950  26.3116880  37.3247300 150.6945240  26.3088400  36.9789320
 143.6205220  21.3820490  32.4356790 144.4900070  21.6645290  32.7192710
 143.1295540  22.1956360  32.3205600 150.7840030  22.7693700  36.5565070
 151.2402810  23.5798950  36.7825260 150.4328240  22.4516840  37.3883560
 146.6851810  13.1131350  37.0287590 146.5566440  13.1049250  37.9772510
 145.8613830  13.4514440  36.6778600 143.9876470  30.5947870  33.0018420
 144.3474110  31.1937210  32.3475690 143.8468810  31.1407760  33.7753450
 143.6845740  14.8722470  46.4894290 142.9704260  15.0719390  47.0946900
 144.1040780  14.0962040  46.8609090 143.9718330  28.8602730  47.4760820
 144.0809450  27.9197470  47.3356210 143.3198890  29.1257480  46.8274550
 151.9630920  27.1318620  48.8758940 151.6427790  26.4127860  49.4204630
 151.2889280  27.8073690  48.9495000 150.0045090  27.9779070  33.8192090
 149.9955190  28.7108760  33.2036600 149.0843450  27.7310650  33.9119050
 145.6051730  23.1993960  34.5638850 144.9979680  23.9392860  34.5734150
 146.0801080  23.2893320  33.7377050 152.9904690  28.0407310  32.4817280
 153.0916670  27.8371300  31.5519260 152.0906430  27.7865590  32.6865060
 150.5130580  18.5987670  36.4641180 149.8046730  19.0674010  36.9054790
 150.7975060  17.9409680  37.0986370 152.1386510  20.0184370  44.4633710
 152.6371760  20.4930190  45.1285560 152.2809460  19.0947890  44.6703740
 151.6322800  30.5593630  37.1764950 151.8864300  30.5215020  36.2544320
 150.6835280  30.4326960  37.1693200 148.7165600  16.9072750  33.8391890
 149.5656130  17.3442900  33.7732080 148.3496870  17.2193010  34.6663950
 147.6157020  23.1605110  32.3127420 148.3820290  23.0486470  32.8752850
 147.6931710  22.4643080  31.6604190 146.3103780  20.5930180  32.9960310
 146.3907370  19.6457690  33.1077710 147.2023530  20.9237060  33.1020970
 147.1118490  30.7425570  40.0994850 147.8480970  30.1941030  40.3703420
 147.4959410  31.6081580  39.9600840 143.9963970  26.8099140  35.9736360
 143.0703750  27.0520280  35.9641770 144.4620400  27.6373400  35.8521110
 146.1176770  29.9271640  49.2880430 146.9189500  30.2483690  49.7015830
 145.6028590  29.5667220  50.0100340 150.2220800  29.9155880  31.9220420
 151.0149410  30.2044710  31.4702210 149.7025150  29.4848050  31.2432900
 143.8374580  22.4145100  48.2316480 144.3413600  21.8352380  48.8032710
 143.0982000  22.6985330  48.7692850 150.7398200  25.1359290  31.7862770
 150.6348840  24.5211640  32.5124150 150.5722420  24.6125180  31.0025780
 150.8912520  23.8216090  47.7652000 150.1258190  24.3901090  47.6806670
 151.0728480  23.5292300  46.8720230 145.8697660  20.5574690  49.1266550
 145.9103000  20.2588560  50.0351780 146.7243160  20.9582300  48.9674070
 149.6476050  23.1570240  34.2870060 150.0692470  22.9910110  35.1301450
 149.7726890  22.3470470  33.7925200 147.8103470  19.1366790  47.0941040
 147.2799930  18.6457740  46.4664380 148.4791540  19.5650990  46.5598970
 152.1603690  22.1807850  31.5347160 152.6809350  21.4656870  31.1688310
 152.8072090  22.8193720  31.8347670 148.2975770  16.1029160  47.1738330
 148.2032640  15.4849910  46.4489200 147.7173160  16.8295450  46.9468240
 151.0637210  14.6602400  44.2065720 150.6154510  14.6826660  43.3611270
 150.4302410  14.2621420  44.8036020 151.4696760  23.5556730  44.8278160
 151.8884870  24.3989460  44.6554400 150.5505390  23.6928770  44.5984940
 148.5434950  19.2303470  31.2328220 148.3424010  18.3670830  31.5941560
 148.3727000  19.1436830  30.2949820 149.3204180  29.8609740  45.9435890
 148.7825270  30.5855800  45.6244590 149.5738140  29.3840080  45.1533230
 150.5729430  17.8294260  47.4691820 151.1629120  17.5210110  48.1569640
 149.7549670  17.3574010  47.6251720 147.3417750  16.3304090  31.2206100
 147.6443650  16.3371520  30.3125250 148.0812340  15.9801950  31.7173760
 152.1766390  31.0960950  46.2022540 152.1025090  31.9996090  46.5094910
 151.2745230  30.7772850  46.1744610 150.5602680  15.2738710  32.2062300
 150.2124680  14.5962700  31.6264750 150.7615450  14.8128220  33.0205690
 146.3647880  25.6346510  32.0535900 146.8022750  26.1776180  32.7093480
 146.8495610  24.8093460  32.0632240 143.5793680  28.4235540  39.5056160
 143.9096690  27.5556600  39.2734800 144.0084680  28.6294060  40.3361120
 148.1755600  26.7544550  37.1658130 147.8751140  26.6309520  38.0662040
 148.0693090  25.8953140  36.7573860 144.0683890  29.2906130  42.2437790
 143.6314880  29.4706930  43.0761940 144.6361570  30.0480750  42.1019510
 143.9008320  21.8026360  38.6026670 143.2457160  21.5338000  37.9586370
 144.7386270  21.6930840  38.1528650 144.9384250  22.1878930  43.1430010
 145.3057290  22.1006330  44.0226030 144.3695070  21.4245480  43.0436870
 144.4900250  19.0988020  47.0488430 143.5956300  19.0654780  47.3882140
 145.0297800  19.2974810  47.8139680 143.1146400  19.0125290  34.5452000
 142.2110480  19.2755490  34.3703660 143.5987020  19.2836460  33.7651960
 145.6573610  18.0690830  32.4546380 146.3665310  17.6474050  31.9693660
 144.9413550  18.1366060  31.8229730 145.3047770  14.1230160  31.4949030
 146.0275900  14.6639100  31.8130250 145.5772290  13.8493580  30.6190570
 144.9939960  13.3736350  41.3971650 145.6416150  12.8233730  40.9566810
 145.4141800  13.6279500  42.2187460 144.7471960  13.5292020  44.1396970
 144.3986780  13.9855840  44.9055150 144.4159660  12.6349150  44.2219400
 146.3536330  26.7011620  48.3050160 146.3105960  26.3304530  49.1864620
 146.4847340  27.6389190  48.4451980 150.0542360  28.2571210  43.9059880
 149.8133720  28.5245770  43.0190400 150.9945000  28.4276940  43.9610740
 145.4192600  13.0568220  47.4147740 145.9675590  12.8756270  46.6513850
 145.4847910  12.2662330  47.9504050 146.1924360  29.6473870  45.4247940
 145.5984680  29.5158570  46.1637980 146.1848200  28.8112010  44.9590040
 145.8236590  27.0132250  44.3755980 145.0970650  26.3937540  44.3081930
 145.8845740  27.4072860  43.5054060 149.4281690  29.2277250  41.1605390
 149.9446710  28.6164610  40.6353650 150.0779070  29.7306030  41.6516400
 152.1677190  30.1185740  41.9874370 152.4555000  29.8640040  41.1107380
 152.6800410  29.5663100  42.5779940 144.1066590  30.3306640  37.5852740
 143.9388630  29.6977320  38.2834630 143.2401100  30.5366040  37.2346930
 144.7294610  14.1623420  35.0884600 145.4873970  14.2752300  34.5148630
 144.2671780  14.9992620  35.0428030 151.2708420  16.2762690  38.0786910
 150.4582930  15.9019580  37.7382790 151.7750060  15.5207770  38.3808100
 145.7129290  29.0239870  35.0302880 145.1876910  29.4047900  34.3264840
 145.6373870  29.6490640  35.7512590 147.1019760  14.6887470  33.6286570
 147.6312520  13.9017270  33.4994520 147.7348080  15.3678660  33.8622100
 149.2957600  14.4262610  36.6831960 148.6660340  13.7249920  36.8502090
 148.7562740  15.1866740  36.4665120 152.2349550  31.0401840  49.3542570
 153.1616860  30.8046110  49.3978530 152.2199980  31.8673840  48.8728600
 149.4213160  13.7046590  49.1184450 149.1397430  14.2080190  48.3545270
 149.8032860  12.9068340  48.7526580 148.3122260  30.9722250  33.9052130
 149.0441080  30.6881530  33.3576020 148.5715930  30.7335530  34.7951510
 147.4737050  27.0886980  33.9098460 146.8445930  27.5572080  34.4584290
 147.5884880  26.2436200  34.3444650 147.0770640  23.2291470  22.8184690
 146.2455520  22.9740180  23.2181200 147.6851620  23.3002240  23.5542610
 147.0571900  27.2631560  23.0142710 147.3599940  26.3729300  22.8352930
 147.8015490  27.8201780  22.7864960 145.4862590  18.1893360  16.6027080
 144.5979290  18.5309330  16.5006960 145.7703780  17.9893680  15.7107910
 143.4495600  20.7899010  22.4866780 144.0211710  20.0221210  22.4870420
 143.4497140  21.0887770  21.5773390 144.6920470  16.1983370  24.2735710
 144.5123310  15.3009120  24.5538470 144.2900550  16.7455240  24.9482660
 147.6623980  16.7724860  17.6365460 147.7690730  17.6728590  17.9434220
 146.7516340  16.7242830  17.3460110 145.3107140  18.6943870  22.8818050
 145.9917250  18.9582240  23.5005450 144.9955190  17.8544740  23.2156060
 149.5031710  19.7411230  21.9690640 150.0109930  20.2392200  22.6095660
 150.0344950  18.9646430  21.7930000 147.7867810  14.3809790  26.2354060
 147.7886250  14.8982180  25.4299960 146.9572120  13.9039970  26.2123990
 149.0370660  24.0204970  24.4127560 148.7040040  24.6473890  25.0548630
 149.2137340  24.5466850  23.6329230 147.4683140  16.0919750  24.2424510
 147.8099950  16.9361800  23.9478380 146.5298950  16.2403490  24.3589850
 148.2489760  25.9885770  26.2276740 148.8663760  26.6636850  25.9461190
 147.3882880  26.3973750  26.1364240 143.5422100  25.1785630  15.1083590
 143.1650080  25.6672730  14.3768490 143.7995170  25.8510910  15.7390120
 151.1511030  13.5802020  20.5669100 151.4586010  13.0248910  19.8504600
 150.2211730  13.7146480  20.3842090 149.1448430  22.1715590  20.0848950
 148.7405430  21.4592840  19.5894850 149.2311550  21.8268830  20.9736990
 149.6130130  25.8583150  22.2488160 149.3158420  25.2528620  21.5695940
 150.5629950  25.8960460  22.1377520 147.8577050  18.9458800  23.8647990
 148.4091640  19.0554140  23.0901240 148.3720560  19.3196400  24.5803220
 148.7048560  25.5964840  28.8995960 147.8077090  25.8204810  29.1469360
 148.7301430  25.7199780  27.9507360 147.5319780  22.4678160  27.4753330
 147.3927550  23.3400960  27.8440730 146.6501140  22.1250970  27.3301270
 149.3300130  28.4099860  29.6838480 149.3015560  28.8142810  28.8166910
 149.1665100  27.4810220  29.5210080 145.8453060  21.0660570  17.5855600
 145.7250660  21.7922660  16.9736870 145.5353950  20.2963480  17.1083510
 143.4838430  24.2375710  23.3924240 143.5618850  24.3724480  22.4479960
 144.0980110  23.5291600  23.5852360 144.7286060  25.9375900  19.8030420
 144.3214140  26.0790490  18.9484020 145.6199070  25.6536060  19.6001630
 149.0007720  30.1521680  17.9153090 148.8250200  29.2357220  17.7020890
 148.1463460  30.5108970  18.1550890 143.5397950  25.2789880  25.9318700
 143.7028990  24.8095240  25.1138070 144.0050400  24.7713440  26.5967540
 148.3116720  14.4095640  20.9679270 147.8684870  15.1905180  20.6363790
 148.8701710  14.7325530  21.6750210 152.5986530  17.2764160  26.5714590
 152.1365900  17.4847180  27.3834530 152.1964640  16.4623510  26.2685260
 151.4275540  14.0306340  15.8485100 150.8029720  14.0266210  16.5738410
 151.3405660  13.1637300  15.4521070 150.3492620  14.9542970  22.8268870
 150.6464950  15.8605800  22.7460890 150.8978180  14.4661750  22.2128440
 148.1030940  19.5329210  18.6960520 147.8771860  19.3166380  19.6007140
 147.3223470  19.9657670  18.3506490 150.5430150  20.4314790  29.3620790
 150.4473750  19.4909520  29.2121190 151.3862130  20.6529860  28.9668860
 145.6740690  16.8428460  27.5154570 145.2804080  17.6903670  27.7227350
 144.9859090  16.2054830  27.7063210 152.2485740  16.9263430  30.5851310
 151.5584060  16.7335630  31.2197400 152.9918040  17.2098070  31.1175610
 142.9757740  14.7656920  21.5484650 142.6870790  15.3359780  22.2609630
 143.7203500  14.2861370  21.9115880 143.1627970  18.7077040  12.7587370
 143.0802640  19.6507800  12.9002360 142.8111030  18.5651950  11.8799720
 150.9626100  17.4416070  21.8257720 150.9662160  17.0006020  20.9762260
 151.8577220  17.7633400  21.9329540 146.8128480  17.3242560  20.7851930
 146.4728530  17.8017790  21.5418980 146.0505800  16.8707680  20.4253030
 151.0246250  18.4428150  14.8164480 151.1459070  18.4014630  15.7650300
 150.6394760  19.3052300  14.6611210 150.0367750  20.7529290  14.2147780
 149.4684650  20.3047540  13.5883690 150.7456750  21.1122070  13.6812930
 145.1136930  24.6541310  28.0914510 144.7291720  24.0134980  28.6897470
 145.4249120  25.3577430  28.6609240 151.2634070  21.5017850  23.5723130
 151.6304200  21.0276420  24.3184470 151.0739130  22.3759420  23.9131470
 144.1274560  16.2461540  19.7016600 143.8421480  15.8817210  20.5395220
 144.0653420  15.5142000  19.0879740 149.0533440  20.5426490  25.8907340
 148.7490510  21.4218470  26.1157700 150.0079900  20.6026280  25.9264780
 147.5815230  24.7487480  16.4874190 146.8077490  24.2085100  16.3272910
 148.3109860  24.2294090  16.1491950 147.6252630  24.4167860  20.1253000
 148.1431300  23.6136120  20.0709890 147.1736650  24.3547000  20.9669830
 152.5122130  25.6834140  15.3980300 152.8537830  26.4276370  14.9023620
 151.6834840  25.9965260  15.7605130 145.1097170  21.3829230  27.0378700
 144.7512110  22.0483080  27.6252040 144.8151730  20.5512780  27.4091320
 148.3110290  21.8413470  29.9218250 148.0110430  21.9870650  29.0246070
 149.0821530  21.2818760  29.8291640 151.4812820  25.7647670  18.1696220
 152.1683950  26.3116880  18.5503810 150.6945240  26.3088400  18.2045830
 143.6205220  21.3820490  13.6613300 144.4900070  21.6645290  13.9449220
 143.1295540  22.1956360  13.5462110 150.7840030  22.7693700  17.7821580
 151.2402810  23.5798950  18.0081770 150.4328240  22.4516840  18.6140070
 146.6851810  13.1131350  18.2544100 146.5566440  13.1049250  19.2029020
 145.8613830  13.4514440  17.9035110 143.9876470  30.5947870  14.2274930
 144.3474110  31.1937210  13.5732200 143.8468810  31.1407760  15.0009960
 143.6845740  14.8722470  27.7150800 142.9704260  15.0719390  28.3203410
 144.1040780  14.0962040  28.0865600 143.9718330  28.8602730  28.7017330
 144.0809450  27.9197470  28.5612720 143.3198890  29.1257480  28.0531060
 151.9630920  27.1318620  30.1015450 151.6427790  26.4127860  30.6461140
 151.2889280  27.8073690  30.1751510 150.0045090  27.9779070  15.0448600
 149.9955190  28.7108760  14.4293110 149.0843450  27.7310650  15.1375560
 145.6051730  23.1993960  15.7895360 144.9979680  23.9392860  15.7990660
 146.0801080  23.2893320  14.9633560 152.9904690  28.0407310  13.7073790
 153.0916670  27.8371300  12.7775770 152.0906430  27.7865590  13.9121570
 150.5130580  18.5987670  17.6897690 149.8046730  19.0674010  18.1311300
 150.7975060  17.9409680  18.3242880 152.1386510  20.0184370  25.6890220
 152.6371760  20.4930190  26.3542070 152.2809460  19.0947890  25.8960250
 151.6322800  30.5593630  18.4021460 151.8864300  30.5215020  17.4800830
 150.6835280  30.4326960  18.3949710 148.7165600  16.9072750  15.0648400
 149.5656130  17.3442900  14.9988590 148.3496870  17.2193010  15.8920460
 147.6157020  23.1605110  13.5383930 148.3820290  23.0486470  14.1009360
 147.6931710  22.4643080  12.8860700 146.3103780  20.5930180  14.2216820
 146.3907370  19.6457690  14.3334220 147.2023530  20.9237060  14.3277480
 147.1118490  30.7425570  21.3251360 147.8480970  30.1941030  21.5959930
 147.4959410  31.6081580  21.1857350 143.9963970  26.8099140  17.1992870
 143.0703750  27.0520280  17.1898280 144.4620400  27.6373400  17.0777620
 146.1176770  29.9271640  30.5136940 146.9189500  30.2483690  30.9272340
 145.6028590  29.5667220  31.2356850 150.2220800  29.9155880  13.1476930
 151.0149410  30.2044710  12.6958720 149.7025150  29.4848050  12.4689410
 143.8374580  22.4145100  29.4572990 144.3413600  21.8352380  30.0289220
 143.0982000  22.6985330  29.9949360 150.7398200  25.1359290  13.0119280
 150.6348840  24.5211640  13.7380660 150.5722420  24.6125180  12.2282290
 150.8912520  23.8216090  28.9908510 150.1258190  24.3901090  28.9063180
 151.0728480  23.5292300  28.0976740 145.8697660  20.5574690  30.3523060
 145.9103000  20.2588560  31.2608290 146.7243160  20.9582300  30.1930580
 149.6476050  23.1570240  15.5126570 150.0692470  22.9910110  16.3557960
 149.7726890  22.3470470  15.0181710 147.8103470  19.1366790  28.3197550
 147.2799930  18.6457740  27.6920890 148.4791540  19.5650990  27.7855480
 152.1603690  22.1807850  12.7603670 152.6809350  21.4656870  12.3944820
 152.8072090  22.8193720  13.0604180 148.2975770  16.1029160  28.3994840
 148.2032640  15.4849910  27.6745710 147.7173160  16.8295450  28.1724750
 151.0637210  14.6602400  25.4322230 150.6154510  14.6826660  24.5867780
 150.4302410  14.2621420  26.0292530 151.4696760  23.5556730  26.0534670
 151.8884870  24.3989460  25.8810910 150.5505390  23.6928770  25.8241450
 148.5434950  19.2303470  12.4584730 148.3424010  18.3670830  12.8198070
 148.3727000  19.1436830  11.5206330 149.3204180  29.8609740  27.1692400
 148.7825270  30.5855800  26.8501100 149.5738140  29.3840080  26.3789740
 150.5729430  17.8294260  28.6948330 151.1629120  17.5210110  29.3826150
 149.7549670  17.3574010  28.8508230 147.3417750  16.3304090  12.4462610
 147.6443650  16.3371520  11.5381760 148.0812340  15.9801950  12.9430270
 152.1766390  31.0960950  27.4279050 152.1025090  31.9996090  27.7351420
 151.2745230  30.7772850  27.4001120 150.5602680  15.2738710  13.4318810
 150.2124680  14.5962700  12.8521260 150.7615450  14.8128220  14.2462200
 146.3647880  25.6346510  13.2792410 146.8022750  26.1776180  13.9349990
 146.8495610  24.8093460  13.2888750 143.5793680  28.4235540  20.7312670
 143.9096690  27.5556600  20.4991310 144.0084680  28.6294060  21.5617630
 148.1755600  26.7544550  18.3914640 147.8751140  26.6309520  19.2918550
 148.0693090  25.8953140  17.9830370 144.0683890  29.2906130  23.4694300
 143.6314880  29.4706930  24.3018450 144.6361570  30.0480750  23.3276020
 143.9008320  21.8026360  19.8283180 143.2457160  21.5338000  19.1842880
 144.7386270  21.6930840  19.3785160 144.9384250  22.1878930  24.3686520
 145.3057290  22.1006330  25.2482540 144.3695070  21.4245480  24.2693380
 144.4900250  19.0988020  28.2744940 143.5956300  19.0654780  28.6138650
 145.0297800  19.2974810  29.0396190 143.1146400  19.0125290  15.7708510
 142.2110480  19.2755490  15.5960170 143.5987020  19.2836460  14.9908470
 145.6573610  18.0690830  13.6802890 146.3665310  17.6474050  13.1950170
 144.9413550  18.1366060  13.0486240 145.3047770  14.1230160  12.7205540
 146.0275900  14.6639100  13.0386760 145.5772290  13.8493580  11.8447080
 144.9939960  13.3736350  22.6228160 145.6416150  12.8233730  22.1823320
 145.4141800  13.6279500  23.4443970 144.7471960  13.5292020  25.3653480
 144.3986780  13.9855840  26.1311660 144.4159660  12.6349150  25.4475910
 146.3536330  26.7011620  29.5306670 146.3105960  26.3304530  30.4121130
 146.4847340  27.6389190  29.6708490 150.0542360  28.2571210  25.1316390
 149.8133720  28.5245770  24.2446910 150.9945000  28.4276940  25.1867250
 145.4192600  13.0568220  28.6404250 145.9675590  12.8756270  27.8770360
 145.4847910  12.2662330  29.1760560 146.1924360  29.6473870  26.6504450
 145.5984680  29.5158570  27.3894490 146.1848200  28.8112010  26.1846550
 145.8236590  27.0132250  25.6012490 145.0970650  26.3937540  25.5338440
 145.8845740  27.4072860  24.7310570 149.4281690  29.2277250  22.3861900
 149.9446710  28.6164610  21.8610160 150.0779070  29.7306030  22.8772910
 152.1677190  30.1185740  23.2130880 152.4555000  29.8640040  22.3363890
 152.6800410  29.5663100  23.8036450 144.1066590  30.3306640  18.8109250
 143.9388630  29.6977320  19.5091140 143.2401100  30.5366040  18.4603440
 144.7294610  14.1623420  16.3141110 145.4873970  14.2752300  15.7405140
 144.2671780  14.9992620  16.2684540 151.2708420  16.2762690  19.3043420
 150.4582930  15.9019580  18.9639300 151.7750060  15.5207770  19.6064610
 145.7129290  29.0239870  16.2559390 145.1876910  29.4047900  15.5521350
 145.6373870  29.6490640  16.9769100 147.1019760  14.6887470  14.8543080
 147.6312520  13.9017270  14.7251030 147.7348080  15.3678660  15.0878610
 149.2957600  14.4262610  17.9088470 148.6660340  13.7249920  18.0758600
 148.7562740  15.1866740  17.6921630 152.2349550  31.0401840  30.5799080
 153.1616860  30.8046110  30.6235040 152.2199980  31.8673840  30.0985110
 149.4213160  13.7046590  30.3440960 149.1397430  14.2080190  29.5801780
 149.8032860  12.9068340  29.9783090 148.3122260  30.9722250  15.1308640
 149.0441080  30.6881530  14.5832530 148.5715930  30.7335530  16.0208020
 147.4737050  27.0886980  15.1354970 146.8445930  27.5572080  15.6840800
 147.5884880  26.2436200  15.5701160 147.0770640  23.2291470   4.0441200
 146.2455520  22.9740180   4.4437710 147.6851620  23.3002240   4.7799120
 147.0571900  27.2631560   4.2399220 147.3599940  26.3729300   4.0609440
 147.8015490  27.8201780   4.0121470 143.4495600  20.7899010   3.7123290
 144.0211710  20.0221210   3.7126930 143.4497140  21.0887770   2.8029900
 144.6920470  16.1983370   5.4992220 144.5123310  15.3009120   5.7794980
 144.2900550  16.7455240   6.1739170 145.3107140  18.6943870   4.1074560
 145.9917250  18.9582240   4.7261960 144.9955190  17.8544740   4.4412570
 149.5031710  19.7411230   3.1947150 150.0109930  20.2392200   3.8352170
 150.0344950  18.9646430   3.0186510 147.7867810  14.3809790   7.4610570
 147.7886250  14.8982180   6.6556470 146.9572120  13.9039970   7.4380500
 149.0370660  24.0204970   5.6384070 148.7040040  24.6473890   6.2805140
 149.2137340  24.5466850   4.8585740 147.4683140  16.0919750   5.4681020
 147.8099950  16.9361800   5.1734890 146.5298950  16.2403490   5.5846360
 148.2489760  25.9885770   7.4533250 148.8663760  26.6636850   7.1717700
 147.3882880  26.3973750   7.3620750 149.6130130  25.8583150   3.4744670
 149.3158420  25.2528620   2.7952450 150.5629950  25.8960460   3.3634030
 147.8577050  18.9458800   5.0904500 148.4091640  19.0554140   4.3157750
 148.3720560  19.3196400   5.8059730 148.7048560  25.5964840  10.1252470
 147.8077090  25.8204810  10.3725870 148.7301430  25.7199780   9.1763870
 147.5319780  22.4678160   8.7009840 147.3927550  23.3400960   9.0697240
 146.6501140  22.1250970   8.5557780 149.3300130  28.4099860  10.9094990
 149.3015560  28.8142810  10.0423420 149.1665100  27.4810220  10.7466590
 143.4838430  24.2375710   4.6180750 143.5618850  24.3724480   3.6736470
 144.0980110  23.5291600   4.8108870 143.5397950  25.2789880   7.1575210
 143.7028990  24.8095240   6.3394580 144.0050400  24.7713440   7.8224050
 148.3116720  14.4095640   2.1935780 147.8684870  15.1905180   1.8620300
 148.8701710  14.7325530   2.9006720 152.5986530  17.2764160   7.7971100
 152.1365900  17.4847180   8.6091040 152.1964640  16.4623510   7.4941770
 150.3492620  14.9542970   4.0525380 150.6464950  15.8605800   3.9717400
 150.8978180  14.4661750   3.4384950 150.5430150  20.4314790  10.5877300
 150.4473750  19.4909520  10.4377700 151.3862130  20.6529860  10.1925370
 145.6740690  16.8428460   8.7411080 145.2804080  17.6903670   8.9483860
 144.9859090  16.2054830   8.9319720 152.2485740  16.9263430  11.8107820
 151.5584060  16.7335630  12.4453910 152.9918040  17.2098070  12.3432120
 142.9757740  14.7656920   2.7741160 142.6870790  15.3359780   3.4866140
 143.7203500  14.2861370   3.1372390 150.9626100  17.4416070   3.0514230
 150.9662160  17.0006020   2.2018770 151.8577220  17.7633400   3.1586050
 146.8128480  17.3242560   2.0108440 146.4728530  17.8017790   2.7675490
 146.0505800  16.8707680   1.6509540 145.1136930  24.6541310   9.3171020
 144.7291720  24.0134980   9.9153980 145.4249120  25.3577430   9.8865750
 151.2634070  21.5017850   4.7979640 151.6304200  21.0276420   5.5440980
 151.0739130  22.3759420   5.1387980 149.0533440  20.5426490   7.1163850
 148.7490510  21.4218470   7.3414210 150.0079900  20.6026280   7.1521290
 145.1097170  21.3829230   8.2635210 144.7512110  22.0483080   8.8508550
 144.8151730  20.5512780   8.6347830 148.3110290  21.8413470  11.1474760
 148.0110430  21.9870650  10.2502580 149.0821530  21.2818760  11.0548150
 143.6845740  14.8722470   8.9407310 142.9704260  15.0719390   9.5459920
 144.1040780  14.0962040   9.3122110 143.9718330  28.8602730   9.9273840
 144.0809450  27.9197470   9.7869230 143.3198890  29.1257480   9.2787570
 151.9630920  27.1318620  11.3271960 151.6427790  26.4127860  11.8717650
 151.2889280  27.8073690  11.4008020 152.1386510  20.0184370   6.9146730
 152.6371760  20.4930190   7.5798580 152.2809460  19.0947890   7.1216760
 147.1118490  30.7425570   2.5507870 147.8480970  30.1941030   2.8216440
 147.4959410  31.6081580   2.4113860 146.1176770  29.9271640  11.7393450
 146.9189500  30.2483690  12.1528850 145.6028590  29.5667220  12.4613360
 143.8374580  22.4145100  10.6829500 144.3413600  21.8352380  11.2545730
 143.0982000  22.6985330  11.2205870 150.8912520  23.8216090  10.2165020
 150.1258190  24.3901090  10.1319690 151.0728480  23.5292300   9.3233250
 145.8697660  20.5574690  11.5779570 145.9103000  20.2588560  12.4864800
 146.7243160  20.9582300  11.4187090 147.8103470  19.1366790   9.5454060
 147.2799930  18.6457740   8.9177400 148.4791540  19.5650990   9.0111990
 148.2975770  16.1029160   9.6251350 148.2032640  15.4849910   8.9002220
 147.7173160  16.8295450   9.3981260 151.0637210  14.6602400   6.6578740
 150.6154510  14.6826660   5.8124290 150.4302410  14.2621420   7.2549040
 151.4696760  23.5556730   7.2791180 151.8884870  24.3989460   7.1067420
 150.5505390  23.6928770   7.0497960 149.3204180  29.8609740   8.3948910
 148.7825270  30.5855800   8.0757610 149.5738140  29.3840080   7.6046250
 150.5729430  17.8294260   9.9204840 151.1629120  17.5210110  10.6082660
 149.7549670  17.3574010  10.0764740 152.1766390  31.0960950   8.6535560
 152.1025090  31.9996090   8.9607930 151.2745230  30.7772850   8.6257630
 143.5793680  28.4235540   1.9569180 143.9096690  27.5556600   1.7247820
 144.0084680  28.6294060   2.7874140 144.0683890  29.2906130   4.6950810
 143.6314880  29.4706930   5.5274960 144.6361570  30.0480750   4.5532530
 144.9384250  22.1878930   5.5943030 145.3057290  22.1006330   6.4739050
 144.3695070  21.4245480   5.4949890 144.4900250  19.0988020   9.5001450
 143.5956300  19.0654780   9.8395160 145.0297800  19.2974810  10.2652700
 144.9939960  13.3736350   3.8484670 145.6416150  12.8233730   3.4079830
 145.4141800  13.6279500   4.6700480 144.7471960  13.5292020   6.5909990
 144.3986780  13.9855840   7.3568170 144.4159660  12.6349150   6.6732420
 146.3536330  26.7011620  10.7563180 146.3105960  26.3304530  11.6377640
 146.4847340  27.6389190  10.8965000 150.0542360  28.2571210   6.3572900
 149.8133720  28.5245770   5.4703420 150.9945000  28.4276940   6.4123760
 145.4192600  13.0568220   9.8660760 145.9675590  12.8756270   9.1026870
 145.4847910  12.2662330  10.4017070 146.1924360  29.6473870   7.8760960
 145.5984680  29.5158570   8.6151000 146.1848200  28.8112010   7.4103060
 145.8236590  27.0132250   6.8269000 145.0970650  26.3937540   6.7594950
 145.8845740  27.4072860   5.9567080 149.4281690  29.2277250   3.6118410
 149.9446710  28.6164610   3.0866670 150.0779070  29.7306030   4.1029420
 152.1677190  30.1185740   4.4387390 152.4555000  29.8640040   3.5620400
 152.6800410  29.5663100   5.0292960 152.2349550  31.0401840  11.8055590
 153.1616860  30.8046110  11.8491550 152.2199980  31.8673840  11.3241620
 149.4213160  13.7046590  11.5697470 149.1397430  14.2080190  10.8058290
 149.8032860  12.9068340  11.2039600 147.0571900   8.4888070 154.4347140
 147.3599940   7.5985810 154.2557360 147.8015490   9.0458290 154.2069390
 143.5422100   6.4042140 146.5288020 143.1650080   6.8929240 145.7972920
 143.7995170   7.0767420 147.1594550 149.1448430   3.3972100 151.5053380
 148.7405430   2.6849350 151.0099280 149.2311550   3.0525340 152.3941420
 149.6130130   7.0839660 153.6692590 149.3158420   6.4785130 152.9900370
 150.5629950   7.1216970 153.5581950 144.7286060   7.1632410 151.2234850
 144.3214140   7.3047000 150.3688450 145.6199070   6.8792570 151.0206060
 149.0007720  11.3778190 149.3357520 148.8250200  10.4613730 149.1225320
 148.1463460  11.7365480 149.5755320 147.5815230   5.9743990 147.9078620
 146.8077490   5.4341610 147.7477340 148.3109860   5.4550600 147.5696380
 147.6252630   5.6424370 151.5457430 148.1431300   4.8392630 151.4914320
 147.1736650   5.5803510 152.3874260 152.5122130   6.9090650 146.8184730
 152.8537830   7.6532880 146.3228050 151.6834840   7.2221770 147.1809560
 151.4812820   6.9904180 149.5900650 152.1683950   7.5373390 149.9708240
 150.6945240   7.5344910 149.6250260 143.6205220   2.6077000 145.0817730
 144.4900070   2.8901800 145.3653650 143.1295540   3.4212870 144.9666540
 150.7840030   3.9950210 149.2026010 151.2402810   4.8055460 149.4286200
 150.4328240   3.6773350 150.0344500 143.9876470  11.8204380 145.6479360
 144.3474110  12.4193720 144.9936630 143.8468810  12.3664270 146.4214390
 150.0045090   9.2035580 146.4653030 149.9955190   9.9365270 145.8497540
 149.0843450   8.9567160 146.5579990 145.6051730   4.4250470 147.2099790
 144.9979680   5.1649370 147.2195090 146.0801080   4.5149830 146.3837990
 152.9904690   9.2663820 145.1278220 153.0916670   9.0627810 144.1980200
 152.0906430   9.0122100 145.3326000 151.6322800  11.7850140 149.8225890
 151.8864300  11.7471530 148.9005260 150.6835280  11.6583470 149.8154140
 147.6157020   4.3861620 144.9588360 148.3820290   4.2742980 145.5213790
 147.6931710   3.6899590 144.3065130 147.1118490  11.9682080 152.7455790
 147.8480970  11.4197540 153.0164360 147.4959410  12.8338090 152.6061780
 143.9963970   8.0355650 148.6197300 143.0703750   8.2776790 148.6102710
 144.4620400   8.8629910 148.4982050 150.2220800  11.1412390 144.5681360
 151.0149410  11.4301220 144.1163150 149.7025150  10.7104560 143.8893840
 150.7398200   6.3615800 144.4323710 150.6348840   5.7468150 145.1585090
 150.5722420   5.8381690 143.6486720 149.6476050   4.3826750 146.9331000
 150.0692470   4.2166620 147.7762390 149.7726890   3.5726980 146.4386140
 152.1603690   3.4064360 144.1808100 152.6809350   2.6913380 143.8149250
 152.8072090   4.0450230 144.4808610 146.3647880   6.8603020 144.6996840
 146.8022750   7.4032690 145.3554420 146.8495610   6.0349970 144.7093180
 143.5793680   9.6492050 152.1517100 143.9096690   8.7813110 151.9195740
 144.0084680   9.8550570 152.9822060 148.1755600   7.9801060 149.8119070
 147.8751140   7.8566030 150.7122980 148.0693090   7.1209650 149.4034800
 143.9008320   3.0282870 151.2487610 143.2457160   2.7594510 150.6047310
 144.7386270   2.9187350 150.7989590 149.4281690  10.4533760 153.8066330
 149.9446710   9.8421120 153.2814590 150.0779070  10.9562540 154.2977340
 144.1066590  11.5563150 150.2313680 143.9388630  10.9233830 150.9295570
 143.2401100  11.7622550 149.8807870 145.7129290  10.2496380 147.6763820
 145.1876910  10.6304410 146.9725780 145.6373870  10.8747150 148.3973530
 148.3122260  12.1978760 146.5513070 149.0441080  11.9138040 146.0036960
 148.5715930  11.9592040 147.4412450 147.4737050   8.3143490 146.5559400
 146.8445930   8.7828590 147.1045230 147.5884880   7.4692710 146.9905590
 147.0770640   4.4547980 135.4645630 146.2455520   4.1996690 135.8642140
 147.6851620   4.5258750 136.2003550 147.0571900   8.4888070 135.6603650
 147.3599940   7.5985810 135.4813870 147.8015490   9.0458290 135.4325900
 149.0370660   5.2461480 137.0588500 148.7040040   5.8730400 137.7009570
 149.2137340   5.7723360 136.2790170 148.2489760   7.2142280 138.8737680
 148.8663760   7.8893360 138.5922130 147.3882880   7.6230260 138.7825180
 143.5422100   6.4042140 127.7544530 143.1650080   6.8929240 127.0229430
 143.7995170   7.0767420 128.3851060 149.1448430   3.3972100 132.7309890
 148.7405430   2.6849350 132.2355790 149.2311550   3.0525340 133.6197930
 149.6130130   7.0839660 134.8949100 149.3158420   6.4785130 134.2156880
 150.5629950   7.1216970 134.7838460 148.7048560   6.8221350 141.5456900
 147.8077090   7.0461320 141.7930300 148.7301430   6.9456290 140.5968300
 147.5319780   3.6934670 140.1214270 147.3927550   4.5657470 140.4901670
 146.6501140   3.3507480 139.9762210 149.3300130   9.6356370 142.3299420
 149.3015560  10.0399320 141.4627850 149.1665100   8.7066730 142.1671020
 143.4838430   5.4632220 136.0385180 143.5618850   5.5980990 135.0940900
 144.0980110   4.7548110 136.2313300 144.7286060   7.1632410 132.4491360
 144.3214140   7.3047000 131.5944960 145.6199070   6.8792570 132.2462570
 149.0007720  11.3778190 130.5614030 148.8250200  10.4613730 130.3481830
 148.1463460  11.7365480 130.8011830 143.5397950   6.5046390 138.5779640
 143.7028990   6.0351750 137.7599010 144.0050400   5.9969950 139.2428480
 145.1136930   5.8797820 140.7375450 144.7291720   5.2391490 141.3358410
 145.4249120   6.5833940 141.3070180 151.2634070   2.7274360 136.2184070
 151.6304200   2.2532930 136.9645410 151.0739130   3.6015930 136.5592410
 149.0533440   1.7683000 138.5368280 148.7490510   2.6474980 138.7618640
 150.0079900   1.8282790 138.5725720 147.5815230   5.9743990 129.1335130
 146.8077490   5.4341610 128.9733850 148.3109860   5.4550600 128.7952890
 147.6252630   5.6424370 132.7713940 148.1431300   4.8392630 132.7170830
 147.1736650   5.5803510 133.6130770 152.5122130   6.9090650 128.0441240
 152.8537830   7.6532880 127.5484560 151.6834840   7.2221770 128.4066070
 145.1097170   2.6085740 139.6839640 144.7512110   3.2739590 140.2712980
 144.8151730   1.7769290 140.0552260 148.3110290   3.0669980 142.5679190
 148.0110430   3.2127160 141.6707010 149.0821530   2.5075270 142.4752580
 151.4812820   6.9904180 130.8157160 152.1683950   7.5373390 131.1964750
 150.6945240   7.5344910 130.8506770 143.6205220   2.6077000 126.3074240
 144.4900070   2.8901800 126.5910160 143.1295540   3.4212870 126.1923050
 150.7840030   3.9950210 130.4282520 151.2402810   4.8055460 130.6542710
 150.4328240   3.6773350 131.2601010 143.9876470  11.8204380 126.8735870
 144.3474110  12.4193720 126.2193140 143.8468810  12.3664270 127.6470900
 143.9718330  10.0859240 141.3478270 144.0809450   9.1453980 141.2073660
 143.3198890  10.3513990 140.6992000 151.9630920   8.3575130 142.7476390
 151.6427790   7.6384370 143.2922080 151.2889280   9.0330200 142.8212450
 150.0045090   9.2035580 127.6909540 149.9955190   9.9365270 127.0754050
 149.0843450   8.9567160 127.7836500 145.6051730   4.4250470 128.4356300
 144.9979680   5.1649370 128.4451600 146.0801080   4.5149830 127.6094500
 152.9904690   9.2663820 126.3534730 153.0916670   9.0627810 125.4236710
 152.0906430   9.0122100 126.5582510 151.6322800  11.7850140 131.0482400
 151.8864300  11.7471530 130.1261770 150.6835280  11.6583470 131.0410650
 147.6157020   4.3861620 126.1844870 148.3820290   4.2742980 126.7470300
 147.6931710   3.6899590 125.5321640 147.1118490  11.9682080 133.9712300
 147.8480970  11.4197540 134.2420870 147.4959410  12.8338090 133.8318290
 143.9963970   8.0355650 129.8453810 143.0703750   8.2776790 129.8359220
 144.4620400   8.8629910 129.7238560 146.1176770  11.1528150 143.1597880
 146.9189500  11.4740200 143.5733280 145.6028590  10.7923730 143.8817790
 150.2220800  11.1412390 125.7937870 151.0149410  11.4301220 125.3419660
 149.7025150  10.7104560 125.1150350 143.8374580   3.6401610 142.1033930
 144.3413600   3.0608890 142.6750160 143.0982000   3.9241840 142.6410300
 150.7398200   6.3615800 125.6580220 150.6348840   5.7468150 126.3841600
 150.5722420   5.8381690 124.8743230 150.8912520   5.0472600 141.6369450
 150.1258190   5.6157600 141.5524120 151.0728480   4.7548810 140.7437680
 149.6476050   4.3826750 128.1587510 150.0692470   4.2166620 129.0018900
 149.7726890   3.5726980 127.6642650 152.1603690   3.4064360 125.4064610
 152.6809350   2.6913380 125.0405760 152.8072090   4.0450230 125.7065120
 151.4696760   4.7813240 138.6995610 151.8884870   5.6245970 138.5271850
 150.5505390   4.9185280 138.4702390 149.3204180  11.0866250 139.8153340
 148.7825270  11.8112310 139.4962040 149.5738140  10.6096590 139.0250680
 152.1766390  12.3217460 140.0739990 152.1025090  13.2252600 140.3812360
 151.2745230  12.0029360 140.0462060 146.3647880   6.8603020 125.9253350
 146.8022750   7.4032690 126.5810930 146.8495610   6.0349970 125.9349690
 143.5793680   9.6492050 133.3773610 143.9096690   8.7813110 133.1452250
 144.0084680   9.8550570 134.2078570 148.1755600   7.9801060 131.0375580
 147.8751140   7.8566030 131.9379490 148.0693090   7.1209650 130.6291310
 144.0683890  10.5162640 136.1155240 143.6314880  10.6963440 136.9479390
 144.6361570  11.2737260 135.9736960 143.9008320   3.0282870 132.4744120
 143.2457160   2.7594510 131.8303820 144.7386270   2.9187350 132.0246100
 144.9384250   3.4135440 137.0147460 145.3057290   3.3262840 137.8943480
 144.3695070   2.6501990 136.9154320 146.3536330   7.9268130 142.1767610
 146.3105960   7.5561040 143.0582070 146.4847340   8.8645700 142.3169430
 150.0542360   9.4827720 137.7777330 149.8133720   9.7502280 136.8907850
 150.9945000   9.6533450 137.8328190 146.1924360  10.8730380 139.2965390
 145.5984680  10.7415080 140.0355430 146.1848200  10.0368520 138.8307490
 145.8236590   8.2388760 138.2473430 145.0970650   7.6194050 138.1799380
 145.8845740   8.6329370 137.3771510 149.4281690  10.4533760 135.0322840
 149.9446710   9.8421120 134.5071100 150.0779070  10.9562540 135.5233850
 152.1677190  11.3442250 135.8591820 152.4555000  11.0896550 134.9824830
 152.6800410  10.7919610 136.4497390 144.1066590  11.5563150 131.4570190
 143.9388630  10.9233830 132.1552080 143.2401100  11.7622550 131.1064380
 145.7129290  10.2496380 128.9020330 145.1876910  10.6304410 128.1982290
 145.6373870  10.8747150 129.6230040 152.2349550  12.2658350 143.2260020
 153.1616860  12.0302620 143.2695980 152.2199980  13.0930350 142.7446050
 148.3122260  12.1978760 127.7769580 149.0441080  11.9138040 127.2293470
 148.5715930  11.9592040 128.6668960 147.4737050   8.3143490 127.7815910
 146.8445930   8.7828590 128.3301740 147.5884880   7.4692710 128.2162100
 147.0770640   4.4547980 116.6902140 146.2455520   4.1996690 117.0898650
 147.6851620   4.5258750 117.4260060 147.0571900   8.4888070 116.8860160
 147.3599940   7.5985810 116.7070380 147.8015490   9.0458290 116.6582410
 149.0370660   5.2461480 118.2845010 148.7040040   5.8730400 118.9266080
 149.2137340   5.7723360 117.5046680 148.2489760   7.2142280 120.0994190
 148.8663760   7.8893360 119.8178640 147.3882880   7.6230260 120.0081690
 143.5422100   6.4042140 108.9801040 143.1650080   6.8929240 108.2485940
 143.7995170   7.0767420 109.6107570 149.1448430   3.3972100 113.9566400
 148.7405430   2.6849350 113.4612300 149.2311550   3.0525340 114.8454440
 149.6130130   7.0839660 116.1205610 149.3158420   6.4785130 115.4413390
 150.5629950   7.1216970 116.0094970 148.7048560   6.8221350 122.7713410
 147.8077090   7.0461320 123.0186810 148.7301430   6.9456290 121.8224810
 147.5319780   3.6934670 121.3470780 147.3927550   4.5657470 121.7158180
 146.6501140   3.3507480 121.2018720 149.3300130   9.6356370 123.5555930
 149.3015560  10.0399320 122.6884360 149.1665100   8.7066730 123.3927530
 143.4838430   5.4632220 117.2641690 143.5618850   5.5980990 116.3197410
 144.0980110   4.7548110 117.4569810 144.7286060   7.1632410 113.6747870
 144.3214140   7.3047000 112.8201470 145.6199070   6.8792570 113.4719080
 149.0007720  11.3778190 111.7870540 148.8250200  10.4613730 111.5738340
 148.1463460  11.7365480 112.0268340 143.5397950   6.5046390 119.8036150
 143.7028990   6.0351750 118.9855520 144.0050400   5.9969950 120.4684990
 145.1136930   5.8797820 121.9631960 144.7291720   5.2391490 122.5614920
 145.4249120   6.5833940 122.5326690 151.2634070   2.7274360 117.4440580
 151.6304200   2.2532930 118.1901920 151.0739130   3.6015930 117.7848920
 149.0533440   1.7683000 119.7624790 148.7490510   2.6474980 119.9875150
 150.0079900   1.8282790 119.7982230 147.5815230   5.9743990 110.3591640
 146.8077490   5.4341610 110.1990360 148.3109860   5.4550600 110.0209400
 147.6252630   5.6424370 113.9970450 148.1431300   4.8392630 113.9427340
 147.1736650   5.5803510 114.8387280 152.5122130   6.9090650 109.2697750
 152.8537830   7.6532880 108.7741070 151.6834840   7.2221770 109.6322580
 145.1097170   2.6085740 120.9096150 144.7512110   3.2739590 121.4969490
 144.8151730   1.7769290 121.2808770 148.3110290   3.0669980 123.7935700
 148.0110430   3.2127160 122.8963520 149.0821530   2.5075270 123.7009090
 151.4812820   6.9904180 112.0413670 152.1683950   7.5373390 112.4221260
 150.6945240   7.5344910 112.0763280 143.6205220   2.6077000 107.5330750
 144.4900070   2.8901800 107.8166670 143.1295540   3.4212870 107.4179560
 150.7840030   3.9950210 111.6539030 151.2402810   4.8055460 111.8799220
 150.4328240   3.6773350 112.4857520 143.9876470  11.8204380 108.0992380
 144.3474110  12.4193720 107.4449650 143.8468810  12.3664270 108.8727410
 143.9718330  10.0859240 122.5734780 144.0809450   9.1453980 122.4330170
 143.3198890  10.3513990 121.9248510 151.9630920   8.3575130 123.9732900
 151.6427790   7.6384370 124.5178590 151.2889280   9.0330200 124.0468960
 150.0045090   9.2035580 108.9166050 149.9955190   9.9365270 108.3010560
 149.0843450   8.9567160 109.0093010 145.6051730   4.4250470 109.6612810
 144.9979680   5.1649370 109.6708110 146.0801080   4.5149830 108.8351010
 152.9904690   9.2663820 107.5791240 153.0916670   9.0627810 106.6493220
 152.0906430   9.0122100 107.7839020 151.6322800  11.7850140 112.2738910
 151.8864300  11.7471530 111.3518280 150.6835280  11.6583470 112.2667160
 147.6157020   4.3861620 107.4101380 148.3820290   4.2742980 107.9726810
 147.6931710   3.6899590 106.7578150 147.1118490  11.9682080 115.1968810
 147.8480970  11.4197540 115.4677380 147.4959410  12.8338090 115.0574800
 143.9963970   8.0355650 111.0710320 143.0703750   8.2776790 111.0615730
 144.4620400   8.8629910 110.9495070 146.1176770  11.1528150 124.3854390
 146.9189500  11.4740200 124.7989790 145.6028590  10.7923730 125.1074300
 150.2220800  11.1412390 107.0194380 151.0149410  11.4301220 106.5676170
 149.7025150  10.7104560 106.3406860 143.8374580   3.6401610 123.3290440
 144.3413600   3.0608890 123.9006670 143.0982000   3.9241840 123.8666810
 150.7398200   6.3615800 106.8836730 150.6348840   5.7468150 107.6098110
 150.5722420   5.8381690 106.0999740 150.8912520   5.0472600 122.8625960
 150.1258190   5.6157600 122.7780630 151.0728480   4.7548810 121.9694190
 149.6476050   4.3826750 109.3844020 150.0692470   4.2166620 110.2275410
 149.7726890   3.5726980 108.8899160 152.1603690   3.4064360 106.6321120
 152.6809350   2.6913380 106.2662270 152.8072090   4.0450230 106.9321630
 151.4696760   4.7813240 119.9252120 151.8884870   5.6245970 119.7528360
 150.5505390   4.9185280 119.6958900 149.3204180  11.0866250 121.0409850
 148.7825270  11.8112310 120.7218550 149.5738140  10.6096590 120.2507190
 152.1766390  12.3217460 121.2996500 152.1025090  13.2252600 121.6068870
 151.2745230  12.0029360 121.2718570 146.3647880   6.8603020 107.1509860
 146.8022750   7.4032690 107.8067440 146.8495610   6.0349970 107.1606200
 143.5793680   9.6492050 114.6030120 143.9096690   8.7813110 114.3708760
 144.0084680   9.8550570 115.4335080 148.1755600   7.9801060 112.2632090
 147.8751140   7.8566030 113.1636000 148.0693090   7.1209650 111.8547820
 144.0683890  10.5162640 117.3411750 143.6314880  10.6963440 118.1735900
 144.6361570  11.2737260 117.1993470 143.9008320   3.0282870 113.7000630
 143.2457160   2.7594510 113.0560330 144.7386270   2.9187350 113.2502610
 144.9384250   3.4135440 118.2403970 145.3057290   3.3262840 119.1199990
 144.3695070   2.6501990 118.1410830 146.3536330   7.9268130 123.4024120
 146.3105960   7.5561040 124.2838580 146.4847340   8.8645700 123.5425940
 150.0542360   9.4827720 119.0033840 149.8133720   9.7502280 118.1164360
 150.9945000   9.6533450 119.0584700 146.1924360  10.8730380 120.5221900
 145.5984680  10.7415080 121.2611940 146.1848200  10.0368520 120.0564000
 145.8236590   8.2388760 119.4729940 145.0970650   7.6194050 119.4055890
 145.8845740   8.6329370 118.6028020 149.4281690  10.4533760 116.2579350
 149.9446710   9.8421120 115.7327610 150.0779070  10.9562540 116.7490360
 152.1677190  11.3442250 117.0848330 152.4555000  11.0896550 116.2081340
 152.6800410  10.7919610 117.6753900 144.1066590  11.5563150 112.6826700
 143.9388630  10.9233830 113.3808590 143.2401100  11.7622550 112.3320890
 145.7129290  10.2496380 110.1276840 145.1876910  10.6304410 109.4238800
 145.6373870  10.8747150 110.8486550 152.2349550  12.2658350 124.4516530
 153.1616860  12.0302620 124.4952490 152.2199980  13.0930350 123.9702560
 148.3122260  12.1978760 109.0026090 149.0441080  11.9138040 108.4549980
 148.5715930  11.9592040 109.8925470 147.4737050   8.3143490 109.0072420
 146.8445930   8.7828590 109.5558250 147.5884880   7.4692710 109.4418610
 147.0770640   4.4547980  97.9158650 146.2455520   4.1996690  98.3155160
 147.6851620   4.5258750  98.6516570 147.0571900   8.4888070  98.1116670
 147.3599940   7.5985810  97.9326890 147.8015490   9.0458290  97.8838920
 149.0370660   5.2461480  99.5101520 148.7040040   5.8730400 100.1522590
 149.2137340   5.7723360  98.7303190 148.2489760   7.2142280 101.3250700
 148.8663760   7.8893360 101.0435150 147.3882880   7.6230260 101.2338200
 143.5422100   6.4042140  90.2057550 143.1650080   6.8929240  89.4742450
 143.7995170   7.0767420  90.8364080 149.1448430   3.3972100  95.1822910
 148.7405430   2.6849350  94.6868810 149.2311550   3.0525340  96.0710950
 149.6130130   7.0839660  97.3462120 149.3158420   6.4785130  96.6669900
 150.5629950   7.1216970  97.2351480 148.7048560   6.8221350 103.9969920
 147.8077090   7.0461320 104.2443320 148.7301430   6.9456290 103.0481320
 147.5319780   3.6934670 102.5727290 147.3927550   4.5657470 102.9414690
 146.6501140   3.3507480 102.4275230 149.3300130   9.6356370 104.7812440
 149.3015560  10.0399320 103.9140870 149.1665100   8.7066730 104.6184040
 143.4838430   5.4632220  98.4898200 143.5618850   5.5980990  97.5453920
 144.0980110   4.7548110  98.6826320 144.7286060   7.1632410  94.9004380
 144.3214140   7.3047000  94.0457980 145.6199070   6.8792570  94.6975590
 149.0007720  11.3778190  93.0127050 148.8250200  10.4613730  92.7994850
 148.1463460  11.7365480  93.2524850 143.5397950   6.5046390 101.0292660
 143.7028990   6.0351750 100.2112030 144.0050400   5.9969950 101.6941500
 145.1136930   5.8797820 103.1888470 144.7291720   5.2391490 103.7871430
 145.4249120   6.5833940 103.7583200 151.2634070   2.7274360  98.6697090
 151.6304200   2.2532930  99.4158430 151.0739130   3.6015930  99.0105430
 149.0533440   1.7683000 100.9881300 148.7490510   2.6474980 101.2131660
 150.0079900   1.8282790 101.0238740 147.5815230   5.9743990  91.5848150
 146.8077490   5.4341610  91.4246870 148.3109860   5.4550600  91.2465910
 147.6252630   5.6424370  95.2226960 148.1431300   4.8392630  95.1683850
 147.1736650   5.5803510  96.0643790 152.5122130   6.9090650  90.4954260
 152.8537830   7.6532880  89.9997580 151.6834840   7.2221770  90.8579090
 145.1097170   2.6085740 102.1352660 144.7512110   3.2739590 102.7226000
 144.8151730   1.7769290 102.5065280 148.3110290   3.0669980 105.0192210
 148.0110430   3.2127160 104.1220030 149.0821530   2.5075270 104.9265600
 151.4812820   6.9904180  93.2670180 152.1683950   7.5373390  93.6477770
 150.6945240   7.5344910  93.3019790 143.6205220   2.6077000  88.7587260
 144.4900070   2.8901800  89.0423180 143.1295540   3.4212870  88.6436070
 150.7840030   3.9950210  92.8795540 151.2402810   4.8055460  93.1055730
 150.4328240   3.6773350  93.7114030 143.9876470  11.8204380  89.3248890
 144.3474110  12.4193720  88.6706160 143.8468810  12.3664270  90.0983920
 143.9718330  10.0859240 103.7991290 144.0809450   9.1453980 103.6586680
 143.3198890  10.3513990 103.1505020 151.9630920   8.3575130 105.1989410
 151.6427790   7.6384370 105.7435100 151.2889280   9.0330200 105.2725470
 150.0045090   9.2035580  90.1422560 149.9955190   9.9365270  89.5267070
 149.0843450   8.9567160  90.2349520 145.6051730   4.4250470  90.8869320
 144.9979680   5.1649370  90.8964620 146.0801080   4.5149830  90.0607520
 152.9904690   9.2663820  88.8047750 153.0916670   9.0627810  87.8749730
 152.0906430   9.0122100  89.0095530 151.6322800  11.7850140  93.4995420
 151.8864300  11.7471530  92.5774790 150.6835280  11.6583470  93.4923670
 147.6157020   4.3861620  88.6357890 148.3820290   4.2742980  89.1983320
 147.6931710   3.6899590  87.9834660 147.1118490  11.9682080  96.4225320
 147.8480970  11.4197540  96.6933890 147.4959410  12.8338090  96.2831310
 143.9963970   8.0355650  92.2966830 143.0703750   8.2776790  92.2872240
 144.4620400   8.8629910  92.1751580 146.1176770  11.1528150 105.6110900
 146.9189500  11.4740200 106.0246300 145.6028590  10.7923730 106.3330810
 150.2220800  11.1412390  88.2450890 151.0149410  11.4301220  87.7932680
 149.7025150  10.7104560  87.5663370 143.8374580   3.6401610 104.5546950
 144.3413600   3.0608890 105.1263180 143.0982000   3.9241840 105.0923320
 150.7398200   6.3615800  88.1093240 150.6348840   5.7468150  88.8354620
 150.5722420   5.8381690  87.3256250 150.8912520   5.0472600 104.0882470
 150.1258190   5.6157600 104.0037140 151.0728480   4.7548810 103.1950700
 149.6476050   4.3826750  90.6100530 150.0692470   4.2166620  91.4531920
 149.7726890   3.5726980  90.1155670 152.1603690   3.4064360  87.8577630
 152.6809350   2.6913380  87.4918780 152.8072090   4.0450230  88.1578140
 151.4696760   4.7813240 101.1508630 151.8884870   5.6245970 100.9784870
 150.5505390   4.9185280 100.9215410 149.3204180  11.0866250 102.2666360
 148.7825270  11.8112310 101.9475060 149.5738140  10.6096590 101.4763700
 152.1766390  12.3217460 102.5253010 152.1025090  13.2252600 102.8325380
 151.2745230  12.0029360 102.4975080 146.3647880   6.8603020  88.3766370
 146.8022750   7.4032690  89.0323950 146.8495610   6.0349970  88.3862710
 143.5793680   9.6492050  95.8286630 143.9096690   8.7813110  95.5965270
 144.0084680   9.8550570  96.6591590 148.1755600   7.9801060  93.4888600
 147.8751140   7.8566030  94.3892510 148.0693090   7.1209650  93.0804330
 144.0683890  10.5162640  98.5668260 143.6314880  10.6963440  99.3992410
 144.6361570  11.2737260  98.4249980 143.9008320   3.0282870  94.9257140
 143.2457160   2.7594510  94.2816840 144.7386270   2.9187350  94.4759120
 144.9384250   3.4135440  99.4660480 145.3057290   3.3262840 100.3456500
 144.3695070   2.6501990  99.3667340 146.3536330   7.9268130 104.6280630
 146.3105960   7.5561040 105.5095090 146.4847340   8.8645700 104.7682450
 150.0542360   9.4827720 100.2290350 149.8133720   9.7502280  99.3420870
 150.9945000   9.6533450 100.2841210 146.1924360  10.8730380 101.7478410
 145.5984680  10.7415080 102.4868450 146.1848200  10.0368520 101.2820510
 145.8236590   8.2388760 100.6986450 145.0970650   7.6194050 100.6312400
 145.8845740   8.6329370  99.8284530 149.4281690  10.4533760  97.4835860
 149.9446710   9.8421120  96.9584120 150.0779070  10.9562540  97.9746870
 152.1677190  11.3442250  98.3104840 152.4555000  11.0896550  97.4337850
 152.6800410  10.7919610  98.9010410 144.1066590  11.5563150  93.9083210
 143.9388630  10.9233830  94.6065100 143.2401100  11.7622550  93.5577400
 145.7129290  10.2496380  91.3533350 145.1876910  10.6304410  90.6495310
 145.6373870  10.8747150  92.0743060 152.2349550  12.2658350 105.6773040
 153.1616860  12.0302620 105.7209000 152.2199980  13.0930350 105.1959070
 148.3122260  12.1978760  90.2282600 149.0441080  11.9138040  89.6806490
 148.5715930  11.9592040  91.1181980 147.4737050   8.3143490  90.2328930
 146.8445930   8.7828590  90.7814760 147.5884880   7.4692710  90.6675120
 147.0770640   4.4547980  79.1415160 146.2455520   4.1996690  79.5411670
 147.6851620   4.5258750  79.8773080 147.0571900   8.4888070  79.3373180
 147.3599940   7.5985810  79.1583400 147.8015490   9.0458290  79.1095430
 149.0370660   5.2461480  80.7358030 148.7040040   5.8730400  81.3779100
 149.2137340   5.7723360  79.9559700 148.2489760   7.2142280  82.5507210
 148.8663760   7.8893360  82.2691660 147.3882880   7.6230260  82.4594710
 143.5422100   6.4042140  71.4314060 143.1650080   6.8929240  70.6998960
 143.7995170   7.0767420  72.0620590 149.1448430   3.3972100  76.4079420
 148.7405430   2.6849350  75.9125320 149.2311550   3.0525340  77.2967460
 149.6130130   7.0839660  78.5718630 149.3158420   6.4785130  77.8926410
 150.5629950   7.1216970  78.4607990 148.7048560   6.8221350  85.2226430
 147.8077090   7.0461320  85.4699830 148.7301430   6.9456290  84.2737830
 147.5319780   3.6934670  83.7983800 147.3927550   4.5657470  84.1671200
 146.6501140   3.3507480  83.6531740 149.3300130   9.6356370  86.0068950
 149.3015560  10.0399320  85.1397380 149.1665100   8.7066730  85.8440550
 143.4838430   5.4632220  79.7154710 143.5618850   5.5980990  78.7710430
 144.0980110   4.7548110  79.9082830 144.7286060   7.1632410  76.1260890
 144.3214140   7.3047000  75.2714490 145.6199070   6.8792570  75.9232100
 149.0007720  11.3778190  74.2383560 148.8250200  10.4613730  74.0251360
 148.1463460  11.7365480  74.4781360 143.5397950   6.5046390  82.2549170
 143.7028990   6.0351750  81.4368540 144.0050400   5.9969950  82.9198010
 145.1136930   5.8797820  84.4144980 144.7291720   5.2391490  85.0127940
 145.4249120   6.5833940  84.9839710 151.2634070   2.7274360  79.8953600
 151.6304200   2.2532930  80.6414940 151.0739130   3.6015930  80.2361940
 149.0533440   1.7683000  82.2137810 148.7490510   2.6474980  82.4388170
 150.0079900   1.8282790  82.2495250 147.5815230   5.9743990  72.8104660
 146.8077490   5.4341610  72.6503380 148.3109860   5.4550600  72.4722420
 147.6252630   5.6424370  76.4483470 148.1431300   4.8392630  76.3940360
 147.1736650   5.5803510  77.2900300 152.5122130   6.9090650  71.7210770
 152.8537830   7.6532880  71.2254090 151.6834840   7.2221770  72.0835600
 145.1097170   2.6085740  83.3609170 144.7512110   3.2739590  83.9482510
 144.8151730   1.7769290  83.7321790 148.3110290   3.0669980  86.2448720
 148.0110430   3.2127160  85.3476540 149.0821530   2.5075270  86.1522110
 151.4812820   6.9904180  74.4926690 152.1683950   7.5373390  74.8734280
 150.6945240   7.5344910  74.5276300 143.6205220   2.6077000  69.9843770
 144.4900070   2.8901800  70.2679690 143.1295540   3.4212870  69.8692580
 150.7840030   3.9950210  74.1052050 151.2402810   4.8055460  74.3312240
 150.4328240   3.6773350  74.9370540 143.9876470  11.8204380  70.5505400
 144.3474110  12.4193720  69.8962670 143.8468810  12.3664270  71.3240430
 143.9718330  10.0859240  85.0247800 144.0809450   9.1453980  84.8843190
 143.3198890  10.3513990  84.3761530 151.9630920   8.3575130  86.4245920
 151.6427790   7.6384370  86.9691610 151.2889280   9.0330200  86.4981980
 150.0045090   9.2035580  71.3679070 149.9955190   9.9365270  70.7523580
 149.0843450   8.9567160  71.4606030 145.6051730   4.4250470  72.1125830
 144.9979680   5.1649370  72.1221130 146.0801080   4.5149830  71.2864030
 152.9904690   9.2663820  70.0304260 153.0916670   9.0627810  69.1006240
 152.0906430   9.0122100  70.2352040 151.6322800  11.7850140  74.7251930
 151.8864300  11.7471530  73.8031300 150.6835280  11.6583470  74.7180180
 147.6157020   4.3861620  69.8614400 148.3820290   4.2742980  70.4239830
 147.6931710   3.6899590  69.2091170 147.1118490  11.9682080  77.6481830
 147.8480970  11.4197540  77.9190400 147.4959410  12.8338090  77.5087820
 143.9963970   8.0355650  73.5223340 143.0703750   8.2776790  73.5128750
 144.4620400   8.8629910  73.4008090 146.1176770  11.1528150  86.8367410
 146.9189500  11.4740200  87.2502810 145.6028590  10.7923730  87.5587320
 150.2220800  11.1412390  69.4707400 151.0149410  11.4301220  69.0189190
 149.7025150  10.7104560  68.7919880 143.8374580   3.6401610  85.7803460
 144.3413600   3.0608890  86.3519690 143.0982000   3.9241840  86.3179830
 150.7398200   6.3615800  69.3349750 150.6348840   5.7468150  70.0611130
 150.5722420   5.8381690  68.5512760 150.8912520   5.0472600  85.3138980
 150.1258190   5.6157600  85.2293650 151.0728480   4.7548810  84.4207210
 149.6476050   4.3826750  71.8357040 150.0692470   4.2166620  72.6788430
 149.7726890   3.5726980  71.3412180 152.1603690   3.4064360  69.0834140
 152.6809350   2.6913380  68.7175290 152.8072090   4.0450230  69.3834650
 151.4696760   4.7813240  82.3765140 151.8884870   5.6245970  82.2041380
 150.5505390   4.9185280  82.1471920 149.3204180  11.0866250  83.4922870
 148.7825270  11.8112310  83.1731570 149.5738140  10.6096590  82.7020210
 152.1766390  12.3217460  83.7509520 152.1025090  13.2252600  84.0581890
 151.2745230  12.0029360  83.7231590 146.3647880   6.8603020  69.6022880
 146.8022750   7.4032690  70.2580460 146.8495610   6.0349970  69.6119220
 143.5793680   9.6492050  77.0543140 143.9096690   8.7813110  76.8221780
 144.0084680   9.8550570  77.8848100 148.1755600   7.9801060  74.7145110
 147.8751140   7.8566030  75.6149020 148.0693090   7.1209650  74.3060840
 144.0683890  10.5162640  79.7924770 143.6314880  10.6963440  80.6248920
 144.6361570  11.2737260  79.6506490 143.9008320   3.0282870  76.1513650
 143.2457160   2.7594510  75.5073350 144.7386270   2.9187350  75.7015630
 144.9384250   3.4135440  80.6916990 145.3057290   3.3262840  81.5713010
 144.3695070   2.6501990  80.5923850 146.3536330   7.9268130  85.8537140
 146.3105960   7.5561040  86.7351600 146.4847340   8.8645700  85.9938960
 150.0542360   9.4827720  81.4546860 149.8133720   9.7502280  80.5677380
 150.9945000   9.6533450  81.5097720 146.1924360  10.8730380  82.9734920
 145.5984680  10.7415080  83.7124960 146.1848200  10.0368520  82.5077020
 145.8236590   8.2388760  81.9242960 145.0970650   7.6194050  81.8568910
 145.8845740   8.6329370  81.0541040 149.4281690  10.4533760  78.7092370
 149.9446710   9.8421120  78.1840630 150.0779070  10.9562540  79.2003380
 152.1677190  11.3442250  79.5361350 152.4555000  11.0896550  78.6594360
 152.6800410  10.7919610  80.1266920 144.1066590  11.5563150  75.1339720
 143.9388630  10.9233830  75.8321610 143.2401100  11.7622550  74.7833910
 145.7129290  10.2496380  72.5789860 145.1876910  10.6304410  71.8751820
 145.6373870  10.8747150  73.2999570 152.2349550  12.2658350  86.9029550
 153.1616860  12.0302620  86.9465510 152.2199980  13.0930350  86.4215580
 148.3122260  12.1978760  71.4539110 149.0441080  11.9138040  70.9063000
 148.5715930  11.9592040  72.3438490 147.4737050   8.3143490  71.4585440
 146.8445930   8.7828590  72.0071270 147.5884880   7.4692710  71.8931630
 147.0770640   4.4547980  60.3671670 146.2455520   4.1996690  60.7668180
 147.6851620   4.5258750  61.1029590 147.0571900   8.4888070  60.5629690
 147.3599940   7.5985810  60.3839910 147.8015490   9.0458290  60.3351940
 149.0370660   5.2461480  61.9614540 148.7040040   5.8730400  62.6035610
 149.2137340   5.7723360  61.1816210 148.2489760   7.2142280  63.7763720
 148.8663760   7.8893360  63.4948170 147.3882880   7.6230260  63.6851220
 143.5422100   6.4042140  52.6570570 143.1650080   6.8929240  51.9255470
 143.7995170   7.0767420  53.2877100 149.1448430   3.3972100  57.6335930
 148.7405430   2.6849350  57.1381830 149.2311550   3.0525340  58.5223970
 149.6130130   7.0839660  59.7975140 149.3158420   6.4785130  59.1182920
 150.5629950   7.1216970  59.6864500 148.7048560   6.8221350  66.4482940
 147.8077090   7.0461320  66.6956340 148.7301430   6.9456290  65.4994340
 147.5319780   3.6934670  65.0240310 147.3927550   4.5657470  65.3927710
 146.6501140   3.3507480  64.8788250 149.3300130   9.6356370  67.2325460
 149.3015560  10.0399320  66.3653890 149.1665100   8.7066730  67.0697060
 143.4838430   5.4632220  60.9411220 143.5618850   5.5980990  59.9966940
 144.0980110   4.7548110  61.1339340 144.7286060   7.1632410  57.3517400
 144.3214140   7.3047000  56.4971000 145.6199070   6.8792570  57.1488610
 149.0007720  11.3778190  55.4640070 148.8250200  10.4613730  55.2507870
 148.1463460  11.7365480  55.7037870 143.5397950   6.5046390  63.4805680
 143.7028990   6.0351750  62.6625050 144.0050400   5.9969950  64.1454520
 145.1136930   5.8797820  65.6401490 144.7291720   5.2391490  66.2384450
 145.4249120   6.5833940  66.2096220 151.2634070   2.7274360  61.1210110
 151.6304200   2.2532930  61.8671450 151.0739130   3.6015930  61.4618450
 149.0533440   1.7683000  63.4394320 148.7490510   2.6474980  63.6644680
 150.0079900   1.8282790  63.4751760 147.5815230   5.9743990  54.0361170
 146.8077490   5.4341610  53.8759890 148.3109860   5.4550600  53.6978930
 147.6252630   5.6424370  57.6739980 148.1431300   4.8392630  57.6196870
 147.1736650   5.5803510  58.5156810 152.5122130   6.9090650  52.9467280
 152.8537830   7.6532880  52.4510600 151.6834840   7.2221770  53.3092110
 145.1097170   2.6085740  64.5865680 144.7512110   3.2739590  65.1739020
 144.8151730   1.7769290  64.9578300 148.3110290   3.0669980  67.4705230
 148.0110430   3.2127160  66.5733050 149.0821530   2.5075270  67.3778620
 151.4812820   6.9904180  55.7183200 152.1683950   7.5373390  56.0990790
 150.6945240   7.5344910  55.7532810 143.6205220   2.6077000  51.2100280
 144.4900070   2.8901800  51.4936200 143.1295540   3.4212870  51.0949090
 150.7840030   3.9950210  55.3308560 151.2402810   4.8055460  55.5568750
 150.4328240   3.6773350  56.1627050 143.9876470  11.8204380  51.7761910
 144.3474110  12.4193720  51.1219180 143.8468810  12.3664270  52.5496940
 143.9718330  10.0859240  66.2504310 144.0809450   9.1453980  66.1099700
 143.3198890  10.3513990  65.6018040 151.9630920   8.3575130  67.6502430
 151.6427790   7.6384370  68.1948120 151.2889280   9.0330200  67.7238490
 150.0045090   9.2035580  52.5935580 149.9955190   9.9365270  51.9780090
 149.0843450   8.9567160  52.6862540 145.6051730   4.4250470  53.3382340
 144.9979680   5.1649370  53.3477640 146.0801080   4.5149830  52.5120540
 152.9904690   9.2663820  51.2560770 153.0916670   9.0627810  50.3262750
 152.0906430   9.0122100  51.4608550 151.6322800  11.7850140  55.9508440
 151.8864300  11.7471530  55.0287810 150.6835280  11.6583470  55.9436690
 147.6157020   4.3861620  51.0870910 148.3820290   4.2742980  51.6496340
 147.6931710   3.6899590  50.4347680 147.1118490  11.9682080  58.8738340
 147.8480970  11.4197540  59.1446910 147.4959410  12.8338090  58.7344330
 143.9963970   8.0355650  54.7479850 143.0703750   8.2776790  54.7385260
 144.4620400   8.8629910  54.6264600 146.1176770  11.1528150  68.0623920
 146.9189500  11.4740200  68.4759320 145.6028590  10.7923730  68.7843830
 150.2220800  11.1412390  50.6963910 151.0149410  11.4301220  50.2445700
 149.7025150  10.7104560  50.0176390 143.8374580   3.6401610  67.0059970
 144.3413600   3.0608890  67.5776200 143.0982000   3.9241840  67.5436340
 150.7398200   6.3615800  50.5606260 150.6348840   5.7468150  51.2867640
 150.5722420   5.8381690  49.7769270 150.8912520   5.0472600  66.5395490
 150.1258190   5.6157600  66.4550160 151.0728480   4.7548810  65.6463720
 149.6476050   4.3826750  53.0613550 150.0692470   4.2166620  53.9044940
 149.7726890   3.5726980  52.5668690 152.1603690   3.4064360  50.3090650
 152.6809350   2.6913380  49.9431800 152.8072090   4.0450230  50.6091160
 151.4696760   4.7813240  63.6021650 151.8884870   5.6245970  63.4297890
 150.5505390   4.9185280  63.3728430 149.3204180  11.0866250  64.7179380
 148.7825270  11.8112310  64.3988080 149.5738140  10.6096590  63.9276720
 152.1766390  12.3217460  64.9766030 152.1025090  13.2252600  65.2838400
 151.2745230  12.0029360  64.9488100 146.3647880   6.8603020  50.8279390
 146.8022750   7.4032690  51.4836970 146.8495610   6.0349970  50.8375730
 143.5793680   9.6492050  58.2799650 143.9096690   8.7813110  58.0478290
 144.0084680   9.8550570  59.1104610 148.1755600   7.9801060  55.9401620
 147.8751140   7.8566030  56.8405530 148.0693090   7.1209650  55.5317350
 144.0683890  10.5162640  61.0181280 143.6314880  10.6963440  61.8505430
 144.6361570  11.2737260  60.8763000 143.9008320   3.0282870  57.3770160
 143.2457160   2.7594510  56.7329860 144.7386270   2.9187350  56.9272140
 144.9384250   3.4135440  61.9173500 145.3057290   3.3262840  62.7969520
 144.3695070   2.6501990  61.8180360 146.3536330   7.9268130  67.0793650
 146.3105960   7.5561040  67.9608110 146.4847340   8.8645700  67.2195470
 150.0542360   9.4827720  62.6803370 149.8133720   9.7502280  61.7933890
 150.9945000   9.6533450  62.7354230 146.1924360  10.8730380  64.1991430
 145.5984680  10.7415080  64.9381470 146.1848200  10.0368520  63.7333530
 145.8236590   8.2388760  63.1499470 145.0970650   7.6194050  63.0825420
 145.8845740   8.6329370  62.2797550 149.4281690  10.4533760  59.9348880
 149.9446710   9.8421120  59.4097140 150.0779070  10.9562540  60.4259890
 152.1677190  11.3442250  60.7617860 152.4555000  11.0896550  59.8850870
 152.6800410  10.7919610  61.3523430 144.1066590  11.5563150  56.3596230
 143.9388630  10.9233830  57.0578120 143.2401100  11.7622550  56.0090420
 145.7129290  10.2496380  53.8046370 145.1876910  10.6304410  53.1008330
 145.6373870  10.8747150  54.5256080 152.2349550  12.2658350  68.1286060
 153.1616860  12.0302620  68.1722020 152.2199980  13.0930350  67.6472090
 148.3122260  12.1978760  52.6795620 149.0441080  11.9138040  52.1319510
 148.5715930  11.9592040  53.5695000 147.4737050   8.3143490  52.6841950
 146.8445930   8.7828590  53.2327780 147.5884880   7.4692710  53.1188140
 147.0770640   4.4547980  41.5928180 146.2455520   4.1996690  41.9924690
 147.6851620   4.5258750  42.3286100 147.0571900   8.4888070  41.7886200
 147.3599940   7.5985810  41.6096420 147.8015490   9.0458290  41.5608450
 149.0370660   5.2461480  43.1871050 148.7040040   5.8730400  43.8292120
 149.2137340   5.7723360  42.4072720 148.2489760   7.2142280  45.0020230
 148.8663760   7.8893360  44.7204680 147.3882880   7.6230260  44.9107730
 143.5422100   6.4042140  33.8827080 143.1650080   6.8929240  33.1511980
 143.7995170   7.0767420  34.5133610 149.1448430   3.3972100  38.8592440
 148.7405430   2.6849350  38.3638340 149.2311550   3.0525340  39.7480480
 149.6130130   7.0839660  41.0231650 149.3158420   6.4785130  40.3439430
 150.5629950   7.1216970  40.9121010 148.7048560   6.8221350  47.6739450
 147.8077090   7.0461320  47.9212850 148.7301430   6.9456290  46.7250850
 147.5319780   3.6934670  46.2496820 147.3927550   4.5657470  46.6184220
 146.6501140   3.3507480  46.1044760 149.3300130   9.6356370  48.4581970
 149.3015560  10.0399320  47.5910400 149.1665100   8.7066730  48.2953570
 143.4838430   5.4632220  42.1667730 143.5618850   5.5980990  41.2223450
 144.0980110   4.7548110  42.3595850 144.7286060   7.1632410  38.5773910
 144.3214140   7.3047000  37.7227510 145.6199070   6.8792570  38.3745120
 149.0007720  11.3778190  36.6896580 148.8250200  10.4613730  36.4764380
 148.1463460  11.7365480  36.9294380 143.5397950   6.5046390  44.7062190
 143.7028990   6.0351750  43.8881560 144.0050400   5.9969950  45.3711030
 145.1136930   5.8797820  46.8658000 144.7291720   5.2391490  47.4640960
 145.4249120   6.5833940  47.4352730 151.2634070   2.7274360  42.3466620
 151.6304200   2.2532930  43.0927960 151.0739130   3.6015930  42.6874960
 149.0533440   1.7683000  44.6650830 148.7490510   2.6474980  44.8901190
 150.0079900   1.8282790  44.7008270 147.5815230   5.9743990  35.2617680
 146.8077490   5.4341610  35.1016400 148.3109860   5.4550600  34.9235440
 147.6252630   5.6424370  38.8996490 148.1431300   4.8392630  38.8453380
 147.1736650   5.5803510  39.7413320 152.5122130   6.9090650  34.1723790
 152.8537830   7.6532880  33.6767110 151.6834840   7.2221770  34.5348620
 145.1097170   2.6085740  45.8122190 144.7512110   3.2739590  46.3995530
 144.8151730   1.7769290  46.1834810 148.3110290   3.0669980  48.6961740
 148.0110430   3.2127160  47.7989560 149.0821530   2.5075270  48.6035130
 151.4812820   6.9904180  36.9439710 152.1683950   7.5373390  37.3247300
 150.6945240   7.5344910  36.9789320 143.6205220   2.6077000  32.4356790
 144.4900070   2.8901800  32.7192710 143.1295540   3.4212870  32.3205600
 150.7840030   3.9950210  36.5565070 151.2402810   4.8055460  36.7825260
 150.4328240   3.6773350  37.3883560 143.9876470  11.8204380  33.0018420
 144.3474110  12.4193720  32.3475690 143.8468810  12.3664270  33.7753450
 143.9718330  10.0859240  47.4760820 144.0809450   9.1453980  47.3356210
 143.3198890  10.3513990  46.8274550 151.9630920   8.3575130  48.8758940
 151.6427790   7.6384370  49.4204630 151.2889280   9.0330200  48.9495000
 150.0045090   9.2035580  33.8192090 149.9955190   9.9365270  33.2036600
 149.0843450   8.9567160  33.9119050 145.6051730   4.4250470  34.5638850
 144.9979680   5.1649370  34.5734150 146.0801080   4.5149830  33.7377050
 152.9904690   9.2663820  32.4817280 153.0916670   9.0627810  31.5519260
 152.0906430   9.0122100  32.6865060 151.6322800  11.7850140  37.1764950
 151.8864300  11.7471530  36.2544320 150.6835280  11.6583470  37.1693200
 147.6157020   4.3861620  32.3127420 148.3820290   4.2742980  32.8752850
 147.6931710   3.6899590  31.6604190 147.1118490  11.9682080  40.0994850
 147.8480970  11.4197540  40.3703420 147.4959410  12.8338090  39.9600840
 143.9963970   8.0355650  35.9736360 143.0703750   8.2776790  35.9641770
 144.4620400   8.8629910  35.8521110 146.1176770  11.1528150  49.2880430
 146.9189500  11.4740200  49.7015830 145.6028590  10.7923730  50.0100340
 150.2220800  11.1412390  31.9220420 151.0149410  11.4301220  31.4702210
 149.7025150  10.7104560  31.2432900 143.8374580   3.6401610  48.2316480
 144.3413600   3.0608890  48.8032710 143.0982000   3.9241840  48.7692850
 150.7398200   6.3615800  31.7862770 150.6348840   5.7468150  32.5124150
 150.5722420   5.8381690  31.0025780 150.8912520   5.0472600  47.7652000
 150.1258190   5.6157600  47.6806670 151.0728480   4.7548810  46.8720230
 149.6476050   4.3826750  34.2870060 150.0692470   4.2166620  35.1301450
 149.7726890   3.5726980  33.7925200 152.1603690   3.4064360  31.5347160
 152.6809350   2.6913380  31.1688310 152.8072090   4.0450230  31.8347670
 151.4696760   4.7813240  44.8278160 151.8884870   5.6245970  44.6554400
 150.5505390   4.9185280  44.5984940 149.3204180  11.0866250  45.9435890
 148.7825270  11.8112310  45.6244590 149.5738140  10.6096590  45.1533230
 152.1766390  12.3217460  46.2022540 152.1025090  13.2252600  46.5094910
 151.2745230  12.0029360  46.1744610 146.3647880   6.8603020  32.0535900
 146.8022750   7.4032690  32.7093480 146.8495610   6.0349970  32.0632240
 143.5793680   9.6492050  39.5056160 143.9096690   8.7813110  39.2734800
 144.0084680   9.8550570  40.3361120 148.1755600   7.9801060  37.1658130
 147.8751140   7.8566030  38.0662040 148.0693090   7.1209650  36.7573860
 144.0683890  10.5162640  42.2437790 143.6314880  10.6963440  43.0761940
 144.6361570  11.2737260  42.1019510 143.9008320   3.0282870  38.6026670
 143.2457160   2.7594510  37.9586370 144.7386270   2.9187350  38.1528650
 144.9384250   3.4135440  43.1430010 145.3057290   3.3262840  44.0226030
 144.3695070   2.6501990  43.0436870 146.3536330   7.9268130  48.3050160
 146.3105960   7.5561040  49.1864620 146.4847340   8.8645700  48.4451980
 150.0542360   9.4827720  43.9059880 149.8133720   9.7502280  43.0190400
 150.9945000   9.6533450  43.9610740 146.1924360  10.8730380  45.4247940
 145.5984680  10.7415080  46.1637980 146.1848200  10.0368520  44.9590040
 145.8236590   8.2388760  44.3755980 145.0970650   7.6194050  44.3081930
 145.8845740   8.6329370  43.5054060 149.4281690  10.4533760  41.1605390
 149.9446710   9.8421120  40.6353650 150.0779070  10.9562540  41.6516400
 152.1677190  11.3442250  41.9874370 152.4555000  11.0896550  41.1107380
 152.6800410  10.7919610  42.5779940 144.1066590  11.5563150  37.5852740
 143.9388630  10.9233830  38.2834630 143.2401100  11.7622550  37.2346930
 145.7129290  10.2496380  35.0302880 145.1876910  10.6304410  34.3264840
 145.6373870  10.8747150  35.7512590 152.2349550  12.2658350  49.3542570
 153.1616860  12.0302620  49.3978530 152.2199980  13.0930350  48.8728600
 148.3122260  12.1978760  33.9052130 149.0441080  11.9138040  33.3576020
 148.5715930  11.9592040  34.7951510 147.4737050   8.3143490  33.9098460
 146.8445930   8.7828590  34.4584290 147.5884880   7.4692710  34.3444650
 147.0770640   4.4547980  22.8184690 146.2455520   4.1996690  23.2181200
 147.6851620   4.5258750  23.5542610 147.0571900   8.4888070  23.0142710
 147.3599940   7.5985810  22.8352930 147.8015490   9.0458290  22.7864960
 149.0370660   5.2461480  24.4127560 148.7040040   5.8730400  25.0548630
 149.2137340   5.7723360  23.6329230 148.2489760   7.2142280  26.2276740
 148.8663760   7.8893360  25.9461190 147.3882880   7.6230260  26.1364240
 143.5422100   6.4042140  15.1083590 143.1650080   6.8929240  14.3768490
 143.7995170   7.0767420  15.7390120 149.1448430   3.3972100  20.0848950
 148.7405430   2.6849350  19.5894850 149.2311550   3.0525340  20.9736990
 149.6130130   7.0839660  22.2488160 149.3158420   6.4785130  21.5695940
 150.5629950   7.1216970  22.1377520 148.7048560   6.8221350  28.8995960
 147.8077090   7.0461320  29.1469360 148.7301430   6.9456290  27.9507360
 147.5319780   3.6934670  27.4753330 147.3927550   4.5657470  27.8440730
 146.6501140   3.3507480  27.3301270 149.3300130   9.6356370  29.6838480
 149.3015560  10.0399320  28.8166910 149.1665100   8.7066730  29.5210080
 143.4838430   5.4632220  23.3924240 143.5618850   5.5980990  22.4479960
 144.0980110   4.7548110  23.5852360 144.7286060   7.1632410  19.8030420
 144.3214140   7.3047000  18.9484020 145.6199070   6.8792570  19.6001630
 149.0007720  11.3778190  17.9153090 148.8250200  10.4613730  17.7020890
 148.1463460  11.7365480  18.1550890 143.5397950   6.5046390  25.9318700
 143.7028990   6.0351750  25.1138070 144.0050400   5.9969950  26.5967540
 145.1136930   5.8797820  28.0914510 144.7291720   5.2391490  28.6897470
 145.4249120   6.5833940  28.6609240 151.2634070   2.7274360  23.5723130
 151.6304200   2.2532930  24.3184470 151.0739130   3.6015930  23.9131470
 149.0533440   1.7683000  25.8907340 148.7490510   2.6474980  26.1157700
 150.0079900   1.8282790  25.9264780 147.5815230   5.9743990  16.4874190
 146.8077490   5.4341610  16.3272910 148.3109860   5.4550600  16.1491950
 147.6252630   5.6424370  20.1253000 148.1431300   4.8392630  20.0709890
 147.1736650   5.5803510  20.9669830 152.5122130   6.9090650  15.3980300
 152.8537830   7.6532880  14.9023620 151.6834840   7.2221770  15.7605130
 145.1097170   2.6085740  27.0378700 144.7512110   3.2739590  27.6252040
 144.8151730   1.7769290  27.4091320 148.3110290   3.0669980  29.9218250
 148.0110430   3.2127160  29.0246070 149.0821530   2.5075270  29.8291640
 151.4812820   6.9904180  18.1696220 152.1683950   7.5373390  18.5503810
 150.6945240   7.5344910  18.2045830 143.6205220   2.6077000  13.6613300
 144.4900070   2.8901800  13.9449220 143.1295540   3.4212870  13.5462110
 150.7840030   3.9950210  17.7821580 151.2402810   4.8055460  18.0081770
 150.4328240   3.6773350  18.6140070 143.9876470  11.8204380  14.2274930
 144.3474110  12.4193720  13.5732200 143.8468810  12.3664270  15.0009960
 143.9718330  10.0859240  28.7017330 144.0809450   9.1453980  28.5612720
 143.3198890  10.3513990  28.0531060 151.9630920   8.3575130  30.1015450
 151.6427790   7.6384370  30.6461140 151.2889280   9.0330200  30.1751510
 150.0045090   9.2035580  15.0448600 149.9955190   9.9365270  14.4293110
 149.0843450   8.9567160  15.1375560 145.6051730   4.4250470  15.7895360
 144.9979680   5.1649370  15.7990660 146.0801080   4.5149830  14.9633560
 152.9904690   9.2663820  13.7073790 153.0916670   9.0627810  12.7775770
 152.0906430   9.0122100  13.9121570 151.6322800  11.7850140  18.4021460
 151.8864300  11.7471530  17.4800830 150.6835280  11.6583470  18.3949710
 147.6157020   4.3861620  13.5383930 148.3820290   4.2742980  14.1009360
 147.6931710   3.6899590  12.8860700 147.1118490  11.9682080  21.3251360
 147.8480970  11.4197540  21.5959930 147.4959410  12.8338090  21.1857350
 143.9963970   8.0355650  17.1992870 143.0703750   8.2776790  17.1898280
 144.4620400   8.8629910  17.0777620 146.1176770  11.1528150  30.5136940
 146.9189500  11.4740200  30.9272340 145.6028590  10.7923730  31.2356850
 150.2220800  11.1412390  13.1476930 151.0149410  11.4301220  12.6958720
 149.7025150  10.7104560  12.4689410 143.8374580   3.6401610  29.4572990
 144.3413600   3.0608890  30.0289220 143.0982000   3.9241840  29.9949360
 150.7398200   6.3615800  13.0119280 150.6348840   5.7468150  13.7380660
 150.5722420   5.8381690  12.2282290 150.8912520   5.0472600  28.9908510
 150.1258190   5.6157600  28.9063180 151.0728480   4.7548810  28.0976740
 149.6476050   4.3826750  15.5126570 150.0692470   4.2166620  16.3557960
 149.7726890   3.5726980  15.0181710 152.1603690   3.4064360  12.7603670
 152.6809350   2.6913380  12.3944820 152.8072090   4.0450230  13.0604180
 151.4696760   4.7813240  26.0534670 151.8884870   5.6245970  25.8810910
 150.5505390   4.9185280  25.8241450 149.3204180  11.0866250  27.1692400
 148.7825270  11.8112310  26.8501100 149.5738140  10.6096590  26.3789740
 152.1766390  12.3217460  27.4279050 152.1025090  13.2252600  27.7351420
 151.2745230  12.0029360  27.4001120 146.3647880   6.8603020  13.2792410
 146.8022750   7.4032690  13.9349990 146.8495610   6.0349970  13.2888750
 143.5793680   9.6492050  20.7312670 143.9096690   8.7813110  20.4991310
 144.0084680   9.8550570  21.5617630 148.1755600   7.9801060  18.3914640
 147.8751140   7.8566030  19.2918550 148.0693090   7.1209650  17.9830370
 144.0683890  10.5162640  23.4694300 143.6314880  10.6963440  24.3018450
 144.6361570  11.2737260  23.3276020 143.9008320   3.0282870  19.8283180
 143.2457160   2.7594510  19.1842880 144.7386270   2.9187350  19.3785160
 144.9384250   3.4135440  24.3686520 145.3057290   3.3262840  25.2482540
 144.3695070   2.6501990  24.2693380 146.3536330   7.9268130  29.5306670
 146.3105960   7.5561040  30.4121130 146.4847340   8.8645700  29.6708490
 150.0542360   9.4827720  25.1316390 149.8133720   9.7502280  24.2446910
 150.9945000   9.6533450  25.1867250 146.1924360  10.8730380  26.6504450
 145.5984680  10.7415080  27.3894490 146.1848200  10.0368520  26.1846550
 145.8236590   8.2388760  25.6012490 145.0970650   7.6194050  25.5338440
 145.8845740   8.6329370  24.7310570 149.4281690  10.4533760  22.3861900
 149.9446710   9.8421120  21.8610160 150.0779070  10.9562540  22.8772910
 152.1677190  11.3442250  23.2130880 152.4555000  11.0896550  22.3363890
 152.6800410  10.7919610  23.8036450 144.1066590  11.5563150  18.8109250
 143.9388630  10.9233830  19.5091140 143.2401100  11.7622550  18.4603440
 145.7129290  10.2496380  16.2559390 145.1876910  10.6304410  15.5521350
 145.6373870  10.8747150  16.9769100 152.2349550  12.2658350  30.5799080
 153.1616860  12.0302620  30.6235040 152.2199980  13.0930350  30.0985110
 148.3122260  12.1978760  15.1308640 149.0441080  11.9138040  14.5832530
 148.5715930  11.9592040  16.0208020 147.4737050   8.3143490  15.1354970
 146.8445930   8.7828590  15.6840800 147.5884880   7.4692710  15.5701160
 147.0770640   4.4547980   4.0441200 146.2455520   4.1996690   4.4437710
 147.6851620   4.5258750   4.7799120 147.0571900   8.4888070   4.2399220
 147.3599940   7.5985810   4.0609440 147.8015490   9.0458290   4.0121470
 149.0370660   5.2461480   5.6384070 148.7040040   5.8730400   6.2805140
 149.2137340   5.7723360   4.8585740 148.2489760   7.2142280   7.4533250
 148.8663760   7.8893360   7.1717700 147.3882880   7.6230260   7.3620750
 149.6130130   7.0839660   3.4744670 149.3158420   6.4785130   2.7952450
 150.5629950   7.1216970   3.3634030 148.7048560   6.8221350  10.1252470
 147.8077090   7.0461320  10.3725870 148.7301430   6.9456290   9.1763870
 147.5319780   3.6934670   8.7009840 147.3927550   4.5657470   9.0697240
 146.6501140   3.3507480   8.5557780 149.3300130   9.6356370  10.9094990
 149.3015560  10.0399320  10.0423420 149.1665100   8.7066730  10.7466590
 143.4838430   5.4632220   4.6180750 143.5618850   5.5980990   3.6736470
 144.0980110   4.7548110   4.8108870 143.5397950   6.5046390   7.1575210
 143.7028990   6.0351750   6.3394580 144.0050400   5.9969950   7.8224050
 145.1136930   5.8797820   9.3171020 144.7291720   5.2391490   9.9153980
 145.4249120   6.5833940   9.8865750 151.2634070   2.7274360   4.7979640
 151.6304200   2.2532930   5.5440980 151.0739130   3.6015930   5.1387980
 149.0533440   1.7683000   7.1163850 148.7490510   2.6474980   7.3414210
 150.0079900   1.8282790   7.1521290 145.1097170   2.6085740   8.2635210
 144.7512110   3.2739590   8.8508550 144.8151730   1.7769290   8.6347830
 148.3110290   3.0669980  11.1474760 148.0110430   3.2127160  10.2502580
 149.0821530   2.5075270  11.0548150 143.9718330  10.0859240   9.9273840
 144.0809450   9.1453980   9.7869230 143.3198890  10.3513990   9.2787570
 151.9630920   8.3575130  11.3271960 151.6427790   7.6384370  11.8717650
 151.2889280   9.0330200  11.4008020 147.1118490  11.9682080   2.5507870
 147.8480970  11.4197540   2.8216440 147.4959410  12.8338090   2.4113860
 146.1176770  11.1528150  11.7393450 146.9189500  11.4740200  12.1528850
 145.6028590  10.7923730  12.4613360 143.8374580   3.6401610  10.6829500
 144.3413600   3.0608890  11.2545730 143.0982000   3.9241840  11.2205870
 150.8912520   5.0472600  10.2165020 150.1258190   5.6157600  10.1319690
 151.0728480   4.7548810   9.3233250 151.4696760   4.7813240   7.2791180
 151.8884870   5.6245970   7.1067420 150.5505390   4.9185280   7.0497960
 149.3204180  11.0866250   8.3948910 148.7825270  11.8112310   8.0757610
 149.5738140  10.6096590   7.6046250 152.1766390  12.3217460   8.6535560
 152.1025090  13.2252600   8.9607930 151.2745230  12.0029360   8.6257630
 143.5793680   9.6492050   1.9569180 143.9096690   8.7813110   1.7247820
 144.0084680   9.8550570   2.7874140 144.0683890  10.5162640   4.6950810
 143.6314880  10.6963440   5.5274960 144.6361570  11.2737260   4.5532530
 144.9384250   3.4135440   5.5943030 145.3057290   3.3262840   6.4739050
 144.3695070   2.6501990   5.4949890 146.3536330   7.9268130  10.7563180
 146.3105960   7.5561040  11.6377640 146.4847340   8.8645700  10.8965000
 150.0542360   9.4827720   6.3572900 149.8133720   9.7502280   5.4703420
 150.9945000   9.6533450   6.4123760 146.1924360  10.8730380   7.8760960
 145.5984680  10.7415080   8.6151000 146.1848200  10.0368520   7.4103060
 145.8236590   8.2388760   6.8269000 145.0970650   7.6194050   6.7594950
 145.8845740   8.6329370   5.9567080 149.4281690  10.4533760   3.6118410
 149.9446710   9.8421120   3.0866670 150.0779070  10.9562540   4.1029420
 152.1677190  11.3442250   4.4387390 152.4555000  11.0896550   3.5620400
 152.6800410  10.7919610   5.0292960 152.2349550  12.2658350  11.8055590
 153.1616860  12.0302620  11.8491550 152.2199980  13.0930350  11.3241620
 136.1543280 152.5597070 151.4804090 136.0737330 151.6451680 151.2095800
 135.7407700 153.0564140 150.7743800 134.2861320 154.3376090 153.3613360
 133.5103420 153.8576530 153.6511930 134.9374250 153.6581740 153.1869520
 126.7119100 149.6097790 148.0231510 125.8235800 149.9513760 147.9211390
 126.9960290 149.4098110 147.1312340 124.6752110 152.2103440 153.9071210
 125.2468220 151.4425640 153.9074850 124.6753650 152.5092200 152.9977820
 134.7575480 149.8203660 153.5952450 135.1340300 148.9475540 153.4826120
 134.6594990 150.1562360 152.7042890 128.8880490 148.1929290 149.0569890
 128.9947240 149.0933020 149.3638650 127.9772850 148.1447260 148.7664540
 138.5399600 147.3154100 150.5280790 139.3609220 146.8250670 150.5706270
 138.5733680 147.9051760 151.2812630 130.7288220 151.1615660 153.3895070
 131.2366440 151.6596630 154.0300090 131.2601460 150.3850860 153.2134430
 138.7761080 149.2554480 153.3008330 138.0716650 149.5439370 153.8811440
 139.1373240 150.0654590 152.9407890 141.8448000 148.7009270 153.6917540
 140.8972910 148.7348250 153.8232970 142.1697990 149.5148220 154.0766900
 132.3767540 145.0006450 151.9873530 132.6842520 144.4453340 151.2709030
 131.4468240 145.1350910 151.8046520 134.7648300 153.0655280 148.7233650
 133.8377580 152.9992660 148.9522120 134.9173120 154.0035410 148.6088890
 134.7517380 149.3372280 145.7200810 133.8121050 149.4986240 145.8053270
 135.0700640 150.0557960 145.1736800 138.7945590 154.6275580 149.2268900
 138.1758010 154.2895130 148.5795200 138.7770040 153.9835340 149.9348090
 130.3704940 153.5920020 151.5053380 129.9661940 152.8797270 151.0099280
 130.4568060 153.2473260 152.3941420 136.9710290 153.8662390 146.2341650
 137.4103570 153.0284820 146.0879470 137.6838710 154.4991790 146.3205790
 140.5527430 145.1205200 144.5482690 140.2400090 145.2132030 145.4481760
 141.3139900 145.6986230 144.4980120 127.0709570 152.4865000 149.0060030
 126.9507170 153.2127090 148.3941300 126.7610460 151.7167910 148.5287940
 129.5373230 145.8300070 152.3883700 129.0941380 146.6109610 152.0568220
 130.0958220 146.1529960 153.0954640 132.6532050 145.4510770 147.2689530
 132.0286230 145.4470640 147.9942840 132.5662170 144.5841730 146.8725500
 131.5749130 146.3747400 154.2473300 131.8721460 147.2810230 154.1665320
 132.1234690 145.8866180 153.6332870 129.3287450 150.9533640 150.1164950
 129.1028370 150.7370810 151.0211570 128.5479980 151.3862100 149.7710920
 136.5585210 150.9597010 148.7155600 135.9594100 151.6832810 148.5319220
 137.1064820 150.8973790 147.9332050 135.1650080 149.5960550 150.7458880
 135.5579650 149.9132750 149.9327570 135.5266930 148.7172430 150.8603400
 124.2014250 146.1861350 152.9689080 123.9127300 146.7564210 153.6814060
 124.9460010 145.7065800 153.3320310 124.3884480 150.1281470 144.1791800
 124.3059150 151.0712230 144.3206790 124.0367540 149.9856380 143.3004150
 132.1882610 148.8620500 153.2462150 132.1918670 148.4210450 152.3966690
 133.0833730 149.1837830 153.3533970 128.0384990 148.7446990 152.2056360
 127.6985040 149.2222220 152.9623410 127.2762310 148.2912110 151.8457460
 132.2502760 149.8632580 146.2368910 132.3715580 149.8219060 147.1854730
 131.8651270 150.7256730 146.0815640 131.2624260 152.1733720 145.6352210
 130.6941160 151.7251970 145.0088120 131.9713260 152.5326500 145.1017360
 125.3531070 147.6665970 151.1221030 125.0677990 147.3021640 151.9599650
 125.2909930 146.9346430 150.5084170 135.0269660 146.5595230 147.8434400
 134.2134270 146.0608400 147.7679710 134.8331610 147.3993480 147.4270750
 137.7418050 150.9314880 146.1396560 138.6297670 151.2432110 145.9647900
 137.7123140 150.0587130 145.7477140 140.0132320 152.2426720 145.6076420
 139.9296040 152.6740940 144.7572860 140.7326510 152.7025070 146.0403240
 124.8461730 152.8024920 145.0817730 125.7156580 153.0849720 145.3653650
 124.3552050 153.6160790 144.9666540 127.9108320 144.5335780 149.6748530
 127.7822950 144.5253680 150.6233450 127.0870340 144.8718870 149.3239540
 139.7703060 147.7406150 147.6944240 139.1416220 147.8451820 146.9802470
 139.2754980 147.9602930 148.4838120 131.7387090 150.0192100 149.1102120
 131.0303240 150.4878440 149.5515730 132.0231570 149.3614110 149.7447310
 135.7702520 146.7442760 150.5497910 135.6470300 146.7628890 149.6007420
 136.7187080 146.7921700 150.6696310 129.9422110 148.3277180 146.4852830
 130.7912640 148.7647330 146.4193020 129.5753380 148.6397440 147.3124890
 138.8631890 152.8989940 151.3984400 137.9222030 152.9140170 151.5732090
 139.1775960 152.1125900 151.8444700 128.8413530 154.5809540 144.9588360
 129.6076800 154.4690900 145.5213790 128.9188220 153.8847510 144.3065130
 127.5360290 152.0134610 145.6421250 127.6163880 151.0662120 145.7538650
 128.4280040 152.3441490 145.7481910 130.8732560 154.5774670 146.9331000
 131.2948980 154.4114540 147.7762390 130.9983400 153.7674900 146.4386140
 133.3860200 153.6012280 144.1808100 133.9065860 152.8861300 143.8149250
 134.0328600 154.2398150 144.4808610 129.7691460 150.6507900 143.8789160
 129.5680520 149.7875260 144.2402500 129.5983510 150.5641260 142.9410760
 137.2479770 145.4616130 146.4076040 137.5282060 144.6184030 146.7635460
 136.4745500 145.6939240 146.9214790 128.5674260 147.7508520 143.8667040
 128.8700160 147.7575950 142.9586190 129.3068850 147.4006380 144.3634700
 131.7859190 146.6943140 144.8523240 131.4381190 146.0167130 144.2725690
 131.9871960 146.2332650 145.6666630 125.1264830 153.2230790 151.2487610
 124.4713670 152.9542430 150.6047310 125.9642780 153.1135270 150.7989590
 138.0755270 148.0172080 145.4706100 138.4940150 147.8303060 144.6302760
 137.7691330 147.1651130 145.7809030 141.5745000 152.9296220 149.1681900
 141.1988600 152.1624150 148.7363190 140.8448120 153.3118920 149.6556830
 124.3402910 150.4329720 147.1912940 123.4366990 150.6959920 147.0164600
 124.8243530 150.7040890 146.4112900 140.8495960 151.1553710 152.4689140
 141.3733440 150.6616360 151.8379310 141.4355380 151.2904070 153.2136710
 126.8830120 149.4895260 145.1007320 127.5921820 149.0678480 144.6154600
 126.1670060 149.5570490 144.4690670 126.5304280 145.5434590 144.1409970
 127.2532410 146.0843530 144.4591190 126.8028800 145.2698010 143.2651510
 140.3395930 150.4127060 148.4081550 140.8355050 150.1797930 149.1930430
 140.1412000 149.5738900 147.9919190 141.7683090 149.0488010 150.9419230
 141.6582370 148.8944050 151.8801500 142.5290680 148.5208950 150.6994640
 142.6573360 146.8795930 144.1825370 143.5822670 146.7477110 143.9743660
 142.6349150 146.9588750 145.1361820 142.7311850 147.6506590 146.8082080
 141.9363350 147.5851710 147.3374990 142.9355130 148.5857230 146.7967430
 139.1631780 145.9803470 153.2580910 139.6039870 145.9248570 152.4102510
 138.8939370 146.8961480 153.3291090 141.0270350 145.6118710 151.2689730
 140.9658750 144.6679930 151.1220750 141.8062380 145.7198800 151.8143190
 125.9551120 145.5827850 147.7345540 126.7130480 145.6956730 147.1609570
 125.4928290 146.4197050 147.6888970 132.4964930 147.6967120 150.7247850
 131.6839440 147.3224010 150.3843730 133.0006570 146.9412200 151.0269040
 136.9989910 144.3609570 151.9630920 137.6019280 144.9329780 152.4379440
 136.2582900 144.9249010 151.7404820 140.1424510 144.7631130 147.2371200
 140.3375140 145.6614580 147.5038630 139.3554380 144.5318210 147.7304150
 128.3276270 146.1091900 146.2747510 128.8569030 145.3221700 146.1455460
 128.9604590 146.7883090 146.5083040 130.5214110 145.8467040 149.3292900
 129.8916850 145.1454350 149.4963030 129.9819250 146.6071170 149.1126060
 136.1543280 152.5597070 132.7060600 136.0737330 151.6451680 132.4352310
 135.7407700 153.0564140 132.0000310 134.2861320 154.3376090 134.5869870
 133.5103420 153.8576530 134.8768440 134.9374250 153.6581740 134.4126030
 128.3027150 154.6495900 135.4645630 127.4712030 154.3944610 135.8642140
 128.9108130 154.7206670 136.2003550 126.7119100 149.6097790 129.2488020
 125.8235800 149.9513760 129.1467900 126.9960290 149.4098110 128.3568850
 124.6752110 152.2103440 135.1327720 125.2468220 151.4425640 135.1331360
 124.6753650 152.5092200 134.2234330 125.9176980 147.6187800 136.9196650
 125.7379820 146.7213550 137.1999410 125.5157060 148.1659670 137.5943600
 134.7575480 149.8203660 134.8208960 135.1340300 148.9475540 134.7082630
 134.6594990 150.1562360 133.9299400 128.8880490 148.1929290 130.2826400
 128.9947240 149.0933020 130.5895160 127.9772850 148.1447260 129.9921050
 138.5399600 147.3154100 131.7537300 139.3609220 146.8250670 131.7962780
 138.5733680 147.9051760 132.5069140 126.5363650 150.1148300 135.5278990
 127.2173760 150.3786670 136.1466390 126.2211700 149.2749170 135.8617000
 130.7288220 151.1615660 134.6151580 131.2366440 151.6596630 135.2556600
 131.2601460 150.3850860 134.4390940 142.8299150 149.3320850 138.3180930
 142.1251320 149.7202560 137.7996040 143.0957070 150.0271140 138.9201860
 129.0124320 145.8014220 138.8815000 129.0142760 146.3186610 138.0760900
 128.1828630 145.3244400 138.8584930 138.7761080 149.2554480 134.5264840
 138.0716650 149.5439370 135.1067950 139.1373240 150.0654590 134.1664400
 128.6939650 147.5124180 136.8885450 129.0356460 148.3566230 136.5939320
 127.7555460 147.6607920 137.0050790 141.8448000 148.7009270 134.9174050
 140.8972910 148.7348250 135.0489480 142.1697990 149.5148220 135.3023410
 132.3767540 145.0006450 133.2130040 132.6842520 144.4453340 132.4965540
 131.4468240 145.1350910 133.0303030 134.7648300 153.0655280 129.9490160
 133.8377580 152.9992660 130.1778630 134.9173120 154.0035410 129.8345400
 134.7517380 149.3372280 126.9457320 133.8121050 149.4986240 127.0309780
 135.0700640 150.0557960 126.3993310 141.2730140 154.0190800 136.9236350
 140.4448770 154.0883890 136.4486480 141.8680620 154.6045110 136.4552180
 138.7945590 154.6275580 130.4525410 138.1758010 154.2895130 129.8051710
 138.7770040 153.9835340 131.1604600 138.2372150 150.8060120 137.8691220
 137.8243330 151.6313830 138.1231210 137.5048100 150.2205160 137.6767580
 130.3704940 153.5920020 132.7309890 129.9661940 152.8797270 132.2355790
 130.4568060 153.2473260 133.6197930 129.0833560 150.3663230 136.5108930
 129.6348150 150.4758570 135.7362180 129.5977070 150.7400830 137.2264160
 136.9710290 153.8662390 127.4598160 137.4103570 153.0284820 127.3135980
 137.6838710 154.4991790 127.5462300 128.7576290 153.8882590 140.1214270
 128.6184060 154.7605390 140.4901670 127.8757650 153.5455400 139.9762210
 140.5527430 145.1205200 125.7739200 140.2400090 145.2132030 126.6738270
 141.3139900 145.6986230 125.7236630 127.0709570 152.4865000 130.2316540
 126.9507170 153.2127090 129.6197810 126.7610460 151.7167910 129.7544450
 141.7628720 149.8576700 141.7513340 141.1472990 150.3656370 141.2228800
 141.4425140 148.9575030 141.6939280 129.5373230 145.8300070 133.6140210
 129.0941380 146.6109610 133.2824730 130.0958220 146.1529960 134.3211150
 133.8243040 148.6968590 139.2175530 133.3622410 148.9051610 140.0295470
 133.4221150 147.8827940 138.9146200 138.8247550 149.9177540 140.3472190
 137.9741140 149.6183290 140.6681260 138.6649340 150.1619550 139.4356010
 135.9197260 151.4179290 142.4470980 136.2450670 150.5843040 142.1073210
 136.7077590 151.9407810 142.5949310 132.6532050 145.4510770 128.4946040
 132.0286230 145.4470640 129.2199350 132.5662170 144.5841730 128.0982010
 131.5749130 146.3747400 135.4729810 131.8721460 147.2810230 135.3921830
 132.1234690 145.8866180 134.8589380 129.3287450 150.9533640 131.3421460
 129.1028370 150.7370810 132.2468080 128.5479980 151.3862100 130.9967430
 136.5585210 150.9597010 129.9412110 135.9594100 151.6832810 129.7575730
 137.1064820 150.8973790 129.1588560 131.7686660 151.8519220 142.0081730
 131.6730260 150.9113950 141.8582130 132.6118640 152.0734290 141.6129800
 135.1650080 149.5960550 131.9715390 135.5579650 149.9132750 131.1584080
 135.5266930 148.7172430 132.0859910 126.8997200 148.2632890 140.1615510
 126.5060590 149.1108100 140.3688290 126.2115600 147.6259260 140.3524150
 133.4742250 148.3467860 143.2312250 132.7840570 148.1540060 143.8658340
 134.2174550 148.6302500 143.7636550 124.2014250 146.1861350 134.1945590
 123.9127300 146.7564210 134.9070570 124.9460010 145.7065800 134.5576820
 124.3884480 150.1281470 125.4048310 124.3059150 151.0712230 125.5463300
 124.0367540 149.9856380 124.5260660 135.7505220 152.1866300 136.0666170
 135.0186340 152.6953110 136.4156270 135.3529560 151.3696280 135.7654950
 132.1882610 148.8620500 134.4718660 132.1918670 148.4210450 133.6223200
 133.0833730 149.1837830 134.5790480 128.0384990 148.7446990 133.4312870
 127.6985040 149.2222220 134.1879920 127.2762310 148.2912110 133.0713970
 132.2502760 149.8632580 127.4625420 132.3715580 149.8219060 128.4111240
 131.8651270 150.7256730 127.3072150 136.2131130 147.6399980 135.4789110
 136.2303870 148.0908630 136.3230960 135.9646710 146.7405620 135.6922550
 131.2624260 152.1733720 126.8608720 130.6941160 151.7251970 126.2344630
 131.9713260 152.5326500 126.3273870 139.6401880 145.0532160 141.3175490
 139.9647650 144.3221820 141.8433470 139.6758390 144.7345800 140.4156480
 132.4890580 152.9222280 136.2184070 132.8560710 152.4480850 136.9645410
 132.2995640 153.7963850 136.5592410 125.3531070 147.6665970 132.3477540
 125.0677990 147.3021640 133.1856160 125.2909930 146.9346430 131.7340680
 130.2789950 151.9630920 138.5368280 129.9747020 152.8422900 138.7618640
 131.2336410 152.0230710 138.5725720 135.0269660 146.5595230 129.0690910
 134.2134270 146.0608400 128.9936220 134.8331610 147.3993480 128.6527260
 137.7418050 150.9314880 127.3653070 138.6297670 151.2432110 127.1904410
 137.7123140 150.0587130 126.9733650 126.3353680 152.8033660 139.6839640
 125.9768620 153.4687510 140.2712980 126.0408240 151.9717210 140.0552260
 129.5366800 153.2617900 142.5679190 129.2366940 153.4075080 141.6707010
 130.3078040 152.7023190 142.4752580 140.0132320 152.2426720 126.8332930
 139.9296040 152.6740940 125.9829370 140.7326510 152.7025070 127.2659750
 124.8461730 152.8024920 126.3074240 125.7156580 153.0849720 126.5910160
 124.3552050 153.6160790 126.1923050 127.9108320 144.5335780 130.9005040
 127.7822950 144.5253680 131.8489960 127.0870340 144.8718870 130.5496050
 124.9102250 146.2926900 140.3611740 124.1960770 146.4923820 140.9664350
 125.3297290 145.5166470 140.7326540 136.4041030 148.7849210 138.1113190
 136.7721850 147.9644420 138.4392760 135.5439230 148.8451100 138.5268840
 139.7703060 147.7406150 128.9200750 139.1416220 147.8451820 128.2058980
 139.2754980 147.9602930 129.7094630 131.7387090 150.0192100 130.3358630
 131.0303240 150.4878440 130.7772240 132.0231570 149.3614110 130.9703820
 133.3643020 151.4388800 138.3351160 133.8628270 151.9134620 139.0003010
 133.5065970 150.5152320 138.5421190 135.7702520 146.7442760 131.7754420
 135.6470300 146.7628890 130.8263930 136.7187080 146.7921700 131.8952820
 129.9422110 148.3277180 127.7109340 130.7912640 148.7647330 127.6449530
 129.5753380 148.6397440 128.5381400 140.5709880 147.6556760 139.1779550
 140.0683480 148.3962160 139.5173360 141.3866540 148.0440760 138.8616340
 138.8631890 152.8989940 132.6240910 137.9222030 152.9140170 132.7988600
 139.1775960 152.1125900 133.0701210 128.8413530 154.5809540 126.1844870
 129.6076800 154.4690900 126.7470300 128.9188220 153.8847510 125.5321640
 127.5360290 152.0134610 126.8677760 127.6163880 151.0662120 126.9795160
 128.4280040 152.3441490 126.9738420 125.0631090 153.8349530 142.1033930
 125.5670110 153.2556810 142.6750160 124.3238510 154.1189760 142.6410300
 127.0954170 151.9779120 142.9984000 127.1359510 151.6792990 143.9069230
 127.9499670 152.3786730 142.8391520 130.8732560 154.5774670 128.1587510
 131.2948980 154.4114540 129.0018900 130.9983400 153.7674900 127.6642650
 129.0359980 150.5571220 140.9658490 128.5056440 150.0662170 140.3381830
 129.7048050 150.9855420 140.4316420 133.3860200 153.6012280 125.4064610
 133.9065860 152.8861300 125.0405760 134.0328600 154.2398150 125.7065120
 138.4060210 152.3636840 142.7338830 138.9880980 151.6089160 142.6459310
 138.5821980 152.8944280 141.9570310 129.5232280 147.5233590 141.0455780
 129.4289150 146.9054340 140.3206650 128.9429670 148.2499880 140.8185690
 132.2893720 146.0806830 138.0783170 131.8411020 146.1031090 137.2328720
 131.6558920 145.6825850 138.6753470 135.0317170 152.7077340 140.0833450
 135.1513380 152.1118480 140.8228290 135.8911170 152.7447030 139.6634750
 137.3705070 153.2614530 138.6595960 136.8440290 153.7857150 138.0561100
 137.7136410 153.8941920 139.2905690 129.7691460 150.6507900 125.1045670
 129.5680520 149.7875260 125.4659010 129.5983510 150.5641260 124.1667270
 131.7985940 149.2498690 141.3409270 132.3885630 148.9414540 142.0287090
 130.9806180 148.7778440 141.4969170 136.6179370 148.8664500 141.5742290
 135.9294890 148.2046040 141.5092280 137.3385390 148.4202770 142.0190750
 137.2479770 145.4616130 127.6332550 137.5282060 144.6184030 127.9891970
 136.4745500 145.6939240 128.1471300 128.5674260 147.7508520 125.0923550
 128.8700160 147.7575950 124.1842700 129.3068850 147.4006380 125.5891210
 131.7859190 146.6943140 126.0779750 131.4381190 146.0167130 125.4982200
 131.9871960 146.2332650 126.8923140 125.1264830 153.2230790 132.4744120
 124.4713670 152.9542430 131.8303820 125.9642780 153.1135270 132.0246100
 138.0755270 148.0172080 126.6962610 138.4940150 147.8303060 125.8559270
 137.7691330 147.1651130 127.0065540 141.5745000 152.9296220 130.3938410
 141.1988600 152.1624150 129.9619700 140.8448120 153.3118920 130.8813340
 126.1640760 153.6083360 137.0147460 126.5313800 153.5210760 137.8943480
 125.5951580 152.8449910 136.9154320 140.9644620 152.0767740 140.0277930
 140.7330710 151.8480490 139.1275880 141.2249170 152.9967290 139.9822820
 125.7156760 150.5192450 140.9205880 124.8212810 150.4859210 141.2599590
 126.2554310 150.7179240 141.6857130 139.4032690 147.3024170 142.8057630
 140.2802870 147.3107570 143.1891630 139.4153530 146.5655010 142.1949980
 124.3402910 150.4329720 128.4169450 123.4366990 150.6959920 128.2421110
 124.8243530 150.7040890 127.6369410 140.8495960 151.1553710 133.6945650
 141.3733440 150.6616360 133.0635820 141.4355380 151.2904070 134.4393220
 141.0285680 151.2393580 137.2165200 140.0788390 151.2057120 137.3310190
 141.2098690 152.1493690 136.9814970 126.8830120 149.4895260 126.3263830
 127.5921820 149.0678480 125.8411110 126.1670060 149.5570490 125.6947180
 126.5304280 145.5434590 125.3666480 127.2532410 146.0843530 125.6847700
 126.8028800 145.2698010 124.4908020 140.3395930 150.4127060 129.6338060
 140.8355050 150.1797930 130.4186940 140.1412000 149.5738900 129.2175700
 126.2196470 144.7940780 135.2689100 126.8672660 144.2438160 134.8284260
 126.6398310 145.0483930 136.0904910 141.7683090 149.0488010 132.1675740
 141.6582370 148.8944050 133.1058010 142.5290680 148.5208950 131.9251150
 140.1148810 144.9882140 138.6258740 140.7521030 145.6016280 138.9917930
 140.2623700 145.0242800 137.6807970 142.6573360 146.8795930 125.4081880
 143.5822670 146.7477110 125.2000170 142.6349150 146.9588750 126.3618330
 142.7311850 147.6506590 128.0338590 141.9363350 147.5851710 128.5631500
 142.9355130 148.5857230 128.0223940 125.9728470 144.9496450 138.0114420
 125.6243290 145.4060270 138.7772600 125.6416170 144.0553580 138.0936850
 133.4853290 146.1408330 141.5333840 133.4242180 146.7330160 142.2829250
 134.4253670 146.0334290 141.3884100 136.1227850 145.7978390 141.1726130
 136.7368260 146.1157680 140.5107210 136.6677410 145.3126980 141.7921990
 126.6449110 144.4772650 141.2865190 127.1932100 144.2960700 140.5231300
 126.7104420 143.6866760 141.8221500 136.8635890 144.3610530 137.4995420
 135.9895730 144.6945640 137.2968350 136.7546640 143.8883710 138.3247290
 137.7707870 146.5681400 138.8837140 137.4421230 145.7533160 138.5038870
 138.7190170 146.5251210 138.7602830 134.6110710 145.2780370 136.4388330
 133.8282500 145.7525870 136.7185090 134.3173640 144.3735200 136.3301510
 139.1631780 145.9803470 134.4837420 139.6039870 145.9248570 133.6359020
 138.8939370 146.8961480 134.5547600 141.0270350 145.6118710 132.4946240
 140.9658750 144.6679930 132.3477260 141.8062380 145.7198800 133.0399700
 125.9551120 145.5827850 128.9602050 126.7130480 145.6956730 128.3866080
 125.4928290 146.4197050 128.9145480 132.4964930 147.6967120 131.9504360
 131.6839440 147.3224010 131.6100240 133.0006570 146.9412200 132.2525550
 136.9989910 144.3609570 133.1887430 137.6019280 144.9329780 133.6635950
 136.2582900 144.9249010 132.9661330 140.1424510 144.7631130 128.4627710
 140.3375140 145.6614580 128.7295140 139.3554380 144.5318210 128.9560660
 128.3276270 146.1091900 127.5004020 128.8569030 145.3221700 127.3711970
 128.9604590 146.7883090 127.7339550 130.5214110 145.8467040 130.5549410
 129.8916850 145.1454350 130.7219540 129.9819250 146.6071170 130.3382570
 130.6469670 145.1251020 142.9901900 130.3653940 145.6284620 142.2262720
 131.0289370 144.3272770 142.6244030 137.2485130 144.5404600 143.5682370
 137.1350580 144.8599210 144.4633890 138.0654870 144.9417110 143.2719650
 136.1543280 152.5597070 113.9317110 136.0737330 151.6451680 113.6608820
 135.7407700 153.0564140 113.2256820 134.2861320 154.3376090 115.8126380
 133.5103420 153.8576530 116.1024950 134.9374250 153.6581740 115.6382540
 128.3027150 154.6495900 116.6902140 127.4712030 154.3944610 117.0898650
 128.9108130 154.7206670 117.4260060 126.7119100 149.6097790 110.4744530
 125.8235800 149.9513760 110.3724410 126.9960290 149.4098110 109.5825360
 124.6752110 152.2103440 116.3584230 125.2468220 151.4425640 116.3587870
 124.6753650 152.5092200 115.4490840 125.9176980 147.6187800 118.1453160
 125.7379820 146.7213550 118.4255920 125.5157060 148.1659670 118.8200110
 134.7575480 149.8203660 116.0465470 135.1340300 148.9475540 115.9339140
 134.6594990 150.1562360 115.1555910 128.8880490 148.1929290 111.5082910
 128.9947240 149.0933020 111.8151670 127.9772850 148.1447260 111.2177560
 138.5399600 147.3154100 112.9793810 139.3609220 146.8250670 113.0219290
 138.5733680 147.9051760 113.7325650 126.5363650 150.1148300 116.7535500
 127.2173760 150.3786670 117.3722900 126.2211700 149.2749170 117.0873510
 130.7288220 151.1615660 115.8408090 131.2366440 151.6596630 116.4813110
 131.2601460 150.3850860 115.6647450 142.8299150 149.3320850 119.5437440
 142.1251320 149.7202560 119.0252550 143.0957070 150.0271140 120.1458370
 129.0124320 145.8014220 120.1071510 129.0142760 146.3186610 119.3017410
 128.1828630 145.3244400 120.0841440 138.7761080 149.2554480 115.7521350
 138.0716650 149.5439370 116.3324460 139.1373240 150.0654590 115.3920910
 128.6939650 147.5124180 118.1141960 129.0356460 148.3566230 117.8195830
 127.7555460 147.6607920 118.2307300 141.8448000 148.7009270 116.1430560
 140.8972910 148.7348250 116.2745990 142.1697990 149.5148220 116.5279920
 132.3767540 145.0006450 114.4386550 132.6842520 144.4453340 113.7222050
 131.4468240 145.1350910 114.2559540 134.7648300 153.0655280 111.1746670
 133.8377580 152.9992660 111.4035140 134.9173120 154.0035410 111.0601910
 134.7517380 149.3372280 108.1713830 133.8121050 149.4986240 108.2566290
 135.0700640 150.0557960 107.6249820 141.2730140 154.0190800 118.1492860
 140.4448770 154.0883890 117.6742990 141.8680620 154.6045110 117.6808690
 138.7945590 154.6275580 111.6781920 138.1758010 154.2895130 111.0308220
 138.7770040 153.9835340 112.3861110 138.2372150 150.8060120 119.0947730
 137.8243330 151.6313830 119.3487720 137.5048100 150.2205160 118.9024090
 130.3704940 153.5920020 113.9566400 129.9661940 152.8797270 113.4612300
 130.4568060 153.2473260 114.8454440 129.0833560 150.3663230 117.7365440
 129.6348150 150.4758570 116.9618690 129.5977070 150.7400830 118.4520670
 136.9710290 153.8662390 108.6854670 137.4103570 153.0284820 108.5392490
 137.6838710 154.4991790 108.7718810 128.7576290 153.8882590 121.3470780
 128.6184060 154.7605390 121.7158180 127.8757650 153.5455400 121.2018720
 140.5527430 145.1205200 106.9995710 140.2400090 145.2132030 107.8994780
 141.3139900 145.6986230 106.9493140 127.0709570 152.4865000 111.4573050
 126.9507170 153.2127090 110.8454320 126.7610460 151.7167910 110.9800960
 141.7628720 149.8576700 122.9769850 141.1472990 150.3656370 122.4485310
 141.4425140 148.9575030 122.9195790 129.5373230 145.8300070 114.8396720
 129.0941380 146.6109610 114.5081240 130.0958220 146.1529960 115.5467660
 133.8243040 148.6968590 120.4432040 133.3622410 148.9051610 121.2551980
 133.4221150 147.8827940 120.1402710 138.8247550 149.9177540 121.5728700
 137.9741140 149.6183290 121.8937770 138.6649340 150.1619550 120.6612520
 135.9197260 151.4179290 123.6727490 136.2450670 150.5843040 123.3329720
 136.7077590 151.9407810 123.8205820 132.6532050 145.4510770 109.7202550
 132.0286230 145.4470640 110.4455860 132.5662170 144.5841730 109.3238520
 131.5749130 146.3747400 116.6986320 131.8721460 147.2810230 116.6178340
 132.1234690 145.8866180 116.0845890 129.3287450 150.9533640 112.5677970
 129.1028370 150.7370810 113.4724590 128.5479980 151.3862100 112.2223940
 136.5585210 150.9597010 111.1668620 135.9594100 151.6832810 110.9832240
 137.1064820 150.8973790 110.3845070 131.7686660 151.8519220 123.2338240
 131.6730260 150.9113950 123.0838640 132.6118640 152.0734290 122.8386310
 135.1650080 149.5960550 113.1971900 135.5579650 149.9132750 112.3840590
 135.5266930 148.7172430 113.3116420 126.8997200 148.2632890 121.3872020
 126.5060590 149.1108100 121.5944800 126.2115600 147.6259260 121.5780660
 133.4742250 148.3467860 124.4568760 132.7840570 148.1540060 125.0914850
 134.2174550 148.6302500 124.9893060 124.2014250 146.1861350 115.4202100
 123.9127300 146.7564210 116.1327080 124.9460010 145.7065800 115.7833330
 124.3884480 150.1281470 106.6304820 124.3059150 151.0712230 106.7719810
 124.0367540 149.9856380 105.7517170 135.7505220 152.1866300 117.2922680
 135.0186340 152.6953110 117.6412780 135.3529560 151.3696280 116.9911460
 132.1882610 148.8620500 115.6975170 132.1918670 148.4210450 114.8479710
 133.0833730 149.1837830 115.8046990 128.0384990 148.7446990 114.6569380
 127.6985040 149.2222220 115.4136430 127.2762310 148.2912110 114.2970480
 132.2502760 149.8632580 108.6881930 132.3715580 149.8219060 109.6367750
 131.8651270 150.7256730 108.5328660 136.2131130 147.6399980 116.7045620
 136.2303870 148.0908630 117.5487470 135.9646710 146.7405620 116.9179060
 131.2624260 152.1733720 108.0865230 130.6941160 151.7251970 107.4601140
 131.9713260 152.5326500 107.5530380 139.6401880 145.0532160 122.5432000
 139.9647650 144.3221820 123.0689980 139.6758390 144.7345800 121.6412990
 132.4890580 152.9222280 117.4440580 132.8560710 152.4480850 118.1901920
 132.2995640 153.7963850 117.7848920 125.3531070 147.6665970 113.5734050
 125.0677990 147.3021640 114.4112670 125.2909930 146.9346430 112.9597190
 130.2789950 151.9630920 119.7624790 129.9747020 152.8422900 119.9875150
 131.2336410 152.0230710 119.7982230 135.0269660 146.5595230 110.2947420
 134.2134270 146.0608400 110.2192730 134.8331610 147.3993480 109.8783770
 137.7418050 150.9314880 108.5909580 138.6297670 151.2432110 108.4160920
 137.7123140 150.0587130 108.1990160 126.3353680 152.8033660 120.9096150
 125.9768620 153.4687510 121.4969490 126.0408240 151.9717210 121.2808770
 129.5366800 153.2617900 123.7935700 129.2366940 153.4075080 122.8963520
 130.3078040 152.7023190 123.7009090 140.0132320 152.2426720 108.0589440
 139.9296040 152.6740940 107.2085880 140.7326510 152.7025070 108.4916260
 124.8461730 152.8024920 107.5330750 125.7156580 153.0849720 107.8166670
 124.3552050 153.6160790 107.4179560 127.9108320 144.5335780 112.1261550
 127.7822950 144.5253680 113.0746470 127.0870340 144.8718870 111.7752560
 124.9102250 146.2926900 121.5868250 124.1960770 146.4923820 122.1920860
 125.3297290 145.5166470 121.9583050 136.4041030 148.7849210 119.3369700
 136.7721850 147.9644420 119.6649270 135.5439230 148.8451100 119.7525350
 139.7703060 147.7406150 110.1457260 139.1416220 147.8451820 109.4315490
 139.2754980 147.9602930 110.9351140 131.7387090 150.0192100 111.5615140
 131.0303240 150.4878440 112.0028750 132.0231570 149.3614110 112.1960330
 133.3643020 151.4388800 119.5607670 133.8628270 151.9134620 120.2259520
 133.5065970 150.5152320 119.7677700 135.7702520 146.7442760 113.0010930
 135.6470300 146.7628890 112.0520440 136.7187080 146.7921700 113.1209330
 129.9422110 148.3277180 108.9365850 130.7912640 148.7647330 108.8706040
 129.5753380 148.6397440 109.7637910 140.5709880 147.6556760 120.4036060
 140.0683480 148.3962160 120.7429870 141.3866540 148.0440760 120.0872850
 138.8631890 152.8989940 113.8497420 137.9222030 152.9140170 114.0245110
 139.1775960 152.1125900 114.2957720 128.8413530 154.5809540 107.4101380
 129.6076800 154.4690900 107.9726810 128.9188220 153.8847510 106.7578150
 127.5360290 152.0134610 108.0934270 127.6163880 151.0662120 108.2051670
 128.4280040 152.3441490 108.1994930 125.0631090 153.8349530 123.3290440
 125.5670110 153.2556810 123.9006670 124.3238510 154.1189760 123.8666810
 127.0954170 151.9779120 124.2240510 127.1359510 151.6792990 125.1325740
 127.9499670 152.3786730 124.0648030 130.8732560 154.5774670 109.3844020
 131.2948980 154.4114540 110.2275410 130.9983400 153.7674900 108.8899160
 129.0359980 150.5571220 122.1915000 128.5056440 150.0662170 121.5638340
 129.7048050 150.9855420 121.6572930 133.3860200 153.6012280 106.6321120
 133.9065860 152.8861300 106.2662270 134.0328600 154.2398150 106.9321630
 138.4060210 152.3636840 123.9595340 138.9880980 151.6089160 123.8715820
 138.5821980 152.8944280 123.1826820 129.5232280 147.5233590 122.2712290
 129.4289150 146.9054340 121.5463160 128.9429670 148.2499880 122.0442200
 132.2893720 146.0806830 119.3039680 131.8411020 146.1031090 118.4585230
 131.6558920 145.6825850 119.9009980 135.0317170 152.7077340 121.3089960
 135.1513380 152.1118480 122.0484800 135.8911170 152.7447030 120.8891260
 137.3705070 153.2614530 119.8852470 136.8440290 153.7857150 119.2817610
 137.7136410 153.8941920 120.5162200 129.7691460 150.6507900 106.3302180
 129.5680520 149.7875260 106.6915520 129.5983510 150.5641260 105.3923780
 131.7985940 149.2498690 122.5665780 132.3885630 148.9414540 123.2543600
 130.9806180 148.7778440 122.7225680 136.6179370 148.8664500 122.7998800
 135.9294890 148.2046040 122.7348790 137.3385390 148.4202770 123.2447260
 137.2479770 145.4616130 108.8589060 137.5282060 144.6184030 109.2148480
 136.4745500 145.6939240 109.3727810 128.5674260 147.7508520 106.3180060
 128.8700160 147.7575950 105.4099210 129.3068850 147.4006380 106.8147720
 131.7859190 146.6943140 107.3036260 131.4381190 146.0167130 106.7238710
 131.9871960 146.2332650 108.1179650 125.1264830 153.2230790 113.7000630
 124.4713670 152.9542430 113.0560330 125.9642780 153.1135270 113.2502610
 138.0755270 148.0172080 107.9219120 138.4940150 147.8303060 107.0815780
 137.7691330 147.1651130 108.2322050 141.5745000 152.9296220 111.6194920
 141.1988600 152.1624150 111.1876210 140.8448120 153.3118920 112.1069850
 126.1640760 153.6083360 118.2403970 126.5313800 153.5210760 119.1199990
 125.5951580 152.8449910 118.1410830 140.9644620 152.0767740 121.2534440
 140.7330710 151.8480490 120.3532390 141.2249170 152.9967290 121.2079330
 125.7156760 150.5192450 122.1462390 124.8212810 150.4859210 122.4856100
 126.2554310 150.7179240 122.9113640 139.4032690 147.3024170 124.0314140
 140.2802870 147.3107570 124.4148140 139.4153530 146.5655010 123.4206490
 124.3402910 150.4329720 109.6425960 123.4366990 150.6959920 109.4677620
 124.8243530 150.7040890 108.8625920 140.8495960 151.1553710 114.9202160
 141.3733440 150.6616360 114.2892330 141.4355380 151.2904070 115.6649730
 141.0285680 151.2393580 118.4421710 140.0788390 151.2057120 118.5566700
 141.2098690 152.1493690 118.2071480 126.8830120 149.4895260 107.5520340
 127.5921820 149.0678480 107.0667620 126.1670060 149.5570490 106.9203690
 126.5304280 145.5434590 106.5922990 127.2532410 146.0843530 106.9104210
 126.8028800 145.2698010 105.7164530 140.3395930 150.4127060 110.8594570
 140.8355050 150.1797930 111.6443450 140.1412000 149.5738900 110.4432210
 126.2196470 144.7940780 116.4945610 126.8672660 144.2438160 116.0540770
 126.6398310 145.0483930 117.3161420 141.7683090 149.0488010 113.3932250
 141.6582370 148.8944050 114.3314520 142.5290680 148.5208950 113.1507660
 140.1148810 144.9882140 119.8515250 140.7521030 145.6016280 120.2174440
 140.2623700 145.0242800 118.9064480 142.6573360 146.8795930 106.6338390
 143.5822670 146.7477110 106.4256680 142.6349150 146.9588750 107.5874840
 142.7311850 147.6506590 109.2595100 141.9363350 147.5851710 109.7888010
 142.9355130 148.5857230 109.2480450 125.9728470 144.9496450 119.2370930
 125.6243290 145.4060270 120.0029110 125.6416170 144.0553580 119.3193360
 133.4853290 146.1408330 122.7590350 133.4242180 146.7330160 123.5085760
 134.4253670 146.0334290 122.6140610 136.1227850 145.7978390 122.3982640
 136.7368260 146.1157680 121.7363720 136.6677410 145.3126980 123.0178500
 126.6449110 144.4772650 122.5121700 127.1932100 144.2960700 121.7487810
 126.7104420 143.6866760 123.0478010 136.8635890 144.3610530 118.7251930
 135.9895730 144.6945640 118.5224860 136.7546640 143.8883710 119.5503800
 137.7707870 146.5681400 120.1093650 137.4421230 145.7533160 119.7295380
 138.7190170 146.5251210 119.9859340 134.6110710 145.2780370 117.6644840
 133.8282500 145.7525870 117.9441600 134.3173640 144.3735200 117.5558020
 139.1631780 145.9803470 115.7093930 139.6039870 145.9248570 114.8615530
 138.8939370 146.8961480 115.7804110 141.0270350 145.6118710 113.7202750
 140.9658750 144.6679930 113.5733770 141.8062380 145.7198800 114.2656210
 125.9551120 145.5827850 110.1858560 126.7130480 145.6956730 109.6122590
 125.4928290 146.4197050 110.1401990 132.4964930 147.6967120 113.1760870
 131.6839440 147.3224010 112.8356750 133.0006570 146.9412200 113.4782060
 136.9989910 144.3609570 114.4143940 137.6019280 144.9329780 114.8892460
 136.2582900 144.9249010 114.1917840 140.1424510 144.7631130 109.6884220
 140.3375140 145.6614580 109.9551650 139.3554380 144.5318210 110.1817170
 128.3276270 146.1091900 108.7260530 128.8569030 145.3221700 108.5968480
 128.9604590 146.7883090 108.9596060 130.5214110 145.8467040 111.7805920
 129.8916850 145.1454350 111.9476050 129.9819250 146.6071170 111.5639080
 130.6469670 145.1251020 124.2158410 130.3653940 145.6284620 123.4519230
 131.0289370 144.3272770 123.8500540 137.2485130 144.5404600 124.7938880
 137.1350580 144.8599210 125.6890400 138.0654870 144.9417110 124.4976160
 136.1543280 152.5597070  95.1573620 136.0737330 151.6451680  94.8865330
 135.7407700 153.0564140  94.4513330 134.2861320 154.3376090  97.0382890
 133.5103420 153.8576530  97.3281460 134.9374250 153.6581740  96.8639050
 128.3027150 154.6495900  97.9158650 127.4712030 154.3944610  98.3155160
 128.9108130 154.7206670  98.6516570 126.7119100 149.6097790  91.7001040
 125.8235800 149.9513760  91.5980920 126.9960290 149.4098110  90.8081870
 124.6752110 152.2103440  97.5840740 125.2468220 151.4425640  97.5844380
 124.6753650 152.5092200  96.6747350 125.9176980 147.6187800  99.3709670
 125.7379820 146.7213550  99.6512430 125.5157060 148.1659670 100.0456620
 134.7575480 149.8203660  97.2721980 135.1340300 148.9475540  97.1595650
 134.6594990 150.1562360  96.3812420 128.8880490 148.1929290  92.7339420
 128.9947240 149.0933020  93.0408180 127.9772850 148.1447260  92.4434070
 138.5399600 147.3154100  94.2050320 139.3609220 146.8250670  94.2475800
 138.5733680 147.9051760  94.9582160 126.5363650 150.1148300  97.9792010
 127.2173760 150.3786670  98.5979410 126.2211700 149.2749170  98.3130020
 130.7288220 151.1615660  97.0664600 131.2366440 151.6596630  97.7069620
 131.2601460 150.3850860  96.8903960 142.8299150 149.3320850 100.7693950
 142.1251320 149.7202560 100.2509060 143.0957070 150.0271140 101.3714880
 129.0124320 145.8014220 101.3328020 129.0142760 146.3186610 100.5273920
 128.1828630 145.3244400 101.3097950 138.7761080 149.2554480  96.9777860
 138.0716650 149.5439370  97.5580970 139.1373240 150.0654590  96.6177420
 128.6939650 147.5124180  99.3398470 129.0356460 148.3566230  99.0452340
 127.7555460 147.6607920  99.4563810 141.8448000 148.7009270  97.3687070
 140.8972910 148.7348250  97.5002500 142.1697990 149.5148220  97.7536430
 132.3767540 145.0006450  95.6643060 132.6842520 144.4453340  94.9478560
 131.4468240 145.1350910  95.4816050 134.7648300 153.0655280  92.4003180
 133.8377580 152.9992660  92.6291650 134.9173120 154.0035410  92.2858420
 134.7517380 149.3372280  89.3970340 133.8121050 149.4986240  89.4822800
 135.0700640 150.0557960  88.8506330 141.2730140 154.0190800  99.3749370
 140.4448770 154.0883890  98.8999500 141.8680620 154.6045110  98.9065200
 138.7945590 154.6275580  92.9038430 138.1758010 154.2895130  92.2564730
 138.7770040 153.9835340  93.6117620 138.2372150 150.8060120 100.3204240
 137.8243330 151.6313830 100.5744230 137.5048100 150.2205160 100.1280600
 130.3704940 153.5920020  95.1822910 129.9661940 152.8797270  94.6868810
 130.4568060 153.2473260  96.0710950 129.0833560 150.3663230  98.9621950
 129.6348150 150.4758570  98.1875200 129.5977070 150.7400830  99.6777180
 136.9710290 153.8662390  89.9111180 137.4103570 153.0284820  89.7649000
 137.6838710 154.4991790  89.9975320 128.7576290 153.8882590 102.5727290
 128.6184060 154.7605390 102.9414690 127.8757650 153.5455400 102.4275230
 140.5527430 145.1205200  88.2252220 140.2400090 145.2132030  89.1251290
 141.3139900 145.6986230  88.1749650 127.0709570 152.4865000  92.6829560
 126.9507170 153.2127090  92.0710830 126.7610460 151.7167910  92.2057470
 141.7628720 149.8576700 104.2026360 141.1472990 150.3656370 103.6741820
 141.4425140 148.9575030 104.1452300 129.5373230 145.8300070  96.0653230
 129.0941380 146.6109610  95.7337750 130.0958220 146.1529960  96.7724170
 133.8243040 148.6968590 101.6688550 133.3622410 148.9051610 102.4808490
 133.4221150 147.8827940 101.3659220 138.8247550 149.9177540 102.7985210
 137.9741140 149.6183290 103.1194280 138.6649340 150.1619550 101.8869030
 135.9197260 151.4179290 104.8984000 136.2450670 150.5843040 104.5586230
 136.7077590 151.9407810 105.0462330 132.6532050 145.4510770  90.9459060
 132.0286230 145.4470640  91.6712370 132.5662170 144.5841730  90.5495030
 131.5749130 146.3747400  97.9242830 131.8721460 147.2810230  97.8434850
 132.1234690 145.8866180  97.3102400 129.3287450 150.9533640  93.7934480
 129.1028370 150.7370810  94.6981100 128.5479980 151.3862100  93.4480450
 136.5585210 150.9597010  92.3925130 135.9594100 151.6832810  92.2088750
 137.1064820 150.8973790  91.6101580 131.7686660 151.8519220 104.4594750
 131.6730260 150.9113950 104.3095150 132.6118640 152.0734290 104.0642820
 135.1650080 149.5960550  94.4228410 135.5579650 149.9132750  93.6097100
 135.5266930 148.7172430  94.5372930 126.8997200 148.2632890 102.6128530
 126.5060590 149.1108100 102.8201310 126.2115600 147.6259260 102.8037170
 133.4742250 148.3467860 105.6825270 132.7840570 148.1540060 106.3171360
 134.2174550 148.6302500 106.2149570 124.2014250 146.1861350  96.6458610
 123.9127300 146.7564210  97.3583590 124.9460010 145.7065800  97.0089840
 124.3884480 150.1281470  87.8561330 124.3059150 151.0712230  87.9976320
 124.0367540 149.9856380  86.9773680 135.7505220 152.1866300  98.5179190
 135.0186340 152.6953110  98.8669290 135.3529560 151.3696280  98.2167970
 132.1882610 148.8620500  96.9231680 132.1918670 148.4210450  96.0736220
 133.0833730 149.1837830  97.0303500 128.0384990 148.7446990  95.8825890
 127.6985040 149.2222220  96.6392940 127.2762310 148.2912110  95.5226990
 132.2502760 149.8632580  89.9138440 132.3715580 149.8219060  90.8624260
 131.8651270 150.7256730  89.7585170 136.2131130 147.6399980  97.9302130
 136.2303870 148.0908630  98.7743980 135.9646710 146.7405620  98.1435570
 131.2624260 152.1733720  89.3121740 130.6941160 151.7251970  88.6857650
 131.9713260 152.5326500  88.7786890 139.6401880 145.0532160 103.7688510
 139.9647650 144.3221820 104.2946490 139.6758390 144.7345800 102.8669500
 132.4890580 152.9222280  98.6697090 132.8560710 152.4480850  99.4158430
 132.2995640 153.7963850  99.0105430 125.3531070 147.6665970  94.7990560
 125.0677990 147.3021640  95.6369180 125.2909930 146.9346430  94.1853700
 130.2789950 151.9630920 100.9881300 129.9747020 152.8422900 101.2131660
 131.2336410 152.0230710 101.0238740 135.0269660 146.5595230  91.5203930
 134.2134270 146.0608400  91.4449240 134.8331610 147.3993480  91.1040280
 137.7418050 150.9314880  89.8166090 138.6297670 151.2432110  89.6417430
 137.7123140 150.0587130  89.4246670 126.3353680 152.8033660 102.1352660
 125.9768620 153.4687510 102.7226000 126.0408240 151.9717210 102.5065280
 129.5366800 153.2617900 105.0192210 129.2366940 153.4075080 104.1220030
 130.3078040 152.7023190 104.9265600 140.0132320 152.2426720  89.2845950
 139.9296040 152.6740940  88.4342390 140.7326510 152.7025070  89.7172770
 124.8461730 152.8024920  88.7587260 125.7156580 153.0849720  89.0423180
 124.3552050 153.6160790  88.6436070 127.9108320 144.5335780  93.3518060
 127.7822950 144.5253680  94.3002980 127.0870340 144.8718870  93.0009070
 124.9102250 146.2926900 102.8124760 124.1960770 146.4923820 103.4177370
 125.3297290 145.5166470 103.1839560 136.4041030 148.7849210 100.5626210
 136.7721850 147.9644420 100.8905780 135.5439230 148.8451100 100.9781860
 139.7703060 147.7406150  91.3713770 139.1416220 147.8451820  90.6572000
 139.2754980 147.9602930  92.1607650 131.7387090 150.0192100  92.7871650
 131.0303240 150.4878440  93.2285260 132.0231570 149.3614110  93.4216840
 133.3643020 151.4388800 100.7864180 133.8628270 151.9134620 101.4516030
 133.5065970 150.5152320 100.9934210 135.7702520 146.7442760  94.2267440
 135.6470300 146.7628890  93.2776950 136.7187080 146.7921700  94.3465840
 129.9422110 148.3277180  90.1622360 130.7912640 148.7647330  90.0962550
 129.5753380 148.6397440  90.9894420 140.5709880 147.6556760 101.6292570
 140.0683480 148.3962160 101.9686380 141.3866540 148.0440760 101.3129360
 138.8631890 152.8989940  95.0753930 137.9222030 152.9140170  95.2501620
 139.1775960 152.1125900  95.5214230 128.8413530 154.5809540  88.6357890
 129.6076800 154.4690900  89.1983320 128.9188220 153.8847510  87.9834660
 127.5360290 152.0134610  89.3190780 127.6163880 151.0662120  89.4308180
 128.4280040 152.3441490  89.4251440 125.0631090 153.8349530 104.5546950
 125.5670110 153.2556810 105.1263180 124.3238510 154.1189760 105.0923320
 127.0954170 151.9779120 105.4497020 127.1359510 151.6792990 106.3582250
 127.9499670 152.3786730 105.2904540 130.8732560 154.5774670  90.6100530
 131.2948980 154.4114540  91.4531920 130.9983400 153.7674900  90.1155670
 129.0359980 150.5571220 103.4171510 128.5056440 150.0662170 102.7894850
 129.7048050 150.9855420 102.8829440 133.3860200 153.6012280  87.8577630
 133.9065860 152.8861300  87.4918780 134.0328600 154.2398150  88.1578140
 138.4060210 152.3636840 105.1851850 138.9880980 151.6089160 105.0972330
 138.5821980 152.8944280 104.4083330 129.5232280 147.5233590 103.4968800
 129.4289150 146.9054340 102.7719670 128.9429670 148.2499880 103.2698710
 132.2893720 146.0806830 100.5296190 131.8411020 146.1031090  99.6841740
 131.6558920 145.6825850 101.1266490 135.0317170 152.7077340 102.5346470
 135.1513380 152.1118480 103.2741310 135.8911170 152.7447030 102.1147770
 137.3705070 153.2614530 101.1108980 136.8440290 153.7857150 100.5074120
 137.7136410 153.8941920 101.7418710 129.7691460 150.6507900  87.5558690
 129.5680520 149.7875260  87.9172030 129.5983510 150.5641260  86.6180290
 131.7985940 149.2498690 103.7922290 132.3885630 148.9414540 104.4800110
 130.9806180 148.7778440 103.9482190 136.6179370 148.8664500 104.0255310
 135.9294890 148.2046040 103.9605300 137.3385390 148.4202770 104.4703770
 137.2479770 145.4616130  90.0845570 137.5282060 144.6184030  90.4404990
 136.4745500 145.6939240  90.5984320 128.5674260 147.7508520  87.5436570
 128.8700160 147.7575950  86.6355720 129.3068850 147.4006380  88.0404230
 131.7859190 146.6943140  88.5292770 131.4381190 146.0167130  87.9495220
 131.9871960 146.2332650  89.3436160 125.1264830 153.2230790  94.9257140
 124.4713670 152.9542430  94.2816840 125.9642780 153.1135270  94.4759120
 138.0755270 148.0172080  89.1475630 138.4940150 147.8303060  88.3072290
 137.7691330 147.1651130  89.4578560 141.5745000 152.9296220  92.8451430
 141.1988600 152.1624150  92.4132720 140.8448120 153.3118920  93.3326360
 126.1640760 153.6083360  99.4660480 126.5313800 153.5210760 100.3456500
 125.5951580 152.8449910  99.3667340 140.9644620 152.0767740 102.4790950
 140.7330710 151.8480490 101.5788900 141.2249170 152.9967290 102.4335840
 125.7156760 150.5192450 103.3718900 124.8212810 150.4859210 103.7112610
 126.2554310 150.7179240 104.1370150 139.4032690 147.3024170 105.2570650
 140.2802870 147.3107570 105.6404650 139.4153530 146.5655010 104.6463000
 124.3402910 150.4329720  90.8682470 123.4366990 150.6959920  90.6934130
 124.8243530 150.7040890  90.0882430 140.8495960 151.1553710  96.1458670
 141.3733440 150.6616360  95.5148840 141.4355380 151.2904070  96.8906240
 141.0285680 151.2393580  99.6678220 140.0788390 151.2057120  99.7823210
 141.2098690 152.1493690  99.4327990 126.8830120 149.4895260  88.7776850
 127.5921820 149.0678480  88.2924130 126.1670060 149.5570490  88.1460200
 126.5304280 145.5434590  87.8179500 127.2532410 146.0843530  88.1360720
 126.8028800 145.2698010  86.9421040 140.3395930 150.4127060  92.0851080
 140.8355050 150.1797930  92.8699960 140.1412000 149.5738900  91.6688720
 126.2196470 144.7940780  97.7202120 126.8672660 144.2438160  97.2797280
 126.6398310 145.0483930  98.5417930 141.7683090 149.0488010  94.6188760
 141.6582370 148.8944050  95.5571030 142.5290680 148.5208950  94.3764170
 140.1148810 144.9882140 101.0771760 140.7521030 145.6016280 101.4430950
 140.2623700 145.0242800 100.1320990 142.6573360 146.8795930  87.8594900
 143.5822670 146.7477110  87.6513190 142.6349150 146.9588750  88.8131350
 142.7311850 147.6506590  90.4851610 141.9363350 147.5851710  91.0144520
 142.9355130 148.5857230  90.4736960 125.9728470 144.9496450 100.4627440
 125.6243290 145.4060270 101.2285620 125.6416170 144.0553580 100.5449870
 133.4853290 146.1408330 103.9846860 133.4242180 146.7330160 104.7342270
 134.4253670 146.0334290 103.8397120 136.1227850 145.7978390 103.6239150
 136.7368260 146.1157680 102.9620230 136.6677410 145.3126980 104.2435010
 126.6449110 144.4772650 103.7378210 127.1932100 144.2960700 102.9744320
 126.7104420 143.6866760 104.2734520 136.8635890 144.3610530  99.9508440
 135.9895730 144.6945640  99.7481370 136.7546640 143.8883710 100.7760310
 137.7707870 146.5681400 101.3350160 137.4421230 145.7533160 100.9551890
 138.7190170 146.5251210 101.2115850 134.6110710 145.2780370  98.8901350
 133.8282500 145.7525870  99.1698110 134.3173640 144.3735200  98.7814530
 139.1631780 145.9803470  96.9350440 139.6039870 145.9248570  96.0872040
 138.8939370 146.8961480  97.0060620 141.0270350 145.6118710  94.9459260
 140.9658750 144.6679930  94.7990280 141.8062380 145.7198800  95.4912720
 125.9551120 145.5827850  91.4115070 126.7130480 145.6956730  90.8379100
 125.4928290 146.4197050  91.3658500 132.4964930 147.6967120  94.4017380
 131.6839440 147.3224010  94.0613260 133.0006570 146.9412200  94.7038570
 136.9989910 144.3609570  95.6400450 137.6019280 144.9329780  96.1148970
 136.2582900 144.9249010  95.4174350 140.1424510 144.7631130  90.9140730
 140.3375140 145.6614580  91.1808160 139.3554380 144.5318210  91.4073680
 128.3276270 146.1091900  89.9517040 128.8569030 145.3221700  89.8224990
 128.9604590 146.7883090  90.1852570 130.5214110 145.8467040  93.0062430
 129.8916850 145.1454350  93.1732560 129.9819250 146.6071170  92.7895590
 130.6469670 145.1251020 105.4414920 130.3653940 145.6284620 104.6775740
 131.0289370 144.3272770 105.0757050 137.2485130 144.5404600 106.0195390
 137.1350580 144.8599210 106.9146910 138.0654870 144.9417110 105.7232670
 136.1543280 152.5597070  76.3830130 136.0737330 151.6451680  76.1121840
 135.7407700 153.0564140  75.6769840 134.2861320 154.3376090  78.2639400
 133.5103420 153.8576530  78.5537970 134.9374250 153.6581740  78.0895560
 128.3027150 154.6495900  79.1415160 127.4712030 154.3944610  79.5411670
 128.9108130 154.7206670  79.8773080 126.7119100 149.6097790  72.9257550
 125.8235800 149.9513760  72.8237430 126.9960290 149.4098110  72.0338380
 124.6752110 152.2103440  78.8097250 125.2468220 151.4425640  78.8100890
 124.6753650 152.5092200  77.9003860 125.9176980 147.6187800  80.5966180
 125.7379820 146.7213550  80.8768940 125.5157060 148.1659670  81.2713130
 134.7575480 149.8203660  78.4978490 135.1340300 148.9475540  78.3852160
 134.6594990 150.1562360  77.6068930 128.8880490 148.1929290  73.9595930
 128.9947240 149.0933020  74.2664690 127.9772850 148.1447260  73.6690580
 138.5399600 147.3154100  75.4306830 139.3609220 146.8250670  75.4732310
 138.5733680 147.9051760  76.1838670 126.5363650 150.1148300  79.2048520
 127.2173760 150.3786670  79.8235920 126.2211700 149.2749170  79.5386530
 130.7288220 151.1615660  78.2921110 131.2366440 151.6596630  78.9326130
 131.2601460 150.3850860  78.1160470 142.8299150 149.3320850  81.9950460
 142.1251320 149.7202560  81.4765570 143.0957070 150.0271140  82.5971390
 129.0124320 145.8014220  82.5584530 129.0142760 146.3186610  81.7530430
 128.1828630 145.3244400  82.5354460 138.7761080 149.2554480  78.2034370
 138.0716650 149.5439370  78.7837480 139.1373240 150.0654590  77.8433930
 128.6939650 147.5124180  80.5654980 129.0356460 148.3566230  80.2708850
 127.7555460 147.6607920  80.6820320 141.8448000 148.7009270  78.5943580
 140.8972910 148.7348250  78.7259010 142.1697990 149.5148220  78.9792940
 132.3767540 145.0006450  76.8899570 132.6842520 144.4453340  76.1735070
 131.4468240 145.1350910  76.7072560 134.7648300 153.0655280  73.6259690
 133.8377580 152.9992660  73.8548160 134.9173120 154.0035410  73.5114930
 134.7517380 149.3372280  70.6226850 133.8121050 149.4986240  70.7079310
 135.0700640 150.0557960  70.0762840 141.2730140 154.0190800  80.6005880
 140.4448770 154.0883890  80.1256010 141.8680620 154.6045110  80.1321710
 138.7945590 154.6275580  74.1294940 138.1758010 154.2895130  73.4821240
 138.7770040 153.9835340  74.8374130 138.2372150 150.8060120  81.5460750
 137.8243330 151.6313830  81.8000740 137.5048100 150.2205160  81.3537110
 130.3704940 153.5920020  76.4079420 129.9661940 152.8797270  75.9125320
 130.4568060 153.2473260  77.2967460 129.0833560 150.3663230  80.1878460
 129.6348150 150.4758570  79.4131710 129.5977070 150.7400830  80.9033690
 136.9710290 153.8662390  71.1367690 137.4103570 153.0284820  70.9905510
 137.6838710 154.4991790  71.2231830 128.7576290 153.8882590  83.7983800
 128.6184060 154.7605390  84.1671200 127.8757650 153.5455400  83.6531740
 140.5527430 145.1205200  69.4508730 140.2400090 145.2132030  70.3507800
 141.3139900 145.6986230  69.4006160 127.0709570 152.4865000  73.9086070
 126.9507170 153.2127090  73.2967340 126.7610460 151.7167910  73.4313980
 141.7628720 149.8576700  85.4282870 141.1472990 150.3656370  84.8998330
 141.4425140 148.9575030  85.3708810 129.5373230 145.8300070  77.2909740
 129.0941380 146.6109610  76.9594260 130.0958220 146.1529960  77.9980680
 133.8243040 148.6968590  82.8945060 133.3622410 148.9051610  83.7065000
 133.4221150 147.8827940  82.5915730 138.8247550 149.9177540  84.0241720
 137.9741140 149.6183290  84.3450790 138.6649340 150.1619550  83.1125540
 135.9197260 151.4179290  86.1240510 136.2450670 150.5843040  85.7842740
 136.7077590 151.9407810  86.2718840 132.6532050 145.4510770  72.1715570
 132.0286230 145.4470640  72.8968880 132.5662170 144.5841730  71.7751540
 131.5749130 146.3747400  79.1499340 131.8721460 147.2810230  79.0691360
 132.1234690 145.8866180  78.5358910 129.3287450 150.9533640  75.0190990
 129.1028370 150.7370810  75.9237610 128.5479980 151.3862100  74.6736960
 136.5585210 150.9597010  73.6181640 135.9594100 151.6832810  73.4345260
 137.1064820 150.8973790  72.8358090 131.7686660 151.8519220  85.6851260
 131.6730260 150.9113950  85.5351660 132.6118640 152.0734290  85.2899330
 135.1650080 149.5960550  75.6484920 135.5579650 149.9132750  74.8353610
 135.5266930 148.7172430  75.7629440 126.8997200 148.2632890  83.8385040
 126.5060590 149.1108100  84.0457820 126.2115600 147.6259260  84.0293680
 133.4742250 148.3467860  86.9081780 132.7840570 148.1540060  87.5427870
 134.2174550 148.6302500  87.4406080 124.2014250 146.1861350  77.8715120
 123.9127300 146.7564210  78.5840100 124.9460010 145.7065800  78.2346350
 124.3884480 150.1281470  69.0817840 124.3059150 151.0712230  69.2232830
 124.0367540 149.9856380  68.2030190 135.7505220 152.1866300  79.7435700
 135.0186340 152.6953110  80.0925800 135.3529560 151.3696280  79.4424480
 132.1882610 148.8620500  78.1488190 132.1918670 148.4210450  77.2992730
 133.0833730 149.1837830  78.2560010 128.0384990 148.7446990  77.1082400
 127.6985040 149.2222220  77.8649450 127.2762310 148.2912110  76.7483500
 132.2502760 149.8632580  71.1394950 132.3715580 149.8219060  72.0880770
 131.8651270 150.7256730  70.9841680 136.2131130 147.6399980  79.1558640
 136.2303870 148.0908630  80.0000490 135.9646710 146.7405620  79.3692080
 131.2624260 152.1733720  70.5378250 130.6941160 151.7251970  69.9114160
 131.9713260 152.5326500  70.0043400 139.6401880 145.0532160  84.9945020
 139.9647650 144.3221820  85.5203000 139.6758390 144.7345800  84.0926010
 132.4890580 152.9222280  79.8953600 132.8560710 152.4480850  80.6414940
 132.2995640 153.7963850  80.2361940 125.3531070 147.6665970  76.0247070
 125.0677990 147.3021640  76.8625690 125.2909930 146.9346430  75.4110210
 130.2789950 151.9630920  82.2137810 129.9747020 152.8422900  82.4388170
 131.2336410 152.0230710  82.2495250 135.0269660 146.5595230  72.7460440
 134.2134270 146.0608400  72.6705750 134.8331610 147.3993480  72.3296790
 137.7418050 150.9314880  71.0422600 138.6297670 151.2432110  70.8673940
 137.7123140 150.0587130  70.6503180 126.3353680 152.8033660  83.3609170
 125.9768620 153.4687510  83.9482510 126.0408240 151.9717210  83.7321790
 129.5366800 153.2617900  86.2448720 129.2366940 153.4075080  85.3476540
 130.3078040 152.7023190  86.1522110 140.0132320 152.2426720  70.5102460
 139.9296040 152.6740940  69.6598900 140.7326510 152.7025070  70.9429280
 124.8461730 152.8024920  69.9843770 125.7156580 153.0849720  70.2679690
 124.3552050 153.6160790  69.8692580 127.9108320 144.5335780  74.5774570
 127.7822950 144.5253680  75.5259490 127.0870340 144.8718870  74.2265580
 124.9102250 146.2926900  84.0381270 124.1960770 146.4923820  84.6433880
 125.3297290 145.5166470  84.4096070 136.4041030 148.7849210  81.7882720
 136.7721850 147.9644420  82.1162290 135.5439230 148.8451100  82.2038370
 139.7703060 147.7406150  72.5970280 139.1416220 147.8451820  71.8828510
 139.2754980 147.9602930  73.3864160 131.7387090 150.0192100  74.0128160
 131.0303240 150.4878440  74.4541770 132.0231570 149.3614110  74.6473350
 133.3643020 151.4388800  82.0120690 133.8628270 151.9134620  82.6772540
 133.5065970 150.5152320  82.2190720 135.7702520 146.7442760  75.4523950
 135.6470300 146.7628890  74.5033460 136.7187080 146.7921700  75.5722350
 129.9422110 148.3277180  71.3878870 130.7912640 148.7647330  71.3219060
 129.5753380 148.6397440  72.2150930 140.5709880 147.6556760  82.8549080
 140.0683480 148.3962160  83.1942890 141.3866540 148.0440760  82.5385870
 138.8631890 152.8989940  76.3010440 137.9222030 152.9140170  76.4758130
 139.1775960 152.1125900  76.7470740 128.8413530 154.5809540  69.8614400
 129.6076800 154.4690900  70.4239830 128.9188220 153.8847510  69.2091170
 127.5360290 152.0134610  70.5447290 127.6163880 151.0662120  70.6564690
 128.4280040 152.3441490  70.6507950 125.0631090 153.8349530  85.7803460
 125.5670110 153.2556810  86.3519690 124.3238510 154.1189760  86.3179830
 127.0954170 151.9779120  86.6753530 127.1359510 151.6792990  87.5838760
 127.9499670 152.3786730  86.5161050 130.8732560 154.5774670  71.8357040
 131.2948980 154.4114540  72.6788430 130.9983400 153.7674900  71.3412180
 129.0359980 150.5571220  84.6428020 128.5056440 150.0662170  84.0151360
 129.7048050 150.9855420  84.1085950 133.3860200 153.6012280  69.0834140
 133.9065860 152.8861300  68.7175290 134.0328600 154.2398150  69.3834650
 138.4060210 152.3636840  86.4108360 138.9880980 151.6089160  86.3228840
 138.5821980 152.8944280  85.6339840 129.5232280 147.5233590  84.7225310
 129.4289150 146.9054340  83.9976180 128.9429670 148.2499880  84.4955220
 132.2893720 146.0806830  81.7552700 131.8411020 146.1031090  80.9098250
 131.6558920 145.6825850  82.3523000 135.0317170 152.7077340  83.7602980
 135.1513380 152.1118480  84.4997820 135.8911170 152.7447030  83.3404280
 137.3705070 153.2614530  82.3365490 136.8440290 153.7857150  81.7330630
 137.7136410 153.8941920  82.9675220 129.7691460 150.6507900  68.7815200
 129.5680520 149.7875260  69.1428540 129.5983510 150.5641260  67.8436800
 131.7985940 149.2498690  85.0178800 132.3885630 148.9414540  85.7056620
 130.9806180 148.7778440  85.1738700 136.6179370 148.8664500  85.2511820
 135.9294890 148.2046040  85.1861810 137.3385390 148.4202770  85.6960280
 137.2479770 145.4616130  71.3102080 137.5282060 144.6184030  71.6661500
 136.4745500 145.6939240  71.8240830 128.5674260 147.7508520  68.7693080
 128.8700160 147.7575950  67.8612230 129.3068850 147.4006380  69.2660740
 131.7859190 146.6943140  69.7549280 131.4381190 146.0167130  69.1751730
 131.9871960 146.2332650  70.5692670 125.1264830 153.2230790  76.1513650
 124.4713670 152.9542430  75.5073350 125.9642780 153.1135270  75.7015630
 138.0755270 148.0172080  70.3732140 138.4940150 147.8303060  69.5328800
 137.7691330 147.1651130  70.6835070 141.5745000 152.9296220  74.0707940
 141.1988600 152.1624150  73.6389230 140.8448120 153.3118920  74.5582870
 126.1640760 153.6083360  80.6916990 126.5313800 153.5210760  81.5713010
 125.5951580 152.8449910  80.5923850 140.9644620 152.0767740  83.7047460
 140.7330710 151.8480490  82.8045410 141.2249170 152.9967290  83.6592350
 125.7156760 150.5192450  84.5975410 124.8212810 150.4859210  84.9369120
 126.2554310 150.7179240  85.3626660 139.4032690 147.3024170  86.4827160
 140.2802870 147.3107570  86.8661160 139.4153530 146.5655010  85.8719510
 124.3402910 150.4329720  72.0938980 123.4366990 150.6959920  71.9190640
 124.8243530 150.7040890  71.3138940 140.8495960 151.1553710  77.3715180
 141.3733440 150.6616360  76.7405350 141.4355380 151.2904070  78.1162750
 141.0285680 151.2393580  80.8934730 140.0788390 151.2057120  81.0079720
 141.2098690 152.1493690  80.6584500 126.8830120 149.4895260  70.0033360
 127.5921820 149.0678480  69.5180640 126.1670060 149.5570490  69.3716710
 126.5304280 145.5434590  69.0436010 127.2532410 146.0843530  69.3617230
 126.8028800 145.2698010  68.1677550 140.3395930 150.4127060  73.3107590
 140.8355050 150.1797930  74.0956470 140.1412000 149.5738900  72.8945230
 126.2196470 144.7940780  78.9458630 126.8672660 144.2438160  78.5053790
 126.6398310 145.0483930  79.7674440 141.7683090 149.0488010  75.8445270
 141.6582370 148.8944050  76.7827540 142.5290680 148.5208950  75.6020680
 140.1148810 144.9882140  82.3028270 140.7521030 145.6016280  82.6687460
 140.2623700 145.0242800  81.3577500 142.6573360 146.8795930  69.0851410
 143.5822670 146.7477110  68.8769700 142.6349150 146.9588750  70.0387860
 142.7311850 147.6506590  71.7108120 141.9363350 147.5851710  72.2401030
 142.9355130 148.5857230  71.6993470 125.9728470 144.9496450  81.6883950
 125.6243290 145.4060270  82.4542130 125.6416170 144.0553580  81.7706380
 133.4853290 146.1408330  85.2103370 133.4242180 146.7330160  85.9598780
 134.4253670 146.0334290  85.0653630 136.1227850 145.7978390  84.8495660
 136.7368260 146.1157680  84.1876740 136.6677410 145.3126980  85.4691520
 126.6449110 144.4772650  84.9634720 127.1932100 144.2960700  84.2000830
 126.7104420 143.6866760  85.4991030 136.8635890 144.3610530  81.1764950
 135.9895730 144.6945640  80.9737880 136.7546640 143.8883710  82.0016820
 137.7707870 146.5681400  82.5606670 137.4421230 145.7533160  82.1808400
 138.7190170 146.5251210  82.4372360 134.6110710 145.2780370  80.1157860
 133.8282500 145.7525870  80.3954620 134.3173640 144.3735200  80.0071040
 139.1631780 145.9803470  78.1606950 139.6039870 145.9248570  77.3128550
 138.8939370 146.8961480  78.2317130 141.0270350 145.6118710  76.1715770
 140.9658750 144.6679930  76.0246790 141.8062380 145.7198800  76.7169230
 125.9551120 145.5827850  72.6371580 126.7130480 145.6956730  72.0635610
 125.4928290 146.4197050  72.5915010 132.4964930 147.6967120  75.6273890
 131.6839440 147.3224010  75.2869770 133.0006570 146.9412200  75.9295080
 136.9989910 144.3609570  76.8656960 137.6019280 144.9329780  77.3405480
 136.2582900 144.9249010  76.6430860 140.1424510 144.7631130  72.1397240
 140.3375140 145.6614580  72.4064670 139.3554380 144.5318210  72.6330190
 128.3276270 146.1091900  71.1773550 128.8569030 145.3221700  71.0481500
 128.9604590 146.7883090  71.4109080 130.5214110 145.8467040  74.2318940
 129.8916850 145.1454350  74.3989070 129.9819250 146.6071170  74.0152100
 130.6469670 145.1251020  86.6671430 130.3653940 145.6284620  85.9032250
 131.0289370 144.3272770  86.3013560 137.2485130 144.5404600  87.2451900
 137.1350580 144.8599210  88.1403420 138.0654870 144.9417110  86.9489180
 136.1543280 152.5597070  57.6086640 136.0737330 151.6451680  57.3378350
 135.7407700 153.0564140  56.9026350 134.2861320 154.3376090  59.4895910
 133.5103420 153.8576530  59.7794480 134.9374250 153.6581740  59.3152070
 128.3027150 154.6495900  60.3671670 127.4712030 154.3944610  60.7668180
 128.9108130 154.7206670  61.1029590 126.7119100 149.6097790  54.1514060
 125.8235800 149.9513760  54.0493940 126.9960290 149.4098110  53.2594890
 124.6752110 152.2103440  60.0353760 125.2468220 151.4425640  60.0357400
 124.6753650 152.5092200  59.1260370 125.9176980 147.6187800  61.8222690
 125.7379820 146.7213550  62.1025450 125.5157060 148.1659670  62.4969640
 134.7575480 149.8203660  59.7235000 135.1340300 148.9475540  59.6108670
 134.6594990 150.1562360  58.8325440 128.8880490 148.1929290  55.1852440
 128.9947240 149.0933020  55.4921200 127.9772850 148.1447260  54.8947090
 138.5399600 147.3154100  56.6563340 139.3609220 146.8250670  56.6988820
 138.5733680 147.9051760  57.4095180 126.5363650 150.1148300  60.4305030
 127.2173760 150.3786670  61.0492430 126.2211700 149.2749170  60.7643040
 130.7288220 151.1615660  59.5177620 131.2366440 151.6596630  60.1582640
 131.2601460 150.3850860  59.3416980 142.8299150 149.3320850  63.2206970
 142.1251320 149.7202560  62.7022080 143.0957070 150.0271140  63.8227900
 129.0124320 145.8014220  63.7841040 129.0142760 146.3186610  62.9786940
 128.1828630 145.3244400  63.7610970 138.7761080 149.2554480  59.4290880
 138.0716650 149.5439370  60.0093990 139.1373240 150.0654590  59.0690440
 128.6939650 147.5124180  61.7911490 129.0356460 148.3566230  61.4965360
 127.7555460 147.6607920  61.9076830 141.8448000 148.7009270  59.8200090
 140.8972910 148.7348250  59.9515520 142.1697990 149.5148220  60.2049450
 132.3767540 145.0006450  58.1156080 132.6842520 144.4453340  57.3991580
 131.4468240 145.1350910  57.9329070 134.7648300 153.0655280  54.8516200
 133.8377580 152.9992660  55.0804670 134.9173120 154.0035410  54.7371440
 134.7517380 149.3372280  51.8483360 133.8121050 149.4986240  51.9335820
 135.0700640 150.0557960  51.3019350 141.2730140 154.0190800  61.8262390
 140.4448770 154.0883890  61.3512520 141.8680620 154.6045110  61.3578220
 138.7945590 154.6275580  55.3551450 138.1758010 154.2895130  54.7077750
 138.7770040 153.9835340  56.0630640 138.2372150 150.8060120  62.7717260
 137.8243330 151.6313830  63.0257250 137.5048100 150.2205160  62.5793620
 130.3704940 153.5920020  57.6335930 129.9661940 152.8797270  57.1381830
 130.4568060 153.2473260  58.5223970 129.0833560 150.3663230  61.4134970
 129.6348150 150.4758570  60.6388220 129.5977070 150.7400830  62.1290200
 136.9710290 153.8662390  52.3624200 137.4103570 153.0284820  52.2162020
 137.6838710 154.4991790  52.4488340 128.7576290 153.8882590  65.0240310
 128.6184060 154.7605390  65.3927710 127.8757650 153.5455400  64.8788250
 140.5527430 145.1205200  50.6765240 140.2400090 145.2132030  51.5764310
 141.3139900 145.6986230  50.6262670 127.0709570 152.4865000  55.1342580
 126.9507170 153.2127090  54.5223850 126.7610460 151.7167910  54.6570490
 141.7628720 149.8576700  66.6539380 141.1472990 150.3656370  66.1254840
 141.4425140 148.9575030  66.5965320 129.5373230 145.8300070  58.5166250
 129.0941380 146.6109610  58.1850770 130.0958220 146.1529960  59.2237190
 133.8243040 148.6968590  64.1201570 133.3622410 148.9051610  64.9321510
 133.4221150 147.8827940  63.8172240 138.8247550 149.9177540  65.2498230
 137.9741140 149.6183290  65.5707300 138.6649340 150.1619550  64.3382050
 135.9197260 151.4179290  67.3497020 136.2450670 150.5843040  67.0099250
 136.7077590 151.9407810  67.4975350 132.6532050 145.4510770  53.3972080
 132.0286230 145.4470640  54.1225390 132.5662170 144.5841730  53.0008050
 131.5749130 146.3747400  60.3755850 131.8721460 147.2810230  60.2947870
 132.1234690 145.8866180  59.7615420 129.3287450 150.9533640  56.2447500
 129.1028370 150.7370810  57.1494120 128.5479980 151.3862100  55.8993470
 136.5585210 150.9597010  54.8438150 135.9594100 151.6832810  54.6601770
 137.1064820 150.8973790  54.0614600 131.7686660 151.8519220  66.9107770
 131.6730260 150.9113950  66.7608170 132.6118640 152.0734290  66.5155840
 135.1650080 149.5960550  56.8741430 135.5579650 149.9132750  56.0610120
 135.5266930 148.7172430  56.9885950 126.8997200 148.2632890  65.0641550
 126.5060590 149.1108100  65.2714330 126.2115600 147.6259260  65.2550190
 133.4742250 148.3467860  68.1338290 132.7840570 148.1540060  68.7684380
 134.2174550 148.6302500  68.6662590 124.2014250 146.1861350  59.0971630
 123.9127300 146.7564210  59.8096610 124.9460010 145.7065800  59.4602860
 124.3884480 150.1281470  50.3074350 124.3059150 151.0712230  50.4489340
 124.0367540 149.9856380  49.4286700 135.7505220 152.1866300  60.9692210
 135.0186340 152.6953110  61.3182310 135.3529560 151.3696280  60.6680990
 132.1882610 148.8620500  59.3744700 132.1918670 148.4210450  58.5249240
 133.0833730 149.1837830  59.4816520 128.0384990 148.7446990  58.3338910
 127.6985040 149.2222220  59.0905960 127.2762310 148.2912110  57.9740010
 132.2502760 149.8632580  52.3651460 132.3715580 149.8219060  53.3137280
 131.8651270 150.7256730  52.2098190 136.2131130 147.6399980  60.3815150
 136.2303870 148.0908630  61.2257000 135.9646710 146.7405620  60.5948590
 131.2624260 152.1733720  51.7634760 130.6941160 151.7251970  51.1370670
 131.9713260 152.5326500  51.2299910 139.6401880 145.0532160  66.2201530
 139.9647650 144.3221820  66.7459510 139.6758390 144.7345800  65.3182520
 132.4890580 152.9222280  61.1210110 132.8560710 152.4480850  61.8671450
 132.2995640 153.7963850  61.4618450 125.3531070 147.6665970  57.2503580
 125.0677990 147.3021640  58.0882200 125.2909930 146.9346430  56.6366720
 130.2789950 151.9630920  63.4394320 129.9747020 152.8422900  63.6644680
 131.2336410 152.0230710  63.4751760 135.0269660 146.5595230  53.9716950
 134.2134270 146.0608400  53.8962260 134.8331610 147.3993480  53.5553300
 137.7418050 150.9314880  52.2679110 138.6297670 151.2432110  52.0930450
 137.7123140 150.0587130  51.8759690 126.3353680 152.8033660  64.5865680
 125.9768620 153.4687510  65.1739020 126.0408240 151.9717210  64.9578300
 129.5366800 153.2617900  67.4705230 129.2366940 153.4075080  66.5733050
 130.3078040 152.7023190  67.3778620 140.0132320 152.2426720  51.7358970
 139.9296040 152.6740940  50.8855410 140.7326510 152.7025070  52.1685790
 124.8461730 152.8024920  51.2100280 125.7156580 153.0849720  51.4936200
 124.3552050 153.6160790  51.0949090 127.9108320 144.5335780  55.8031080
 127.7822950 144.5253680  56.7516000 127.0870340 144.8718870  55.4522090
 124.9102250 146.2926900  65.2637780 124.1960770 146.4923820  65.8690390
 125.3297290 145.5166470  65.6352580 136.4041030 148.7849210  63.0139230
 136.7721850 147.9644420  63.3418800 135.5439230 148.8451100  63.4294880
 139.7703060 147.7406150  53.8226790 139.1416220 147.8451820  53.1085020
 139.2754980 147.9602930  54.6120670 131.7387090 150.0192100  55.2384670
 131.0303240 150.4878440  55.6798280 132.0231570 149.3614110  55.8729860
 133.3643020 151.4388800  63.2377200 133.8628270 151.9134620  63.9029050
 133.5065970 150.5152320  63.4447230 135.7702520 146.7442760  56.6780460
 135.6470300 146.7628890  55.7289970 136.7187080 146.7921700  56.7978860
 129.9422110 148.3277180  52.6135380 130.7912640 148.7647330  52.5475570
 129.5753380 148.6397440  53.4407440 140.5709880 147.6556760  64.0805590
 140.0683480 148.3962160  64.4199400 141.3866540 148.0440760  63.7642380
 138.8631890 152.8989940  57.5266950 137.9222030 152.9140170  57.7014640
 139.1775960 152.1125900  57.9727250 128.8413530 154.5809540  51.0870910
 129.6076800 154.4690900  51.6496340 128.9188220 153.8847510  50.4347680
 127.5360290 152.0134610  51.7703800 127.6163880 151.0662120  51.8821200
 128.4280040 152.3441490  51.8764460 125.0631090 153.8349530  67.0059970
 125.5670110 153.2556810  67.5776200 124.3238510 154.1189760  67.5436340
 127.0954170 151.9779120  67.9010040 127.1359510 151.6792990  68.8095270
 127.9499670 152.3786730  67.7417560 130.8732560 154.5774670  53.0613550
 131.2948980 154.4114540  53.9044940 130.9983400 153.7674900  52.5668690
 129.0359980 150.5571220  65.8684530 128.5056440 150.0662170  65.2407870
 129.7048050 150.9855420  65.3342460 133.3860200 153.6012280  50.3090650
 133.9065860 152.8861300  49.9431800 134.0328600 154.2398150  50.6091160
 138.4060210 152.3636840  67.6364870 138.9880980 151.6089160  67.5485350
 138.5821980 152.8944280  66.8596350 129.5232280 147.5233590  65.9481820
 129.4289150 146.9054340  65.2232690 128.9429670 148.2499880  65.7211730
 132.2893720 146.0806830  62.9809210 131.8411020 146.1031090  62.1354760
 131.6558920 145.6825850  63.5779510 135.0317170 152.7077340  64.9859490
 135.1513380 152.1118480  65.7254330 135.8911170 152.7447030  64.5660790
 137.3705070 153.2614530  63.5622000 136.8440290 153.7857150  62.9587140
 137.7136410 153.8941920  64.1931730 129.7691460 150.6507900  50.0071710
 129.5680520 149.7875260  50.3685050 129.5983510 150.5641260  49.0693310
 131.7985940 149.2498690  66.2435310 132.3885630 148.9414540  66.9313130
 130.9806180 148.7778440  66.3995210 136.6179370 148.8664500  66.4768330
 135.9294890 148.2046040  66.4118320 137.3385390 148.4202770  66.9216790
 137.2479770 145.4616130  52.5358590 137.5282060 144.6184030  52.8918010
 136.4745500 145.6939240  53.0497340 128.5674260 147.7508520  49.9949590
 128.8700160 147.7575950  49.0868740 129.3068850 147.4006380  50.4917250
 131.7859190 146.6943140  50.9805790 131.4381190 146.0167130  50.4008240
 131.9871960 146.2332650  51.7949180 125.1264830 153.2230790  57.3770160
 124.4713670 152.9542430  56.7329860 125.9642780 153.1135270  56.9272140
 138.0755270 148.0172080  51.5988650 138.4940150 147.8303060  50.7585310
 137.7691330 147.1651130  51.9091580 141.5745000 152.9296220  55.2964450
 141.1988600 152.1624150  54.8645740 140.8448120 153.3118920  55.7839380
 126.1640760 153.6083360  61.9173500 126.5313800 153.5210760  62.7969520
 125.5951580 152.8449910  61.8180360 140.9644620 152.0767740  64.9303970
 140.7330710 151.8480490  64.0301920 141.2249170 152.9967290  64.8848860
 125.7156760 150.5192450  65.8231920 124.8212810 150.4859210  66.1625630
 126.2554310 150.7179240  66.5883170 139.4032690 147.3024170  67.7083670
 140.2802870 147.3107570  68.0917670 139.4153530 146.5655010  67.0976020
 124.3402910 150.4329720  53.3195490 123.4366990 150.6959920  53.1447150
 124.8243530 150.7040890  52.5395450 140.8495960 151.1553710  58.5971690
 141.3733440 150.6616360  57.9661860 141.4355380 151.2904070  59.3419260
 141.0285680 151.2393580  62.1191240 140.0788390 151.2057120  62.2336230
 141.2098690 152.1493690  61.8841010 126.8830120 149.4895260  51.2289870
 127.5921820 149.0678480  50.7437150 126.1670060 149.5570490  50.5973220
 126.5304280 145.5434590  50.2692520 127.2532410 146.0843530  50.5873740
 126.8028800 145.2698010  49.3934060 140.3395930 150.4127060  54.5364100
 140.8355050 150.1797930  55.3212980 140.1412000 149.5738900  54.1201740
 126.2196470 144.7940780  60.1715140 126.8672660 144.2438160  59.7310300
 126.6398310 145.0483930  60.9930950 141.7683090 149.0488010  57.0701780
 141.6582370 148.8944050  58.0084050 142.5290680 148.5208950  56.8277190
 140.1148810 144.9882140  63.5284780 140.7521030 145.6016280  63.8943970
 140.2623700 145.0242800  62.5834010 142.6573360 146.8795930  50.3107920
 143.5822670 146.7477110  50.1026210 142.6349150 146.9588750  51.2644370
 142.7311850 147.6506590  52.9364630 141.9363350 147.5851710  53.4657540
 142.9355130 148.5857230  52.9249980 125.9728470 144.9496450  62.9140460
 125.6243290 145.4060270  63.6798640 125.6416170 144.0553580  62.9962890
 133.4853290 146.1408330  66.4359880 133.4242180 146.7330160  67.1855290
 134.4253670 146.0334290  66.2910140 136.1227850 145.7978390  66.0752170
 136.7368260 146.1157680  65.4133250 136.6677410 145.3126980  66.6948030
 126.6449110 144.4772650  66.1891230 127.1932100 144.2960700  65.4257340
 126.7104420 143.6866760  66.7247540 136.8635890 144.3610530  62.4021460
 135.9895730 144.6945640  62.1994390 136.7546640 143.8883710  63.2273330
 137.7707870 146.5681400  63.7863180 137.4421230 145.7533160  63.4064910
 138.7190170 146.5251210  63.6628870 134.6110710 145.2780370  61.3414370
 133.8282500 145.7525870  61.6211130 134.3173640 144.3735200  61.2327550
 139.1631780 145.9803470  59.3863460 139.6039870 145.9248570  58.5385060
 138.8939370 146.8961480  59.4573640 141.0270350 145.6118710  57.3972280
 140.9658750 144.6679930  57.2503300 141.8062380 145.7198800  57.9425740
 125.9551120 145.5827850  53.8628090 126.7130480 145.6956730  53.2892120
 125.4928290 146.4197050  53.8171520 132.4964930 147.6967120  56.8530400
 131.6839440 147.3224010  56.5126280 133.0006570 146.9412200  57.1551590
 136.9989910 144.3609570  58.0913470 137.6019280 144.9329780  58.5661990
 136.2582900 144.9249010  57.8687370 140.1424510 144.7631130  53.3653750
 140.3375140 145.6614580  53.6321180 139.3554380 144.5318210  53.8586700
 128.3276270 146.1091900  52.4030060 128.8569030 145.3221700  52.2738010
 128.9604590 146.7883090  52.6365590 130.5214110 145.8467040  55.4575450
 129.8916850 145.1454350  55.6245580 129.9819250 146.6071170  55.2408610
 130.6469670 145.1251020  67.8927940 130.3653940 145.6284620  67.1288760
 131.0289370 144.3272770  67.5270070 137.2485130 144.5404600  68.4708410
 137.1350580 144.8599210  69.3659930 138.0654870 144.9417110  68.1745690
 136.1543280 152.5597070  38.8343150 136.0737330 151.6451680  38.5634860
 135.7407700 153.0564140  38.1282860 134.2861320 154.3376090  40.7152420
 133.5103420 153.8576530  41.0050990 134.9374250 153.6581740  40.5408580
 128.3027150 154.6495900  41.5928180 127.4712030 154.3944610  41.9924690
 128.9108130 154.7206670  42.3286100 126.7119100 149.6097790  35.3770570
 125.8235800 149.9513760  35.2750450 126.9960290 149.4098110  34.4851400
 124.6752110 152.2103440  41.2610270 125.2468220 151.4425640  41.2613910
 124.6753650 152.5092200  40.3516880 125.9176980 147.6187800  43.0479200
 125.7379820 146.7213550  43.3281960 125.5157060 148.1659670  43.7226150
 134.7575480 149.8203660  40.9491510 135.1340300 148.9475540  40.8365180
 134.6594990 150.1562360  40.0581950 128.8880490 148.1929290  36.4108950
 128.9947240 149.0933020  36.7177710 127.9772850 148.1447260  36.1203600
 138.5399600 147.3154100  37.8819850 139.3609220 146.8250670  37.9245330
 138.5733680 147.9051760  38.6351690 126.5363650 150.1148300  41.6561540
 127.2173760 150.3786670  42.2748940 126.2211700 149.2749170  41.9899550
 130.7288220 151.1615660  40.7434130 131.2366440 151.6596630  41.3839150
 131.2601460 150.3850860  40.5673490 142.8299150 149.3320850  44.4463480
 142.1251320 149.7202560  43.9278590 143.0957070 150.0271140  45.0484410
 129.0124320 145.8014220  45.0097550 129.0142760 146.3186610  44.2043450
 128.1828630 145.3244400  44.9867480 138.7761080 149.2554480  40.6547390
 138.0716650 149.5439370  41.2350500 139.1373240 150.0654590  40.2946950
 128.6939650 147.5124180  43.0168000 129.0356460 148.3566230  42.7221870
 127.7555460 147.6607920  43.1333340 141.8448000 148.7009270  41.0456600
 140.8972910 148.7348250  41.1772030 142.1697990 149.5148220  41.4305960
 132.3767540 145.0006450  39.3412590 132.6842520 144.4453340  38.6248090
 131.4468240 145.1350910  39.1585580 134.7648300 153.0655280  36.0772710
 133.8377580 152.9992660  36.3061180 134.9173120 154.0035410  35.9627950
 134.7517380 149.3372280  33.0739870 133.8121050 149.4986240  33.1592330
 135.0700640 150.0557960  32.5275860 141.2730140 154.0190800  43.0518900
 140.4448770 154.0883890  42.5769030 141.8680620 154.6045110  42.5834730
 138.7945590 154.6275580  36.5807960 138.1758010 154.2895130  35.9334260
 138.7770040 153.9835340  37.2887150 138.2372150 150.8060120  43.9973770
 137.8243330 151.6313830  44.2513760 137.5048100 150.2205160  43.8050130
 130.3704940 153.5920020  38.8592440 129.9661940 152.8797270  38.3638340
 130.4568060 153.2473260  39.7480480 129.0833560 150.3663230  42.6391480
 129.6348150 150.4758570  41.8644730 129.5977070 150.7400830  43.3546710
 136.9710290 153.8662390  33.5880710 137.4103570 153.0284820  33.4418530
 137.6838710 154.4991790  33.6744850 128.7576290 153.8882590  46.2496820
 128.6184060 154.7605390  46.6184220 127.8757650 153.5455400  46.1044760
 140.5527430 145.1205200  31.9021750 140.2400090 145.2132030  32.8020820
 141.3139900 145.6986230  31.8519180 127.0709570 152.4865000  36.3599090
 126.9507170 153.2127090  35.7480360 126.7610460 151.7167910  35.8827000
 141.7628720 149.8576700  47.8795890 141.1472990 150.3656370  47.3511350
 141.4425140 148.9575030  47.8221830 129.5373230 145.8300070  39.7422760
 129.0941380 146.6109610  39.4107280 130.0958220 146.1529960  40.4493700
 133.8243040 148.6968590  45.3458080 133.3622410 148.9051610  46.1578020
 133.4221150 147.8827940  45.0428750 138.8247550 149.9177540  46.4754740
 137.9741140 149.6183290  46.7963810 138.6649340 150.1619550  45.5638560
 135.9197260 151.4179290  48.5753530 136.2450670 150.5843040  48.2355760
 136.7077590 151.9407810  48.7231860 132.6532050 145.4510770  34.6228590
 132.0286230 145.4470640  35.3481900 132.5662170 144.5841730  34.2264560
 131.5749130 146.3747400  41.6012360 131.8721460 147.2810230  41.5204380
 132.1234690 145.8866180  40.9871930 129.3287450 150.9533640  37.4704010
 129.1028370 150.7370810  38.3750630 128.5479980 151.3862100  37.1249980
 136.5585210 150.9597010  36.0694660 135.9594100 151.6832810  35.8858280
 137.1064820 150.8973790  35.2871110 131.7686660 151.8519220  48.1364280
 131.6730260 150.9113950  47.9864680 132.6118640 152.0734290  47.7412350
 135.1650080 149.5960550  38.0997940 135.5579650 149.9132750  37.2866630
 135.5266930 148.7172430  38.2142460 126.8997200 148.2632890  46.2898060
 126.5060590 149.1108100  46.4970840 126.2115600 147.6259260  46.4806700
 133.4742250 148.3467860  49.3594800 132.7840570 148.1540060  49.9940890
 134.2174550 148.6302500  49.8919100 124.2014250 146.1861350  40.3228140
 123.9127300 146.7564210  41.0353120 124.9460010 145.7065800  40.6859370
 124.3884480 150.1281470  31.5330860 124.3059150 151.0712230  31.6745850
 124.0367540 149.9856380  30.6543210 135.7505220 152.1866300  42.1948720
 135.0186340 152.6953110  42.5438820 135.3529560 151.3696280  41.8937500
 132.1882610 148.8620500  40.6001210 132.1918670 148.4210450  39.7505750
 133.0833730 149.1837830  40.7073030 128.0384990 148.7446990  39.5595420
 127.6985040 149.2222220  40.3162470 127.2762310 148.2912110  39.1996520
 132.2502760 149.8632580  33.5907970 132.3715580 149.8219060  34.5393790
 131.8651270 150.7256730  33.4354700 136.2131130 147.6399980  41.6071660
 136.2303870 148.0908630  42.4513510 135.9646710 146.7405620  41.8205100
 131.2624260 152.1733720  32.9891270 130.6941160 151.7251970  32.3627180
 131.9713260 152.5326500  32.4556420 139.6401880 145.0532160  47.4458040
 139.9647650 144.3221820  47.9716020 139.6758390 144.7345800  46.5439030
 132.4890580 152.9222280  42.3466620 132.8560710 152.4480850  43.0927960
 132.2995640 153.7963850  42.6874960 125.3531070 147.6665970  38.4760090
 125.0677990 147.3021640  39.3138710 125.2909930 146.9346430  37.8623230
 130.2789950 151.9630920  44.6650830 129.9747020 152.8422900  44.8901190
 131.2336410 152.0230710  44.7008270 135.0269660 146.5595230  35.1973460
 134.2134270 146.0608400  35.1218770 134.8331610 147.3993480  34.7809810
 137.7418050 150.9314880  33.4935620 138.6297670 151.2432110  33.3186960
 137.7123140 150.0587130  33.1016200 126.3353680 152.8033660  45.8122190
 125.9768620 153.4687510  46.3995530 126.0408240 151.9717210  46.1834810
 129.5366800 153.2617900  48.6961740 129.2366940 153.4075080  47.7989560
 130.3078040 152.7023190  48.6035130 140.0132320 152.2426720  32.9615480
 139.9296040 152.6740940  32.1111920 140.7326510 152.7025070  33.3942300
 124.8461730 152.8024920  32.4356790 125.7156580 153.0849720  32.7192710
 124.3552050 153.6160790  32.3205600 127.9108320 144.5335780  37.0287590
 127.7822950 144.5253680  37.9772510 127.0870340 144.8718870  36.6778600
 124.9102250 146.2926900  46.4894290 124.1960770 146.4923820  47.0946900
 125.3297290 145.5166470  46.8609090 136.4041030 148.7849210  44.2395740
 136.7721850 147.9644420  44.5675310 135.5439230 148.8451100  44.6551390
 139.7703060 147.7406150  35.0483300 139.1416220 147.8451820  34.3341530
 139.2754980 147.9602930  35.8377180 131.7387090 150.0192100  36.4641180
 131.0303240 150.4878440  36.9054790 132.0231570 149.3614110  37.0986370
 133.3643020 151.4388800  44.4633710 133.8628270 151.9134620  45.1285560
 133.5065970 150.5152320  44.6703740 135.7702520 146.7442760  37.9036970
 135.6470300 146.7628890  36.9546480 136.7187080 146.7921700  38.0235370
 129.9422110 148.3277180  33.8391890 130.7912640 148.7647330  33.7732080
 129.5753380 148.6397440  34.6663950 140.5709880 147.6556760  45.3062100
 140.0683480 148.3962160  45.6455910 141.3866540 148.0440760  44.9898890
 138.8631890 152.8989940  38.7523460 137.9222030 152.9140170  38.9271150
 139.1775960 152.1125900  39.1983760 128.8413530 154.5809540  32.3127420
 129.6076800 154.4690900  32.8752850 128.9188220 153.8847510  31.6604190
 127.5360290 152.0134610  32.9960310 127.6163880 151.0662120  33.1077710
 128.4280040 152.3441490  33.1020970 125.0631090 153.8349530  48.2316480
 125.5670110 153.2556810  48.8032710 124.3238510 154.1189760  48.7692850
 127.0954170 151.9779120  49.1266550 127.1359510 151.6792990  50.0351780
 127.9499670 152.3786730  48.9674070 130.8732560 154.5774670  34.2870060
 131.2948980 154.4114540  35.1301450 130.9983400 153.7674900  33.7925200
 129.0359980 150.5571220  47.0941040 128.5056440 150.0662170  46.4664380
 129.7048050 150.9855420  46.5598970 133.3860200 153.6012280  31.5347160
 133.9065860 152.8861300  31.1688310 134.0328600 154.2398150  31.8347670
 138.4060210 152.3636840  48.8621380 138.9880980 151.6089160  48.7741860
 138.5821980 152.8944280  48.0852860 129.5232280 147.5233590  47.1738330
 129.4289150 146.9054340  46.4489200 128.9429670 148.2499880  46.9468240
 132.2893720 146.0806830  44.2065720 131.8411020 146.1031090  43.3611270
 131.6558920 145.6825850  44.8036020 135.0317170 152.7077340  46.2116000
 135.1513380 152.1118480  46.9510840 135.8911170 152.7447030  45.7917300
 137.3705070 153.2614530  44.7878510 136.8440290 153.7857150  44.1843650
 137.7136410 153.8941920  45.4188240 129.7691460 150.6507900  31.2328220
 129.5680520 149.7875260  31.5941560 129.5983510 150.5641260  30.2949820
 131.7985940 149.2498690  47.4691820 132.3885630 148.9414540  48.1569640
 130.9806180 148.7778440  47.6251720 136.6179370 148.8664500  47.7024840
 135.9294890 148.2046040  47.6374830 137.3385390 148.4202770  48.1473300
 137.2479770 145.4616130  33.7615100 137.5282060 144.6184030  34.1174520
 136.4745500 145.6939240  34.2753850 128.5674260 147.7508520  31.2206100
 128.8700160 147.7575950  30.3125250 129.3068850 147.4006380  31.7173760
 131.7859190 146.6943140  32.2062300 131.4381190 146.0167130  31.6264750
 131.9871960 146.2332650  33.0205690 125.1264830 153.2230790  38.6026670
 124.4713670 152.9542430  37.9586370 125.9642780 153.1135270  38.1528650
 138.0755270 148.0172080  32.8245160 138.4940150 147.8303060  31.9841820
 137.7691330 147.1651130  33.1348090 141.5745000 152.9296220  36.5220960
 141.1988600 152.1624150  36.0902250 140.8448120 153.3118920  37.0095890
 126.1640760 153.6083360  43.1430010 126.5313800 153.5210760  44.0226030
 125.5951580 152.8449910  43.0436870 140.9644620 152.0767740  46.1560480
 140.7330710 151.8480490  45.2558430 141.2249170 152.9967290  46.1105370
 125.7156760 150.5192450  47.0488430 124.8212810 150.4859210  47.3882140
 126.2554310 150.7179240  47.8139680 139.4032690 147.3024170  48.9340180
 140.2802870 147.3107570  49.3174180 139.4153530 146.5655010  48.3232530
 124.3402910 150.4329720  34.5452000 123.4366990 150.6959920  34.3703660
 124.8243530 150.7040890  33.7651960 140.8495960 151.1553710  39.8228200
 141.3733440 150.6616360  39.1918370 141.4355380 151.2904070  40.5675770
 141.0285680 151.2393580  43.3447750 140.0788390 151.2057120  43.4592740
 141.2098690 152.1493690  43.1097520 126.8830120 149.4895260  32.4546380
 127.5921820 149.0678480  31.9693660 126.1670060 149.5570490  31.8229730
 126.5304280 145.5434590  31.4949030 127.2532410 146.0843530  31.8130250
 126.8028800 145.2698010  30.6190570 140.3395930 150.4127060  35.7620610
 140.8355050 150.1797930  36.5469490 140.1412000 149.5738900  35.3458250
 126.2196470 144.7940780  41.3971650 126.8672660 144.2438160  40.9566810
 126.6398310 145.0483930  42.2187460 141.7683090 149.0488010  38.2958290
 141.6582370 148.8944050  39.2340560 142.5290680 148.5208950  38.0533700
 140.1148810 144.9882140  44.7541290 140.7521030 145.6016280  45.1200480
 140.2623700 145.0242800  43.8090520 142.6573360 146.8795930  31.5364430
 143.5822670 146.7477110  31.3282720 142.6349150 146.9588750  32.4900880
 142.7311850 147.6506590  34.1621140 141.9363350 147.5851710  34.6914050
 142.9355130 148.5857230  34.1506490 125.9728470 144.9496450  44.1396970
 125.6243290 145.4060270  44.9055150 125.6416170 144.0553580  44.2219400
 133.4853290 146.1408330  47.6616390 133.4242180 146.7330160  48.4111800
 134.4253670 146.0334290  47.5166650 136.1227850 145.7978390  47.3008680
 136.7368260 146.1157680  46.6389760 136.6677410 145.3126980  47.9204540
 126.6449110 144.4772650  47.4147740 127.1932100 144.2960700  46.6513850
 126.7104420 143.6866760  47.9504050 136.8635890 144.3610530  43.6277970
 135.9895730 144.6945640  43.4250900 136.7546640 143.8883710  44.4529840
 137.7707870 146.5681400  45.0119690 137.4421230 145.7533160  44.6321420
 138.7190170 146.5251210  44.8885380 134.6110710 145.2780370  42.5670880
 133.8282500 145.7525870  42.8467640 134.3173640 144.3735200  42.4584060
 139.1631780 145.9803470  40.6119970 139.6039870 145.9248570  39.7641570
 138.8939370 146.8961480  40.6830150 141.0270350 145.6118710  38.6228790
 140.9658750 144.6679930  38.4759810 141.8062380 145.7198800  39.1682250
 125.9551120 145.5827850  35.0884600 126.7130480 145.6956730  34.5148630
 125.4928290 146.4197050  35.0428030 132.4964930 147.6967120  38.0786910
 131.6839440 147.3224010  37.7382790 133.0006570 146.9412200  38.3808100
 136.9989910 144.3609570  39.3169980 137.6019280 144.9329780  39.7918500
 136.2582900 144.9249010  39.0943880 140.1424510 144.7631130  34.5910260
 140.3375140 145.6614580  34.8577690 139.3554380 144.5318210  35.0843210
 128.3276270 146.1091900  33.6286570 128.8569030 145.3221700  33.4994520
 128.9604590 146.7883090  33.8622100 130.5214110 145.8467040  36.6831960
 129.8916850 145.1454350  36.8502090 129.9819250 146.6071170  36.4665120
 130.6469670 145.1251020  49.1184450 130.3653940 145.6284620  48.3545270
 131.0289370 144.3272770  48.7526580 137.2485130 144.5404600  49.6964920
 137.1350580 144.8599210  50.5916440 138.0654870 144.9417110  49.4002200
 136.1543280 152.5597070  20.0599660 136.0737330 151.6451680  19.7891370
 135.7407700 153.0564140  19.3539370 134.2861320 154.3376090  21.9408930
 133.5103420 153.8576530  22.2307500 134.9374250 153.6581740  21.7665090
 128.3027150 154.6495900  22.8184690 127.4712030 154.3944610  23.2181200
 128.9108130 154.7206670  23.5542610 126.7119100 149.6097790  16.6027080
 125.8235800 149.9513760  16.5006960 126.9960290 149.4098110  15.7107910
 124.6752110 152.2103440  22.4866780 125.2468220 151.4425640  22.4870420
 124.6753650 152.5092200  21.5773390 125.9176980 147.6187800  24.2735710
 125.7379820 146.7213550  24.5538470 125.5157060 148.1659670  24.9482660
 134.7575480 149.8203660  22.1748020 135.1340300 148.9475540  22.0621690
 134.6594990 150.1562360  21.2838460 128.8880490 148.1929290  17.6365460
 128.9947240 149.0933020  17.9434220 127.9772850 148.1447260  17.3460110
 138.5399600 147.3154100  19.1076360 139.3609220 146.8250670  19.1501840
 138.5733680 147.9051760  19.8608200 126.5363650 150.1148300  22.8818050
 127.2173760 150.3786670  23.5005450 126.2211700 149.2749170  23.2156060
 130.7288220 151.1615660  21.9690640 131.2366440 151.6596630  22.6095660
 131.2601460 150.3850860  21.7930000 142.8299150 149.3320850  25.6719990
 142.1251320 149.7202560  25.1535100 143.0957070 150.0271140  26.2740920
 129.0124320 145.8014220  26.2354060 129.0142760 146.3186610  25.4299960
 128.1828630 145.3244400  26.2123990 138.7761080 149.2554480  21.8803900
 138.0716650 149.5439370  22.4607010 139.1373240 150.0654590  21.5203460
 128.6939650 147.5124180  24.2424510 129.0356460 148.3566230  23.9478380
 127.7555460 147.6607920  24.3589850 141.8448000 148.7009270  22.2713110
 140.8972910 148.7348250  22.4028540 142.1697990 149.5148220  22.6562470
 132.3767540 145.0006450  20.5669100 132.6842520 144.4453340  19.8504600
 131.4468240 145.1350910  20.3842090 134.7648300 153.0655280  17.3029220
 133.8377580 152.9992660  17.5317690 134.9173120 154.0035410  17.1884460
 134.7517380 149.3372280  14.2996380 133.8121050 149.4986240  14.3848840
 135.0700640 150.0557960  13.7532370 141.2730140 154.0190800  24.2775410
 140.4448770 154.0883890  23.8025540 141.8680620 154.6045110  23.8091240
 138.7945590 154.6275580  17.8064470 138.1758010 154.2895130  17.1590770
 138.7770040 153.9835340  18.5143660 138.2372150 150.8060120  25.2230280
 137.8243330 151.6313830  25.4770270 137.5048100 150.2205160  25.0306640
 130.3704940 153.5920020  20.0848950 129.9661940 152.8797270  19.5894850
 130.4568060 153.2473260  20.9736990 129.0833560 150.3663230  23.8647990
 129.6348150 150.4758570  23.0901240 129.5977070 150.7400830  24.5803220
 136.9710290 153.8662390  14.8137220 137.4103570 153.0284820  14.6675040
 137.6838710 154.4991790  14.9001360 128.7576290 153.8882590  27.4753330
 128.6184060 154.7605390  27.8440730 127.8757650 153.5455400  27.3301270
 140.5527430 145.1205200  13.1278260 140.2400090 145.2132030  14.0277330
 141.3139900 145.6986230  13.0775690 127.0709570 152.4865000  17.5855600
 126.9507170 153.2127090  16.9736870 126.7610460 151.7167910  17.1083510
 141.7628720 149.8576700  29.1052400 141.1472990 150.3656370  28.5767860
 141.4425140 148.9575030  29.0478340 129.5373230 145.8300070  20.9679270
 129.0941380 146.6109610  20.6363790 130.0958220 146.1529960  21.6750210
 133.8243040 148.6968590  26.5714590 133.3622410 148.9051610  27.3834530
 133.4221150 147.8827940  26.2685260 138.8247550 149.9177540  27.7011250
 137.9741140 149.6183290  28.0220320 138.6649340 150.1619550  26.7895070
 135.9197260 151.4179290  29.8010040 136.2450670 150.5843040  29.4612270
 136.7077590 151.9407810  29.9488370 132.6532050 145.4510770  15.8485100
 132.0286230 145.4470640  16.5738410 132.5662170 144.5841730  15.4521070
 131.5749130 146.3747400  22.8268870 131.8721460 147.2810230  22.7460890
 132.1234690 145.8866180  22.2128440 129.3287450 150.9533640  18.6960520
 129.1028370 150.7370810  19.6007140 128.5479980 151.3862100  18.3506490
 136.5585210 150.9597010  17.2951170 135.9594100 151.6832810  17.1114790
 137.1064820 150.8973790  16.5127620 131.7686660 151.8519220  29.3620790
 131.6730260 150.9113950  29.2121190 132.6118640 152.0734290  28.9668860
 135.1650080 149.5960550  19.3254450 135.5579650 149.9132750  18.5123140
 135.5266930 148.7172430  19.4398970 126.8997200 148.2632890  27.5154570
 126.5060590 149.1108100  27.7227350 126.2115600 147.6259260  27.7063210
 133.4742250 148.3467860  30.5851310 132.7840570 148.1540060  31.2197400
 134.2174550 148.6302500  31.1175610 124.2014250 146.1861350  21.5484650
 123.9127300 146.7564210  22.2609630 124.9460010 145.7065800  21.9115880
 124.3884480 150.1281470  12.7587370 124.3059150 151.0712230  12.9002360
 124.0367540 149.9856380  11.8799720 135.7505220 152.1866300  23.4205230
 135.0186340 152.6953110  23.7695330 135.3529560 151.3696280  23.1194010
 132.1882610 148.8620500  21.8257720 132.1918670 148.4210450  20.9762260
 133.0833730 149.1837830  21.9329540 128.0384990 148.7446990  20.7851930
 127.6985040 149.2222220  21.5418980 127.2762310 148.2912110  20.4253030
 132.2502760 149.8632580  14.8164480 132.3715580 149.8219060  15.7650300
 131.8651270 150.7256730  14.6611210 136.2131130 147.6399980  22.8328170
 136.2303870 148.0908630  23.6770020 135.9646710 146.7405620  23.0461610
 131.2624260 152.1733720  14.2147780 130.6941160 151.7251970  13.5883690
 131.9713260 152.5326500  13.6812930 139.6401880 145.0532160  28.6714550
 139.9647650 144.3221820  29.1972530 139.6758390 144.7345800  27.7695540
 132.4890580 152.9222280  23.5723130 132.8560710 152.4480850  24.3184470
 132.2995640 153.7963850  23.9131470 125.3531070 147.6665970  19.7016600
 125.0677990 147.3021640  20.5395220 125.2909930 146.9346430  19.0879740
 130.2789950 151.9630920  25.8907340 129.9747020 152.8422900  26.1157700
 131.2336410 152.0230710  25.9264780 135.0269660 146.5595230  16.4229970
 134.2134270 146.0608400  16.3475280 134.8331610 147.3993480  16.0066320
 137.7418050 150.9314880  14.7192130 138.6297670 151.2432110  14.5443470
 137.7123140 150.0587130  14.3272710 126.3353680 152.8033660  27.0378700
 125.9768620 153.4687510  27.6252040 126.0408240 151.9717210  27.4091320
 129.5366800 153.2617900  29.9218250 129.2366940 153.4075080  29.0246070
 130.3078040 152.7023190  29.8291640 140.0132320 152.2426720  14.1871990
 139.9296040 152.6740940  13.3368430 140.7326510 152.7025070  14.6198810
 124.8461730 152.8024920  13.6613300 125.7156580 153.0849720  13.9449220
 124.3552050 153.6160790  13.5462110 127.9108320 144.5335780  18.2544100
 127.7822950 144.5253680  19.2029020 127.0870340 144.8718870  17.9035110
 124.9102250 146.2926900  27.7150800 124.1960770 146.4923820  28.3203410
 125.3297290 145.5166470  28.0865600 136.4041030 148.7849210  25.4652250
 136.7721850 147.9644420  25.7931820 135.5439230 148.8451100  25.8807900
 139.7703060 147.7406150  16.2739810 139.1416220 147.8451820  15.5598040
 139.2754980 147.9602930  17.0633690 131.7387090 150.0192100  17.6897690
 131.0303240 150.4878440  18.1311300 132.0231570 149.3614110  18.3242880
 133.3643020 151.4388800  25.6890220 133.8628270 151.9134620  26.3542070
 133.5065970 150.5152320  25.8960250 135.7702520 146.7442760  19.1293480
 135.6470300 146.7628890  18.1802990 136.7187080 146.7921700  19.2491880
 129.9422110 148.3277180  15.0648400 130.7912640 148.7647330  14.9988590
 129.5753380 148.6397440  15.8920460 140.5709880 147.6556760  26.5318610
 140.0683480 148.3962160  26.8712420 141.3866540 148.0440760  26.2155400
 138.8631890 152.8989940  19.9779970 137.9222030 152.9140170  20.1527660
 139.1775960 152.1125900  20.4240270 128.8413530 154.5809540  13.5383930
 129.6076800 154.4690900  14.1009360 128.9188220 153.8847510  12.8860700
 127.5360290 152.0134610  14.2216820 127.6163880 151.0662120  14.3334220
 128.4280040 152.3441490  14.3277480 125.0631090 153.8349530  29.4572990
 125.5670110 153.2556810  30.0289220 124.3238510 154.1189760  29.9949360
 127.0954170 151.9779120  30.3523060 127.1359510 151.6792990  31.2608290
 127.9499670 152.3786730  30.1930580 130.8732560 154.5774670  15.5126570
 131.2948980 154.4114540  16.3557960 130.9983400 153.7674900  15.0181710
 129.0359980 150.5571220  28.3197550 128.5056440 150.0662170  27.6920890
 129.7048050 150.9855420  27.7855480 133.3860200 153.6012280  12.7603670
 133.9065860 152.8861300  12.3944820 134.0328600 154.2398150  13.0604180
 138.4060210 152.3636840  30.0877890 138.9880980 151.6089160  29.9998370
 138.5821980 152.8944280  29.3109370 129.5232280 147.5233590  28.3994840
 129.4289150 146.9054340  27.6745710 128.9429670 148.2499880  28.1724750
 132.2893720 146.0806830  25.4322230 131.8411020 146.1031090  24.5867780
 131.6558920 145.6825850  26.0292530 135.0317170 152.7077340  27.4372510
 135.1513380 152.1118480  28.1767350 135.8911170 152.7447030  27.0173810
 137.3705070 153.2614530  26.0135020 136.8440290 153.7857150  25.4100160
 137.7136410 153.8941920  26.6444750 129.7691460 150.6507900  12.4584730
 129.5680520 149.7875260  12.8198070 129.5983510 150.5641260  11.5206330
 131.7985940 149.2498690  28.6948330 132.3885630 148.9414540  29.3826150
 130.9806180 148.7778440  28.8508230 136.6179370 148.8664500  28.9281350
 135.9294890 148.2046040  28.8631340 137.3385390 148.4202770  29.3729810
 137.2479770 145.4616130  14.9871610 137.5282060 144.6184030  15.3431030
 136.4745500 145.6939240  15.5010360 128.5674260 147.7508520  12.4462610
 128.8700160 147.7575950  11.5381760 129.3068850 147.4006380  12.9430270
 131.7859190 146.6943140  13.4318810 131.4381190 146.0167130  12.8521260
 131.9871960 146.2332650  14.2462200 125.1264830 153.2230790  19.8283180
 124.4713670 152.9542430  19.1842880 125.9642780 153.1135270  19.3785160
 138.0755270 148.0172080  14.0501670 138.4940150 147.8303060  13.2098330
 137.7691330 147.1651130  14.3604600 141.5745000 152.9296220  17.7477470
 141.1988600 152.1624150  17.3158760 140.8448120 153.3118920  18.2352400
 126.1640760 153.6083360  24.3686520 126.5313800 153.5210760  25.2482540
 125.5951580 152.8449910  24.2693380 140.9644620 152.0767740  27.3816990
 140.7330710 151.8480490  26.4814940 141.2249170 152.9967290  27.3361880
 125.7156760 150.5192450  28.2744940 124.8212810 150.4859210  28.6138650
 126.2554310 150.7179240  29.0396190 139.4032690 147.3024170  30.1596690
 140.2802870 147.3107570  30.5430690 139.4153530 146.5655010  29.5489040
 124.3402910 150.4329720  15.7708510 123.4366990 150.6959920  15.5960170
 124.8243530 150.7040890  14.9908470 140.8495960 151.1553710  21.0484710
 141.3733440 150.6616360  20.4174880 141.4355380 151.2904070  21.7932280
 141.0285680 151.2393580  24.5704260 140.0788390 151.2057120  24.6849250
 141.2098690 152.1493690  24.3354030 126.8830120 149.4895260  13.6802890
 127.5921820 149.0678480  13.1950170 126.1670060 149.5570490  13.0486240
 126.5304280 145.5434590  12.7205540 127.2532410 146.0843530  13.0386760
 126.8028800 145.2698010  11.8447080 140.3395930 150.4127060  16.9877120
 140.8355050 150.1797930  17.7726000 140.1412000 149.5738900  16.5714760
 126.2196470 144.7940780  22.6228160 126.8672660 144.2438160  22.1823320
 126.6398310 145.0483930  23.4443970 141.7683090 149.0488010  19.5214800
 141.6582370 148.8944050  20.4597070 142.5290680 148.5208950  19.2790210
 140.1148810 144.9882140  25.9797800 140.7521030 145.6016280  26.3456990
 140.2623700 145.0242800  25.0347030 142.6573360 146.8795930  12.7620940
 143.5822670 146.7477110  12.5539230 142.6349150 146.9588750  13.7157390
 142.7311850 147.6506590  15.3877650 141.9363350 147.5851710  15.9170560
 142.9355130 148.5857230  15.3763000 125.9728470 144.9496450  25.3653480
 125.6243290 145.4060270  26.1311660 125.6416170 144.0553580  25.4475910
 133.4853290 146.1408330  28.8872900 133.4242180 146.7330160  29.6368310
 134.4253670 146.0334290  28.7423160 136.1227850 145.7978390  28.5265190
 136.7368260 146.1157680  27.8646270 136.6677410 145.3126980  29.1461050
 126.6449110 144.4772650  28.6404250 127.1932100 144.2960700  27.8770360
 126.7104420 143.6866760  29.1760560 136.8635890 144.3610530  24.8534480
 135.9895730 144.6945640  24.6507410 136.7546640 143.8883710  25.6786350
 137.7707870 146.5681400  26.2376200 137.4421230 145.7533160  25.8577930
 138.7190170 146.5251210  26.1141890 134.6110710 145.2780370  23.7927390
 133.8282500 145.7525870  24.0724150 134.3173640 144.3735200  23.6840570
 139.1631780 145.9803470  21.8376480 139.6039870 145.9248570  20.9898080
 138.8939370 146.8961480  21.9086660 141.0270350 145.6118710  19.8485300
 140.9658750 144.6679930  19.7016320 141.8062380 145.7198800  20.3938760
 125.9551120 145.5827850  16.3141110 126.7130480 145.6956730  15.7405140
 125.4928290 146.4197050  16.2684540 132.4964930 147.6967120  19.3043420
 131.6839440 147.3224010  18.9639300 133.0006570 146.9412200  19.6064610
 136.9989910 144.3609570  20.5426490 137.6019280 144.9329780  21.0175010
 136.2582900 144.9249010  20.3200390 140.1424510 144.7631130  15.8166770
 140.3375140 145.6614580  16.0834200 139.3554380 144.5318210  16.3099720
 128.3276270 146.1091900  14.8543080 128.8569030 145.3221700  14.7251030
 128.9604590 146.7883090  15.0878610 130.5214110 145.8467040  17.9088470
 129.8916850 145.1454350  18.0758600 129.9819250 146.6071170  17.6921630
 130.6469670 145.1251020  30.3440960 130.3653940 145.6284620  29.5801780
 131.0289370 144.3272770  29.9783090 137.2485130 144.5404600  30.9221430
 137.1350580 144.8599210  31.8172950 138.0654870 144.9417110  30.6258710
 134.2861320 154.3376090   3.1665440 133.5103420 153.8576530   3.4564010
 134.9374250 153.6581740   2.9921600 128.3027150 154.6495900   4.0441200
 127.4712030 154.3944610   4.4437710 128.9108130 154.7206670   4.7799120
 124.6752110 152.2103440   3.7123290 125.2468220 151.4425640   3.7126930
 124.6753650 152.5092200   2.8029900 125.9176980 147.6187800   5.4992220
 125.7379820 146.7213550   5.7794980 125.5157060 148.1659670   6.1739170
 134.7575480 149.8203660   3.4004530 135.1340300 148.9475540   3.2878200
 134.6594990 150.1562360   2.5094970 126.5363650 150.1148300   4.1074560
 127.2173760 150.3786670   4.7261960 126.2211700 149.2749170   4.4412570
 130.7288220 151.1615660   3.1947150 131.2366440 151.6596630   3.8352170
 131.2601460 150.3850860   3.0186510 142.8299150 149.3320850   6.8976500
 142.1251320 149.7202560   6.3791610 143.0957070 150.0271140   7.4997430
 129.0124320 145.8014220   7.4610570 129.0142760 146.3186610   6.6556470
 128.1828630 145.3244400   7.4380500 138.7761080 149.2554480   3.1060410
 138.0716650 149.5439370   3.6863520 139.1373240 150.0654590   2.7459970
 128.6939650 147.5124180   5.4681020 129.0356460 148.3566230   5.1734890
 127.7555460 147.6607920   5.5846360 141.8448000 148.7009270   3.4969620
 140.8972910 148.7348250   3.6285050 142.1697990 149.5148220   3.8818980
 141.2730140 154.0190800   5.5031920 140.4448770 154.0883890   5.0282050
 141.8680620 154.6045110   5.0347750 138.2372150 150.8060120   6.4486790
 137.8243330 151.6313830   6.7026780 137.5048100 150.2205160   6.2563150
 129.0833560 150.3663230   5.0904500 129.6348150 150.4758570   4.3157750
 129.5977070 150.7400830   5.8059730 128.7576290 153.8882590   8.7009840
 128.6184060 154.7605390   9.0697240 127.8757650 153.5455400   8.5557780
 141.7628720 149.8576700  10.3308910 141.1472990 150.3656370   9.8024370
 141.4425140 148.9575030  10.2734850 129.5373230 145.8300070   2.1935780
 129.0941380 146.6109610   1.8620300 130.0958220 146.1529960   2.9006720
 133.8243040 148.6968590   7.7971100 133.3622410 148.9051610   8.6091040
 133.4221150 147.8827940   7.4941770 138.8247550 149.9177540   8.9267760
 137.9741140 149.6183290   9.2476830 138.6649340 150.1619550   8.0151580
 135.9197260 151.4179290  11.0266550 136.2450670 150.5843040  10.6868780
 136.7077590 151.9407810  11.1744880 131.5749130 146.3747400   4.0525380
 131.8721460 147.2810230   3.9717400 132.1234690 145.8866180   3.4384950
 131.7686660 151.8519220  10.5877300 131.6730260 150.9113950  10.4377700
 132.6118640 152.0734290  10.1925370 126.8997200 148.2632890   8.7411080
 126.5060590 149.1108100   8.9483860 126.2115600 147.6259260   8.9319720
 133.4742250 148.3467860  11.8107820 132.7840570 148.1540060  12.4453910
 134.2174550 148.6302500  12.3432120 124.2014250 146.1861350   2.7741160
 123.9127300 146.7564210   3.4866140 124.9460010 145.7065800   3.1372390
 135.7505220 152.1866300   4.6461740 135.0186340 152.6953110   4.9951840
 135.3529560 151.3696280   4.3450520 132.1882610 148.8620500   3.0514230
 132.1918670 148.4210450   2.2018770 133.0833730 149.1837830   3.1586050
 128.0384990 148.7446990   2.0108440 127.6985040 149.2222220   2.7675490
 127.2762310 148.2912110   1.6509540 136.2131130 147.6399980   4.0584680
 136.2303870 148.0908630   4.9026530 135.9646710 146.7405620   4.2718120
 139.6401880 145.0532160   9.8971060 139.9647650 144.3221820  10.4229040
 139.6758390 144.7345800   8.9952050 132.4890580 152.9222280   4.7979640
 132.8560710 152.4480850   5.5440980 132.2995640 153.7963850   5.1387980
 130.2789950 151.9630920   7.1163850 129.9747020 152.8422900   7.3414210
 131.2336410 152.0230710   7.1521290 126.3353680 152.8033660   8.2635210
 125.9768620 153.4687510   8.8508550 126.0408240 151.9717210   8.6347830
 129.5366800 153.2617900  11.1474760 129.2366940 153.4075080  10.2502580
 130.3078040 152.7023190  11.0548150 124.9102250 146.2926900   8.9407310
 124.1960770 146.4923820   9.5459920 125.3297290 145.5166470   9.3122110
 136.4041030 148.7849210   6.6908760 136.7721850 147.9644420   7.0188330
 135.5439230 148.8451100   7.1064410 133.3643020 151.4388800   6.9146730
 133.8628270 151.9134620   7.5798580 133.5065970 150.5152320   7.1216760
 140.5709880 147.6556760   7.7575120 140.0683480 148.3962160   8.0968930
 141.3866540 148.0440760   7.4411910 125.0631090 153.8349530  10.6829500
 125.5670110 153.2556810  11.2545730 124.3238510 154.1189760  11.2205870
 127.0954170 151.9779120  11.5779570 127.1359510 151.6792990  12.4864800
 127.9499670 152.3786730  11.4187090 129.0359980 150.5571220   9.5454060
 128.5056440 150.0662170   8.9177400 129.7048050 150.9855420   9.0111990
 138.4060210 152.3636840  11.3134400 138.9880980 151.6089160  11.2254880
 138.5821980 152.8944280  10.5365880 129.5232280 147.5233590   9.6251350
 129.4289150 146.9054340   8.9002220 128.9429670 148.2499880   9.3981260
 132.2893720 146.0806830   6.6578740 131.8411020 146.1031090   5.8124290
 131.6558920 145.6825850   7.2549040 135.0317170 152.7077340   8.6629020
 135.1513380 152.1118480   9.4023860 135.8911170 152.7447030   8.2430320
 137.3705070 153.2614530   7.2391530 136.8440290 153.7857150   6.6356670
 137.7136410 153.8941920   7.8701260 131.7985940 149.2498690   9.9204840
 132.3885630 148.9414540  10.6082660 130.9806180 148.7778440  10.0764740
 136.6179370 148.8664500  10.1537860 135.9294890 148.2046040  10.0887850
 137.3385390 148.4202770  10.5986320 126.1640760 153.6083360   5.5943030
 126.5313800 153.5210760   6.4739050 125.5951580 152.8449910   5.4949890
 140.9644620 152.0767740   8.6073500 140.7330710 151.8480490   7.7071450
 141.2249170 152.9967290   8.5618390 125.7156760 150.5192450   9.5001450
 124.8212810 150.4859210   9.8395160 126.2554310 150.7179240  10.2652700
 139.4032690 147.3024170  11.3853200 140.2802870 147.3107570  11.7687200
 139.4153530 146.5655010  10.7745550 140.8495960 151.1553710   2.2741220
 141.3733440 150.6616360   1.6431390 141.4355380 151.2904070   3.0188790
 141.0285680 151.2393580   5.7960770 140.0788390 151.2057120   5.9105760
 141.2098690 152.1493690   5.5610540 126.2196470 144.7940780   3.8484670
 126.8672660 144.2438160   3.4079830 126.6398310 145.0483930   4.6700480
 140.1148810 144.9882140   7.2054310 140.7521030 145.6016280   7.5713500
 140.2623700 145.0242800   6.2603540 125.9728470 144.9496450   6.5909990
 125.6243290 145.4060270   7.3568170 125.6416170 144.0553580   6.6732420
 133.4853290 146.1408330  10.1129410 133.4242180 146.7330160  10.8624820
 134.4253670 146.0334290   9.9679670 136.1227850 145.7978390   9.7521700
 136.7368260 146.1157680   9.0902780 136.6677410 145.3126980  10.3717560
 126.6449110 144.4772650   9.8660760 127.1932100 144.2960700   9.1026870
 126.7104420 143.6866760  10.4017070 136.8635890 144.3610530   6.0790990
 135.9895730 144.6945640   5.8763920 136.7546640 143.8883710   6.9042860
 137.7707870 146.5681400   7.4632710 137.4421230 145.7533160   7.0834440
 138.7190170 146.5251210   7.3398400 134.6110710 145.2780370   5.0183900
 133.8282500 145.7525870   5.2980660 134.3173640 144.3735200   4.9097080
 139.1631780 145.9803470   3.0632990 139.6039870 145.9248570   2.2154590
 138.8939370 146.8961480   3.1343170 136.9989910 144.3609570   1.7683000
 137.6019280 144.9329780   2.2431520 136.2582900 144.9249010   1.5456900
 130.6469670 145.1251020  11.5697470 130.3653940 145.6284620  10.8058290
 131.0289370 144.3272770  11.2039600 137.2485130 144.5404600  12.1477940
 137.1350580 144.8599210  13.0429460 138.0654870 144.9417110  11.8515220
 136.1543280 133.7853580 151.4804090 136.0737330 132.8708190 151.2095800
 135.7407700 134.2820650 150.7743800 134.2861320 135.5632600 153.3613360
 133.5103420 135.0833040 153.6511930 134.9374250 134.8838250 153.1869520
 138.3068750 139.9692790 152.1412490 137.8450280 139.1980030 152.4699660
 139.1194300 139.9958860 152.6464940 128.2828410 139.9092500 154.4347140
 128.5856450 139.0190240 154.2557360 129.0272000 140.4662720 154.2069390
 126.7119100 130.8354300 148.0231510 125.8235800 131.1770270 147.9211390
 126.9960290 130.6354620 147.1312340 124.6752110 133.4359950 153.9071210
 125.2468220 132.6682150 153.9074850 124.6753650 133.7348710 152.9977820
 134.5332060 142.2550800 151.7616480 133.9143500 142.7108300 151.1910920
 135.3883840 142.4102260 151.3606180 133.7270310 138.2389790 153.3683520
 133.6578590 137.2979730 153.2072650 134.4890170 138.3291200 153.9406090
 134.7575480 131.0460170 153.5952450 135.1340300 130.1732050 153.4826120
 134.6594990 131.3818870 152.7042890 128.8880490 129.4185800 149.0569890
 128.9947240 130.3189530 149.3638650 127.9772850 129.3703770 148.7664540
 138.5399600 128.5410610 150.5280790 139.3609220 128.0507180 150.5706270
 138.5733680 129.1308270 151.2812630 130.7288220 132.3872170 153.3895070
 131.2366440 132.8853140 154.0300090 131.2601460 131.6107370 153.2134430
 135.3995410 137.1390040 149.1548390 134.7812680 137.6039490 148.5911110
 135.9118660 137.8317520 149.5717900 138.7761080 130.4810990 153.3008330
 138.0716650 130.7695880 153.8811440 139.1373240 131.2911100 152.9407890
 124.7678610 137.8246570 146.5288020 124.3906590 138.3133670 145.7972920
 125.0251680 138.4971850 147.1594550 141.8448000 129.9265780 153.6917540
 140.8972910 129.9604760 153.8232970 142.1697990 130.7404730 154.0766900
 132.3767540 126.2262960 151.9873530 132.6842520 125.6709850 151.2709030
 131.4468240 126.3607420 151.8046520 137.9282600 141.9430250 154.2780990
 137.9409760 141.5392540 153.4103250 137.3757820 142.7177540 154.1742420
 139.2228020 138.6646470 149.3671160 139.1124350 137.7220800 149.4920580
 139.2196270 139.0262110 150.2533920 134.7648300 134.2911790 148.7233650
 133.8377580 134.2249170 148.9522120 134.9173120 135.2291920 148.6088890
 134.7517380 130.5628790 145.7200810 133.8121050 130.7242750 145.8053270
 135.0700640 131.2814470 145.1736800 138.7945590 135.8532090 149.2268900
 138.1758010 135.5151640 148.5795200 138.7770040 135.2091850 149.9348090
 130.3704940 134.8176530 151.5053380 129.9661940 134.1053780 151.0099280
 130.4568060 134.4729770 152.3941420 130.8386640 138.5044090 153.6692590
 130.5414930 137.8989560 152.9900370 131.7886460 138.5421400 153.5581950
 136.9710290 135.0918900 146.2341650 137.4103570 134.2541330 146.0879470
 137.6838710 135.7248300 146.3205790 135.0805670 140.0314970 150.2022890
 135.5201580 140.7739300 149.7878280 135.0192560 140.2741540 151.1261850
 140.5527430 126.3461710 144.5482690 140.2400090 126.4388540 145.4481760
 141.3139900 126.9242740 144.4980120 127.0709570 133.7121510 149.0060030
 126.9507170 134.4383600 148.3941300 126.7610460 132.9424420 148.5287940
 125.9542570 138.5836840 151.2234850 125.5470650 138.7251430 150.3688450
 126.8455580 138.2997000 151.0206060 137.7475850 143.0184090 147.5585900
 137.5876990 142.7287030 148.4567730 137.5822560 142.2424220 147.0231130
 130.2264230 142.7982620 149.3357520 130.0506710 141.8818160 149.1225320
 129.3719970 143.1569910 149.5755320 137.4501980 140.5271650 146.1183900
 136.7567140 140.5248940 145.4586180 138.1924840 140.1030970 145.6878070
 137.0151910 142.1534360 150.1932390 137.4708860 141.3723740 150.5071010
 137.3544430 142.8641180 150.7373570 129.5373230 127.0556580 152.3883700
 129.0941380 127.8366120 152.0568220 130.0958220 127.3786470 153.0954640
 132.6532050 126.6767280 147.2689530 132.0286230 126.6727150 147.9942840
 132.5662170 125.8098240 146.8725500 131.5749130 127.6003910 154.2473300
 131.8721460 128.5066740 154.1665320 132.1234690 127.1122690 153.6332870
 129.3287450 132.1790150 150.1164950 129.1028370 131.9627320 151.0211570
 128.5479980 132.6118610 149.7710920 136.5585210 132.1853520 148.7155600
 135.9594100 132.9089320 148.5319220 137.1064820 132.1230300 147.9332050
 135.1650080 130.8217060 150.7458880 135.5579650 131.1389260 149.9327570
 135.5266930 129.9428940 150.8603400 124.2014250 127.4117860 152.9689080
 123.9127300 127.9820720 153.6814060 124.9460010 126.9322310 153.3320310
 124.3884480 131.3537980 144.1791800 124.3059150 132.2968740 144.3206790
 124.0367540 131.2112890 143.3004150 132.1882610 130.0877010 153.2462150
 132.1918670 129.6466960 152.3966690 133.0833730 130.4094340 153.3533970
 128.0384990 129.9703500 152.2056360 127.6985040 130.4478730 152.9623410
 127.2762310 129.5168620 151.8457460 132.2502760 131.0889090 146.2368910
 132.3715580 131.0475570 147.1854730 131.8651270 131.9513240 146.0815640
 131.2624260 133.3990230 145.6352210 130.6941160 132.9508480 145.0088120
 131.9713260 133.7583010 145.1017360 125.3531070 128.8922480 151.1221030
 125.0677990 128.5278150 151.9599650 125.2909930 128.1602940 150.5084170
 128.8071740 137.3948420 147.9078620 128.0334000 136.8546040 147.7477340
 129.5366370 136.8755030 147.5696380 139.5659720 136.3913780 153.7005010
 140.2858840 136.8869070 153.3101120 139.3641540 135.7131670 153.0558880
 135.0269660 127.7851740 147.8434400 134.2134270 127.2864910 147.7679710
 134.8331610 128.6249990 147.4270750 137.7418050 132.1571390 146.1396560
 138.6297670 132.4688620 145.9647900 137.7123140 131.2843640 145.7477140
 128.8509140 137.0628800 151.5457430 129.3687810 136.2597060 151.4914320
 128.3993160 137.0007940 152.3874260 133.7378640 138.3295080 146.8184730
 134.0794340 139.0737310 146.3228050 132.9091350 138.6426200 147.1809560
 140.0132320 133.4683230 145.6076420 139.9296040 133.8997450 144.7572860
 140.7326510 133.9281580 146.0403240 141.0419570 140.3225490 148.3358550
 140.3995730 139.6681110 148.6102270 140.6550230 140.7280580 147.5599220
 136.6206050 137.6510920 152.1830240 136.9729870 137.0539050 151.5231610
 135.7368380 137.3255150 152.3538490 132.7069330 138.4108610 149.5900650
 133.3940460 138.9577820 149.9708240 131.9201750 138.9549340 149.6250260
 124.8461730 134.0281430 145.0817730 125.7156580 134.3106230 145.3653650
 124.3552050 134.8417300 144.9666540 132.0096540 135.4154640 149.2026010
 132.4659320 136.2259890 149.4286200 131.6584750 135.0977780 150.0344500
 127.9108320 125.7592290 149.6748530 127.7822950 125.7510190 150.6233450
 127.0870340 126.0975380 149.3239540 139.4316950 139.2141950 144.8734900
 139.2054530 138.4972390 145.4659540 139.0413150 138.9654390 144.0356650
 125.2132980 143.2408810 145.6479360 125.5730620 143.8398150 144.9936630
 125.0725320 143.7868700 146.4214390 139.0133200 137.1313890 146.5349060
 138.7254900 137.5926580 147.3226940 139.8085370 136.6711660 146.8033280
 131.2301600 140.6240010 146.4653030 131.2211700 141.3569700 145.8497540
 130.3099960 140.3771590 146.5579990 126.8308240 135.8454900 147.2099790
 126.2236190 136.5853800 147.2195090 127.3057590 135.9354260 146.3837990
 139.7703060 128.9662660 147.6944240 139.1416220 129.0708330 146.9802470
 139.2754980 129.1859440 148.4838120 134.2161200 140.6868250 145.1278220
 134.3173180 140.4832240 144.1980200 133.3162940 140.4326530 145.3326000
 131.7387090 131.2448610 149.1102120 131.0303240 131.7134950 149.5515730
 132.0231570 130.5870620 149.7447310 135.7702520 127.9699270 150.5497910
 135.6470300 127.9885400 149.6007420 136.7187080 128.0178210 150.6696310
 132.8579310 143.2054570 149.8225890 133.1120810 143.1675960 148.9005260
 131.9091790 143.0787900 149.8154140 129.9422110 129.5533690 146.4852830
 130.7912640 129.9903840 146.4193020 129.5753380 129.8653950 147.3124890
 138.8631890 134.1246450 151.3984400 137.9222030 134.1396680 151.5732090
 139.1775960 133.3382410 151.8444700 128.8413530 135.8066050 144.9588360
 129.6076800 135.6947410 145.5213790 128.9188220 135.1104020 144.3065130
 127.5360290 133.2391120 145.6421250 127.6163880 132.2918630 145.7538650
 128.4280040 133.5698000 145.7481910 140.8657470 141.2955300 153.0738660
 140.9904890 142.1186470 153.5462470 141.7323030 141.0846030 152.7262810
 128.3375000 143.3886510 152.7455790 129.0737480 142.8401970 153.0164360
 128.7215920 144.2542520 152.6061780 125.2220480 139.4560080 148.6197300
 124.2960260 139.6981220 148.6102710 125.6876910 140.2834340 148.4982050
 131.4477310 142.5616820 144.5681360 132.2405920 142.8505650 144.1163150
 130.9281660 142.1308990 143.8893840 140.5007480 141.7886950 145.9918100
 140.2148990 141.3752090 145.1772280 140.3027030 142.7174660 145.8718620
 131.9654710 137.7820230 144.4323710 131.8605350 137.1672580 145.1585090
 131.7978930 137.2586120 143.6486720 135.2057440 136.8440260 145.0365700
 134.6567540 137.2909560 145.6808440 135.8276700 136.3389510 145.5603370
 130.8732560 135.8031180 146.9331000 131.2948980 135.6371050 147.7762390
 130.9983400 134.9931410 146.4386140 133.3860200 134.8268790 144.1808100
 133.9065860 134.1117810 143.8149250 134.0328600 135.4654660 144.4808610
 129.7691460 131.8764410 143.8789160 129.5680520 131.0131770 144.2402500
 129.5983510 131.7897770 142.9410760 137.2479770 126.6872640 146.4076040
 137.5282060 125.8440540 146.7635460 136.4745500 126.9195750 146.9214790
 128.5674260 128.9765030 143.8667040 128.8700160 128.9832460 142.9586190
 129.3068850 128.6262890 144.3634700 131.7859190 127.9199650 144.8523240
 131.4381190 127.2423640 144.2725690 131.9871960 127.4589160 145.6666630
 133.9508230 142.9080400 146.4709840 134.8459020 143.2465370 146.4928600
 133.9825860 142.1859810 145.8434120 127.5904390 138.2807450 144.6996840
 128.0279260 138.8237120 145.3554420 128.0752120 137.4554400 144.7093180
 124.8050190 141.0696480 152.1517100 125.1353200 140.2017540 151.9195740
 125.2341190 141.2755000 152.9822060 129.4012110 139.4005490 149.8119070
 129.1007650 139.2770460 150.7122980 129.2949600 138.5414080 149.4034800
 142.1704030 139.1801890 144.5145750 141.3396990 139.2478540 144.9852980
 142.3475860 140.0706010 144.2112610 141.6260490 135.9249370 147.0179950
 142.3879400 136.4946020 147.1239640 141.6414860 135.3576570 147.7888260
 125.1264830 134.4487300 151.2487610 124.4713670 134.1798940 150.6047310
 125.9642780 134.3391780 150.7989590 142.6320460 136.7799470 151.8621880
 143.0029290 135.9966790 151.4557850 143.2722390 137.4688570 151.6839180
 141.6779660 136.2183740 144.1752470 141.9528500 137.1262620 144.0471690
 141.4890400 136.1546270 145.1114460 138.0755270 129.2428590 145.4706100
 138.4940150 129.0559570 144.6302760 137.7691330 128.3907640 145.7809030
 141.5745000 134.1552730 149.1681900 141.1988600 133.3880660 148.7363190
 140.8448120 134.5375430 149.6556830 124.3402910 131.6586230 147.1912940
 123.4366990 131.9216430 147.0164600 124.8243530 131.9297400 146.4112900
 140.8495960 132.3810220 152.4689140 141.3733440 131.8872870 151.8379310
 141.4355380 132.5160580 153.2136710 126.8830120 130.7151770 145.1007320
 127.5921820 130.2934990 144.6154600 126.1670060 130.7827000 144.4690670
 126.5304280 126.7691100 144.1409970 127.2532410 127.3100040 144.4591190
 126.8028800 126.4954520 143.2651510 140.3395930 131.6383570 148.4081550
 140.8355050 131.4054440 149.1930430 140.1412000 130.7995410 147.9919190
 141.7683090 130.2744520 150.9419230 141.6582370 130.1200560 151.8801500
 142.5290680 129.7465460 150.6994640 142.6573360 128.1052440 144.1825370
 143.5822670 127.9733620 143.9743660 142.6349150 128.1845260 145.1361820
 142.7311850 128.8763100 146.8082080 141.9363350 128.8108220 147.3374990
 142.9355130 129.8113740 146.7967430 139.6730270 142.9154650 150.8020470
 140.2689340 142.5939220 150.1254890 139.9308420 142.4426470 151.5933740
 130.6538200 141.8738190 153.8066330 131.1703220 141.2625550 153.2814590
 131.3035580 142.3766970 154.2977340 139.1631780 127.2059980 153.2580910
 139.6039870 127.1505080 152.4102510 138.8939370 128.1217990 153.3291090
 141.0270350 126.8375220 151.2689730 140.9658750 125.8936440 151.1220750
 141.8062380 126.9455310 151.8143190 125.3323100 142.9767580 150.2313680
 125.1645140 142.3438260 150.9295570 124.4657610 143.1826980 149.8807870
 125.9551120 126.8084360 147.7345540 126.7130480 126.9213240 147.1609570
 125.4928290 127.6453560 147.6888970 132.4964930 128.9223630 150.7247850
 131.6839440 128.5480520 150.3843730 133.0006570 128.1668710 151.0269040
 136.9989910 125.5866080 151.9630920 137.6019280 126.1586290 152.4379440
 136.2582900 126.1505520 151.7404820 140.1424510 125.9887640 147.2371200
 140.3375140 126.8871090 147.5038630 139.3554380 125.7574720 147.7304150
 126.9385800 141.6700810 147.6763820 126.4133420 142.0508840 146.9725780
 126.8630380 142.2951580 148.3973530 128.3276270 127.3348410 146.2747510
 128.8569030 126.5478210 146.1455460 128.9604590 128.0139600 146.5083040
 130.5214110 127.0723550 149.3292900 129.8916850 126.3710860 149.4963030
 129.9819250 127.8327680 149.1126060 141.6951120 143.2288350 148.9977760
 141.8703310 142.5426090 148.3538680 140.9972690 143.7535400 148.6054430
 129.5378770 143.6183190 146.5513070 130.2697590 143.3342470 146.0036960
 129.7972440 143.3796470 147.4412450 128.6993560 139.7347920 146.5559400
 128.0702440 140.2033020 147.1045230 128.8141390 138.8897140 146.9905590
 136.1543280 133.7853580 132.7060600 136.0737330 132.8708190 132.4352310
 135.7407700 134.2820650 132.0000310 134.2861320 135.5632600 134.5869870
 133.5103420 135.0833040 134.8768440 134.9374250 134.8838250 134.4126030
 128.3027150 135.8752410 135.4645630 127.4712030 135.6201120 135.8642140
 128.9108130 135.9463180 136.2003550 138.3068750 139.9692790 133.3669000
 137.8450280 139.1980030 133.6956170 139.1194300 139.9958860 133.8721450
 128.2828410 139.9092500 135.6603650 128.5856450 139.0190240 135.4813870
 129.0272000 140.4662720 135.4325900 126.7119100 130.8354300 129.2488020
 125.8235800 131.1770270 129.1467900 126.9960290 130.6354620 128.3568850
 124.6752110 133.4359950 135.1327720 125.2468220 132.6682150 135.1331360
 124.6753650 133.7348710 134.2234330 134.5332060 142.2550800 132.9872990
 133.9143500 142.7108300 132.4167430 135.3883840 142.4102260 132.5862690
 133.7270310 138.2389790 134.5940030 133.6578590 137.2979730 134.4329160
 134.4890170 138.3291200 135.1662600 125.9176980 128.8444310 136.9196650
 125.7379820 127.9470060 137.1999410 125.5157060 129.3916180 137.5943600
 134.7575480 131.0460170 134.8208960 135.1340300 130.1732050 134.7082630
 134.6594990 131.3818870 133.9299400 128.8880490 129.4185800 130.2826400
 128.9947240 130.3189530 130.5895160 127.9772850 129.3703770 129.9921050
 138.5399600 128.5410610 131.7537300 139.3609220 128.0507180 131.7962780
 138.5733680 129.1308270 132.5069140 126.5363650 131.3404810 135.5278990
 127.2173760 131.6043180 136.1466390 126.2211700 130.5005680 135.8617000
 130.7288220 132.3872170 134.6151580 131.2366440 132.8853140 135.2556600
 131.2601460 131.6107370 134.4390940 142.8299150 130.5577360 138.3180930
 142.1251320 130.9459070 137.7996040 143.0957070 131.2527650 138.9201860
 129.0124320 127.0270730 138.8815000 129.0142760 127.5443120 138.0760900
 128.1828630 126.5500910 138.8584930 135.3995410 137.1390040 130.3804900
 134.7812680 137.6039490 129.8167620 135.9118660 137.8317520 130.7974410
 130.2627170 136.6665910 137.0588500 129.9296550 137.2934830 137.7009570
 130.4393850 137.1927790 136.2790170 138.7761080 130.4810990 134.5264840
 138.0716650 130.7695880 135.1067950 139.1373240 131.2911100 134.1664400
 128.6939650 128.7380690 136.8885450 129.0356460 129.5822740 136.5939320
 127.7555460 128.8864430 137.0050790 129.4746270 138.6346710 138.8737680
 130.0920270 139.3097790 138.5922130 128.6139390 139.0434690 138.7825180
 124.7678610 137.8246570 127.7544530 124.3906590 138.3133670 127.0229430
 125.0251680 138.4971850 128.3851060 140.3923860 140.0986120 136.7892320
 139.7087380 140.7685230 136.7808990 140.9318150 140.2966770 136.0237180
 141.8448000 129.9265780 134.9174050 140.8972910 129.9604760 135.0489480
 142.1697990 130.7404730 135.3023410 132.3767540 126.2262960 133.2130040
 132.6842520 125.6709850 132.4965540 131.4468240 126.3607420 133.0303030
 137.9282600 141.9430250 135.5037500 137.9409760 141.5392540 134.6359760
 137.3757820 142.7177540 135.3998930 139.2228020 138.6646470 130.5927670
 139.1124350 137.7220800 130.7177090 139.2196270 139.0262110 131.4790430
 137.3268040 136.8460090 136.8320110 137.7436830 136.6320200 135.9973570
 138.0507860 137.1032880 137.4028730 134.7648300 134.2911790 129.9490160
 133.8377580 134.2249170 130.1778630 134.9173120 135.2291920 129.8345400
 134.7517380 130.5628790 126.9457320 133.8121050 130.7242750 127.0309780
 135.0700640 131.2814470 126.3993310 141.2730140 135.2447310 136.9236350
 140.4448770 135.3140400 136.4486480 141.8680620 135.8301620 136.4552180
 138.7945590 135.8532090 130.4525410 138.1758010 135.5151640 129.8051710
 138.7770040 135.2091850 131.1604600 138.2372150 132.0316630 137.8691220
 137.8243330 132.8570340 138.1231210 137.5048100 131.4461670 137.6767580
 130.3704940 134.8176530 132.7309890 129.9661940 134.1053780 132.2355790
 130.4568060 134.4729770 133.6197930 130.8386640 138.5044090 134.8949100
 130.5414930 137.8989560 134.2156880 131.7886460 138.5421400 134.7838460
 129.0833560 131.5919740 136.5108930 129.6348150 131.7015080 135.7362180
 129.5977070 131.9657340 137.2264160 138.9272250 142.0775960 138.5572200
 138.4502810 142.8848150 138.3644810 138.2434040 141.4254290 138.7098410
 129.9305070 138.2425780 141.5456900 129.0333600 138.4665750 141.7930300
 129.9557940 138.3660720 140.5968300 136.9710290 135.0918900 127.4598160
 137.4103570 134.2541330 127.3135980 137.6838710 135.7248300 127.5462300
 128.7576290 135.1139100 140.1214270 128.6184060 135.9861900 140.4901670
 127.8757650 134.7711910 139.9762210 135.0805670 140.0314970 131.4279400
 135.5201580 140.7739300 131.0134790 135.0192560 140.2741540 132.3518360
 130.5556640 141.0560800 142.3299420 130.5272070 141.4603750 141.4627850
 130.3921610 140.1271160 142.1671020 140.5527430 126.3461710 125.7739200
 140.2400090 126.4388540 126.6738270 141.3139900 126.9242740 125.7236630
 127.0709570 133.7121510 130.2316540 126.9507170 134.4383600 129.6197810
 126.7610460 132.9424420 129.7544450 142.5071460 141.8387900 143.6263590
 142.9831180 142.3170790 144.3052670 143.1278620 141.7705390 142.9009090
 124.7094940 136.8836650 136.0385180 124.7875360 137.0185420 135.0940900
 125.3236620 136.1752540 136.2313300 125.9542570 138.5836840 132.4491360
 125.5470650 138.7251430 131.5944960 126.8455580 138.2997000 132.2462570
 141.9104710 139.0300750 140.7863600 142.0367770 138.7912630 139.8680780
 141.9526090 138.1985290 141.2585680 135.7721450 142.7328750 139.3558410
 136.2866120 142.6436760 140.1580840 134.9290530 143.0788450 139.6486320
 137.7475850 143.0184090 128.7842410 137.5876990 142.7287030 129.6824240
 137.5822560 142.2424220 128.2487640 130.2264230 142.7982620 130.5614030
 130.0506710 141.8818160 130.3481830 129.3719970 143.1569910 130.8011830
 137.4501980 140.5271650 127.3440410 136.7567140 140.5248940 126.6842690
 138.1924840 140.1030970 126.9134580 137.0151910 142.1534360 131.4188900
 137.4708860 141.3723740 131.7327520 137.3544430 142.8641180 131.9630080
 141.7628720 131.0833210 141.7513340 141.1472990 131.5912880 141.2228800
 141.4425140 130.1831540 141.6939280 124.7654460 137.9250820 138.5779640
 124.9285500 137.4556180 137.7599010 125.2306910 137.4174380 139.2428480
 129.5373230 127.0556580 133.6140210 129.0941380 127.8366120 133.2824730
 130.0958220 127.3786470 134.3211150 133.8243040 129.9225100 139.2175530
 133.3622410 130.1308120 140.0295470 133.4221150 129.1084450 138.9146200
 138.8247550 131.1434050 140.3472190 137.9741140 130.8439800 140.6681260
 138.6649340 131.3876060 139.4356010 135.9197260 132.6435800 142.4470980
 136.2450670 131.8099550 142.1073210 136.7077590 133.1664320 142.5949310
 132.6532050 126.6767280 128.4946040 132.0286230 126.6727150 129.2199350
 132.5662170 125.8098240 128.0982010 131.5749130 127.6003910 135.4729810
 131.8721460 128.5066740 135.3921830 132.1234690 127.1122690 134.8589380
 129.3287450 132.1790150 131.3421460 129.1028370 131.9627320 132.2468080
 128.5479980 132.6118610 130.9967430 136.5585210 132.1853520 129.9412110
 135.9594100 132.9089320 129.7575730 137.1064820 132.1230300 129.1588560
 131.7686660 133.0775730 142.0081730 131.6730260 132.1370460 141.8582130
 132.6118640 133.2990800 141.6129800 135.1650080 130.8217060 131.9715390
 135.5579650 131.1389260 131.1584080 135.5266930 129.9428940 132.0859910
 126.8997200 129.4889400 140.1615510 126.5060590 130.3364610 140.3688290
 126.2115600 128.8515770 140.3524150 133.4742250 129.5724370 143.2312250
 132.7840570 129.3796570 143.8658340 134.2174550 129.8559010 143.7636550
 124.2014250 127.4117860 134.1945590 123.9127300 127.9820720 134.9070570
 124.9460010 126.9322310 134.5576820 124.3884480 131.3537980 125.4048310
 124.3059150 132.2968740 125.5463300 124.0367540 131.2112890 124.5260660
 135.7505220 133.4122810 136.0666170 135.0186340 133.9209620 136.4156270
 135.3529560 132.5952790 135.7654950 132.1882610 130.0877010 134.4718660
 132.1918670 129.6466960 133.6223200 133.0833730 130.4094340 134.5790480
 128.0384990 129.9703500 133.4312870 127.6985040 130.4478730 134.1879920
 127.2762310 129.5168620 133.0713970 132.2502760 131.0889090 127.4625420
 132.3715580 131.0475570 128.4111240 131.8651270 131.9513240 127.3072150
 136.2131130 128.8656490 135.4789110 136.2303870 129.3165140 136.3230960
 135.9646710 127.9662130 135.6922550 131.2624260 133.3990230 126.8608720
 130.6941160 132.9508480 126.2344630 131.9713260 133.7583010 126.3273870
 139.6401880 126.2788670 141.3175490 139.9647650 125.5478330 141.8433470
 139.6758390 125.9602310 140.4156480 126.3393440 137.3002250 140.7375450
 125.9548230 136.6595920 141.3358410 126.6505630 138.0038370 141.3070180
 132.4890580 134.1478790 136.2184070 132.8560710 133.6737360 136.9645410
 132.2995640 135.0220360 136.5592410 125.3531070 128.8922480 132.3477540
 125.0677990 128.5278150 133.1856160 125.2909930 128.1602940 131.7340680
 130.2789950 133.1887430 138.5368280 129.9747020 134.0679410 138.7618640
 131.2336410 133.2487220 138.5725720 128.8071740 137.3948420 129.1335130
 128.0334000 136.8546040 128.9733850 129.5366370 136.8755030 128.7952890
 139.5659720 136.3913780 134.9261520 140.2858840 136.8869070 134.5357630
 139.3641540 135.7131670 134.2815390 135.0269660 127.7851740 129.0690910
 134.2134270 127.2864910 128.9936220 134.8331610 128.6249990 128.6527260
 134.9478520 136.4622840 140.8130520 134.8815830 135.5418510 140.5588110
 134.3183660 136.5598280 141.5275160 137.7418050 132.1571390 127.3653070
 138.6297670 132.4688620 127.1904410 137.7123140 131.2843640 126.9733650
 128.8509140 137.0628800 132.7713940 129.3687810 136.2597060 132.7170830
 128.3993160 137.0007940 133.6130770 133.7378640 138.3295080 128.0441240
 134.0794340 139.0737310 127.5484560 132.9091350 138.6426200 128.4066070
 126.3353680 134.0290170 139.6839640 125.9768620 134.6944020 140.2712980
 126.0408240 133.1973720 140.0552260 129.5366800 134.4874410 142.5679190
 129.2366940 134.6331590 141.6707010 130.3078040 133.9279700 142.4752580
 134.8795250 139.2843410 140.5634320 134.8939790 138.3524370 140.3453230
 134.1720350 139.3703170 141.2024090 140.0132320 133.4683230 126.8332930
 139.9296040 133.8997450 125.9829370 140.7326510 133.9281580 127.2659750
 141.0906460 135.9250750 139.9102900 140.3654650 136.5179530 139.7132290
 141.6181920 135.9174290 139.1116270 141.0419570 140.3225490 129.5615060
 140.3995730 139.6681110 129.8358780 140.6550230 140.7280580 128.7855730
 136.6206050 137.6510920 133.4086750 136.9729870 137.0539050 132.7488120
 135.7368380 137.3255150 133.5795000 132.7069330 138.4108610 130.8157160
 133.3940460 138.9577820 131.1964750 131.9201750 138.9549340 130.8506770
 124.8461730 134.0281430 126.3074240 125.7156580 134.3106230 126.5910160
 124.3552050 134.8417300 126.1923050 132.0096540 135.4154640 130.4282520
 132.4659320 136.2259890 130.6542710 131.6584750 135.0977780 131.2601010
 134.3129150 140.9260980 137.6574820 134.9571370 141.1320360 138.3348240
 134.6758590 140.1649380 137.2045670 127.9108320 125.7592290 130.9005040
 127.7822950 125.7510190 131.8489960 127.0870340 126.0975380 130.5496050
 135.5861230 138.9293330 136.3752270 136.2283460 138.2286490 136.4884440
 136.1110580 139.7091770 136.1949160 139.4316950 139.2141950 126.0991410
 139.2054530 138.4972390 126.6916050 139.0413150 138.9654390 125.2613160
 137.3598850 139.7288230 139.5788330 137.6955090 140.3154920 140.2566250
 136.4399190 139.5980940 139.8086120 125.2132980 143.2408810 126.8735870
 125.5730620 143.8398150 126.2193140 125.0725320 143.7868700 127.6470900
 124.9102250 127.5183410 140.3611740 124.1960770 127.7180330 140.9664350
 125.3297290 126.7422980 140.7326540 139.0133200 137.1313890 127.7605570
 138.7254900 137.5926580 128.5483450 139.8085370 136.6711660 128.0289790
 125.1974840 141.5063670 141.3478270 125.3065960 140.5658410 141.2073660
 124.5455400 141.7718420 140.6992000 133.1887430 139.7779560 142.7476390
 132.8684300 139.0588800 143.2922080 132.5145790 140.4534630 142.8212450
 131.2301600 140.6240010 127.6909540 131.2211700 141.3569700 127.0754050
 130.3099960 140.3771590 127.7836500 126.8308240 135.8454900 128.4356300
 126.2236190 136.5853800 128.4451600 127.3057590 135.9354260 127.6094500
 136.4041030 130.0105720 138.1113190 136.7721850 129.1900930 138.4392760
 135.5439230 130.0707610 138.5268840 139.7703060 128.9662660 128.9200750
 139.1416220 129.0708330 128.2058980 139.2754980 129.1859440 129.7094630
 134.2161200 140.6868250 126.3534730 134.3173180 140.4832240 125.4236710
 133.3162940 140.4326530 126.5582510 131.7387090 131.2448610 130.3358630
 131.0303240 131.7134950 130.7772240 132.0231570 130.5870620 130.9703820
 133.3643020 132.6645310 138.3351160 133.8628270 133.1391130 139.0003010
 133.5065970 131.7408830 138.5421190 135.7702520 127.9699270 131.7754420
 135.6470300 127.9885400 130.8263930 136.7187080 128.0178210 131.8952820
 132.8579310 143.2054570 131.0482400 133.1120810 143.1675960 130.1261770
 131.9091790 143.0787900 131.0410650 129.9422110 129.5533690 127.7109340
 130.7912640 129.9903840 127.6449530 129.5753380 129.8653950 128.5381400
 140.5709880 128.8813270 139.1779550 140.0683480 129.6218670 139.5173360
 141.3866540 129.2697270 138.8616340 138.8631890 134.1246450 132.6240910
 137.9222030 134.1396680 132.7988600 139.1775960 133.3382410 133.0701210
 128.8413530 135.8066050 126.1844870 129.6076800 135.6947410 126.7470300
 128.9188220 135.1104020 125.5321640 127.5360290 133.2391120 126.8677760
 127.6163880 132.2918630 126.9795160 128.4280040 133.5698000 126.9738420
 140.8657470 141.2955300 134.2995170 140.9904890 142.1186470 134.7718980
 141.7323030 141.0846030 133.9519320 128.3375000 143.3886510 133.9712300
 129.0737480 142.8401970 134.2420870 128.7215920 144.2542520 133.8318290
 125.2220480 139.4560080 129.8453810 124.2960260 139.6981220 129.8359220
 125.6876910 140.2834340 129.7238560 127.3433280 142.5732580 143.1597880
 128.1446010 142.8944630 143.5733280 126.8285100 142.2128160 143.8817790
 131.4477310 142.5616820 125.7937870 132.2405920 142.8505650 125.3419660
 130.9281660 142.1308990 125.1150350 136.1797910 138.6812450 143.1073290
 135.5736070 138.7044050 142.3669040 135.8752020 137.9495490 143.6440540
 137.6098280 142.4092740 141.7182700 138.5620030 142.3250760 141.6682940
 137.4626500 143.0734450 142.3916490 140.5007480 141.7886950 127.2174610
 140.2148990 141.3752090 126.4028790 140.3027030 142.7174660 127.0975130
 125.0631090 135.0606040 142.1033930 125.5670110 134.4813320 142.6750160
 124.3238510 135.3446270 142.6410300 131.9654710 137.7820230 125.6580220
 131.8605350 137.1672580 126.3841600 131.7978930 137.2586120 124.8743230
 132.1169030 136.4677030 141.6369450 131.3514700 137.0362030 141.5524120
 132.2984990 136.1753240 140.7437680 135.2057440 136.8440260 126.2622210
 134.6567540 137.2909560 126.9064950 135.8276700 136.3389510 126.7859880
 139.2592380 138.1982360 142.1944470 140.0001850 138.5358120 141.6911930
 138.4965060 138.3674420 141.6414240 127.0954170 133.2035630 142.9984000
 127.1359510 132.9049500 143.9069230 127.9499670 133.6043240 142.8391520
 130.8732560 135.8031180 128.1587510 131.2948980 135.6371050 129.0018900
 130.9983400 134.9931410 127.6642650 129.0359980 131.7827730 140.9658490
 128.5056440 131.2918680 140.3381830 129.7048050 132.2111930 140.4316420
 133.3860200 134.8268790 125.4064610 133.9065860 134.1117810 125.0405760
 134.0328600 135.4654660 125.7065120 137.9338040 136.2497190 140.7299680
 138.3479060 136.4042270 141.5790100 136.9989040 136.3752410 140.8925460
 138.4060210 133.5893350 142.7338830 138.9880980 132.8345670 142.6459310
 138.5821980 134.1200790 141.9570310 129.5232280 128.7490100 141.0455780
 129.4289150 128.1310850 140.3206650 128.9429670 129.4756390 140.8185690
 132.2893720 127.3063340 138.0783170 131.8411020 127.3287600 137.2328720
 131.6558920 126.9082360 138.6753470 132.6953270 136.2017670 138.6995610
 133.1141380 137.0450400 138.5271850 131.7761900 136.3389710 138.4702390
 135.0317170 133.9333850 140.0833450 135.1513380 133.3374990 140.8228290
 135.8911170 133.9703540 139.6634750 137.3705070 134.4871040 138.6595960
 136.8440290 135.0113660 138.0561100 137.7136410 135.1198430 139.2905690
 129.7691460 131.8764410 125.1045670 129.5680520 131.0131770 125.4659010
 129.5983510 131.7897770 124.1667270 130.5460690 142.5070680 139.8153340
 130.0081780 143.2316740 139.4962040 130.7994650 142.0301020 139.0250680
 131.7985940 130.4755200 141.3409270 132.3885630 130.1671050 142.0287090
 130.9806180 130.0034950 141.4969170 136.6179370 130.0921010 141.5742290
 135.9294890 129.4302550 141.5092280 137.3385390 129.6459280 142.0190750
 137.2479770 126.6872640 127.6332550 137.5282060 125.8440540 127.9891970
 136.4745500 126.9195750 128.1471300 128.5674260 128.9765030 125.0923550
 128.8700160 128.9832460 124.1842700 129.3068850 128.6262890 125.5891210
 133.4022900 143.7421890 140.0739990 133.3281600 144.6457030 140.3812360
 132.5001740 143.4233790 140.0462060 131.7859190 127.9199650 126.0779750
 131.4381190 127.2423640 125.4982200 131.9871960 127.4589160 126.8923140
 133.9508230 142.9080400 127.6966350 134.8459020 143.2465370 127.7185110
 133.9825860 142.1859810 127.0690630 127.5904390 138.2807450 125.9253350
 128.0279260 138.8237120 126.5810930 128.0752120 137.4554400 125.9349690
 124.8050190 141.0696480 133.3773610 125.1353200 140.2017540 133.1452250
 125.2341190 141.2755000 134.2078570 129.4012110 139.4005490 131.0375580
 129.1007650 139.2770460 131.9379490 129.2949600 138.5414080 130.6291310
 125.2940400 141.9367070 136.1155240 124.8571390 142.1167870 136.9479390
 125.8618080 142.6941690 135.9736960 140.9302580 141.4384070 140.4032550
 140.3304570 141.4976630 139.6596470 141.0596480 140.4989050 140.5329400
 142.1704030 139.1801890 125.7402260 141.3396990 139.2478540 126.2109490
 142.3475860 140.0706010 125.4369120 141.6260490 135.9249370 128.2436460
 142.3879400 136.4946020 128.3496150 141.6414860 135.3576570 129.0144770
 125.1264830 134.4487300 132.4744120 124.4713670 134.1798940 131.8303820
 125.9642780 134.3391780 132.0246100 142.6320460 136.7799470 133.0878390
 143.0029290 135.9966790 132.6814360 143.2722390 137.4688570 132.9095690
 139.6154220 138.1636050 138.5008710 138.8014060 138.5933210 138.7634500
 140.0228420 138.7754460 137.8877760 141.6779660 136.2183740 125.4008980
 141.9528500 137.1262620 125.2728200 141.4890400 136.1546270 126.3370970
 138.0755270 129.2428590 126.6962610 138.4940150 129.0559570 125.8559270
 137.7691330 128.3907640 127.0065540 141.5745000 134.1552730 130.3938410
 141.1988600 133.3880660 129.9619700 140.8448120 134.5375430 130.8813340
 126.1640760 134.8339870 137.0147460 126.5313800 134.7467270 137.8943480
 125.5951580 134.0706420 136.9154320 140.9644620 133.3024250 140.0277930
 140.7330710 133.0737000 139.1275880 141.2249170 134.2223800 139.9822820
 125.7156760 131.7448960 140.9205880 124.8212810 131.7115720 141.2599590
 126.2554310 131.9435750 141.6857130 139.4032690 128.5280680 142.8057630
 140.2802870 128.5364080 143.1891630 139.4153530 127.7911520 142.1949980
 124.3402910 131.6586230 128.4169450 123.4366990 131.9216430 128.2421110
 124.8243530 131.9297400 127.6369410 140.8495960 132.3810220 133.6945650
 141.3733440 131.8872870 133.0635820 141.4355380 132.5160580 134.4393220
 141.0285680 132.4650090 137.2165200 140.0788390 132.4313630 137.3310190
 141.2098690 133.3750200 136.9814970 126.8830120 130.7151770 126.3263830
 127.5921820 130.2934990 125.8411110 126.1670060 130.7827000 125.6947180
 126.5304280 126.7691100 125.3666480 127.2532410 127.3100040 125.6847700
 126.8028800 126.4954520 124.4908020 140.3395930 131.6383570 129.6338060
 140.8355050 131.4054440 130.4186940 140.1412000 130.7995410 129.2175700
 126.2196470 126.0197290 135.2689100 126.8672660 125.4694670 134.8284260
 126.6398310 126.2740440 136.0904910 141.7683090 130.2744520 132.1675740
 141.6582370 130.1200560 133.1058010 142.5290680 129.7465460 131.9251150
 140.1148810 126.2138650 138.6258740 140.7521030 126.8272790 138.9917930
 140.2623700 126.2499310 137.6807970 142.6573360 128.1052440 125.4081880
 143.5822670 127.9733620 125.2000170 142.6349150 128.1845260 126.3618330
 142.7311850 128.8763100 128.0338590 141.9363350 128.8108220 128.5631500
 142.9355130 129.8113740 128.0223940 139.6730270 142.9154650 132.0276980
 140.2689340 142.5939220 131.3511400 139.9308420 142.4426470 132.8190250
 125.9728470 126.1752960 138.0114420 125.6243290 126.6316780 138.7772600
 125.6416170 125.2810090 138.0936850 127.5792840 139.3472560 142.1767610
 127.5362470 138.9765470 143.0582070 127.7103850 140.2850130 142.3169430
 131.2798870 140.9032150 137.7777330 131.0390230 141.1706710 136.8907850
 132.2201510 141.0737880 137.8328190 133.4853290 127.3664840 141.5333840
 133.4242180 127.9586670 142.2829250 134.4253670 127.2590800 141.3884100
 136.1227850 127.0234900 141.1726130 136.7368260 127.3414190 140.5107210
 136.6677410 126.5383490 141.7921990 142.5403030 142.9226530 138.5787970
 142.0461310 143.3195400 137.8615100 141.9316320 142.2975740 138.9725250
 126.6449110 125.7029160 141.2865190 127.1932100 125.5217210 140.5231300
 126.7104420 124.9123270 141.8221500 127.4180870 142.2934810 139.2965390
 126.8241190 142.1619510 140.0355430 127.4104710 141.4572950 138.8307490
 136.8635890 125.5867040 137.4995420 135.9895730 125.9202150 137.2968350
 136.7546640 125.1140220 138.3247290 137.7707870 127.7937910 138.8837140
 137.4421230 126.9789670 138.5038870 138.7190170 127.7507720 138.7602830
 140.2242480 143.5649950 135.8574710 139.7645450 144.3165760 135.4832730
 139.5954940 142.8456420 135.7989510 127.0493100 139.6593190 138.2473430
 126.3227160 139.0398480 138.1799380 127.1102250 140.0533800 137.3771510
 130.6538200 141.8738190 135.0322840 131.1703220 141.2625550 134.5071100
 131.3035580 142.3766970 135.5233850 133.3933700 142.7646680 135.8591820
 133.6811510 142.5100980 134.9824830 133.9056920 142.2124040 136.4497390
 134.6110710 126.5036880 136.4388330 133.8282500 126.9782380 136.7185090
 134.3173640 125.5991710 136.3301510 139.1631780 127.2059980 134.4837420
 139.6039870 127.1505080 133.6359020 138.8939370 128.1217990 134.5547600
 141.0270350 126.8375220 132.4946240 140.9658750 125.8936440 132.3477260
 141.8062380 126.9455310 133.0399700 125.3323100 142.9767580 131.4570190
 125.1645140 142.3438260 132.1552080 124.4657610 143.1826980 131.1064380
 125.9551120 126.8084360 128.9602050 126.7130480 126.9213240 128.3866080
 125.4928290 127.6453560 128.9145480 132.4964930 128.9223630 131.9504360
 131.6839440 128.5480520 131.6100240 133.0006570 128.1668710 132.2525550
 136.9989910 125.5866080 133.1887430 137.6019280 126.1586290 133.6635950
 136.2582900 126.1505520 132.9661330 140.1424510 125.9887640 128.4627710
 140.3375140 126.8871090 128.7295140 139.3554380 125.7574720 128.9560660
 126.9385800 141.6700810 128.9020330 126.4133420 142.0508840 128.1982290
 126.8630380 142.2951580 129.6230040 128.3276270 127.3348410 127.5004020
 128.8569030 126.5478210 127.3711970 128.9604590 128.0139600 127.7339550
 130.5214110 127.0723550 130.5549410 129.8916850 126.3710860 130.7219540
 129.9819250 127.8327680 130.3382570 133.4606060 143.6862780 143.2260020
 134.3873370 143.4507050 143.2695980 133.4456490 144.5134780 142.7446050
 141.6951120 143.2288350 130.2234270 141.8703310 142.5426090 129.5795190
 140.9972690 143.7535400 129.8310940 130.6469670 126.3507530 142.9901900
 130.3653940 126.8541130 142.2262720 131.0289370 125.5529280 142.6244030
 129.5378770 143.6183190 127.7769580 130.2697590 143.3342470 127.2293470
 129.7972440 143.3796470 128.6668960 128.6993560 139.7347920 127.7815910
 128.0702440 140.2033020 128.3301740 128.8141390 138.8897140 128.2162100
 137.2485130 125.7661110 143.5682370 137.1350580 126.0855720 144.4633890
 138.0654870 126.1673620 143.2719650 140.0283620 142.9132640 143.0501060
 140.8208940 142.4181870 142.8427020 140.3216770 143.5922780 143.6576670
 136.1543280 133.7853580 113.9317110 136.0737330 132.8708190 113.6608820
 135.7407700 134.2820650 113.2256820 134.2861320 135.5632600 115.8126380
 133.5103420 135.0833040 116.1024950 134.9374250 134.8838250 115.6382540
 128.3027150 135.8752410 116.6902140 127.4712030 135.6201120 117.0898650
 128.9108130 135.9463180 117.4260060 138.3068750 139.9692790 114.5925510
 137.8450280 139.1980030 114.9212680 139.1194300 139.9958860 115.0977960
 128.2828410 139.9092500 116.8860160 128.5856450 139.0190240 116.7070380
 129.0272000 140.4662720 116.6582410 126.7119100 130.8354300 110.4744530
 125.8235800 131.1770270 110.3724410 126.9960290 130.6354620 109.5825360
 124.6752110 133.4359950 116.3584230 125.2468220 132.6682150 116.3587870
 124.6753650 133.7348710 115.4490840 134.5332060 142.2550800 114.2129500
 133.9143500 142.7108300 113.6423940 135.3883840 142.4102260 113.8119200
 133.7270310 138.2389790 115.8196540 133.6578590 137.2979730 115.6585670
 134.4890170 138.3291200 116.3919110 125.9176980 128.8444310 118.1453160
 125.7379820 127.9470060 118.4255920 125.5157060 129.3916180 118.8200110
 134.7575480 131.0460170 116.0465470 135.1340300 130.1732050 115.9339140
 134.6594990 131.3818870 115.1555910 128.8880490 129.4185800 111.5082910
 128.9947240 130.3189530 111.8151670 127.9772850 129.3703770 111.2177560
 138.5399600 128.5410610 112.9793810 139.3609220 128.0507180 113.0219290
 138.5733680 129.1308270 113.7325650 126.5363650 131.3404810 116.7535500
 127.2173760 131.6043180 117.3722900 126.2211700 130.5005680 117.0873510
 130.7288220 132.3872170 115.8408090 131.2366440 132.8853140 116.4813110
 131.2601460 131.6107370 115.6647450 142.8299150 130.5577360 119.5437440
 142.1251320 130.9459070 119.0252550 143.0957070 131.2527650 120.1458370
 129.0124320 127.0270730 120.1071510 129.0142760 127.5443120 119.3017410
 128.1828630 126.5500910 120.0841440 135.3995410 137.1390040 111.6061410
 134.7812680 137.6039490 111.0424130 135.9118660 137.8317520 112.0230920
 130.2627170 136.6665910 118.2845010 129.9296550 137.2934830 118.9266080
 130.4393850 137.1927790 117.5046680 138.7761080 130.4810990 115.7521350
 138.0716650 130.7695880 116.3324460 139.1373240 131.2911100 115.3920910
 128.6939650 128.7380690 118.1141960 129.0356460 129.5822740 117.8195830
 127.7555460 128.8864430 118.2307300 129.4746270 138.6346710 120.0994190
 130.0920270 139.3097790 119.8178640 128.6139390 139.0434690 120.0081690
 124.7678610 137.8246570 108.9801040 124.3906590 138.3133670 108.2485940
 125.0251680 138.4971850 109.6107570 140.3923860 140.0986120 118.0148830
 139.7087380 140.7685230 118.0065500 140.9318150 140.2966770 117.2493690
 141.8448000 129.9265780 116.1430560 140.8972910 129.9604760 116.2745990
 142.1697990 130.7404730 116.5279920 132.3767540 126.2262960 114.4386550
 132.6842520 125.6709850 113.7222050 131.4468240 126.3607420 114.2559540
 137.9282600 141.9430250 116.7294010 137.9409760 141.5392540 115.8616270
 137.3757820 142.7177540 116.6255440 139.2228020 138.6646470 111.8184180
 139.1124350 137.7220800 111.9433600 139.2196270 139.0262110 112.7046940
 137.3268040 136.8460090 118.0576620 137.7436830 136.6320200 117.2230080
 138.0507860 137.1032880 118.6285240 134.7648300 134.2911790 111.1746670
 133.8377580 134.2249170 111.4035140 134.9173120 135.2291920 111.0601910
 134.7517380 130.5628790 108.1713830 133.8121050 130.7242750 108.2566290
 135.0700640 131.2814470 107.6249820 141.2730140 135.2447310 118.1492860
 140.4448770 135.3140400 117.6742990 141.8680620 135.8301620 117.6808690
 138.7945590 135.8532090 111.6781920 138.1758010 135.5151640 111.0308220
 138.7770040 135.2091850 112.3861110 138.2372150 132.0316630 119.0947730
 137.8243330 132.8570340 119.3487720 137.5048100 131.4461670 118.9024090
 130.3704940 134.8176530 113.9566400 129.9661940 134.1053780 113.4612300
 130.4568060 134.4729770 114.8454440 130.8386640 138.5044090 116.1205610
 130.5414930 137.8989560 115.4413390 131.7886460 138.5421400 116.0094970
 129.0833560 131.5919740 117.7365440 129.6348150 131.7015080 116.9618690
 129.5977070 131.9657340 118.4520670 138.9272250 142.0775960 119.7828710
 138.4502810 142.8848150 119.5901320 138.2434040 141.4254290 119.9354920
 129.9305070 138.2425780 122.7713410 129.0333600 138.4665750 123.0186810
 129.9557940 138.3660720 121.8224810 136.9710290 135.0918900 108.6854670
 137.4103570 134.2541330 108.5392490 137.6838710 135.7248300 108.7718810
 128.7576290 135.1139100 121.3470780 128.6184060 135.9861900 121.7158180
 127.8757650 134.7711910 121.2018720 135.0805670 140.0314970 112.6535910
 135.5201580 140.7739300 112.2391300 135.0192560 140.2741540 113.5774870
 130.5556640 141.0560800 123.5555930 130.5272070 141.4603750 122.6884360
 130.3921610 140.1271160 123.3927530 140.5527430 126.3461710 106.9995710
 140.2400090 126.4388540 107.8994780 141.3139900 126.9242740 106.9493140
 127.0709570 133.7121510 111.4573050 126.9507170 134.4383600 110.8454320
 126.7610460 132.9424420 110.9800960 142.5071460 141.8387900 124.8520100
 142.9831180 142.3170790 125.5309180 143.1278620 141.7705390 124.1265600
 124.7094940 136.8836650 117.2641690 124.7875360 137.0185420 116.3197410
 125.3236620 136.1752540 117.4569810 125.9542570 138.5836840 113.6747870
 125.5470650 138.7251430 112.8201470 126.8455580 138.2997000 113.4719080
 141.9104710 139.0300750 122.0120110 142.0367770 138.7912630 121.0937290
 141.9526090 138.1985290 122.4842190 135.7721450 142.7328750 120.5814920
 136.2866120 142.6436760 121.3837350 134.9290530 143.0788450 120.8742830
 137.7475850 143.0184090 110.0098920 137.5876990 142.7287030 110.9080750
 137.5822560 142.2424220 109.4744150 130.2264230 142.7982620 111.7870540
 130.0506710 141.8818160 111.5738340 129.3719970 143.1569910 112.0268340
 137.4501980 140.5271650 108.5696920 136.7567140 140.5248940 107.9099200
 138.1924840 140.1030970 108.1391090 137.0151910 142.1534360 112.6445410
 137.4708860 141.3723740 112.9584030 137.3544430 142.8641180 113.1886590
 141.7628720 131.0833210 122.9769850 141.1472990 131.5912880 122.4485310
 141.4425140 130.1831540 122.9195790 124.7654460 137.9250820 119.8036150
 124.9285500 137.4556180 118.9855520 125.2306910 137.4174380 120.4684990
 129.5373230 127.0556580 114.8396720 129.0941380 127.8366120 114.5081240
 130.0958220 127.3786470 115.5467660 133.8243040 129.9225100 120.4432040
 133.3622410 130.1308120 121.2551980 133.4221150 129.1084450 120.1402710
 138.8247550 131.1434050 121.5728700 137.9741140 130.8439800 121.8937770
 138.6649340 131.3876060 120.6612520 135.9197260 132.6435800 123.6727490
 136.2450670 131.8099550 123.3329720 136.7077590 133.1664320 123.8205820
 132.6532050 126.6767280 109.7202550 132.0286230 126.6727150 110.4455860
 132.5662170 125.8098240 109.3238520 131.5749130 127.6003910 116.6986320
 131.8721460 128.5066740 116.6178340 132.1234690 127.1122690 116.0845890
 129.3287450 132.1790150 112.5677970 129.1028370 131.9627320 113.4724590
 128.5479980 132.6118610 112.2223940 136.5585210 132.1853520 111.1668620
 135.9594100 132.9089320 110.9832240 137.1064820 132.1230300 110.3845070
 131.7686660 133.0775730 123.2338240 131.6730260 132.1370460 123.0838640
 132.6118640 133.2990800 122.8386310 135.1650080 130.8217060 113.1971900
 135.5579650 131.1389260 112.3840590 135.5266930 129.9428940 113.3116420
 126.8997200 129.4889400 121.3872020 126.5060590 130.3364610 121.5944800
 126.2115600 128.8515770 121.5780660 133.4742250 129.5724370 124.4568760
 132.7840570 129.3796570 125.0914850 134.2174550 129.8559010 124.9893060
 124.2014250 127.4117860 115.4202100 123.9127300 127.9820720 116.1327080
 124.9460010 126.9322310 115.7833330 124.3884480 131.3537980 106.6304820
 124.3059150 132.2968740 106.7719810 124.0367540 131.2112890 105.7517170
 135.7505220 133.4122810 117.2922680 135.0186340 133.9209620 117.6412780
 135.3529560 132.5952790 116.9911460 132.1882610 130.0877010 115.6975170
 132.1918670 129.6466960 114.8479710 133.0833730 130.4094340 115.8046990
 128.0384990 129.9703500 114.6569380 127.6985040 130.4478730 115.4136430
 127.2762310 129.5168620 114.2970480 132.2502760 131.0889090 108.6881930
 132.3715580 131.0475570 109.6367750 131.8651270 131.9513240 108.5328660
 136.2131130 128.8656490 116.7045620 136.2303870 129.3165140 117.5487470
 135.9646710 127.9662130 116.9179060 131.2624260 133.3990230 108.0865230
 130.6941160 132.9508480 107.4601140 131.9713260 133.7583010 107.5530380
 139.6401880 126.2788670 122.5432000 139.9647650 125.5478330 123.0689980
 139.6758390 125.9602310 121.6412990 126.3393440 137.3002250 121.9631960
 125.9548230 136.6595920 122.5614920 126.6505630 138.0038370 122.5326690
 132.4890580 134.1478790 117.4440580 132.8560710 133.6737360 118.1901920
 132.2995640 135.0220360 117.7848920 125.3531070 128.8922480 113.5734050
 125.0677990 128.5278150 114.4112670 125.2909930 128.1602940 112.9597190
 130.2789950 133.1887430 119.7624790 129.9747020 134.0679410 119.9875150
 131.2336410 133.2487220 119.7982230 128.8071740 137.3948420 110.3591640
 128.0334000 136.8546040 110.1990360 129.5366370 136.8755030 110.0209400
 139.5659720 136.3913780 116.1518030 140.2858840 136.8869070 115.7614140
 139.3641540 135.7131670 115.5071900 135.0269660 127.7851740 110.2947420
 134.2134270 127.2864910 110.2192730 134.8331610 128.6249990 109.8783770
 134.9478520 136.4622840 122.0387030 134.8815830 135.5418510 121.7844620
 134.3183660 136.5598280 122.7531670 137.7418050 132.1571390 108.5909580
 138.6297670 132.4688620 108.4160920 137.7123140 131.2843640 108.1990160
 128.8509140 137.0628800 113.9970450 129.3687810 136.2597060 113.9427340
 128.3993160 137.0007940 114.8387280 133.7378640 138.3295080 109.2697750
 134.0794340 139.0737310 108.7741070 132.9091350 138.6426200 109.6322580
 126.3353680 134.0290170 120.9096150 125.9768620 134.6944020 121.4969490
 126.0408240 133.1973720 121.2808770 129.5366800 134.4874410 123.7935700
 129.2366940 134.6331590 122.8963520 130.3078040 133.9279700 123.7009090
 134.8795250 139.2843410 121.7890830 134.8939790 138.3524370 121.5709740
 134.1720350 139.3703170 122.4280600 140.0132320 133.4683230 108.0589440
 139.9296040 133.8997450 107.2085880 140.7326510 133.9281580 108.4916260
 141.0906460 135.9250750 121.1359410 140.3654650 136.5179530 120.9388800
 141.6181920 135.9174290 120.3372780 141.0419570 140.3225490 110.7871570
 140.3995730 139.6681110 111.0615290 140.6550230 140.7280580 110.0112240
 136.6206050 137.6510920 114.6343260 136.9729870 137.0539050 113.9744630
 135.7368380 137.3255150 114.8051510 132.7069330 138.4108610 112.0413670
 133.3940460 138.9577820 112.4221260 131.9201750 138.9549340 112.0763280
 124.8461730 134.0281430 107.5330750 125.7156580 134.3106230 107.8166670
 124.3552050 134.8417300 107.4179560 132.0096540 135.4154640 111.6539030
 132.4659320 136.2259890 111.8799220 131.6584750 135.0977780 112.4857520
 134.3129150 140.9260980 118.8831330 134.9571370 141.1320360 119.5604750
 134.6758590 140.1649380 118.4302180 127.9108320 125.7592290 112.1261550
 127.7822950 125.7510190 113.0746470 127.0870340 126.0975380 111.7752560
 135.5861230 138.9293330 117.6008780 136.2283460 138.2286490 117.7140950
 136.1110580 139.7091770 117.4205670 139.4316950 139.2141950 107.3247920
 139.2054530 138.4972390 107.9172560 139.0413150 138.9654390 106.4869670
 137.3598850 139.7288230 120.8044840 137.6955090 140.3154920 121.4822760
 136.4399190 139.5980940 121.0342630 125.2132980 143.2408810 108.0992380
 125.5730620 143.8398150 107.4449650 125.0725320 143.7868700 108.8727410
 124.9102250 127.5183410 121.5868250 124.1960770 127.7180330 122.1920860
 125.3297290 126.7422980 121.9583050 139.0133200 137.1313890 108.9862080
 138.7254900 137.5926580 109.7739960 139.8085370 136.6711660 109.2546300
 125.1974840 141.5063670 122.5734780 125.3065960 140.5658410 122.4330170
 124.5455400 141.7718420 121.9248510 133.1887430 139.7779560 123.9732900
 132.8684300 139.0588800 124.5178590 132.5145790 140.4534630 124.0468960
 131.2301600 140.6240010 108.9166050 131.2211700 141.3569700 108.3010560
 130.3099960 140.3771590 109.0093010 126.8308240 135.8454900 109.6612810
 126.2236190 136.5853800 109.6708110 127.3057590 135.9354260 108.8351010
 136.4041030 130.0105720 119.3369700 136.7721850 129.1900930 119.6649270
 135.5439230 130.0707610 119.7525350 139.7703060 128.9662660 110.1457260
 139.1416220 129.0708330 109.4315490 139.2754980 129.1859440 110.9351140
 134.2161200 140.6868250 107.5791240 134.3173180 140.4832240 106.6493220
 133.3162940 140.4326530 107.7839020 131.7387090 131.2448610 111.5615140
 131.0303240 131.7134950 112.0028750 132.0231570 130.5870620 112.1960330
 133.3643020 132.6645310 119.5607670 133.8628270 133.1391130 120.2259520
 133.5065970 131.7408830 119.7677700 135.7702520 127.9699270 113.0010930
 135.6470300 127.9885400 112.0520440 136.7187080 128.0178210 113.1209330
 132.8579310 143.2054570 112.2738910 133.1120810 143.1675960 111.3518280
 131.9091790 143.0787900 112.2667160 129.9422110 129.5533690 108.9365850
 130.7912640 129.9903840 108.8706040 129.5753380 129.8653950 109.7637910
 140.5709880 128.8813270 120.4036060 140.0683480 129.6218670 120.7429870
 141.3866540 129.2697270 120.0872850 138.8631890 134.1246450 113.8497420
 137.9222030 134.1396680 114.0245110 139.1775960 133.3382410 114.2957720
 128.8413530 135.8066050 107.4101380 129.6076800 135.6947410 107.9726810
 128.9188220 135.1104020 106.7578150 127.5360290 133.2391120 108.0934270
 127.6163880 132.2918630 108.2051670 128.4280040 133.5698000 108.1994930
 140.8657470 141.2955300 115.5251680 140.9904890 142.1186470 115.9975490
 141.7323030 141.0846030 115.1775830 128.3375000 143.3886510 115.1968810
 129.0737480 142.8401970 115.4677380 128.7215920 144.2542520 115.0574800
 125.2220480 139.4560080 111.0710320 124.2960260 139.6981220 111.0615730
 125.6876910 140.2834340 110.9495070 127.3433280 142.5732580 124.3854390
 128.1446010 142.8944630 124.7989790 126.8285100 142.2128160 125.1074300
 131.4477310 142.5616820 107.0194380 132.2405920 142.8505650 106.5676170
 130.9281660 142.1308990 106.3406860 136.1797910 138.6812450 124.3329800
 135.5736070 138.7044050 123.5925550 135.8752020 137.9495490 124.8697050
 137.6098280 142.4092740 122.9439210 138.5620030 142.3250760 122.8939450
 137.4626500 143.0734450 123.6173000 140.5007480 141.7886950 108.4431120
 140.2148990 141.3752090 107.6285300 140.3027030 142.7174660 108.3231640
 125.0631090 135.0606040 123.3290440 125.5670110 134.4813320 123.9006670
 124.3238510 135.3446270 123.8666810 131.9654710 137.7820230 106.8836730
 131.8605350 137.1672580 107.6098110 131.7978930 137.2586120 106.0999740
 132.1169030 136.4677030 122.8625960 131.3514700 137.0362030 122.7780630
 132.2984990 136.1753240 121.9694190 135.2057440 136.8440260 107.4878720
 134.6567540 137.2909560 108.1321460 135.8276700 136.3389510 108.0116390
 139.2592380 138.1982360 123.4200980 140.0001850 138.5358120 122.9168440
 138.4965060 138.3674420 122.8670750 127.0954170 133.2035630 124.2240510
 127.1359510 132.9049500 125.1325740 127.9499670 133.6043240 124.0648030
 130.8732560 135.8031180 109.3844020 131.2948980 135.6371050 110.2275410
 130.9983400 134.9931410 108.8899160 129.0359980 131.7827730 122.1915000
 128.5056440 131.2918680 121.5638340 129.7048050 132.2111930 121.6572930
 133.3860200 134.8268790 106.6321120 133.9065860 134.1117810 106.2662270
 134.0328600 135.4654660 106.9321630 137.9338040 136.2497190 121.9556190
 138.3479060 136.4042270 122.8046610 136.9989040 136.3752410 122.1181970
 138.4060210 133.5893350 123.9595340 138.9880980 132.8345670 123.8715820
 138.5821980 134.1200790 123.1826820 129.5232280 128.7490100 122.2712290
 129.4289150 128.1310850 121.5463160 128.9429670 129.4756390 122.0442200
 132.2893720 127.3063340 119.3039680 131.8411020 127.3287600 118.4585230
 131.6558920 126.9082360 119.9009980 132.6953270 136.2017670 119.9252120
 133.1141380 137.0450400 119.7528360 131.7761900 136.3389710 119.6958900
 135.0317170 133.9333850 121.3089960 135.1513380 133.3374990 122.0484800
 135.8911170 133.9703540 120.8891260 137.3705070 134.4871040 119.8852470
 136.8440290 135.0113660 119.2817610 137.7136410 135.1198430 120.5162200
 129.7691460 131.8764410 106.3302180 129.5680520 131.0131770 106.6915520
 129.5983510 131.7897770 105.3923780 130.5460690 142.5070680 121.0409850
 130.0081780 143.2316740 120.7218550 130.7994650 142.0301020 120.2507190
 131.7985940 130.4755200 122.5665780 132.3885630 130.1671050 123.2543600
 130.9806180 130.0034950 122.7225680 136.6179370 130.0921010 122.7998800
 135.9294890 129.4302550 122.7348790 137.3385390 129.6459280 123.2447260
 137.2479770 126.6872640 108.8589060 137.5282060 125.8440540 109.2148480
 136.4745500 126.9195750 109.3727810 128.5674260 128.9765030 106.3180060
 128.8700160 128.9832460 105.4099210 129.3068850 128.6262890 106.8147720
 133.4022900 143.7421890 121.2996500 133.3281600 144.6457030 121.6068870
 132.5001740 143.4233790 121.2718570 131.7859190 127.9199650 107.3036260
 131.4381190 127.2423640 106.7238710 131.9871960 127.4589160 108.1179650
 133.9508230 142.9080400 108.9222860 134.8459020 143.2465370 108.9441620
 133.9825860 142.1859810 108.2947140 127.5904390 138.2807450 107.1509860
 128.0279260 138.8237120 107.8067440 128.0752120 137.4554400 107.1606200
 124.8050190 141.0696480 114.6030120 125.1353200 140.2017540 114.3708760
 125.2341190 141.2755000 115.4335080 129.4012110 139.4005490 112.2632090
 129.1007650 139.2770460 113.1636000 129.2949600 138.5414080 111.8547820
 125.2940400 141.9367070 117.3411750 124.8571390 142.1167870 118.1735900
 125.8618080 142.6941690 117.1993470 140.9302580 141.4384070 121.6289060
 140.3304570 141.4976630 120.8852980 141.0596480 140.4989050 121.7585910
 142.1704030 139.1801890 106.9658770 141.3396990 139.2478540 107.4366000
 142.3475860 140.0706010 106.6625630 141.6260490 135.9249370 109.4692970
 142.3879400 136.4946020 109.5752660 141.6414860 135.3576570 110.2401280
 125.1264830 134.4487300 113.7000630 124.4713670 134.1798940 113.0560330
 125.9642780 134.3391780 113.2502610 142.6320460 136.7799470 114.3134900
 143.0029290 135.9966790 113.9070870 143.2722390 137.4688570 114.1352200
 139.6154220 138.1636050 119.7265220 138.8014060 138.5933210 119.9891010
 140.0228420 138.7754460 119.1134270 141.6779660 136.2183740 106.6265490
 141.9528500 137.1262620 106.4984710 141.4890400 136.1546270 107.5627480
 138.0755270 129.2428590 107.9219120 138.4940150 129.0559570 107.0815780
 137.7691330 128.3907640 108.2322050 141.5745000 134.1552730 111.6194920
 141.1988600 133.3880660 111.1876210 140.8448120 134.5375430 112.1069850
 126.1640760 134.8339870 118.2403970 126.5313800 134.7467270 119.1199990
 125.5951580 134.0706420 118.1410830 140.9644620 133.3024250 121.2534440
 140.7330710 133.0737000 120.3532390 141.2249170 134.2223800 121.2079330
 125.7156760 131.7448960 122.1462390 124.8212810 131.7115720 122.4856100
 126.2554310 131.9435750 122.9113640 139.4032690 128.5280680 124.0314140
 140.2802870 128.5364080 124.4148140 139.4153530 127.7911520 123.4206490
 124.3402910 131.6586230 109.6425960 123.4366990 131.9216430 109.4677620
 124.8243530 131.9297400 108.8625920 140.8495960 132.3810220 114.9202160
 141.3733440 131.8872870 114.2892330 141.4355380 132.5160580 115.6649730
 141.0285680 132.4650090 118.4421710 140.0788390 132.4313630 118.5566700
 141.2098690 133.3750200 118.2071480 126.8830120 130.7151770 107.5520340
 127.5921820 130.2934990 107.0667620 126.1670060 130.7827000 106.9203690
 126.5304280 126.7691100 106.5922990 127.2532410 127.3100040 106.9104210
 126.8028800 126.4954520 105.7164530 140.3395930 131.6383570 110.8594570
 140.8355050 131.4054440 111.6443450 140.1412000 130.7995410 110.4432210
 126.2196470 126.0197290 116.4945610 126.8672660 125.4694670 116.0540770
 126.6398310 126.2740440 117.3161420 141.7683090 130.2744520 113.3932250
 141.6582370 130.1200560 114.3314520 142.5290680 129.7465460 113.1507660
 140.1148810 126.2138650 119.8515250 140.7521030 126.8272790 120.2174440
 140.2623700 126.2499310 118.9064480 142.6573360 128.1052440 106.6338390
 143.5822670 127.9733620 106.4256680 142.6349150 128.1845260 107.5874840
 142.7311850 128.8763100 109.2595100 141.9363350 128.8108220 109.7888010
 142.9355130 129.8113740 109.2480450 139.6730270 142.9154650 113.2533490
 140.2689340 142.5939220 112.5767910 139.9308420 142.4426470 114.0446760
 125.9728470 126.1752960 119.2370930 125.6243290 126.6316780 120.0029110
 125.6416170 125.2810090 119.3193360 127.5792840 139.3472560 123.4024120
 127.5362470 138.9765470 124.2838580 127.7103850 140.2850130 123.5425940
 131.2798870 140.9032150 119.0033840 131.0390230 141.1706710 118.1164360
 132.2201510 141.0737880 119.0584700 133.4853290 127.3664840 122.7590350
 133.4242180 127.9586670 123.5085760 134.4253670 127.2590800 122.6140610
 136.1227850 127.0234900 122.3982640 136.7368260 127.3414190 121.7363720
 136.6677410 126.5383490 123.0178500 142.5403030 142.9226530 119.8044480
 142.0461310 143.3195400 119.0871610 141.9316320 142.2975740 120.1981760
 126.6449110 125.7029160 122.5121700 127.1932100 125.5217210 121.7487810
 126.7104420 124.9123270 123.0478010 127.4180870 142.2934810 120.5221900
 126.8241190 142.1619510 121.2611940 127.4104710 141.4572950 120.0564000
 136.8635890 125.5867040 118.7251930 135.9895730 125.9202150 118.5224860
 136.7546640 125.1140220 119.5503800 137.7707870 127.7937910 120.1093650
 137.4421230 126.9789670 119.7295380 138.7190170 127.7507720 119.9859340
 140.2242480 143.5649950 117.0831220 139.7645450 144.3165760 116.7089240
 139.5954940 142.8456420 117.0246020 127.0493100 139.6593190 119.4729940
 126.3227160 139.0398480 119.4055890 127.1102250 140.0533800 118.6028020
 130.6538200 141.8738190 116.2579350 131.1703220 141.2625550 115.7327610
 131.3035580 142.3766970 116.7490360 133.3933700 142.7646680 117.0848330
 133.6811510 142.5100980 116.2081340 133.9056920 142.2124040 117.6753900
 134.6110710 126.5036880 117.6644840 133.8282500 126.9782380 117.9441600
 134.3173640 125.5991710 117.5558020 139.1631780 127.2059980 115.7093930
 139.6039870 127.1505080 114.8615530 138.8939370 128.1217990 115.7804110
 141.0270350 126.8375220 113.7202750 140.9658750 125.8936440 113.5733770
 141.8062380 126.9455310 114.2656210 125.3323100 142.9767580 112.6826700
 125.1645140 142.3438260 113.3808590 124.4657610 143.1826980 112.3320890
 125.9551120 126.8084360 110.1858560 126.7130480 126.9213240 109.6122590
 125.4928290 127.6453560 110.1401990 132.4964930 128.9223630 113.1760870
 131.6839440 128.5480520 112.8356750 133.0006570 128.1668710 113.4782060
 136.9989910 125.5866080 114.4143940 137.6019280 126.1586290 114.8892460
 136.2582900 126.1505520 114.1917840 140.1424510 125.9887640 109.6884220
 140.3375140 126.8871090 109.9551650 139.3554380 125.7574720 110.1817170
 126.9385800 141.6700810 110.1276840 126.4133420 142.0508840 109.4238800
 126.8630380 142.2951580 110.8486550 128.3276270 127.3348410 108.7260530
 128.8569030 126.5478210 108.5968480 128.9604590 128.0139600 108.9596060
 130.5214110 127.0723550 111.7805920 129.8916850 126.3710860 111.9476050
 129.9819250 127.8327680 111.5639080 133.4606060 143.6862780 124.4516530
 134.3873370 143.4507050 124.4952490 133.4456490 144.5134780 123.9702560
 141.6951120 143.2288350 111.4490780 141.8703310 142.5426090 110.8051700
 140.9972690 143.7535400 111.0567450 130.6469670 126.3507530 124.2158410
 130.3653940 126.8541130 123.4519230 131.0289370 125.5529280 123.8500540
 129.5378770 143.6183190 109.0026090 130.2697590 143.3342470 108.4549980
 129.7972440 143.3796470 109.8925470 128.6993560 139.7347920 109.0072420
 128.0702440 140.2033020 109.5558250 128.8141390 138.8897140 109.4418610
 137.2485130 125.7661110 124.7938880 137.1350580 126.0855720 125.6890400
 138.0654870 126.1673620 124.4976160 140.0283620 142.9132640 124.2757570
 140.8208940 142.4181870 124.0683530 140.3216770 143.5922780 124.8833180
 136.1543280 133.7853580  95.1573620 136.0737330 132.8708190  94.8865330
 135.7407700 134.2820650  94.4513330 134.2861320 135.5632600  97.0382890
 133.5103420 135.0833040  97.3281460 134.9374250 134.8838250  96.8639050
 128.3027150 135.8752410  97.9158650 127.4712030 135.6201120  98.3155160
 128.9108130 135.9463180  98.6516570 138.3068750 139.9692790  95.8182020
 137.8450280 139.1980030  96.1469190 139.1194300 139.9958860  96.3234470
 128.2828410 139.9092500  98.1116670 128.5856450 139.0190240  97.9326890
 129.0272000 140.4662720  97.8838920 126.7119100 130.8354300  91.7001040
 125.8235800 131.1770270  91.5980920 126.9960290 130.6354620  90.8081870
 124.6752110 133.4359950  97.5840740 125.2468220 132.6682150  97.5844380
 124.6753650 133.7348710  96.6747350 134.5332060 142.2550800  95.4386010
 133.9143500 142.7108300  94.8680450 135.3883840 142.4102260  95.0375710
 133.7270310 138.2389790  97.0453050 133.6578590 137.2979730  96.8842180
 134.4890170 138.3291200  97.6175620 125.9176980 128.8444310  99.3709670
 125.7379820 127.9470060  99.6512430 125.5157060 129.3916180 100.0456620
 134.7575480 131.0460170  97.2721980 135.1340300 130.1732050  97.1595650
 134.6594990 131.3818870  96.3812420 128.8880490 129.4185800  92.7339420
 128.9947240 130.3189530  93.0408180 127.9772850 129.3703770  92.4434070
 138.5399600 128.5410610  94.2050320 139.3609220 128.0507180  94.2475800
 138.5733680 129.1308270  94.9582160 126.5363650 131.3404810  97.9792010
 127.2173760 131.6043180  98.5979410 126.2211700 130.5005680  98.3130020
 130.7288220 132.3872170  97.0664600 131.2366440 132.8853140  97.7069620
 131.2601460 131.6107370  96.8903960 142.8299150 130.5577360 100.7693950
 142.1251320 130.9459070 100.2509060 143.0957070 131.2527650 101.3714880
 129.0124320 127.0270730 101.3328020 129.0142760 127.5443120 100.5273920
 128.1828630 126.5500910 101.3097950 135.3995410 137.1390040  92.8317920
 134.7812680 137.6039490  92.2680640 135.9118660 137.8317520  93.2487430
 130.2627170 136.6665910  99.5101520 129.9296550 137.2934830 100.1522590
 130.4393850 137.1927790  98.7303190 138.7761080 130.4810990  96.9777860
 138.0716650 130.7695880  97.5580970 139.1373240 131.2911100  96.6177420
 128.6939650 128.7380690  99.3398470 129.0356460 129.5822740  99.0452340
 127.7555460 128.8864430  99.4563810 129.4746270 138.6346710 101.3250700
 130.0920270 139.3097790 101.0435150 128.6139390 139.0434690 101.2338200
 124.7678610 137.8246570  90.2057550 124.3906590 138.3133670  89.4742450
 125.0251680 138.4971850  90.8364080 140.3923860 140.0986120  99.2405340
 139.7087380 140.7685230  99.2322010 140.9318150 140.2966770  98.4750200
 141.8448000 129.9265780  97.3687070 140.8972910 129.9604760  97.5002500
 142.1697990 130.7404730  97.7536430 132.3767540 126.2262960  95.6643060
 132.6842520 125.6709850  94.9478560 131.4468240 126.3607420  95.4816050
 137.9282600 141.9430250  97.9550520 137.9409760 141.5392540  97.0872780
 137.3757820 142.7177540  97.8511950 139.2228020 138.6646470  93.0440690
 139.1124350 137.7220800  93.1690110 139.2196270 139.0262110  93.9303450
 137.3268040 136.8460090  99.2833130 137.7436830 136.6320200  98.4486590
 138.0507860 137.1032880  99.8541750 134.7648300 134.2911790  92.4003180
 133.8377580 134.2249170  92.6291650 134.9173120 135.2291920  92.2858420
 134.7517380 130.5628790  89.3970340 133.8121050 130.7242750  89.4822800
 135.0700640 131.2814470  88.8506330 141.2730140 135.2447310  99.3749370
 140.4448770 135.3140400  98.8999500 141.8680620 135.8301620  98.9065200
 138.7945590 135.8532090  92.9038430 138.1758010 135.5151640  92.2564730
 138.7770040 135.2091850  93.6117620 138.2372150 132.0316630 100.3204240
 137.8243330 132.8570340 100.5744230 137.5048100 131.4461670 100.1280600
 130.3704940 134.8176530  95.1822910 129.9661940 134.1053780  94.6868810
 130.4568060 134.4729770  96.0710950 130.8386640 138.5044090  97.3462120
 130.5414930 137.8989560  96.6669900 131.7886460 138.5421400  97.2351480
 129.0833560 131.5919740  98.9621950 129.6348150 131.7015080  98.1875200
 129.5977070 131.9657340  99.6777180 138.9272250 142.0775960 101.0085220
 138.4502810 142.8848150 100.8157830 138.2434040 141.4254290 101.1611430
 129.9305070 138.2425780 103.9969920 129.0333600 138.4665750 104.2443320
 129.9557940 138.3660720 103.0481320 136.9710290 135.0918900  89.9111180
 137.4103570 134.2541330  89.7649000 137.6838710 135.7248300  89.9975320
 128.7576290 135.1139100 102.5727290 128.6184060 135.9861900 102.9414690
 127.8757650 134.7711910 102.4275230 135.0805670 140.0314970  93.8792420
 135.5201580 140.7739300  93.4647810 135.0192560 140.2741540  94.8031380
 130.5556640 141.0560800 104.7812440 130.5272070 141.4603750 103.9140870
 130.3921610 140.1271160 104.6184040 140.5527430 126.3461710  88.2252220
 140.2400090 126.4388540  89.1251290 141.3139900 126.9242740  88.1749650
 127.0709570 133.7121510  92.6829560 126.9507170 134.4383600  92.0710830
 126.7610460 132.9424420  92.2057470 142.5071460 141.8387900 106.0776610
 142.9831180 142.3170790 106.7565690 143.1278620 141.7705390 105.3522110
 124.7094940 136.8836650  98.4898200 124.7875360 137.0185420  97.5453920
 125.3236620 136.1752540  98.6826320 125.9542570 138.5836840  94.9004380
 125.5470650 138.7251430  94.0457980 126.8455580 138.2997000  94.6975590
 141.9104710 139.0300750 103.2376620 142.0367770 138.7912630 102.3193800
 141.9526090 138.1985290 103.7098700 135.7721450 142.7328750 101.8071430
 136.2866120 142.6436760 102.6093860 134.9290530 143.0788450 102.0999340
 137.7475850 143.0184090  91.2355430 137.5876990 142.7287030  92.1337260
 137.5822560 142.2424220  90.7000660 130.2264230 142.7982620  93.0127050
 130.0506710 141.8818160  92.7994850 129.3719970 143.1569910  93.2524850
 137.4501980 140.5271650  89.7953430 136.7567140 140.5248940  89.1355710
 138.1924840 140.1030970  89.3647600 137.0151910 142.1534360  93.8701920
 137.4708860 141.3723740  94.1840540 137.3544430 142.8641180  94.4143100
 141.7628720 131.0833210 104.2026360 141.1472990 131.5912880 103.6741820
 141.4425140 130.1831540 104.1452300 124.7654460 137.9250820 101.0292660
 124.9285500 137.4556180 100.2112030 125.2306910 137.4174380 101.6941500
 129.5373230 127.0556580  96.0653230 129.0941380 127.8366120  95.7337750
 130.0958220 127.3786470  96.7724170 133.8243040 129.9225100 101.6688550
 133.3622410 130.1308120 102.4808490 133.4221150 129.1084450 101.3659220
 138.8247550 131.1434050 102.7985210 137.9741140 130.8439800 103.1194280
 138.6649340 131.3876060 101.8869030 135.9197260 132.6435800 104.8984000
 136.2450670 131.8099550 104.5586230 136.7077590 133.1664320 105.0462330
 132.6532050 126.6767280  90.9459060 132.0286230 126.6727150  91.6712370
 132.5662170 125.8098240  90.5495030 131.5749130 127.6003910  97.9242830
 131.8721460 128.5066740  97.8434850 132.1234690 127.1122690  97.3102400
 129.3287450 132.1790150  93.7934480 129.1028370 131.9627320  94.6981100
 128.5479980 132.6118610  93.4480450 136.5585210 132.1853520  92.3925130
 135.9594100 132.9089320  92.2088750 137.1064820 132.1230300  91.6101580
 131.7686660 133.0775730 104.4594750 131.6730260 132.1370460 104.3095150
 132.6118640 133.2990800 104.0642820 135.1650080 130.8217060  94.4228410
 135.5579650 131.1389260  93.6097100 135.5266930 129.9428940  94.5372930
 126.8997200 129.4889400 102.6128530 126.5060590 130.3364610 102.8201310
 126.2115600 128.8515770 102.8037170 133.4742250 129.5724370 105.6825270
 132.7840570 129.3796570 106.3171360 134.2174550 129.8559010 106.2149570
 124.2014250 127.4117860  96.6458610 123.9127300 127.9820720  97.3583590
 124.9460010 126.9322310  97.0089840 124.3884480 131.3537980  87.8561330
 124.3059150 132.2968740  87.9976320 124.0367540 131.2112890  86.9773680
 135.7505220 133.4122810  98.5179190 135.0186340 133.9209620  98.8669290
 135.3529560 132.5952790  98.2167970 132.1882610 130.0877010  96.9231680
 132.1918670 129.6466960  96.0736220 133.0833730 130.4094340  97.0303500
 128.0384990 129.9703500  95.8825890 127.6985040 130.4478730  96.6392940
 127.2762310 129.5168620  95.5226990 132.2502760 131.0889090  89.9138440
 132.3715580 131.0475570  90.8624260 131.8651270 131.9513240  89.7585170
 136.2131130 128.8656490  97.9302130 136.2303870 129.3165140  98.7743980
 135.9646710 127.9662130  98.1435570 131.2624260 133.3990230  89.3121740
 130.6941160 132.9508480  88.6857650 131.9713260 133.7583010  88.7786890
 139.6401880 126.2788670 103.7688510 139.9647650 125.5478330 104.2946490
 139.6758390 125.9602310 102.8669500 126.3393440 137.3002250 103.1888470
 125.9548230 136.6595920 103.7871430 126.6505630 138.0038370 103.7583200
 132.4890580 134.1478790  98.6697090 132.8560710 133.6737360  99.4158430
 132.2995640 135.0220360  99.0105430 125.3531070 128.8922480  94.7990560
 125.0677990 128.5278150  95.6369180 125.2909930 128.1602940  94.1853700
 130.2789950 133.1887430 100.9881300 129.9747020 134.0679410 101.2131660
 131.2336410 133.2487220 101.0238740 128.8071740 137.3948420  91.5848150
 128.0334000 136.8546040  91.4246870 129.5366370 136.8755030  91.2465910
 139.5659720 136.3913780  97.3774540 140.2858840 136.8869070  96.9870650
 139.3641540 135.7131670  96.7328410 135.0269660 127.7851740  91.5203930
 134.2134270 127.2864910  91.4449240 134.8331610 128.6249990  91.1040280
 134.9478520 136.4622840 103.2643540 134.8815830 135.5418510 103.0101130
 134.3183660 136.5598280 103.9788180 137.7418050 132.1571390  89.8166090
 138.6297670 132.4688620  89.6417430 137.7123140 131.2843640  89.4246670
 128.8509140 137.0628800  95.2226960 129.3687810 136.2597060  95.1683850
 128.3993160 137.0007940  96.0643790 133.7378640 138.3295080  90.4954260
 134.0794340 139.0737310  89.9997580 132.9091350 138.6426200  90.8579090
 126.3353680 134.0290170 102.1352660 125.9768620 134.6944020 102.7226000
 126.0408240 133.1973720 102.5065280 129.5366800 134.4874410 105.0192210
 129.2366940 134.6331590 104.1220030 130.3078040 133.9279700 104.9265600
 134.8795250 139.2843410 103.0147340 134.8939790 138.3524370 102.7966250
 134.1720350 139.3703170 103.6537110 140.0132320 133.4683230  89.2845950
 139.9296040 133.8997450  88.4342390 140.7326510 133.9281580  89.7172770
 141.0906460 135.9250750 102.3615920 140.3654650 136.5179530 102.1645310
 141.6181920 135.9174290 101.5629290 141.0419570 140.3225490  92.0128080
 140.3995730 139.6681110  92.2871800 140.6550230 140.7280580  91.2368750
 136.6206050 137.6510920  95.8599770 136.9729870 137.0539050  95.2001140
 135.7368380 137.3255150  96.0308020 132.7069330 138.4108610  93.2670180
 133.3940460 138.9577820  93.6477770 131.9201750 138.9549340  93.3019790
 124.8461730 134.0281430  88.7587260 125.7156580 134.3106230  89.0423180
 124.3552050 134.8417300  88.6436070 132.0096540 135.4154640  92.8795540
 132.4659320 136.2259890  93.1055730 131.6584750 135.0977780  93.7114030
 134.3129150 140.9260980 100.1087840 134.9571370 141.1320360 100.7861260
 134.6758590 140.1649380  99.6558690 127.9108320 125.7592290  93.3518060
 127.7822950 125.7510190  94.3002980 127.0870340 126.0975380  93.0009070
 135.5861230 138.9293330  98.8265290 136.2283460 138.2286490  98.9397460
 136.1110580 139.7091770  98.6462180 139.4316950 139.2141950  88.5504430
 139.2054530 138.4972390  89.1429070 139.0413150 138.9654390  87.7126180
 137.3598850 139.7288230 102.0301350 137.6955090 140.3154920 102.7079270
 136.4399190 139.5980940 102.2599140 125.2132980 143.2408810  89.3248890
 125.5730620 143.8398150  88.6706160 125.0725320 143.7868700  90.0983920
 124.9102250 127.5183410 102.8124760 124.1960770 127.7180330 103.4177370
 125.3297290 126.7422980 103.1839560 139.0133200 137.1313890  90.2118590
 138.7254900 137.5926580  90.9996470 139.8085370 136.6711660  90.4802810
 125.1974840 141.5063670 103.7991290 125.3065960 140.5658410 103.6586680
 124.5455400 141.7718420 103.1505020 133.1887430 139.7779560 105.1989410
 132.8684300 139.0588800 105.7435100 132.5145790 140.4534630 105.2725470
 131.2301600 140.6240010  90.1422560 131.2211700 141.3569700  89.5267070
 130.3099960 140.3771590  90.2349520 126.8308240 135.8454900  90.8869320
 126.2236190 136.5853800  90.8964620 127.3057590 135.9354260  90.0607520
 136.4041030 130.0105720 100.5626210 136.7721850 129.1900930 100.8905780
 135.5439230 130.0707610 100.9781860 139.7703060 128.9662660  91.3713770
 139.1416220 129.0708330  90.6572000 139.2754980 129.1859440  92.1607650
 134.2161200 140.6868250  88.8047750 134.3173180 140.4832240  87.8749730
 133.3162940 140.4326530  89.0095530 131.7387090 131.2448610  92.7871650
 131.0303240 131.7134950  93.2285260 132.0231570 130.5870620  93.4216840
 133.3643020 132.6645310 100.7864180 133.8628270 133.1391130 101.4516030
 133.5065970 131.7408830 100.9934210 135.7702520 127.9699270  94.2267440
 135.6470300 127.9885400  93.2776950 136.7187080 128.0178210  94.3465840
 132.8579310 143.2054570  93.4995420 133.1120810 143.1675960  92.5774790
 131.9091790 143.0787900  93.4923670 129.9422110 129.5533690  90.1622360
 130.7912640 129.9903840  90.0962550 129.5753380 129.8653950  90.9894420
 140.5709880 128.8813270 101.6292570 140.0683480 129.6218670 101.9686380
 141.3866540 129.2697270 101.3129360 138.8631890 134.1246450  95.0753930
 137.9222030 134.1396680  95.2501620 139.1775960 133.3382410  95.5214230
 128.8413530 135.8066050  88.6357890 129.6076800 135.6947410  89.1983320
 128.9188220 135.1104020  87.9834660 127.5360290 133.2391120  89.3190780
 127.6163880 132.2918630  89.4308180 128.4280040 133.5698000  89.4251440
 140.8657470 141.2955300  96.7508190 140.9904890 142.1186470  97.2232000
 141.7323030 141.0846030  96.4032340 128.3375000 143.3886510  96.4225320
 129.0737480 142.8401970  96.6933890 128.7215920 144.2542520  96.2831310
 125.2220480 139.4560080  92.2966830 124.2960260 139.6981220  92.2872240
 125.6876910 140.2834340  92.1751580 127.3433280 142.5732580 105.6110900
 128.1446010 142.8944630 106.0246300 126.8285100 142.2128160 106.3330810
 131.4477310 142.5616820  88.2450890 132.2405920 142.8505650  87.7932680
 130.9281660 142.1308990  87.5663370 136.1797910 138.6812450 105.5586310
 135.5736070 138.7044050 104.8182060 135.8752020 137.9495490 106.0953560
 137.6098280 142.4092740 104.1695720 138.5620030 142.3250760 104.1195960
 137.4626500 143.0734450 104.8429510 140.5007480 141.7886950  89.6687630
 140.2148990 141.3752090  88.8541810 140.3027030 142.7174660  89.5488150
 125.0631090 135.0606040 104.5546950 125.5670110 134.4813320 105.1263180
 124.3238510 135.3446270 105.0923320 131.9654710 137.7820230  88.1093240
 131.8605350 137.1672580  88.8354620 131.7978930 137.2586120  87.3256250
 132.1169030 136.4677030 104.0882470 131.3514700 137.0362030 104.0037140
 132.2984990 136.1753240 103.1950700 135.2057440 136.8440260  88.7135230
 134.6567540 137.2909560  89.3577970 135.8276700 136.3389510  89.2372900
 139.2592380 138.1982360 104.6457490 140.0001850 138.5358120 104.1424950
 138.4965060 138.3674420 104.0927260 127.0954170 133.2035630 105.4497020
 127.1359510 132.9049500 106.3582250 127.9499670 133.6043240 105.2904540
 130.8732560 135.8031180  90.6100530 131.2948980 135.6371050  91.4531920
 130.9983400 134.9931410  90.1155670 129.0359980 131.7827730 103.4171510
 128.5056440 131.2918680 102.7894850 129.7048050 132.2111930 102.8829440
 133.3860200 134.8268790  87.8577630 133.9065860 134.1117810  87.4918780
 134.0328600 135.4654660  88.1578140 137.9338040 136.2497190 103.1812700
 138.3479060 136.4042270 104.0303120 136.9989040 136.3752410 103.3438480
 138.4060210 133.5893350 105.1851850 138.9880980 132.8345670 105.0972330
 138.5821980 134.1200790 104.4083330 129.5232280 128.7490100 103.4968800
 129.4289150 128.1310850 102.7719670 128.9429670 129.4756390 103.2698710
 132.2893720 127.3063340 100.5296190 131.8411020 127.3287600  99.6841740
 131.6558920 126.9082360 101.1266490 132.6953270 136.2017670 101.1508630
 133.1141380 137.0450400 100.9784870 131.7761900 136.3389710 100.9215410
 135.0317170 133.9333850 102.5346470 135.1513380 133.3374990 103.2741310
 135.8911170 133.9703540 102.1147770 137.3705070 134.4871040 101.1108980
 136.8440290 135.0113660 100.5074120 137.7136410 135.1198430 101.7418710
 129.7691460 131.8764410  87.5558690 129.5680520 131.0131770  87.9172030
 129.5983510 131.7897770  86.6180290 130.5460690 142.5070680 102.2666360
 130.0081780 143.2316740 101.9475060 130.7994650 142.0301020 101.4763700
 131.7985940 130.4755200 103.7922290 132.3885630 130.1671050 104.4800110
 130.9806180 130.0034950 103.9482190 136.6179370 130.0921010 104.0255310
 135.9294890 129.4302550 103.9605300 137.3385390 129.6459280 104.4703770
 137.2479770 126.6872640  90.0845570 137.5282060 125.8440540  90.4404990
 136.4745500 126.9195750  90.5984320 128.5674260 128.9765030  87.5436570
 128.8700160 128.9832460  86.6355720 129.3068850 128.6262890  88.0404230
 133.4022900 143.7421890 102.5253010 133.3281600 144.6457030 102.8325380
 132.5001740 143.4233790 102.4975080 131.7859190 127.9199650  88.5292770
 131.4381190 127.2423640  87.9495220 131.9871960 127.4589160  89.3436160
 133.9508230 142.9080400  90.1479370 134.8459020 143.2465370  90.1698130
 133.9825860 142.1859810  89.5203650 127.5904390 138.2807450  88.3766370
 128.0279260 138.8237120  89.0323950 128.0752120 137.4554400  88.3862710
 124.8050190 141.0696480  95.8286630 125.1353200 140.2017540  95.5965270
 125.2341190 141.2755000  96.6591590 129.4012110 139.4005490  93.4888600
 129.1007650 139.2770460  94.3892510 129.2949600 138.5414080  93.0804330
 125.2940400 141.9367070  98.5668260 124.8571390 142.1167870  99.3992410
 125.8618080 142.6941690  98.4249980 140.9302580 141.4384070 102.8545570
 140.3304570 141.4976630 102.1109490 141.0596480 140.4989050 102.9842420
 142.1704030 139.1801890  88.1915280 141.3396990 139.2478540  88.6622510
 142.3475860 140.0706010  87.8882140 141.6260490 135.9249370  90.6949480
 142.3879400 136.4946020  90.8009170 141.6414860 135.3576570  91.4657790
 125.1264830 134.4487300  94.9257140 124.4713670 134.1798940  94.2816840
 125.9642780 134.3391780  94.4759120 142.6320460 136.7799470  95.5391410
 143.0029290 135.9966790  95.1327380 143.2722390 137.4688570  95.3608710
 139.6154220 138.1636050 100.9521730 138.8014060 138.5933210 101.2147520
 140.0228420 138.7754460 100.3390780 141.6779660 136.2183740  87.8522000
 141.9528500 137.1262620  87.7241220 141.4890400 136.1546270  88.7883990
 138.0755270 129.2428590  89.1475630 138.4940150 129.0559570  88.3072290
 137.7691330 128.3907640  89.4578560 141.5745000 134.1552730  92.8451430
 141.1988600 133.3880660  92.4132720 140.8448120 134.5375430  93.3326360
 126.1640760 134.8339870  99.4660480 126.5313800 134.7467270 100.3456500
 125.5951580 134.0706420  99.3667340 140.9644620 133.3024250 102.4790950
 140.7330710 133.0737000 101.5788900 141.2249170 134.2223800 102.4335840
 125.7156760 131.7448960 103.3718900 124.8212810 131.7115720 103.7112610
 126.2554310 131.9435750 104.1370150 139.4032690 128.5280680 105.2570650
 140.2802870 128.5364080 105.6404650 139.4153530 127.7911520 104.6463000
 124.3402910 131.6586230  90.8682470 123.4366990 131.9216430  90.6934130
 124.8243530 131.9297400  90.0882430 140.8495960 132.3810220  96.1458670
 141.3733440 131.8872870  95.5148840 141.4355380 132.5160580  96.8906240
 141.0285680 132.4650090  99.6678220 140.0788390 132.4313630  99.7823210
 141.2098690 133.3750200  99.4327990 126.8830120 130.7151770  88.7776850
 127.5921820 130.2934990  88.2924130 126.1670060 130.7827000  88.1460200
 126.5304280 126.7691100  87.8179500 127.2532410 127.3100040  88.1360720
 126.8028800 126.4954520  86.9421040 140.3395930 131.6383570  92.0851080
 140.8355050 131.4054440  92.8699960 140.1412000 130.7995410  91.6688720
 126.2196470 126.0197290  97.7202120 126.8672660 125.4694670  97.2797280
 126.6398310 126.2740440  98.5417930 141.7683090 130.2744520  94.6188760
 141.6582370 130.1200560  95.5571030 142.5290680 129.7465460  94.3764170
 140.1148810 126.2138650 101.0771760 140.7521030 126.8272790 101.4430950
 140.2623700 126.2499310 100.1320990 142.6573360 128.1052440  87.8594900
 143.5822670 127.9733620  87.6513190 142.6349150 128.1845260  88.8131350
 142.7311850 128.8763100  90.4851610 141.9363350 128.8108220  91.0144520
 142.9355130 129.8113740  90.4736960 139.6730270 142.9154650  94.4790000
 140.2689340 142.5939220  93.8024420 139.9308420 142.4426470  95.2703270
 125.9728470 126.1752960 100.4627440 125.6243290 126.6316780 101.2285620
 125.6416170 125.2810090 100.5449870 127.5792840 139.3472560 104.6280630
 127.5362470 138.9765470 105.5095090 127.7103850 140.2850130 104.7682450
 131.2798870 140.9032150 100.2290350 131.0390230 141.1706710  99.3420870
 132.2201510 141.0737880 100.2841210 133.4853290 127.3664840 103.9846860
 133.4242180 127.9586670 104.7342270 134.4253670 127.2590800 103.8397120
 136.1227850 127.0234900 103.6239150 136.7368260 127.3414190 102.9620230
 136.6677410 126.5383490 104.2435010 142.5403030 142.9226530 101.0300990
 142.0461310 143.3195400 100.3128120 141.9316320 142.2975740 101.4238270
 126.6449110 125.7029160 103.7378210 127.1932100 125.5217210 102.9744320
 126.7104420 124.9123270 104.2734520 127.4180870 142.2934810 101.7478410
 126.8241190 142.1619510 102.4868450 127.4104710 141.4572950 101.2820510
 136.8635890 125.5867040  99.9508440 135.9895730 125.9202150  99.7481370
 136.7546640 125.1140220 100.7760310 137.7707870 127.7937910 101.3350160
 137.4421230 126.9789670 100.9551890 138.7190170 127.7507720 101.2115850
 140.2242480 143.5649950  98.3087730 139.7645450 144.3165760  97.9345750
 139.5954940 142.8456420  98.2502530 127.0493100 139.6593190 100.6986450
 126.3227160 139.0398480 100.6312400 127.1102250 140.0533800  99.8284530
 130.6538200 141.8738190  97.4835860 131.1703220 141.2625550  96.9584120
 131.3035580 142.3766970  97.9746870 133.3933700 142.7646680  98.3104840
 133.6811510 142.5100980  97.4337850 133.9056920 142.2124040  98.9010410
 134.6110710 126.5036880  98.8901350 133.8282500 126.9782380  99.1698110
 134.3173640 125.5991710  98.7814530 139.1631780 127.2059980  96.9350440
 139.6039870 127.1505080  96.0872040 138.8939370 128.1217990  97.0060620
 141.0270350 126.8375220  94.9459260 140.9658750 125.8936440  94.7990280
 141.8062380 126.9455310  95.4912720 125.3323100 142.9767580  93.9083210
 125.1645140 142.3438260  94.6065100 124.4657610 143.1826980  93.5577400
 125.9551120 126.8084360  91.4115070 126.7130480 126.9213240  90.8379100
 125.4928290 127.6453560  91.3658500 132.4964930 128.9223630  94.4017380
 131.6839440 128.5480520  94.0613260 133.0006570 128.1668710  94.7038570
 136.9989910 125.5866080  95.6400450 137.6019280 126.1586290  96.1148970
 136.2582900 126.1505520  95.4174350 140.1424510 125.9887640  90.9140730
 140.3375140 126.8871090  91.1808160 139.3554380 125.7574720  91.4073680
 126.9385800 141.6700810  91.3533350 126.4133420 142.0508840  90.6495310
 126.8630380 142.2951580  92.0743060 128.3276270 127.3348410  89.9517040
 128.8569030 126.5478210  89.8224990 128.9604590 128.0139600  90.1852570
 130.5214110 127.0723550  93.0062430 129.8916850 126.3710860  93.1732560
 129.9819250 127.8327680  92.7895590 133.4606060 143.6862780 105.6773040
 134.3873370 143.4507050 105.7209000 133.4456490 144.5134780 105.1959070
 141.6951120 143.2288350  92.6747290 141.8703310 142.5426090  92.0308210
 140.9972690 143.7535400  92.2823960 130.6469670 126.3507530 105.4414920
 130.3653940 126.8541130 104.6775740 131.0289370 125.5529280 105.0757050
 129.5378770 143.6183190  90.2282600 130.2697590 143.3342470  89.6806490
 129.7972440 143.3796470  91.1181980 128.6993560 139.7347920  90.2328930
 128.0702440 140.2033020  90.7814760 128.8141390 138.8897140  90.6675120
 137.2485130 125.7661110 106.0195390 137.1350580 126.0855720 106.9146910
 138.0654870 126.1673620 105.7232670 140.0283620 142.9132640 105.5014080
 140.8208940 142.4181870 105.2940040 140.3216770 143.5922780 106.1089690
 136.1543280 133.7853580  76.3830130 136.0737330 132.8708190  76.1121840
 135.7407700 134.2820650  75.6769840 134.2861320 135.5632600  78.2639400
 133.5103420 135.0833040  78.5537970 134.9374250 134.8838250  78.0895560
 128.3027150 135.8752410  79.1415160 127.4712030 135.6201120  79.5411670
 128.9108130 135.9463180  79.8773080 138.3068750 139.9692790  77.0438530
 137.8450280 139.1980030  77.3725700 139.1194300 139.9958860  77.5490980
 128.2828410 139.9092500  79.3373180 128.5856450 139.0190240  79.1583400
 129.0272000 140.4662720  79.1095430 126.7119100 130.8354300  72.9257550
 125.8235800 131.1770270  72.8237430 126.9960290 130.6354620  72.0338380
 124.6752110 133.4359950  78.8097250 125.2468220 132.6682150  78.8100890
 124.6753650 133.7348710  77.9003860 134.5332060 142.2550800  76.6642520
 133.9143500 142.7108300  76.0936960 135.3883840 142.4102260  76.2632220
 133.7270310 138.2389790  78.2709560 133.6578590 137.2979730  78.1098690
 134.4890170 138.3291200  78.8432130 125.9176980 128.8444310  80.5966180
 125.7379820 127.9470060  80.8768940 125.5157060 129.3916180  81.2713130
 134.7575480 131.0460170  78.4978490 135.1340300 130.1732050  78.3852160
 134.6594990 131.3818870  77.6068930 128.8880490 129.4185800  73.9595930
 128.9947240 130.3189530  74.2664690 127.9772850 129.3703770  73.6690580
 138.5399600 128.5410610  75.4306830 139.3609220 128.0507180  75.4732310
 138.5733680 129.1308270  76.1838670 126.5363650 131.3404810  79.2048520
 127.2173760 131.6043180  79.8235920 126.2211700 130.5005680  79.5386530
 130.7288220 132.3872170  78.2921110 131.2366440 132.8853140  78.9326130
 131.2601460 131.6107370  78.1160470 142.8299150 130.5577360  81.9950460
 142.1251320 130.9459070  81.4765570 143.0957070 131.2527650  82.5971390
 129.0124320 127.0270730  82.5584530 129.0142760 127.5443120  81.7530430
 128.1828630 126.5500910  82.5354460 135.3995410 137.1390040  74.0574430
 134.7812680 137.6039490  73.4937150 135.9118660 137.8317520  74.4743940
 130.2627170 136.6665910  80.7358030 129.9296550 137.2934830  81.3779100
 130.4393850 137.1927790  79.9559700 138.7761080 130.4810990  78.2034370
 138.0716650 130.7695880  78.7837480 139.1373240 131.2911100  77.8433930
 128.6939650 128.7380690  80.5654980 129.0356460 129.5822740  80.2708850
 127.7555460 128.8864430  80.6820320 129.4746270 138.6346710  82.5507210
 130.0920270 139.3097790  82.2691660 128.6139390 139.0434690  82.4594710
 124.7678610 137.8246570  71.4314060 124.3906590 138.3133670  70.6998960
 125.0251680 138.4971850  72.0620590 140.3923860 140.0986120  80.4661850
 139.7087380 140.7685230  80.4578520 140.9318150 140.2966770  79.7006710
 141.8448000 129.9265780  78.5943580 140.8972910 129.9604760  78.7259010
 142.1697990 130.7404730  78.9792940 132.3767540 126.2262960  76.8899570
 132.6842520 125.6709850  76.1735070 131.4468240 126.3607420  76.7072560
 137.9282600 141.9430250  79.1807030 137.9409760 141.5392540  78.3129290
 137.3757820 142.7177540  79.0768460 139.2228020 138.6646470  74.2697200
 139.1124350 137.7220800  74.3946620 139.2196270 139.0262110  75.1559960
 137.3268040 136.8460090  80.5089640 137.7436830 136.6320200  79.6743100
 138.0507860 137.1032880  81.0798260 134.7648300 134.2911790  73.6259690
 133.8377580 134.2249170  73.8548160 134.9173120 135.2291920  73.5114930
 134.7517380 130.5628790  70.6226850 133.8121050 130.7242750  70.7079310
 135.0700640 131.2814470  70.0762840 141.2730140 135.2447310  80.6005880
 140.4448770 135.3140400  80.1256010 141.8680620 135.8301620  80.1321710
 138.7945590 135.8532090  74.1294940 138.1758010 135.5151640  73.4821240
 138.7770040 135.2091850  74.8374130 138.2372150 132.0316630  81.5460750
 137.8243330 132.8570340  81.8000740 137.5048100 131.4461670  81.3537110
 130.3704940 134.8176530  76.4079420 129.9661940 134.1053780  75.9125320
 130.4568060 134.4729770  77.2967460 130.8386640 138.5044090  78.5718630
 130.5414930 137.8989560  77.8926410 131.7886460 138.5421400  78.4607990
 129.0833560 131.5919740  80.1878460 129.6348150 131.7015080  79.4131710
 129.5977070 131.9657340  80.9033690 138.9272250 142.0775960  82.2341730
 138.4502810 142.8848150  82.0414340 138.2434040 141.4254290  82.3867940
 129.9305070 138.2425780  85.2226430 129.0333600 138.4665750  85.4699830
 129.9557940 138.3660720  84.2737830 136.9710290 135.0918900  71.1367690
 137.4103570 134.2541330  70.9905510 137.6838710 135.7248300  71.2231830
 128.7576290 135.1139100  83.7983800 128.6184060 135.9861900  84.1671200
 127.8757650 134.7711910  83.6531740 135.0805670 140.0314970  75.1048930
 135.5201580 140.7739300  74.6904320 135.0192560 140.2741540  76.0287890
 130.5556640 141.0560800  86.0068950 130.5272070 141.4603750  85.1397380
 130.3921610 140.1271160  85.8440550 140.5527430 126.3461710  69.4508730
 140.2400090 126.4388540  70.3507800 141.3139900 126.9242740  69.4006160
 127.0709570 133.7121510  73.9086070 126.9507170 134.4383600  73.2967340
 126.7610460 132.9424420  73.4313980 142.5071460 141.8387900  87.3033120
 142.9831180 142.3170790  87.9822200 143.1278620 141.7705390  86.5778620
 124.7094940 136.8836650  79.7154710 124.7875360 137.0185420  78.7710430
 125.3236620 136.1752540  79.9082830 125.9542570 138.5836840  76.1260890
 125.5470650 138.7251430  75.2714490 126.8455580 138.2997000  75.9232100
 141.9104710 139.0300750  84.4633130 142.0367770 138.7912630  83.5450310
 141.9526090 138.1985290  84.9355210 135.7721450 142.7328750  83.0327940
 136.2866120 142.6436760  83.8350370 134.9290530 143.0788450  83.3255850
 137.7475850 143.0184090  72.4611940 137.5876990 142.7287030  73.3593770
 137.5822560 142.2424220  71.9257170 130.2264230 142.7982620  74.2383560
 130.0506710 141.8818160  74.0251360 129.3719970 143.1569910  74.4781360
 137.4501980 140.5271650  71.0209940 136.7567140 140.5248940  70.3612220
 138.1924840 140.1030970  70.5904110 137.0151910 142.1534360  75.0958430
 137.4708860 141.3723740  75.4097050 137.3544430 142.8641180  75.6399610
 141.7628720 131.0833210  85.4282870 141.1472990 131.5912880  84.8998330
 141.4425140 130.1831540  85.3708810 124.7654460 137.9250820  82.2549170
 124.9285500 137.4556180  81.4368540 125.2306910 137.4174380  82.9198010
 129.5373230 127.0556580  77.2909740 129.0941380 127.8366120  76.9594260
 130.0958220 127.3786470  77.9980680 133.8243040 129.9225100  82.8945060
 133.3622410 130.1308120  83.7065000 133.4221150 129.1084450  82.5915730
 138.8247550 131.1434050  84.0241720 137.9741140 130.8439800  84.3450790
 138.6649340 131.3876060  83.1125540 135.9197260 132.6435800  86.1240510
 136.2450670 131.8099550  85.7842740 136.7077590 133.1664320  86.2718840
 132.6532050 126.6767280  72.1715570 132.0286230 126.6727150  72.8968880
 132.5662170 125.8098240  71.7751540 131.5749130 127.6003910  79.1499340
 131.8721460 128.5066740  79.0691360 132.1234690 127.1122690  78.5358910
 129.3287450 132.1790150  75.0190990 129.1028370 131.9627320  75.9237610
 128.5479980 132.6118610  74.6736960 136.5585210 132.1853520  73.6181640
 135.9594100 132.9089320  73.4345260 137.1064820 132.1230300  72.8358090
 131.7686660 133.0775730  85.6851260 131.6730260 132.1370460  85.5351660
 132.6118640 133.2990800  85.2899330 135.1650080 130.8217060  75.6484920
 135.5579650 131.1389260  74.8353610 135.5266930 129.9428940  75.7629440
 126.8997200 129.4889400  83.8385040 126.5060590 130.3364610  84.0457820
 126.2115600 128.8515770  84.0293680 133.4742250 129.5724370  86.9081780
 132.7840570 129.3796570  87.5427870 134.2174550 129.8559010  87.4406080
 124.2014250 127.4117860  77.8715120 123.9127300 127.9820720  78.5840100
 124.9460010 126.9322310  78.2346350 124.3884480 131.3537980  69.0817840
 124.3059150 132.2968740  69.2232830 124.0367540 131.2112890  68.2030190
 135.7505220 133.4122810  79.7435700 135.0186340 133.9209620  80.0925800
 135.3529560 132.5952790  79.4424480 132.1882610 130.0877010  78.1488190
 132.1918670 129.6466960  77.2992730 133.0833730 130.4094340  78.2560010
 128.0384990 129.9703500  77.1082400 127.6985040 130.4478730  77.8649450
 127.2762310 129.5168620  76.7483500 132.2502760 131.0889090  71.1394950
 132.3715580 131.0475570  72.0880770 131.8651270 131.9513240  70.9841680
 136.2131130 128.8656490  79.1558640 136.2303870 129.3165140  80.0000490
 135.9646710 127.9662130  79.3692080 131.2624260 133.3990230  70.5378250
 130.6941160 132.9508480  69.9114160 131.9713260 133.7583010  70.0043400
 139.6401880 126.2788670  84.9945020 139.9647650 125.5478330  85.5203000
 139.6758390 125.9602310  84.0926010 126.3393440 137.3002250  84.4144980
 125.9548230 136.6595920  85.0127940 126.6505630 138.0038370  84.9839710
 132.4890580 134.1478790  79.8953600 132.8560710 133.6737360  80.6414940
 132.2995640 135.0220360  80.2361940 125.3531070 128.8922480  76.0247070
 125.0677990 128.5278150  76.8625690 125.2909930 128.1602940  75.4110210
 130.2789950 133.1887430  82.2137810 129.9747020 134.0679410  82.4388170
 131.2336410 133.2487220  82.2495250 128.8071740 137.3948420  72.8104660
 128.0334000 136.8546040  72.6503380 129.5366370 136.8755030  72.4722420
 139.5659720 136.3913780  78.6031050 140.2858840 136.8869070  78.2127160
 139.3641540 135.7131670  77.9584920 135.0269660 127.7851740  72.7460440
 134.2134270 127.2864910  72.6705750 134.8331610 128.6249990  72.3296790
 134.9478520 136.4622840  84.4900050 134.8815830 135.5418510  84.2357640
 134.3183660 136.5598280  85.2044690 137.7418050 132.1571390  71.0422600
 138.6297670 132.4688620  70.8673940 137.7123140 131.2843640  70.6503180
 128.8509140 137.0628800  76.4483470 129.3687810 136.2597060  76.3940360
 128.3993160 137.0007940  77.2900300 133.7378640 138.3295080  71.7210770
 134.0794340 139.0737310  71.2254090 132.9091350 138.6426200  72.0835600
 126.3353680 134.0290170  83.3609170 125.9768620 134.6944020  83.9482510
 126.0408240 133.1973720  83.7321790 129.5366800 134.4874410  86.2448720
 129.2366940 134.6331590  85.3476540 130.3078040 133.9279700  86.1522110
 134.8795250 139.2843410  84.2403850 134.8939790 138.3524370  84.0222760
 134.1720350 139.3703170  84.8793620 140.0132320 133.4683230  70.5102460
 139.9296040 133.8997450  69.6598900 140.7326510 133.9281580  70.9429280
 141.0906460 135.9250750  83.5872430 140.3654650 136.5179530  83.3901820
 141.6181920 135.9174290  82.7885800 141.0419570 140.3225490  73.2384590
 140.3995730 139.6681110  73.5128310 140.6550230 140.7280580  72.4625260
 136.6206050 137.6510920  77.0856280 136.9729870 137.0539050  76.4257650
 135.7368380 137.3255150  77.2564530 132.7069330 138.4108610  74.4926690
 133.3940460 138.9577820  74.8734280 131.9201750 138.9549340  74.5276300
 124.8461730 134.0281430  69.9843770 125.7156580 134.3106230  70.2679690
 124.3552050 134.8417300  69.8692580 132.0096540 135.4154640  74.1052050
 132.4659320 136.2259890  74.3312240 131.6584750 135.0977780  74.9370540
 134.3129150 140.9260980  81.3344350 134.9571370 141.1320360  82.0117770
 134.6758590 140.1649380  80.8815200 127.9108320 125.7592290  74.5774570
 127.7822950 125.7510190  75.5259490 127.0870340 126.0975380  74.2265580
 135.5861230 138.9293330  80.0521800 136.2283460 138.2286490  80.1653970
 136.1110580 139.7091770  79.8718690 139.4316950 139.2141950  69.7760940
 139.2054530 138.4972390  70.3685580 139.0413150 138.9654390  68.9382690
 137.3598850 139.7288230  83.2557860 137.6955090 140.3154920  83.9335780
 136.4399190 139.5980940  83.4855650 125.2132980 143.2408810  70.5505400
 125.5730620 143.8398150  69.8962670 125.0725320 143.7868700  71.3240430
 124.9102250 127.5183410  84.0381270 124.1960770 127.7180330  84.6433880
 125.3297290 126.7422980  84.4096070 139.0133200 137.1313890  71.4375100
 138.7254900 137.5926580  72.2252980 139.8085370 136.6711660  71.7059320
 125.1974840 141.5063670  85.0247800 125.3065960 140.5658410  84.8843190
 124.5455400 141.7718420  84.3761530 133.1887430 139.7779560  86.4245920
 132.8684300 139.0588800  86.9691610 132.5145790 140.4534630  86.4981980
 131.2301600 140.6240010  71.3679070 131.2211700 141.3569700  70.7523580
 130.3099960 140.3771590  71.4606030 126.8308240 135.8454900  72.1125830
 126.2236190 136.5853800  72.1221130 127.3057590 135.9354260  71.2864030
 136.4041030 130.0105720  81.7882720 136.7721850 129.1900930  82.1162290
 135.5439230 130.0707610  82.2038370 139.7703060 128.9662660  72.5970280
 139.1416220 129.0708330  71.8828510 139.2754980 129.1859440  73.3864160
 134.2161200 140.6868250  70.0304260 134.3173180 140.4832240  69.1006240
 133.3162940 140.4326530  70.2352040 131.7387090 131.2448610  74.0128160
 131.0303240 131.7134950  74.4541770 132.0231570 130.5870620  74.6473350
 133.3643020 132.6645310  82.0120690 133.8628270 133.1391130  82.6772540
 133.5065970 131.7408830  82.2190720 135.7702520 127.9699270  75.4523950
 135.6470300 127.9885400  74.5033460 136.7187080 128.0178210  75.5722350
 132.8579310 143.2054570  74.7251930 133.1120810 143.1675960  73.8031300
 131.9091790 143.0787900  74.7180180 129.9422110 129.5533690  71.3878870
 130.7912640 129.9903840  71.3219060 129.5753380 129.8653950  72.2150930
 140.5709880 128.8813270  82.8549080 140.0683480 129.6218670  83.1942890
 141.3866540 129.2697270  82.5385870 138.8631890 134.1246450  76.3010440
 137.9222030 134.1396680  76.4758130 139.1775960 133.3382410  76.7470740
 128.8413530 135.8066050  69.8614400 129.6076800 135.6947410  70.4239830
 128.9188220 135.1104020  69.2091170 127.5360290 133.2391120  70.5447290
 127.6163880 132.2918630  70.6564690 128.4280040 133.5698000  70.6507950
 140.8657470 141.2955300  77.9764700 140.9904890 142.1186470  78.4488510
 141.7323030 141.0846030  77.6288850 128.3375000 143.3886510  77.6481830
 129.0737480 142.8401970  77.9190400 128.7215920 144.2542520  77.5087820
 125.2220480 139.4560080  73.5223340 124.2960260 139.6981220  73.5128750
 125.6876910 140.2834340  73.4008090 127.3433280 142.5732580  86.8367410
 128.1446010 142.8944630  87.2502810 126.8285100 142.2128160  87.5587320
 131.4477310 142.5616820  69.4707400 132.2405920 142.8505650  69.0189190
 130.9281660 142.1308990  68.7919880 136.1797910 138.6812450  86.7842820
 135.5736070 138.7044050  86.0438570 135.8752020 137.9495490  87.3210070
 137.6098280 142.4092740  85.3952230 138.5620030 142.3250760  85.3452470
 137.4626500 143.0734450  86.0686020 140.5007480 141.7886950  70.8944140
 140.2148990 141.3752090  70.0798320 140.3027030 142.7174660  70.7744660
 125.0631090 135.0606040  85.7803460 125.5670110 134.4813320  86.3519690
 124.3238510 135.3446270  86.3179830 131.9654710 137.7820230  69.3349750
 131.8605350 137.1672580  70.0611130 131.7978930 137.2586120  68.5512760
 132.1169030 136.4677030  85.3138980 131.3514700 137.0362030  85.2293650
 132.2984990 136.1753240  84.4207210 135.2057440 136.8440260  69.9391740
 134.6567540 137.2909560  70.5834480 135.8276700 136.3389510  70.4629410
 139.2592380 138.1982360  85.8714000 140.0001850 138.5358120  85.3681460
 138.4965060 138.3674420  85.3183770 127.0954170 133.2035630  86.6753530
 127.1359510 132.9049500  87.5838760 127.9499670 133.6043240  86.5161050
 130.8732560 135.8031180  71.8357040 131.2948980 135.6371050  72.6788430
 130.9983400 134.9931410  71.3412180 129.0359980 131.7827730  84.6428020
 128.5056440 131.2918680  84.0151360 129.7048050 132.2111930  84.1085950
 133.3860200 134.8268790  69.0834140 133.9065860 134.1117810  68.7175290
 134.0328600 135.4654660  69.3834650 137.9338040 136.2497190  84.4069210
 138.3479060 136.4042270  85.2559630 136.9989040 136.3752410  84.5694990
 138.4060210 133.5893350  86.4108360 138.9880980 132.8345670  86.3228840
 138.5821980 134.1200790  85.6339840 129.5232280 128.7490100  84.7225310
 129.4289150 128.1310850  83.9976180 128.9429670 129.4756390  84.4955220
 132.2893720 127.3063340  81.7552700 131.8411020 127.3287600  80.9098250
 131.6558920 126.9082360  82.3523000 132.6953270 136.2017670  82.3765140
 133.1141380 137.0450400  82.2041380 131.7761900 136.3389710  82.1471920
 135.0317170 133.9333850  83.7602980 135.1513380 133.3374990  84.4997820
 135.8911170 133.9703540  83.3404280 137.3705070 134.4871040  82.3365490
 136.8440290 135.0113660  81.7330630 137.7136410 135.1198430  82.9675220
 129.7691460 131.8764410  68.7815200 129.5680520 131.0131770  69.1428540
 129.5983510 131.7897770  67.8436800 130.5460690 142.5070680  83.4922870
 130.0081780 143.2316740  83.1731570 130.7994650 142.0301020  82.7020210
 131.7985940 130.4755200  85.0178800 132.3885630 130.1671050  85.7056620
 130.9806180 130.0034950  85.1738700 136.6179370 130.0921010  85.2511820
 135.9294890 129.4302550  85.1861810 137.3385390 129.6459280  85.6960280
 137.2479770 126.6872640  71.3102080 137.5282060 125.8440540  71.6661500
 136.4745500 126.9195750  71.8240830 128.5674260 128.9765030  68.7693080
 128.8700160 128.9832460  67.8612230 129.3068850 128.6262890  69.2660740
 133.4022900 143.7421890  83.7509520 133.3281600 144.6457030  84.0581890
 132.5001740 143.4233790  83.7231590 131.7859190 127.9199650  69.7549280
 131.4381190 127.2423640  69.1751730 131.9871960 127.4589160  70.5692670
 133.9508230 142.9080400  71.3735880 134.8459020 143.2465370  71.3954640
 133.9825860 142.1859810  70.7460160 127.5904390 138.2807450  69.6022880
 128.0279260 138.8237120  70.2580460 128.0752120 137.4554400  69.6119220
 124.8050190 141.0696480  77.0543140 125.1353200 140.2017540  76.8221780
 125.2341190 141.2755000  77.8848100 129.4012110 139.4005490  74.7145110
 129.1007650 139.2770460  75.6149020 129.2949600 138.5414080  74.3060840
 125.2940400 141.9367070  79.7924770 124.8571390 142.1167870  80.6248920
 125.8618080 142.6941690  79.6506490 140.9302580 141.4384070  84.0802080
 140.3304570 141.4976630  83.3366000 141.0596480 140.4989050  84.2098930
 142.1704030 139.1801890  69.4171790 141.3396990 139.2478540  69.8879020
 142.3475860 140.0706010  69.1138650 141.6260490 135.9249370  71.9205990
 142.3879400 136.4946020  72.0265680 141.6414860 135.3576570  72.6914300
 125.1264830 134.4487300  76.1513650 124.4713670 134.1798940  75.5073350
 125.9642780 134.3391780  75.7015630 142.6320460 136.7799470  76.7647920
 143.0029290 135.9966790  76.3583890 143.2722390 137.4688570  76.5865220
 139.6154220 138.1636050  82.1778240 138.8014060 138.5933210  82.4404030
 140.0228420 138.7754460  81.5647290 141.6779660 136.2183740  69.0778510
 141.9528500 137.1262620  68.9497730 141.4890400 136.1546270  70.0140500
 138.0755270 129.2428590  70.3732140 138.4940150 129.0559570  69.5328800
 137.7691330 128.3907640  70.6835070 141.5745000 134.1552730  74.0707940
 141.1988600 133.3880660  73.6389230 140.8448120 134.5375430  74.5582870
 126.1640760 134.8339870  80.6916990 126.5313800 134.7467270  81.5713010
 125.5951580 134.0706420  80.5923850 140.9644620 133.3024250  83.7047460
 140.7330710 133.0737000  82.8045410 141.2249170 134.2223800  83.6592350
 125.7156760 131.7448960  84.5975410 124.8212810 131.7115720  84.9369120
 126.2554310 131.9435750  85.3626660 139.4032690 128.5280680  86.4827160
 140.2802870 128.5364080  86.8661160 139.4153530 127.7911520  85.8719510
 124.3402910 131.6586230  72.0938980 123.4366990 131.9216430  71.9190640
 124.8243530 131.9297400  71.3138940 140.8495960 132.3810220  77.3715180
 141.3733440 131.8872870  76.7405350 141.4355380 132.5160580  78.1162750
 141.0285680 132.4650090  80.8934730 140.0788390 132.4313630  81.0079720
 141.2098690 133.3750200  80.6584500 126.8830120 130.7151770  70.0033360
 127.5921820 130.2934990  69.5180640 126.1670060 130.7827000  69.3716710
 126.5304280 126.7691100  69.0436010 127.2532410 127.3100040  69.3617230
 126.8028800 126.4954520  68.1677550 140.3395930 131.6383570  73.3107590
 140.8355050 131.4054440  74.0956470 140.1412000 130.7995410  72.8945230
 126.2196470 126.0197290  78.9458630 126.8672660 125.4694670  78.5053790
 126.6398310 126.2740440  79.7674440 141.7683090 130.2744520  75.8445270
 141.6582370 130.1200560  76.7827540 142.5290680 129.7465460  75.6020680
 140.1148810 126.2138650  82.3028270 140.7521030 126.8272790  82.6687460
 140.2623700 126.2499310  81.3577500 142.6573360 128.1052440  69.0851410
 143.5822670 127.9733620  68.8769700 142.6349150 128.1845260  70.0387860
 142.7311850 128.8763100  71.7108120 141.9363350 128.8108220  72.2401030
 142.9355130 129.8113740  71.6993470 139.6730270 142.9154650  75.7046510
 140.2689340 142.5939220  75.0280930 139.9308420 142.4426470  76.4959780
 125.9728470 126.1752960  81.6883950 125.6243290 126.6316780  82.4542130
 125.6416170 125.2810090  81.7706380 127.5792840 139.3472560  85.8537140
 127.5362470 138.9765470  86.7351600 127.7103850 140.2850130  85.9938960
 131.2798870 140.9032150  81.4546860 131.0390230 141.1706710  80.5677380
 132.2201510 141.0737880  81.5097720 133.4853290 127.3664840  85.2103370
 133.4242180 127.9586670  85.9598780 134.4253670 127.2590800  85.0653630
 136.1227850 127.0234900  84.8495660 136.7368260 127.3414190  84.1876740
 136.6677410 126.5383490  85.4691520 142.5403030 142.9226530  82.2557500
 142.0461310 143.3195400  81.5384630 141.9316320 142.2975740  82.6494780
 126.6449110 125.7029160  84.9634720 127.1932100 125.5217210  84.2000830
 126.7104420 124.9123270  85.4991030 127.4180870 142.2934810  82.9734920
 126.8241190 142.1619510  83.7124960 127.4104710 141.4572950  82.5077020
 136.8635890 125.5867040  81.1764950 135.9895730 125.9202150  80.9737880
 136.7546640 125.1140220  82.0016820 137.7707870 127.7937910  82.5606670
 137.4421230 126.9789670  82.1808400 138.7190170 127.7507720  82.4372360
 140.2242480 143.5649950  79.5344240 139.7645450 144.3165760  79.1602260
 139.5954940 142.8456420  79.4759040 127.0493100 139.6593190  81.9242960
 126.3227160 139.0398480  81.8568910 127.1102250 140.0533800  81.0541040
 130.6538200 141.8738190  78.7092370 131.1703220 141.2625550  78.1840630
 131.3035580 142.3766970  79.2003380 133.3933700 142.7646680  79.5361350
 133.6811510 142.5100980  78.6594360 133.9056920 142.2124040  80.1266920
 134.6110710 126.5036880  80.1157860 133.8282500 126.9782380  80.3954620
 134.3173640 125.5991710  80.0071040 139.1631780 127.2059980  78.1606950
 139.6039870 127.1505080  77.3128550 138.8939370 128.1217990  78.2317130
 141.0270350 126.8375220  76.1715770 140.9658750 125.8936440  76.0246790
 141.8062380 126.9455310  76.7169230 125.3323100 142.9767580  75.1339720
 125.1645140 142.3438260  75.8321610 124.4657610 143.1826980  74.7833910
 125.9551120 126.8084360  72.6371580 126.7130480 126.9213240  72.0635610
 125.4928290 127.6453560  72.5915010 132.4964930 128.9223630  75.6273890
 131.6839440 128.5480520  75.2869770 133.0006570 128.1668710  75.9295080
 136.9989910 125.5866080  76.8656960 137.6019280 126.1586290  77.3405480
 136.2582900 126.1505520  76.6430860 140.1424510 125.9887640  72.1397240
 140.3375140 126.8871090  72.4064670 139.3554380 125.7574720  72.6330190
 126.9385800 141.6700810  72.5789860 126.4133420 142.0508840  71.8751820
 126.8630380 142.2951580  73.2999570 128.3276270 127.3348410  71.1773550
 128.8569030 126.5478210  71.0481500 128.9604590 128.0139600  71.4109080
 130.5214110 127.0723550  74.2318940 129.8916850 126.3710860  74.3989070
 129.9819250 127.8327680  74.0152100 133.4606060 143.6862780  86.9029550
 134.3873370 143.4507050  86.9465510 133.4456490 144.5134780  86.4215580
 141.6951120 143.2288350  73.9003800 141.8703310 142.5426090  73.2564720
 140.9972690 143.7535400  73.5080470 130.6469670 126.3507530  86.6671430
 130.3653940 126.8541130  85.9032250 131.0289370 125.5529280  86.3013560
 129.5378770 143.6183190  71.4539110 130.2697590 143.3342470  70.9063000
 129.7972440 143.3796470  72.3438490 128.6993560 139.7347920  71.4585440
 128.0702440 140.2033020  72.0071270 128.8141390 138.8897140  71.8931630
 137.2485130 125.7661110  87.2451900 137.1350580 126.0855720  88.1403420
 138.0654870 126.1673620  86.9489180 140.0283620 142.9132640  86.7270590
 140.8208940 142.4181870  86.5196550 140.3216770 143.5922780  87.3346200
 136.1543280 133.7853580  57.6086640 136.0737330 132.8708190  57.3378350
 135.7407700 134.2820650  56.9026350 134.2861320 135.5632600  59.4895910
 133.5103420 135.0833040  59.7794480 134.9374250 134.8838250  59.3152070
 128.3027150 135.8752410  60.3671670 127.4712030 135.6201120  60.7668180
 128.9108130 135.9463180  61.1029590 138.3068750 139.9692790  58.2695040
 137.8450280 139.1980030  58.5982210 139.1194300 139.9958860  58.7747490
 128.2828410 139.9092500  60.5629690 128.5856450 139.0190240  60.3839910
 129.0272000 140.4662720  60.3351940 126.7119100 130.8354300  54.1514060
 125.8235800 131.1770270  54.0493940 126.9960290 130.6354620  53.2594890
 124.6752110 133.4359950  60.0353760 125.2468220 132.6682150  60.0357400
 124.6753650 133.7348710  59.1260370 134.5332060 142.2550800  57.8899030
 133.9143500 142.7108300  57.3193470 135.3883840 142.4102260  57.4888730
 133.7270310 138.2389790  59.4966070 133.6578590 137.2979730  59.3355200
 134.4890170 138.3291200  60.0688640 125.9176980 128.8444310  61.8222690
 125.7379820 127.9470060  62.1025450 125.5157060 129.3916180  62.4969640
 134.7575480 131.0460170  59.7235000 135.1340300 130.1732050  59.6108670
 134.6594990 131.3818870  58.8325440 128.8880490 129.4185800  55.1852440
 128.9947240 130.3189530  55.4921200 127.9772850 129.3703770  54.8947090
 138.5399600 128.5410610  56.6563340 139.3609220 128.0507180  56.6988820
 138.5733680 129.1308270  57.4095180 126.5363650 131.3404810  60.4305030
 127.2173760 131.6043180  61.0492430 126.2211700 130.5005680  60.7643040
 130.7288220 132.3872170  59.5177620 131.2366440 132.8853140  60.1582640
 131.2601460 131.6107370  59.3416980 142.8299150 130.5577360  63.2206970
 142.1251320 130.9459070  62.7022080 143.0957070 131.2527650  63.8227900
 129.0124320 127.0270730  63.7841040 129.0142760 127.5443120  62.9786940
 128.1828630 126.5500910  63.7610970 135.3995410 137.1390040  55.2830940
 134.7812680 137.6039490  54.7193660 135.9118660 137.8317520  55.7000450
 130.2627170 136.6665910  61.9614540 129.9296550 137.2934830  62.6035610
 130.4393850 137.1927790  61.1816210 138.7761080 130.4810990  59.4290880
 138.0716650 130.7695880  60.0093990 139.1373240 131.2911100  59.0690440
 128.6939650 128.7380690  61.7911490 129.0356460 129.5822740  61.4965360
 127.7555460 128.8864430  61.9076830 129.4746270 138.6346710  63.7763720
 130.0920270 139.3097790  63.4948170 128.6139390 139.0434690  63.6851220
 124.7678610 137.8246570  52.6570570 124.3906590 138.3133670  51.9255470
 125.0251680 138.4971850  53.2877100 140.3923860 140.0986120  61.6918360
 139.7087380 140.7685230  61.6835030 140.9318150 140.2966770  60.9263220
 141.8448000 129.9265780  59.8200090 140.8972910 129.9604760  59.9515520
 142.1697990 130.7404730  60.2049450 132.3767540 126.2262960  58.1156080
 132.6842520 125.6709850  57.3991580 131.4468240 126.3607420  57.9329070
 137.9282600 141.9430250  60.4063540 137.9409760 141.5392540  59.5385800
 137.3757820 142.7177540  60.3024970 139.2228020 138.6646470  55.4953710
 139.1124350 137.7220800  55.6203130 139.2196270 139.0262110  56.3816470
 137.3268040 136.8460090  61.7346150 137.7436830 136.6320200  60.8999610
 138.0507860 137.1032880  62.3054770 134.7648300 134.2911790  54.8516200
 133.8377580 134.2249170  55.0804670 134.9173120 135.2291920  54.7371440
 134.7517380 130.5628790  51.8483360 133.8121050 130.7242750  51.9335820
 135.0700640 131.2814470  51.3019350 141.2730140 135.2447310  61.8262390
 140.4448770 135.3140400  61.3512520 141.8680620 135.8301620  61.3578220
 138.7945590 135.8532090  55.3551450 138.1758010 135.5151640  54.7077750
 138.7770040 135.2091850  56.0630640 138.2372150 132.0316630  62.7717260
 137.8243330 132.8570340  63.0257250 137.5048100 131.4461670  62.5793620
 130.3704940 134.8176530  57.6335930 129.9661940 134.1053780  57.1381830
 130.4568060 134.4729770  58.5223970 130.8386640 138.5044090  59.7975140
 130.5414930 137.8989560  59.1182920 131.7886460 138.5421400  59.6864500
 129.0833560 131.5919740  61.4134970 129.6348150 131.7015080  60.6388220
 129.5977070 131.9657340  62.1290200 138.9272250 142.0775960  63.4598240
 138.4502810 142.8848150  63.2670850 138.2434040 141.4254290  63.6124450
 129.9305070 138.2425780  66.4482940 129.0333600 138.4665750  66.6956340
 129.9557940 138.3660720  65.4994340 136.9710290 135.0918900  52.3624200
 137.4103570 134.2541330  52.2162020 137.6838710 135.7248300  52.4488340
 128.7576290 135.1139100  65.0240310 128.6184060 135.9861900  65.3927710
 127.8757650 134.7711910  64.8788250 135.0805670 140.0314970  56.3305440
 135.5201580 140.7739300  55.9160830 135.0192560 140.2741540  57.2544400
 130.5556640 141.0560800  67.2325460 130.5272070 141.4603750  66.3653890
 130.3921610 140.1271160  67.0697060 140.5527430 126.3461710  50.6765240
 140.2400090 126.4388540  51.5764310 141.3139900 126.9242740  50.6262670
 127.0709570 133.7121510  55.1342580 126.9507170 134.4383600  54.5223850
 126.7610460 132.9424420  54.6570490 142.5071460 141.8387900  68.5289630
 142.9831180 142.3170790  69.2078710 143.1278620 141.7705390  67.8035130
 124.7094940 136.8836650  60.9411220 124.7875360 137.0185420  59.9966940
 125.3236620 136.1752540  61.1339340 125.9542570 138.5836840  57.3517400
 125.5470650 138.7251430  56.4971000 126.8455580 138.2997000  57.1488610
 141.9104710 139.0300750  65.6889640 142.0367770 138.7912630  64.7706820
 141.9526090 138.1985290  66.1611720 135.7721450 142.7328750  64.2584450
 136.2866120 142.6436760  65.0606880 134.9290530 143.0788450  64.5512360
 137.7475850 143.0184090  53.6868450 137.5876990 142.7287030  54.5850280
 137.5822560 142.2424220  53.1513680 130.2264230 142.7982620  55.4640070
 130.0506710 141.8818160  55.2507870 129.3719970 143.1569910  55.7037870
 137.4501980 140.5271650  52.2466450 136.7567140 140.5248940  51.5868730
 138.1924840 140.1030970  51.8160620 137.0151910 142.1534360  56.3214940
 137.4708860 141.3723740  56.6353560 137.3544430 142.8641180  56.8656120
 141.7628720 131.0833210  66.6539380 141.1472990 131.5912880  66.1254840
 141.4425140 130.1831540  66.5965320 124.7654460 137.9250820  63.4805680
 124.9285500 137.4556180  62.6625050 125.2306910 137.4174380  64.1454520
 129.5373230 127.0556580  58.5166250 129.0941380 127.8366120  58.1850770
 130.0958220 127.3786470  59.2237190 133.8243040 129.9225100  64.1201570
 133.3622410 130.1308120  64.9321510 133.4221150 129.1084450  63.8172240
 138.8247550 131.1434050  65.2498230 137.9741140 130.8439800  65.5707300
 138.6649340 131.3876060  64.3382050 135.9197260 132.6435800  67.3497020
 136.2450670 131.8099550  67.0099250 136.7077590 133.1664320  67.4975350
 132.6532050 126.6767280  53.3972080 132.0286230 126.6727150  54.1225390
 132.5662170 125.8098240  53.0008050 131.5749130 127.6003910  60.3755850
 131.8721460 128.5066740  60.2947870 132.1234690 127.1122690  59.7615420
 129.3287450 132.1790150  56.2447500 129.1028370 131.9627320  57.1494120
 128.5479980 132.6118610  55.8993470 136.5585210 132.1853520  54.8438150
 135.9594100 132.9089320  54.6601770 137.1064820 132.1230300  54.0614600
 131.7686660 133.0775730  66.9107770 131.6730260 132.1370460  66.7608170
 132.6118640 133.2990800  66.5155840 135.1650080 130.8217060  56.8741430
 135.5579650 131.1389260  56.0610120 135.5266930 129.9428940  56.9885950
 126.8997200 129.4889400  65.0641550 126.5060590 130.3364610  65.2714330
 126.2115600 128.8515770  65.2550190 133.4742250 129.5724370  68.1338290
 132.7840570 129.3796570  68.7684380 134.2174550 129.8559010  68.6662590
 124.2014250 127.4117860  59.0971630 123.9127300 127.9820720  59.8096610
 124.9460010 126.9322310  59.4602860 124.3884480 131.3537980  50.3074350
 124.3059150 132.2968740  50.4489340 124.0367540 131.2112890  49.4286700
 135.7505220 133.4122810  60.9692210 135.0186340 133.9209620  61.3182310
 135.3529560 132.5952790  60.6680990 132.1882610 130.0877010  59.3744700
 132.1918670 129.6466960  58.5249240 133.0833730 130.4094340  59.4816520
 128.0384990 129.9703500  58.3338910 127.6985040 130.4478730  59.0905960
 127.2762310 129.5168620  57.9740010 132.2502760 131.0889090  52.3651460
 132.3715580 131.0475570  53.3137280 131.8651270 131.9513240  52.2098190
 136.2131130 128.8656490  60.3815150 136.2303870 129.3165140  61.2257000
 135.9646710 127.9662130  60.5948590 131.2624260 133.3990230  51.7634760
 130.6941160 132.9508480  51.1370670 131.9713260 133.7583010  51.2299910
 139.6401880 126.2788670  66.2201530 139.9647650 125.5478330  66.7459510
 139.6758390 125.9602310  65.3182520 126.3393440 137.3002250  65.6401490
 125.9548230 136.6595920  66.2384450 126.6505630 138.0038370  66.2096220
 132.4890580 134.1478790  61.1210110 132.8560710 133.6737360  61.8671450
 132.2995640 135.0220360  61.4618450 125.3531070 128.8922480  57.2503580
 125.0677990 128.5278150  58.0882200 125.2909930 128.1602940  56.6366720
 130.2789950 133.1887430  63.4394320 129.9747020 134.0679410  63.6644680
 131.2336410 133.2487220  63.4751760 128.8071740 137.3948420  54.0361170
 128.0334000 136.8546040  53.8759890 129.5366370 136.8755030  53.6978930
 139.5659720 136.3913780  59.8287560 140.2858840 136.8869070  59.4383670
 139.3641540 135.7131670  59.1841430 135.0269660 127.7851740  53.9716950
 134.2134270 127.2864910  53.8962260 134.8331610 128.6249990  53.5553300
 134.9478520 136.4622840  65.7156560 134.8815830 135.5418510  65.4614150
 134.3183660 136.5598280  66.4301200 137.7418050 132.1571390  52.2679110
 138.6297670 132.4688620  52.0930450 137.7123140 131.2843640  51.8759690
 128.8509140 137.0628800  57.6739980 129.3687810 136.2597060  57.6196870
 128.3993160 137.0007940  58.5156810 133.7378640 138.3295080  52.9467280
 134.0794340 139.0737310  52.4510600 132.9091350 138.6426200  53.3092110
 126.3353680 134.0290170  64.5865680 125.9768620 134.6944020  65.1739020
 126.0408240 133.1973720  64.9578300 129.5366800 134.4874410  67.4705230
 129.2366940 134.6331590  66.5733050 130.3078040 133.9279700  67.3778620
 134.8795250 139.2843410  65.4660360 134.8939790 138.3524370  65.2479270
 134.1720350 139.3703170  66.1050130 140.0132320 133.4683230  51.7358970
 139.9296040 133.8997450  50.8855410 140.7326510 133.9281580  52.1685790
 141.0906460 135.9250750  64.8128940 140.3654650 136.5179530  64.6158330
 141.6181920 135.9174290  64.0142310 141.0419570 140.3225490  54.4641100
 140.3995730 139.6681110  54.7384820 140.6550230 140.7280580  53.6881770
 136.6206050 137.6510920  58.3112790 136.9729870 137.0539050  57.6514160
 135.7368380 137.3255150  58.4821040 132.7069330 138.4108610  55.7183200
 133.3940460 138.9577820  56.0990790 131.9201750 138.9549340  55.7532810
 124.8461730 134.0281430  51.2100280 125.7156580 134.3106230  51.4936200
 124.3552050 134.8417300  51.0949090 132.0096540 135.4154640  55.3308560
 132.4659320 136.2259890  55.5568750 131.6584750 135.0977780  56.1627050
 134.3129150 140.9260980  62.5600860 134.9571370 141.1320360  63.2374280
 134.6758590 140.1649380  62.1071710 127.9108320 125.7592290  55.8031080
 127.7822950 125.7510190  56.7516000 127.0870340 126.0975380  55.4522090
 135.5861230 138.9293330  61.2778310 136.2283460 138.2286490  61.3910480
 136.1110580 139.7091770  61.0975200 139.4316950 139.2141950  51.0017450
 139.2054530 138.4972390  51.5942090 139.0413150 138.9654390  50.1639200
 137.3598850 139.7288230  64.4814370 137.6955090 140.3154920  65.1592290
 136.4399190 139.5980940  64.7112160 125.2132980 143.2408810  51.7761910
 125.5730620 143.8398150  51.1219180 125.0725320 143.7868700  52.5496940
 124.9102250 127.5183410  65.2637780 124.1960770 127.7180330  65.8690390
 125.3297290 126.7422980  65.6352580 139.0133200 137.1313890  52.6631610
 138.7254900 137.5926580  53.4509490 139.8085370 136.6711660  52.9315830
 125.1974840 141.5063670  66.2504310 125.3065960 140.5658410  66.1099700
 124.5455400 141.7718420  65.6018040 133.1887430 139.7779560  67.6502430
 132.8684300 139.0588800  68.1948120 132.5145790 140.4534630  67.7238490
 131.2301600 140.6240010  52.5935580 131.2211700 141.3569700  51.9780090
 130.3099960 140.3771590  52.6862540 126.8308240 135.8454900  53.3382340
 126.2236190 136.5853800  53.3477640 127.3057590 135.9354260  52.5120540
 136.4041030 130.0105720  63.0139230 136.7721850 129.1900930  63.3418800
 135.5439230 130.0707610  63.4294880 139.7703060 128.9662660  53.8226790
 139.1416220 129.0708330  53.1085020 139.2754980 129.1859440  54.6120670
 134.2161200 140.6868250  51.2560770 134.3173180 140.4832240  50.3262750
 133.3162940 140.4326530  51.4608550 131.7387090 131.2448610  55.2384670
 131.0303240 131.7134950  55.6798280 132.0231570 130.5870620  55.8729860
 133.3643020 132.6645310  63.2377200 133.8628270 133.1391130  63.9029050
 133.5065970 131.7408830  63.4447230 135.7702520 127.9699270  56.6780460
 135.6470300 127.9885400  55.7289970 136.7187080 128.0178210  56.7978860
 132.8579310 143.2054570  55.9508440 133.1120810 143.1675960  55.0287810
 131.9091790 143.0787900  55.9436690 129.9422110 129.5533690  52.6135380
 130.7912640 129.9903840  52.5475570 129.5753380 129.8653950  53.4407440
 140.5709880 128.8813270  64.0805590 140.0683480 129.6218670  64.4199400
 141.3866540 129.2697270  63.7642380 138.8631890 134.1246450  57.5266950
 137.9222030 134.1396680  57.7014640 139.1775960 133.3382410  57.9727250
 128.8413530 135.8066050  51.0870910 129.6076800 135.6947410  51.6496340
 128.9188220 135.1104020  50.4347680 127.5360290 133.2391120  51.7703800
 127.6163880 132.2918630  51.8821200 128.4280040 133.5698000  51.8764460
 140.8657470 141.2955300  59.2021210 140.9904890 142.1186470  59.6745020
 141.7323030 141.0846030  58.8545360 128.3375000 143.3886510  58.8738340
 129.0737480 142.8401970  59.1446910 128.7215920 144.2542520  58.7344330
 125.2220480 139.4560080  54.7479850 124.2960260 139.6981220  54.7385260
 125.6876910 140.2834340  54.6264600 127.3433280 142.5732580  68.0623920
 128.1446010 142.8944630  68.4759320 126.8285100 142.2128160  68.7843830
 131.4477310 142.5616820  50.6963910 132.2405920 142.8505650  50.2445700
 130.9281660 142.1308990  50.0176390 136.1797910 138.6812450  68.0099330
 135.5736070 138.7044050  67.2695080 135.8752020 137.9495490  68.5466580
 137.6098280 142.4092740  66.6208740 138.5620030 142.3250760  66.5708980
 137.4626500 143.0734450  67.2942530 140.5007480 141.7886950  52.1200650
 140.2148990 141.3752090  51.3054830 140.3027030 142.7174660  52.0001170
 125.0631090 135.0606040  67.0059970 125.5670110 134.4813320  67.5776200
 124.3238510 135.3446270  67.5436340 131.9654710 137.7820230  50.5606260
 131.8605350 137.1672580  51.2867640 131.7978930 137.2586120  49.7769270
 132.1169030 136.4677030  66.5395490 131.3514700 137.0362030  66.4550160
 132.2984990 136.1753240  65.6463720 135.2057440 136.8440260  51.1648250
 134.6567540 137.2909560  51.8090990 135.8276700 136.3389510  51.6885920
 139.2592380 138.1982360  67.0970510 140.0001850 138.5358120  66.5937970
 138.4965060 138.3674420  66.5440280 127.0954170 133.2035630  67.9010040
 127.1359510 132.9049500  68.8095270 127.9499670 133.6043240  67.7417560
 130.8732560 135.8031180  53.0613550 131.2948980 135.6371050  53.9044940
 130.9983400 134.9931410  52.5668690 129.0359980 131.7827730  65.8684530
 128.5056440 131.2918680  65.2407870 129.7048050 132.2111930  65.3342460
 133.3860200 134.8268790  50.3090650 133.9065860 134.1117810  49.9431800
 134.0328600 135.4654660  50.6091160 137.9338040 136.2497190  65.6325720
 138.3479060 136.4042270  66.4816140 136.9989040 136.3752410  65.7951500
 138.4060210 133.5893350  67.6364870 138.9880980 132.8345670  67.5485350
 138.5821980 134.1200790  66.8596350 129.5232280 128.7490100  65.9481820
 129.4289150 128.1310850  65.2232690 128.9429670 129.4756390  65.7211730
 132.2893720 127.3063340  62.9809210 131.8411020 127.3287600  62.1354760
 131.6558920 126.9082360  63.5779510 132.6953270 136.2017670  63.6021650
 133.1141380 137.0450400  63.4297890 131.7761900 136.3389710  63.3728430
 135.0317170 133.9333850  64.9859490 135.1513380 133.3374990  65.7254330
 135.8911170 133.9703540  64.5660790 137.3705070 134.4871040  63.5622000
 136.8440290 135.0113660  62.9587140 137.7136410 135.1198430  64.1931730
 129.7691460 131.8764410  50.0071710 129.5680520 131.0131770  50.3685050
 129.5983510 131.7897770  49.0693310 130.5460690 142.5070680  64.7179380
 130.0081780 143.2316740  64.3988080 130.7994650 142.0301020  63.9276720
 131.7985940 130.4755200  66.2435310 132.3885630 130.1671050  66.9313130
 130.9806180 130.0034950  66.3995210 136.6179370 130.0921010  66.4768330
 135.9294890 129.4302550  66.4118320 137.3385390 129.6459280  66.9216790
 137.2479770 126.6872640  52.5358590 137.5282060 125.8440540  52.8918010
 136.4745500 126.9195750  53.0497340 128.5674260 128.9765030  49.9949590
 128.8700160 128.9832460  49.0868740 129.3068850 128.6262890  50.4917250
 133.4022900 143.7421890  64.9766030 133.3281600 144.6457030  65.2838400
 132.5001740 143.4233790  64.9488100 131.7859190 127.9199650  50.9805790
 131.4381190 127.2423640  50.4008240 131.9871960 127.4589160  51.7949180
 133.9508230 142.9080400  52.5992390 134.8459020 143.2465370  52.6211150
 133.9825860 142.1859810  51.9716670 127.5904390 138.2807450  50.8279390
 128.0279260 138.8237120  51.4836970 128.0752120 137.4554400  50.8375730
 124.8050190 141.0696480  58.2799650 125.1353200 140.2017540  58.0478290
 125.2341190 141.2755000  59.1104610 129.4012110 139.4005490  55.9401620
 129.1007650 139.2770460  56.8405530 129.2949600 138.5414080  55.5317350
 125.2940400 141.9367070  61.0181280 124.8571390 142.1167870  61.8505430
 125.8618080 142.6941690  60.8763000 140.9302580 141.4384070  65.3058590
 140.3304570 141.4976630  64.5622510 141.0596480 140.4989050  65.4355440
 142.1704030 139.1801890  50.6428300 141.3396990 139.2478540  51.1135530
 142.3475860 140.0706010  50.3395160 141.6260490 135.9249370  53.1462500
 142.3879400 136.4946020  53.2522190 141.6414860 135.3576570  53.9170810
 125.1264830 134.4487300  57.3770160 124.4713670 134.1798940  56.7329860
 125.9642780 134.3391780  56.9272140 142.6320460 136.7799470  57.9904430
 143.0029290 135.9966790  57.5840400 143.2722390 137.4688570  57.8121730
 139.6154220 138.1636050  63.4034750 138.8014060 138.5933210  63.6660540
 140.0228420 138.7754460  62.7903800 141.6779660 136.2183740  50.3035020
 141.9528500 137.1262620  50.1754240 141.4890400 136.1546270  51.2397010
 138.0755270 129.2428590  51.5988650 138.4940150 129.0559570  50.7585310
 137.7691330 128.3907640  51.9091580 141.5745000 134.1552730  55.2964450
 141.1988600 133.3880660  54.8645740 140.8448120 134.5375430  55.7839380
 126.1640760 134.8339870  61.9173500 126.5313800 134.7467270  62.7969520
 125.5951580 134.0706420  61.8180360 140.9644620 133.3024250  64.9303970
 140.7330710 133.0737000  64.0301920 141.2249170 134.2223800  64.8848860
 125.7156760 131.7448960  65.8231920 124.8212810 131.7115720  66.1625630
 126.2554310 131.9435750  66.5883170 139.4032690 128.5280680  67.7083670
 140.2802870 128.5364080  68.0917670 139.4153530 127.7911520  67.0976020
 124.3402910 131.6586230  53.3195490 123.4366990 131.9216430  53.1447150
 124.8243530 131.9297400  52.5395450 140.8495960 132.3810220  58.5971690
 141.3733440 131.8872870  57.9661860 141.4355380 132.5160580  59.3419260
 141.0285680 132.4650090  62.1191240 140.0788390 132.4313630  62.2336230
 141.2098690 133.3750200  61.8841010 126.8830120 130.7151770  51.2289870
 127.5921820 130.2934990  50.7437150 126.1670060 130.7827000  50.5973220
 126.5304280 126.7691100  50.2692520 127.2532410 127.3100040  50.5873740
 126.8028800 126.4954520  49.3934060 140.3395930 131.6383570  54.5364100
 140.8355050 131.4054440  55.3212980 140.1412000 130.7995410  54.1201740
 126.2196470 126.0197290  60.1715140 126.8672660 125.4694670  59.7310300
 126.6398310 126.2740440  60.9930950 141.7683090 130.2744520  57.0701780
 141.6582370 130.1200560  58.0084050 142.5290680 129.7465460  56.8277190
 140.1148810 126.2138650  63.5284780 140.7521030 126.8272790  63.8943970
 140.2623700 126.2499310  62.5834010 142.6573360 128.1052440  50.3107920
 143.5822670 127.9733620  50.1026210 142.6349150 128.1845260  51.2644370
 142.7311850 128.8763100  52.9364630 141.9363350 128.8108220  53.4657540
 142.9355130 129.8113740  52.9249980 139.6730270 142.9154650  56.9303020
 140.2689340 142.5939220  56.2537440 139.9308420 142.4426470  57.7216290
 125.9728470 126.1752960  62.9140460 125.6243290 126.6316780  63.6798640
 125.6416170 125.2810090  62.9962890 127.5792840 139.3472560  67.0793650
 127.5362470 138.9765470  67.9608110 127.7103850 140.2850130  67.2195470
 131.2798870 140.9032150  62.6803370 131.0390230 141.1706710  61.7933890
 132.2201510 141.0737880  62.7354230 133.4853290 127.3664840  66.4359880
 133.4242180 127.9586670  67.1855290 134.4253670 127.2590800  66.2910140
 136.1227850 127.0234900  66.0752170 136.7368260 127.3414190  65.4133250
 136.6677410 126.5383490  66.6948030 142.5403030 142.9226530  63.4814010
 142.0461310 143.3195400  62.7641140 141.9316320 142.2975740  63.8751290
 126.6449110 125.7029160  66.1891230 127.1932100 125.5217210  65.4257340
 126.7104420 124.9123270  66.7247540 127.4180870 142.2934810  64.1991430
 126.8241190 142.1619510  64.9381470 127.4104710 141.4572950  63.7333530
 136.8635890 125.5867040  62.4021460 135.9895730 125.9202150  62.1994390
 136.7546640 125.1140220  63.2273330 137.7707870 127.7937910  63.7863180
 137.4421230 126.9789670  63.4064910 138.7190170 127.7507720  63.6628870
 140.2242480 143.5649950  60.7600750 139.7645450 144.3165760  60.3858770
 139.5954940 142.8456420  60.7015550 127.0493100 139.6593190  63.1499470
 126.3227160 139.0398480  63.0825420 127.1102250 140.0533800  62.2797550
 130.6538200 141.8738190  59.9348880 131.1703220 141.2625550  59.4097140
 131.3035580 142.3766970  60.4259890 133.3933700 142.7646680  60.7617860
 133.6811510 142.5100980  59.8850870 133.9056920 142.2124040  61.3523430
 134.6110710 126.5036880  61.3414370 133.8282500 126.9782380  61.6211130
 134.3173640 125.5991710  61.2327550 139.1631780 127.2059980  59.3863460
 139.6039870 127.1505080  58.5385060 138.8939370 128.1217990  59.4573640
 141.0270350 126.8375220  57.3972280 140.9658750 125.8936440  57.2503300
 141.8062380 126.9455310  57.9425740 125.3323100 142.9767580  56.3596230
 125.1645140 142.3438260  57.0578120 124.4657610 143.1826980  56.0090420
 125.9551120 126.8084360  53.8628090 126.7130480 126.9213240  53.2892120
 125.4928290 127.6453560  53.8171520 132.4964930 128.9223630  56.8530400
 131.6839440 128.5480520  56.5126280 133.0006570 128.1668710  57.1551590
 136.9989910 125.5866080  58.0913470 137.6019280 126.1586290  58.5661990
 136.2582900 126.1505520  57.8687370 140.1424510 125.9887640  53.3653750
 140.3375140 126.8871090  53.6321180 139.3554380 125.7574720  53.8586700
 126.9385800 141.6700810  53.8046370 126.4133420 142.0508840  53.1008330
 126.8630380 142.2951580  54.5256080 128.3276270 127.3348410  52.4030060
 128.8569030 126.5478210  52.2738010 128.9604590 128.0139600  52.6365590
 130.5214110 127.0723550  55.4575450 129.8916850 126.3710860  55.6245580
 129.9819250 127.8327680  55.2408610 133.4606060 143.6862780  68.1286060
 134.3873370 143.4507050  68.1722020 133.4456490 144.5134780  67.6472090
 141.6951120 143.2288350  55.1260310 141.8703310 142.5426090  54.4821230
 140.9972690 143.7535400  54.7336980 130.6469670 126.3507530  67.8927940
 130.3653940 126.8541130  67.1288760 131.0289370 125.5529280  67.5270070
 129.5378770 143.6183190  52.6795620 130.2697590 143.3342470  52.1319510
 129.7972440 143.3796470  53.5695000 128.6993560 139.7347920  52.6841950
 128.0702440 140.2033020  53.2327780 128.8141390 138.8897140  53.1188140
 137.2485130 125.7661110  68.4708410 137.1350580 126.0855720  69.3659930
 138.0654870 126.1673620  68.1745690 140.0283620 142.9132640  67.9527100
 140.8208940 142.4181870  67.7453060 140.3216770 143.5922780  68.5602710
 136.1543280 133.7853580  38.8343150 136.0737330 132.8708190  38.5634860
 135.7407700 134.2820650  38.1282860 134.2861320 135.5632600  40.7152420
 133.5103420 135.0833040  41.0050990 134.9374250 134.8838250  40.5408580
 128.3027150 135.8752410  41.5928180 127.4712030 135.6201120  41.9924690
 128.9108130 135.9463180  42.3286100 138.3068750 139.9692790  39.4951550
 137.8450280 139.1980030  39.8238720 139.1194300 139.9958860  40.0004000
 128.2828410 139.9092500  41.7886200 128.5856450 139.0190240  41.6096420
 129.0272000 140.4662720  41.5608450 126.7119100 130.8354300  35.3770570
 125.8235800 131.1770270  35.2750450 126.9960290 130.6354620  34.4851400
 124.6752110 133.4359950  41.2610270 125.2468220 132.6682150  41.2613910
 124.6753650 133.7348710  40.3516880 134.5332060 142.2550800  39.1155540
 133.9143500 142.7108300  38.5449980 135.3883840 142.4102260  38.7145240
 133.7270310 138.2389790  40.7222580 133.6578590 137.2979730  40.5611710
 134.4890170 138.3291200  41.2945150 125.9176980 128.8444310  43.0479200
 125.7379820 127.9470060  43.3281960 125.5157060 129.3916180  43.7226150
 134.7575480 131.0460170  40.9491510 135.1340300 130.1732050  40.8365180
 134.6594990 131.3818870  40.0581950 128.8880490 129.4185800  36.4108950
 128.9947240 130.3189530  36.7177710 127.9772850 129.3703770  36.1203600
 138.5399600 128.5410610  37.8819850 139.3609220 128.0507180  37.9245330
 138.5733680 129.1308270  38.6351690 126.5363650 131.3404810  41.6561540
 127.2173760 131.6043180  42.2748940 126.2211700 130.5005680  41.9899550
 130.7288220 132.3872170  40.7434130 131.2366440 132.8853140  41.3839150
 131.2601460 131.6107370  40.5673490 142.8299150 130.5577360  44.4463480
 142.1251320 130.9459070  43.9278590 143.0957070 131.2527650  45.0484410
 129.0124320 127.0270730  45.0097550 129.0142760 127.5443120  44.2043450
 128.1828630 126.5500910  44.9867480 135.3995410 137.1390040  36.5087450
 134.7812680 137.6039490  35.9450170 135.9118660 137.8317520  36.9256960
 130.2627170 136.6665910  43.1871050 129.9296550 137.2934830  43.8292120
 130.4393850 137.1927790  42.4072720 138.7761080 130.4810990  40.6547390
 138.0716650 130.7695880  41.2350500 139.1373240 131.2911100  40.2946950
 128.6939650 128.7380690  43.0168000 129.0356460 129.5822740  42.7221870
 127.7555460 128.8864430  43.1333340 129.4746270 138.6346710  45.0020230
 130.0920270 139.3097790  44.7204680 128.6139390 139.0434690  44.9107730
 124.7678610 137.8246570  33.8827080 124.3906590 138.3133670  33.1511980
 125.0251680 138.4971850  34.5133610 140.3923860 140.0986120  42.9174870
 139.7087380 140.7685230  42.9091540 140.9318150 140.2966770  42.1519730
 141.8448000 129.9265780  41.0456600 140.8972910 129.9604760  41.1772030
 142.1697990 130.7404730  41.4305960 132.3767540 126.2262960  39.3412590
 132.6842520 125.6709850  38.6248090 131.4468240 126.3607420  39.1585580
 137.9282600 141.9430250  41.6320050 137.9409760 141.5392540  40.7642310
 137.3757820 142.7177540  41.5281480 139.2228020 138.6646470  36.7210220
 139.1124350 137.7220800  36.8459640 139.2196270 139.0262110  37.6072980
 137.3268040 136.8460090  42.9602660 137.7436830 136.6320200  42.1256120
 138.0507860 137.1032880  43.5311280 134.7648300 134.2911790  36.0772710
 133.8377580 134.2249170  36.3061180 134.9173120 135.2291920  35.9627950
 134.7517380 130.5628790  33.0739870 133.8121050 130.7242750  33.1592330
 135.0700640 131.2814470  32.5275860 141.2730140 135.2447310  43.0518900
 140.4448770 135.3140400  42.5769030 141.8680620 135.8301620  42.5834730
 138.7945590 135.8532090  36.5807960 138.1758010 135.5151640  35.9334260
 138.7770040 135.2091850  37.2887150 138.2372150 132.0316630  43.9973770
 137.8243330 132.8570340  44.2513760 137.5048100 131.4461670  43.8050130
 130.3704940 134.8176530  38.8592440 129.9661940 134.1053780  38.3638340
 130.4568060 134.4729770  39.7480480 130.8386640 138.5044090  41.0231650
 130.5414930 137.8989560  40.3439430 131.7886460 138.5421400  40.9121010
 129.0833560 131.5919740  42.6391480 129.6348150 131.7015080  41.8644730
 129.5977070 131.9657340  43.3546710 138.9272250 142.0775960  44.6854750
 138.4502810 142.8848150  44.4927360 138.2434040 141.4254290  44.8380960
 129.9305070 138.2425780  47.6739450 129.0333600 138.4665750  47.9212850
 129.9557940 138.3660720  46.7250850 136.9710290 135.0918900  33.5880710
 137.4103570 134.2541330  33.4418530 137.6838710 135.7248300  33.6744850
 128.7576290 135.1139100  46.2496820 128.6184060 135.9861900  46.6184220
 127.8757650 134.7711910  46.1044760 135.0805670 140.0314970  37.5561950
 135.5201580 140.7739300  37.1417340 135.0192560 140.2741540  38.4800910
 130.5556640 141.0560800  48.4581970 130.5272070 141.4603750  47.5910400
 130.3921610 140.1271160  48.2953570 140.5527430 126.3461710  31.9021750
 140.2400090 126.4388540  32.8020820 141.3139900 126.9242740  31.8519180
 127.0709570 133.7121510  36.3599090 126.9507170 134.4383600  35.7480360
 126.7610460 132.9424420  35.8827000 142.5071460 141.8387900  49.7546140
 142.9831180 142.3170790  50.4335220 143.1278620 141.7705390  49.0291640
 124.7094940 136.8836650  42.1667730 124.7875360 137.0185420  41.2223450
 125.3236620 136.1752540  42.3595850 125.9542570 138.5836840  38.5773910
 125.5470650 138.7251430  37.7227510 126.8455580 138.2997000  38.3745120
 141.9104710 139.0300750  46.9146150 142.0367770 138.7912630  45.9963330
 141.9526090 138.1985290  47.3868230 135.7721450 142.7328750  45.4840960
 136.2866120 142.6436760  46.2863390 134.9290530 143.0788450  45.7768870
 137.7475850 143.0184090  34.9124960 137.5876990 142.7287030  35.8106790
 137.5822560 142.2424220  34.3770190 130.2264230 142.7982620  36.6896580
 130.0506710 141.8818160  36.4764380 129.3719970 143.1569910  36.9294380
 137.4501980 140.5271650  33.4722960 136.7567140 140.5248940  32.8125240
 138.1924840 140.1030970  33.0417130 137.0151910 142.1534360  37.5471450
 137.4708860 141.3723740  37.8610070 137.3544430 142.8641180  38.0912630
 141.7628720 131.0833210  47.8795890 141.1472990 131.5912880  47.3511350
 141.4425140 130.1831540  47.8221830 124.7654460 137.9250820  44.7062190
 124.9285500 137.4556180  43.8881560 125.2306910 137.4174380  45.3711030
 129.5373230 127.0556580  39.7422760 129.0941380 127.8366120  39.4107280
 130.0958220 127.3786470  40.4493700 133.8243040 129.9225100  45.3458080
 133.3622410 130.1308120  46.1578020 133.4221150 129.1084450  45.0428750
 138.8247550 131.1434050  46.4754740 137.9741140 130.8439800  46.7963810
 138.6649340 131.3876060  45.5638560 135.9197260 132.6435800  48.5753530
 136.2450670 131.8099550  48.2355760 136.7077590 133.1664320  48.7231860
 132.6532050 126.6767280  34.6228590 132.0286230 126.6727150  35.3481900
 132.5662170 125.8098240  34.2264560 131.5749130 127.6003910  41.6012360
 131.8721460 128.5066740  41.5204380 132.1234690 127.1122690  40.9871930
 129.3287450 132.1790150  37.4704010 129.1028370 131.9627320  38.3750630
 128.5479980 132.6118610  37.1249980 136.5585210 132.1853520  36.0694660
 135.9594100 132.9089320  35.8858280 137.1064820 132.1230300  35.2871110
 131.7686660 133.0775730  48.1364280 131.6730260 132.1370460  47.9864680
 132.6118640 133.2990800  47.7412350 135.1650080 130.8217060  38.0997940
 135.5579650 131.1389260  37.2866630 135.5266930 129.9428940  38.2142460
 126.8997200 129.4889400  46.2898060 126.5060590 130.3364610  46.4970840
 126.2115600 128.8515770  46.4806700 133.4742250 129.5724370  49.3594800
 132.7840570 129.3796570  49.9940890 134.2174550 129.8559010  49.8919100
 124.2014250 127.4117860  40.3228140 123.9127300 127.9820720  41.0353120
 124.9460010 126.9322310  40.6859370 124.3884480 131.3537980  31.5330860
 124.3059150 132.2968740  31.6745850 124.0367540 131.2112890  30.6543210
 135.7505220 133.4122810  42.1948720 135.0186340 133.9209620  42.5438820
 135.3529560 132.5952790  41.8937500 132.1882610 130.0877010  40.6001210
 132.1918670 129.6466960  39.7505750 133.0833730 130.4094340  40.7073030
 128.0384990 129.9703500  39.5595420 127.6985040 130.4478730  40.3162470
 127.2762310 129.5168620  39.1996520 132.2502760 131.0889090  33.5907970
 132.3715580 131.0475570  34.5393790 131.8651270 131.9513240  33.4354700
 136.2131130 128.8656490  41.6071660 136.2303870 129.3165140  42.4513510
 135.9646710 127.9662130  41.8205100 131.2624260 133.3990230  32.9891270
 130.6941160 132.9508480  32.3627180 131.9713260 133.7583010  32.4556420
 139.6401880 126.2788670  47.4458040 139.9647650 125.5478330  47.9716020
 139.6758390 125.9602310  46.5439030 126.3393440 137.3002250  46.8658000
 125.9548230 136.6595920  47.4640960 126.6505630 138.0038370  47.4352730
 132.4890580 134.1478790  42.3466620 132.8560710 133.6737360  43.0927960
 132.2995640 135.0220360  42.6874960 125.3531070 128.8922480  38.4760090
 125.0677990 128.5278150  39.3138710 125.2909930 128.1602940  37.8623230
 130.2789950 133.1887430  44.6650830 129.9747020 134.0679410  44.8901190
 131.2336410 133.2487220  44.7008270 128.8071740 137.3948420  35.2617680
 128.0334000 136.8546040  35.1016400 129.5366370 136.8755030  34.9235440
 139.5659720 136.3913780  41.0544070 140.2858840 136.8869070  40.6640180
 139.3641540 135.7131670  40.4097940 135.0269660 127.7851740  35.1973460
 134.2134270 127.2864910  35.1218770 134.8331610 128.6249990  34.7809810
 134.9478520 136.4622840  46.9413070 134.8815830 135.5418510  46.6870660
 134.3183660 136.5598280  47.6557710 137.7418050 132.1571390  33.4935620
 138.6297670 132.4688620  33.3186960 137.7123140 131.2843640  33.1016200
 128.8509140 137.0628800  38.8996490 129.3687810 136.2597060  38.8453380
 128.3993160 137.0007940  39.7413320 133.7378640 138.3295080  34.1723790
 134.0794340 139.0737310  33.6767110 132.9091350 138.6426200  34.5348620
 126.3353680 134.0290170  45.8122190 125.9768620 134.6944020  46.3995530
 126.0408240 133.1973720  46.1834810 129.5366800 134.4874410  48.6961740
 129.2366940 134.6331590  47.7989560 130.3078040 133.9279700  48.6035130
 134.8795250 139.2843410  46.6916870 134.8939790 138.3524370  46.4735780
 134.1720350 139.3703170  47.3306640 140.0132320 133.4683230  32.9615480
 139.9296040 133.8997450  32.1111920 140.7326510 133.9281580  33.3942300
 141.0906460 135.9250750  46.0385450 140.3654650 136.5179530  45.8414840
 141.6181920 135.9174290  45.2398820 141.0419570 140.3225490  35.6897610
 140.3995730 139.6681110  35.9641330 140.6550230 140.7280580  34.9138280
 136.6206050 137.6510920  39.5369300 136.9729870 137.0539050  38.8770670
 135.7368380 137.3255150  39.7077550 132.7069330 138.4108610  36.9439710
 133.3940460 138.9577820  37.3247300 131.9201750 138.9549340  36.9789320
 124.8461730 134.0281430  32.4356790 125.7156580 134.3106230  32.7192710
 124.3552050 134.8417300  32.3205600 132.0096540 135.4154640  36.5565070
 132.4659320 136.2259890  36.7825260 131.6584750 135.0977780  37.3883560
 134.3129150 140.9260980  43.7857370 134.9571370 141.1320360  44.4630790
 134.6758590 140.1649380  43.3328220 127.9108320 125.7592290  37.0287590
 127.7822950 125.7510190  37.9772510 127.0870340 126.0975380  36.6778600
 135.5861230 138.9293330  42.5034820 136.2283460 138.2286490  42.6166990
 136.1110580 139.7091770  42.3231710 139.4316950 139.2141950  32.2273960
 139.2054530 138.4972390  32.8198600 139.0413150 138.9654390  31.3895710
 137.3598850 139.7288230  45.7070880 137.6955090 140.3154920  46.3848800
 136.4399190 139.5980940  45.9368670 125.2132980 143.2408810  33.0018420
 125.5730620 143.8398150  32.3475690 125.0725320 143.7868700  33.7753450
 124.9102250 127.5183410  46.4894290 124.1960770 127.7180330  47.0946900
 125.3297290 126.7422980  46.8609090 139.0133200 137.1313890  33.8888120
 138.7254900 137.5926580  34.6766000 139.8085370 136.6711660  34.1572340
 125.1974840 141.5063670  47.4760820 125.3065960 140.5658410  47.3356210
 124.5455400 141.7718420  46.8274550 133.1887430 139.7779560  48.8758940
 132.8684300 139.0588800  49.4204630 132.5145790 140.4534630  48.9495000
 131.2301600 140.6240010  33.8192090 131.2211700 141.3569700  33.2036600
 130.3099960 140.3771590  33.9119050 126.8308240 135.8454900  34.5638850
 126.2236190 136.5853800  34.5734150 127.3057590 135.9354260  33.7377050
 136.4041030 130.0105720  44.2395740 136.7721850 129.1900930  44.5675310
 135.5439230 130.0707610  44.6551390 139.7703060 128.9662660  35.0483300
 139.1416220 129.0708330  34.3341530 139.2754980 129.1859440  35.8377180
 134.2161200 140.6868250  32.4817280 134.3173180 140.4832240  31.5519260
 133.3162940 140.4326530  32.6865060 131.7387090 131.2448610  36.4641180
 131.0303240 131.7134950  36.9054790 132.0231570 130.5870620  37.0986370
 133.3643020 132.6645310  44.4633710 133.8628270 133.1391130  45.1285560
 133.5065970 131.7408830  44.6703740 135.7702520 127.9699270  37.9036970
 135.6470300 127.9885400  36.9546480 136.7187080 128.0178210  38.0235370
 132.8579310 143.2054570  37.1764950 133.1120810 143.1675960  36.2544320
 131.9091790 143.0787900  37.1693200 129.9422110 129.5533690  33.8391890
 130.7912640 129.9903840  33.7732080 129.5753380 129.8653950  34.6663950
 140.5709880 128.8813270  45.3062100 140.0683480 129.6218670  45.6455910
 141.3866540 129.2697270  44.9898890 138.8631890 134.1246450  38.7523460
 137.9222030 134.1396680  38.9271150 139.1775960 133.3382410  39.1983760
 128.8413530 135.8066050  32.3127420 129.6076800 135.6947410  32.8752850
 128.9188220 135.1104020  31.6604190 127.5360290 133.2391120  32.9960310
 127.6163880 132.2918630  33.1077710 128.4280040 133.5698000  33.1020970
 140.8657470 141.2955300  40.4277720 140.9904890 142.1186470  40.9001530
 141.7323030 141.0846030  40.0801870 128.3375000 143.3886510  40.0994850
 129.0737480 142.8401970  40.3703420 128.7215920 144.2542520  39.9600840
 125.2220480 139.4560080  35.9736360 124.2960260 139.6981220  35.9641770
 125.6876910 140.2834340  35.8521110 127.3433280 142.5732580  49.2880430
 128.1446010 142.8944630  49.7015830 126.8285100 142.2128160  50.0100340
 131.4477310 142.5616820  31.9220420 132.2405920 142.8505650  31.4702210
 130.9281660 142.1308990  31.2432900 136.1797910 138.6812450  49.2355840
 135.5736070 138.7044050  48.4951590 135.8752020 137.9495490  49.7723090
 137.6098280 142.4092740  47.8465250 138.5620030 142.3250760  47.7965490
 137.4626500 143.0734450  48.5199040 140.5007480 141.7886950  33.3457160
 140.2148990 141.3752090  32.5311340 140.3027030 142.7174660  33.2257680
 125.0631090 135.0606040  48.2316480 125.5670110 134.4813320  48.8032710
 124.3238510 135.3446270  48.7692850 131.9654710 137.7820230  31.7862770
 131.8605350 137.1672580  32.5124150 131.7978930 137.2586120  31.0025780
 132.1169030 136.4677030  47.7652000 131.3514700 137.0362030  47.6806670
 132.2984990 136.1753240  46.8720230 135.2057440 136.8440260  32.3904760
 134.6567540 137.2909560  33.0347500 135.8276700 136.3389510  32.9142430
 139.2592380 138.1982360  48.3227020 140.0001850 138.5358120  47.8194480
 138.4965060 138.3674420  47.7696790 127.0954170 133.2035630  49.1266550
 127.1359510 132.9049500  50.0351780 127.9499670 133.6043240  48.9674070
 130.8732560 135.8031180  34.2870060 131.2948980 135.6371050  35.1301450
 130.9983400 134.9931410  33.7925200 129.0359980 131.7827730  47.0941040
 128.5056440 131.2918680  46.4664380 129.7048050 132.2111930  46.5598970
 133.3860200 134.8268790  31.5347160 133.9065860 134.1117810  31.1688310
 134.0328600 135.4654660  31.8347670 137.9338040 136.2497190  46.8582230
 138.3479060 136.4042270  47.7072650 136.9989040 136.3752410  47.0208010
 138.4060210 133.5893350  48.8621380 138.9880980 132.8345670  48.7741860
 138.5821980 134.1200790  48.0852860 129.5232280 128.7490100  47.1738330
 129.4289150 128.1310850  46.4489200 128.9429670 129.4756390  46.9468240
 132.2893720 127.3063340  44.2065720 131.8411020 127.3287600  43.3611270
 131.6558920 126.9082360  44.8036020 132.6953270 136.2017670  44.8278160
 133.1141380 137.0450400  44.6554400 131.7761900 136.3389710  44.5984940
 135.0317170 133.9333850  46.2116000 135.1513380 133.3374990  46.9510840
 135.8911170 133.9703540  45.7917300 137.3705070 134.4871040  44.7878510
 136.8440290 135.0113660  44.1843650 137.7136410 135.1198430  45.4188240
 129.7691460 131.8764410  31.2328220 129.5680520 131.0131770  31.5941560
 129.5983510 131.7897770  30.2949820 130.5460690 142.5070680  45.9435890
 130.0081780 143.2316740  45.6244590 130.7994650 142.0301020  45.1533230
 131.7985940 130.4755200  47.4691820 132.3885630 130.1671050  48.1569640
 130.9806180 130.0034950  47.6251720 136.6179370 130.0921010  47.7024840
 135.9294890 129.4302550  47.6374830 137.3385390 129.6459280  48.1473300
 137.2479770 126.6872640  33.7615100 137.5282060 125.8440540  34.1174520
 136.4745500 126.9195750  34.2753850 128.5674260 128.9765030  31.2206100
 128.8700160 128.9832460  30.3125250 129.3068850 128.6262890  31.7173760
 133.4022900 143.7421890  46.2022540 133.3281600 144.6457030  46.5094910
 132.5001740 143.4233790  46.1744610 131.7859190 127.9199650  32.2062300
 131.4381190 127.2423640  31.6264750 131.9871960 127.4589160  33.0205690
 133.9508230 142.9080400  33.8248900 134.8459020 143.2465370  33.8467660
 133.9825860 142.1859810  33.1973180 127.5904390 138.2807450  32.0535900
 128.0279260 138.8237120  32.7093480 128.0752120 137.4554400  32.0632240
 124.8050190 141.0696480  39.5056160 125.1353200 140.2017540  39.2734800
 125.2341190 141.2755000  40.3361120 129.4012110 139.4005490  37.1658130
 129.1007650 139.2770460  38.0662040 129.2949600 138.5414080  36.7573860
 125.2940400 141.9367070  42.2437790 124.8571390 142.1167870  43.0761940
 125.8618080 142.6941690  42.1019510 140.9302580 141.4384070  46.5315100
 140.3304570 141.4976630  45.7879020 141.0596480 140.4989050  46.6611950
 142.1704030 139.1801890  31.8684810 141.3396990 139.2478540  32.3392040
 142.3475860 140.0706010  31.5651670 141.6260490 135.9249370  34.3719010
 142.3879400 136.4946020  34.4778700 141.6414860 135.3576570  35.1427320
 125.1264830 134.4487300  38.6026670 124.4713670 134.1798940  37.9586370
 125.9642780 134.3391780  38.1528650 142.6320460 136.7799470  39.2160940
 143.0029290 135.9966790  38.8096910 143.2722390 137.4688570  39.0378240
 139.6154220 138.1636050  44.6291260 138.8014060 138.5933210  44.8917050
 140.0228420 138.7754460  44.0160310 141.6779660 136.2183740  31.5291530
 141.9528500 137.1262620  31.4010750 141.4890400 136.1546270  32.4653520
 138.0755270 129.2428590  32.8245160 138.4940150 129.0559570  31.9841820
 137.7691330 128.3907640  33.1348090 141.5745000 134.1552730  36.5220960
 141.1988600 133.3880660  36.0902250 140.8448120 134.5375430  37.0095890
 126.1640760 134.8339870  43.1430010 126.5313800 134.7467270  44.0226030
 125.5951580 134.0706420  43.0436870 140.9644620 133.3024250  46.1560480
 140.7330710 133.0737000  45.2558430 141.2249170 134.2223800  46.1105370
 125.7156760 131.7448960  47.0488430 124.8212810 131.7115720  47.3882140
 126.2554310 131.9435750  47.8139680 139.4032690 128.5280680  48.9340180
 140.2802870 128.5364080  49.3174180 139.4153530 127.7911520  48.3232530
 124.3402910 131.6586230  34.5452000 123.4366990 131.9216430  34.3703660
 124.8243530 131.9297400  33.7651960 140.8495960 132.3810220  39.8228200
 141.3733440 131.8872870  39.1918370 141.4355380 132.5160580  40.5675770
 141.0285680 132.4650090  43.3447750 140.0788390 132.4313630  43.4592740
 141.2098690 133.3750200  43.1097520 126.8830120 130.7151770  32.4546380
 127.5921820 130.2934990  31.9693660 126.1670060 130.7827000  31.8229730
 126.5304280 126.7691100  31.4949030 127.2532410 127.3100040  31.8130250
 126.8028800 126.4954520  30.6190570 140.3395930 131.6383570  35.7620610
 140.8355050 131.4054440  36.5469490 140.1412000 130.7995410  35.3458250
 126.2196470 126.0197290  41.3971650 126.8672660 125.4694670  40.9566810
 126.6398310 126.2740440  42.2187460 141.7683090 130.2744520  38.2958290
 141.6582370 130.1200560  39.2340560 142.5290680 129.7465460  38.0533700
 140.1148810 126.2138650  44.7541290 140.7521030 126.8272790  45.1200480
 140.2623700 126.2499310  43.8090520 142.6573360 128.1052440  31.5364430
 143.5822670 127.9733620  31.3282720 142.6349150 128.1845260  32.4900880
 142.7311850 128.8763100  34.1621140 141.9363350 128.8108220  34.6914050
 142.9355130 129.8113740  34.1506490 139.6730270 142.9154650  38.1559530
 140.2689340 142.5939220  37.4793950 139.9308420 142.4426470  38.9472800
 125.9728470 126.1752960  44.1396970 125.6243290 126.6316780  44.9055150
 125.6416170 125.2810090  44.2219400 127.5792840 139.3472560  48.3050160
 127.5362470 138.9765470  49.1864620 127.7103850 140.2850130  48.4451980
 131.2798870 140.9032150  43.9059880 131.0390230 141.1706710  43.0190400
 132.2201510 141.0737880  43.9610740 133.4853290 127.3664840  47.6616390
 133.4242180 127.9586670  48.4111800 134.4253670 127.2590800  47.5166650
 136.1227850 127.0234900  47.3008680 136.7368260 127.3414190  46.6389760
 136.6677410 126.5383490  47.9204540 142.5403030 142.9226530  44.7070520
 142.0461310 143.3195400  43.9897650 141.9316320 142.2975740  45.1007800
 126.6449110 125.7029160  47.4147740 127.1932100 125.5217210  46.6513850
 126.7104420 124.9123270  47.9504050 127.4180870 142.2934810  45.4247940
 126.8241190 142.1619510  46.1637980 127.4104710 141.4572950  44.9590040
 136.8635890 125.5867040  43.6277970 135.9895730 125.9202150  43.4250900
 136.7546640 125.1140220  44.4529840 137.7707870 127.7937910  45.0119690
 137.4421230 126.9789670  44.6321420 138.7190170 127.7507720  44.8885380
 140.2242480 143.5649950  41.9857260 139.7645450 144.3165760  41.6115280
 139.5954940 142.8456420  41.9272060 127.0493100 139.6593190  44.3755980
 126.3227160 139.0398480  44.3081930 127.1102250 140.0533800  43.5054060
 130.6538200 141.8738190  41.1605390 131.1703220 141.2625550  40.6353650
 131.3035580 142.3766970  41.6516400 133.3933700 142.7646680  41.9874370
 133.6811510 142.5100980  41.1107380 133.9056920 142.2124040  42.5779940
 134.6110710 126.5036880  42.5670880 133.8282500 126.9782380  42.8467640
 134.3173640 125.5991710  42.4584060 139.1631780 127.2059980  40.6119970
 139.6039870 127.1505080  39.7641570 138.8939370 128.1217990  40.6830150
 141.0270350 126.8375220  38.6228790 140.9658750 125.8936440  38.4759810
 141.8062380 126.9455310  39.1682250 125.3323100 142.9767580  37.5852740
 125.1645140 142.3438260  38.2834630 124.4657610 143.1826980  37.2346930
 125.9551120 126.8084360  35.0884600 126.7130480 126.9213240  34.5148630
 125.4928290 127.6453560  35.0428030 132.4964930 128.9223630  38.0786910
 131.6839440 128.5480520  37.7382790 133.0006570 128.1668710  38.3808100
 136.9989910 125.5866080  39.3169980 137.6019280 126.1586290  39.7918500
 136.2582900 126.1505520  39.0943880 140.1424510 125.9887640  34.5910260
 140.3375140 126.8871090  34.8577690 139.3554380 125.7574720  35.0843210
 126.9385800 141.6700810  35.0302880 126.4133420 142.0508840  34.3264840
 126.8630380 142.2951580  35.7512590 128.3276270 127.3348410  33.6286570
 128.8569030 126.5478210  33.4994520 128.9604590 128.0139600  33.8622100
 130.5214110 127.0723550  36.6831960 129.8916850 126.3710860  36.8502090
 129.9819250 127.8327680  36.4665120 133.4606060 143.6862780  49.3542570
 134.3873370 143.4507050  49.3978530 133.4456490 144.5134780  48.8728600
 141.6951120 143.2288350  36.3516820 141.8703310 142.5426090  35.7077740
 140.9972690 143.7535400  35.9593490 130.6469670 126.3507530  49.1184450
 130.3653940 126.8541130  48.3545270 131.0289370 125.5529280  48.7526580
 129.5378770 143.6183190  33.9052130 130.2697590 143.3342470  33.3576020
 129.7972440 143.3796470  34.7951510 128.6993560 139.7347920  33.9098460
 128.0702440 140.2033020  34.4584290 128.8141390 138.8897140  34.3444650
 137.2485130 125.7661110  49.6964920 137.1350580 126.0855720  50.5916440
 138.0654870 126.1673620  49.4002200 140.0283620 142.9132640  49.1783610
 140.8208940 142.4181870  48.9709570 140.3216770 143.5922780  49.7859220
 136.1543280 133.7853580  20.0599660 136.0737330 132.8708190  19.7891370
 135.7407700 134.2820650  19.3539370 134.2861320 135.5632600  21.9408930
 133.5103420 135.0833040  22.2307500 134.9374250 134.8838250  21.7665090
 128.3027150 135.8752410  22.8184690 127.4712030 135.6201120  23.2181200
 128.9108130 135.9463180  23.5542610 138.3068750 139.9692790  20.7208060
 137.8450280 139.1980030  21.0495230 139.1194300 139.9958860  21.2260510
 128.2828410 139.9092500  23.0142710 128.5856450 139.0190240  22.8352930
 129.0272000 140.4662720  22.7864960 126.7119100 130.8354300  16.6027080
 125.8235800 131.1770270  16.5006960 126.9960290 130.6354620  15.7107910
 124.6752110 133.4359950  22.4866780 125.2468220 132.6682150  22.4870420
 124.6753650 133.7348710  21.5773390 134.5332060 142.2550800  20.3412050
 133.9143500 142.7108300  19.7706490 135.3883840 142.4102260  19.9401750
 133.7270310 138.2389790  21.9479090 133.6578590 137.2979730  21.7868220
 134.4890170 138.3291200  22.5201660 125.9176980 128.8444310  24.2735710
 125.7379820 127.9470060  24.5538470 125.5157060 129.3916180  24.9482660
 134.7575480 131.0460170  22.1748020 135.1340300 130.1732050  22.0621690
 134.6594990 131.3818870  21.2838460 128.8880490 129.4185800  17.6365460
 128.9947240 130.3189530  17.9434220 127.9772850 129.3703770  17.3460110
 138.5399600 128.5410610  19.1076360 139.3609220 128.0507180  19.1501840
 138.5733680 129.1308270  19.8608200 126.5363650 131.3404810  22.8818050
 127.2173760 131.6043180  23.5005450 126.2211700 130.5005680  23.2156060
 130.7288220 132.3872170  21.9690640 131.2366440 132.8853140  22.6095660
 131.2601460 131.6107370  21.7930000 142.8299150 130.5577360  25.6719990
 142.1251320 130.9459070  25.1535100 143.0957070 131.2527650  26.2740920
 129.0124320 127.0270730  26.2354060 129.0142760 127.5443120  25.4299960
 128.1828630 126.5500910  26.2123990 135.3995410 137.1390040  17.7343960
 134.7812680 137.6039490  17.1706680 135.9118660 137.8317520  18.1513470
 130.2627170 136.6665910  24.4127560 129.9296550 137.2934830  25.0548630
 130.4393850 137.1927790  23.6329230 138.7761080 130.4810990  21.8803900
 138.0716650 130.7695880  22.4607010 139.1373240 131.2911100  21.5203460
 128.6939650 128.7380690  24.2424510 129.0356460 129.5822740  23.9478380
 127.7555460 128.8864430  24.3589850 129.4746270 138.6346710  26.2276740
 130.0920270 139.3097790  25.9461190 128.6139390 139.0434690  26.1364240
 124.7678610 137.8246570  15.1083590 124.3906590 138.3133670  14.3768490
 125.0251680 138.4971850  15.7390120 140.3923860 140.0986120  24.1431380
 139.7087380 140.7685230  24.1348050 140.9318150 140.2966770  23.3776240
 141.8448000 129.9265780  22.2713110 140.8972910 129.9604760  22.4028540
 142.1697990 130.7404730  22.6562470 132.3767540 126.2262960  20.5669100
 132.6842520 125.6709850  19.8504600 131.4468240 126.3607420  20.3842090
 137.9282600 141.9430250  22.8576560 137.9409760 141.5392540  21.9898820
 137.3757820 142.7177540  22.7537990 139.2228020 138.6646470  17.9466730
 139.1124350 137.7220800  18.0716150 139.2196270 139.0262110  18.8329490
 137.3268040 136.8460090  24.1859170 137.7436830 136.6320200  23.3512630
 138.0507860 137.1032880  24.7567790 134.7648300 134.2911790  17.3029220
 133.8377580 134.2249170  17.5317690 134.9173120 135.2291920  17.1884460
 134.7517380 130.5628790  14.2996380 133.8121050 130.7242750  14.3848840
 135.0700640 131.2814470  13.7532370 141.2730140 135.2447310  24.2775410
 140.4448770 135.3140400  23.8025540 141.8680620 135.8301620  23.8091240
 138.7945590 135.8532090  17.8064470 138.1758010 135.5151640  17.1590770
 138.7770040 135.2091850  18.5143660 138.2372150 132.0316630  25.2230280
 137.8243330 132.8570340  25.4770270 137.5048100 131.4461670  25.0306640
 130.3704940 134.8176530  20.0848950 129.9661940 134.1053780  19.5894850
 130.4568060 134.4729770  20.9736990 130.8386640 138.5044090  22.2488160
 130.5414930 137.8989560  21.5695940 131.7886460 138.5421400  22.1377520
 129.0833560 131.5919740  23.8647990 129.6348150 131.7015080  23.0901240
 129.5977070 131.9657340  24.5803220 138.9272250 142.0775960  25.9111260
 138.4502810 142.8848150  25.7183870 138.2434040 141.4254290  26.0637470
 129.9305070 138.2425780  28.8995960 129.0333600 138.4665750  29.1469360
 129.9557940 138.3660720  27.9507360 136.9710290 135.0918900  14.8137220
 137.4103570 134.2541330  14.6675040 137.6838710 135.7248300  14.9001360
 128.7576290 135.1139100  27.4753330 128.6184060 135.9861900  27.8440730
 127.8757650 134.7711910  27.3301270 135.0805670 140.0314970  18.7818460
 135.5201580 140.7739300  18.3673850 135.0192560 140.2741540  19.7057420
 130.5556640 141.0560800  29.6838480 130.5272070 141.4603750  28.8166910
 130.3921610 140.1271160  29.5210080 140.5527430 126.3461710  13.1278260
 140.2400090 126.4388540  14.0277330 141.3139900 126.9242740  13.0775690
 127.0709570 133.7121510  17.5855600 126.9507170 134.4383600  16.9736870
 126.7610460 132.9424420  17.1083510 142.5071460 141.8387900  30.9802650
 142.9831180 142.3170790  31.6591730 143.1278620 141.7705390  30.2548150
 124.7094940 136.8836650  23.3924240 124.7875360 137.0185420  22.4479960
 125.3236620 136.1752540  23.5852360 125.9542570 138.5836840  19.8030420
 125.5470650 138.7251430  18.9484020 126.8455580 138.2997000  19.6001630
 141.9104710 139.0300750  28.1402660 142.0367770 138.7912630  27.2219840
 141.9526090 138.1985290  28.6124740 135.7721450 142.7328750  26.7097470
 136.2866120 142.6436760  27.5119900 134.9290530 143.0788450  27.0025380
 137.7475850 143.0184090  16.1381470 137.5876990 142.7287030  17.0363300
 137.5822560 142.2424220  15.6026700 130.2264230 142.7982620  17.9153090
 130.0506710 141.8818160  17.7020890 129.3719970 143.1569910  18.1550890
 137.4501980 140.5271650  14.6979470 136.7567140 140.5248940  14.0381750
 138.1924840 140.1030970  14.2673640 137.0151910 142.1534360  18.7727960
 137.4708860 141.3723740  19.0866580 137.3544430 142.8641180  19.3169140
 141.7628720 131.0833210  29.1052400 141.1472990 131.5912880  28.5767860
 141.4425140 130.1831540  29.0478340 124.7654460 137.9250820  25.9318700
 124.9285500 137.4556180  25.1138070 125.2306910 137.4174380  26.5967540
 129.5373230 127.0556580  20.9679270 129.0941380 127.8366120  20.6363790
 130.0958220 127.3786470  21.6750210 133.8243040 129.9225100  26.5714590
 133.3622410 130.1308120  27.3834530 133.4221150 129.1084450  26.2685260
 138.8247550 131.1434050  27.7011250 137.9741140 130.8439800  28.0220320
 138.6649340 131.3876060  26.7895070 135.9197260 132.6435800  29.8010040
 136.2450670 131.8099550  29.4612270 136.7077590 133.1664320  29.9488370
 132.6532050 126.6767280  15.8485100 132.0286230 126.6727150  16.5738410
 132.5662170 125.8098240  15.4521070 131.5749130 127.6003910  22.8268870
 131.8721460 128.5066740  22.7460890 132.1234690 127.1122690  22.2128440
 129.3287450 132.1790150  18.6960520 129.1028370 131.9627320  19.6007140
 128.5479980 132.6118610  18.3506490 136.5585210 132.1853520  17.2951170
 135.9594100 132.9089320  17.1114790 137.1064820 132.1230300  16.5127620
 131.7686660 133.0775730  29.3620790 131.6730260 132.1370460  29.2121190
 132.6118640 133.2990800  28.9668860 135.1650080 130.8217060  19.3254450
 135.5579650 131.1389260  18.5123140 135.5266930 129.9428940  19.4398970
 126.8997200 129.4889400  27.5154570 126.5060590 130.3364610  27.7227350
 126.2115600 128.8515770  27.7063210 133.4742250 129.5724370  30.5851310
 132.7840570 129.3796570  31.2197400 134.2174550 129.8559010  31.1175610
 124.2014250 127.4117860  21.5484650 123.9127300 127.9820720  22.2609630
 124.9460010 126.9322310  21.9115880 124.3884480 131.3537980  12.7587370
 124.3059150 132.2968740  12.9002360 124.0367540 131.2112890  11.8799720
 135.7505220 133.4122810  23.4205230 135.0186340 133.9209620  23.7695330
 135.3529560 132.5952790  23.1194010 132.1882610 130.0877010  21.8257720
 132.1918670 129.6466960  20.9762260 133.0833730 130.4094340  21.9329540
 128.0384990 129.9703500  20.7851930 127.6985040 130.4478730  21.5418980
 127.2762310 129.5168620  20.4253030 132.2502760 131.0889090  14.8164480
 132.3715580 131.0475570  15.7650300 131.8651270 131.9513240  14.6611210
 136.2131130 128.8656490  22.8328170 136.2303870 129.3165140  23.6770020
 135.9646710 127.9662130  23.0461610 131.2624260 133.3990230  14.2147780
 130.6941160 132.9508480  13.5883690 131.9713260 133.7583010  13.6812930
 139.6401880 126.2788670  28.6714550 139.9647650 125.5478330  29.1972530
 139.6758390 125.9602310  27.7695540 126.3393440 137.3002250  28.0914510
 125.9548230 136.6595920  28.6897470 126.6505630 138.0038370  28.6609240
 132.4890580 134.1478790  23.5723130 132.8560710 133.6737360  24.3184470
 132.2995640 135.0220360  23.9131470 125.3531070 128.8922480  19.7016600
 125.0677990 128.5278150  20.5395220 125.2909930 128.1602940  19.0879740
 130.2789950 133.1887430  25.8907340 129.9747020 134.0679410  26.1157700
 131.2336410 133.2487220  25.9264780 128.8071740 137.3948420  16.4874190
 128.0334000 136.8546040  16.3272910 129.5366370 136.8755030  16.1491950
 139.5659720 136.3913780  22.2800580 140.2858840 136.8869070  21.8896690
 139.3641540 135.7131670  21.6354450 135.0269660 127.7851740  16.4229970
 134.2134270 127.2864910  16.3475280 134.8331610 128.6249990  16.0066320
 134.9478520 136.4622840  28.1669580 134.8815830 135.5418510  27.9127170
 134.3183660 136.5598280  28.8814220 137.7418050 132.1571390  14.7192130
 138.6297670 132.4688620  14.5443470 137.7123140 131.2843640  14.3272710
 128.8509140 137.0628800  20.1253000 129.3687810 136.2597060  20.0709890
 128.3993160 137.0007940  20.9669830 133.7378640 138.3295080  15.3980300
 134.0794340 139.0737310  14.9023620 132.9091350 138.6426200  15.7605130
 126.3353680 134.0290170  27.0378700 125.9768620 134.6944020  27.6252040
 126.0408240 133.1973720  27.4091320 129.5366800 134.4874410  29.9218250
 129.2366940 134.6331590  29.0246070 130.3078040 133.9279700  29.8291640
 134.8795250 139.2843410  27.9173380 134.8939790 138.3524370  27.6992290
 134.1720350 139.3703170  28.5563150 140.0132320 133.4683230  14.1871990
 139.9296040 133.8997450  13.3368430 140.7326510 133.9281580  14.6198810
 141.0906460 135.9250750  27.2641960 140.3654650 136.5179530  27.0671350
 141.6181920 135.9174290  26.4655330 141.0419570 140.3225490  16.9154120
 140.3995730 139.6681110  17.1897840 140.6550230 140.7280580  16.1394790
 136.6206050 137.6510920  20.7625810 136.9729870 137.0539050  20.1027180
 135.7368380 137.3255150  20.9334060 132.7069330 138.4108610  18.1696220
 133.3940460 138.9577820  18.5503810 131.9201750 138.9549340  18.2045830
 124.8461730 134.0281430  13.6613300 125.7156580 134.3106230  13.9449220
 124.3552050 134.8417300  13.5462110 132.0096540 135.4154640  17.7821580
 132.4659320 136.2259890  18.0081770 131.6584750 135.0977780  18.6140070
 134.3129150 140.9260980  25.0113880 134.9571370 141.1320360  25.6887300
 134.6758590 140.1649380  24.5584730 127.9108320 125.7592290  18.2544100
 127.7822950 125.7510190  19.2029020 127.0870340 126.0975380  17.9035110
 135.5861230 138.9293330  23.7291330 136.2283460 138.2286490  23.8423500
 136.1110580 139.7091770  23.5488220 139.4316950 139.2141950  13.4530470
 139.2054530 138.4972390  14.0455110 139.0413150 138.9654390  12.6152220
 137.3598850 139.7288230  26.9327390 137.6955090 140.3154920  27.6105310
 136.4399190 139.5980940  27.1625180 125.2132980 143.2408810  14.2274930
 125.5730620 143.8398150  13.5732200 125.0725320 143.7868700  15.0009960
 124.9102250 127.5183410  27.7150800 124.1960770 127.7180330  28.3203410
 125.3297290 126.7422980  28.0865600 139.0133200 137.1313890  15.1144630
 138.7254900 137.5926580  15.9022510 139.8085370 136.6711660  15.3828850
 125.1974840 141.5063670  28.7017330 125.3065960 140.5658410  28.5612720
 124.5455400 141.7718420  28.0531060 133.1887430 139.7779560  30.1015450
 132.8684300 139.0588800  30.6461140 132.5145790 140.4534630  30.1751510
 131.2301600 140.6240010  15.0448600 131.2211700 141.3569700  14.4293110
 130.3099960 140.3771590  15.1375560 126.8308240 135.8454900  15.7895360
 126.2236190 136.5853800  15.7990660 127.3057590 135.9354260  14.9633560
 136.4041030 130.0105720  25.4652250 136.7721850 129.1900930  25.7931820
 135.5439230 130.0707610  25.8807900 139.7703060 128.9662660  16.2739810
 139.1416220 129.0708330  15.5598040 139.2754980 129.1859440  17.0633690
 134.2161200 140.6868250  13.7073790 134.3173180 140.4832240  12.7775770
 133.3162940 140.4326530  13.9121570 131.7387090 131.2448610  17.6897690
 131.0303240 131.7134950  18.1311300 132.0231570 130.5870620  18.3242880
 133.3643020 132.6645310  25.6890220 133.8628270 133.1391130  26.3542070
 133.5065970 131.7408830  25.8960250 135.7702520 127.9699270  19.1293480
 135.6470300 127.9885400  18.1802990 136.7187080 128.0178210  19.2491880
 132.8579310 143.2054570  18.4021460 133.1120810 143.1675960  17.4800830
 131.9091790 143.0787900  18.3949710 129.9422110 129.5533690  15.0648400
 130.7912640 129.9903840  14.9988590 129.5753380 129.8653950  15.8920460
 140.5709880 128.8813270  26.5318610 140.0683480 129.6218670  26.8712420
 141.3866540 129.2697270  26.2155400 138.8631890 134.1246450  19.9779970
 137.9222030 134.1396680  20.1527660 139.1775960 133.3382410  20.4240270
 128.8413530 135.8066050  13.5383930 129.6076800 135.6947410  14.1009360
 128.9188220 135.1104020  12.8860700 127.5360290 133.2391120  14.2216820
 127.6163880 132.2918630  14.3334220 128.4280040 133.5698000  14.3277480
 140.8657470 141.2955300  21.6534230 140.9904890 142.1186470  22.1258040
 141.7323030 141.0846030  21.3058380 128.3375000 143.3886510  21.3251360
 129.0737480 142.8401970  21.5959930 128.7215920 144.2542520  21.1857350
 125.2220480 139.4560080  17.1992870 124.2960260 139.6981220  17.1898280
 125.6876910 140.2834340  17.0777620 127.3433280 142.5732580  30.5136940
 128.1446010 142.8944630  30.9272340 126.8285100 142.2128160  31.2356850
 131.4477310 142.5616820  13.1476930 132.2405920 142.8505650  12.6958720
 130.9281660 142.1308990  12.4689410 136.1797910 138.6812450  30.4612350
 135.5736070 138.7044050  29.7208100 135.8752020 137.9495490  30.9979600
 137.6098280 142.4092740  29.0721760 138.5620030 142.3250760  29.0222000
 137.4626500 143.0734450  29.7455550 140.5007480 141.7886950  14.5713670
 140.2148990 141.3752090  13.7567850 140.3027030 142.7174660  14.4514190
 125.0631090 135.0606040  29.4572990 125.5670110 134.4813320  30.0289220
 124.3238510 135.3446270  29.9949360 131.9654710 137.7820230  13.0119280
 131.8605350 137.1672580  13.7380660 131.7978930 137.2586120  12.2282290
 132.1169030 136.4677030  28.9908510 131.3514700 137.0362030  28.9063180
 132.2984990 136.1753240  28.0976740 135.2057440 136.8440260  13.6161270
 134.6567540 137.2909560  14.2604010 135.8276700 136.3389510  14.1398940
 139.2592380 138.1982360  29.5483530 140.0001850 138.5358120  29.0450990
 138.4965060 138.3674420  28.9953300 127.0954170 133.2035630  30.3523060
 127.1359510 132.9049500  31.2608290 127.9499670 133.6043240  30.1930580
 130.8732560 135.8031180  15.5126570 131.2948980 135.6371050  16.3557960
 130.9983400 134.9931410  15.0181710 129.0359980 131.7827730  28.3197550
 128.5056440 131.2918680  27.6920890 129.7048050 132.2111930  27.7855480
 133.3860200 134.8268790  12.7603670 133.9065860 134.1117810  12.3944820
 134.0328600 135.4654660  13.0604180 137.9338040 136.2497190  28.0838740
 138.3479060 136.4042270  28.9329160 136.9989040 136.3752410  28.2464520
 138.4060210 133.5893350  30.0877890 138.9880980 132.8345670  29.9998370
 138.5821980 134.1200790  29.3109370 129.5232280 128.7490100  28.3994840
 129.4289150 128.1310850  27.6745710 128.9429670 129.4756390  28.1724750
 132.2893720 127.3063340  25.4322230 131.8411020 127.3287600  24.5867780
 131.6558920 126.9082360  26.0292530 132.6953270 136.2017670  26.0534670
 133.1141380 137.0450400  25.8810910 131.7761900 136.3389710  25.8241450
 135.0317170 133.9333850  27.4372510 135.1513380 133.3374990  28.1767350
 135.8911170 133.9703540  27.0173810 137.3705070 134.4871040  26.0135020
 136.8440290 135.0113660  25.4100160 137.7136410 135.1198430  26.6444750
 129.7691460 131.8764410  12.4584730 129.5680520 131.0131770  12.8198070
 129.5983510 131.7897770  11.5206330 130.5460690 142.5070680  27.1692400
 130.0081780 143.2316740  26.8501100 130.7994650 142.0301020  26.3789740
 131.7985940 130.4755200  28.6948330 132.3885630 130.1671050  29.3826150
 130.9806180 130.0034950  28.8508230 136.6179370 130.0921010  28.9281350
 135.9294890 129.4302550  28.8631340 137.3385390 129.6459280  29.3729810
 137.2479770 126.6872640  14.9871610 137.5282060 125.8440540  15.3431030
 136.4745500 126.9195750  15.5010360 128.5674260 128.9765030  12.4462610
 128.8700160 128.9832460  11.5381760 129.3068850 128.6262890  12.9430270
 133.4022900 143.7421890  27.4279050 133.3281600 144.6457030  27.7351420
 132.5001740 143.4233790  27.4001120 131.7859190 127.9199650  13.4318810
 131.4381190 127.2423640  12.8521260 131.9871960 127.4589160  14.2462200
 133.9508230 142.9080400  15.0505410 134.8459020 143.2465370  15.0724170
 133.9825860 142.1859810  14.4229690 127.5904390 138.2807450  13.2792410
 128.0279260 138.8237120  13.9349990 128.0752120 137.4554400  13.2888750
 124.8050190 141.0696480  20.7312670 125.1353200 140.2017540  20.4991310
 125.2341190 141.2755000  21.5617630 129.4012110 139.4005490  18.3914640
 129.1007650 139.2770460  19.2918550 129.2949600 138.5414080  17.9830370
 125.2940400 141.9367070  23.4694300 124.8571390 142.1167870  24.3018450
 125.8618080 142.6941690  23.3276020 140.9302580 141.4384070  27.7571610
 140.3304570 141.4976630  27.0135530 141.0596480 140.4989050  27.8868460
 142.1704030 139.1801890  13.0941320 141.3396990 139.2478540  13.5648550
 142.3475860 140.0706010  12.7908180 141.6260490 135.9249370  15.5975520
 142.3879400 136.4946020  15.7035210 141.6414860 135.3576570  16.3683830
 125.1264830 134.4487300  19.8283180 124.4713670 134.1798940  19.1842880
 125.9642780 134.3391780  19.3785160 142.6320460 136.7799470  20.4417450
 143.0029290 135.9966790  20.0353420 143.2722390 137.4688570  20.2634750
 139.6154220 138.1636050  25.8547770 138.8014060 138.5933210  26.1173560
 140.0228420 138.7754460  25.2416820 141.6779660 136.2183740  12.7548040
 141.9528500 137.1262620  12.6267260 141.4890400 136.1546270  13.6910030
 138.0755270 129.2428590  14.0501670 138.4940150 129.0559570  13.2098330
 137.7691330 128.3907640  14.3604600 141.5745000 134.1552730  17.7477470
 141.1988600 133.3880660  17.3158760 140.8448120 134.5375430  18.2352400
 126.1640760 134.8339870  24.3686520 126.5313800 134.7467270  25.2482540
 125.5951580 134.0706420  24.2693380 140.9644620 133.3024250  27.3816990
 140.7330710 133.0737000  26.4814940 141.2249170 134.2223800  27.3361880
 125.7156760 131.7448960  28.2744940 124.8212810 131.7115720  28.6138650
 126.2554310 131.9435750  29.0396190 139.4032690 128.5280680  30.1596690
 140.2802870 128.5364080  30.5430690 139.4153530 127.7911520  29.5489040
 124.3402910 131.6586230  15.7708510 123.4366990 131.9216430  15.5960170
 124.8243530 131.9297400  14.9908470 140.8495960 132.3810220  21.0484710
 141.3733440 131.8872870  20.4174880 141.4355380 132.5160580  21.7932280
 141.0285680 132.4650090  24.5704260 140.0788390 132.4313630  24.6849250
 141.2098690 133.3750200  24.3354030 126.8830120 130.7151770  13.6802890
 127.5921820 130.2934990  13.1950170 126.1670060 130.7827000  13.0486240
 126.5304280 126.7691100  12.7205540 127.2532410 127.3100040  13.0386760
 126.8028800 126.4954520  11.8447080 140.3395930 131.6383570  16.9877120
 140.8355050 131.4054440  17.7726000 140.1412000 130.7995410  16.5714760
 126.2196470 126.0197290  22.6228160 126.8672660 125.4694670  22.1823320
 126.6398310 126.2740440  23.4443970 141.7683090 130.2744520  19.5214800
 141.6582370 130.1200560  20.4597070 142.5290680 129.7465460  19.2790210
 140.1148810 126.2138650  25.9797800 140.7521030 126.8272790  26.3456990
 140.2623700 126.2499310  25.0347030 142.6573360 128.1052440  12.7620940
 143.5822670 127.9733620  12.5539230 142.6349150 128.1845260  13.7157390
 142.7311850 128.8763100  15.3877650 141.9363350 128.8108220  15.9170560
 142.9355130 129.8113740  15.3763000 139.6730270 142.9154650  19.3816040
 140.2689340 142.5939220  18.7050460 139.9308420 142.4426470  20.1729310
 125.9728470 126.1752960  25.3653480 125.6243290 126.6316780  26.1311660
 125.6416170 125.2810090  25.4475910 127.5792840 139.3472560  29.5306670
 127.5362470 138.9765470  30.4121130 127.7103850 140.2850130  29.6708490
 131.2798870 140.9032150  25.1316390 131.0390230 141.1706710  24.2446910
 132.2201510 141.0737880  25.1867250 133.4853290 127.3664840  28.8872900
 133.4242180 127.9586670  29.6368310 134.4253670 127.2590800  28.7423160
 136.1227850 127.0234900  28.5265190 136.7368260 127.3414190  27.8646270
 136.6677410 126.5383490  29.1461050 142.5403030 142.9226530  25.9327030
 142.0461310 143.3195400  25.2154160 141.9316320 142.2975740  26.3264310
 126.6449110 125.7029160  28.6404250 127.1932100 125.5217210  27.8770360
 126.7104420 124.9123270  29.1760560 127.4180870 142.2934810  26.6504450
 126.8241190 142.1619510  27.3894490 127.4104710 141.4572950  26.1846550
 136.8635890 125.5867040  24.8534480 135.9895730 125.9202150  24.6507410
 136.7546640 125.1140220  25.6786350 137.7707870 127.7937910  26.2376200
 137.4421230 126.9789670  25.8577930 138.7190170 127.7507720  26.1141890
 140.2242480 143.5649950  23.2113770 139.7645450 144.3165760  22.8371790
 139.5954940 142.8456420  23.1528570 127.0493100 139.6593190  25.6012490
 126.3227160 139.0398480  25.5338440 127.1102250 140.0533800  24.7310570
 130.6538200 141.8738190  22.3861900 131.1703220 141.2625550  21.8610160
 131.3035580 142.3766970  22.8772910 133.3933700 142.7646680  23.2130880
 133.6811510 142.5100980  22.3363890 133.9056920 142.2124040  23.8036450
 134.6110710 126.5036880  23.7927390 133.8282500 126.9782380  24.0724150
 134.3173640 125.5991710  23.6840570 139.1631780 127.2059980  21.8376480
 139.6039870 127.1505080  20.9898080 138.8939370 128.1217990  21.9086660
 141.0270350 126.8375220  19.8485300 140.9658750 125.8936440  19.7016320
 141.8062380 126.9455310  20.3938760 125.3323100 142.9767580  18.8109250
 125.1645140 142.3438260  19.5091140 124.4657610 143.1826980  18.4603440
 125.9551120 126.8084360  16.3141110 126.7130480 126.9213240  15.7405140
 125.4928290 127.6453560  16.2684540 132.4964930 128.9223630  19.3043420
 131.6839440 128.5480520  18.9639300 133.0006570 128.1668710  19.6064610
 136.9989910 125.5866080  20.5426490 137.6019280 126.1586290  21.0175010
 136.2582900 126.1505520  20.3200390 140.1424510 125.9887640  15.8166770
 140.3375140 126.8871090  16.0834200 139.3554380 125.7574720  16.3099720
 126.9385800 141.6700810  16.2559390 126.4133420 142.0508840  15.5521350
 126.8630380 142.2951580  16.9769100 128.3276270 127.3348410  14.8543080
 128.8569030 126.5478210  14.7251030 128.9604590 128.0139600  15.0878610
 130.5214110 127.0723550  17.9088470 129.8916850 126.3710860  18.0758600
 129.9819250 127.8327680  17.6921630 133.4606060 143.6862780  30.5799080
 134.3873370 143.4507050  30.6235040 133.4456490 144.5134780  30.0985110
 141.6951120 143.2288350  17.5773330 141.8703310 142.5426090  16.9334250
 140.9972690 143.7535400  17.1850000 130.6469670 126.3507530  30.3440960
 130.3653940 126.8541130  29.5801780 131.0289370 125.5529280  29.9783090
 129.5378770 143.6183190  15.1308640 130.2697590 143.3342470  14.5832530
 129.7972440 143.3796470  16.0208020 128.6993560 139.7347920  15.1354970
 128.0702440 140.2033020  15.6840800 128.8141390 138.8897140  15.5701160
 137.2485130 125.7661110  30.9221430 137.1350580 126.0855720  31.8172950
 138.0654870 126.1673620  30.6258710 140.0283620 142.9132640  30.4040120
 140.8208940 142.4181870  30.1966080 140.3216770 143.5922780  31.0115730
 134.2861320 135.5632600   3.1665440 133.5103420 135.0833040   3.4564010
 134.9374250 134.8838250   2.9921600 128.3027150 135.8752410   4.0441200
 127.4712030 135.6201120   4.4437710 128.9108130 135.9463180   4.7799120
 138.3068750 139.9692790   1.9464570 137.8450280 139.1980030   2.2751740
 139.1194300 139.9958860   2.4517020 128.2828410 139.9092500   4.2399220
 128.5856450 139.0190240   4.0609440 129.0272000 140.4662720   4.0121470
 124.6752110 133.4359950   3.7123290 125.2468220 132.6682150   3.7126930
 124.6753650 133.7348710   2.8029900 133.7270310 138.2389790   3.1735600
 133.6578590 137.2979730   3.0124730 134.4890170 138.3291200   3.7458170
 125.9176980 128.8444310   5.4992220 125.7379820 127.9470060   5.7794980
 125.5157060 129.3916180   6.1739170 134.7575480 131.0460170   3.4004530
 135.1340300 130.1732050   3.2878200 134.6594990 131.3818870   2.5094970
 126.5363650 131.3404810   4.1074560 127.2173760 131.6043180   4.7261960
 126.2211700 130.5005680   4.4412570 130.7288220 132.3872170   3.1947150
 131.2366440 132.8853140   3.8352170 131.2601460 131.6107370   3.0186510
 142.8299150 130.5577360   6.8976500 142.1251320 130.9459070   6.3791610
 143.0957070 131.2527650   7.4997430 129.0124320 127.0270730   7.4610570
 129.0142760 127.5443120   6.6556470 128.1828630 126.5500910   7.4380500
 130.2627170 136.6665910   5.6384070 129.9296550 137.2934830   6.2805140
 130.4393850 137.1927790   4.8585740 138.7761080 130.4810990   3.1060410
 138.0716650 130.7695880   3.6863520 139.1373240 131.2911100   2.7459970
 128.6939650 128.7380690   5.4681020 129.0356460 129.5822740   5.1734890
 127.7555460 128.8864430   5.5846360 129.4746270 138.6346710   7.4533250
 130.0920270 139.3097790   7.1717700 128.6139390 139.0434690   7.3620750
 140.3923860 140.0986120   5.3687890 139.7087380 140.7685230   5.3604560
 140.9318150 140.2966770   4.6032750 141.8448000 129.9265780   3.4969620
 140.8972910 129.9604760   3.6285050 142.1697990 130.7404730   3.8818980
 137.9282600 141.9430250   4.0833070 137.9409760 141.5392540   3.2155330
 137.3757820 142.7177540   3.9794500 137.3268040 136.8460090   5.4115680
 137.7436830 136.6320200   4.5769140 138.0507860 137.1032880   5.9824300
 141.2730140 135.2447310   5.5031920 140.4448770 135.3140400   5.0282050
 141.8680620 135.8301620   5.0347750 138.2372150 132.0316630   6.4486790
 137.8243330 132.8570340   6.7026780 137.5048100 131.4461670   6.2563150
 130.8386640 138.5044090   3.4744670 130.5414930 137.8989560   2.7952450
 131.7886460 138.5421400   3.3634030 129.0833560 131.5919740   5.0904500
 129.6348150 131.7015080   4.3157750 129.5977070 131.9657340   5.8059730
 138.9272250 142.0775960   7.1367770 138.4502810 142.8848150   6.9440380
 138.2434040 141.4254290   7.2893980 129.9305070 138.2425780  10.1252470
 129.0333600 138.4665750  10.3725870 129.9557940 138.3660720   9.1763870
 128.7576290 135.1139100   8.7009840 128.6184060 135.9861900   9.0697240
 127.8757650 134.7711910   8.5557780 130.5556640 141.0560800  10.9094990
 130.5272070 141.4603750  10.0423420 130.3921610 140.1271160  10.7466590
 142.5071460 141.8387900  12.2059160 142.9831180 142.3170790  12.8848240
 143.1278620 141.7705390  11.4804660 124.7094940 136.8836650   4.6180750
 124.7875360 137.0185420   3.6736470 125.3236620 136.1752540   4.8108870
 141.9104710 139.0300750   9.3659170 142.0367770 138.7912630   8.4476350
 141.9526090 138.1985290   9.8381250 135.7721450 142.7328750   7.9353980
 136.2866120 142.6436760   8.7376410 134.9290530 143.0788450   8.2281890
 141.7628720 131.0833210  10.3308910 141.1472990 131.5912880   9.8024370
 141.4425140 130.1831540  10.2734850 124.7654460 137.9250820   7.1575210
 124.9285500 137.4556180   6.3394580 125.2306910 137.4174380   7.8224050
 129.5373230 127.0556580   2.1935780 129.0941380 127.8366120   1.8620300
 130.0958220 127.3786470   2.9006720 133.8243040 129.9225100   7.7971100
 133.3622410 130.1308120   8.6091040 133.4221150 129.1084450   7.4941770
 138.8247550 131.1434050   8.9267760 137.9741140 130.8439800   9.2476830
 138.6649340 131.3876060   8.0151580 135.9197260 132.6435800  11.0266550
 136.2450670 131.8099550  10.6868780 136.7077590 133.1664320  11.1744880
 131.5749130 127.6003910   4.0525380 131.8721460 128.5066740   3.9717400
 132.1234690 127.1122690   3.4384950 131.7686660 133.0775730  10.5877300
 131.6730260 132.1370460  10.4377700 132.6118640 133.2990800  10.1925370
 126.8997200 129.4889400   8.7411080 126.5060590 130.3364610   8.9483860
 126.2115600 128.8515770   8.9319720 133.4742250 129.5724370  11.8107820
 132.7840570 129.3796570  12.4453910 134.2174550 129.8559010  12.3432120
 124.2014250 127.4117860   2.7741160 123.9127300 127.9820720   3.4866140
 124.9460010 126.9322310   3.1372390 135.7505220 133.4122810   4.6461740
 135.0186340 133.9209620   4.9951840 135.3529560 132.5952790   4.3450520
 132.1882610 130.0877010   3.0514230 132.1918670 129.6466960   2.2018770
 133.0833730 130.4094340   3.1586050 128.0384990 129.9703500   2.0108440
 127.6985040 130.4478730   2.7675490 127.2762310 129.5168620   1.6509540
 136.2131130 128.8656490   4.0584680 136.2303870 129.3165140   4.9026530
 135.9646710 127.9662130   4.2718120 139.6401880 126.2788670   9.8971060
 139.9647650 125.5478330  10.4229040 139.6758390 125.9602310   8.9952050
 126.3393440 137.3002250   9.3171020 125.9548230 136.6595920   9.9153980
 126.6505630 138.0038370   9.8865750 132.4890580 134.1478790   4.7979640
 132.8560710 133.6737360   5.5440980 132.2995640 135.0220360   5.1387980
 130.2789950 133.1887430   7.1163850 129.9747020 134.0679410   7.3414210
 131.2336410 133.2487220   7.1521290 139.5659720 136.3913780   3.5057090
 140.2858840 136.8869070   3.1153200 139.3641540 135.7131670   2.8610960
 134.9478520 136.4622840   9.3926090 134.8815830 135.5418510   9.1383680
 134.3183660 136.5598280  10.1070730 126.3353680 134.0290170   8.2635210
 125.9768620 134.6944020   8.8508550 126.0408240 133.1973720   8.6347830
 129.5366800 134.4874410  11.1474760 129.2366940 134.6331590  10.2502580
 130.3078040 133.9279700  11.0548150 134.8795250 139.2843410   9.1429890
 134.8939790 138.3524370   8.9248800 134.1720350 139.3703170   9.7819660
 141.0906460 135.9250750   8.4898470 140.3654650 136.5179530   8.2927860
 141.6181920 135.9174290   7.6911840 134.3129150 140.9260980   6.2370390
 134.9571370 141.1320360   6.9143810 134.6758590 140.1649380   5.7841240
 135.5861230 138.9293330   4.9547840 136.2283460 138.2286490   5.0680010
 136.1110580 139.7091770   4.7744730 137.3598850 139.7288230   8.1583900
 137.6955090 140.3154920   8.8361820 136.4399190 139.5980940   8.3881690
 124.9102250 127.5183410   8.9407310 124.1960770 127.7180330   9.5459920
 125.3297290 126.7422980   9.3122110 125.1974840 141.5063670   9.9273840
 125.3065960 140.5658410   9.7869230 124.5455400 141.7718420   9.2787570
 133.1887430 139.7779560  11.3271960 132.8684300 139.0588800  11.8717650
 132.5145790 140.4534630  11.4008020 136.4041030 130.0105720   6.6908760
 136.7721850 129.1900930   7.0188330 135.5439230 130.0707610   7.1064410
 133.3643020 132.6645310   6.9146730 133.8628270 133.1391130   7.5798580
 133.5065970 131.7408830   7.1216760 140.5709880 128.8813270   7.7575120
 140.0683480 129.6218670   8.0968930 141.3866540 129.2697270   7.4411910
 140.8657470 141.2955300   2.8790740 140.9904890 142.1186470   3.3514550
 141.7323030 141.0846030   2.5314890 128.3375000 143.3886510   2.5507870
 129.0737480 142.8401970   2.8216440 128.7215920 144.2542520   2.4113860
 127.3433280 142.5732580  11.7393450 128.1446010 142.8944630  12.1528850
 126.8285100 142.2128160  12.4613360 136.1797910 138.6812450  11.6868860
 135.5736070 138.7044050  10.9464610 135.8752020 137.9495490  12.2236110
 137.6098280 142.4092740  10.2978270 138.5620030 142.3250760  10.2478510
 137.4626500 143.0734450  10.9712060 125.0631090 135.0606040  10.6829500
 125.5670110 134.4813320  11.2545730 124.3238510 135.3446270  11.2205870
 132.1169030 136.4677030  10.2165020 131.3514700 137.0362030  10.1319690
 132.2984990 136.1753240   9.3233250 139.2592380 138.1982360  10.7740040
 140.0001850 138.5358120  10.2707500 138.4965060 138.3674420  10.2209810
 127.0954170 133.2035630  11.5779570 127.1359510 132.9049500  12.4864800
 127.9499670 133.6043240  11.4187090 129.0359980 131.7827730   9.5454060
 128.5056440 131.2918680   8.9177400 129.7048050 132.2111930   9.0111990
 137.9338040 136.2497190   9.3095250 138.3479060 136.4042270  10.1585670
 136.9989040 136.3752410   9.4721030 138.4060210 133.5893350  11.3134400
 138.9880980 132.8345670  11.2254880 138.5821980 134.1200790  10.5365880
 129.5232280 128.7490100   9.6251350 129.4289150 128.1310850   8.9002220
 128.9429670 129.4756390   9.3981260 132.2893720 127.3063340   6.6578740
 131.8411020 127.3287600   5.8124290 131.6558920 126.9082360   7.2549040
 132.6953270 136.2017670   7.2791180 133.1141380 137.0450400   7.1067420
 131.7761900 136.3389710   7.0497960 135.0317170 133.9333850   8.6629020
 135.1513380 133.3374990   9.4023860 135.8911170 133.9703540   8.2430320
 137.3705070 134.4871040   7.2391530 136.8440290 135.0113660   6.6356670
 137.7136410 135.1198430   7.8701260 130.5460690 142.5070680   8.3948910
 130.0081780 143.2316740   8.0757610 130.7994650 142.0301020   7.6046250
 131.7985940 130.4755200   9.9204840 132.3885630 130.1671050  10.6082660
 130.9806180 130.0034950  10.0764740 136.6179370 130.0921010  10.1537860
 135.9294890 129.4302550  10.0887850 137.3385390 129.6459280  10.5986320
 133.4022900 143.7421890   8.6535560 133.3281600 144.6457030   8.9607930
 132.5001740 143.4233790   8.6257630 124.8050190 141.0696480   1.9569180
 125.1353200 140.2017540   1.7247820 125.2341190 141.2755000   2.7874140
 125.2940400 141.9367070   4.6950810 124.8571390 142.1167870   5.5274960
 125.8618080 142.6941690   4.5532530 140.9302580 141.4384070   8.9828120
 140.3304570 141.4976630   8.2392040 141.0596480 140.4989050   9.1124970
 139.6154220 138.1636050   7.0804280 138.8014060 138.5933210   7.3430070
 140.0228420 138.7754460   6.4673330 126.1640760 134.8339870   5.5943030
 126.5313800 134.7467270   6.4739050 125.5951580 134.0706420   5.4949890
 140.9644620 133.3024250   8.6073500 140.7330710 133.0737000   7.7071450
 141.2249170 134.2223800   8.5618390 125.7156760 131.7448960   9.5001450
 124.8212810 131.7115720   9.8395160 126.2554310 131.9435750  10.2652700
 139.4032690 128.5280680  11.3853200 140.2802870 128.5364080  11.7687200
 139.4153530 127.7911520  10.7745550 140.8495960 132.3810220   2.2741220
 141.3733440 131.8872870   1.6431390 141.4355380 132.5160580   3.0188790
 141.0285680 132.4650090   5.7960770 140.0788390 132.4313630   5.9105760
 141.2098690 133.3750200   5.5610540 126.2196470 126.0197290   3.8484670
 126.8672660 125.4694670   3.4079830 126.6398310 126.2740440   4.6700480
 140.1148810 126.2138650   7.2054310 140.7521030 126.8272790   7.5713500
 140.2623700 126.2499310   6.2603540 125.9728470 126.1752960   6.5909990
 125.6243290 126.6316780   7.3568170 125.6416170 125.2810090   6.6732420
 127.5792840 139.3472560  10.7563180 127.5362470 138.9765470  11.6377640
 127.7103850 140.2850130  10.8965000 131.2798870 140.9032150   6.3572900
 131.0390230 141.1706710   5.4703420 132.2201510 141.0737880   6.4123760
 133.4853290 127.3664840  10.1129410 133.4242180 127.9586670  10.8624820
 134.4253670 127.2590800   9.9679670 136.1227850 127.0234900   9.7521700
 136.7368260 127.3414190   9.0902780 136.6677410 126.5383490  10.3717560
 142.5403030 142.9226530   7.1583540 142.0461310 143.3195400   6.4410670
 141.9316320 142.2975740   7.5520820 126.6449110 125.7029160   9.8660760
 127.1932100 125.5217210   9.1026870 126.7104420 124.9123270  10.4017070
 127.4180870 142.2934810   7.8760960 126.8241190 142.1619510   8.6151000
 127.4104710 141.4572950   7.4103060 136.8635890 125.5867040   6.0790990
 135.9895730 125.9202150   5.8763920 136.7546640 125.1140220   6.9042860
 137.7707870 127.7937910   7.4632710 137.4421230 126.9789670   7.0834440
 138.7190170 127.7507720   7.3398400 140.2242480 143.5649950   4.4370280
 139.7645450 144.3165760   4.0628300 139.5954940 142.8456420   4.3785080
 127.0493100 139.6593190   6.8269000 126.3227160 139.0398480   6.7594950
 127.1102250 140.0533800   5.9567080 130.6538200 141.8738190   3.6118410
 131.1703220 141.2625550   3.0866670 131.3035580 142.3766970   4.1029420
 133.3933700 142.7646680   4.4387390 133.6811510 142.5100980   3.5620400
 133.9056920 142.2124040   5.0292960 134.6110710 126.5036880   5.0183900
 133.8282500 126.9782380   5.2980660 134.3173640 125.5991710   4.9097080
 139.1631780 127.2059980   3.0632990 139.6039870 127.1505080   2.2154590
 138.8939370 128.1217990   3.1343170 136.9989910 125.5866080   1.7683000
 137.6019280 126.1586290   2.2431520 136.2582900 126.1505520   1.5456900
 133.4606060 143.6862780  11.8055590 134.3873370 143.4507050  11.8491550
 133.4456490 144.5134780  11.3241620 130.6469670 126.3507530  11.5697470
 130.3653940 126.8541130  10.8058290 131.0289370 125.5529280  11.2039600
 137.2485130 125.7661110  12.1477940 137.1350580 126.0855720  13.0429460
 138.0654870 126.1673620  11.8515220 140.0283620 142.9132640  11.6296630
 140.8208940 142.4181870  11.4222590 140.3216770 143.5922780  12.2372240
 136.1543280 115.0110090 151.4804090 136.0737330 114.0964700 151.2095800
 135.7407700 115.5077160 150.7743800 134.2861320 116.7889110 153.3613360
 133.5103420 116.3089550 153.6511930 134.9374250 116.1094760 153.1869520
 138.3068750 121.1949300 152.1412490 137.8450280 120.4236540 152.4699660
 139.1194300 121.2215370 152.6464940 128.2828410 121.1349010 154.4347140
 128.5856450 120.2446750 154.2557360 129.0272000 121.6919230 154.2069390
 126.7119100 112.0610810 148.0231510 125.8235800 112.4026780 147.9211390
 126.9960290 111.8611130 147.1312340 124.6752110 114.6616460 153.9071210
 125.2468220 113.8938660 153.9074850 124.6753650 114.9605220 152.9977820
 134.5332060 123.4807310 151.7616480 133.9143500 123.9364810 151.1910920
 135.3883840 123.6358770 151.3606180 133.7270310 119.4646300 153.3683520
 133.6578590 118.5236240 153.2072650 134.4890170 119.5547710 153.9406090
 134.7575480 112.2716680 153.5952450 135.1340300 111.3988560 153.4826120
 134.6594990 112.6075380 152.7042890 128.8880490 110.6442310 149.0569890
 128.9947240 111.5446040 149.3638650 127.9772850 110.5960280 148.7664540
 138.5399600 109.7667120 150.5280790 139.3609220 109.2763690 150.5706270
 138.5733680 110.3564780 151.2812630 130.7288220 113.6128680 153.3895070
 131.2366440 114.1109650 154.0300090 131.2601460 112.8363880 153.2134430
 135.3995410 118.3646550 149.1548390 134.7812680 118.8296000 148.5911110
 135.9118660 119.0574030 149.5717900 138.7761080 111.7067500 153.3008330
 138.0716650 111.9952390 153.8811440 139.1373240 112.5167610 152.9407890
 124.7678610 119.0503080 146.5288020 124.3906590 119.5390180 145.7972920
 125.0251680 119.7228360 147.1594550 141.8448000 111.1522290 153.6917540
 140.8972910 111.1861270 153.8232970 142.1697990 111.9661240 154.0766900
 132.3767540 107.4519470 151.9873530 132.6842520 106.8966360 151.2709030
 131.4468240 107.5863930 151.8046520 137.9282600 123.1686760 154.2780990
 137.9409760 122.7649050 153.4103250 137.3757820 123.9434050 154.1742420
 139.2228020 119.8902980 149.3671160 139.1124350 118.9477310 149.4920580
 139.2196270 120.2518620 150.2533920 134.7648300 115.5168300 148.7233650
 133.8377580 115.4505680 148.9522120 134.9173120 116.4548430 148.6088890
 134.7517380 111.7885300 145.7200810 133.8121050 111.9499260 145.8053270
 135.0700640 112.5070980 145.1736800 138.7945590 117.0788600 149.2268900
 138.1758010 116.7408150 148.5795200 138.7770040 116.4348360 149.9348090
 130.3704940 116.0433040 151.5053380 129.9661940 115.3310290 151.0099280
 130.4568060 115.6986280 152.3941420 130.8386640 119.7300600 153.6692590
 130.5414930 119.1246070 152.9900370 131.7886460 119.7677910 153.5581950
 136.9710290 116.3175410 146.2341650 137.4103570 115.4797840 146.0879470
 137.6838710 116.9504810 146.3205790 135.0805670 121.2571480 150.2022890
 135.5201580 121.9995810 149.7878280 135.0192560 121.4998050 151.1261850
 140.5527430 107.5718220 144.5482690 140.2400090 107.6645050 145.4481760
 141.3139900 108.1499250 144.4980120 127.0709570 114.9378020 149.0060030
 126.9507170 115.6640110 148.3941300 126.7610460 114.1680930 148.5287940
 125.9542570 119.8093350 151.2234850 125.5470650 119.9507940 150.3688450
 126.8455580 119.5253510 151.0206060 137.7475850 124.2440600 147.5585900
 137.5876990 123.9543540 148.4567730 137.5822560 123.4680730 147.0231130
 130.2264230 124.0239130 149.3357520 130.0506710 123.1074670 149.1225320
 129.3719970 124.3826420 149.5755320 137.4501980 121.7528160 146.1183900
 136.7567140 121.7505450 145.4586180 138.1924840 121.3287480 145.6878070
 137.0151910 123.3790870 150.1932390 137.4708860 122.5980250 150.5071010
 137.3544430 124.0897690 150.7373570 129.5373230 108.2813090 152.3883700
 129.0941380 109.0622630 152.0568220 130.0958220 108.6042980 153.0954640
 132.6532050 107.9023790 147.2689530 132.0286230 107.8983660 147.9942840
 132.5662170 107.0354750 146.8725500 131.5749130 108.8260420 154.2473300
 131.8721460 109.7323250 154.1665320 132.1234690 108.3379200 153.6332870
 129.3287450 113.4046660 150.1164950 129.1028370 113.1883830 151.0211570
 128.5479980 113.8375120 149.7710920 136.5585210 113.4110030 148.7155600
 135.9594100 114.1345830 148.5319220 137.1064820 113.3486810 147.9332050
 135.1650080 112.0473570 150.7458880 135.5579650 112.3645770 149.9327570
 135.5266930 111.1685450 150.8603400 124.2014250 108.6374370 152.9689080
 123.9127300 109.2077230 153.6814060 124.9460010 108.1578820 153.3320310
 124.3884480 112.5794490 144.1791800 124.3059150 113.5225250 144.3206790
 124.0367540 112.4369400 143.3004150 132.1882610 111.3133520 153.2462150
 132.1918670 110.8723470 152.3966690 133.0833730 111.6350850 153.3533970
 128.0384990 111.1960010 152.2056360 127.6985040 111.6735240 152.9623410
 127.2762310 110.7425130 151.8457460 132.2502760 112.3145600 146.2368910
 132.3715580 112.2732080 147.1854730 131.8651270 113.1769750 146.0815640
 131.2624260 114.6246740 145.6352210 130.6941160 114.1764990 145.0088120
 131.9713260 114.9839520 145.1017360 125.3531070 110.1178990 151.1221030
 125.0677990 109.7534660 151.9599650 125.2909930 109.3859450 150.5084170
 128.8071740 118.6204930 147.9078620 128.0334000 118.0802550 147.7477340
 129.5366370 118.1011540 147.5696380 139.5659720 117.6170290 153.7005010
 140.2858840 118.1125580 153.3101120 139.3641540 116.9388180 153.0558880
 135.0269660 109.0108250 147.8434400 134.2134270 108.5121420 147.7679710
 134.8331610 109.8506500 147.4270750 137.7418050 113.3827900 146.1396560
 138.6297670 113.6945130 145.9647900 137.7123140 112.5100150 145.7477140
 128.8509140 118.2885310 151.5457430 129.3687810 117.4853570 151.4914320
 128.3993160 118.2264450 152.3874260 133.7378640 119.5551590 146.8184730
 134.0794340 120.2993820 146.3228050 132.9091350 119.8682710 147.1809560
 140.0132320 114.6939740 145.6076420 139.9296040 115.1253960 144.7572860
 140.7326510 115.1538090 146.0403240 141.0419570 121.5482000 148.3358550
 140.3995730 120.8937620 148.6102270 140.6550230 121.9537090 147.5599220
 136.6206050 118.8767430 152.1830240 136.9729870 118.2795560 151.5231610
 135.7368380 118.5511660 152.3538490 132.7069330 119.6365120 149.5900650
 133.3940460 120.1834330 149.9708240 131.9201750 120.1805850 149.6250260
 124.8461730 115.2537940 145.0817730 125.7156580 115.5362740 145.3653650
 124.3552050 116.0673810 144.9666540 132.0096540 116.6411150 149.2026010
 132.4659320 117.4516400 149.4286200 131.6584750 116.3234290 150.0344500
 127.9108320 106.9848800 149.6748530 127.7822950 106.9766700 150.6233450
 127.0870340 107.3231890 149.3239540 139.4316950 120.4398460 144.8734900
 139.2054530 119.7228900 145.4659540 139.0413150 120.1910900 144.0356650
 125.2132980 124.4665320 145.6479360 125.5730620 125.0654660 144.9936630
 125.0725320 125.0125210 146.4214390 139.0133200 118.3570400 146.5349060
 138.7254900 118.8183090 147.3226940 139.8085370 117.8968170 146.8033280
 131.2301600 121.8496520 146.4653030 131.2211700 122.5826210 145.8497540
 130.3099960 121.6028100 146.5579990 126.8308240 117.0711410 147.2099790
 126.2236190 117.8110310 147.2195090 127.3057590 117.1610770 146.3837990
 139.7703060 110.1919170 147.6944240 139.1416220 110.2964840 146.9802470
 139.2754980 110.4115950 148.4838120 134.2161200 121.9124760 145.1278220
 134.3173180 121.7088750 144.1980200 133.3162940 121.6583040 145.3326000
 131.7387090 112.4705120 149.1102120 131.0303240 112.9391460 149.5515730
 132.0231570 111.8127130 149.7447310 135.7702520 109.1955780 150.5497910
 135.6470300 109.2141910 149.6007420 136.7187080 109.2434720 150.6696310
 132.8579310 124.4311080 149.8225890 133.1120810 124.3932470 148.9005260
 131.9091790 124.3044410 149.8154140 129.9422110 110.7790200 146.4852830
 130.7912640 111.2160350 146.4193020 129.5753380 111.0910460 147.3124890
 138.8631890 115.3502960 151.3984400 137.9222030 115.3653190 151.5732090
 139.1775960 114.5638920 151.8444700 128.8413530 117.0322560 144.9588360
 129.6076800 116.9203920 145.5213790 128.9188220 116.3360530 144.3065130
 127.5360290 114.4647630 145.6421250 127.6163880 113.5175140 145.7538650
 128.4280040 114.7954510 145.7481910 140.8657470 122.5211810 153.0738660
 140.9904890 123.3442980 153.5462470 141.7323030 122.3102540 152.7262810
 128.3375000 124.6143020 152.7455790 129.0737480 124.0658480 153.0164360
 128.7215920 125.4799030 152.6061780 125.2220480 120.6816590 148.6197300
 124.2960260 120.9237730 148.6102710 125.6876910 121.5090850 148.4982050
 131.4477310 123.7873330 144.5681360 132.2405920 124.0762160 144.1163150
 130.9281660 123.3565500 143.8893840 140.5007480 123.0143460 145.9918100
 140.2148990 122.6008600 145.1772280 140.3027030 123.9431170 145.8718620
 131.9654710 119.0076740 144.4323710 131.8605350 118.3929090 145.1585090
 131.7978930 118.4842630 143.6486720 135.2057440 118.0696770 145.0365700
 134.6567540 118.5166070 145.6808440 135.8276700 117.5646020 145.5603370
 130.8732560 117.0287690 146.9331000 131.2948980 116.8627560 147.7762390
 130.9983400 116.2187920 146.4386140 133.3860200 116.0525300 144.1808100
 133.9065860 115.3374320 143.8149250 134.0328600 116.6911170 144.4808610
 129.7691460 113.1020920 143.8789160 129.5680520 112.2388280 144.2402500
 129.5983510 113.0154280 142.9410760 137.2479770 107.9129150 146.4076040
 137.5282060 107.0697050 146.7635460 136.4745500 108.1452260 146.9214790
 128.5674260 110.2021540 143.8667040 128.8700160 110.2088970 142.9586190
 129.3068850 109.8519400 144.3634700 131.7859190 109.1456160 144.8523240
 131.4381190 108.4680150 144.2725690 131.9871960 108.6845670 145.6666630
 133.9508230 124.1336910 146.4709840 134.8459020 124.4721880 146.4928600
 133.9825860 123.4116320 145.8434120 127.5904390 119.5063960 144.6996840
 128.0279260 120.0493630 145.3554420 128.0752120 118.6810910 144.7093180
 124.8050190 122.2952990 152.1517100 125.1353200 121.4274050 151.9195740
 125.2341190 122.5011510 152.9822060 129.4012110 120.6262000 149.8119070
 129.1007650 120.5026970 150.7122980 129.2949600 119.7670590 149.4034800
 142.1704030 120.4058400 144.5145750 141.3396990 120.4735050 144.9852980
 142.3475860 121.2962520 144.2112610 141.6260490 117.1505880 147.0179950
 142.3879400 117.7202530 147.1239640 141.6414860 116.5833080 147.7888260
 125.1264830 115.6743810 151.2487610 124.4713670 115.4055450 150.6047310
 125.9642780 115.5648290 150.7989590 142.6320460 118.0055980 151.8621880
 143.0029290 117.2223300 151.4557850 143.2722390 118.6945080 151.6839180
 141.6779660 117.4440250 144.1752470 141.9528500 118.3519130 144.0471690
 141.4890400 117.3802780 145.1114460 138.0755270 110.4685100 145.4706100
 138.4940150 110.2816080 144.6302760 137.7691330 109.6164150 145.7809030
 141.5745000 115.3809240 149.1681900 141.1988600 114.6137170 148.7363190
 140.8448120 115.7631940 149.6556830 124.3402910 112.8842740 147.1912940
 123.4366990 113.1472940 147.0164600 124.8243530 113.1553910 146.4112900
 140.8495960 113.6066730 152.4689140 141.3733440 113.1129380 151.8379310
 141.4355380 113.7417090 153.2136710 126.8830120 111.9408280 145.1007320
 127.5921820 111.5191500 144.6154600 126.1670060 112.0083510 144.4690670
 126.5304280 107.9947610 144.1409970 127.2532410 108.5356550 144.4591190
 126.8028800 107.7211030 143.2651510 140.3395930 112.8640080 148.4081550
 140.8355050 112.6310950 149.1930430 140.1412000 112.0251920 147.9919190
 141.7683090 111.5001030 150.9419230 141.6582370 111.3457070 151.8801500
 142.5290680 110.9721970 150.6994640 142.6573360 109.3308950 144.1825370
 143.5822670 109.1990130 143.9743660 142.6349150 109.4101770 145.1361820
 142.7311850 110.1019610 146.8082080 141.9363350 110.0364730 147.3374990
 142.9355130 111.0370250 146.7967430 139.6730270 124.1411160 150.8020470
 140.2689340 123.8195730 150.1254890 139.9308420 123.6682980 151.5933740
 130.6538200 123.0994700 153.8066330 131.1703220 122.4882060 153.2814590
 131.3035580 123.6023480 154.2977340 139.1631780 108.4316490 153.2580910
 139.6039870 108.3761590 152.4102510 138.8939370 109.3474500 153.3291090
 141.0270350 108.0631730 151.2689730 140.9658750 107.1192950 151.1220750
 141.8062380 108.1711820 151.8143190 125.3323100 124.2024090 150.2313680
 125.1645140 123.5694770 150.9295570 124.4657610 124.4083490 149.8807870
 125.9551120 108.0340870 147.7345540 126.7130480 108.1469750 147.1609570
 125.4928290 108.8710070 147.6888970 132.4964930 110.1480140 150.7247850
 131.6839440 109.7737030 150.3843730 133.0006570 109.3925220 151.0269040
 136.9989910 106.8122590 151.9630920 137.6019280 107.3842800 152.4379440
 136.2582900 107.3762030 151.7404820 140.1424510 107.2144150 147.2371200
 140.3375140 108.1127600 147.5038630 139.3554380 106.9831230 147.7304150
 126.9385800 122.8957320 147.6763820 126.4133420 123.2765350 146.9725780
 126.8630380 123.5208090 148.3973530 128.3276270 108.5604920 146.2747510
 128.8569030 107.7734720 146.1455460 128.9604590 109.2396110 146.5083040
 130.5214110 108.2980060 149.3292900 129.8916850 107.5967370 149.4963030
 129.9819250 109.0584190 149.1126060 141.6951120 124.4544860 148.9977760
 141.8703310 123.7682600 148.3538680 140.9972690 124.9791910 148.6054430
 129.5378770 124.8439700 146.5513070 130.2697590 124.5598980 146.0036960
 129.7972440 124.6052980 147.4412450 128.6993560 120.9604430 146.5559400
 128.0702440 121.4289530 147.1045230 128.8141390 120.1153650 146.9905590
 136.1543280 115.0110090 132.7060600 136.0737330 114.0964700 132.4352310
 135.7407700 115.5077160 132.0000310 134.2861320 116.7889110 134.5869870
 133.5103420 116.3089550 134.8768440 134.9374250 116.1094760 134.4126030
 128.3027150 117.1008920 135.4645630 127.4712030 116.8457630 135.8642140
 128.9108130 117.1719690 136.2003550 138.3068750 121.1949300 133.3669000
 137.8450280 120.4236540 133.6956170 139.1194300 121.2215370 133.8721450
 128.2828410 121.1349010 135.6603650 128.5856450 120.2446750 135.4813870
 129.0272000 121.6919230 135.4325900 126.7119100 112.0610810 129.2488020
 125.8235800 112.4026780 129.1467900 126.9960290 111.8611130 128.3568850
 124.6752110 114.6616460 135.1327720 125.2468220 113.8938660 135.1331360
 124.6753650 114.9605220 134.2234330 134.5332060 123.4807310 132.9872990
 133.9143500 123.9364810 132.4167430 135.3883840 123.6358770 132.5862690
 133.7270310 119.4646300 134.5940030 133.6578590 118.5236240 134.4329160
 134.4890170 119.5547710 135.1662600 125.9176980 110.0700820 136.9196650
 125.7379820 109.1726570 137.1999410 125.5157060 110.6172690 137.5943600
 134.7575480 112.2716680 134.8208960 135.1340300 111.3988560 134.7082630
 134.6594990 112.6075380 133.9299400 128.8880490 110.6442310 130.2826400
 128.9947240 111.5446040 130.5895160 127.9772850 110.5960280 129.9921050
 138.5399600 109.7667120 131.7537300 139.3609220 109.2763690 131.7962780
 138.5733680 110.3564780 132.5069140 126.5363650 112.5661320 135.5278990
 127.2173760 112.8299690 136.1466390 126.2211700 111.7262190 135.8617000
 130.7288220 113.6128680 134.6151580 131.2366440 114.1109650 135.2556600
 131.2601460 112.8363880 134.4390940 142.8299150 111.7833870 138.3180930
 142.1251320 112.1715580 137.7996040 143.0957070 112.4784160 138.9201860
 129.0124320 108.2527240 138.8815000 129.0142760 108.7699630 138.0760900
 128.1828630 107.7757420 138.8584930 135.3995410 118.3646550 130.3804900
 134.7812680 118.8296000 129.8167620 135.9118660 119.0574030 130.7974410
 130.2627170 117.8922420 137.0588500 129.9296550 118.5191340 137.7009570
 130.4393850 118.4184300 136.2790170 138.7761080 111.7067500 134.5264840
 138.0716650 111.9952390 135.1067950 139.1373240 112.5167610 134.1664400
 128.6939650 109.9637200 136.8885450 129.0356460 110.8079250 136.5939320
 127.7555460 110.1120940 137.0050790 129.4746270 119.8603220 138.8737680
 130.0920270 120.5354300 138.5922130 128.6139390 120.2691200 138.7825180
 124.7678610 119.0503080 127.7544530 124.3906590 119.5390180 127.0229430
 125.0251680 119.7228360 128.3851060 140.3923860 121.3242630 136.7892320
 139.7087380 121.9941740 136.7808990 140.9318150 121.5223280 136.0237180
 141.8448000 111.1522290 134.9174050 140.8972910 111.1861270 135.0489480
 142.1697990 111.9661240 135.3023410 132.3767540 107.4519470 133.2130040
 132.6842520 106.8966360 132.4965540 131.4468240 107.5863930 133.0303030
 137.9282600 123.1686760 135.5037500 137.9409760 122.7649050 134.6359760
 137.3757820 123.9434050 135.3998930 139.2228020 119.8902980 130.5927670
 139.1124350 118.9477310 130.7177090 139.2196270 120.2518620 131.4790430
 137.3268040 118.0716600 136.8320110 137.7436830 117.8576710 135.9973570
 138.0507860 118.3289390 137.4028730 134.7648300 115.5168300 129.9490160
 133.8377580 115.4505680 130.1778630 134.9173120 116.4548430 129.8345400
 134.7517380 111.7885300 126.9457320 133.8121050 111.9499260 127.0309780
 135.0700640 112.5070980 126.3993310 141.2730140 116.4703820 136.9236350
 140.4448770 116.5396910 136.4486480 141.8680620 117.0558130 136.4552180
 138.7945590 117.0788600 130.4525410 138.1758010 116.7408150 129.8051710
 138.7770040 116.4348360 131.1604600 138.2372150 113.2573140 137.8691220
 137.8243330 114.0826850 138.1231210 137.5048100 112.6718180 137.6767580
 130.3704940 116.0433040 132.7309890 129.9661940 115.3310290 132.2355790
 130.4568060 115.6986280 133.6197930 130.8386640 119.7300600 134.8949100
 130.5414930 119.1246070 134.2156880 131.7886460 119.7677910 134.7838460
 129.0833560 112.8176250 136.5108930 129.6348150 112.9271590 135.7362180
 129.5977070 113.1913850 137.2264160 138.9272250 123.3032470 138.5572200
 138.4502810 124.1104660 138.3644810 138.2434040 122.6510800 138.7098410
 129.9305070 119.4682290 141.5456900 129.0333600 119.6922260 141.7930300
 129.9557940 119.5917230 140.5968300 136.9710290 116.3175410 127.4598160
 137.4103570 115.4797840 127.3135980 137.6838710 116.9504810 127.5462300
 128.7576290 116.3395610 140.1214270 128.6184060 117.2118410 140.4901670
 127.8757650 115.9968420 139.9762210 135.0805670 121.2571480 131.4279400
 135.5201580 121.9995810 131.0134790 135.0192560 121.4998050 132.3518360
 130.5556640 122.2817310 142.3299420 130.5272070 122.6860260 141.4627850
 130.3921610 121.3527670 142.1671020 140.5527430 107.5718220 125.7739200
 140.2400090 107.6645050 126.6738270 141.3139900 108.1499250 125.7236630
 127.0709570 114.9378020 130.2316540 126.9507170 115.6640110 129.6197810
 126.7610460 114.1680930 129.7544450 142.5071460 123.0644410 143.6263590
 142.9831180 123.5427300 144.3052670 143.1278620 122.9961900 142.9009090
 124.7094940 118.1093160 136.0385180 124.7875360 118.2441930 135.0940900
 125.3236620 117.4009050 136.2313300 125.9542570 119.8093350 132.4491360
 125.5470650 119.9507940 131.5944960 126.8455580 119.5253510 132.2462570
 141.9104710 120.2557260 140.7863600 142.0367770 120.0169140 139.8680780
 141.9526090 119.4241800 141.2585680 135.7721450 123.9585260 139.3558410
 136.2866120 123.8693270 140.1580840 134.9290530 124.3044960 139.6486320
 137.7475850 124.2440600 128.7842410 137.5876990 123.9543540 129.6824240
 137.5822560 123.4680730 128.2487640 130.2264230 124.0239130 130.5614030
 130.0506710 123.1074670 130.3481830 129.3719970 124.3826420 130.8011830
 137.4501980 121.7528160 127.3440410 136.7567140 121.7505450 126.6842690
 138.1924840 121.3287480 126.9134580 137.0151910 123.3790870 131.4188900
 137.4708860 122.5980250 131.7327520 137.3544430 124.0897690 131.9630080
 141.7628720 112.3089720 141.7513340 141.1472990 112.8169390 141.2228800
 141.4425140 111.4088050 141.6939280 124.7654460 119.1507330 138.5779640
 124.9285500 118.6812690 137.7599010 125.2306910 118.6430890 139.2428480
 129.5373230 108.2813090 133.6140210 129.0941380 109.0622630 133.2824730
 130.0958220 108.6042980 134.3211150 133.8243040 111.1481610 139.2175530
 133.3622410 111.3564630 140.0295470 133.4221150 110.3340960 138.9146200
 138.8247550 112.3690560 140.3472190 137.9741140 112.0696310 140.6681260
 138.6649340 112.6132570 139.4356010 135.9197260 113.8692310 142.4470980
 136.2450670 113.0356060 142.1073210 136.7077590 114.3920830 142.5949310
 132.6532050 107.9023790 128.4946040 132.0286230 107.8983660 129.2199350
 132.5662170 107.0354750 128.0982010 131.5749130 108.8260420 135.4729810
 131.8721460 109.7323250 135.3921830 132.1234690 108.3379200 134.8589380
 129.3287450 113.4046660 131.3421460 129.1028370 113.1883830 132.2468080
 128.5479980 113.8375120 130.9967430 136.5585210 113.4110030 129.9412110
 135.9594100 114.1345830 129.7575730 137.1064820 113.3486810 129.1588560
 131.7686660 114.3032240 142.0081730 131.6730260 113.3626970 141.8582130
 132.6118640 114.5247310 141.6129800 135.1650080 112.0473570 131.9715390
 135.5579650 112.3645770 131.1584080 135.5266930 111.1685450 132.0859910
 126.8997200 110.7145910 140.1615510 126.5060590 111.5621120 140.3688290
 126.2115600 110.0772280 140.3524150 133.4742250 110.7980880 143.2312250
 132.7840570 110.6053080 143.8658340 134.2174550 111.0815520 143.7636550
 124.2014250 108.6374370 134.1945590 123.9127300 109.2077230 134.9070570
 124.9460010 108.1578820 134.5576820 124.3884480 112.5794490 125.4048310
 124.3059150 113.5225250 125.5463300 124.0367540 112.4369400 124.5260660
 135.7505220 114.6379320 136.0666170 135.0186340 115.1466130 136.4156270
 135.3529560 113.8209300 135.7654950 132.1882610 111.3133520 134.4718660
 132.1918670 110.8723470 133.6223200 133.0833730 111.6350850 134.5790480
 128.0384990 111.1960010 133.4312870 127.6985040 111.6735240 134.1879920
 127.2762310 110.7425130 133.0713970 132.2502760 112.3145600 127.4625420
 132.3715580 112.2732080 128.4111240 131.8651270 113.1769750 127.3072150
 136.2131130 110.0913000 135.4789110 136.2303870 110.5421650 136.3230960
 135.9646710 109.1918640 135.6922550 131.2624260 114.6246740 126.8608720
 130.6941160 114.1764990 126.2344630 131.9713260 114.9839520 126.3273870
 139.6401880 107.5045180 141.3175490 139.9647650 106.7734840 141.8433470
 139.6758390 107.1858820 140.4156480 126.3393440 118.5258760 140.7375450
 125.9548230 117.8852430 141.3358410 126.6505630 119.2294880 141.3070180
 132.4890580 115.3735300 136.2184070 132.8560710 114.8993870 136.9645410
 132.2995640 116.2476870 136.5592410 125.3531070 110.1178990 132.3477540
 125.0677990 109.7534660 133.1856160 125.2909930 109.3859450 131.7340680
 130.2789950 114.4143940 138.5368280 129.9747020 115.2935920 138.7618640
 131.2336410 114.4743730 138.5725720 128.8071740 118.6204930 129.1335130
 128.0334000 118.0802550 128.9733850 129.5366370 118.1011540 128.7952890
 139.5659720 117.6170290 134.9261520 140.2858840 118.1125580 134.5357630
 139.3641540 116.9388180 134.2815390 135.0269660 109.0108250 129.0690910
 134.2134270 108.5121420 128.9936220 134.8331610 109.8506500 128.6527260
 134.9478520 117.6879350 140.8130520 134.8815830 116.7675020 140.5588110
 134.3183660 117.7854790 141.5275160 137.7418050 113.3827900 127.3653070
 138.6297670 113.6945130 127.1904410 137.7123140 112.5100150 126.9733650
 128.8509140 118.2885310 132.7713940 129.3687810 117.4853570 132.7170830
 128.3993160 118.2264450 133.6130770 133.7378640 119.5551590 128.0441240
 134.0794340 120.2993820 127.5484560 132.9091350 119.8682710 128.4066070
 126.3353680 115.2546680 139.6839640 125.9768620 115.9200530 140.2712980
 126.0408240 114.4230230 140.0552260 129.5366800 115.7130920 142.5679190
 129.2366940 115.8588100 141.6707010 130.3078040 115.1536210 142.4752580
 134.8795250 120.5099920 140.5634320 134.8939790 119.5780880 140.3453230
 134.1720350 120.5959680 141.2024090 140.0132320 114.6939740 126.8332930
 139.9296040 115.1253960 125.9829370 140.7326510 115.1538090 127.2659750
 141.0906460 117.1507260 139.9102900 140.3654650 117.7436040 139.7132290
 141.6181920 117.1430800 139.1116270 141.0419570 121.5482000 129.5615060
 140.3995730 120.8937620 129.8358780 140.6550230 121.9537090 128.7855730
 136.6206050 118.8767430 133.4086750 136.9729870 118.2795560 132.7488120
 135.7368380 118.5511660 133.5795000 132.7069330 119.6365120 130.8157160
 133.3940460 120.1834330 131.1964750 131.9201750 120.1805850 130.8506770
 124.8461730 115.2537940 126.3074240 125.7156580 115.5362740 126.5910160
 124.3552050 116.0673810 126.1923050 132.0096540 116.6411150 130.4282520
 132.4659320 117.4516400 130.6542710 131.6584750 116.3234290 131.2601010
 134.3129150 122.1517490 137.6574820 134.9571370 122.3576870 138.3348240
 134.6758590 121.3905890 137.2045670 127.9108320 106.9848800 130.9005040
 127.7822950 106.9766700 131.8489960 127.0870340 107.3231890 130.5496050
 135.5861230 120.1549840 136.3752270 136.2283460 119.4543000 136.4884440
 136.1110580 120.9348280 136.1949160 139.4316950 120.4398460 126.0991410
 139.2054530 119.7228900 126.6916050 139.0413150 120.1910900 125.2613160
 137.3598850 120.9544740 139.5788330 137.6955090 121.5411430 140.2566250
 136.4399190 120.8237450 139.8086120 125.2132980 124.4665320 126.8735870
 125.5730620 125.0654660 126.2193140 125.0725320 125.0125210 127.6470900
 124.9102250 108.7439920 140.3611740 124.1960770 108.9436840 140.9664350
 125.3297290 107.9679490 140.7326540 139.0133200 118.3570400 127.7605570
 138.7254900 118.8183090 128.5483450 139.8085370 117.8968170 128.0289790
 125.1974840 122.7320180 141.3478270 125.3065960 121.7914920 141.2073660
 124.5455400 122.9974930 140.6992000 133.1887430 121.0036070 142.7476390
 132.8684300 120.2845310 143.2922080 132.5145790 121.6791140 142.8212450
 131.2301600 121.8496520 127.6909540 131.2211700 122.5826210 127.0754050
 130.3099960 121.6028100 127.7836500 126.8308240 117.0711410 128.4356300
 126.2236190 117.8110310 128.4451600 127.3057590 117.1610770 127.6094500
 136.4041030 111.2362230 138.1113190 136.7721850 110.4157440 138.4392760
 135.5439230 111.2964120 138.5268840 139.7703060 110.1919170 128.9200750
 139.1416220 110.2964840 128.2058980 139.2754980 110.4115950 129.7094630
 134.2161200 121.9124760 126.3534730 134.3173180 121.7088750 125.4236710
 133.3162940 121.6583040 126.5582510 131.7387090 112.4705120 130.3358630
 131.0303240 112.9391460 130.7772240 132.0231570 111.8127130 130.9703820
 133.3643020 113.8901820 138.3351160 133.8628270 114.3647640 139.0003010
 133.5065970 112.9665340 138.5421190 135.7702520 109.1955780 131.7754420
 135.6470300 109.2141910 130.8263930 136.7187080 109.2434720 131.8952820
 132.8579310 124.4311080 131.0482400 133.1120810 124.3932470 130.1261770
 131.9091790 124.3044410 131.0410650 129.9422110 110.7790200 127.7109340
 130.7912640 111.2160350 127.6449530 129.5753380 111.0910460 128.5381400
 140.5709880 110.1069780 139.1779550 140.0683480 110.8475180 139.5173360
 141.3866540 110.4953780 138.8616340 138.8631890 115.3502960 132.6240910
 137.9222030 115.3653190 132.7988600 139.1775960 114.5638920 133.0701210
 128.8413530 117.0322560 126.1844870 129.6076800 116.9203920 126.7470300
 128.9188220 116.3360530 125.5321640 127.5360290 114.4647630 126.8677760
 127.6163880 113.5175140 126.9795160 128.4280040 114.7954510 126.9738420
 140.8657470 122.5211810 134.2995170 140.9904890 123.3442980 134.7718980
 141.7323030 122.3102540 133.9519320 128.3375000 124.6143020 133.9712300
 129.0737480 124.0658480 134.2420870 128.7215920 125.4799030 133.8318290
 125.2220480 120.6816590 129.8453810 124.2960260 120.9237730 129.8359220
 125.6876910 121.5090850 129.7238560 127.3433280 123.7989090 143.1597880
 128.1446010 124.1201140 143.5733280 126.8285100 123.4384670 143.8817790
 131.4477310 123.7873330 125.7937870 132.2405920 124.0762160 125.3419660
 130.9281660 123.3565500 125.1150350 136.1797910 119.9068960 143.1073290
 135.5736070 119.9300560 142.3669040 135.8752020 119.1752000 143.6440540
 137.6098280 123.6349250 141.7182700 138.5620030 123.5507270 141.6682940
 137.4626500 124.2990960 142.3916490 140.5007480 123.0143460 127.2174610
 140.2148990 122.6008600 126.4028790 140.3027030 123.9431170 127.0975130
 125.0631090 116.2862550 142.1033930 125.5670110 115.7069830 142.6750160
 124.3238510 116.5702780 142.6410300 131.9654710 119.0076740 125.6580220
 131.8605350 118.3929090 126.3841600 131.7978930 118.4842630 124.8743230
 132.1169030 117.6933540 141.6369450 131.3514700 118.2618540 141.5524120
 132.2984990 117.4009750 140.7437680 135.2057440 118.0696770 126.2622210
 134.6567540 118.5166070 126.9064950 135.8276700 117.5646020 126.7859880
 139.2592380 119.4238870 142.1944470 140.0001850 119.7614630 141.6911930
 138.4965060 119.5930930 141.6414240 127.0954170 114.4292140 142.9984000
 127.1359510 114.1306010 143.9069230 127.9499670 114.8299750 142.8391520
 130.8732560 117.0287690 128.1587510 131.2948980 116.8627560 129.0018900
 130.9983400 116.2187920 127.6642650 129.0359980 113.0084240 140.9658490
 128.5056440 112.5175190 140.3381830 129.7048050 113.4368440 140.4316420
 133.3860200 116.0525300 125.4064610 133.9065860 115.3374320 125.0405760
 134.0328600 116.6911170 125.7065120 137.9338040 117.4753700 140.7299680
 138.3479060 117.6298780 141.5790100 136.9989040 117.6008920 140.8925460
 138.4060210 114.8149860 142.7338830 138.9880980 114.0602180 142.6459310
 138.5821980 115.3457300 141.9570310 129.5232280 109.9746610 141.0455780
 129.4289150 109.3567360 140.3206650 128.9429670 110.7012900 140.8185690
 132.2893720 108.5319850 138.0783170 131.8411020 108.5544110 137.2328720
 131.6558920 108.1338870 138.6753470 132.6953270 117.4274180 138.6995610
 133.1141380 118.2706910 138.5271850 131.7761900 117.5646220 138.4702390
 135.0317170 115.1590360 140.0833450 135.1513380 114.5631500 140.8228290
 135.8911170 115.1960050 139.6634750 137.3705070 115.7127550 138.6595960
 136.8440290 116.2370170 138.0561100 137.7136410 116.3454940 139.2905690
 129.7691460 113.1020920 125.1045670 129.5680520 112.2388280 125.4659010
 129.5983510 113.0154280 124.1667270 130.5460690 123.7327190 139.8153340
 130.0081780 124.4573250 139.4962040 130.7994650 123.2557530 139.0250680
 131.7985940 111.7011710 141.3409270 132.3885630 111.3927560 142.0287090
 130.9806180 111.2291460 141.4969170 136.6179370 111.3177520 141.5742290
 135.9294890 110.6559060 141.5092280 137.3385390 110.8715790 142.0190750
 137.2479770 107.9129150 127.6332550 137.5282060 107.0697050 127.9891970
 136.4745500 108.1452260 128.1471300 128.5674260 110.2021540 125.0923550
 128.8700160 110.2088970 124.1842700 129.3068850 109.8519400 125.5891210
 133.4022900 124.9678400 140.0739990 133.3281600 125.8713540 140.3812360
 132.5001740 124.6490300 140.0462060 131.7859190 109.1456160 126.0779750
 131.4381190 108.4680150 125.4982200 131.9871960 108.6845670 126.8923140
 133.9508230 124.1336910 127.6966350 134.8459020 124.4721880 127.7185110
 133.9825860 123.4116320 127.0690630 127.5904390 119.5063960 125.9253350
 128.0279260 120.0493630 126.5810930 128.0752120 118.6810910 125.9349690
 124.8050190 122.2952990 133.3773610 125.1353200 121.4274050 133.1452250
 125.2341190 122.5011510 134.2078570 129.4012110 120.6262000 131.0375580
 129.1007650 120.5026970 131.9379490 129.2949600 119.7670590 130.6291310
 125.2940400 123.1623580 136.1155240 124.8571390 123.3424380 136.9479390
 125.8618080 123.9198200 135.9736960 140.9302580 122.6640580 140.4032550
 140.3304570 122.7233140 139.6596470 141.0596480 121.7245560 140.5329400
 142.1704030 120.4058400 125.7402260 141.3396990 120.4735050 126.2109490
 142.3475860 121.2962520 125.4369120 141.6260490 117.1505880 128.2436460
 142.3879400 117.7202530 128.3496150 141.6414860 116.5833080 129.0144770
 125.1264830 115.6743810 132.4744120 124.4713670 115.4055450 131.8303820
 125.9642780 115.5648290 132.0246100 142.6320460 118.0055980 133.0878390
 143.0029290 117.2223300 132.6814360 143.2722390 118.6945080 132.9095690
 139.6154220 119.3892560 138.5008710 138.8014060 119.8189720 138.7634500
 140.0228420 120.0010970 137.8877760 141.6779660 117.4440250 125.4008980
 141.9528500 118.3519130 125.2728200 141.4890400 117.3802780 126.3370970
 138.0755270 110.4685100 126.6962610 138.4940150 110.2816080 125.8559270
 137.7691330 109.6164150 127.0065540 141.5745000 115.3809240 130.3938410
 141.1988600 114.6137170 129.9619700 140.8448120 115.7631940 130.8813340
 126.1640760 116.0596380 137.0147460 126.5313800 115.9723780 137.8943480
 125.5951580 115.2962930 136.9154320 140.9644620 114.5280760 140.0277930
 140.7330710 114.2993510 139.1275880 141.2249170 115.4480310 139.9822820
 125.7156760 112.9705470 140.9205880 124.8212810 112.9372230 141.2599590
 126.2554310 113.1692260 141.6857130 139.4032690 109.7537190 142.8057630
 140.2802870 109.7620590 143.1891630 139.4153530 109.0168030 142.1949980
 124.3402910 112.8842740 128.4169450 123.4366990 113.1472940 128.2421110
 124.8243530 113.1553910 127.6369410 140.8495960 113.6066730 133.6945650
 141.3733440 113.1129380 133.0635820 141.4355380 113.7417090 134.4393220
 141.0285680 113.6906600 137.2165200 140.0788390 113.6570140 137.3310190
 141.2098690 114.6006710 136.9814970 126.8830120 111.9408280 126.3263830
 127.5921820 111.5191500 125.8411110 126.1670060 112.0083510 125.6947180
 126.5304280 107.9947610 125.3666480 127.2532410 108.5356550 125.6847700
 126.8028800 107.7211030 124.4908020 140.3395930 112.8640080 129.6338060
 140.8355050 112.6310950 130.4186940 140.1412000 112.0251920 129.2175700
 126.2196470 107.2453800 135.2689100 126.8672660 106.6951180 134.8284260
 126.6398310 107.4996950 136.0904910 141.7683090 111.5001030 132.1675740
 141.6582370 111.3457070 133.1058010 142.5290680 110.9721970 131.9251150
 140.1148810 107.4395160 138.6258740 140.7521030 108.0529300 138.9917930
 140.2623700 107.4755820 137.6807970 142.6573360 109.3308950 125.4081880
 143.5822670 109.1990130 125.2000170 142.6349150 109.4101770 126.3618330
 142.7311850 110.1019610 128.0338590 141.9363350 110.0364730 128.5631500
 142.9355130 111.0370250 128.0223940 139.6730270 124.1411160 132.0276980
 140.2689340 123.8195730 131.3511400 139.9308420 123.6682980 132.8190250
 125.9728470 107.4009470 138.0114420 125.6243290 107.8573290 138.7772600
 125.6416170 106.5066600 138.0936850 127.5792840 120.5729070 142.1767610
 127.5362470 120.2021980 143.0582070 127.7103850 121.5106640 142.3169430
 131.2798870 122.1288660 137.7777330 131.0390230 122.3963220 136.8907850
 132.2201510 122.2994390 137.8328190 133.4853290 108.5921350 141.5333840
 133.4242180 109.1843180 142.2829250 134.4253670 108.4847310 141.3884100
 136.1227850 108.2491410 141.1726130 136.7368260 108.5670700 140.5107210
 136.6677410 107.7640000 141.7921990 142.5403030 124.1483040 138.5787970
 142.0461310 124.5451910 137.8615100 141.9316320 123.5232250 138.9725250
 126.6449110 106.9285670 141.2865190 127.1932100 106.7473720 140.5231300
 126.7104420 106.1379780 141.8221500 127.4180870 123.5191320 139.2965390
 126.8241190 123.3876020 140.0355430 127.4104710 122.6829460 138.8307490
 136.8635890 106.8123550 137.4995420 135.9895730 107.1458660 137.2968350
 136.7546640 106.3396730 138.3247290 137.7707870 109.0194420 138.8837140
 137.4421230 108.2046180 138.5038870 138.7190170 108.9764230 138.7602830
 140.2242480 124.7906460 135.8574710 139.7645450 125.5422270 135.4832730
 139.5954940 124.0712930 135.7989510 127.0493100 120.8849700 138.2473430
 126.3227160 120.2654990 138.1799380 127.1102250 121.2790310 137.3771510
 130.6538200 123.0994700 135.0322840 131.1703220 122.4882060 134.5071100
 131.3035580 123.6023480 135.5233850 133.3933700 123.9903190 135.8591820
 133.6811510 123.7357490 134.9824830 133.9056920 123.4380550 136.4497390
 134.6110710 107.7293390 136.4388330 133.8282500 108.2038890 136.7185090
 134.3173640 106.8248220 136.3301510 139.1631780 108.4316490 134.4837420
 139.6039870 108.3761590 133.6359020 138.8939370 109.3474500 134.5547600
 141.0270350 108.0631730 132.4946240 140.9658750 107.1192950 132.3477260
 141.8062380 108.1711820 133.0399700 125.3323100 124.2024090 131.4570190
 125.1645140 123.5694770 132.1552080 124.4657610 124.4083490 131.1064380
 125.9551120 108.0340870 128.9602050 126.7130480 108.1469750 128.3866080
 125.4928290 108.8710070 128.9145480 132.4964930 110.1480140 131.9504360
 131.6839440 109.7737030 131.6100240 133.0006570 109.3925220 132.2525550
 136.9989910 106.8122590 133.1887430 137.6019280 107.3842800 133.6635950
 136.2582900 107.3762030 132.9661330 140.1424510 107.2144150 128.4627710
 140.3375140 108.1127600 128.7295140 139.3554380 106.9831230 128.9560660
 126.9385800 122.8957320 128.9020330 126.4133420 123.2765350 128.1982290
 126.8630380 123.5208090 129.6230040 128.3276270 108.5604920 127.5004020
 128.8569030 107.7734720 127.3711970 128.9604590 109.2396110 127.7339550
 130.5214110 108.2980060 130.5549410 129.8916850 107.5967370 130.7219540
 129.9819250 109.0584190 130.3382570 133.4606060 124.9119290 143.2260020
 134.3873370 124.6763560 143.2695980 133.4456490 125.7391290 142.7446050
 141.6951120 124.4544860 130.2234270 141.8703310 123.7682600 129.5795190
 140.9972690 124.9791910 129.8310940 130.6469670 107.5764040 142.9901900
 130.3653940 108.0797640 142.2262720 131.0289370 106.7785790 142.6244030
 129.5378770 124.8439700 127.7769580 130.2697590 124.5598980 127.2293470
 129.7972440 124.6052980 128.6668960 128.6993560 120.9604430 127.7815910
 128.0702440 121.4289530 128.3301740 128.8141390 120.1153650 128.2162100
 137.2485130 106.9917620 143.5682370 137.1350580 107.3112230 144.4633890
 138.0654870 107.3930130 143.2719650 140.0283620 124.1389150 143.0501060
 140.8208940 123.6438380 142.8427020 140.3216770 124.8179290 143.6576670
 136.1543280 115.0110090 113.9317110 136.0737330 114.0964700 113.6608820
 135.7407700 115.5077160 113.2256820 134.2861320 116.7889110 115.8126380
 133.5103420 116.3089550 116.1024950 134.9374250 116.1094760 115.6382540
 128.3027150 117.1008920 116.6902140 127.4712030 116.8457630 117.0898650
 128.9108130 117.1719690 117.4260060 138.3068750 121.1949300 114.5925510
 137.8450280 120.4236540 114.9212680 139.1194300 121.2215370 115.0977960
 128.2828410 121.1349010 116.8860160 128.5856450 120.2446750 116.7070380
 129.0272000 121.6919230 116.6582410 126.7119100 112.0610810 110.4744530
 125.8235800 112.4026780 110.3724410 126.9960290 111.8611130 109.5825360
 124.6752110 114.6616460 116.3584230 125.2468220 113.8938660 116.3587870
 124.6753650 114.9605220 115.4490840 134.5332060 123.4807310 114.2129500
 133.9143500 123.9364810 113.6423940 135.3883840 123.6358770 113.8119200
 133.7270310 119.4646300 115.8196540 133.6578590 118.5236240 115.6585670
 134.4890170 119.5547710 116.3919110 125.9176980 110.0700820 118.1453160
 125.7379820 109.1726570 118.4255920 125.5157060 110.6172690 118.8200110
 134.7575480 112.2716680 116.0465470 135.1340300 111.3988560 115.9339140
 134.6594990 112.6075380 115.1555910 128.8880490 110.6442310 111.5082910
 128.9947240 111.5446040 111.8151670 127.9772850 110.5960280 111.2177560
 138.5399600 109.7667120 112.9793810 139.3609220 109.2763690 113.0219290
 138.5733680 110.3564780 113.7325650 126.5363650 112.5661320 116.7535500
 127.2173760 112.8299690 117.3722900 126.2211700 111.7262190 117.0873510
 130.7288220 113.6128680 115.8408090 131.2366440 114.1109650 116.4813110
 131.2601460 112.8363880 115.6647450 142.8299150 111.7833870 119.5437440
 142.1251320 112.1715580 119.0252550 143.0957070 112.4784160 120.1458370
 129.0124320 108.2527240 120.1071510 129.0142760 108.7699630 119.3017410
 128.1828630 107.7757420 120.0841440 135.3995410 118.3646550 111.6061410
 134.7812680 118.8296000 111.0424130 135.9118660 119.0574030 112.0230920
 130.2627170 117.8922420 118.2845010 129.9296550 118.5191340 118.9266080
 130.4393850 118.4184300 117.5046680 138.7761080 111.7067500 115.7521350
 138.0716650 111.9952390 116.3324460 139.1373240 112.5167610 115.3920910
 128.6939650 109.9637200 118.1141960 129.0356460 110.8079250 117.8195830
 127.7555460 110.1120940 118.2307300 129.4746270 119.8603220 120.0994190
 130.0920270 120.5354300 119.8178640 128.6139390 120.2691200 120.0081690
 124.7678610 119.0503080 108.9801040 124.3906590 119.5390180 108.2485940
 125.0251680 119.7228360 109.6107570 140.3923860 121.3242630 118.0148830
 139.7087380 121.9941740 118.0065500 140.9318150 121.5223280 117.2493690
 141.8448000 111.1522290 116.1430560 140.8972910 111.1861270 116.2745990
 142.1697990 111.9661240 116.5279920 132.3767540 107.4519470 114.4386550
 132.6842520 106.8966360 113.7222050 131.4468240 107.5863930 114.2559540
 137.9282600 123.1686760 116.7294010 137.9409760 122.7649050 115.8616270
 137.3757820 123.9434050 116.6255440 139.2228020 119.8902980 111.8184180
 139.1124350 118.9477310 111.9433600 139.2196270 120.2518620 112.7046940
 137.3268040 118.0716600 118.0576620 137.7436830 117.8576710 117.2230080
 138.0507860 118.3289390 118.6285240 134.7648300 115.5168300 111.1746670
 133.8377580 115.4505680 111.4035140 134.9173120 116.4548430 111.0601910
 134.7517380 111.7885300 108.1713830 133.8121050 111.9499260 108.2566290
 135.0700640 112.5070980 107.6249820 141.2730140 116.4703820 118.1492860
 140.4448770 116.5396910 117.6742990 141.8680620 117.0558130 117.6808690
 138.7945590 117.0788600 111.6781920 138.1758010 116.7408150 111.0308220
 138.7770040 116.4348360 112.3861110 138.2372150 113.2573140 119.0947730
 137.8243330 114.0826850 119.3487720 137.5048100 112.6718180 118.9024090
 130.3704940 116.0433040 113.9566400 129.9661940 115.3310290 113.4612300
 130.4568060 115.6986280 114.8454440 130.8386640 119.7300600 116.1205610
 130.5414930 119.1246070 115.4413390 131.7886460 119.7677910 116.0094970
 129.0833560 112.8176250 117.7365440 129.6348150 112.9271590 116.9618690
 129.5977070 113.1913850 118.4520670 138.9272250 123.3032470 119.7828710
 138.4502810 124.1104660 119.5901320 138.2434040 122.6510800 119.9354920
 129.9305070 119.4682290 122.7713410 129.0333600 119.6922260 123.0186810
 129.9557940 119.5917230 121.8224810 136.9710290 116.3175410 108.6854670
 137.4103570 115.4797840 108.5392490 137.6838710 116.9504810 108.7718810
 128.7576290 116.3395610 121.3470780 128.6184060 117.2118410 121.7158180
 127.8757650 115.9968420 121.2018720 135.0805670 121.2571480 112.6535910
 135.5201580 121.9995810 112.2391300 135.0192560 121.4998050 113.5774870
 130.5556640 122.2817310 123.5555930 130.5272070 122.6860260 122.6884360
 130.3921610 121.3527670 123.3927530 140.5527430 107.5718220 106.9995710
 140.2400090 107.6645050 107.8994780 141.3139900 108.1499250 106.9493140
 127.0709570 114.9378020 111.4573050 126.9507170 115.6640110 110.8454320
 126.7610460 114.1680930 110.9800960 142.5071460 123.0644410 124.8520100
 142.9831180 123.5427300 125.5309180 143.1278620 122.9961900 124.1265600
 124.7094940 118.1093160 117.2641690 124.7875360 118.2441930 116.3197410
 125.3236620 117.4009050 117.4569810 125.9542570 119.8093350 113.6747870
 125.5470650 119.9507940 112.8201470 126.8455580 119.5253510 113.4719080
 141.9104710 120.2557260 122.0120110 142.0367770 120.0169140 121.0937290
 141.9526090 119.4241800 122.4842190 135.7721450 123.9585260 120.5814920
 136.2866120 123.8693270 121.3837350 134.9290530 124.3044960 120.8742830
 137.7475850 124.2440600 110.0098920 137.5876990 123.9543540 110.9080750
 137.5822560 123.4680730 109.4744150 130.2264230 124.0239130 111.7870540
 130.0506710 123.1074670 111.5738340 129.3719970 124.3826420 112.0268340
 137.4501980 121.7528160 108.5696920 136.7567140 121.7505450 107.9099200
 138.1924840 121.3287480 108.1391090 137.0151910 123.3790870 112.6445410
 137.4708860 122.5980250 112.9584030 137.3544430 124.0897690 113.1886590
 141.7628720 112.3089720 122.9769850 141.1472990 112.8169390 122.4485310
 141.4425140 111.4088050 122.9195790 124.7654460 119.1507330 119.8036150
 124.9285500 118.6812690 118.9855520 125.2306910 118.6430890 120.4684990
 129.5373230 108.2813090 114.8396720 129.0941380 109.0622630 114.5081240
 130.0958220 108.6042980 115.5467660 133.8243040 111.1481610 120.4432040
 133.3622410 111.3564630 121.2551980 133.4221150 110.3340960 120.1402710
 138.8247550 112.3690560 121.5728700 137.9741140 112.0696310 121.8937770
 138.6649340 112.6132570 120.6612520 135.9197260 113.8692310 123.6727490
 136.2450670 113.0356060 123.3329720 136.7077590 114.3920830 123.8205820
 132.6532050 107.9023790 109.7202550 132.0286230 107.8983660 110.4455860
 132.5662170 107.0354750 109.3238520 131.5749130 108.8260420 116.6986320
 131.8721460 109.7323250 116.6178340 132.1234690 108.3379200 116.0845890
 129.3287450 113.4046660 112.5677970 129.1028370 113.1883830 113.4724590
 128.5479980 113.8375120 112.2223940 136.5585210 113.4110030 111.1668620
 135.9594100 114.1345830 110.9832240 137.1064820 113.3486810 110.3845070
 131.7686660 114.3032240 123.2338240 131.6730260 113.3626970 123.0838640
 132.6118640 114.5247310 122.8386310 135.1650080 112.0473570 113.1971900
 135.5579650 112.3645770 112.3840590 135.5266930 111.1685450 113.3116420
 126.8997200 110.7145910 121.3872020 126.5060590 111.5621120 121.5944800
 126.2115600 110.0772280 121.5780660 133.4742250 110.7980880 124.4568760
 132.7840570 110.6053080 125.0914850 134.2174550 111.0815520 124.9893060
 124.2014250 108.6374370 115.4202100 123.9127300 109.2077230 116.1327080
 124.9460010 108.1578820 115.7833330 135.7505220 114.6379320 117.2922680
 135.0186340 115.1466130 117.6412780 135.3529560 113.8209300 116.9911460
 132.1882610 111.3133520 115.6975170 132.1918670 110.8723470 114.8479710
 133.0833730 111.6350850 115.8046990 128.0384990 111.1960010 114.6569380
 127.6985040 111.6735240 115.4136430 127.2762310 110.7425130 114.2970480
 132.2502760 112.3145600 108.6881930 132.3715580 112.2732080 109.6367750
 131.8651270 113.1769750 108.5328660 136.2131130 110.0913000 116.7045620
 136.2303870 110.5421650 117.5487470 135.9646710 109.1918640 116.9179060
 131.2624260 114.6246740 108.0865230 130.6941160 114.1764990 107.4601140
 131.9713260 114.9839520 107.5530380 139.6401880 107.5045180 122.5432000
 139.9647650 106.7734840 123.0689980 139.6758390 107.1858820 121.6412990
 126.3393440 118.5258760 121.9631960 125.9548230 117.8852430 122.5614920
 126.6505630 119.2294880 122.5326690 132.4890580 115.3735300 117.4440580
 132.8560710 114.8993870 118.1901920 132.2995640 116.2476870 117.7848920
 125.3531070 110.1178990 113.5734050 125.0677990 109.7534660 114.4112670
 125.2909930 109.3859450 112.9597190 130.2789950 114.4143940 119.7624790
 129.9747020 115.2935920 119.9875150 131.2336410 114.4743730 119.7982230
 128.8071740 118.6204930 110.3591640 128.0334000 118.0802550 110.1990360
 129.5366370 118.1011540 110.0209400 139.5659720 117.6170290 116.1518030
 140.2858840 118.1125580 115.7614140 139.3641540 116.9388180 115.5071900
 135.0269660 109.0108250 110.2947420 134.2134270 108.5121420 110.2192730
 134.8331610 109.8506500 109.8783770 134.9478520 117.6879350 122.0387030
 134.8815830 116.7675020 121.7844620 134.3183660 117.7854790 122.7531670
 137.7418050 113.3827900 108.5909580 138.6297670 113.6945130 108.4160920
 137.7123140 112.5100150 108.1990160 128.8509140 118.2885310 113.9970450
 129.3687810 117.4853570 113.9427340 128.3993160 118.2264450 114.8387280
 133.7378640 119.5551590 109.2697750 134.0794340 120.2993820 108.7741070
 132.9091350 119.8682710 109.6322580 126.3353680 115.2546680 120.9096150
 125.9768620 115.9200530 121.4969490 126.0408240 114.4230230 121.2808770
 129.5366800 115.7130920 123.7935700 129.2366940 115.8588100 122.8963520
 130.3078040 115.1536210 123.7009090 134.8795250 120.5099920 121.7890830
 134.8939790 119.5780880 121.5709740 134.1720350 120.5959680 122.4280600
 140.0132320 114.6939740 108.0589440 139.9296040 115.1253960 107.2085880
 140.7326510 115.1538090 108.4916260 141.0906460 117.1507260 121.1359410
 140.3654650 117.7436040 120.9388800 141.6181920 117.1430800 120.3372780
 141.0419570 121.5482000 110.7871570 140.3995730 120.8937620 111.0615290
 140.6550230 121.9537090 110.0112240 136.6206050 118.8767430 114.6343260
 136.9729870 118.2795560 113.9744630 135.7368380 118.5511660 114.8051510
 132.7069330 119.6365120 112.0413670 133.3940460 120.1834330 112.4221260
 131.9201750 120.1805850 112.0763280 124.8461730 115.2537940 107.5330750
 125.7156580 115.5362740 107.8166670 124.3552050 116.0673810 107.4179560
 132.0096540 116.6411150 111.6539030 132.4659320 117.4516400 111.8799220
 131.6584750 116.3234290 112.4857520 134.3129150 122.1517490 118.8831330
 134.9571370 122.3576870 119.5604750 134.6758590 121.3905890 118.4302180
 127.9108320 106.9848800 112.1261550 127.7822950 106.9766700 113.0746470
 127.0870340 107.3231890 111.7752560 135.5861230 120.1549840 117.6008780
 136.2283460 119.4543000 117.7140950 136.1110580 120.9348280 117.4205670
 139.4316950 120.4398460 107.3247920 139.2054530 119.7228900 107.9172560
 139.0413150 120.1910900 106.4869670 137.3598850 120.9544740 120.8044840
 137.6955090 121.5411430 121.4822760 136.4399190 120.8237450 121.0342630
 125.2132980 124.4665320 108.0992380 125.5730620 125.0654660 107.4449650
 125.0725320 125.0125210 108.8727410 124.9102250 108.7439920 121.5868250
 124.1960770 108.9436840 122.1920860 125.3297290 107.9679490 121.9583050
 139.0133200 118.3570400 108.9862080 138.7254900 118.8183090 109.7739960
 139.8085370 117.8968170 109.2546300 125.1974840 122.7320180 122.5734780
 125.3065960 121.7914920 122.4330170 124.5455400 122.9974930 121.9248510
 133.1887430 121.0036070 123.9732900 132.8684300 120.2845310 124.5178590
 132.5145790 121.6791140 124.0468960 131.2301600 121.8496520 108.9166050
 131.2211700 122.5826210 108.3010560 130.3099960 121.6028100 109.0093010
 126.8308240 117.0711410 109.6612810 126.2236190 117.8110310 109.6708110
 127.3057590 117.1610770 108.8351010 136.4041030 111.2362230 119.3369700
 136.7721850 110.4157440 119.6649270 135.5439230 111.2964120 119.7525350
 139.7703060 110.1919170 110.1457260 139.1416220 110.2964840 109.4315490
 139.2754980 110.4115950 110.9351140 134.2161200 121.9124760 107.5791240
 134.3173180 121.7088750 106.6493220 133.3162940 121.6583040 107.7839020
 131.7387090 112.4705120 111.5615140 131.0303240 112.9391460 112.0028750
 132.0231570 111.8127130 112.1960330 133.3643020 113.8901820 119.5607670
 133.8628270 114.3647640 120.2259520 133.5065970 112.9665340 119.7677700
 135.7702520 109.1955780 113.0010930 135.6470300 109.2141910 112.0520440
 136.7187080 109.2434720 113.1209330 132.8579310 124.4311080 112.2738910
 133.1120810 124.3932470 111.3518280 131.9091790 124.3044410 112.2667160
 129.9422110 110.7790200 108.9365850 130.7912640 111.2160350 108.8706040
 129.5753380 111.0910460 109.7637910 140.5709880 110.1069780 120.4036060
 140.0683480 110.8475180 120.7429870 141.3866540 110.4953780 120.0872850
 138.8631890 115.3502960 113.8497420 137.9222030 115.3653190 114.0245110
 139.1775960 114.5638920 114.2957720 128.8413530 117.0322560 107.4101380
 129.6076800 116.9203920 107.9726810 128.9188220 116.3360530 106.7578150
 127.5360290 114.4647630 108.0934270 127.6163880 113.5175140 108.2051670
 128.4280040 114.7954510 108.1994930 140.8657470 122.5211810 115.5251680
 140.9904890 123.3442980 115.9975490 141.7323030 122.3102540 115.1775830
 128.3375000 124.6143020 115.1968810 129.0737480 124.0658480 115.4677380
 128.7215920 125.4799030 115.0574800 125.2220480 120.6816590 111.0710320
 124.2960260 120.9237730 111.0615730 125.6876910 121.5090850 110.9495070
 127.3433280 123.7989090 124.3854390 128.1446010 124.1201140 124.7989790
 126.8285100 123.4384670 125.1074300 131.4477310 123.7873330 107.0194380
 132.2405920 124.0762160 106.5676170 130.9281660 123.3565500 106.3406860
 136.1797910 119.9068960 124.3329800 135.5736070 119.9300560 123.5925550
 135.8752020 119.1752000 124.8697050 137.6098280 123.6349250 122.9439210
 138.5620030 123.5507270 122.8939450 137.4626500 124.2990960 123.6173000
 140.5007480 123.0143460 108.4431120 140.2148990 122.6008600 107.6285300
 140.3027030 123.9431170 108.3231640 125.0631090 116.2862550 123.3290440
 125.5670110 115.7069830 123.9006670 124.3238510 116.5702780 123.8666810
 131.9654710 119.0076740 106.8836730 131.8605350 118.3929090 107.6098110
 131.7978930 118.4842630 106.0999740 132.1169030 117.6933540 122.8625960
 131.3514700 118.2618540 122.7780630 132.2984990 117.4009750 121.9694190
 135.2057440 118.0696770 107.4878720 134.6567540 118.5166070 108.1321460
 135.8276700 117.5646020 108.0116390 139.2592380 119.4238870 123.4200980
 140.0001850 119.7614630 122.9168440 138.4965060 119.5930930 122.8670750
 127.0954170 114.4292140 124.2240510 127.1359510 114.1306010 125.1325740
 127.9499670 114.8299750 124.0648030 130.8732560 117.0287690 109.3844020
 131.2948980 116.8627560 110.2275410 130.9983400 116.2187920 108.8899160
 129.0359980 113.0084240 122.1915000 128.5056440 112.5175190 121.5638340
 129.7048050 113.4368440 121.6572930 133.3860200 116.0525300 106.6321120
 133.9065860 115.3374320 106.2662270 134.0328600 116.6911170 106.9321630
 137.9338040 117.4753700 121.9556190 138.3479060 117.6298780 122.8046610
 136.9989040 117.6008920 122.1181970 138.4060210 114.8149860 123.9595340
 138.9880980 114.0602180 123.8715820 138.5821980 115.3457300 123.1826820
 129.5232280 109.9746610 122.2712290 129.4289150 109.3567360 121.5463160
 128.9429670 110.7012900 122.0442200 132.2893720 108.5319850 119.3039680
 131.8411020 108.5544110 118.4585230 131.6558920 108.1338870 119.9009980
 132.6953270 117.4274180 119.9252120 133.1141380 118.2706910 119.7528360
 131.7761900 117.5646220 119.6958900 135.0317170 115.1590360 121.3089960
 135.1513380 114.5631500 122.0484800 135.8911170 115.1960050 120.8891260
 137.3705070 115.7127550 119.8852470 136.8440290 116.2370170 119.2817610
 137.7136410 116.3454940 120.5162200 129.7691460 113.1020920 106.3302180
 129.5680520 112.2388280 106.6915520 129.5983510 113.0154280 105.3923780
 130.5460690 123.7327190 121.0409850 130.0081780 124.4573250 120.7218550
 130.7994650 123.2557530 120.2507190 131.7985940 111.7011710 122.5665780
 132.3885630 111.3927560 123.2543600 130.9806180 111.2291460 122.7225680
 136.6179370 111.3177520 122.7998800 135.9294890 110.6559060 122.7348790
 137.3385390 110.8715790 123.2447260 137.2479770 107.9129150 108.8589060
 137.5282060 107.0697050 109.2148480 136.4745500 108.1452260 109.3727810
 128.5674260 110.2021540 106.3180060 128.8700160 110.2088970 105.4099210
 129.3068850 109.8519400 106.8147720 133.4022900 124.9678400 121.2996500
 133.3281600 125.8713540 121.6068870 132.5001740 124.6490300 121.2718570
 131.7859190 109.1456160 107.3036260 131.4381190 108.4680150 106.7238710
 131.9871960 108.6845670 108.1179650 133.9508230 124.1336910 108.9222860
 134.8459020 124.4721880 108.9441620 133.9825860 123.4116320 108.2947140
 127.5904390 119.5063960 107.1509860 128.0279260 120.0493630 107.8067440
 128.0752120 118.6810910 107.1606200 124.8050190 122.2952990 114.6030120
 125.1353200 121.4274050 114.3708760 125.2341190 122.5011510 115.4335080
 129.4012110 120.6262000 112.2632090 129.1007650 120.5026970 113.1636000
 129.2949600 119.7670590 111.8547820 125.2940400 123.1623580 117.3411750
 124.8571390 123.3424380 118.1735900 125.8618080 123.9198200 117.1993470
 140.9302580 122.6640580 121.6289060 140.3304570 122.7233140 120.8852980
 141.0596480 121.7245560 121.7585910 142.1704030 120.4058400 106.9658770
 141.3396990 120.4735050 107.4366000 142.3475860 121.2962520 106.6625630
 141.6260490 117.1505880 109.4692970 142.3879400 117.7202530 109.5752660
 141.6414860 116.5833080 110.2401280 125.1264830 115.6743810 113.7000630
 124.4713670 115.4055450 113.0560330 125.9642780 115.5648290 113.2502610
 142.6320460 118.0055980 114.3134900 143.0029290 117.2223300 113.9070870
 143.2722390 118.6945080 114.1352200 139.6154220 119.3892560 119.7265220
 138.8014060 119.8189720 119.9891010 140.0228420 120.0010970 119.1134270
 141.6779660 117.4440250 106.6265490 141.9528500 118.3519130 106.4984710
 141.4890400 117.3802780 107.5627480 138.0755270 110.4685100 107.9219120
 138.4940150 110.2816080 107.0815780 137.7691330 109.6164150 108.2322050
 141.5745000 115.3809240 111.6194920 141.1988600 114.6137170 111.1876210
 140.8448120 115.7631940 112.1069850 126.1640760 116.0596380 118.2403970
 126.5313800 115.9723780 119.1199990 125.5951580 115.2962930 118.1410830
 140.9644620 114.5280760 121.2534440 140.7330710 114.2993510 120.3532390
 141.2249170 115.4480310 121.2079330 125.7156760 112.9705470 122.1462390
 124.8212810 112.9372230 122.4856100 126.2554310 113.1692260 122.9113640
 139.4032690 109.7537190 124.0314140 140.2802870 109.7620590 124.4148140
 139.4153530 109.0168030 123.4206490 124.3402910 112.8842740 109.6425960
 123.4366990 113.1472940 109.4677620 124.8243530 113.1553910 108.8625920
 140.8495960 113.6066730 114.9202160 141.3733440 113.1129380 114.2892330
 141.4355380 113.7417090 115.6649730 141.0285680 113.6906600 118.4421710
 140.0788390 113.6570140 118.5566700 141.2098690 114.6006710 118.2071480
 126.8830120 111.9408280 107.5520340 127.5921820 111.5191500 107.0667620
 126.1670060 112.0083510 106.9203690 126.5304280 107.9947610 106.5922990
 127.2532410 108.5356550 106.9104210 126.8028800 107.7211030 105.7164530
 140.3395930 112.8640080 110.8594570 140.8355050 112.6310950 111.6443450
 140.1412000 112.0251920 110.4432210 126.2196470 107.2453800 116.4945610
 126.8672660 106.6951180 116.0540770 126.6398310 107.4996950 117.3161420
 141.7683090 111.5001030 113.3932250 141.6582370 111.3457070 114.3314520
 142.5290680 110.9721970 113.1507660 140.1148810 107.4395160 119.8515250
 140.7521030 108.0529300 120.2174440 140.2623700 107.4755820 118.9064480
 142.6573360 109.3308950 106.6338390 143.5822670 109.1990130 106.4256680
 142.6349150 109.4101770 107.5874840 142.7311850 110.1019610 109.2595100
 141.9363350 110.0364730 109.7888010 142.9355130 111.0370250 109.2480450
 139.6730270 124.1411160 113.2533490 140.2689340 123.8195730 112.5767910
 139.9308420 123.6682980 114.0446760 125.9728470 107.4009470 119.2370930
 125.6243290 107.8573290 120.0029110 125.6416170 106.5066600 119.3193360
 127.5792840 120.5729070 123.4024120 127.5362470 120.2021980 124.2838580
 127.7103850 121.5106640 123.5425940 131.2798870 122.1288660 119.0033840
 131.0390230 122.3963220 118.1164360 132.2201510 122.2994390 119.0584700
 133.4853290 108.5921350 122.7590350 133.4242180 109.1843180 123.5085760
 134.4253670 108.4847310 122.6140610 136.1227850 108.2491410 122.3982640
 136.7368260 108.5670700 121.7363720 136.6677410 107.7640000 123.0178500
 142.5403030 124.1483040 119.8044480 142.0461310 124.5451910 119.0871610
 141.9316320 123.5232250 120.1981760 126.6449110 106.9285670 122.5121700
 127.1932100 106.7473720 121.7487810 126.7104420 106.1379780 123.0478010
 127.4180870 123.5191320 120.5221900 126.8241190 123.3876020 121.2611940
 127.4104710 122.6829460 120.0564000 136.8635890 106.8123550 118.7251930
 135.9895730 107.1458660 118.5224860 136.7546640 106.3396730 119.5503800
 137.7707870 109.0194420 120.1093650 137.4421230 108.2046180 119.7295380
 138.7190170 108.9764230 119.9859340 140.2242480 124.7906460 117.0831220
 139.7645450 125.5422270 116.7089240 139.5954940 124.0712930 117.0246020
 127.0493100 120.8849700 119.4729940 126.3227160 120.2654990 119.4055890
 127.1102250 121.2790310 118.6028020 130.6538200 123.0994700 116.2579350
 131.1703220 122.4882060 115.7327610 131.3035580 123.6023480 116.7490360
 133.3933700 123.9903190 117.0848330 133.6811510 123.7357490 116.2081340
 133.9056920 123.4380550 117.6753900 134.6110710 107.7293390 117.6644840
 133.8282500 108.2038890 117.9441600 134.3173640 106.8248220 117.5558020
 139.1631780 108.4316490 115.7093930 139.6039870 108.3761590 114.8615530
 138.8939370 109.3474500 115.7804110 141.0270350 108.0631730 113.7202750
 140.9658750 107.1192950 113.5733770 141.8062380 108.1711820 114.2656210
 125.3323100 124.2024090 112.6826700 125.1645140 123.5694770 113.3808590
 124.4657610 124.4083490 112.3320890 125.9551120 108.0340870 110.1858560
 126.7130480 108.1469750 109.6122590 125.4928290 108.8710070 110.1401990
 132.4964930 110.1480140 113.1760870 131.6839440 109.7737030 112.8356750
 133.0006570 109.3925220 113.4782060 136.9989910 106.8122590 114.4143940
 137.6019280 107.3842800 114.8892460 136.2582900 107.3762030 114.1917840
 140.1424510 107.2144150 109.6884220 140.3375140 108.1127600 109.9551650
 139.3554380 106.9831230 110.1817170 126.9385800 122.8957320 110.1276840
 126.4133420 123.2765350 109.4238800 126.8630380 123.5208090 110.8486550
 128.3276270 108.5604920 108.7260530 128.8569030 107.7734720 108.5968480
 128.9604590 109.2396110 108.9596060 130.5214110 108.2980060 111.7805920
 129.8916850 107.5967370 111.9476050 129.9819250 109.0584190 111.5639080
 133.4606060 124.9119290 124.4516530 134.3873370 124.6763560 124.4952490
 133.4456490 125.7391290 123.9702560 141.6951120 124.4544860 111.4490780
 141.8703310 123.7682600 110.8051700 140.9972690 124.9791910 111.0567450
 130.6469670 107.5764040 124.2158410 130.3653940 108.0797640 123.4519230
 131.0289370 106.7785790 123.8500540 129.5378770 124.8439700 109.0026090
 130.2697590 124.5598980 108.4549980 129.7972440 124.6052980 109.8925470
 128.6993560 120.9604430 109.0072420 128.0702440 121.4289530 109.5558250
 128.8141390 120.1153650 109.4418610 137.2485130 106.9917620 124.7938880
 137.1350580 107.3112230 125.6890400 138.0654870 107.3930130 124.4976160
 140.0283620 124.1389150 124.2757570 140.8208940 123.6438380 124.0683530
 140.3216770 124.8179290 124.8833180 136.1543280 115.0110090  95.1573620
 136.0737330 114.0964700  94.8865330 135.7407700 115.5077160  94.4513330
 134.2861320 116.7889110  97.0382890 133.5103420 116.3089550  97.3281460
 134.9374250 116.1094760  96.8639050 128.3027150 117.1008920  97.9158650
 127.4712030 116.8457630  98.3155160 128.9108130 117.1719690  98.6516570
 138.3068750 121.1949300  95.8182020 137.8450280 120.4236540  96.1469190
 139.1194300 121.2215370  96.3234470 128.2828410 121.1349010  98.1116670
 128.5856450 120.2446750  97.9326890 129.0272000 121.6919230  97.8838920
 134.5332060 123.4807310  95.4386010 133.9143500 123.9364810  94.8680450
 135.3883840 123.6358770  95.0375710 133.7270310 119.4646300  97.0453050
 133.6578590 118.5236240  96.8842180 134.4890170 119.5547710  97.6175620
 134.7575480 112.2716680  97.2721980 135.1340300 111.3988560  97.1595650
 134.6594990 112.6075380  96.3812420 128.8880490 110.6442310  92.7339420
 128.9947240 111.5446040  93.0408180 127.9772850 110.5960280  92.4434070
 138.5399600 109.7667120  94.2050320 139.3609220 109.2763690  94.2475800
 138.5733680 110.3564780  94.9582160 130.7288220 113.6128680  97.0664600
 131.2366440 114.1109650  97.7069620 131.2601460 112.8363880  96.8903960
 142.8299150 111.7833870 100.7693950 142.1251320 112.1715580 100.2509060
 143.0957070 112.4784160 101.3714880 135.3995410 118.3646550  92.8317920
 134.7812680 118.8296000  92.2680640 135.9118660 119.0574030  93.2487430
 130.2627170 117.8922420  99.5101520 129.9296550 118.5191340 100.1522590
 130.4393850 118.4184300  98.7303190 138.7761080 111.7067500  96.9777860
 138.0716650 111.9952390  97.5580970 139.1373240 112.5167610  96.6177420
 129.4746270 119.8603220 101.3250700 130.0920270 120.5354300 101.0435150
 128.6139390 120.2691200 101.2338200 140.3923860 121.3242630  99.2405340
 139.7087380 121.9941740  99.2322010 140.9318150 121.5223280  98.4750200
 141.8448000 111.1522290  97.3687070 140.8972910 111.1861270  97.5002500
 142.1697990 111.9661240  97.7536430 137.9282600 123.1686760  97.9550520
 137.9409760 122.7649050  97.0872780 137.3757820 123.9434050  97.8511950
 139.2228020 119.8902980  93.0440690 139.1124350 118.9477310  93.1690110
 139.2196270 120.2518620  93.9303450 137.3268040 118.0716600  99.2833130
 137.7436830 117.8576710  98.4486590 138.0507860 118.3289390  99.8541750
 134.7648300 115.5168300  92.4003180 133.8377580 115.4505680  92.6291650
 134.9173120 116.4548430  92.2858420 134.7517380 111.7885300  89.3970340
 133.8121050 111.9499260  89.4822800 135.0700640 112.5070980  88.8506330
 141.2730140 116.4703820  99.3749370 140.4448770 116.5396910  98.8999500
 141.8680620 117.0558130  98.9065200 138.7945590 117.0788600  92.9038430
 138.1758010 116.7408150  92.2564730 138.7770040 116.4348360  93.6117620
 138.2372150 113.2573140 100.3204240 137.8243330 114.0826850 100.5744230
 137.5048100 112.6718180 100.1280600 130.3704940 116.0433040  95.1822910
 129.9661940 115.3310290  94.6868810 130.4568060 115.6986280  96.0710950
 130.8386640 119.7300600  97.3462120 130.5414930 119.1246070  96.6669900
 131.7886460 119.7677910  97.2351480 138.9272250 123.3032470 101.0085220
 138.4502810 124.1104660 100.8157830 138.2434040 122.6510800 101.1611430
 129.9305070 119.4682290 103.9969920 129.0333600 119.6922260 104.2443320
 129.9557940 119.5917230 103.0481320 136.9710290 116.3175410  89.9111180
 137.4103570 115.4797840  89.7649000 137.6838710 116.9504810  89.9975320
 128.7576290 116.3395610 102.5727290 128.6184060 117.2118410 102.9414690
 127.8757650 115.9968420 102.4275230 135.0805670 121.2571480  93.8792420
 135.5201580 121.9995810  93.4647810 135.0192560 121.4998050  94.8031380
 130.5556640 122.2817310 104.7812440 130.5272070 122.6860260 103.9140870
 130.3921610 121.3527670 104.6184040 140.5527430 107.5718220  88.2252220
 140.2400090 107.6645050  89.1251290 141.3139900 108.1499250  88.1749650
 127.0709570 114.9378020  92.6829560 126.9507170 115.6640110  92.0710830
 126.7610460 114.1680930  92.2057470 142.5071460 123.0644410 106.0776610
 142.9831180 123.5427300 106.7565690 143.1278620 122.9961900 105.3522110
 124.7094940 118.1093160  98.4898200 124.7875360 118.2441930  97.5453920
 125.3236620 117.4009050  98.6826320 141.9104710 120.2557260 103.2376620
 142.0367770 120.0169140 102.3193800 141.9526090 119.4241800 103.7098700
 135.7721450 123.9585260 101.8071430 136.2866120 123.8693270 102.6093860
 134.9290530 124.3044960 102.0999340 137.7475850 124.2440600  91.2355430
 137.5876990 123.9543540  92.1337260 137.5822560 123.4680730  90.7000660
 130.2264230 124.0239130  93.0127050 130.0506710 123.1074670  92.7994850
 129.3719970 124.3826420  93.2524850 137.4501980 121.7528160  89.7953430
 136.7567140 121.7505450  89.1355710 138.1924840 121.3287480  89.3647600
 137.0151910 123.3790870  93.8701920 137.4708860 122.5980250  94.1840540
 137.3544430 124.0897690  94.4143100 141.7628720 112.3089720 104.2026360
 141.1472990 112.8169390 103.6741820 141.4425140 111.4088050 104.1452300
 124.7654460 119.1507330 101.0292660 124.9285500 118.6812690 100.2112030
 125.2306910 118.6430890 101.6941500 133.8243040 111.1481610 101.6688550
 133.3622410 111.3564630 102.4808490 133.4221150 110.3340960 101.3659220
 138.8247550 112.3690560 102.7985210 137.9741140 112.0696310 103.1194280
 138.6649340 112.6132570 101.8869030 135.9197260 113.8692310 104.8984000
 136.2450670 113.0356060 104.5586230 136.7077590 114.3920830 105.0462330
 132.6532050 107.9023790  90.9459060 132.0286230 107.8983660  91.6712370
 132.5662170 107.0354750  90.5495030 129.3287450 113.4046660  93.7934480
 129.1028370 113.1883830  94.6981100 128.5479980 113.8375120  93.4480450
 136.5585210 113.4110030  92.3925130 135.9594100 114.1345830  92.2088750
 137.1064820 113.3486810  91.6101580 131.7686660 114.3032240 104.4594750
 131.6730260 113.3626970 104.3095150 132.6118640 114.5247310 104.0642820
 135.1650080 112.0473570  94.4228410 135.5579650 112.3645770  93.6097100
 135.5266930 111.1685450  94.5372930 126.8997200 110.7145910 102.6128530
 126.5060590 111.5621120 102.8201310 126.2115600 110.0772280 102.8037170
 133.4742250 110.7980880 105.6825270 132.7840570 110.6053080 106.3171360
 134.2174550 111.0815520 106.2149570 135.7505220 114.6379320  98.5179190
 135.0186340 115.1466130  98.8669290 135.3529560 113.8209300  98.2167970
 132.1882610 111.3133520  96.9231680 132.1918670 110.8723470  96.0736220
 133.0833730 111.6350850  97.0303500 132.2502760 112.3145600  89.9138440
 132.3715580 112.2732080  90.8624260 131.8651270 113.1769750  89.7585170
 136.2131130 110.0913000  97.9302130 136.2303870 110.5421650  98.7743980
 135.9646710 109.1918640  98.1435570 131.2624260 114.6246740  89.3121740
 130.6941160 114.1764990  88.6857650 131.9713260 114.9839520  88.7786890
 139.6401880 107.5045180 103.7688510 139.9647650 106.7734840 104.2946490
 139.6758390 107.1858820 102.8669500 126.3393440 118.5258760 103.1888470
 125.9548230 117.8852430 103.7871430 126.6505630 119.2294880 103.7583200
 132.4890580 115.3735300  98.6697090 132.8560710 114.8993870  99.4158430
 132.2995640 116.2476870  99.0105430 130.2789950 114.4143940 100.9881300
 129.9747020 115.2935920 101.2131660 131.2336410 114.4743730 101.0238740
 128.8071740 118.6204930  91.5848150 128.0334000 118.0802550  91.4246870
 129.5366370 118.1011540  91.2465910 139.5659720 117.6170290  97.3774540
 140.2858840 118.1125580  96.9870650 139.3641540 116.9388180  96.7328410
 135.0269660 109.0108250  91.5203930 134.2134270 108.5121420  91.4449240
 134.8331610 109.8506500  91.1040280 134.9478520 117.6879350 103.2643540
 134.8815830 116.7675020 103.0101130 134.3183660 117.7854790 103.9788180
 137.7418050 113.3827900  89.8166090 138.6297670 113.6945130  89.6417430
 137.7123140 112.5100150  89.4246670 128.8509140 118.2885310  95.2226960
 129.3687810 117.4853570  95.1683850 128.3993160 118.2264450  96.0643790
 133.7378640 119.5551590  90.4954260 134.0794340 120.2993820  89.9997580
 132.9091350 119.8682710  90.8579090 126.3353680 115.2546680 102.1352660
 125.9768620 115.9200530 102.7226000 126.0408240 114.4230230 102.5065280
 129.5366800 115.7130920 105.0192210 129.2366940 115.8588100 104.1220030
 130.3078040 115.1536210 104.9265600 134.8795250 120.5099920 103.0147340
 134.8939790 119.5780880 102.7966250 134.1720350 120.5959680 103.6537110
 140.0132320 114.6939740  89.2845950 139.9296040 115.1253960  88.4342390
 140.7326510 115.1538090  89.7172770 141.0906460 117.1507260 102.3615920
 140.3654650 117.7436040 102.1645310 141.6181920 117.1430800 101.5629290
 141.0419570 121.5482000  92.0128080 140.3995730 120.8937620  92.2871800
 140.6550230 121.9537090  91.2368750 136.6206050 118.8767430  95.8599770
 136.9729870 118.2795560  95.2001140 135.7368380 118.5511660  96.0308020
 132.7069330 119.6365120  93.2670180 133.3940460 120.1834330  93.6477770
 131.9201750 120.1805850  93.3019790 124.8461730 115.2537940  88.7587260
 125.7156580 115.5362740  89.0423180 124.3552050 116.0673810  88.6436070
 132.0096540 116.6411150  92.8795540 132.4659320 117.4516400  93.1055730
 131.6584750 116.3234290  93.7114030 134.3129150 122.1517490 100.1087840
 134.9571370 122.3576870 100.7861260 134.6758590 121.3905890  99.6558690
 135.5861230 120.1549840  98.8265290 136.2283460 119.4543000  98.9397460
 136.1110580 120.9348280  98.6462180 139.4316950 120.4398460  88.5504430
 139.2054530 119.7228900  89.1429070 139.0413150 120.1910900  87.7126180
 137.3598850 120.9544740 102.0301350 137.6955090 121.5411430 102.7079270
 136.4399190 120.8237450 102.2599140 124.9102250 108.7439920 102.8124760
 124.1960770 108.9436840 103.4177370 125.3297290 107.9679490 103.1839560
 139.0133200 118.3570400  90.2118590 138.7254900 118.8183090  90.9996470
 139.8085370 117.8968170  90.4802810 125.1974840 122.7320180 103.7991290
 125.3065960 121.7914920 103.6586680 124.5455400 122.9974930 103.1505020
 133.1887430 121.0036070 105.1989410 132.8684300 120.2845310 105.7435100
 132.5145790 121.6791140 105.2725470 131.2301600 121.8496520  90.1422560
 131.2211700 122.5826210  89.5267070 130.3099960 121.6028100  90.2349520
 126.8308240 117.0711410  90.8869320 126.2236190 117.8110310  90.8964620
 127.3057590 117.1610770  90.0607520 136.4041030 111.2362230 100.5626210
 136.7721850 110.4157440 100.8905780 135.5439230 111.2964120 100.9781860
 139.7703060 110.1919170  91.3713770 139.1416220 110.2964840  90.6572000
 139.2754980 110.4115950  92.1607650 134.2161200 121.9124760  88.8047750
 134.3173180 121.7088750  87.8749730 133.3162940 121.6583040  89.0095530
 131.7387090 112.4705120  92.7871650 131.0303240 112.9391460  93.2285260
 132.0231570 111.8127130  93.4216840 133.3643020 113.8901820 100.7864180
 133.8628270 114.3647640 101.4516030 133.5065970 112.9665340 100.9934210
 135.7702520 109.1955780  94.2267440 135.6470300 109.2141910  93.2776950
 136.7187080 109.2434720  94.3465840 132.8579310 124.4311080  93.4995420
 133.1120810 124.3932470  92.5774790 131.9091790 124.3044410  93.4923670
 129.9422110 110.7790200  90.1622360 130.7912640 111.2160350  90.0962550
 129.5753380 111.0910460  90.9894420 140.5709880 110.1069780 101.6292570
 140.0683480 110.8475180 101.9686380 141.3866540 110.4953780 101.3129360
 138.8631890 115.3502960  95.0753930 137.9222030 115.3653190  95.2501620
 139.1775960 114.5638920  95.5214230 128.8413530 117.0322560  88.6357890
 129.6076800 116.9203920  89.1983320 128.9188220 116.3360530  87.9834660
 127.5360290 114.4647630  89.3190780 127.6163880 113.5175140  89.4308180
 128.4280040 114.7954510  89.4251440 140.8657470 122.5211810  96.7508190
 140.9904890 123.3442980  97.2232000 141.7323030 122.3102540  96.4032340
 128.3375000 124.6143020  96.4225320 129.0737480 124.0658480  96.6933890
 128.7215920 125.4799030  96.2831310 127.3433280 123.7989090 105.6110900
 128.1446010 124.1201140 106.0246300 126.8285100 123.4384670 106.3330810
 131.4477310 123.7873330  88.2450890 132.2405920 124.0762160  87.7932680
 130.9281660 123.3565500  87.5663370 136.1797910 119.9068960 105.5586310
 135.5736070 119.9300560 104.8182060 135.8752020 119.1752000 106.0953560
 137.6098280 123.6349250 104.1695720 138.5620030 123.5507270 104.1195960
 137.4626500 124.2990960 104.8429510 140.5007480 123.0143460  89.6687630
 140.2148990 122.6008600  88.8541810 140.3027030 123.9431170  89.5488150
 131.9654710 119.0076740  88.1093240 131.8605350 118.3929090  88.8354620
 131.7978930 118.4842630  87.3256250 132.1169030 117.6933540 104.0882470
 131.3514700 118.2618540 104.0037140 132.2984990 117.4009750 103.1950700
 135.2057440 118.0696770  88.7135230 134.6567540 118.5166070  89.3577970
 135.8276700 117.5646020  89.2372900 139.2592380 119.4238870 104.6457490
 140.0001850 119.7614630 104.1424950 138.4965060 119.5930930 104.0927260
 127.0954170 114.4292140 105.4497020 127.1359510 114.1306010 106.3582250
 127.9499670 114.8299750 105.2904540 130.8732560 117.0287690  90.6100530
 131.2948980 116.8627560  91.4531920 130.9983400 116.2187920  90.1155670
 129.0359980 113.0084240 103.4171510 128.5056440 112.5175190 102.7894850
 129.7048050 113.4368440 102.8829440 133.3860200 116.0525300  87.8577630
 133.9065860 115.3374320  87.4918780 134.0328600 116.6911170  88.1578140
 137.9338040 117.4753700 103.1812700 138.3479060 117.6298780 104.0303120
 136.9989040 117.6008920 103.3438480 138.4060210 114.8149860 105.1851850
 138.9880980 114.0602180 105.0972330 138.5821980 115.3457300 104.4083330
 129.5232280 109.9746610 103.4968800 129.4289150 109.3567360 102.7719670
 128.9429670 110.7012900 103.2698710 132.2893720 108.5319850 100.5296190
 131.8411020 108.5544110  99.6841740 131.6558920 108.1338870 101.1266490
 132.6953270 117.4274180 101.1508630 133.1141380 118.2706910 100.9784870
 131.7761900 117.5646220 100.9215410 135.0317170 115.1590360 102.5346470
 135.1513380 114.5631500 103.2741310 135.8911170 115.1960050 102.1147770
 137.3705070 115.7127550 101.1108980 136.8440290 116.2370170 100.5074120
 137.7136410 116.3454940 101.7418710 129.7691460 113.1020920  87.5558690
 129.5680520 112.2388280  87.9172030 129.5983510 113.0154280  86.6180290
 130.5460690 123.7327190 102.2666360 130.0081780 124.4573250 101.9475060
 130.7994650 123.2557530 101.4763700 131.7985940 111.7011710 103.7922290
 132.3885630 111.3927560 104.4800110 130.9806180 111.2291460 103.9482190
 136.6179370 111.3177520 104.0255310 135.9294890 110.6559060 103.9605300
 137.3385390 110.8715790 104.4703770 137.2479770 107.9129150  90.0845570
 137.5282060 107.0697050  90.4404990 136.4745500 108.1452260  90.5984320
 128.5674260 110.2021540  87.5436570 128.8700160 110.2088970  86.6355720
 129.3068850 109.8519400  88.0404230 133.4022900 124.9678400 102.5253010
 133.3281600 125.8713540 102.8325380 132.5001740 124.6490300 102.4975080
 131.7859190 109.1456160  88.5292770 131.4381190 108.4680150  87.9495220
 131.9871960 108.6845670  89.3436160 133.9508230 124.1336910  90.1479370
 134.8459020 124.4721880  90.1698130 133.9825860 123.4116320  89.5203650
 127.5904390 119.5063960  88.3766370 128.0279260 120.0493630  89.0323950
 128.0752120 118.6810910  88.3862710 129.4012110 120.6262000  93.4888600
 129.1007650 120.5026970  94.3892510 129.2949600 119.7670590  93.0804330
 125.2940400 123.1623580  98.5668260 124.8571390 123.3424380  99.3992410
 125.8618080 123.9198200  98.4249980 140.9302580 122.6640580 102.8545570
 140.3304570 122.7233140 102.1109490 141.0596480 121.7245560 102.9842420
 142.1704030 120.4058400  88.1915280 141.3396990 120.4735050  88.6622510
 142.3475860 121.2962520  87.8882140 141.6260490 117.1505880  90.6949480
 142.3879400 117.7202530  90.8009170 141.6414860 116.5833080  91.4657790
 142.6320460 118.0055980  95.5391410 143.0029290 117.2223300  95.1327380
 143.2722390 118.6945080  95.3608710 139.6154220 119.3892560 100.9521730
 138.8014060 119.8189720 101.2147520 140.0228420 120.0010970 100.3390780
 141.6779660 117.4440250  87.8522000 141.9528500 118.3519130  87.7241220
 141.4890400 117.3802780  88.7883990 138.0755270 110.4685100  89.1475630
 138.4940150 110.2816080  88.3072290 137.7691330 109.6164150  89.4578560
 141.5745000 115.3809240  92.8451430 141.1988600 114.6137170  92.4132720
 140.8448120 115.7631940  93.3326360 126.1640760 116.0596380  99.4660480
 126.5313800 115.9723780 100.3456500 125.5951580 115.2962930  99.3667340
 140.9644620 114.5280760 102.4790950 140.7330710 114.2993510 101.5788900
 141.2249170 115.4480310 102.4335840 139.4032690 109.7537190 105.2570650
 140.2802870 109.7620590 105.6404650 139.4153530 109.0168030 104.6463000
 140.8495960 113.6066730  96.1458670 141.3733440 113.1129380  95.5148840
 141.4355380 113.7417090  96.8906240 141.0285680 113.6906600  99.6678220
 140.0788390 113.6570140  99.7823210 141.2098690 114.6006710  99.4327990
 140.3395930 112.8640080  92.0851080 140.8355050 112.6310950  92.8699960
 140.1412000 112.0251920  91.6688720 141.7683090 111.5001030  94.6188760
 141.6582370 111.3457070  95.5571030 142.5290680 110.9721970  94.3764170
 140.1148810 107.4395160 101.0771760 140.7521030 108.0529300 101.4430950
 140.2623700 107.4755820 100.1320990 142.6573360 109.3308950  87.8594900
 143.5822670 109.1990130  87.6513190 142.6349150 109.4101770  88.8131350
 142.7311850 110.1019610  90.4851610 141.9363350 110.0364730  91.0144520
 142.9355130 111.0370250  90.4736960 139.6730270 124.1411160  94.4790000
 140.2689340 123.8195730  93.8024420 139.9308420 123.6682980  95.2703270
 127.5792840 120.5729070 104.6280630 127.5362470 120.2021980 105.5095090
 127.7103850 121.5106640 104.7682450 131.2798870 122.1288660 100.2290350
 131.0390230 122.3963220  99.3420870 132.2201510 122.2994390 100.2841210
 133.4853290 108.5921350 103.9846860 133.4242180 109.1843180 104.7342270
 134.4253670 108.4847310 103.8397120 136.1227850 108.2491410 103.6239150
 136.7368260 108.5670700 102.9620230 136.6677410 107.7640000 104.2435010
 142.5403030 124.1483040 101.0300990 142.0461310 124.5451910 100.3128120
 141.9316320 123.5232250 101.4238270 126.6449110 106.9285670 103.7378210
 127.1932100 106.7473720 102.9744320 126.7104420 106.1379780 104.2734520
 127.4180870 123.5191320 101.7478410 126.8241190 123.3876020 102.4868450
 127.4104710 122.6829460 101.2820510 136.8635890 106.8123550  99.9508440
 135.9895730 107.1458660  99.7481370 136.7546640 106.3396730 100.7760310
 137.7707870 109.0194420 101.3350160 137.4421230 108.2046180 100.9551890
 138.7190170 108.9764230 101.2115850 140.2242480 124.7906460  98.3087730
 139.7645450 125.5422270  97.9345750 139.5954940 124.0712930  98.2502530
 127.0493100 120.8849700 100.6986450 126.3227160 120.2654990 100.6312400
 127.1102250 121.2790310  99.8284530 130.6538200 123.0994700  97.4835860
 131.1703220 122.4882060  96.9584120 131.3035580 123.6023480  97.9746870
 133.3933700 123.9903190  98.3104840 133.6811510 123.7357490  97.4337850
 133.9056920 123.4380550  98.9010410 134.6110710 107.7293390  98.8901350
 133.8282500 108.2038890  99.1698110 134.3173640 106.8248220  98.7814530
 139.1631780 108.4316490  96.9350440 139.6039870 108.3761590  96.0872040
 138.8939370 109.3474500  97.0060620 141.0270350 108.0631730  94.9459260
 140.9658750 107.1192950  94.7990280 141.8062380 108.1711820  95.4912720
 125.9551120 108.0340870  91.4115070 126.7130480 108.1469750  90.8379100
 125.4928290 108.8710070  91.3658500 132.4964930 110.1480140  94.4017380
 131.6839440 109.7737030  94.0613260 133.0006570 109.3925220  94.7038570
 136.9989910 106.8122590  95.6400450 137.6019280 107.3842800  96.1148970
 136.2582900 107.3762030  95.4174350 140.1424510 107.2144150  90.9140730
 140.3375140 108.1127600  91.1808160 139.3554380 106.9831230  91.4073680
 128.3276270 108.5604920  89.9517040 128.8569030 107.7734720  89.8224990
 128.9604590 109.2396110  90.1852570 133.4606060 124.9119290 105.6773040
 134.3873370 124.6763560 105.7209000 133.4456490 125.7391290 105.1959070
 141.6951120 124.4544860  92.6747290 141.8703310 123.7682600  92.0308210
 140.9972690 124.9791910  92.2823960 130.6469670 107.5764040 105.4414920
 130.3653940 108.0797640 104.6775740 131.0289370 106.7785790 105.0757050
 129.5378770 124.8439700  90.2282600 130.2697590 124.5598980  89.6806490
 129.7972440 124.6052980  91.1181980 128.6993560 120.9604430  90.2328930
 128.0702440 121.4289530  90.7814760 128.8141390 120.1153650  90.6675120
 137.2485130 106.9917620 106.0195390 137.1350580 107.3112230 106.9146910
 138.0654870 107.3930130 105.7232670 140.0283620 124.1389150 105.5014080
 140.8208940 123.6438380 105.2940040 140.3216770 124.8179290 106.1089690
 136.1543280 115.0110090  76.3830130 136.0737330 114.0964700  76.1121840
 135.7407700 115.5077160  75.6769840 134.2861320 116.7889110  78.2639400
 133.5103420 116.3089550  78.5537970 134.9374250 116.1094760  78.0895560
 138.3068750 121.1949300  77.0438530 137.8450280 120.4236540  77.3725700
 139.1194300 121.2215370  77.5490980 128.2828410 121.1349010  79.3373180
 128.5856450 120.2446750  79.1583400 129.0272000 121.6919230  79.1095430
 124.6752110 114.6616460  78.8097250 125.2468220 113.8938660  78.8100890
 124.6753650 114.9605220  77.9003860 134.5332060 123.4807310  76.6642520
 133.9143500 123.9364810  76.0936960 135.3883840 123.6358770  76.2632220
 133.7270310 119.4646300  78.2709560 133.6578590 118.5236240  78.1098690
 134.4890170 119.5547710  78.8432130 134.7575480 112.2716680  78.4978490
 135.1340300 111.3988560  78.3852160 134.6594990 112.6075380  77.6068930
 142.8299150 111.7833870  81.9950460 142.1251320 112.1715580  81.4765570
 143.0957070 112.4784160  82.5971390 135.3995410 118.3646550  74.0574430
 134.7812680 118.8296000  73.4937150 135.9118660 119.0574030  74.4743940
 130.2627170 117.8922420  80.7358030 129.9296550 118.5191340  81.3779100
 130.4393850 118.4184300  79.9559700 138.7761080 111.7067500  78.2034370
 138.0716650 111.9952390  78.7837480 139.1373240 112.5167610  77.8433930
 129.4746270 119.8603220  82.5507210 130.0920270 120.5354300  82.2691660
 128.6139390 120.2691200  82.4594710 140.3923860 121.3242630  80.4661850
 139.7087380 121.9941740  80.4578520 140.9318150 121.5223280  79.7006710
 141.8448000 111.1522290  78.5943580 140.8972910 111.1861270  78.7259010
 142.1697990 111.9661240  78.9792940 137.9282600 123.1686760  79.1807030
 137.9409760 122.7649050  78.3129290 137.3757820 123.9434050  79.0768460
 139.2228020 119.8902980  74.2697200 139.1124350 118.9477310  74.3946620
 139.2196270 120.2518620  75.1559960 137.3268040 118.0716600  80.5089640
 137.7436830 117.8576710  79.6743100 138.0507860 118.3289390  81.0798260
 134.7648300 115.5168300  73.6259690 133.8377580 115.4505680  73.8548160
 134.9173120 116.4548430  73.5114930 134.7517380 111.7885300  70.6226850
 133.8121050 111.9499260  70.7079310 135.0700640 112.5070980  70.0762840
 141.2730140 116.4703820  80.6005880 140.4448770 116.5396910  80.1256010
 141.8680620 117.0558130  80.1321710 138.7945590 117.0788600  74.1294940
 138.1758010 116.7408150  73.4821240 138.7770040 116.4348360  74.8374130
 138.2372150 113.2573140  81.5460750 137.8243330 114.0826850  81.8000740
 137.5048100 112.6718180  81.3537110 130.8386640 119.7300600  78.5718630
 130.5414930 119.1246070  77.8926410 131.7886460 119.7677910  78.4607990
 138.9272250 123.3032470  82.2341730 138.4502810 124.1104660  82.0414340
 138.2434040 122.6510800  82.3867940 129.9305070 119.4682290  85.2226430
 129.0333600 119.6922260  85.4699830 129.9557940 119.5917230  84.2737830
 136.9710290 116.3175410  71.1367690 137.4103570 115.4797840  70.9905510
 137.6838710 116.9504810  71.2231830 128.7576290 116.3395610  83.7983800
 128.6184060 117.2118410  84.1671200 127.8757650 115.9968420  83.6531740
 135.0805670 121.2571480  75.1048930 135.5201580 121.9995810  74.6904320
 135.0192560 121.4998050  76.0287890 130.5556640 122.2817310  86.0068950
 130.5272070 122.6860260  85.1397380 130.3921610 121.3527670  85.8440550
 140.5527430 107.5718220  69.4508730 140.2400090 107.6645050  70.3507800
 141.3139900 108.1499250  69.4006160 142.5071460 123.0644410  87.3033120
 142.9831180 123.5427300  87.9822200 143.1278620 122.9961900  86.5778620
 124.7094940 118.1093160  79.7154710 124.7875360 118.2441930  78.7710430
 125.3236620 117.4009050  79.9082830 141.9104710 120.2557260  84.4633130
 142.0367770 120.0169140  83.5450310 141.9526090 119.4241800  84.9355210
 135.7721450 123.9585260  83.0327940 136.2866120 123.8693270  83.8350370
 134.9290530 124.3044960  83.3255850 137.7475850 124.2440600  72.4611940
 137.5876990 123.9543540  73.3593770 137.5822560 123.4680730  71.9257170
 130.2264230 124.0239130  74.2383560 130.0506710 123.1074670  74.0251360
 129.3719970 124.3826420  74.4781360 137.4501980 121.7528160  71.0209940
 136.7567140 121.7505450  70.3612220 138.1924840 121.3287480  70.5904110
 137.0151910 123.3790870  75.0958430 137.4708860 122.5980250  75.4097050
 137.3544430 124.0897690  75.6399610 141.7628720 112.3089720  85.4282870
 141.1472990 112.8169390  84.8998330 141.4425140 111.4088050  85.3708810
 124.7654460 119.1507330  82.2549170 124.9285500 118.6812690  81.4368540
 125.2306910 118.6430890  82.9198010 133.8243040 111.1481610  82.8945060
 133.3622410 111.3564630  83.7065000 133.4221150 110.3340960  82.5915730
 138.8247550 112.3690560  84.0241720 137.9741140 112.0696310  84.3450790
 138.6649340 112.6132570  83.1125540 135.9197260 113.8692310  86.1240510
 136.2450670 113.0356060  85.7842740 136.7077590 114.3920830  86.2718840
 136.5585210 113.4110030  73.6181640 135.9594100 114.1345830  73.4345260
 137.1064820 113.3486810  72.8358090 131.7686660 114.3032240  85.6851260
 131.6730260 113.3626970  85.5351660 132.6118640 114.5247310  85.2899330
 133.4742250 110.7980880  86.9081780 132.7840570 110.6053080  87.5427870
 134.2174550 111.0815520  87.4406080 124.2014250 108.6374370  77.8715120
 123.9127300 109.2077230  78.5840100 124.9460010 108.1578820  78.2346350
 124.3884480 112.5794490  69.0817840 124.3059150 113.5225250  69.2232830
 124.0367540 112.4369400  68.2030190 135.7505220 114.6379320  79.7435700
 135.0186340 115.1466130  80.0925800 135.3529560 113.8209300  79.4424480
 131.2624260 114.6246740  70.5378250 130.6941160 114.1764990  69.9114160
 131.9713260 114.9839520  70.0043400 139.6401880 107.5045180  84.9945020
 139.9647650 106.7734840  85.5203000 139.6758390 107.1858820  84.0926010
 126.3393440 118.5258760  84.4144980 125.9548230 117.8852430  85.0127940
 126.6505630 119.2294880  84.9839710 132.4890580 115.3735300  79.8953600
 132.8560710 114.8993870  80.6414940 132.2995640 116.2476870  80.2361940
 125.3531070 110.1178990  76.0247070 125.0677990 109.7534660  76.8625690
 125.2909930 109.3859450  75.4110210 139.5659720 117.6170290  78.6031050
 140.2858840 118.1125580  78.2127160 139.3641540 116.9388180  77.9584920
 134.9478520 117.6879350  84.4900050 134.8815830 116.7675020  84.2357640
 134.3183660 117.7854790  85.2044690 137.7418050 113.3827900  71.0422600
 138.6297670 113.6945130  70.8673940 137.7123140 112.5100150  70.6503180
 128.8509140 118.2885310  76.4483470 129.3687810 117.4853570  76.3940360
 128.3993160 118.2264450  77.2900300 133.7378640 119.5551590  71.7210770
 134.0794340 120.2993820  71.2254090 132.9091350 119.8682710  72.0835600
 126.3353680 115.2546680  83.3609170 125.9768620 115.9200530  83.9482510
 126.0408240 114.4230230  83.7321790 129.5366800 115.7130920  86.2448720
 129.2366940 115.8588100  85.3476540 130.3078040 115.1536210  86.1522110
 134.8795250 120.5099920  84.2403850 134.8939790 119.5780880  84.0222760
 134.1720350 120.5959680  84.8793620 140.0132320 114.6939740  70.5102460
 139.9296040 115.1253960  69.6598900 140.7326510 115.1538090  70.9429280
 141.0906460 117.1507260  83.5872430 140.3654650 117.7436040  83.3901820
 141.6181920 117.1430800  82.7885800 141.0419570 121.5482000  73.2384590
 140.3995730 120.8937620  73.5128310 140.6550230 121.9537090  72.4625260
 136.6206050 118.8767430  77.0856280 136.9729870 118.2795560  76.4257650
 135.7368380 118.5511660  77.2564530 132.7069330 119.6365120  74.4926690
 133.3940460 120.1834330  74.8734280 131.9201750 120.1805850  74.5276300
 124.8461730 115.2537940  69.9843770 125.7156580 115.5362740  70.2679690
 124.3552050 116.0673810  69.8692580 132.0096540 116.6411150  74.1052050
 132.4659320 117.4516400  74.3312240 131.6584750 116.3234290  74.9370540
 134.3129150 122.1517490  81.3344350 134.9571370 122.3576870  82.0117770
 134.6758590 121.3905890  80.8815200 127.9108320 106.9848800  74.5774570
 127.7822950 106.9766700  75.5259490 127.0870340 107.3231890  74.2265580
 135.5861230 120.1549840  80.0521800 136.2283460 119.4543000  80.1653970
 136.1110580 120.9348280  79.8718690 139.4316950 120.4398460  69.7760940
 139.2054530 119.7228900  70.3685580 139.0413150 120.1910900  68.9382690
 137.3598850 120.9544740  83.2557860 137.6955090 121.5411430  83.9335780
 136.4399190 120.8237450  83.4855650 125.2132980 124.4665320  70.5505400
 125.5730620 125.0654660  69.8962670 125.0725320 125.0125210  71.3240430
 124.9102250 108.7439920  84.0381270 124.1960770 108.9436840  84.6433880
 125.3297290 107.9679490  84.4096070 139.0133200 118.3570400  71.4375100
 138.7254900 118.8183090  72.2252980 139.8085370 117.8968170  71.7059320
 133.1887430 121.0036070  86.4245920 132.8684300 120.2845310  86.9691610
 132.5145790 121.6791140  86.4981980 131.2301600 121.8496520  71.3679070
 131.2211700 122.5826210  70.7523580 130.3099960 121.6028100  71.4606030
 136.4041030 111.2362230  81.7882720 136.7721850 110.4157440  82.1162290
 135.5439230 111.2964120  82.2038370 139.7703060 110.1919170  72.5970280
 139.1416220 110.2964840  71.8828510 139.2754980 110.4115950  73.3864160
 134.2161200 121.9124760  70.0304260 134.3173180 121.7088750  69.1006240
 133.3162940 121.6583040  70.2352040 133.3643020 113.8901820  82.0120690
 133.8628270 114.3647640  82.6772540 133.5065970 112.9665340  82.2190720
 132.8579310 124.4311080  74.7251930 133.1120810 124.3932470  73.8031300
 131.9091790 124.3044410  74.7180180 140.5709880 110.1069780  82.8549080
 140.0683480 110.8475180  83.1942890 141.3866540 110.4953780  82.5385870
 138.8631890 115.3502960  76.3010440 137.9222030 115.3653190  76.4758130
 139.1775960 114.5638920  76.7470740 128.8413530 117.0322560  69.8614400
 129.6076800 116.9203920  70.4239830 128.9188220 116.3360530  69.2091170
 127.5360290 114.4647630  70.5447290 127.6163880 113.5175140  70.6564690
 128.4280040 114.7954510  70.6507950 140.8657470 122.5211810  77.9764700
 140.9904890 123.3442980  78.4488510 141.7323030 122.3102540  77.6288850
 128.3375000 124.6143020  77.6481830 129.0737480 124.0658480  77.9190400
 128.7215920 125.4799030  77.5087820 127.3433280 123.7989090  86.8367410
 128.1446010 124.1201140  87.2502810 126.8285100 123.4384670  87.5587320
 131.4477310 123.7873330  69.4707400 132.2405920 124.0762160  69.0189190
 130.9281660 123.3565500  68.7919880 136.1797910 119.9068960  86.7842820
 135.5736070 119.9300560  86.0438570 135.8752020 119.1752000  87.3210070
 137.6098280 123.6349250  85.3952230 138.5620030 123.5507270  85.3452470
 137.4626500 124.2990960  86.0686020 140.5007480 123.0143460  70.8944140
 140.2148990 122.6008600  70.0798320 140.3027030 123.9431170  70.7744660
 125.0631090 116.2862550  85.7803460 125.5670110 115.7069830  86.3519690
 124.3238510 116.5702780  86.3179830 131.9654710 119.0076740  69.3349750
 131.8605350 118.3929090  70.0611130 131.7978930 118.4842630  68.5512760
 132.1169030 117.6933540  85.3138980 131.3514700 118.2618540  85.2293650
 132.2984990 117.4009750  84.4207210 135.2057440 118.0696770  69.9391740
 134.6567540 118.5166070  70.5834480 135.8276700 117.5646020  70.4629410
 139.2592380 119.4238870  85.8714000 140.0001850 119.7614630  85.3681460
 138.4965060 119.5930930  85.3183770 127.0954170 114.4292140  86.6753530
 127.1359510 114.1306010  87.5838760 127.9499670 114.8299750  86.5161050
 130.8732560 117.0287690  71.8357040 131.2948980 116.8627560  72.6788430
 130.9983400 116.2187920  71.3412180 133.3860200 116.0525300  69.0834140
 133.9065860 115.3374320  68.7175290 134.0328600 116.6911170  69.3834650
 137.9338040 117.4753700  84.4069210 138.3479060 117.6298780  85.2559630
 136.9989040 117.6008920  84.5694990 138.4060210 114.8149860  86.4108360
 138.9880980 114.0602180  86.3228840 138.5821980 115.3457300  85.6339840
 129.5232280 109.9746610  84.7225310 129.4289150 109.3567360  83.9976180
 128.9429670 110.7012900  84.4955220 132.6953270 117.4274180  82.3765140
 133.1141380 118.2706910  82.2041380 131.7761900 117.5646220  82.1471920
 135.0317170 115.1590360  83.7602980 135.1513380 114.5631500  84.4997820
 135.8911170 115.1960050  83.3404280 137.3705070 115.7127550  82.3365490
 136.8440290 116.2370170  81.7330630 137.7136410 116.3454940  82.9675220
 129.7691460 113.1020920  68.7815200 129.5680520 112.2388280  69.1428540
 129.5983510 113.0154280  67.8436800 130.5460690 123.7327190  83.4922870
 130.0081780 124.4573250  83.1731570 130.7994650 123.2557530  82.7020210
 131.7985940 111.7011710  85.0178800 132.3885630 111.3927560  85.7056620
 130.9806180 111.2291460  85.1738700 136.6179370 111.3177520  85.2511820
 135.9294890 110.6559060  85.1861810 137.3385390 110.8715790  85.6960280
 137.2479770 107.9129150  71.3102080 137.5282060 107.0697050  71.6661500
 136.4745500 108.1452260  71.8240830 133.4022900 124.9678400  83.7509520
 133.3281600 125.8713540  84.0581890 132.5001740 124.6490300  83.7231590
 133.9508230 124.1336910  71.3735880 134.8459020 124.4721880  71.3954640
 133.9825860 123.4116320  70.7460160 127.5904390 119.5063960  69.6022880
 128.0279260 120.0493630  70.2580460 128.0752120 118.6810910  69.6119220
 124.8050190 122.2952990  77.0543140 125.1353200 121.4274050  76.8221780
 125.2341190 122.5011510  77.8848100 129.4012110 120.6262000  74.7145110
 129.1007650 120.5026970  75.6149020 129.2949600 119.7670590  74.3060840
 125.2940400 123.1623580  79.7924770 124.8571390 123.3424380  80.6248920
 125.8618080 123.9198200  79.6506490 140.9302580 122.6640580  84.0802080
 140.3304570 122.7233140  83.3366000 141.0596480 121.7245560  84.2098930
 142.1704030 120.4058400  69.4171790 141.3396990 120.4735050  69.8879020
 142.3475860 121.2962520  69.1138650 141.6260490 117.1505880  71.9205990
 142.3879400 117.7202530  72.0265680 141.6414860 116.5833080  72.6914300
 142.6320460 118.0055980  76.7647920 143.0029290 117.2223300  76.3583890
 143.2722390 118.6945080  76.5865220 139.6154220 119.3892560  82.1778240
 138.8014060 119.8189720  82.4404030 140.0228420 120.0010970  81.5647290
 141.6779660 117.4440250  69.0778510 141.9528500 118.3519130  68.9497730
 141.4890400 117.3802780  70.0140500 138.0755270 110.4685100  70.3732140
 138.4940150 110.2816080  69.5328800 137.7691330 109.6164150  70.6835070
 141.5745000 115.3809240  74.0707940 141.1988600 114.6137170  73.6389230
 140.8448120 115.7631940  74.5582870 140.9644620 114.5280760  83.7047460
 140.7330710 114.2993510  82.8045410 141.2249170 115.4480310  83.6592350
 125.7156760 112.9705470  84.5975410 124.8212810 112.9372230  84.9369120
 126.2554310 113.1692260  85.3626660 139.4032690 109.7537190  86.4827160
 140.2802870 109.7620590  86.8661160 139.4153530 109.0168030  85.8719510
 124.3402910 112.8842740  72.0938980 123.4366990 113.1472940  71.9190640
 124.8243530 113.1553910  71.3138940 140.8495960 113.6066730  77.3715180
 141.3733440 113.1129380  76.7405350 141.4355380 113.7417090  78.1162750
 141.0285680 113.6906600  80.8934730 140.0788390 113.6570140  81.0079720
 141.2098690 114.6006710  80.6584500 140.3395930 112.8640080  73.3107590
 140.8355050 112.6310950  74.0956470 140.1412000 112.0251920  72.8945230
 126.2196470 107.2453800  78.9458630 126.8672660 106.6951180  78.5053790
 126.6398310 107.4996950  79.7674440 141.7683090 111.5001030  75.8445270
 141.6582370 111.3457070  76.7827540 142.5290680 110.9721970  75.6020680
 140.1148810 107.4395160  82.3028270 140.7521030 108.0529300  82.6687460
 140.2623700 107.4755820  81.3577500 142.6573360 109.3308950  69.0851410
 143.5822670 109.1990130  68.8769700 142.6349150 109.4101770  70.0387860
 142.7311850 110.1019610  71.7108120 141.9363350 110.0364730  72.2401030
 142.9355130 111.0370250  71.6993470 139.6730270 124.1411160  75.7046510
 140.2689340 123.8195730  75.0280930 139.9308420 123.6682980  76.4959780
 125.9728470 107.4009470  81.6883950 125.6243290 107.8573290  82.4542130
 125.6416170 106.5066600  81.7706380 127.5792840 120.5729070  85.8537140
 127.5362470 120.2021980  86.7351600 127.7103850 121.5106640  85.9938960
 131.2798870 122.1288660  81.4546860 131.0390230 122.3963220  80.5677380
 132.2201510 122.2994390  81.5097720 133.4853290 108.5921350  85.2103370
 133.4242180 109.1843180  85.9598780 134.4253670 108.4847310  85.0653630
 142.5403030 124.1483040  82.2557500 142.0461310 124.5451910  81.5384630
 141.9316320 123.5232250  82.6494780 126.6449110 106.9285670  84.9634720
 127.1932100 106.7473720  84.2000830 126.7104420 106.1379780  85.4991030
 127.4180870 123.5191320  82.9734920 126.8241190 123.3876020  83.7124960
 127.4104710 122.6829460  82.5077020 137.7707870 109.0194420  82.5606670
 137.4421230 108.2046180  82.1808400 138.7190170 108.9764230  82.4372360
 140.2242480 124.7906460  79.5344240 139.7645450 125.5422270  79.1602260
 139.5954940 124.0712930  79.4759040 127.0493100 120.8849700  81.9242960
 126.3227160 120.2654990  81.8568910 127.1102250 121.2790310  81.0541040
 130.6538200 123.0994700  78.7092370 131.1703220 122.4882060  78.1840630
 131.3035580 123.6023480  79.2003380 133.3933700 123.9903190  79.5361350
 133.6811510 123.7357490  78.6594360 133.9056920 123.4380550  80.1266920
 139.1631780 108.4316490  78.1606950 139.6039870 108.3761590  77.3128550
 138.8939370 109.3474500  78.2317130 141.0270350 108.0631730  76.1715770
 140.9658750 107.1192950  76.0246790 141.8062380 108.1711820  76.7169230
 125.3323100 124.2024090  75.1339720 125.1645140 123.5694770  75.8321610
 124.4657610 124.4083490  74.7833910 140.1424510 107.2144150  72.1397240
 140.3375140 108.1127600  72.4064670 139.3554380 106.9831230  72.6330190
 126.9385800 122.8957320  72.5789860 126.4133420 123.2765350  71.8751820
 126.8630380 123.5208090  73.2999570 133.4606060 124.9119290  86.9029550
 134.3873370 124.6763560  86.9465510 133.4456490 125.7391290  86.4215580
 141.6951120 124.4544860  73.9003800 141.8703310 123.7682600  73.2564720
 140.9972690 124.9791910  73.5080470 130.6469670 107.5764040  86.6671430
 130.3653940 108.0797640  85.9032250 131.0289370 106.7785790  86.3013560
 129.5378770 124.8439700  71.4539110 130.2697590 124.5598980  70.9063000
 129.7972440 124.6052980  72.3438490 128.6993560 120.9604430  71.4585440
 128.0702440 121.4289530  72.0071270 128.8141390 120.1153650  71.8931630
 137.2485130 106.9917620  87.2451900 137.1350580 107.3112230  88.1403420
 138.0654870 107.3930130  86.9489180 140.0283620 124.1389150  86.7270590
 140.8208940 123.6438380  86.5196550 140.3216770 124.8179290  87.3346200
 136.1543280 115.0110090  57.6086640 136.0737330 114.0964700  57.3378350
 135.7407700 115.5077160  56.9026350 134.2861320 116.7889110  59.4895910
 133.5103420 116.3089550  59.7794480 134.9374250 116.1094760  59.3152070
 138.3068750 121.1949300  58.2695040 137.8450280 120.4236540  58.5982210
 139.1194300 121.2215370  58.7747490 128.2828410 121.1349010  60.5629690
 128.5856450 120.2446750  60.3839910 129.0272000 121.6919230  60.3351940
 126.7119100 112.0610810  54.1514060 125.8235800 112.4026780  54.0493940
 126.9960290 111.8611130  53.2594890 134.5332060 123.4807310  57.8899030
 133.9143500 123.9364810  57.3193470 135.3883840 123.6358770  57.4888730
 133.7270310 119.4646300  59.4966070 133.6578590 118.5236240  59.3355200
 134.4890170 119.5547710  60.0688640 125.9176980 110.0700820  61.8222690
 125.7379820 109.1726570  62.1025450 125.5157060 110.6172690  62.4969640
 134.7575480 112.2716680  59.7235000 135.1340300 111.3988560  59.6108670
 134.6594990 112.6075380  58.8325440 128.8880490 110.6442310  55.1852440
 128.9947240 111.5446040  55.4921200 127.9772850 110.5960280  54.8947090
 138.5399600 109.7667120  56.6563340 139.3609220 109.2763690  56.6988820
 138.5733680 110.3564780  57.4095180 142.8299150 111.7833870  63.2206970
 142.1251320 112.1715580  62.7022080 143.0957070 112.4784160  63.8227900
 129.0124320 108.2527240  63.7841040 129.0142760 108.7699630  62.9786940
 128.1828630 107.7757420  63.7610970 135.3995410 118.3646550  55.2830940
 134.7812680 118.8296000  54.7193660 135.9118660 119.0574030  55.7000450
 130.2627170 117.8922420  61.9614540 129.9296550 118.5191340  62.6035610
 130.4393850 118.4184300  61.1816210 138.7761080 111.7067500  59.4290880
 138.0716650 111.9952390  60.0093990 139.1373240 112.5167610  59.0690440
 128.6939650 109.9637200  61.7911490 129.0356460 110.8079250  61.4965360
 127.7555460 110.1120940  61.9076830 129.4746270 119.8603220  63.7763720
 130.0920270 120.5354300  63.4948170 128.6139390 120.2691200  63.6851220
 124.7678610 119.0503080  52.6570570 124.3906590 119.5390180  51.9255470
 125.0251680 119.7228360  53.2877100 140.3923860 121.3242630  61.6918360
 139.7087380 121.9941740  61.6835030 140.9318150 121.5223280  60.9263220
 141.8448000 111.1522290  59.8200090 140.8972910 111.1861270  59.9515520
 142.1697990 111.9661240  60.2049450 137.9282600 123.1686760  60.4063540
 137.9409760 122.7649050  59.5385800 137.3757820 123.9434050  60.3024970
 139.2228020 119.8902980  55.4953710 139.1124350 118.9477310  55.6203130
 139.2196270 120.2518620  56.3816470 137.3268040 118.0716600  61.7346150
 137.7436830 117.8576710  60.8999610 138.0507860 118.3289390  62.3054770
 134.7648300 115.5168300  54.8516200 133.8377580 115.4505680  55.0804670
 134.9173120 116.4548430  54.7371440 134.7517380 111.7885300  51.8483360
 133.8121050 111.9499260  51.9335820 135.0700640 112.5070980  51.3019350
 141.2730140 116.4703820  61.8262390 140.4448770 116.5396910  61.3512520
 141.8680620 117.0558130  61.3578220 138.7945590 117.0788600  55.3551450
 138.1758010 116.7408150  54.7077750 138.7770040 116.4348360  56.0630640
 138.2372150 113.2573140  62.7717260 137.8243330 114.0826850  63.0257250
 137.5048100 112.6718180  62.5793620 130.8386640 119.7300600  59.7975140
 130.5414930 119.1246070  59.1182920 131.7886460 119.7677910  59.6864500
 138.9272250 123.3032470  63.4598240 138.4502810 124.1104660  63.2670850
 138.2434040 122.6510800  63.6124450 129.9305070 119.4682290  66.4482940
 129.0333600 119.6922260  66.6956340 129.9557940 119.5917230  65.4994340
 136.9710290 116.3175410  52.3624200 137.4103570 115.4797840  52.2162020
 137.6838710 116.9504810  52.4488340 128.7576290 116.3395610  65.0240310
 128.6184060 117.2118410  65.3927710 127.8757650 115.9968420  64.8788250
 135.0805670 121.2571480  56.3305440 135.5201580 121.9995810  55.9160830
 135.0192560 121.4998050  57.2544400 130.5556640 122.2817310  67.2325460
 130.5272070 122.6860260  66.3653890 130.3921610 121.3527670  67.0697060
 140.5527430 107.5718220  50.6765240 140.2400090 107.6645050  51.5764310
 141.3139900 108.1499250  50.6262670 127.0709570 114.9378020  55.1342580
 126.9507170 115.6640110  54.5223850 126.7610460 114.1680930  54.6570490
 142.5071460 123.0644410  68.5289630 142.9831180 123.5427300  69.2078710
 143.1278620 122.9961900  67.8035130 125.9542570 119.8093350  57.3517400
 125.5470650 119.9507940  56.4971000 126.8455580 119.5253510  57.1488610
 141.9104710 120.2557260  65.6889640 142.0367770 120.0169140  64.7706820
 141.9526090 119.4241800  66.1611720 135.7721450 123.9585260  64.2584450
 136.2866120 123.8693270  65.0606880 134.9290530 124.3044960  64.5512360
 137.7475850 124.2440600  53.6868450 137.5876990 123.9543540  54.5850280
 137.5822560 123.4680730  53.1513680 130.2264230 124.0239130  55.4640070
 130.0506710 123.1074670  55.2507870 129.3719970 124.3826420  55.7037870
 137.4501980 121.7528160  52.2466450 136.7567140 121.7505450  51.5868730
 138.1924840 121.3287480  51.8160620 137.0151910 123.3790870  56.3214940
 137.4708860 122.5980250  56.6353560 137.3544430 124.0897690  56.8656120
 141.7628720 112.3089720  66.6539380 141.1472990 112.8169390  66.1254840
 141.4425140 111.4088050  66.5965320 124.7654460 119.1507330  63.4805680
 124.9285500 118.6812690  62.6625050 125.2306910 118.6430890  64.1454520
 129.5373230 108.2813090  58.5166250 129.0941380 109.0622630  58.1850770
 130.0958220 108.6042980  59.2237190 133.8243040 111.1481610  64.1201570
 133.3622410 111.3564630  64.9321510 133.4221150 110.3340960  63.8172240
 138.8247550 112.3690560  65.2498230 137.9741140 112.0696310  65.5707300
 138.6649340 112.6132570  64.3382050 135.9197260 113.8692310  67.3497020
 136.2450670 113.0356060  67.0099250 136.7077590 114.3920830  67.4975350
 132.6532050 107.9023790  53.3972080 132.0286230 107.8983660  54.1225390
 132.5662170 107.0354750  53.0008050 131.5749130 108.8260420  60.3755850
 131.8721460 109.7323250  60.2947870 132.1234690 108.3379200  59.7615420
 136.5585210 113.4110030  54.8438150 135.9594100 114.1345830  54.6601770
 137.1064820 113.3486810  54.0614600 131.7686660 114.3032240  66.9107770
 131.6730260 113.3626970  66.7608170 132.6118640 114.5247310  66.5155840
 135.1650080 112.0473570  56.8741430 135.5579650 112.3645770  56.0610120
 135.5266930 111.1685450  56.9885950 126.8997200 110.7145910  65.0641550
 126.5060590 111.5621120  65.2714330 126.2115600 110.0772280  65.2550190
 133.4742250 110.7980880  68.1338290 132.7840570 110.6053080  68.7684380
 134.2174550 111.0815520  68.6662590 135.7505220 114.6379320  60.9692210
 135.0186340 115.1466130  61.3182310 135.3529560 113.8209300  60.6680990
 132.1882610 111.3133520  59.3744700 132.1918670 110.8723470  58.5249240
 133.0833730 111.6350850  59.4816520 132.2502760 112.3145600  52.3651460
 132.3715580 112.2732080  53.3137280 131.8651270 113.1769750  52.2098190
 136.2131130 110.0913000  60.3815150 136.2303870 110.5421650  61.2257000
 135.9646710 109.1918640  60.5948590 131.2624260 114.6246740  51.7634760
 130.6941160 114.1764990  51.1370670 131.9713260 114.9839520  51.2299910
 139.6401880 107.5045180  66.2201530 139.9647650 106.7734840  66.7459510
 139.6758390 107.1858820  65.3182520 126.3393440 118.5258760  65.6401490
 125.9548230 117.8852430  66.2384450 126.6505630 119.2294880  66.2096220
 132.4890580 115.3735300  61.1210110 132.8560710 114.8993870  61.8671450
 132.2995640 116.2476870  61.4618450 130.2789950 114.4143940  63.4394320
 129.9747020 115.2935920  63.6644680 131.2336410 114.4743730  63.4751760
 128.8071740 118.6204930  54.0361170 128.0334000 118.0802550  53.8759890
 129.5366370 118.1011540  53.6978930 139.5659720 117.6170290  59.8287560
 140.2858840 118.1125580  59.4383670 139.3641540 116.9388180  59.1841430
 135.0269660 109.0108250  53.9716950 134.2134270 108.5121420  53.8962260
 134.8331610 109.8506500  53.5553300 134.9478520 117.6879350  65.7156560
 134.8815830 116.7675020  65.4614150 134.3183660 117.7854790  66.4301200
 137.7418050 113.3827900  52.2679110 138.6297670 113.6945130  52.0930450
 137.7123140 112.5100150  51.8759690 128.8509140 118.2885310  57.6739980
 129.3687810 117.4853570  57.6196870 128.3993160 118.2264450  58.5156810
 133.7378640 119.5551590  52.9467280 134.0794340 120.2993820  52.4510600
 132.9091350 119.8682710  53.3092110 129.5366800 115.7130920  67.4705230
 129.2366940 115.8588100  66.5733050 130.3078040 115.1536210  67.3778620
 134.8795250 120.5099920  65.4660360 134.8939790 119.5780880  65.2479270
 134.1720350 120.5959680  66.1050130 140.0132320 114.6939740  51.7358970
 139.9296040 115.1253960  50.8855410 140.7326510 115.1538090  52.1685790
 141.0906460 117.1507260  64.8128940 140.3654650 117.7436040  64.6158330
 141.6181920 117.1430800  64.0142310 141.0419570 121.5482000  54.4641100
 140.3995730 120.8937620  54.7384820 140.6550230 121.9537090  53.6881770
 136.6206050 118.8767430  58.3112790 136.9729870 118.2795560  57.6514160
 135.7368380 118.5511660  58.4821040 132.7069330 119.6365120  55.7183200
 133.3940460 120.1834330  56.0990790 131.9201750 120.1805850  55.7532810
 124.8461730 115.2537940  51.2100280 125.7156580 115.5362740  51.4936200
 124.3552050 116.0673810  51.0949090 132.0096540 116.6411150  55.3308560
 132.4659320 117.4516400  55.5568750 131.6584750 116.3234290  56.1627050
 134.3129150 122.1517490  62.5600860 134.9571370 122.3576870  63.2374280
 134.6758590 121.3905890  62.1071710 135.5861230 120.1549840  61.2778310
 136.2283460 119.4543000  61.3910480 136.1110580 120.9348280  61.0975200
 139.4316950 120.4398460  51.0017450 139.2054530 119.7228900  51.5942090
 139.0413150 120.1910900  50.1639200 137.3598850 120.9544740  64.4814370
 137.6955090 121.5411430  65.1592290 136.4399190 120.8237450  64.7112160
 125.2132980 124.4665320  51.7761910 125.5730620 125.0654660  51.1219180
 125.0725320 125.0125210  52.5496940 139.0133200 118.3570400  52.6631610
 138.7254900 118.8183090  53.4509490 139.8085370 117.8968170  52.9315830
 125.1974840 122.7320180  66.2504310 125.3065960 121.7914920  66.1099700
 124.5455400 122.9974930  65.6018040 133.1887430 121.0036070  67.6502430
 132.8684300 120.2845310  68.1948120 132.5145790 121.6791140  67.7238490
 131.2301600 121.8496520  52.5935580 131.2211700 122.5826210  51.9780090
 130.3099960 121.6028100  52.6862540 126.8308240 117.0711410  53.3382340
 126.2236190 117.8110310  53.3477640 127.3057590 117.1610770  52.5120540
 136.4041030 111.2362230  63.0139230 136.7721850 110.4157440  63.3418800
 135.5439230 111.2964120  63.4294880 139.7703060 110.1919170  53.8226790
 139.1416220 110.2964840  53.1085020 139.2754980 110.4115950  54.6120670
 134.2161200 121.9124760  51.2560770 134.3173180 121.7088750  50.3262750
 133.3162940 121.6583040  51.4608550 131.7387090 112.4705120  55.2384670
 131.0303240 112.9391460  55.6798280 132.0231570 111.8127130  55.8729860
 133.3643020 113.8901820  63.2377200 133.8628270 114.3647640  63.9029050
 133.5065970 112.9665340  63.4447230 135.7702520 109.1955780  56.6780460
 135.6470300 109.2141910  55.7289970 136.7187080 109.2434720  56.7978860
 132.8579310 124.4311080  55.9508440 133.1120810 124.3932470  55.0287810
 131.9091790 124.3044410  55.9436690 129.9422110 110.7790200  52.6135380
 130.7912640 111.2160350  52.5475570 129.5753380 111.0910460  53.4407440
 140.5709880 110.1069780  64.0805590 140.0683480 110.8475180  64.4199400
 141.3866540 110.4953780  63.7642380 138.8631890 115.3502960  57.5266950
 137.9222030 115.3653190  57.7014640 139.1775960 114.5638920  57.9727250
 128.8413530 117.0322560  51.0870910 129.6076800 116.9203920  51.6496340
 128.9188220 116.3360530  50.4347680 127.5360290 114.4647630  51.7703800
 127.6163880 113.5175140  51.8821200 128.4280040 114.7954510  51.8764460
 140.8657470 122.5211810  59.2021210 140.9904890 123.3442980  59.6745020
 141.7323030 122.3102540  58.8545360 128.3375000 124.6143020  58.8738340
 129.0737480 124.0658480  59.1446910 128.7215920 125.4799030  58.7344330
 125.2220480 120.6816590  54.7479850 124.2960260 120.9237730  54.7385260
 125.6876910 121.5090850  54.6264600 127.3433280 123.7989090  68.0623920
 128.1446010 124.1201140  68.4759320 126.8285100 123.4384670  68.7843830
 131.4477310 123.7873330  50.6963910 132.2405920 124.0762160  50.2445700
 130.9281660 123.3565500  50.0176390 136.1797910 119.9068960  68.0099330
 135.5736070 119.9300560  67.2695080 135.8752020 119.1752000  68.5466580
 137.6098280 123.6349250  66.6208740 138.5620030 123.5507270  66.5708980
 137.4626500 124.2990960  67.2942530 140.5007480 123.0143460  52.1200650
 140.2148990 122.6008600  51.3054830 140.3027030 123.9431170  52.0001170
 131.9654710 119.0076740  50.5606260 131.8605350 118.3929090  51.2867640
 131.7978930 118.4842630  49.7769270 132.1169030 117.6933540  66.5395490
 131.3514700 118.2618540  66.4550160 132.2984990 117.4009750  65.6463720
 135.2057440 118.0696770  51.1648250 134.6567540 118.5166070  51.8090990
 135.8276700 117.5646020  51.6885920 139.2592380 119.4238870  67.0970510
 140.0001850 119.7614630  66.5937970 138.4965060 119.5930930  66.5440280
 127.0954170 114.4292140  67.9010040 127.1359510 114.1306010  68.8095270
 127.9499670 114.8299750  67.7417560 130.8732560 117.0287690  53.0613550
 131.2948980 116.8627560  53.9044940 130.9983400 116.2187920  52.5668690
 129.0359980 113.0084240  65.8684530 128.5056440 112.5175190  65.2407870
 129.7048050 113.4368440  65.3342460 133.3860200 116.0525300  50.3090650
 133.9065860 115.3374320  49.9431800 134.0328600 116.6911170  50.6091160
 137.9338040 117.4753700  65.6325720 138.3479060 117.6298780  66.4816140
 136.9989040 117.6008920  65.7951500 138.4060210 114.8149860  67.6364870
 138.9880980 114.0602180  67.5485350 138.5821980 115.3457300  66.8596350
 129.5232280 109.9746610  65.9481820 129.4289150 109.3567360  65.2232690
 128.9429670 110.7012900  65.7211730 132.2893720 108.5319850  62.9809210
 131.8411020 108.5544110  62.1354760 131.6558920 108.1338870  63.5779510
 132.6953270 117.4274180  63.6021650 133.1141380 118.2706910  63.4297890
 131.7761900 117.5646220  63.3728430 135.0317170 115.1590360  64.9859490
 135.1513380 114.5631500  65.7254330 135.8911170 115.1960050  64.5660790
 137.3705070 115.7127550  63.5622000 136.8440290 116.2370170  62.9587140
 137.7136410 116.3454940  64.1931730 129.7691460 113.1020920  50.0071710
 129.5680520 112.2388280  50.3685050 129.5983510 113.0154280  49.0693310
 130.5460690 123.7327190  64.7179380 130.0081780 124.4573250  64.3988080
 130.7994650 123.2557530  63.9276720 131.7985940 111.7011710  66.2435310
 132.3885630 111.3927560  66.9313130 130.9806180 111.2291460  66.3995210
 136.6179370 111.3177520  66.4768330 135.9294890 110.6559060  66.4118320
 137.3385390 110.8715790  66.9216790 137.2479770 107.9129150  52.5358590
 137.5282060 107.0697050  52.8918010 136.4745500 108.1452260  53.0497340
 133.4022900 124.9678400  64.9766030 133.3281600 125.8713540  65.2838400
 132.5001740 124.6490300  64.9488100 131.7859190 109.1456160  50.9805790
 131.4381190 108.4680150  50.4008240 131.9871960 108.6845670  51.7949180
 133.9508230 124.1336910  52.5992390 134.8459020 124.4721880  52.6211150
 133.9825860 123.4116320  51.9716670 127.5904390 119.5063960  50.8279390
 128.0279260 120.0493630  51.4836970 128.0752120 118.6810910  50.8375730
 124.8050190 122.2952990  58.2799650 125.1353200 121.4274050  58.0478290
 125.2341190 122.5011510  59.1104610 129.4012110 120.6262000  55.9401620
 129.1007650 120.5026970  56.8405530 129.2949600 119.7670590  55.5317350
 125.2940400 123.1623580  61.0181280 124.8571390 123.3424380  61.8505430
 125.8618080 123.9198200  60.8763000 140.9302580 122.6640580  65.3058590
 140.3304570 122.7233140  64.5622510 141.0596480 121.7245560  65.4355440
 142.1704030 120.4058400  50.6428300 141.3396990 120.4735050  51.1135530
 142.3475860 121.2962520  50.3395160 141.6260490 117.1505880  53.1462500
 142.3879400 117.7202530  53.2522190 141.6414860 116.5833080  53.9170810
 142.6320460 118.0055980  57.9904430 143.0029290 117.2223300  57.5840400
 143.2722390 118.6945080  57.8121730 139.6154220 119.3892560  63.4034750
 138.8014060 119.8189720  63.6660540 140.0228420 120.0010970  62.7903800
 141.6779660 117.4440250  50.3035020 141.9528500 118.3519130  50.1754240
 141.4890400 117.3802780  51.2397010 138.0755270 110.4685100  51.5988650
 138.4940150 110.2816080  50.7585310 137.7691330 109.6164150  51.9091580
 141.5745000 115.3809240  55.2964450 141.1988600 114.6137170  54.8645740
 140.8448120 115.7631940  55.7839380 140.9644620 114.5280760  64.9303970
 140.7330710 114.2993510  64.0301920 141.2249170 115.4480310  64.8848860
 139.4032690 109.7537190  67.7083670 140.2802870 109.7620590  68.0917670
 139.4153530 109.0168030  67.0976020 124.3402910 112.8842740  53.3195490
 123.4366990 113.1472940  53.1447150 124.8243530 113.1553910  52.5395450
 140.8495960 113.6066730  58.5971690 141.3733440 113.1129380  57.9661860
 141.4355380 113.7417090  59.3419260 141.0285680 113.6906600  62.1191240
 140.0788390 113.6570140  62.2336230 141.2098690 114.6006710  61.8841010
 126.8830120 111.9408280  51.2289870 127.5921820 111.5191500  50.7437150
 126.1670060 112.0083510  50.5973220 140.3395930 112.8640080  54.5364100
 140.8355050 112.6310950  55.3212980 140.1412000 112.0251920  54.1201740
 126.2196470 107.2453800  60.1715140 126.8672660 106.6951180  59.7310300
 126.6398310 107.4996950  60.9930950 141.7683090 111.5001030  57.0701780
 141.6582370 111.3457070  58.0084050 142.5290680 110.9721970  56.8277190
 140.1148810 107.4395160  63.5284780 140.7521030 108.0529300  63.8943970
 140.2623700 107.4755820  62.5834010 142.6573360 109.3308950  50.3107920
 143.5822670 109.1990130  50.1026210 142.6349150 109.4101770  51.2644370
 142.7311850 110.1019610  52.9364630 141.9363350 110.0364730  53.4657540
 142.9355130 111.0370250  52.9249980 139.6730270 124.1411160  56.9303020
 140.2689340 123.8195730  56.2537440 139.9308420 123.6682980  57.7216290
 125.9728470 107.4009470  62.9140460 125.6243290 107.8573290  63.6798640
 125.6416170 106.5066600  62.9962890 127.5792840 120.5729070  67.0793650
 127.5362470 120.2021980  67.9608110 127.7103850 121.5106640  67.2195470
 131.2798870 122.1288660  62.6803370 131.0390230 122.3963220  61.7933890
 132.2201510 122.2994390  62.7354230 133.4853290 108.5921350  66.4359880
 133.4242180 109.1843180  67.1855290 134.4253670 108.4847310  66.2910140
 136.1227850 108.2491410  66.0752170 136.7368260 108.5670700  65.4133250
 136.6677410 107.7640000  66.6948030 142.5403030 124.1483040  63.4814010
 142.0461310 124.5451910  62.7641140 141.9316320 123.5232250  63.8751290
 127.4180870 123.5191320  64.1991430 126.8241190 123.3876020  64.9381470
 127.4104710 122.6829460  63.7333530 136.8635890 106.8123550  62.4021460
 135.9895730 107.1458660  62.1994390 136.7546640 106.3396730  63.2273330
 137.7707870 109.0194420  63.7863180 137.4421230 108.2046180  63.4064910
 138.7190170 108.9764230  63.6628870 140.2242480 124.7906460  60.7600750
 139.7645450 125.5422270  60.3858770 139.5954940 124.0712930  60.7015550
 127.0493100 120.8849700  63.1499470 126.3227160 120.2654990  63.0825420
 127.1102250 121.2790310  62.2797550 130.6538200 123.0994700  59.9348880
 131.1703220 122.4882060  59.4097140 131.3035580 123.6023480  60.4259890
 133.3933700 123.9903190  60.7617860 133.6811510 123.7357490  59.8850870
 133.9056920 123.4380550  61.3523430 134.6110710 107.7293390  61.3414370
 133.8282500 108.2038890  61.6211130 134.3173640 106.8248220  61.2327550
 139.1631780 108.4316490  59.3863460 139.6039870 108.3761590  58.5385060
 138.8939370 109.3474500  59.4573640 141.0270350 108.0631730  57.3972280
 140.9658750 107.1192950  57.2503300 141.8062380 108.1711820  57.9425740
 125.3323100 124.2024090  56.3596230 125.1645140 123.5694770  57.0578120
 124.4657610 124.4083490  56.0090420 132.4964930 110.1480140  56.8530400
 131.6839440 109.7737030  56.5126280 133.0006570 109.3925220  57.1551590
 136.9989910 106.8122590  58.0913470 137.6019280 107.3842800  58.5661990
 136.2582900 107.3762030  57.8687370 140.1424510 107.2144150  53.3653750
 140.3375140 108.1127600  53.6321180 139.3554380 106.9831230  53.8586700
 126.9385800 122.8957320  53.8046370 126.4133420 123.2765350  53.1008330
 126.8630380 123.5208090  54.5256080 128.3276270 108.5604920  52.4030060
 128.8569030 107.7734720  52.2738010 128.9604590 109.2396110  52.6365590
 130.5214110 108.2980060  55.4575450 129.8916850 107.5967370  55.6245580
 129.9819250 109.0584190  55.2408610 133.4606060 124.9119290  68.1286060
 134.3873370 124.6763560  68.1722020 133.4456490 125.7391290  67.6472090
 141.6951120 124.4544860  55.1260310 141.8703310 123.7682600  54.4821230
 140.9972690 124.9791910  54.7336980 129.5378770 124.8439700  52.6795620
 130.2697590 124.5598980  52.1319510 129.7972440 124.6052980  53.5695000
 128.6993560 120.9604430  52.6841950 128.0702440 121.4289530  53.2327780
 128.8141390 120.1153650  53.1188140 137.2485130 106.9917620  68.4708410
 137.1350580 107.3112230  69.3659930 138.0654870 107.3930130  68.1745690
 140.0283620 124.1389150  67.9527100 140.8208940 123.6438380  67.7453060
 140.3216770 124.8179290  68.5602710 136.1543280 115.0110090  38.8343150
 136.0737330 114.0964700  38.5634860 135.7407700 115.5077160  38.1282860
 134.2861320 116.7889110  40.7152420 133.5103420 116.3089550  41.0050990
 134.9374250 116.1094760  40.5408580 128.3027150 117.1008920  41.5928180
 127.4712030 116.8457630  41.9924690 128.9108130 117.1719690  42.3286100
 138.3068750 121.1949300  39.4951550 137.8450280 120.4236540  39.8238720
 139.1194300 121.2215370  40.0004000 128.2828410 121.1349010  41.7886200
 128.5856450 120.2446750  41.6096420 129.0272000 121.6919230  41.5608450
 126.7119100 112.0610810  35.3770570 125.8235800 112.4026780  35.2750450
 126.9960290 111.8611130  34.4851400 124.6752110 114.6616460  41.2610270
 125.2468220 113.8938660  41.2613910 124.6753650 114.9605220  40.3516880
 134.5332060 123.4807310  39.1155540 133.9143500 123.9364810  38.5449980
 135.3883840 123.6358770  38.7145240 133.7270310 119.4646300  40.7222580
 133.6578590 118.5236240  40.5611710 134.4890170 119.5547710  41.2945150
 134.7575480 112.2716680  40.9491510 135.1340300 111.3988560  40.8365180
 134.6594990 112.6075380  40.0581950 128.8880490 110.6442310  36.4108950
 128.9947240 111.5446040  36.7177710 127.9772850 110.5960280  36.1203600
 138.5399600 109.7667120  37.8819850 139.3609220 109.2763690  37.9245330
 138.5733680 110.3564780  38.6351690 126.5363650 112.5661320  41.6561540
 127.2173760 112.8299690  42.2748940 126.2211700 111.7262190  41.9899550
 130.7288220 113.6128680  40.7434130 131.2366440 114.1109650  41.3839150
 131.2601460 112.8363880  40.5673490 142.8299150 111.7833870  44.4463480
 142.1251320 112.1715580  43.9278590 143.0957070 112.4784160  45.0484410
 129.0124320 108.2527240  45.0097550 129.0142760 108.7699630  44.2043450
 128.1828630 107.7757420  44.9867480 135.3995410 118.3646550  36.5087450
 134.7812680 118.8296000  35.9450170 135.9118660 119.0574030  36.9256960
 130.2627170 117.8922420  43.1871050 129.9296550 118.5191340  43.8292120
 130.4393850 118.4184300  42.4072720 138.7761080 111.7067500  40.6547390
 138.0716650 111.9952390  41.2350500 139.1373240 112.5167610  40.2946950
 128.6939650 109.9637200  43.0168000 129.0356460 110.8079250  42.7221870
 127.7555460 110.1120940  43.1333340 129.4746270 119.8603220  45.0020230
 130.0920270 120.5354300  44.7204680 128.6139390 120.2691200  44.9107730
 124.7678610 119.0503080  33.8827080 124.3906590 119.5390180  33.1511980
 125.0251680 119.7228360  34.5133610 140.3923860 121.3242630  42.9174870
 139.7087380 121.9941740  42.9091540 140.9318150 121.5223280  42.1519730
 141.8448000 111.1522290  41.0456600 140.8972910 111.1861270  41.1772030
 142.1697990 111.9661240  41.4305960 132.3767540 107.4519470  39.3412590
 132.6842520 106.8966360  38.6248090 131.4468240 107.5863930  39.1585580
 137.9282600 123.1686760  41.6320050 137.9409760 122.7649050  40.7642310
 137.3757820 123.9434050  41.5281480 139.2228020 119.8902980  36.7210220
 139.1124350 118.9477310  36.8459640 139.2196270 120.2518620  37.6072980
 137.3268040 118.0716600  42.9602660 137.7436830 117.8576710  42.1256120
 138.0507860 118.3289390  43.5311280 134.7648300 115.5168300  36.0772710
 133.8377580 115.4505680  36.3061180 134.9173120 116.4548430  35.9627950
 134.7517380 111.7885300  33.0739870 133.8121050 111.9499260  33.1592330
 135.0700640 112.5070980  32.5275860 141.2730140 116.4703820  43.0518900
 140.4448770 116.5396910  42.5769030 141.8680620 117.0558130  42.5834730
 138.7945590 117.0788600  36.5807960 138.1758010 116.7408150  35.9334260
 138.7770040 116.4348360  37.2887150 138.2372150 113.2573140  43.9973770
 137.8243330 114.0826850  44.2513760 137.5048100 112.6718180  43.8050130
 130.3704940 116.0433040  38.8592440 129.9661940 115.3310290  38.3638340
 130.4568060 115.6986280  39.7480480 130.8386640 119.7300600  41.0231650
 130.5414930 119.1246070  40.3439430 131.7886460 119.7677910  40.9121010
 129.0833560 112.8176250  42.6391480 129.6348150 112.9271590  41.8644730
 129.5977070 113.1913850  43.3546710 138.9272250 123.3032470  44.6854750
 138.4502810 124.1104660  44.4927360 138.2434040 122.6510800  44.8380960
 129.9305070 119.4682290  47.6739450 129.0333600 119.6922260  47.9212850
 129.9557940 119.5917230  46.7250850 136.9710290 116.3175410  33.5880710
 137.4103570 115.4797840  33.4418530 137.6838710 116.9504810  33.6744850
 128.7576290 116.3395610  46.2496820 128.6184060 117.2118410  46.6184220
 127.8757650 115.9968420  46.1044760 135.0805670 121.2571480  37.5561950
 135.5201580 121.9995810  37.1417340 135.0192560 121.4998050  38.4800910
 130.5556640 122.2817310  48.4581970 130.5272070 122.6860260  47.5910400
 130.3921610 121.3527670  48.2953570 140.5527430 107.5718220  31.9021750
 140.2400090 107.6645050  32.8020820 141.3139900 108.1499250  31.8519180
 127.0709570 114.9378020  36.3599090 126.9507170 115.6640110  35.7480360
 126.7610460 114.1680930  35.8827000 142.5071460 123.0644410  49.7546140
 142.9831180 123.5427300  50.4335220 143.1278620 122.9961900  49.0291640
 124.7094940 118.1093160  42.1667730 124.7875360 118.2441930  41.2223450
 125.3236620 117.4009050  42.3595850 125.9542570 119.8093350  38.5773910
 125.5470650 119.9507940  37.7227510 126.8455580 119.5253510  38.3745120
 141.9104710 120.2557260  46.9146150 142.0367770 120.0169140  45.9963330
 141.9526090 119.4241800  47.3868230 135.7721450 123.9585260  45.4840960
 136.2866120 123.8693270  46.2863390 134.9290530 124.3044960  45.7768870
 137.7475850 124.2440600  34.9124960 137.5876990 123.9543540  35.8106790
 137.5822560 123.4680730  34.3770190 130.2264230 124.0239130  36.6896580
 130.0506710 123.1074670  36.4764380 129.3719970 124.3826420  36.9294380
 137.4501980 121.7528160  33.4722960 136.7567140 121.7505450  32.8125240
 138.1924840 121.3287480  33.0417130 137.0151910 123.3790870  37.5471450
 137.4708860 122.5980250  37.8610070 137.3544430 124.0897690  38.0912630
 141.7628720 112.3089720  47.8795890 141.1472990 112.8169390  47.3511350
 141.4425140 111.4088050  47.8221830 124.7654460 119.1507330  44.7062190
 124.9285500 118.6812690  43.8881560 125.2306910 118.6430890  45.3711030
 129.5373230 108.2813090  39.7422760 129.0941380 109.0622630  39.4107280
 130.0958220 108.6042980  40.4493700 133.8243040 111.1481610  45.3458080
 133.3622410 111.3564630  46.1578020 133.4221150 110.3340960  45.0428750
 138.8247550 112.3690560  46.4754740 137.9741140 112.0696310  46.7963810
 138.6649340 112.6132570  45.5638560 135.9197260 113.8692310  48.5753530
 136.2450670 113.0356060  48.2355760 136.7077590 114.3920830  48.7231860
 132.6532050 107.9023790  34.6228590 132.0286230 107.8983660  35.3481900
 132.5662170 107.0354750  34.2264560 131.5749130 108.8260420  41.6012360
 131.8721460 109.7323250  41.5204380 132.1234690 108.3379200  40.9871930
 129.3287450 113.4046660  37.4704010 129.1028370 113.1883830  38.3750630
 128.5479980 113.8375120  37.1249980 136.5585210 113.4110030  36.0694660
 135.9594100 114.1345830  35.8858280 137.1064820 113.3486810  35.2871110
 131.7686660 114.3032240  48.1364280 131.6730260 113.3626970  47.9864680
 132.6118640 114.5247310  47.7412350 135.1650080 112.0473570  38.0997940
 135.5579650 112.3645770  37.2866630 135.5266930 111.1685450  38.2142460
 133.4742250 110.7980880  49.3594800 132.7840570 110.6053080  49.9940890
 134.2174550 111.0815520  49.8919100 124.2014250 108.6374370  40.3228140
 123.9127300 109.2077230  41.0353120 124.9460010 108.1578820  40.6859370
 124.3884480 112.5794490  31.5330860 124.3059150 113.5225250  31.6745850
 124.0367540 112.4369400  30.6543210 135.7505220 114.6379320  42.1948720
 135.0186340 115.1466130  42.5438820 135.3529560 113.8209300  41.8937500
 132.1882610 111.3133520  40.6001210 132.1918670 110.8723470  39.7505750
 133.0833730 111.6350850  40.7073030 128.0384990 111.1960010  39.5595420
 127.6985040 111.6735240  40.3162470 127.2762310 110.7425130  39.1996520
 132.2502760 112.3145600  33.5907970 132.3715580 112.2732080  34.5393790
 131.8651270 113.1769750  33.4354700 136.2131130 110.0913000  41.6071660
 136.2303870 110.5421650  42.4513510 135.9646710 109.1918640  41.8205100
 131.2624260 114.6246740  32.9891270 130.6941160 114.1764990  32.3627180
 131.9713260 114.9839520  32.4556420 139.6401880 107.5045180  47.4458040
 139.9647650 106.7734840  47.9716020 139.6758390 107.1858820  46.5439030
 126.3393440 118.5258760  46.8658000 125.9548230 117.8852430  47.4640960
 126.6505630 119.2294880  47.4352730 132.4890580 115.3735300  42.3466620
 132.8560710 114.8993870  43.0927960 132.2995640 116.2476870  42.6874960
 125.3531070 110.1178990  38.4760090 125.0677990 109.7534660  39.3138710
 125.2909930 109.3859450  37.8623230 130.2789950 114.4143940  44.6650830
 129.9747020 115.2935920  44.8901190 131.2336410 114.4743730  44.7008270
 128.8071740 118.6204930  35.2617680 128.0334000 118.0802550  35.1016400
 129.5366370 118.1011540  34.9235440 139.5659720 117.6170290  41.0544070
 140.2858840 118.1125580  40.6640180 139.3641540 116.9388180  40.4097940
 135.0269660 109.0108250  35.1973460 134.2134270 108.5121420  35.1218770
 134.8331610 109.8506500  34.7809810 134.9478520 117.6879350  46.9413070
 134.8815830 116.7675020  46.6870660 134.3183660 117.7854790  47.6557710
 137.7418050 113.3827900  33.4935620 138.6297670 113.6945130  33.3186960
 137.7123140 112.5100150  33.1016200 128.8509140 118.2885310  38.8996490
 129.3687810 117.4853570  38.8453380 128.3993160 118.2264450  39.7413320
 133.7378640 119.5551590  34.1723790 134.0794340 120.2993820  33.6767110
 132.9091350 119.8682710  34.5348620 126.3353680 115.2546680  45.8122190
 125.9768620 115.9200530  46.3995530 126.0408240 114.4230230  46.1834810
 129.5366800 115.7130920  48.6961740 129.2366940 115.8588100  47.7989560
 130.3078040 115.1536210  48.6035130 134.8795250 120.5099920  46.6916870
 134.8939790 119.5780880  46.4735780 134.1720350 120.5959680  47.3306640
 140.0132320 114.6939740  32.9615480 139.9296040 115.1253960  32.1111920
 140.7326510 115.1538090  33.3942300 141.0906460 117.1507260  46.0385450
 140.3654650 117.7436040  45.8414840 141.6181920 117.1430800  45.2398820
 141.0419570 121.5482000  35.6897610 140.3995730 120.8937620  35.9641330
 140.6550230 121.9537090  34.9138280 136.6206050 118.8767430  39.5369300
 136.9729870 118.2795560  38.8770670 135.7368380 118.5511660  39.7077550
 132.7069330 119.6365120  36.9439710 133.3940460 120.1834330  37.3247300
 131.9201750 120.1805850  36.9789320 124.8461730 115.2537940  32.4356790
 125.7156580 115.5362740  32.7192710 124.3552050 116.0673810  32.3205600
 132.0096540 116.6411150  36.5565070 132.4659320 117.4516400  36.7825260
 131.6584750 116.3234290  37.3883560 134.3129150 122.1517490  43.7857370
 134.9571370 122.3576870  44.4630790 134.6758590 121.3905890  43.3328220
 127.9108320 106.9848800  37.0287590 127.7822950 106.9766700  37.9772510
 127.0870340 107.3231890  36.6778600 135.5861230 120.1549840  42.5034820
 136.2283460 119.4543000  42.6166990 136.1110580 120.9348280  42.3231710
 139.4316950 120.4398460  32.2273960 139.2054530 119.7228900  32.8198600
 139.0413150 120.1910900  31.3895710 137.3598850 120.9544740  45.7070880
 137.6955090 121.5411430  46.3848800 136.4399190 120.8237450  45.9368670
 125.2132980 124.4665320  33.0018420 125.5730620 125.0654660  32.3475690
 125.0725320 125.0125210  33.7753450 139.0133200 118.3570400  33.8888120
 138.7254900 118.8183090  34.6766000 139.8085370 117.8968170  34.1572340
 125.1974840 122.7320180  47.4760820 125.3065960 121.7914920  47.3356210
 124.5455400 122.9974930  46.8274550 133.1887430 121.0036070  48.8758940
 132.8684300 120.2845310  49.4204630 132.5145790 121.6791140  48.9495000
 131.2301600 121.8496520  33.8192090 131.2211700 122.5826210  33.2036600
 130.3099960 121.6028100  33.9119050 126.8308240 117.0711410  34.5638850
 126.2236190 117.8110310  34.5734150 127.3057590 117.1610770  33.7377050
 136.4041030 111.2362230  44.2395740 136.7721850 110.4157440  44.5675310
 135.5439230 111.2964120  44.6551390 139.7703060 110.1919170  35.0483300
 139.1416220 110.2964840  34.3341530 139.2754980 110.4115950  35.8377180
 134.2161200 121.9124760  32.4817280 134.3173180 121.7088750  31.5519260
 133.3162940 121.6583040  32.6865060 131.7387090 112.4705120  36.4641180
 131.0303240 112.9391460  36.9054790 132.0231570 111.8127130  37.0986370
 133.3643020 113.8901820  44.4633710 133.8628270 114.3647640  45.1285560
 133.5065970 112.9665340  44.6703740 135.7702520 109.1955780  37.9036970
 135.6470300 109.2141910  36.9546480 136.7187080 109.2434720  38.0235370
 132.8579310 124.4311080  37.1764950 133.1120810 124.3932470  36.2544320
 131.9091790 124.3044410  37.1693200 129.9422110 110.7790200  33.8391890
 130.7912640 111.2160350  33.7732080 129.5753380 111.0910460  34.6663950
 140.5709880 110.1069780  45.3062100 140.0683480 110.8475180  45.6455910
 141.3866540 110.4953780  44.9898890 138.8631890 115.3502960  38.7523460
 137.9222030 115.3653190  38.9271150 139.1775960 114.5638920  39.1983760
 128.8413530 117.0322560  32.3127420 129.6076800 116.9203920  32.8752850
 128.9188220 116.3360530  31.6604190 127.5360290 114.4647630  32.9960310
 127.6163880 113.5175140  33.1077710 128.4280040 114.7954510  33.1020970
 140.8657470 122.5211810  40.4277720 140.9904890 123.3442980  40.9001530
 141.7323030 122.3102540  40.0801870 128.3375000 124.6143020  40.0994850
 129.0737480 124.0658480  40.3703420 128.7215920 125.4799030  39.9600840
 125.2220480 120.6816590  35.9736360 124.2960260 120.9237730  35.9641770
 125.6876910 121.5090850  35.8521110 127.3433280 123.7989090  49.2880430
 128.1446010 124.1201140  49.7015830 126.8285100 123.4384670  50.0100340
 131.4477310 123.7873330  31.9220420 132.2405920 124.0762160  31.4702210
 130.9281660 123.3565500  31.2432900 136.1797910 119.9068960  49.2355840
 135.5736070 119.9300560  48.4951590 135.8752020 119.1752000  49.7723090
 137.6098280 123.6349250  47.8465250 138.5620030 123.5507270  47.7965490
 137.4626500 124.2990960  48.5199040 140.5007480 123.0143460  33.3457160
 140.2148990 122.6008600  32.5311340 140.3027030 123.9431170  33.2257680
 125.0631090 116.2862550  48.2316480 125.5670110 115.7069830  48.8032710
 124.3238510 116.5702780  48.7692850 131.9654710 119.0076740  31.7862770
 131.8605350 118.3929090  32.5124150 131.7978930 118.4842630  31.0025780
 132.1169030 117.6933540  47.7652000 131.3514700 118.2618540  47.6806670
 132.2984990 117.4009750  46.8720230 135.2057440 118.0696770  32.3904760
 134.6567540 118.5166070  33.0347500 135.8276700 117.5646020  32.9142430
 139.2592380 119.4238870  48.3227020 140.0001850 119.7614630  47.8194480
 138.4965060 119.5930930  47.7696790 127.0954170 114.4292140  49.1266550
 127.1359510 114.1306010  50.0351780 127.9499670 114.8299750  48.9674070
 130.8732560 117.0287690  34.2870060 131.2948980 116.8627560  35.1301450
 130.9983400 116.2187920  33.7925200 133.3860200 116.0525300  31.5347160
 133.9065860 115.3374320  31.1688310 134.0328600 116.6911170  31.8347670
 137.9338040 117.4753700  46.8582230 138.3479060 117.6298780  47.7072650
 136.9989040 117.6008920  47.0208010 138.4060210 114.8149860  48.8621380
 138.9880980 114.0602180  48.7741860 138.5821980 115.3457300  48.0852860
 132.2893720 108.5319850  44.2065720 131.8411020 108.5544110  43.3611270
 131.6558920 108.1338870  44.8036020 132.6953270 117.4274180  44.8278160
 133.1141380 118.2706910  44.6554400 131.7761900 117.5646220  44.5984940
 135.0317170 115.1590360  46.2116000 135.1513380 114.5631500  46.9510840
 135.8911170 115.1960050  45.7917300 137.3705070 115.7127550  44.7878510
 136.8440290 116.2370170  44.1843650 137.7136410 116.3454940  45.4188240
 129.7691460 113.1020920  31.2328220 129.5680520 112.2388280  31.5941560
 129.5983510 113.0154280  30.2949820 130.5460690 123.7327190  45.9435890
 130.0081780 124.4573250  45.6244590 130.7994650 123.2557530  45.1533230
 131.7985940 111.7011710  47.4691820 132.3885630 111.3927560  48.1569640
 130.9806180 111.2291460  47.6251720 136.6179370 111.3177520  47.7024840
 135.9294890 110.6559060  47.6374830 137.3385390 110.8715790  48.1473300
 137.2479770 107.9129150  33.7615100 137.5282060 107.0697050  34.1174520
 136.4745500 108.1452260  34.2753850 128.5674260 110.2021540  31.2206100
 128.8700160 110.2088970  30.3125250 129.3068850 109.8519400  31.7173760
 133.4022900 124.9678400  46.2022540 133.3281600 125.8713540  46.5094910
 132.5001740 124.6490300  46.1744610 131.7859190 109.1456160  32.2062300
 131.4381190 108.4680150  31.6264750 131.9871960 108.6845670  33.0205690
 133.9508230 124.1336910  33.8248900 134.8459020 124.4721880  33.8467660
 133.9825860 123.4116320  33.1973180 127.5904390 119.5063960  32.0535900
 128.0279260 120.0493630  32.7093480 128.0752120 118.6810910  32.0632240
 124.8050190 122.2952990  39.5056160 125.1353200 121.4274050  39.2734800
 125.2341190 122.5011510  40.3361120 129.4012110 120.6262000  37.1658130
 129.1007650 120.5026970  38.0662040 129.2949600 119.7670590  36.7573860
 125.2940400 123.1623580  42.2437790 124.8571390 123.3424380  43.0761940
 125.8618080 123.9198200  42.1019510 140.9302580 122.6640580  46.5315100
 140.3304570 122.7233140  45.7879020 141.0596480 121.7245560  46.6611950
 142.1704030 120.4058400  31.8684810 141.3396990 120.4735050  32.3392040
 142.3475860 121.2962520  31.5651670 141.6260490 117.1505880  34.3719010
 142.3879400 117.7202530  34.4778700 141.6414860 116.5833080  35.1427320
 125.1264830 115.6743810  38.6026670 124.4713670 115.4055450  37.9586370
 125.9642780 115.5648290  38.1528650 142.6320460 118.0055980  39.2160940
 143.0029290 117.2223300  38.8096910 143.2722390 118.6945080  39.0378240
 139.6154220 119.3892560  44.6291260 138.8014060 119.8189720  44.8917050
 140.0228420 120.0010970  44.0160310 141.6779660 117.4440250  31.5291530
 141.9528500 118.3519130  31.4010750 141.4890400 117.3802780  32.4653520
 138.0755270 110.4685100  32.8245160 138.4940150 110.2816080  31.9841820
 137.7691330 109.6164150  33.1348090 141.5745000 115.3809240  36.5220960
 141.1988600 114.6137170  36.0902250 140.8448120 115.7631940  37.0095890
 126.1640760 116.0596380  43.1430010 126.5313800 115.9723780  44.0226030
 125.5951580 115.2962930  43.0436870 140.9644620 114.5280760  46.1560480
 140.7330710 114.2993510  45.2558430 141.2249170 115.4480310  46.1105370
 139.4032690 109.7537190  48.9340180 140.2802870 109.7620590  49.3174180
 139.4153530 109.0168030  48.3232530 124.3402910 112.8842740  34.5452000
 123.4366990 113.1472940  34.3703660 124.8243530 113.1553910  33.7651960
 140.8495960 113.6066730  39.8228200 141.3733440 113.1129380  39.1918370
 141.4355380 113.7417090  40.5675770 141.0285680 113.6906600  43.3447750
 140.0788390 113.6570140  43.4592740 141.2098690 114.6006710  43.1097520
 126.8830120 111.9408280  32.4546380 127.5921820 111.5191500  31.9693660
 126.1670060 112.0083510  31.8229730 126.5304280 107.9947610  31.4949030
 127.2532410 108.5356550  31.8130250 126.8028800 107.7211030  30.6190570
 140.3395930 112.8640080  35.7620610 140.8355050 112.6310950  36.5469490
 140.1412000 112.0251920  35.3458250 126.2196470 107.2453800  41.3971650
 126.8672660 106.6951180  40.9566810 126.6398310 107.4996950  42.2187460
 141.7683090 111.5001030  38.2958290 141.6582370 111.3457070  39.2340560
 142.5290680 110.9721970  38.0533700 140.1148810 107.4395160  44.7541290
 140.7521030 108.0529300  45.1200480 140.2623700 107.4755820  43.8090520
 142.6573360 109.3308950  31.5364430 143.5822670 109.1990130  31.3282720
 142.6349150 109.4101770  32.4900880 142.7311850 110.1019610  34.1621140
 141.9363350 110.0364730  34.6914050 142.9355130 111.0370250  34.1506490
 139.6730270 124.1411160  38.1559530 140.2689340 123.8195730  37.4793950
 139.9308420 123.6682980  38.9472800 125.9728470 107.4009470  44.1396970
 125.6243290 107.8573290  44.9055150 125.6416170 106.5066600  44.2219400
 127.5792840 120.5729070  48.3050160 127.5362470 120.2021980  49.1864620
 127.7103850 121.5106640  48.4451980 131.2798870 122.1288660  43.9059880
 131.0390230 122.3963220  43.0190400 132.2201510 122.2994390  43.9610740
 133.4853290 108.5921350  47.6616390 133.4242180 109.1843180  48.4111800
 134.4253670 108.4847310  47.5166650 136.1227850 108.2491410  47.3008680
 136.7368260 108.5670700  46.6389760 136.6677410 107.7640000  47.9204540
 142.5403030 124.1483040  44.7070520 142.0461310 124.5451910  43.9897650
 141.9316320 123.5232250  45.1007800 127.4180870 123.5191320  45.4247940
 126.8241190 123.3876020  46.1637980 127.4104710 122.6829460  44.9590040
 136.8635890 106.8123550  43.6277970 135.9895730 107.1458660  43.4250900
 136.7546640 106.3396730  44.4529840 137.7707870 109.0194420  45.0119690
 137.4421230 108.2046180  44.6321420 138.7190170 108.9764230  44.8885380
 140.2242480 124.7906460  41.9857260 139.7645450 125.5422270  41.6115280
 139.5954940 124.0712930  41.9272060 127.0493100 120.8849700  44.3755980
 126.3227160 120.2654990  44.3081930 127.1102250 121.2790310  43.5054060
 130.6538200 123.0994700  41.1605390 131.1703220 122.4882060  40.6353650
 131.3035580 123.6023480  41.6516400 133.3933700 123.9903190  41.9874370
 133.6811510 123.7357490  41.1107380 133.9056920 123.4380550  42.5779940
 134.6110710 107.7293390  42.5670880 133.8282500 108.2038890  42.8467640
 134.3173640 106.8248220  42.4584060 139.1631780 108.4316490  40.6119970
 139.6039870 108.3761590  39.7641570 138.8939370 109.3474500  40.6830150
 141.0270350 108.0631730  38.6228790 140.9658750 107.1192950  38.4759810
 141.8062380 108.1711820  39.1682250 125.3323100 124.2024090  37.5852740
 125.1645140 123.5694770  38.2834630 124.4657610 124.4083490  37.2346930
 125.9551120 108.0340870  35.0884600 126.7130480 108.1469750  34.5148630
 125.4928290 108.8710070  35.0428030 132.4964930 110.1480140  38.0786910
 131.6839440 109.7737030  37.7382790 133.0006570 109.3925220  38.3808100
 136.9989910 106.8122590  39.3169980 137.6019280 107.3842800  39.7918500
 136.2582900 107.3762030  39.0943880 140.1424510 107.2144150  34.5910260
 140.3375140 108.1127600  34.8577690 139.3554380 106.9831230  35.0843210
 126.9385800 122.8957320  35.0302880 126.4133420 123.2765350  34.3264840
 126.8630380 123.5208090  35.7512590 128.3276270 108.5604920  33.6286570
 128.8569030 107.7734720  33.4994520 128.9604590 109.2396110  33.8622100
 130.5214110 108.2980060  36.6831960 129.8916850 107.5967370  36.8502090
 129.9819250 109.0584190  36.4665120 133.4606060 124.9119290  49.3542570
 134.3873370 124.6763560  49.3978530 133.4456490 125.7391290  48.8728600
 141.6951120 124.4544860  36.3516820 141.8703310 123.7682600  35.7077740
 140.9972690 124.9791910  35.9593490 130.6469670 107.5764040  49.1184450
 130.3653940 108.0797640  48.3545270 131.0289370 106.7785790  48.7526580
 129.5378770 124.8439700  33.9052130 130.2697590 124.5598980  33.3576020
 129.7972440 124.6052980  34.7951510 128.6993560 120.9604430  33.9098460
 128.0702440 121.4289530  34.4584290 128.8141390 120.1153650  34.3444650
 137.2485130 106.9917620  49.6964920 137.1350580 107.3112230  50.5916440
 138.0654870 107.3930130  49.4002200 140.0283620 124.1389150  49.1783610
 140.8208940 123.6438380  48.9709570 140.3216770 124.8179290  49.7859220
 136.1543280 115.0110090  20.0599660 136.0737330 114.0964700  19.7891370
 135.7407700 115.5077160  19.3539370 134.2861320 116.7889110  21.9408930
 133.5103420 116.3089550  22.2307500 134.9374250 116.1094760  21.7665090
 128.3027150 117.1008920  22.8184690 127.4712030 116.8457630  23.2181200
 128.9108130 117.1719690  23.5542610 138.3068750 121.1949300  20.7208060
 137.8450280 120.4236540  21.0495230 139.1194300 121.2215370  21.2260510
 128.2828410 121.1349010  23.0142710 128.5856450 120.2446750  22.8352930
 129.0272000 121.6919230  22.7864960 126.7119100 112.0610810  16.6027080
 125.8235800 112.4026780  16.5006960 126.9960290 111.8611130  15.7107910
 124.6752110 114.6616460  22.4866780 125.2468220 113.8938660  22.4870420
 124.6753650 114.9605220  21.5773390 134.5332060 123.4807310  20.3412050
 133.9143500 123.9364810  19.7706490 135.3883840 123.6358770  19.9401750
 133.7270310 119.4646300  21.9479090 133.6578590 118.5236240  21.7868220
 134.4890170 119.5547710  22.5201660 125.9176980 110.0700820  24.2735710
 125.7379820 109.1726570  24.5538470 125.5157060 110.6172690  24.9482660
 134.7575480 112.2716680  22.1748020 135.1340300 111.3988560  22.0621690
 134.6594990 112.6075380  21.2838460 128.8880490 110.6442310  17.6365460
 128.9947240 111.5446040  17.9434220 127.9772850 110.5960280  17.3460110
 138.5399600 109.7667120  19.1076360 139.3609220 109.2763690  19.1501840
 138.5733680 110.3564780  19.8608200 126.5363650 112.5661320  22.8818050
 127.2173760 112.8299690  23.5005450 126.2211700 111.7262190  23.2156060
 130.7288220 113.6128680  21.9690640 131.2366440 114.1109650  22.6095660
 131.2601460 112.8363880  21.7930000 142.8299150 111.7833870  25.6719990
 142.1251320 112.1715580  25.1535100 143.0957070 112.4784160  26.2740920
 129.0124320 108.2527240  26.2354060 129.0142760 108.7699630  25.4299960
 128.1828630 107.7757420  26.2123990 135.3995410 118.3646550  17.7343960
 134.7812680 118.8296000  17.1706680 135.9118660 119.0574030  18.1513470
 130.2627170 117.8922420  24.4127560 129.9296550 118.5191340  25.0548630
 130.4393850 118.4184300  23.6329230 138.7761080 111.7067500  21.8803900
 138.0716650 111.9952390  22.4607010 139.1373240 112.5167610  21.5203460
 128.6939650 109.9637200  24.2424510 129.0356460 110.8079250  23.9478380
 127.7555460 110.1120940  24.3589850 129.4746270 119.8603220  26.2276740
 130.0920270 120.5354300  25.9461190 128.6139390 120.2691200  26.1364240
 124.7678610 119.0503080  15.1083590 124.3906590 119.5390180  14.3768490
 125.0251680 119.7228360  15.7390120 140.3923860 121.3242630  24.1431380
 139.7087380 121.9941740  24.1348050 140.9318150 121.5223280  23.3776240
 141.8448000 111.1522290  22.2713110 140.8972910 111.1861270  22.4028540
 142.1697990 111.9661240  22.6562470 132.3767540 107.4519470  20.5669100
 132.6842520 106.8966360  19.8504600 131.4468240 107.5863930  20.3842090
 137.9282600 123.1686760  22.8576560 137.9409760 122.7649050  21.9898820
 137.3757820 123.9434050  22.7537990 139.2228020 119.8902980  17.9466730
 139.1124350 118.9477310  18.0716150 139.2196270 120.2518620  18.8329490
 137.3268040 118.0716600  24.1859170 137.7436830 117.8576710  23.3512630
 138.0507860 118.3289390  24.7567790 134.7648300 115.5168300  17.3029220
 133.8377580 115.4505680  17.5317690 134.9173120 116.4548430  17.1884460
 134.7517380 111.7885300  14.2996380 133.8121050 111.9499260  14.3848840
 135.0700640 112.5070980  13.7532370 141.2730140 116.4703820  24.2775410
 140.4448770 116.5396910  23.8025540 141.8680620 117.0558130  23.8091240
 138.7945590 117.0788600  17.8064470 138.1758010 116.7408150  17.1590770
 138.7770040 116.4348360  18.5143660 138.2372150 113.2573140  25.2230280
 137.8243330 114.0826850  25.4770270 137.5048100 112.6718180  25.0306640
 130.3704940 116.0433040  20.0848950 129.9661940 115.3310290  19.5894850
 130.4568060 115.6986280  20.9736990 130.8386640 119.7300600  22.2488160
 130.5414930 119.1246070  21.5695940 131.7886460 119.7677910  22.1377520
 129.0833560 112.8176250  23.8647990 129.6348150 112.9271590  23.0901240
 129.5977070 113.1913850  24.5803220 138.9272250 123.3032470  25.9111260
 138.4502810 124.1104660  25.7183870 138.2434040 122.6510800  26.0637470
 129.9305070 119.4682290  28.8995960 129.0333600 119.6922260  29.1469360
 129.9557940 119.5917230  27.9507360 136.9710290 116.3175410  14.8137220
 137.4103570 115.4797840  14.6675040 137.6838710 116.9504810  14.9001360
 128.7576290 116.3395610  27.4753330 128.6184060 117.2118410  27.8440730
 127.8757650 115.9968420  27.3301270 135.0805670 121.2571480  18.7818460
 135.5201580 121.9995810  18.3673850 135.0192560 121.4998050  19.7057420
 130.5556640 122.2817310  29.6838480 130.5272070 122.6860260  28.8166910
 130.3921610 121.3527670  29.5210080 140.5527430 107.5718220  13.1278260
 140.2400090 107.6645050  14.0277330 141.3139900 108.1499250  13.0775690
 127.0709570 114.9378020  17.5855600 126.9507170 115.6640110  16.9736870
 126.7610460 114.1680930  17.1083510 142.5071460 123.0644410  30.9802650
 142.9831180 123.5427300  31.6591730 143.1278620 122.9961900  30.2548150
 124.7094940 118.1093160  23.3924240 124.7875360 118.2441930  22.4479960
 125.3236620 117.4009050  23.5852360 125.9542570 119.8093350  19.8030420
 125.5470650 119.9507940  18.9484020 126.8455580 119.5253510  19.6001630
 141.9104710 120.2557260  28.1402660 142.0367770 120.0169140  27.2219840
 141.9526090 119.4241800  28.6124740 135.7721450 123.9585260  26.7097470
 136.2866120 123.8693270  27.5119900 134.9290530 124.3044960  27.0025380
 137.7475850 124.2440600  16.1381470 137.5876990 123.9543540  17.0363300
 137.5822560 123.4680730  15.6026700 130.2264230 124.0239130  17.9153090
 130.0506710 123.1074670  17.7020890 129.3719970 124.3826420  18.1550890
 137.4501980 121.7528160  14.6979470 136.7567140 121.7505450  14.0381750
 138.1924840 121.3287480  14.2673640 137.0151910 123.3790870  18.7727960
 137.4708860 122.5980250  19.0866580 137.3544430 124.0897690  19.3169140
 141.7628720 112.3089720  29.1052400 141.1472990 112.8169390  28.5767860
 141.4425140 111.4088050  29.0478340 124.7654460 119.1507330  25.9318700
 124.9285500 118.6812690  25.1138070 125.2306910 118.6430890  26.5967540
 129.5373230 108.2813090  20.9679270 129.0941380 109.0622630  20.6363790
 130.0958220 108.6042980  21.6750210 133.8243040 111.1481610  26.5714590
 133.3622410 111.3564630  27.3834530 133.4221150 110.3340960  26.2685260
 138.8247550 112.3690560  27.7011250 137.9741140 112.0696310  28.0220320
 138.6649340 112.6132570  26.7895070 135.9197260 113.8692310  29.8010040
 136.2450670 113.0356060  29.4612270 136.7077590 114.3920830  29.9488370
 132.6532050 107.9023790  15.8485100 132.0286230 107.8983660  16.5738410
 132.5662170 107.0354750  15.4521070 131.5749130 108.8260420  22.8268870
 131.8721460 109.7323250  22.7460890 132.1234690 108.3379200  22.2128440
 129.3287450 113.4046660  18.6960520 129.1028370 113.1883830  19.6007140
 128.5479980 113.8375120  18.3506490 136.5585210 113.4110030  17.2951170
 135.9594100 114.1345830  17.1114790 137.1064820 113.3486810  16.5127620
 131.7686660 114.3032240  29.3620790 131.6730260 113.3626970  29.2121190
 132.6118640 114.5247310  28.9668860 135.1650080 112.0473570  19.3254450
 135.5579650 112.3645770  18.5123140 135.5266930 111.1685450  19.4398970
 126.8997200 110.7145910  27.5154570 126.5060590 111.5621120  27.7227350
 126.2115600 110.0772280  27.7063210 133.4742250 110.7980880  30.5851310
 132.7840570 110.6053080  31.2197400 134.2174550 111.0815520  31.1175610
 124.2014250 108.6374370  21.5484650 123.9127300 109.2077230  22.2609630
 124.9460010 108.1578820  21.9115880 124.3884480 112.5794490  12.7587370
 124.3059150 113.5225250  12.9002360 124.0367540 112.4369400  11.8799720
 135.7505220 114.6379320  23.4205230 135.0186340 115.1466130  23.7695330
 135.3529560 113.8209300  23.1194010 132.1882610 111.3133520  21.8257720
 132.1918670 110.8723470  20.9762260 133.0833730 111.6350850  21.9329540
 128.0384990 111.1960010  20.7851930 127.6985040 111.6735240  21.5418980
 127.2762310 110.7425130  20.4253030 132.2502760 112.3145600  14.8164480
 132.3715580 112.2732080  15.7650300 131.8651270 113.1769750  14.6611210
 136.2131130 110.0913000  22.8328170 136.2303870 110.5421650  23.6770020
 135.9646710 109.1918640  23.0461610 131.2624260 114.6246740  14.2147780
 130.6941160 114.1764990  13.5883690 131.9713260 114.9839520  13.6812930
 139.6401880 107.5045180  28.6714550 139.9647650 106.7734840  29.1972530
 139.6758390 107.1858820  27.7695540 126.3393440 118.5258760  28.0914510
 125.9548230 117.8852430  28.6897470 126.6505630 119.2294880  28.6609240
 132.4890580 115.3735300  23.5723130 132.8560710 114.8993870  24.3184470
 132.2995640 116.2476870  23.9131470 125.3531070 110.1178990  19.7016600
 125.0677990 109.7534660  20.5395220 125.2909930 109.3859450  19.0879740
 130.2789950 114.4143940  25.8907340 129.9747020 115.2935920  26.1157700
 131.2336410 114.4743730  25.9264780 128.8071740 118.6204930  16.4874190
 128.0334000 118.0802550  16.3272910 129.5366370 118.1011540  16.1491950
 139.5659720 117.6170290  22.2800580 140.2858840 118.1125580  21.8896690
 139.3641540 116.9388180  21.6354450 135.0269660 109.0108250  16.4229970
 134.2134270 108.5121420  16.3475280 134.8331610 109.8506500  16.0066320
 134.9478520 117.6879350  28.1669580 134.8815830 116.7675020  27.9127170
 134.3183660 117.7854790  28.8814220 137.7418050 113.3827900  14.7192130
 138.6297670 113.6945130  14.5443470 137.7123140 112.5100150  14.3272710
 128.8509140 118.2885310  20.1253000 129.3687810 117.4853570  20.0709890
 128.3993160 118.2264450  20.9669830 133.7378640 119.5551590  15.3980300
 134.0794340 120.2993820  14.9023620 132.9091350 119.8682710  15.7605130
 126.3353680 115.2546680  27.0378700 125.9768620 115.9200530  27.6252040
 126.0408240 114.4230230  27.4091320 129.5366800 115.7130920  29.9218250
 129.2366940 115.8588100  29.0246070 130.3078040 115.1536210  29.8291640
 134.8795250 120.5099920  27.9173380 134.8939790 119.5780880  27.6992290
 134.1720350 120.5959680  28.5563150 140.0132320 114.6939740  14.1871990
 139.9296040 115.1253960  13.3368430 140.7326510 115.1538090  14.6198810
 141.0906460 117.1507260  27.2641960 140.3654650 117.7436040  27.0671350
 141.6181920 117.1430800  26.4655330 141.0419570 121.5482000  16.9154120
 140.3995730 120.8937620  17.1897840 140.6550230 121.9537090  16.1394790
 136.6206050 118.8767430  20.7625810 136.9729870 118.2795560  20.1027180
 135.7368380 118.5511660  20.9334060 132.7069330 119.6365120  18.1696220
 133.3940460 120.1834330  18.5503810 131.9201750 120.1805850  18.2045830
 124.8461730 115.2537940  13.6613300 125.7156580 115.5362740  13.9449220
 124.3552050 116.0673810  13.5462110 132.0096540 116.6411150  17.7821580
 132.4659320 117.4516400  18.0081770 131.6584750 116.3234290  18.6140070
 134.3129150 122.1517490  25.0113880 134.9571370 122.3576870  25.6887300
 134.6758590 121.3905890  24.5584730 127.9108320 106.9848800  18.2544100
 127.7822950 106.9766700  19.2029020 127.0870340 107.3231890  17.9035110
 135.5861230 120.1549840  23.7291330 136.2283460 119.4543000  23.8423500
 136.1110580 120.9348280  23.5488220 139.4316950 120.4398460  13.4530470
 139.2054530 119.7228900  14.0455110 139.0413150 120.1910900  12.6152220
 137.3598850 120.9544740  26.9327390 137.6955090 121.5411430  27.6105310
 136.4399190 120.8237450  27.1625180 125.2132980 124.4665320  14.2274930
 125.5730620 125.0654660  13.5732200 125.0725320 125.0125210  15.0009960
 124.9102250 108.7439920  27.7150800 124.1960770 108.9436840  28.3203410
 125.3297290 107.9679490  28.0865600 139.0133200 118.3570400  15.1144630
 138.7254900 118.8183090  15.9022510 139.8085370 117.8968170  15.3828850
 125.1974840 122.7320180  28.7017330 125.3065960 121.7914920  28.5612720
 124.5455400 122.9974930  28.0531060 133.1887430 121.0036070  30.1015450
 132.8684300 120.2845310  30.6461140 132.5145790 121.6791140  30.1751510
 131.2301600 121.8496520  15.0448600 131.2211700 122.5826210  14.4293110
 130.3099960 121.6028100  15.1375560 126.8308240 117.0711410  15.7895360
 126.2236190 117.8110310  15.7990660 127.3057590 117.1610770  14.9633560
 136.4041030 111.2362230  25.4652250 136.7721850 110.4157440  25.7931820
 135.5439230 111.2964120  25.8807900 139.7703060 110.1919170  16.2739810
 139.1416220 110.2964840  15.5598040 139.2754980 110.4115950  17.0633690
 134.2161200 121.9124760  13.7073790 134.3173180 121.7088750  12.7775770
 133.3162940 121.6583040  13.9121570 131.7387090 112.4705120  17.6897690
 131.0303240 112.9391460  18.1311300 132.0231570 111.8127130  18.3242880
 133.3643020 113.8901820  25.6890220 133.8628270 114.3647640  26.3542070
 133.5065970 112.9665340  25.8960250 135.7702520 109.1955780  19.1293480
 135.6470300 109.2141910  18.1802990 136.7187080 109.2434720  19.2491880
 132.8579310 124.4311080  18.4021460 133.1120810 124.3932470  17.4800830
 131.9091790 124.3044410  18.3949710 129.9422110 110.7790200  15.0648400
 130.7912640 111.2160350  14.9988590 129.5753380 111.0910460  15.8920460
 140.5709880 110.1069780  26.5318610 140.0683480 110.8475180  26.8712420
 141.3866540 110.4953780  26.2155400 138.8631890 115.3502960  19.9779970
 137.9222030 115.3653190  20.1527660 139.1775960 114.5638920  20.4240270
 128.8413530 117.0322560  13.5383930 129.6076800 116.9203920  14.1009360
 128.9188220 116.3360530  12.8860700 127.5360290 114.4647630  14.2216820
 127.6163880 113.5175140  14.3334220 128.4280040 114.7954510  14.3277480
 140.8657470 122.5211810  21.6534230 140.9904890 123.3442980  22.1258040
 141.7323030 122.3102540  21.3058380 128.3375000 124.6143020  21.3251360
 129.0737480 124.0658480  21.5959930 128.7215920 125.4799030  21.1857350
 125.2220480 120.6816590  17.1992870 124.2960260 120.9237730  17.1898280
 125.6876910 121.5090850  17.0777620 127.3433280 123.7989090  30.5136940
 128.1446010 124.1201140  30.9272340 126.8285100 123.4384670  31.2356850
 131.4477310 123.7873330  13.1476930 132.2405920 124.0762160  12.6958720
 130.9281660 123.3565500  12.4689410 136.1797910 119.9068960  30.4612350
 135.5736070 119.9300560  29.7208100 135.8752020 119.1752000  30.9979600
 137.6098280 123.6349250  29.0721760 138.5620030 123.5507270  29.0222000
 137.4626500 124.2990960  29.7455550 140.5007480 123.0143460  14.5713670
 140.2148990 122.6008600  13.7567850 140.3027030 123.9431170  14.4514190
 125.0631090 116.2862550  29.4572990 125.5670110 115.7069830  30.0289220
 124.3238510 116.5702780  29.9949360 131.9654710 119.0076740  13.0119280
 131.8605350 118.3929090  13.7380660 131.7978930 118.4842630  12.2282290
 132.1169030 117.6933540  28.9908510 131.3514700 118.2618540  28.9063180
 132.2984990 117.4009750  28.0976740 135.2057440 118.0696770  13.6161270
 134.6567540 118.5166070  14.2604010 135.8276700 117.5646020  14.1398940
 139.2592380 119.4238870  29.5483530 140.0001850 119.7614630  29.0450990
 138.4965060 119.5930930  28.9953300 127.0954170 114.4292140  30.3523060
 127.1359510 114.1306010  31.2608290 127.9499670 114.8299750  30.1930580
 130.8732560 117.0287690  15.5126570 131.2948980 116.8627560  16.3557960
 130.9983400 116.2187920  15.0181710 129.0359980 113.0084240  28.3197550
 128.5056440 112.5175190  27.6920890 129.7048050 113.4368440  27.7855480
 133.3860200 116.0525300  12.7603670 133.9065860 115.3374320  12.3944820
 134.0328600 116.6911170  13.0604180 137.9338040 117.4753700  28.0838740
 138.3479060 117.6298780  28.9329160 136.9989040 117.6008920  28.2464520
 138.4060210 114.8149860  30.0877890 138.9880980 114.0602180  29.9998370
 138.5821980 115.3457300  29.3109370 129.5232280 109.9746610  28.3994840
 129.4289150 109.3567360  27.6745710 128.9429670 110.7012900  28.1724750
 132.2893720 108.5319850  25.4322230 131.8411020 108.5544110  24.5867780
 131.6558920 108.1338870  26.0292530 132.6953270 117.4274180  26.0534670
 133.1141380 118.2706910  25.8810910 131.7761900 117.5646220  25.8241450
 135.0317170 115.1590360  27.4372510 135.1513380 114.5631500  28.1767350
 135.8911170 115.1960050  27.0173810 137.3705070 115.7127550  26.0135020
 136.8440290 116.2370170  25.4100160 137.7136410 116.3454940  26.6444750
 129.7691460 113.1020920  12.4584730 129.5680520 112.2388280  12.8198070
 129.5983510 113.0154280  11.5206330 130.5460690 123.7327190  27.1692400
 130.0081780 124.4573250  26.8501100 130.7994650 123.2557530  26.3789740
 131.7985940 111.7011710  28.6948330 132.3885630 111.3927560  29.3826150
 130.9806180 111.2291460  28.8508230 136.6179370 111.3177520  28.9281350
 135.9294890 110.6559060  28.8631340 137.3385390 110.8715790  29.3729810
 137.2479770 107.9129150  14.9871610 137.5282060 107.0697050  15.3431030
 136.4745500 108.1452260  15.5010360 128.5674260 110.2021540  12.4462610
 128.8700160 110.2088970  11.5381760 129.3068850 109.8519400  12.9430270
 133.4022900 124.9678400  27.4279050 133.3281600 125.8713540  27.7351420
 132.5001740 124.6490300  27.4001120 131.7859190 109.1456160  13.4318810
 131.4381190 108.4680150  12.8521260 131.9871960 108.6845670  14.2462200
 133.9508230 124.1336910  15.0505410 134.8459020 124.4721880  15.0724170
 133.9825860 123.4116320  14.4229690 127.5904390 119.5063960  13.2792410
 128.0279260 120.0493630  13.9349990 128.0752120 118.6810910  13.2888750
 124.8050190 122.2952990  20.7312670 125.1353200 121.4274050  20.4991310
 125.2341190 122.5011510  21.5617630 129.4012110 120.6262000  18.3914640
 129.1007650 120.5026970  19.2918550 129.2949600 119.7670590  17.9830370
 125.2940400 123.1623580  23.4694300 124.8571390 123.3424380  24.3018450
 125.8618080 123.9198200  23.3276020 140.9302580 122.6640580  27.7571610
 140.3304570 122.7233140  27.0135530 141.0596480 121.7245560  27.8868460
 142.1704030 120.4058400  13.0941320 141.3396990 120.4735050  13.5648550
 142.3475860 121.2962520  12.7908180 141.6260490 117.1505880  15.5975520
 142.3879400 117.7202530  15.7035210 141.6414860 116.5833080  16.3683830
 125.1264830 115.6743810  19.8283180 124.4713670 115.4055450  19.1842880
 125.9642780 115.5648290  19.3785160 142.6320460 118.0055980  20.4417450
 143.0029290 117.2223300  20.0353420 143.2722390 118.6945080  20.2634750
 139.6154220 119.3892560  25.8547770 138.8014060 119.8189720  26.1173560
 140.0228420 120.0010970  25.2416820 141.6779660 117.4440250  12.7548040
 141.9528500 118.3519130  12.6267260 141.4890400 117.3802780  13.6910030
 138.0755270 110.4685100  14.0501670 138.4940150 110.2816080  13.2098330
 137.7691330 109.6164150  14.3604600 141.5745000 115.3809240  17.7477470
 141.1988600 114.6137170  17.3158760 140.8448120 115.7631940  18.2352400
 126.1640760 116.0596380  24.3686520 126.5313800 115.9723780  25.2482540
 125.5951580 115.2962930  24.2693380 140.9644620 114.5280760  27.3816990
 140.7330710 114.2993510  26.4814940 141.2249170 115.4480310  27.3361880
 125.7156760 112.9705470  28.2744940 124.8212810 112.9372230  28.6138650
 126.2554310 113.1692260  29.0396190 139.4032690 109.7537190  30.1596690
 140.2802870 109.7620590  30.5430690 139.4153530 109.0168030  29.5489040
 124.3402910 112.8842740  15.7708510 123.4366990 113.1472940  15.5960170
 124.8243530 113.1553910  14.9908470 140.8495960 113.6066730  21.0484710
 141.3733440 113.1129380  20.4174880 141.4355380 113.7417090  21.7932280
 141.0285680 113.6906600  24.5704260 140.0788390 113.6570140  24.6849250
 141.2098690 114.6006710  24.3354030 126.8830120 111.9408280  13.6802890
 127.5921820 111.5191500  13.1950170 126.1670060 112.0083510  13.0486240
 126.5304280 107.9947610  12.7205540 127.2532410 108.5356550  13.0386760
 126.8028800 107.7211030  11.8447080 140.3395930 112.8640080  16.9877120
 140.8355050 112.6310950  17.7726000 140.1412000 112.0251920  16.5714760
 126.2196470 107.2453800  22.6228160 126.8672660 106.6951180  22.1823320
 126.6398310 107.4996950  23.4443970 141.7683090 111.5001030  19.5214800
 141.6582370 111.3457070  20.4597070 142.5290680 110.9721970  19.2790210
 140.1148810 107.4395160  25.9797800 140.7521030 108.0529300  26.3456990
 140.2623700 107.4755820  25.0347030 142.6573360 109.3308950  12.7620940
 143.5822670 109.1990130  12.5539230 142.6349150 109.4101770  13.7157390
 142.7311850 110.1019610  15.3877650 141.9363350 110.0364730  15.9170560
 142.9355130 111.0370250  15.3763000 139.6730270 124.1411160  19.3816040
 140.2689340 123.8195730  18.7050460 139.9308420 123.6682980  20.1729310
 125.9728470 107.4009470  25.3653480 125.6243290 107.8573290  26.1311660
 125.6416170 106.5066600  25.4475910 127.5792840 120.5729070  29.5306670
 127.5362470 120.2021980  30.4121130 127.7103850 121.5106640  29.6708490
 131.2798870 122.1288660  25.1316390 131.0390230 122.3963220  24.2446910
 132.2201510 122.2994390  25.1867250 133.4853290 108.5921350  28.8872900
 133.4242180 109.1843180  29.6368310 134.4253670 108.4847310  28.7423160
 136.1227850 108.2491410  28.5265190 136.7368260 108.5670700  27.8646270
 136.6677410 107.7640000  29.1461050 142.5403030 124.1483040  25.9327030
 142.0461310 124.5451910  25.2154160 141.9316320 123.5232250  26.3264310
 126.6449110 106.9285670  28.6404250 127.1932100 106.7473720  27.8770360
 126.7104420 106.1379780  29.1760560 127.4180870 123.5191320  26.6504450
 126.8241190 123.3876020  27.3894490 127.4104710 122.6829460  26.1846550
 136.8635890 106.8123550  24.8534480 135.9895730 107.1458660  24.6507410
 136.7546640 106.3396730  25.6786350 137.7707870 109.0194420  26.2376200
 137.4421230 108.2046180  25.8577930 138.7190170 108.9764230  26.1141890
 140.2242480 124.7906460  23.2113770 139.7645450 125.5422270  22.8371790
 139.5954940 124.0712930  23.1528570 127.0493100 120.8849700  25.6012490
 126.3227160 120.2654990  25.5338440 127.1102250 121.2790310  24.7310570
 130.6538200 123.0994700  22.3861900 131.1703220 122.4882060  21.8610160
 131.3035580 123.6023480  22.8772910 133.3933700 123.9903190  23.2130880
 133.6811510 123.7357490  22.3363890 133.9056920 123.4380550  23.8036450
 134.6110710 107.7293390  23.7927390 133.8282500 108.2038890  24.0724150
 134.3173640 106.8248220  23.6840570 139.1631780 108.4316490  21.8376480
 139.6039870 108.3761590  20.9898080 138.8939370 109.3474500  21.9086660
 141.0270350 108.0631730  19.8485300 140.9658750 107.1192950  19.7016320
 141.8062380 108.1711820  20.3938760 125.3323100 124.2024090  18.8109250
 125.1645140 123.5694770  19.5091140 124.4657610 124.4083490  18.4603440
 125.9551120 108.0340870  16.3141110 126.7130480 108.1469750  15.7405140
 125.4928290 108.8710070  16.2684540 132.4964930 110.1480140  19.3043420
 131.6839440 109.7737030  18.9639300 133.0006570 109.3925220  19.6064610
 136.9989910 106.8122590  20.5426490 137.6019280 107.3842800  21.0175010
 136.2582900 107.3762030  20.3200390 140.1424510 107.2144150  15.8166770
 140.3375140 108.1127600  16.0834200 139.3554380 106.9831230  16.3099720
 126.9385800 122.8957320  16.2559390 126.4133420 123.2765350  15.5521350
 126.8630380 123.5208090  16.9769100 128.3276270 108.5604920  14.8543080
 128.8569030 107.7734720  14.7251030 128.9604590 109.2396110  15.0878610
 130.5214110 108.2980060  17.9088470 129.8916850 107.5967370  18.0758600
 129.9819250 109.0584190  17.6921630 133.4606060 124.9119290  30.5799080
 134.3873370 124.6763560  30.6235040 133.4456490 125.7391290  30.0985110
 141.6951120 124.4544860  17.5773330 141.8703310 123.7682600  16.9334250
 140.9972690 124.9791910  17.1850000 130.6469670 107.5764040  30.3440960
 130.3653940 108.0797640  29.5801780 131.0289370 106.7785790  29.9783090
 129.5378770 124.8439700  15.1308640 130.2697590 124.5598980  14.5832530
 129.7972440 124.6052980  16.0208020 128.6993560 120.9604430  15.1354970
 128.0702440 121.4289530  15.6840800 128.8141390 120.1153650  15.5701160
 137.2485130 106.9917620  30.9221430 137.1350580 107.3112230  31.8172950
 138.0654870 107.3930130  30.6258710 140.0283620 124.1389150  30.4040120
 140.8208940 123.6438380  30.1966080 140.3216770 124.8179290  31.0115730
 134.2861320 116.7889110   3.1665440 133.5103420 116.3089550   3.4564010
 134.9374250 116.1094760   2.9921600 128.3027150 117.1008920   4.0441200
 127.4712030 116.8457630   4.4437710 128.9108130 117.1719690   4.7799120
 138.3068750 121.1949300   1.9464570 137.8450280 120.4236540   2.2751740
 139.1194300 121.2215370   2.4517020 128.2828410 121.1349010   4.2399220
 128.5856450 120.2446750   4.0609440 129.0272000 121.6919230   4.0121470
 124.6752110 114.6616460   3.7123290 125.2468220 113.8938660   3.7126930
 124.6753650 114.9605220   2.8029900 133.7270310 119.4646300   3.1735600
 133.6578590 118.5236240   3.0124730 134.4890170 119.5547710   3.7458170
 125.9176980 110.0700820   5.4992220 125.7379820 109.1726570   5.7794980
 125.5157060 110.6172690   6.1739170 134.7575480 112.2716680   3.4004530
 135.1340300 111.3988560   3.2878200 134.6594990 112.6075380   2.5094970
 126.5363650 112.5661320   4.1074560 127.2173760 112.8299690   4.7261960
 126.2211700 111.7262190   4.4412570 130.7288220 113.6128680   3.1947150
 131.2366440 114.1109650   3.8352170 131.2601460 112.8363880   3.0186510
 142.8299150 111.7833870   6.8976500 142.1251320 112.1715580   6.3791610
 143.0957070 112.4784160   7.4997430 129.0124320 108.2527240   7.4610570
 129.0142760 108.7699630   6.6556470 128.1828630 107.7757420   7.4380500
 130.2627170 117.8922420   5.6384070 129.9296550 118.5191340   6.2805140
 130.4393850 118.4184300   4.8585740 138.7761080 111.7067500   3.1060410
 138.0716650 111.9952390   3.6863520 139.1373240 112.5167610   2.7459970
 128.6939650 109.9637200   5.4681020 129.0356460 110.8079250   5.1734890
 127.7555460 110.1120940   5.5846360 129.4746270 119.8603220   7.4533250
 130.0920270 120.5354300   7.1717700 128.6139390 120.2691200   7.3620750
 140.3923860 121.3242630   5.3687890 139.7087380 121.9941740   5.3604560
 140.9318150 121.5223280   4.6032750 141.8448000 111.1522290   3.4969620
 140.8972910 111.1861270   3.6285050 142.1697990 111.9661240   3.8818980
 137.9282600 123.1686760   4.0833070 137.9409760 122.7649050   3.2155330
 137.3757820 123.9434050   3.9794500 137.3268040 118.0716600   5.4115680
 137.7436830 117.8576710   4.5769140 138.0507860 118.3289390   5.9824300
 141.2730140 116.4703820   5.5031920 140.4448770 116.5396910   5.0282050
 141.8680620 117.0558130   5.0347750 138.2372150 113.2573140   6.4486790
 137.8243330 114.0826850   6.7026780 137.5048100 112.6718180   6.2563150
 130.8386640 119.7300600   3.4744670 130.5414930 119.1246070   2.7952450
 131.7886460 119.7677910   3.3634030 129.0833560 112.8176250   5.0904500
 129.6348150 112.9271590   4.3157750 129.5977070 113.1913850   5.8059730
 138.9272250 123.3032470   7.1367770 138.4502810 124.1104660   6.9440380
 138.2434040 122.6510800   7.2893980 129.9305070 119.4682290  10.1252470
 129.0333600 119.6922260  10.3725870 129.9557940 119.5917230   9.1763870
 128.7576290 116.3395610   8.7009840 128.6184060 117.2118410   9.0697240
 127.8757650 115.9968420   8.5557780 130.5556640 122.2817310  10.9094990
 130.5272070 122.6860260  10.0423420 130.3921610 121.3527670  10.7466590
 142.5071460 123.0644410  12.2059160 142.9831180 123.5427300  12.8848240
 143.1278620 122.9961900  11.4804660 124.7094940 118.1093160   4.6180750
 124.7875360 118.2441930   3.6736470 125.3236620 117.4009050   4.8108870
 141.9104710 120.2557260   9.3659170 142.0367770 120.0169140   8.4476350
 141.9526090 119.4241800   9.8381250 135.7721450 123.9585260   7.9353980
 136.2866120 123.8693270   8.7376410 134.9290530 124.3044960   8.2281890
 141.7628720 112.3089720  10.3308910 141.1472990 112.8169390   9.8024370
 141.4425140 111.4088050  10.2734850 124.7654460 119.1507330   7.1575210
 124.9285500 118.6812690   6.3394580 125.2306910 118.6430890   7.8224050
 129.5373230 108.2813090   2.1935780 129.0941380 109.0622630   1.8620300
 130.0958220 108.6042980   2.9006720 133.8243040 111.1481610   7.7971100
 133.3622410 111.3564630   8.6091040 133.4221150 110.3340960   7.4941770
 138.8247550 112.3690560   8.9267760 137.9741140 112.0696310   9.2476830
 138.6649340 112.6132570   8.0151580 135.9197260 113.8692310  11.0266550
 136.2450670 113.0356060  10.6868780 136.7077590 114.3920830  11.1744880
 131.5749130 108.8260420   4.0525380 131.8721460 109.7323250   3.9717400
 132.1234690 108.3379200   3.4384950 131.7686660 114.3032240  10.5877300
 131.6730260 113.3626970  10.4377700 132.6118640 114.5247310  10.1925370
 126.8997200 110.7145910   8.7411080 126.5060590 111.5621120   8.9483860
 126.2115600 110.0772280   8.9319720 133.4742250 110.7980880  11.8107820
 132.7840570 110.6053080  12.4453910 134.2174550 111.0815520  12.3432120
 124.2014250 108.6374370   2.7741160 123.9127300 109.2077230   3.4866140
 124.9460010 108.1578820   3.1372390 135.7505220 114.6379320   4.6461740
 135.0186340 115.1466130   4.9951840 135.3529560 113.8209300   4.3450520
 132.1882610 111.3133520   3.0514230 132.1918670 110.8723470   2.2018770
 133.0833730 111.6350850   3.1586050 128.0384990 111.1960010   2.0108440
 127.6985040 111.6735240   2.7675490 127.2762310 110.7425130   1.6509540
 136.2131130 110.0913000   4.0584680 136.2303870 110.5421650   4.9026530
 135.9646710 109.1918640   4.2718120 139.6401880 107.5045180   9.8971060
 139.9647650 106.7734840  10.4229040 139.6758390 107.1858820   8.9952050
 126.3393440 118.5258760   9.3171020 125.9548230 117.8852430   9.9153980
 126.6505630 119.2294880   9.8865750 132.4890580 115.3735300   4.7979640
 132.8560710 114.8993870   5.5440980 132.2995640 116.2476870   5.1387980
 130.2789950 114.4143940   7.1163850 129.9747020 115.2935920   7.3414210
 131.2336410 114.4743730   7.1521290 139.5659720 117.6170290   3.5057090
 140.2858840 118.1125580   3.1153200 139.3641540 116.9388180   2.8610960
 134.9478520 117.6879350   9.3926090 134.8815830 116.7675020   9.1383680
 134.3183660 117.7854790  10.1070730 126.3353680 115.2546680   8.2635210
 125.9768620 115.9200530   8.8508550 126.0408240 114.4230230   8.6347830
 129.5366800 115.7130920  11.1474760 129.2366940 115.8588100  10.2502580
 130.3078040 115.1536210  11.0548150 134.8795250 120.5099920   9.1429890
 134.8939790 119.5780880   8.9248800 134.1720350 120.5959680   9.7819660
 141.0906460 117.1507260   8.4898470 140.3654650 117.7436040   8.2927860
 141.6181920 117.1430800   7.6911840 134.3129150 122.1517490   6.2370390
 134.9571370 122.3576870   6.9143810 134.6758590 121.3905890   5.7841240
 135.5861230 120.1549840   4.9547840 136.2283460 119.4543000   5.0680010
 136.1110580 120.9348280   4.7744730 137.3598850 120.9544740   8.1583900
 137.6955090 121.5411430   8.8361820 136.4399190 120.8237450   8.3881690
 124.9102250 108.7439920   8.9407310 124.1960770 108.9436840   9.5459920
 125.3297290 107.9679490   9.3122110 125.1974840 122.7320180   9.9273840
 125.3065960 121.7914920   9.7869230 124.5455400 122.9974930   9.2787570
 133.1887430 121.0036070  11.3271960 132.8684300 120.2845310  11.8717650
 132.5145790 121.6791140  11.4008020 136.4041030 111.2362230   6.6908760
 136.7721850 110.4157440   7.0188330 135.5439230 111.2964120   7.1064410
 133.3643020 113.8901820   6.9146730 133.8628270 114.3647640   7.5798580
 133.5065970 112.9665340   7.1216760 140.5709880 110.1069780   7.7575120
 140.0683480 110.8475180   8.0968930 141.3866540 110.4953780   7.4411910
 140.8657470 122.5211810   2.8790740 140.9904890 123.3442980   3.3514550
 141.7323030 122.3102540   2.5314890 128.3375000 124.6143020   2.5507870
 129.0737480 124.0658480   2.8216440 128.7215920 125.4799030   2.4113860
 127.3433280 123.7989090  11.7393450 128.1446010 124.1201140  12.1528850
 126.8285100 123.4384670  12.4613360 136.1797910 119.9068960  11.6868860
 135.5736070 119.9300560  10.9464610 135.8752020 119.1752000  12.2236110
 137.6098280 123.6349250  10.2978270 138.5620030 123.5507270  10.2478510
 137.4626500 124.2990960  10.9712060 125.0631090 116.2862550  10.6829500
 125.5670110 115.7069830  11.2545730 124.3238510 116.5702780  11.2205870
 132.1169030 117.6933540  10.2165020 131.3514700 118.2618540  10.1319690
 132.2984990 117.4009750   9.3233250 139.2592380 119.4238870  10.7740040
 140.0001850 119.7614630  10.2707500 138.4965060 119.5930930  10.2209810
 127.0954170 114.4292140  11.5779570 127.1359510 114.1306010  12.4864800
 127.9499670 114.8299750  11.4187090 129.0359980 113.0084240   9.5454060
 128.5056440 112.5175190   8.9177400 129.7048050 113.4368440   9.0111990
 137.9338040 117.4753700   9.3095250 138.3479060 117.6298780  10.1585670
 136.9989040 117.6008920   9.4721030 138.4060210 114.8149860  11.3134400
 138.9880980 114.0602180  11.2254880 138.5821980 115.3457300  10.5365880
 129.5232280 109.9746610   9.6251350 129.4289150 109.3567360   8.9002220
 128.9429670 110.7012900   9.3981260 132.2893720 108.5319850   6.6578740
 131.8411020 108.5544110   5.8124290 131.6558920 108.1338870   7.2549040
 132.6953270 117.4274180   7.2791180 133.1141380 118.2706910   7.1067420
 131.7761900 117.5646220   7.0497960 135.0317170 115.1590360   8.6629020
 135.1513380 114.5631500   9.4023860 135.8911170 115.1960050   8.2430320
 137.3705070 115.7127550   7.2391530 136.8440290 116.2370170   6.6356670
 137.7136410 116.3454940   7.8701260 130.5460690 123.7327190   8.3948910
 130.0081780 124.4573250   8.0757610 130.7994650 123.2557530   7.6046250
 131.7985940 111.7011710   9.9204840 132.3885630 111.3927560  10.6082660
 130.9806180 111.2291460  10.0764740 136.6179370 111.3177520  10.1537860
 135.9294890 110.6559060  10.0887850 137.3385390 110.8715790  10.5986320
 133.4022900 124.9678400   8.6535560 133.3281600 125.8713540   8.9607930
 132.5001740 124.6490300   8.6257630 124.8050190 122.2952990   1.9569180
 125.1353200 121.4274050   1.7247820 125.2341190 122.5011510   2.7874140
 125.2940400 123.1623580   4.6950810 124.8571390 123.3424380   5.5274960
 125.8618080 123.9198200   4.5532530 140.9302580 122.6640580   8.9828120
 140.3304570 122.7233140   8.2392040 141.0596480 121.7245560   9.1124970
 139.6154220 119.3892560   7.0804280 138.8014060 119.8189720   7.3430070
 140.0228420 120.0010970   6.4673330 126.1640760 116.0596380   5.5943030
 126.5313800 115.9723780   6.4739050 125.5951580 115.2962930   5.4949890
 140.9644620 114.5280760   8.6073500 140.7330710 114.2993510   7.7071450
 141.2249170 115.4480310   8.5618390 125.7156760 112.9705470   9.5001450
 124.8212810 112.9372230   9.8395160 126.2554310 113.1692260  10.2652700
 139.4032690 109.7537190  11.3853200 140.2802870 109.7620590  11.7687200
 139.4153530 109.0168030  10.7745550 140.8495960 113.6066730   2.2741220
 141.3733440 113.1129380   1.6431390 141.4355380 113.7417090   3.0188790
 141.0285680 113.6906600   5.7960770 140.0788390 113.6570140   5.9105760
 141.2098690 114.6006710   5.5610540 126.2196470 107.2453800   3.8484670
 126.8672660 106.6951180   3.4079830 126.6398310 107.4996950   4.6700480
 140.1148810 107.4395160   7.2054310 140.7521030 108.0529300   7.5713500
 140.2623700 107.4755820   6.2603540 125.9728470 107.4009470   6.5909990
 125.6243290 107.8573290   7.3568170 125.6416170 106.5066600   6.6732420
 127.5792840 120.5729070  10.7563180 127.5362470 120.2021980  11.6377640
 127.7103850 121.5106640  10.8965000 131.2798870 122.1288660   6.3572900
 131.0390230 122.3963220   5.4703420 132.2201510 122.2994390   6.4123760
 133.4853290 108.5921350  10.1129410 133.4242180 109.1843180  10.8624820
 134.4253670 108.4847310   9.9679670 136.1227850 108.2491410   9.7521700
 136.7368260 108.5670700   9.0902780 136.6677410 107.7640000  10.3717560
 142.5403030 124.1483040   7.1583540 142.0461310 124.5451910   6.4410670
 141.9316320 123.5232250   7.5520820 126.6449110 106.9285670   9.8660760
 127.1932100 106.7473720   9.1026870 126.7104420 106.1379780  10.4017070
 127.4180870 123.5191320   7.8760960 126.8241190 123.3876020   8.6151000
 127.4104710 122.6829460   7.4103060 136.8635890 106.8123550   6.0790990
 135.9895730 107.1458660   5.8763920 136.7546640 106.3396730   6.9042860
 137.7707870 109.0194420   7.4632710 137.4421230 108.2046180   7.0834440
 138.7190170 108.9764230   7.3398400 140.2242480 124.7906460   4.4370280
 139.7645450 125.5422270   4.0628300 139.5954940 124.0712930   4.3785080
 127.0493100 120.8849700   6.8269000 126.3227160 120.2654990   6.7594950
 127.1102250 121.2790310   5.9567080 130.6538200 123.0994700   3.6118410
 131.1703220 122.4882060   3.0866670 131.3035580 123.6023480   4.1029420
 133.3933700 123.9903190   4.4387390 133.6811510 123.7357490   3.5620400
 133.9056920 123.4380550   5.0292960 134.6110710 107.7293390   5.0183900
 133.8282500 108.2038890   5.2980660 134.3173640 106.8248220   4.9097080
 139.1631780 108.4316490   3.0632990 139.6039870 108.3761590   2.2154590
 138.8939370 109.3474500   3.1343170 136.9989910 106.8122590   1.7683000
 137.6019280 107.3842800   2.2431520 136.2582900 107.3762030   1.5456900
 133.4606060 124.9119290  11.8055590 134.3873370 124.6763560  11.8491550
 133.4456490 125.7391290  11.3241620 130.6469670 107.5764040  11.5697470
 130.3653940 108.0797640  10.8058290 131.0289370 106.7785790  11.2039600
 137.2485130 106.9917620  12.1477940 137.1350580 107.3112230  13.0429460
 138.0654870 107.3930130  11.8515220 140.0283620 124.1389150  11.6296630
 140.8208940 123.6438380  11.4222590 140.3216770 124.8179290  12.2372240
 136.1543280  96.2366600 151.4804090 136.0737330  95.3221210 151.2095800
 135.7407700  96.7333670 150.7743800 134.2861320  98.0145620 153.3613360
 133.5103420  97.5346060 153.6511930 134.9374250  97.3351270 153.1869520
 138.3068750 102.4205810 152.1412490 137.8450280 101.6493050 152.4699660
 139.1194300 102.4471880 152.6464940 128.2828410 102.3605520 154.4347140
 128.5856450 101.4703260 154.2557360 129.0272000 102.9175740 154.2069390
 126.7119100  93.2867320 148.0231510 125.8235800  93.6283290 147.9211390
 126.9960290  93.0867640 147.1312340 124.6752110  95.8872970 153.9071210
 125.2468220  95.1195170 153.9074850 124.6753650  96.1861730 152.9977820
 134.5332060 104.7063820 151.7616480 133.9143500 105.1621320 151.1910920
 135.3883840 104.8615280 151.3606180 133.7270310 100.6902810 153.3683520
 133.6578590  99.7492750 153.2072650 134.4890170 100.7804220 153.9406090
 134.7575480  93.4973190 153.5952450 135.1340300  92.6245070 153.4826120
 134.6594990  93.8331890 152.7042890 128.8880490  91.8698820 149.0569890
 128.9947240  92.7702550 149.3638650 127.9772850  91.8216790 148.7664540
 138.5399600  90.9923630 150.5280790 139.3609220  90.5020200 150.5706270
 138.5733680  91.5821290 151.2812630 130.7288220  94.8385190 153.3895070
 131.2366440  95.3366160 154.0300090 131.2601460  94.0620390 153.2134430
 135.3995410  99.5903060 149.1548390 134.7812680 100.0552510 148.5911110
 135.9118660 100.2830540 149.5717900 138.7761080  92.9324010 153.3008330
 138.0716650  93.2208900 153.8811440 139.1373240  93.7424120 152.9407890
 124.7678610 100.2759590 146.5288020 124.3906590 100.7646690 145.7972920
 125.0251680 100.9484870 147.1594550 141.8448000  92.3778800 153.6917540
 140.8972910  92.4117780 153.8232970 142.1697990  93.1917750 154.0766900
 132.3767540  88.6775980 151.9873530 132.6842520  88.1222870 151.2709030
 131.4468240  88.8120440 151.8046520 137.9282600 104.3943270 154.2780990
 137.9409760 103.9905560 153.4103250 137.3757820 105.1690560 154.1742420
 139.2228020 101.1159490 149.3671160 139.1124350 100.1733820 149.4920580
 139.2196270 101.4775130 150.2533920 134.7648300  96.7424810 148.7233650
 133.8377580  96.6762190 148.9522120 134.9173120  97.6804940 148.6088890
 134.7517380  93.0141810 145.7200810 133.8121050  93.1755770 145.8053270
 135.0700640  93.7327490 145.1736800 138.7945590  98.3045110 149.2268900
 138.1758010  97.9664660 148.5795200 138.7770040  97.6604870 149.9348090
 130.3704940  97.2689550 151.5053380 129.9661940  96.5566800 151.0099280
 130.4568060  96.9242790 152.3941420 130.8386640 100.9557110 153.6692590
 130.5414930 100.3502580 152.9900370 131.7886460 100.9934420 153.5581950
 136.9710290  97.5431920 146.2341650 137.4103570  96.7054350 146.0879470
 137.6838710  98.1761320 146.3205790 135.0805670 102.4827990 150.2022890
 135.5201580 103.2252320 149.7878280 135.0192560 102.7254560 151.1261850
 140.5527430  88.7974730 144.5482690 140.2400090  88.8901560 145.4481760
 141.3139900  89.3755760 144.4980120 127.0709570  96.1634530 149.0060030
 126.9507170  96.8896620 148.3941300 126.7610460  95.3937440 148.5287940
 125.9542570 101.0349860 151.2234850 125.5470650 101.1764450 150.3688450
 126.8455580 100.7510020 151.0206060 137.7475850 105.4697110 147.5585900
 137.5876990 105.1800050 148.4567730 137.5822560 104.6937240 147.0231130
 130.2264230 105.2495640 149.3357520 130.0506710 104.3331180 149.1225320
 129.3719970 105.6082930 149.5755320 137.4501980 102.9784670 146.1183900
 136.7567140 102.9761960 145.4586180 138.1924840 102.5543990 145.6878070
 137.0151910 104.6047380 150.1932390 137.4708860 103.8236760 150.5071010
 137.3544430 105.3154200 150.7373570 129.5373230  89.5069600 152.3883700
 129.0941380  90.2879140 152.0568220 130.0958220  89.8299490 153.0954640
 132.6532050  89.1280300 147.2689530 132.0286230  89.1240170 147.9942840
 132.5662170  88.2611260 146.8725500 131.5749130  90.0516930 154.2473300
 131.8721460  90.9579760 154.1665320 132.1234690  89.5635710 153.6332870
 129.3287450  94.6303170 150.1164950 129.1028370  94.4140340 151.0211570
 128.5479980  95.0631630 149.7710920 136.5585210  94.6366540 148.7155600
 135.9594100  95.3602340 148.5319220 137.1064820  94.5743320 147.9332050
 135.1650080  93.2730080 150.7458880 135.5579650  93.5902280 149.9327570
 135.5266930  92.3941960 150.8603400 124.2014250  89.8630880 152.9689080
 123.9127300  90.4333740 153.6814060 124.9460010  89.3835330 153.3320310
 124.3884480  93.8051000 144.1791800 124.3059150  94.7481760 144.3206790
 124.0367540  93.6625910 143.3004150 132.1882610  92.5390030 153.2462150
 132.1918670  92.0979980 152.3966690 133.0833730  92.8607360 153.3533970
 128.0384990  92.4216520 152.2056360 127.6985040  92.8991750 152.9623410
 127.2762310  91.9681640 151.8457460 132.2502760  93.5402110 146.2368910
 132.3715580  93.4988590 147.1854730 131.8651270  94.4026260 146.0815640
 131.2624260  95.8503250 145.6352210 130.6941160  95.4021500 145.0088120
 131.9713260  96.2096030 145.1017360 125.3531070  91.3435500 151.1221030
 125.0677990  90.9791170 151.9599650 125.2909930  90.6115960 150.5084170
 128.8071740  99.8461440 147.9078620 128.0334000  99.3059060 147.7477340
 129.5366370  99.3268050 147.5696380 139.5659720  98.8426800 153.7005010
 140.2858840  99.3382090 153.3101120 139.3641540  98.1644690 153.0558880
 135.0269660  90.2364760 147.8434400 134.2134270  89.7377930 147.7679710
 134.8331610  91.0763010 147.4270750 137.7418050  94.6084410 146.1396560
 138.6297670  94.9201640 145.9647900 137.7123140  93.7356660 145.7477140
 128.8509140  99.5141820 151.5457430 129.3687810  98.7110080 151.4914320
 128.3993160  99.4520960 152.3874260 133.7378640 100.7808100 146.8184730
 134.0794340 101.5250330 146.3228050 132.9091350 101.0939220 147.1809560
 140.0132320  95.9196250 145.6076420 139.9296040  96.3510470 144.7572860
 140.7326510  96.3794600 146.0403240 141.0419570 102.7738510 148.3358550
 140.3995730 102.1194130 148.6102270 140.6550230 103.1793600 147.5599220
 136.6206050 100.1023940 152.1830240 136.9729870  99.5052070 151.5231610
 135.7368380  99.7768170 152.3538490 132.7069330 100.8621630 149.5900650
 133.3940460 101.4090840 149.9708240 131.9201750 101.4062360 149.6250260
 124.8461730  96.4794450 145.0817730 125.7156580  96.7619250 145.3653650
 124.3552050  97.2930320 144.9666540 132.0096540  97.8667660 149.2026010
 132.4659320  98.6772910 149.4286200 131.6584750  97.5490800 150.0344500
 127.9108320  88.2105310 149.6748530 127.7822950  88.2023210 150.6233450
 127.0870340  88.5488400 149.3239540 139.4316950 101.6654970 144.8734900
 139.2054530 100.9485410 145.4659540 139.0413150 101.4167410 144.0356650
 125.2132980 105.6921830 145.6479360 125.5730620 106.2911170 144.9936630
 125.0725320 106.2381720 146.4214390 139.0133200  99.5826910 146.5349060
 138.7254900 100.0439600 147.3226940 139.8085370  99.1224680 146.8033280
 131.2301600 103.0753030 146.4653030 131.2211700 103.8082720 145.8497540
 130.3099960 102.8284610 146.5579990 126.8308240  98.2967920 147.2099790
 126.2236190  99.0366820 147.2195090 127.3057590  98.3867280 146.3837990
 139.7703060  91.4175680 147.6944240 139.1416220  91.5221350 146.9802470
 139.2754980  91.6372460 148.4838120 134.2161200 103.1381270 145.1278220
 134.3173180 102.9345260 144.1980200 133.3162940 102.8839550 145.3326000
 131.7387090  93.6961630 149.1102120 131.0303240  94.1647970 149.5515730
 132.0231570  93.0383640 149.7447310 135.7702520  90.4212290 150.5497910
 135.6470300  90.4398420 149.6007420 136.7187080  90.4691230 150.6696310
 132.8579310 105.6567590 149.8225890 133.1120810 105.6188980 148.9005260
 131.9091790 105.5300920 149.8154140 129.9422110  92.0046710 146.4852830
 130.7912640  92.4416860 146.4193020 129.5753380  92.3166970 147.3124890
 138.8631890  96.5759470 151.3984400 137.9222030  96.5909700 151.5732090
 139.1775960  95.7895430 151.8444700 128.8413530  98.2579070 144.9588360
 129.6076800  98.1460430 145.5213790 128.9188220  97.5617040 144.3065130
 127.5360290  95.6904140 145.6421250 127.6163880  94.7431650 145.7538650
 128.4280040  96.0211020 145.7481910 140.8657470 103.7468320 153.0738660
 140.9904890 104.5699490 153.5462470 141.7323030 103.5359050 152.7262810
 128.3375000 105.8399530 152.7455790 129.0737480 105.2914990 153.0164360
 128.7215920 106.7055540 152.6061780 125.2220480 101.9073100 148.6197300
 124.2960260 102.1494240 148.6102710 125.6876910 102.7347360 148.4982050
 131.4477310 105.0129840 144.5681360 132.2405920 105.3018670 144.1163150
 130.9281660 104.5822010 143.8893840 140.5007480 104.2399970 145.9918100
 140.2148990 103.8265110 145.1772280 140.3027030 105.1687680 145.8718620
 131.9654710 100.2333250 144.4323710 131.8605350  99.6185600 145.1585090
 131.7978930  99.7099140 143.6486720 135.2057440  99.2953280 145.0365700
 134.6567540  99.7422580 145.6808440 135.8276700  98.7902530 145.5603370
 130.8732560  98.2544200 146.9331000 131.2948980  98.0884070 147.7762390
 130.9983400  97.4444430 146.4386140 133.3860200  97.2781810 144.1808100
 133.9065860  96.5630830 143.8149250 134.0328600  97.9167680 144.4808610
 129.7691460  94.3277430 143.8789160 129.5680520  93.4644790 144.2402500
 129.5983510  94.2410790 142.9410760 137.2479770  89.1385660 146.4076040
 137.5282060  88.2953560 146.7635460 136.4745500  89.3708770 146.9214790
 128.5674260  91.4278050 143.8667040 128.8700160  91.4345480 142.9586190
 129.3068850  91.0775910 144.3634700 131.7859190  90.3712670 144.8523240
 131.4381190  89.6936660 144.2725690 131.9871960  89.9102180 145.6666630
 133.9508230 105.3593420 146.4709840 134.8459020 105.6978390 146.4928600
 133.9825860 104.6372830 145.8434120 127.5904390 100.7320470 144.6996840
 128.0279260 101.2750140 145.3554420 128.0752120  99.9067420 144.7093180
 124.8050190 103.5209500 152.1517100 125.1353200 102.6530560 151.9195740
 125.2341190 103.7268020 152.9822060 129.4012110 101.8518510 149.8119070
 129.1007650 101.7283480 150.7122980 129.2949600 100.9927100 149.4034800
 142.1704030 101.6314910 144.5145750 141.3396990 101.6991560 144.9852980
 142.3475860 102.5219030 144.2112610 141.6260490  98.3762390 147.0179950
 142.3879400  98.9459040 147.1239640 141.6414860  97.8089590 147.7888260
 125.1264830  96.9000320 151.2487610 124.4713670  96.6311960 150.6047310
 125.9642780  96.7904800 150.7989590 142.6320460  99.2312490 151.8621880
 143.0029290  98.4479810 151.4557850 143.2722390  99.9201590 151.6839180
 141.6779660  98.6696760 144.1752470 141.9528500  99.5775640 144.0471690
 141.4890400  98.6059290 145.1114460 138.0755270  91.6941610 145.4706100
 138.4940150  91.5072590 144.6302760 137.7691330  90.8420660 145.7809030
 141.5745000  96.6065750 149.1681900 141.1988600  95.8393680 148.7363190
 140.8448120  96.9888450 149.6556830 124.3402910  94.1099250 147.1912940
 123.4366990  94.3729450 147.0164600 124.8243530  94.3810420 146.4112900
 140.8495960  94.8323240 152.4689140 141.3733440  94.3385890 151.8379310
 141.4355380  94.9673600 153.2136710 126.8830120  93.1664790 145.1007320
 127.5921820  92.7448010 144.6154600 126.1670060  93.2340020 144.4690670
 126.5304280  89.2204120 144.1409970 127.2532410  89.7613060 144.4591190
 126.8028800  88.9467540 143.2651510 140.3395930  94.0896590 148.4081550
 140.8355050  93.8567460 149.1930430 140.1412000  93.2508430 147.9919190
 141.7683090  92.7257540 150.9419230 141.6582370  92.5713580 151.8801500
 142.5290680  92.1978480 150.6994640 142.6573360  90.5565460 144.1825370
 143.5822670  90.4246640 143.9743660 142.6349150  90.6358280 145.1361820
 142.7311850  91.3276120 146.8082080 141.9363350  91.2621240 147.3374990
 142.9355130  92.2626760 146.7967430 139.6730270 105.3667670 150.8020470
 140.2689340 105.0452240 150.1254890 139.9308420 104.8939490 151.5933740
 130.6538200 104.3251210 153.8066330 131.1703220 103.7138570 153.2814590
 131.3035580 104.8279990 154.2977340 139.1631780  89.6573000 153.2580910
 139.6039870  89.6018100 152.4102510 138.8939370  90.5731010 153.3291090
 141.0270350  89.2888240 151.2689730 140.9658750  88.3449460 151.1220750
 141.8062380  89.3968330 151.8143190 125.3323100 105.4280600 150.2313680
 125.1645140 104.7951280 150.9295570 124.4657610 105.6340000 149.8807870
 125.9551120  89.2597380 147.7345540 126.7130480  89.3726260 147.1609570
 125.4928290  90.0966580 147.6888970 132.4964930  91.3736650 150.7247850
 131.6839440  90.9993540 150.3843730 133.0006570  90.6181730 151.0269040
 136.9989910  88.0379100 151.9630920 137.6019280  88.6099310 152.4379440
 136.2582900  88.6018540 151.7404820 140.1424510  88.4400660 147.2371200
 140.3375140  89.3384110 147.5038630 139.3554380  88.2087740 147.7304150
 126.9385800 104.1213830 147.6763820 126.4133420 104.5021860 146.9725780
 126.8630380 104.7464600 148.3973530 128.3276270  89.7861430 146.2747510
 128.8569030  88.9991230 146.1455460 128.9604590  90.4652620 146.5083040
 130.5214110  89.5236570 149.3292900 129.8916850  88.8223880 149.4963030
 129.9819250  90.2840700 149.1126060 141.6951120 105.6801370 148.9977760
 141.8703310 104.9939110 148.3538680 140.9972690 106.2048420 148.6054430
 129.5378770 106.0696210 146.5513070 130.2697590 105.7855490 146.0036960
 129.7972440 105.8309490 147.4412450 128.6993560 102.1860940 146.5559400
 128.0702440 102.6546040 147.1045230 128.8141390 101.3410160 146.9905590
 136.1543280  96.2366600 132.7060600 136.0737330  95.3221210 132.4352310
 135.7407700  96.7333670 132.0000310 134.2861320  98.0145620 134.5869870
 133.5103420  97.5346060 134.8768440 134.9374250  97.3351270 134.4126030
 128.3027150  98.3265430 135.4645630 127.4712030  98.0714140 135.8642140
 128.9108130  98.3976200 136.2003550 138.3068750 102.4205810 133.3669000
 137.8450280 101.6493050 133.6956170 139.1194300 102.4471880 133.8721450
 128.2828410 102.3605520 135.6603650 128.5856450 101.4703260 135.4813870
 129.0272000 102.9175740 135.4325900 126.7119100  93.2867320 129.2488020
 125.8235800  93.6283290 129.1467900 126.9960290  93.0867640 128.3568850
 124.6752110  95.8872970 135.1327720 125.2468220  95.1195170 135.1331360
 124.6753650  96.1861730 134.2234330 134.5332060 104.7063820 132.9872990
 133.9143500 105.1621320 132.4167430 135.3883840 104.8615280 132.5862690
 133.7270310 100.6902810 134.5940030 133.6578590  99.7492750 134.4329160
 134.4890170 100.7804220 135.1662600 125.9176980  91.2957330 136.9196650
 125.7379820  90.3983080 137.1999410 125.5157060  91.8429200 137.5943600
 134.7575480  93.4973190 134.8208960 135.1340300  92.6245070 134.7082630
 134.6594990  93.8331890 133.9299400 128.8880490  91.8698820 130.2826400
 128.9947240  92.7702550 130.5895160 127.9772850  91.8216790 129.9921050
 138.5399600  90.9923630 131.7537300 139.3609220  90.5020200 131.7962780
 138.5733680  91.5821290 132.5069140 126.5363650  93.7917830 135.5278990
 127.2173760  94.0556200 136.1466390 126.2211700  92.9518700 135.8617000
 130.7288220  94.8385190 134.6151580 131.2366440  95.3366160 135.2556600
 131.2601460  94.0620390 134.4390940 142.8299150  93.0090380 138.3180930
 142.1251320  93.3972090 137.7996040 143.0957070  93.7040670 138.9201860
 129.0124320  89.4783750 138.8815000 129.0142760  89.9956140 138.0760900
 128.1828630  89.0013930 138.8584930 135.3995410  99.5903060 130.3804900
 134.7812680 100.0552510 129.8167620 135.9118660 100.2830540 130.7974410
 130.2627170  99.1178930 137.0588500 129.9296550  99.7447850 137.7009570
 130.4393850  99.6440810 136.2790170 138.7761080  92.9324010 134.5264840
 138.0716650  93.2208900 135.1067950 139.1373240  93.7424120 134.1664400
 128.6939650  91.1893710 136.8885450 129.0356460  92.0335760 136.5939320
 127.7555460  91.3377450 137.0050790 129.4746270 101.0859730 138.8737680
 130.0920270 101.7610810 138.5922130 128.6139390 101.4947710 138.7825180
 124.7678610 100.2759590 127.7544530 124.3906590 100.7646690 127.0229430
 125.0251680 100.9484870 128.3851060 140.3923860 102.5499140 136.7892320
 139.7087380 103.2198250 136.7808990 140.9318150 102.7479790 136.0237180
 141.8448000  92.3778800 134.9174050 140.8972910  92.4117780 135.0489480
 142.1697990  93.1917750 135.3023410 132.3767540  88.6775980 133.2130040
 132.6842520  88.1222870 132.4965540 131.4468240  88.8120440 133.0303030
 137.9282600 104.3943270 135.5037500 137.9409760 103.9905560 134.6359760
 137.3757820 105.1690560 135.3998930 139.2228020 101.1159490 130.5927670
 139.1124350 100.1733820 130.7177090 139.2196270 101.4775130 131.4790430
 137.3268040  99.2973110 136.8320110 137.7436830  99.0833220 135.9973570
 138.0507860  99.5545900 137.4028730 134.7648300  96.7424810 129.9490160
 133.8377580  96.6762190 130.1778630 134.9173120  97.6804940 129.8345400
 134.7517380  93.0141810 126.9457320 133.8121050  93.1755770 127.0309780
 135.0700640  93.7327490 126.3993310 141.2730140  97.6960330 136.9236350
 140.4448770  97.7653420 136.4486480 141.8680620  98.2814640 136.4552180
 138.7945590  98.3045110 130.4525410 138.1758010  97.9664660 129.8051710
 138.7770040  97.6604870 131.1604600 138.2372150  94.4829650 137.8691220
 137.8243330  95.3083360 138.1231210 137.5048100  93.8974690 137.6767580
 130.3704940  97.2689550 132.7309890 129.9661940  96.5566800 132.2355790
 130.4568060  96.9242790 133.6197930 130.8386640 100.9557110 134.8949100
 130.5414930 100.3502580 134.2156880 131.7886460 100.9934420 134.7838460
 129.0833560  94.0432760 136.5108930 129.6348150  94.1528100 135.7362180
 129.5977070  94.4170360 137.2264160 138.9272250 104.5288980 138.5572200
 138.4502810 105.3361170 138.3644810 138.2434040 103.8767310 138.7098410
 129.9305070 100.6938800 141.5456900 129.0333600 100.9178770 141.7930300
 129.9557940 100.8173740 140.5968300 136.9710290  97.5431920 127.4598160
 137.4103570  96.7054350 127.3135980 137.6838710  98.1761320 127.5462300
 128.7576290  97.5652120 140.1214270 128.6184060  98.4374920 140.4901670
 127.8757650  97.2224930 139.9762210 135.0805670 102.4827990 131.4279400
 135.5201580 103.2252320 131.0134790 135.0192560 102.7254560 132.3518360
 130.5556640 103.5073820 142.3299420 130.5272070 103.9116770 141.4627850
 130.3921610 102.5784180 142.1671020 140.5527430  88.7974730 125.7739200
 140.2400090  88.8901560 126.6738270 141.3139900  89.3755760 125.7236630
 127.0709570  96.1634530 130.2316540 126.9507170  96.8896620 129.6197810
 126.7610460  95.3937440 129.7544450 142.5071460 104.2900920 143.6263590
 142.9831180 104.7683810 144.3052670 143.1278620 104.2218410 142.9009090
 124.7094940  99.3349670 136.0385180 124.7875360  99.4698440 135.0940900
 125.3236620  98.6265560 136.2313300 125.9542570 101.0349860 132.4491360
 125.5470650 101.1764450 131.5944960 126.8455580 100.7510020 132.2462570
 141.9104710 101.4813770 140.7863600 142.0367770 101.2425650 139.8680780
 141.9526090 100.6498310 141.2585680 135.7721450 105.1841770 139.3558410
 136.2866120 105.0949780 140.1580840 134.9290530 105.5301470 139.6486320
 137.7475850 105.4697110 128.7842410 137.5876990 105.1800050 129.6824240
 137.5822560 104.6937240 128.2487640 130.2264230 105.2495640 130.5614030
 130.0506710 104.3331180 130.3481830 129.3719970 105.6082930 130.8011830
 137.4501980 102.9784670 127.3440410 136.7567140 102.9761960 126.6842690
 138.1924840 102.5543990 126.9134580 137.0151910 104.6047380 131.4188900
 137.4708860 103.8236760 131.7327520 137.3544430 105.3154200 131.9630080
 141.7628720  93.5346230 141.7513340 141.1472990  94.0425900 141.2228800
 141.4425140  92.6344560 141.6939280 124.7654460 100.3763840 138.5779640
 124.9285500  99.9069200 137.7599010 125.2306910  99.8687400 139.2428480
 129.5373230  89.5069600 133.6140210 129.0941380  90.2879140 133.2824730
 130.0958220  89.8299490 134.3211150 133.8243040  92.3738120 139.2175530
 133.3622410  92.5821140 140.0295470 133.4221150  91.5597470 138.9146200
 138.8247550  93.5947070 140.3472190 137.9741140  93.2952820 140.6681260
 138.6649340  93.8389080 139.4356010 135.9197260  95.0948820 142.4470980
 136.2450670  94.2612570 142.1073210 136.7077590  95.6177340 142.5949310
 132.6532050  89.1280300 128.4946040 132.0286230  89.1240170 129.2199350
 132.5662170  88.2611260 128.0982010 131.5749130  90.0516930 135.4729810
 131.8721460  90.9579760 135.3921830 132.1234690  89.5635710 134.8589380
 129.3287450  94.6303170 131.3421460 129.1028370  94.4140340 132.2468080
 128.5479980  95.0631630 130.9967430 136.5585210  94.6366540 129.9412110
 135.9594100  95.3602340 129.7575730 137.1064820  94.5743320 129.1588560
 131.7686660  95.5288750 142.0081730 131.6730260  94.5883480 141.8582130
 132.6118640  95.7503820 141.6129800 135.1650080  93.2730080 131.9715390
 135.5579650  93.5902280 131.1584080 135.5266930  92.3941960 132.0859910
 126.8997200  91.9402420 140.1615510 126.5060590  92.7877630 140.3688290
 126.2115600  91.3028790 140.3524150 133.4742250  92.0237390 143.2312250
 132.7840570  91.8309590 143.8658340 134.2174550  92.3072030 143.7636550
 124.2014250  89.8630880 134.1945590 123.9127300  90.4333740 134.9070570
 124.9460010  89.3835330 134.5576820 124.3884480  93.8051000 125.4048310
 124.3059150  94.7481760 125.5463300 124.0367540  93.6625910 124.5260660
 135.7505220  95.8635830 136.0666170 135.0186340  96.3722640 136.4156270
 135.3529560  95.0465810 135.7654950 132.1882610  92.5390030 134.4718660
 132.1918670  92.0979980 133.6223200 133.0833730  92.8607360 134.5790480
 128.0384990  92.4216520 133.4312870 127.6985040  92.8991750 134.1879920
 127.2762310  91.9681640 133.0713970 132.2502760  93.5402110 127.4625420
 132.3715580  93.4988590 128.4111240 131.8651270  94.4026260 127.3072150
 136.2131130  91.3169510 135.4789110 136.2303870  91.7678160 136.3230960
 135.9646710  90.4175150 135.6922550 131.2624260  95.8503250 126.8608720
 130.6941160  95.4021500 126.2344630 131.9713260  96.2096030 126.3273870
 139.6401880  88.7301690 141.3175490 139.9647650  87.9991350 141.8433470
 139.6758390  88.4115330 140.4156480 126.3393440  99.7515270 140.7375450
 125.9548230  99.1108940 141.3358410 126.6505630 100.4551390 141.3070180
 132.4890580  96.5991810 136.2184070 132.8560710  96.1250380 136.9645410
 132.2995640  97.4733380 136.5592410 125.3531070  91.3435500 132.3477540
 125.0677990  90.9791170 133.1856160 125.2909930  90.6115960 131.7340680
 130.2789950  95.6400450 138.5368280 129.9747020  96.5192430 138.7618640
 131.2336410  95.7000240 138.5725720 128.8071740  99.8461440 129.1335130
 128.0334000  99.3059060 128.9733850 129.5366370  99.3268050 128.7952890
 139.5659720  98.8426800 134.9261520 140.2858840  99.3382090 134.5357630
 139.3641540  98.1644690 134.2815390 135.0269660  90.2364760 129.0690910
 134.2134270  89.7377930 128.9936220 134.8331610  91.0763010 128.6527260
 134.9478520  98.9135860 140.8130520 134.8815830  97.9931530 140.5588110
 134.3183660  99.0111300 141.5275160 137.7418050  94.6084410 127.3653070
 138.6297670  94.9201640 127.1904410 137.7123140  93.7356660 126.9733650
 128.8509140  99.5141820 132.7713940 129.3687810  98.7110080 132.7170830
 128.3993160  99.4520960 133.6130770 133.7378640 100.7808100 128.0441240
 134.0794340 101.5250330 127.5484560 132.9091350 101.0939220 128.4066070
 126.3353680  96.4803190 139.6839640 125.9768620  97.1457040 140.2712980
 126.0408240  95.6486740 140.0552260 129.5366800  96.9387430 142.5679190
 129.2366940  97.0844610 141.6707010 130.3078040  96.3792720 142.4752580
 134.8795250 101.7356430 140.5634320 134.8939790 100.8037390 140.3453230
 134.1720350 101.8216190 141.2024090 140.0132320  95.9196250 126.8332930
 139.9296040  96.3510470 125.9829370 140.7326510  96.3794600 127.2659750
 141.0906460  98.3763770 139.9102900 140.3654650  98.9692550 139.7132290
 141.6181920  98.3687310 139.1116270 141.0419570 102.7738510 129.5615060
 140.3995730 102.1194130 129.8358780 140.6550230 103.1793600 128.7855730
 136.6206050 100.1023940 133.4086750 136.9729870  99.5052070 132.7488120
 135.7368380  99.7768170 133.5795000 132.7069330 100.8621630 130.8157160
 133.3940460 101.4090840 131.1964750 131.9201750 101.4062360 130.8506770
 124.8461730  96.4794450 126.3074240 125.7156580  96.7619250 126.5910160
 124.3552050  97.2930320 126.1923050 132.0096540  97.8667660 130.4282520
 132.4659320  98.6772910 130.6542710 131.6584750  97.5490800 131.2601010
 134.3129150 103.3774000 137.6574820 134.9571370 103.5833380 138.3348240
 134.6758590 102.6162400 137.2045670 127.9108320  88.2105310 130.9005040
 127.7822950  88.2023210 131.8489960 127.0870340  88.5488400 130.5496050
 135.5861230 101.3806350 136.3752270 136.2283460 100.6799510 136.4884440
 136.1110580 102.1604790 136.1949160 139.4316950 101.6654970 126.0991410
 139.2054530 100.9485410 126.6916050 139.0413150 101.4167410 125.2613160
 137.3598850 102.1801250 139.5788330 137.6955090 102.7667940 140.2566250
 136.4399190 102.0493960 139.8086120 125.2132980 105.6921830 126.8735870
 125.5730620 106.2911170 126.2193140 125.0725320 106.2381720 127.6470900
 124.9102250  89.9696430 140.3611740 124.1960770  90.1693350 140.9664350
 125.3297290  89.1936000 140.7326540 139.0133200  99.5826910 127.7605570
 138.7254900 100.0439600 128.5483450 139.8085370  99.1224680 128.0289790
 125.1974840 103.9576690 141.3478270 125.3065960 103.0171430 141.2073660
 124.5455400 104.2231440 140.6992000 133.1887430 102.2292580 142.7476390
 132.8684300 101.5101820 143.2922080 132.5145790 102.9047650 142.8212450
 131.2301600 103.0753030 127.6909540 131.2211700 103.8082720 127.0754050
 130.3099960 102.8284610 127.7836500 126.8308240  98.2967920 128.4356300
 126.2236190  99.0366820 128.4451600 127.3057590  98.3867280 127.6094500
 136.4041030  92.4618740 138.1113190 136.7721850  91.6413950 138.4392760
 135.5439230  92.5220630 138.5268840 139.7703060  91.4175680 128.9200750
 139.1416220  91.5221350 128.2058980 139.2754980  91.6372460 129.7094630
 134.2161200 103.1381270 126.3534730 134.3173180 102.9345260 125.4236710
 133.3162940 102.8839550 126.5582510 131.7387090  93.6961630 130.3358630
 131.0303240  94.1647970 130.7772240 132.0231570  93.0383640 130.9703820
 133.3643020  95.1158330 138.3351160 133.8628270  95.5904150 139.0003010
 133.5065970  94.1921850 138.5421190 135.7702520  90.4212290 131.7754420
 135.6470300  90.4398420 130.8263930 136.7187080  90.4691230 131.8952820
 132.8579310 105.6567590 131.0482400 133.1120810 105.6188980 130.1261770
 131.9091790 105.5300920 131.0410650 129.9422110  92.0046710 127.7109340
 130.7912640  92.4416860 127.6449530 129.5753380  92.3166970 128.5381400
 140.5709880  91.3326290 139.1779550 140.0683480  92.0731690 139.5173360
 141.3866540  91.7210290 138.8616340 138.8631890  96.5759470 132.6240910
 137.9222030  96.5909700 132.7988600 139.1775960  95.7895430 133.0701210
 128.8413530  98.2579070 126.1844870 129.6076800  98.1460430 126.7470300
 128.9188220  97.5617040 125.5321640 127.5360290  95.6904140 126.8677760
 127.6163880  94.7431650 126.9795160 128.4280040  96.0211020 126.9738420
 140.8657470 103.7468320 134.2995170 140.9904890 104.5699490 134.7718980
 141.7323030 103.5359050 133.9519320 128.3375000 105.8399530 133.9712300
 129.0737480 105.2914990 134.2420870 128.7215920 106.7055540 133.8318290
 125.2220480 101.9073100 129.8453810 124.2960260 102.1494240 129.8359220
 125.6876910 102.7347360 129.7238560 127.3433280 105.0245600 143.1597880
 128.1446010 105.3457650 143.5733280 126.8285100 104.6641180 143.8817790
 131.4477310 105.0129840 125.7937870 132.2405920 105.3018670 125.3419660
 130.9281660 104.5822010 125.1150350 136.1797910 101.1325470 143.1073290
 135.5736070 101.1557070 142.3669040 135.8752020 100.4008510 143.6440540
 137.6098280 104.8605760 141.7182700 138.5620030 104.7763780 141.6682940
 137.4626500 105.5247470 142.3916490 140.5007480 104.2399970 127.2174610
 140.2148990 103.8265110 126.4028790 140.3027030 105.1687680 127.0975130
 125.0631090  97.5119060 142.1033930 125.5670110  96.9326340 142.6750160
 124.3238510  97.7959290 142.6410300 131.9654710 100.2333250 125.6580220
 131.8605350  99.6185600 126.3841600 131.7978930  99.7099140 124.8743230
 132.1169030  98.9190050 141.6369450 131.3514700  99.4875050 141.5524120
 132.2984990  98.6266260 140.7437680 135.2057440  99.2953280 126.2622210
 134.6567540  99.7422580 126.9064950 135.8276700  98.7902530 126.7859880
 139.2592380 100.6495380 142.1944470 140.0001850 100.9871140 141.6911930
 138.4965060 100.8187440 141.6414240 127.0954170  95.6548650 142.9984000
 127.1359510  95.3562520 143.9069230 127.9499670  96.0556260 142.8391520
 130.8732560  98.2544200 128.1587510 131.2948980  98.0884070 129.0018900
 130.9983400  97.4444430 127.6642650 129.0359980  94.2340750 140.9658490
 128.5056440  93.7431700 140.3381830 129.7048050  94.6624950 140.4316420
 133.3860200  97.2781810 125.4064610 133.9065860  96.5630830 125.0405760
 134.0328600  97.9167680 125.7065120 137.9338040  98.7010210 140.7299680
 138.3479060  98.8555290 141.5790100 136.9989040  98.8265430 140.8925460
 138.4060210  96.0406370 142.7338830 138.9880980  95.2858690 142.6459310
 138.5821980  96.5713810 141.9570310 129.5232280  91.2003120 141.0455780
 129.4289150  90.5823870 140.3206650 128.9429670  91.9269410 140.8185690
 132.2893720  89.7576360 138.0783170 131.8411020  89.7800620 137.2328720
 131.6558920  89.3595380 138.6753470 132.6953270  98.6530690 138.6995610
 133.1141380  99.4963420 138.5271850 131.7761900  98.7902730 138.4702390
 135.0317170  96.3846870 140.0833450 135.1513380  95.7888010 140.8228290
 135.8911170  96.4216560 139.6634750 137.3705070  96.9384060 138.6595960
 136.8440290  97.4626680 138.0561100 137.7136410  97.5711450 139.2905690
 129.7691460  94.3277430 125.1045670 129.5680520  93.4644790 125.4659010
 129.5983510  94.2410790 124.1667270 130.5460690 104.9583700 139.8153340
 130.0081780 105.6829760 139.4962040 130.7994650 104.4814040 139.0250680
 131.7985940  92.9268220 141.3409270 132.3885630  92.6184070 142.0287090
 130.9806180  92.4547970 141.4969170 136.6179370  92.5434030 141.5742290
 135.9294890  91.8815570 141.5092280 137.3385390  92.0972300 142.0190750
 137.2479770  89.1385660 127.6332550 137.5282060  88.2953560 127.9891970
 136.4745500  89.3708770 128.1471300 128.5674260  91.4278050 125.0923550
 128.8700160  91.4345480 124.1842700 129.3068850  91.0775910 125.5891210
 133.4022900 106.1934910 140.0739990 133.3281600 107.0970050 140.3812360
 132.5001740 105.8746810 140.0462060 131.7859190  90.3712670 126.0779750
 131.4381190  89.6936660 125.4982200 131.9871960  89.9102180 126.8923140
 133.9508230 105.3593420 127.6966350 134.8459020 105.6978390 127.7185110
 133.9825860 104.6372830 127.0690630 127.5904390 100.7320470 125.9253350
 128.0279260 101.2750140 126.5810930 128.0752120  99.9067420 125.9349690
 124.8050190 103.5209500 133.3773610 125.1353200 102.6530560 133.1452250
 125.2341190 103.7268020 134.2078570 129.4012110 101.8518510 131.0375580
 129.1007650 101.7283480 131.9379490 129.2949600 100.9927100 130.6291310
 125.2940400 104.3880090 136.1155240 124.8571390 104.5680890 136.9479390
 125.8618080 105.1454710 135.9736960 140.9302580 103.8897090 140.4032550
 140.3304570 103.9489650 139.6596470 141.0596480 102.9502070 140.5329400
 142.1704030 101.6314910 125.7402260 141.3396990 101.6991560 126.2109490
 142.3475860 102.5219030 125.4369120 141.6260490  98.3762390 128.2436460
 142.3879400  98.9459040 128.3496150 141.6414860  97.8089590 129.0144770
 125.1264830  96.9000320 132.4744120 124.4713670  96.6311960 131.8303820
 125.9642780  96.7904800 132.0246100 142.6320460  99.2312490 133.0878390
 143.0029290  98.4479810 132.6814360 143.2722390  99.9201590 132.9095690
 139.6154220 100.6149070 138.5008710 138.8014060 101.0446230 138.7634500
 140.0228420 101.2267480 137.8877760 141.6779660  98.6696760 125.4008980
 141.9528500  99.5775640 125.2728200 141.4890400  98.6059290 126.3370970
 138.0755270  91.6941610 126.6962610 138.4940150  91.5072590 125.8559270
 137.7691330  90.8420660 127.0065540 141.5745000  96.6065750 130.3938410
 141.1988600  95.8393680 129.9619700 140.8448120  96.9888450 130.8813340
 126.1640760  97.2852890 137.0147460 126.5313800  97.1980290 137.8943480
 125.5951580  96.5219440 136.9154320 140.9644620  95.7537270 140.0277930
 140.7330710  95.5250020 139.1275880 141.2249170  96.6736820 139.9822820
 125.7156760  94.1961980 140.9205880 124.8212810  94.1628740 141.2599590
 126.2554310  94.3948770 141.6857130 139.4032690  90.9793700 142.8057630
 140.2802870  90.9877100 143.1891630 139.4153530  90.2424540 142.1949980
 124.3402910  94.1099250 128.4169450 123.4366990  94.3729450 128.2421110
 124.8243530  94.3810420 127.6369410 140.8495960  94.8323240 133.6945650
 141.3733440  94.3385890 133.0635820 141.4355380  94.9673600 134.4393220
 141.0285680  94.9163110 137.2165200 140.0788390  94.8826650 137.3310190
 141.2098690  95.8263220 136.9814970 126.8830120  93.1664790 126.3263830
 127.5921820  92.7448010 125.8411110 126.1670060  93.2340020 125.6947180
 126.5304280  89.2204120 125.3666480 127.2532410  89.7613060 125.6847700
 126.8028800  88.9467540 124.4908020 140.3395930  94.0896590 129.6338060
 140.8355050  93.8567460 130.4186940 140.1412000  93.2508430 129.2175700
 126.2196470  88.4710310 135.2689100 126.8672660  87.9207690 134.8284260
 126.6398310  88.7253460 136.0904910 141.7683090  92.7257540 132.1675740
 141.6582370  92.5713580 133.1058010 142.5290680  92.1978480 131.9251150
 140.1148810  88.6651670 138.6258740 140.7521030  89.2785810 138.9917930
 140.2623700  88.7012330 137.6807970 142.6573360  90.5565460 125.4081880
 143.5822670  90.4246640 125.2000170 142.6349150  90.6358280 126.3618330
 142.7311850  91.3276120 128.0338590 141.9363350  91.2621240 128.5631500
 142.9355130  92.2626760 128.0223940 139.6730270 105.3667670 132.0276980
 140.2689340 105.0452240 131.3511400 139.9308420 104.8939490 132.8190250
 125.9728470  88.6265980 138.0114420 125.6243290  89.0829800 138.7772600
 125.6416170  87.7323110 138.0936850 127.5792840 101.7985580 142.1767610
 127.5362470 101.4278490 143.0582070 127.7103850 102.7363150 142.3169430
 131.2798870 103.3545170 137.7777330 131.0390230 103.6219730 136.8907850
 132.2201510 103.5250900 137.8328190 133.4853290  89.8177860 141.5333840
 133.4242180  90.4099690 142.2829250 134.4253670  89.7103820 141.3884100
 136.1227850  89.4747920 141.1726130 136.7368260  89.7927210 140.5107210
 136.6677410  88.9896510 141.7921990 142.5403030 105.3739550 138.5787970
 142.0461310 105.7708420 137.8615100 141.9316320 104.7488760 138.9725250
 126.6449110  88.1542180 141.2865190 127.1932100  87.9730230 140.5231300
 126.7104420  87.3636290 141.8221500 127.4180870 104.7447830 139.2965390
 126.8241190 104.6132530 140.0355430 127.4104710 103.9085970 138.8307490
 136.8635890  88.0380060 137.4995420 135.9895730  88.3715170 137.2968350
 136.7546640  87.5653240 138.3247290 137.7707870  90.2450930 138.8837140
 137.4421230  89.4302690 138.5038870 138.7190170  90.2020740 138.7602830
 140.2242480 106.0162970 135.8574710 139.7645450 106.7678780 135.4832730
 139.5954940 105.2969440 135.7989510 127.0493100 102.1106210 138.2473430
 126.3227160 101.4911500 138.1799380 127.1102250 102.5046820 137.3771510
 130.6538200 104.3251210 135.0322840 131.1703220 103.7138570 134.5071100
 131.3035580 104.8279990 135.5233850 133.3933700 105.2159700 135.8591820
 133.6811510 104.9614000 134.9824830 133.9056920 104.6637060 136.4497390
 134.6110710  88.9549900 136.4388330 133.8282500  89.4295400 136.7185090
 134.3173640  88.0504730 136.3301510 139.1631780  89.6573000 134.4837420
 139.6039870  89.6018100 133.6359020 138.8939370  90.5731010 134.5547600
 141.0270350  89.2888240 132.4946240 140.9658750  88.3449460 132.3477260
 141.8062380  89.3968330 133.0399700 125.3323100 105.4280600 131.4570190
 125.1645140 104.7951280 132.1552080 124.4657610 105.6340000 131.1064380
 125.9551120  89.2597380 128.9602050 126.7130480  89.3726260 128.3866080
 125.4928290  90.0966580 128.9145480 132.4964930  91.3736650 131.9504360
 131.6839440  90.9993540 131.6100240 133.0006570  90.6181730 132.2525550
 136.9989910  88.0379100 133.1887430 137.6019280  88.6099310 133.6635950
 136.2582900  88.6018540 132.9661330 140.1424510  88.4400660 128.4627710
 140.3375140  89.3384110 128.7295140 139.3554380  88.2087740 128.9560660
 126.9385800 104.1213830 128.9020330 126.4133420 104.5021860 128.1982290
 126.8630380 104.7464600 129.6230040 128.3276270  89.7861430 127.5004020
 128.8569030  88.9991230 127.3711970 128.9604590  90.4652620 127.7339550
 130.5214110  89.5236570 130.5549410 129.8916850  88.8223880 130.7219540
 129.9819250  90.2840700 130.3382570 133.4606060 106.1375800 143.2260020
 134.3873370 105.9020070 143.2695980 133.4456490 106.9647800 142.7446050
 141.6951120 105.6801370 130.2234270 141.8703310 104.9939110 129.5795190
 140.9972690 106.2048420 129.8310940 130.6469670  88.8020550 142.9901900
 130.3653940  89.3054150 142.2262720 131.0289370  88.0042300 142.6244030
 129.5378770 106.0696210 127.7769580 130.2697590 105.7855490 127.2293470
 129.7972440 105.8309490 128.6668960 128.6993560 102.1860940 127.7815910
 128.0702440 102.6546040 128.3301740 128.8141390 101.3410160 128.2162100
 137.2485130  88.2174130 143.5682370 137.1350580  88.5368740 144.4633890
 138.0654870  88.6186640 143.2719650 140.0283620 105.3645660 143.0501060
 140.8208940 104.8694890 142.8427020 140.3216770 106.0435800 143.6576670
 136.1543280  96.2366600 113.9317110 136.0737330  95.3221210 113.6608820
 135.7407700  96.7333670 113.2256820 134.2861320  98.0145620 115.8126380
 133.5103420  97.5346060 116.1024950 134.9374250  97.3351270 115.6382540
 128.3027150  98.3265430 116.6902140 127.4712030  98.0714140 117.0898650
 128.9108130  98.3976200 117.4260060 138.3068750 102.4205810 114.5925510
 137.8450280 101.6493050 114.9212680 139.1194300 102.4471880 115.0977960
 128.2828410 102.3605520 116.8860160 128.5856450 101.4703260 116.7070380
 129.0272000 102.9175740 116.6582410 134.5332060 104.7063820 114.2129500
 133.9143500 105.1621320 113.6423940 135.3883840 104.8615280 113.8119200
 133.7270310 100.6902810 115.8196540 133.6578590  99.7492750 115.6585670
 134.4890170 100.7804220 116.3919110 134.7575480  93.4973190 116.0465470
 135.1340300  92.6245070 115.9339140 134.6594990  93.8331890 115.1555910
 138.5399600  90.9923630 112.9793810 139.3609220  90.5020200 113.0219290
 138.5733680  91.5821290 113.7325650 130.7288220  94.8385190 115.8408090
 131.2366440  95.3366160 116.4813110 131.2601460  94.0620390 115.6647450
 142.8299150  93.0090380 119.5437440 142.1251320  93.3972090 119.0252550
 143.0957070  93.7040670 120.1458370 135.3995410  99.5903060 111.6061410
 134.7812680 100.0552510 111.0424130 135.9118660 100.2830540 112.0230920
 130.2627170  99.1178930 118.2845010 129.9296550  99.7447850 118.9266080
 130.4393850  99.6440810 117.5046680 138.7761080  92.9324010 115.7521350
 138.0716650  93.2208900 116.3324460 139.1373240  93.7424120 115.3920910
 129.4746270 101.0859730 120.0994190 130.0920270 101.7610810 119.8178640
 128.6139390 101.4947710 120.0081690 140.3923860 102.5499140 118.0148830
 139.7087380 103.2198250 118.0065500 140.9318150 102.7479790 117.2493690
 141.8448000  92.3778800 116.1430560 140.8972910  92.4117780 116.2745990
 142.1697990  93.1917750 116.5279920 137.9282600 104.3943270 116.7294010
 137.9409760 103.9905560 115.8616270 137.3757820 105.1690560 116.6255440
 139.2228020 101.1159490 111.8184180 139.1124350 100.1733820 111.9433600
 139.2196270 101.4775130 112.7046940 137.3268040  99.2973110 118.0576620
 137.7436830  99.0833220 117.2230080 138.0507860  99.5545900 118.6285240
 134.7648300  96.7424810 111.1746670 133.8377580  96.6762190 111.4035140
 134.9173120  97.6804940 111.0601910 141.2730140  97.6960330 118.1492860
 140.4448770  97.7653420 117.6742990 141.8680620  98.2814640 117.6808690
 138.7945590  98.3045110 111.6781920 138.1758010  97.9664660 111.0308220
 138.7770040  97.6604870 112.3861110 138.2372150  94.4829650 119.0947730
 137.8243330  95.3083360 119.3487720 137.5048100  93.8974690 118.9024090
 130.3704940  97.2689550 113.9566400 129.9661940  96.5566800 113.4612300
 130.4568060  96.9242790 114.8454440 130.8386640 100.9557110 116.1205610
 130.5414930 100.3502580 115.4413390 131.7886460 100.9934420 116.0094970
 138.9272250 104.5288980 119.7828710 138.4502810 105.3361170 119.5901320
 138.2434040 103.8767310 119.9354920 129.9305070 100.6938800 122.7713410
 129.0333600 100.9178770 123.0186810 129.9557940 100.8173740 121.8224810
 136.9710290  97.5431920 108.6854670 137.4103570  96.7054350 108.5392490
 137.6838710  98.1761320 108.7718810 128.7576290  97.5652120 121.3470780
 128.6184060  98.4374920 121.7158180 127.8757650  97.2224930 121.2018720
 135.0805670 102.4827990 112.6535910 135.5201580 103.2252320 112.2391300
 135.0192560 102.7254560 113.5774870 130.5556640 103.5073820 123.5555930
 130.5272070 103.9116770 122.6884360 130.3921610 102.5784180 123.3927530
 140.5527430  88.7974730 106.9995710 140.2400090  88.8901560 107.8994780
 141.3139900  89.3755760 106.9493140 142.5071460 104.2900920 124.8520100
 142.9831180 104.7683810 125.5309180 143.1278620 104.2218410 124.1265600
 124.7094940  99.3349670 117.2641690 124.7875360  99.4698440 116.3197410
 125.3236620  98.6265560 117.4569810 141.9104710 101.4813770 122.0120110
 142.0367770 101.2425650 121.0937290 141.9526090 100.6498310 122.4842190
 135.7721450 105.1841770 120.5814920 136.2866120 105.0949780 121.3837350
 134.9290530 105.5301470 120.8742830 137.7475850 105.4697110 110.0098920
 137.5876990 105.1800050 110.9080750 137.5822560 104.6937240 109.4744150
 130.2264230 105.2495640 111.7870540 130.0506710 104.3331180 111.5738340
 129.3719970 105.6082930 112.0268340 137.4501980 102.9784670 108.5696920
 136.7567140 102.9761960 107.9099200 138.1924840 102.5543990 108.1391090
 137.0151910 104.6047380 112.6445410 137.4708860 103.8236760 112.9584030
 137.3544430 105.3154200 113.1886590 141.7628720  93.5346230 122.9769850
 141.1472990  94.0425900 122.4485310 141.4425140  92.6344560 122.9195790
 124.7654460 100.3763840 119.8036150 124.9285500  99.9069200 118.9855520
 125.2306910  99.8687400 120.4684990 133.8243040  92.3738120 120.4432040
 133.3622410  92.5821140 121.2551980 133.4221150  91.5597470 120.1402710
 138.8247550  93.5947070 121.5728700 137.9741140  93.2952820 121.8937770
 138.6649340  93.8389080 120.6612520 135.9197260  95.0948820 123.6727490
 136.2450670  94.2612570 123.3329720 136.7077590  95.6177340 123.8205820
 129.3287450  94.6303170 112.5677970 129.1028370  94.4140340 113.4724590
 128.5479980  95.0631630 112.2223940 136.5585210  94.6366540 111.1668620
 135.9594100  95.3602340 110.9832240 137.1064820  94.5743320 110.3845070
 131.7686660  95.5288750 123.2338240 131.6730260  94.5883480 123.0838640
 132.6118640  95.7503820 122.8386310 135.1650080  93.2730080 113.1971900
 135.5579650  93.5902280 112.3840590 135.5266930  92.3941960 113.3116420
 133.4742250  92.0237390 124.4568760 132.7840570  91.8309590 125.0914850
 134.2174550  92.3072030 124.9893060 135.7505220  95.8635830 117.2922680
 135.0186340  96.3722640 117.6412780 135.3529560  95.0465810 116.9911460
 132.1882610  92.5390030 115.6975170 132.1918670  92.0979980 114.8479710
 133.0833730  92.8607360 115.8046990 136.2131130  91.3169510 116.7045620
 136.2303870  91.7678160 117.5487470 135.9646710  90.4175150 116.9179060
 139.6401880  88.7301690 122.5432000 139.9647650  87.9991350 123.0689980
 139.6758390  88.4115330 121.6412990 126.3393440  99.7515270 121.9631960
 125.9548230  99.1108940 122.5614920 126.6505630 100.4551390 122.5326690
 132.4890580  96.5991810 117.4440580 132.8560710  96.1250380 118.1901920
 132.2995640  97.4733380 117.7848920 125.3531070  91.3435500 113.5734050
 125.0677990  90.9791170 114.4112670 125.2909930  90.6115960 112.9597190
 130.2789950  95.6400450 119.7624790 129.9747020  96.5192430 119.9875150
 131.2336410  95.7000240 119.7982230 139.5659720  98.8426800 116.1518030
 140.2858840  99.3382090 115.7614140 139.3641540  98.1644690 115.5071900
 134.9478520  98.9135860 122.0387030 134.8815830  97.9931530 121.7844620
 134.3183660  99.0111300 122.7531670 137.7418050  94.6084410 108.5909580
 138.6297670  94.9201640 108.4160920 137.7123140  93.7356660 108.1990160
 133.7378640 100.7808100 109.2697750 134.0794340 101.5250330 108.7741070
 132.9091350 101.0939220 109.6322580 126.3353680  96.4803190 120.9096150
 125.9768620  97.1457040 121.4969490 126.0408240  95.6486740 121.2808770
 129.5366800  96.9387430 123.7935700 129.2366940  97.0844610 122.8963520
 130.3078040  96.3792720 123.7009090 134.8795250 101.7356430 121.7890830
 134.8939790 100.8037390 121.5709740 134.1720350 101.8216190 122.4280600
 140.0132320  95.9196250 108.0589440 139.9296040  96.3510470 107.2085880
 140.7326510  96.3794600 108.4916260 141.0906460  98.3763770 121.1359410
 140.3654650  98.9692550 120.9388800 141.6181920  98.3687310 120.3372780
 141.0419570 102.7738510 110.7871570 140.3995730 102.1194130 111.0615290
 140.6550230 103.1793600 110.0112240 136.6206050 100.1023940 114.6343260
 136.9729870  99.5052070 113.9744630 135.7368380  99.7768170 114.8051510
 132.7069330 100.8621630 112.0413670 133.3940460 101.4090840 112.4221260
 131.9201750 101.4062360 112.0763280 134.3129150 103.3774000 118.8831330
 134.9571370 103.5833380 119.5604750 134.6758590 102.6162400 118.4302180
 135.5861230 101.3806350 117.6008780 136.2283460 100.6799510 117.7140950
 136.1110580 102.1604790 117.4205670 139.4316950 101.6654970 107.3247920
 139.2054530 100.9485410 107.9172560 139.0413150 101.4167410 106.4869670
 137.3598850 102.1801250 120.8044840 137.6955090 102.7667940 121.4822760
 136.4399190 102.0493960 121.0342630 139.0133200  99.5826910 108.9862080
 138.7254900 100.0439600 109.7739960 139.8085370  99.1224680 109.2546300
 125.1974840 103.9576690 122.5734780 125.3065960 103.0171430 122.4330170
 124.5455400 104.2231440 121.9248510 133.1887430 102.2292580 123.9732900
 132.8684300 101.5101820 124.5178590 132.5145790 102.9047650 124.0468960
 136.4041030  92.4618740 119.3369700 136.7721850  91.6413950 119.6649270
 135.5439230  92.5220630 119.7525350 139.7703060  91.4175680 110.1457260
 139.1416220  91.5221350 109.4315490 139.2754980  91.6372460 110.9351140
 134.2161200 103.1381270 107.5791240 134.3173180 102.9345260 106.6493220
 133.3162940 102.8839550 107.7839020 133.3643020  95.1158330 119.5607670
 133.8628270  95.5904150 120.2259520 133.5065970  94.1921850 119.7677700
 135.7702520  90.4212290 113.0010930 135.6470300  90.4398420 112.0520440
 136.7187080  90.4691230 113.1209330 132.8579310 105.6567590 112.2738910
 133.1120810 105.6188980 111.3518280 131.9091790 105.5300920 112.2667160
 140.5709880  91.3326290 120.4036060 140.0683480  92.0731690 120.7429870
 141.3866540  91.7210290 120.0872850 138.8631890  96.5759470 113.8497420
 137.9222030  96.5909700 114.0245110 139.1775960  95.7895430 114.2957720
 140.8657470 103.7468320 115.5251680 140.9904890 104.5699490 115.9975490
 141.7323030 103.5359050 115.1775830 128.3375000 105.8399530 115.1968810
 129.0737480 105.2914990 115.4677380 128.7215920 106.7055540 115.0574800
 127.3433280 105.0245600 124.3854390 128.1446010 105.3457650 124.7989790
 126.8285100 104.6641180 125.1074300 136.1797910 101.1325470 124.3329800
 135.5736070 101.1557070 123.5925550 135.8752020 100.4008510 124.8697050
 137.6098280 104.8605760 122.9439210 138.5620030 104.7763780 122.8939450
 137.4626500 105.5247470 123.6173000 140.5007480 104.2399970 108.4431120
 140.2148990 103.8265110 107.6285300 140.3027030 105.1687680 108.3231640
 125.0631090  97.5119060 123.3290440 125.5670110  96.9326340 123.9006670
 124.3238510  97.7959290 123.8666810 132.1169030  98.9190050 122.8625960
 131.3514700  99.4875050 122.7780630 132.2984990  98.6266260 121.9694190
 135.2057440  99.2953280 107.4878720 134.6567540  99.7422580 108.1321460
 135.8276700  98.7902530 108.0116390 139.2592380 100.6495380 123.4200980
 140.0001850 100.9871140 122.9168440 138.4965060 100.8187440 122.8670750
 127.0954170  95.6548650 124.2240510 127.1359510  95.3562520 125.1325740
 127.9499670  96.0556260 124.0648030 129.0359980  94.2340750 122.1915000
 128.5056440  93.7431700 121.5638340 129.7048050  94.6624950 121.6572930
 133.3860200  97.2781810 106.6321120 133.9065860  96.5630830 106.2662270
 134.0328600  97.9167680 106.9321630 137.9338040  98.7010210 121.9556190
 138.3479060  98.8555290 122.8046610 136.9989040  98.8265430 122.1181970
 138.4060210  96.0406370 123.9595340 138.9880980  95.2858690 123.8715820
 138.5821980  96.5713810 123.1826820 129.5232280  91.2003120 122.2712290
 129.4289150  90.5823870 121.5463160 128.9429670  91.9269410 122.0442200
 132.2893720  89.7576360 119.3039680 131.8411020  89.7800620 118.4585230
 131.6558920  89.3595380 119.9009980 132.6953270  98.6530690 119.9252120
 133.1141380  99.4963420 119.7528360 131.7761900  98.7902730 119.6958900
 135.0317170  96.3846870 121.3089960 135.1513380  95.7888010 122.0484800
 135.8911170  96.4216560 120.8891260 137.3705070  96.9384060 119.8852470
 136.8440290  97.4626680 119.2817610 137.7136410  97.5711450 120.5162200
 130.5460690 104.9583700 121.0409850 130.0081780 105.6829760 120.7218550
 130.7994650 104.4814040 120.2507190 131.7985940  92.9268220 122.5665780
 132.3885630  92.6184070 123.2543600 130.9806180  92.4547970 122.7225680
 136.6179370  92.5434030 122.7998800 135.9294890  91.8815570 122.7348790
 137.3385390  92.0972300 123.2447260 137.2479770  89.1385660 108.8589060
 137.5282060  88.2953560 109.2148480 136.4745500  89.3708770 109.3727810
 128.5674260  91.4278050 106.3180060 128.8700160  91.4345480 105.4099210
 129.3068850  91.0775910 106.8147720 133.4022900 106.1934910 121.2996500
 133.3281600 107.0970050 121.6068870 132.5001740 105.8746810 121.2718570
 133.9508230 105.3593420 108.9222860 134.8459020 105.6978390 108.9441620
 133.9825860 104.6372830 108.2947140 125.2940400 104.3880090 117.3411750
 124.8571390 104.5680890 118.1735900 125.8618080 105.1454710 117.1993470
 140.9302580 103.8897090 121.6289060 140.3304570 103.9489650 120.8852980
 141.0596480 102.9502070 121.7585910 142.1704030 101.6314910 106.9658770
 141.3396990 101.6991560 107.4366000 142.3475860 102.5219030 106.6625630
 141.6260490  98.3762390 109.4692970 142.3879400  98.9459040 109.5752660
 141.6414860  97.8089590 110.2401280 142.6320460  99.2312490 114.3134900
 143.0029290  98.4479810 113.9070870 143.2722390  99.9201590 114.1352200
 139.6154220 100.6149070 119.7265220 138.8014060 101.0446230 119.9891010
 140.0228420 101.2267480 119.1134270 141.6779660  98.6696760 106.6265490
 141.9528500  99.5775640 106.4984710 141.4890400  98.6059290 107.5627480
 138.0755270  91.6941610 107.9219120 138.4940150  91.5072590 107.0815780
 137.7691330  90.8420660 108.2322050 141.5745000  96.6065750 111.6194920
 141.1988600  95.8393680 111.1876210 140.8448120  96.9888450 112.1069850
 126.1640760  97.2852890 118.2403970 126.5313800  97.1980290 119.1199990
 125.5951580  96.5219440 118.1410830 140.9644620  95.7537270 121.2534440
 140.7330710  95.5250020 120.3532390 141.2249170  96.6736820 121.2079330
 125.7156760  94.1961980 122.1462390 124.8212810  94.1628740 122.4856100
 126.2554310  94.3948770 122.9113640 139.4032690  90.9793700 124.0314140
 140.2802870  90.9877100 124.4148140 139.4153530  90.2424540 123.4206490
 140.8495960  94.8323240 114.9202160 141.3733440  94.3385890 114.2892330
 141.4355380  94.9673600 115.6649730 141.0285680  94.9163110 118.4421710
 140.0788390  94.8826650 118.5566700 141.2098690  95.8263220 118.2071480
 126.8830120  93.1664790 107.5520340 127.5921820  92.7448010 107.0667620
 126.1670060  93.2340020 106.9203690 126.5304280  89.2204120 106.5922990
 127.2532410  89.7613060 106.9104210 126.8028800  88.9467540 105.7164530
 140.3395930  94.0896590 110.8594570 140.8355050  93.8567460 111.6443450
 140.1412000  93.2508430 110.4432210 141.7683090  92.7257540 113.3932250
 141.6582370  92.5713580 114.3314520 142.5290680  92.1978480 113.1507660
 140.1148810  88.6651670 119.8515250 140.7521030  89.2785810 120.2174440
 140.2623700  88.7012330 118.9064480 142.6573360  90.5565460 106.6338390
 143.5822670  90.4246640 106.4256680 142.6349150  90.6358280 107.5874840
 142.7311850  91.3276120 109.2595100 141.9363350  91.2621240 109.7888010
 142.9355130  92.2626760 109.2480450 139.6730270 105.3667670 113.2533490
 140.2689340 105.0452240 112.5767910 139.9308420 104.8939490 114.0446760
 127.5792840 101.7985580 123.4024120 127.5362470 101.4278490 124.2838580
 127.7103850 102.7363150 123.5425940 131.2798870 103.3545170 119.0033840
 131.0390230 103.6219730 118.1164360 132.2201510 103.5250900 119.0584700
 133.4853290  89.8177860 122.7590350 133.4242180  90.4099690 123.5085760
 134.4253670  89.7103820 122.6140610 136.1227850  89.4747920 122.3982640
 136.7368260  89.7927210 121.7363720 136.6677410  88.9896510 123.0178500
 142.5403030 105.3739550 119.8044480 142.0461310 105.7708420 119.0871610
 141.9316320 104.7488760 120.1981760 126.6449110  88.1542180 122.5121700
 127.1932100  87.9730230 121.7487810 126.7104420  87.3636290 123.0478010
 127.4180870 104.7447830 120.5221900 126.8241190 104.6132530 121.2611940
 127.4104710 103.9085970 120.0564000 136.8635890  88.0380060 118.7251930
 135.9895730  88.3715170 118.5224860 136.7546640  87.5653240 119.5503800
 137.7707870  90.2450930 120.1093650 137.4421230  89.4302690 119.7295380
 138.7190170  90.2020740 119.9859340 140.2242480 106.0162970 117.0831220
 139.7645450 106.7678780 116.7089240 139.5954940 105.2969440 117.0246020
 127.0493100 102.1106210 119.4729940 126.3227160 101.4911500 119.4055890
 127.1102250 102.5046820 118.6028020 130.6538200 104.3251210 116.2579350
 131.1703220 103.7138570 115.7327610 131.3035580 104.8279990 116.7490360
 133.3933700 105.2159700 117.0848330 133.6811510 104.9614000 116.2081340
 133.9056920 104.6637060 117.6753900 134.6110710  88.9549900 117.6644840
 133.8282500  89.4295400 117.9441600 134.3173640  88.0504730 117.5558020
 139.1631780  89.6573000 115.7093930 139.6039870  89.6018100 114.8615530
 138.8939370  90.5731010 115.7804110 141.0270350  89.2888240 113.7202750
 140.9658750  88.3449460 113.5733770 141.8062380  89.3968330 114.2656210
 136.9989910  88.0379100 114.4143940 137.6019280  88.6099310 114.8892460
 136.2582900  88.6018540 114.1917840 140.1424510  88.4400660 109.6884220
 140.3375140  89.3384110 109.9551650 139.3554380  88.2087740 110.1817170
 133.4606060 106.1375800 124.4516530 134.3873370 105.9020070 124.4952490
 133.4456490 106.9647800 123.9702560 141.6951120 105.6801370 111.4490780
 141.8703310 104.9939110 110.8051700 140.9972690 106.2048420 111.0567450
 130.6469670  88.8020550 124.2158410 130.3653940  89.3054150 123.4519230
 131.0289370  88.0042300 123.8500540 137.2485130  88.2174130 124.7938880
 137.1350580  88.5368740 125.6890400 138.0654870  88.6186640 124.4976160
 140.0283620 105.3645660 124.2757570 140.8208940 104.8694890 124.0683530
 140.3216770 106.0435800 124.8833180 136.1543280  96.2366600  95.1573620
 136.0737330  95.3221210  94.8865330 135.7407700  96.7333670  94.4513330
 134.2861320  98.0145620  97.0382890 133.5103420  97.5346060  97.3281460
 134.9374250  97.3351270  96.8639050 128.3027150  98.3265430  97.9158650
 127.4712030  98.0714140  98.3155160 128.9108130  98.3976200  98.6516570
 138.3068750 102.4205810  95.8182020 137.8450280 101.6493050  96.1469190
 139.1194300 102.4471880  96.3234470 138.5399600  90.9923630  94.2050320
 139.3609220  90.5020200  94.2475800 138.5733680  91.5821290  94.9582160
 126.5363650  93.7917830  97.9792010 127.2173760  94.0556200  98.5979410
 126.2211700  92.9518700  98.3130020 130.7288220  94.8385190  97.0664600
 131.2366440  95.3366160  97.7069620 131.2601460  94.0620390  96.8903960
 142.8299150  93.0090380 100.7693950 142.1251320  93.3972090 100.2509060
 143.0957070  93.7040670 101.3714880 130.2627170  99.1178930  99.5101520
 129.9296550  99.7447850 100.1522590 130.4393850  99.6440810  98.7303190
 138.7761080  92.9324010  96.9777860 138.0716650  93.2208900  97.5580970
 139.1373240  93.7424120  96.6177420 129.4746270 101.0859730 101.3250700
 130.0920270 101.7610810 101.0435150 128.6139390 101.4947710 101.2338200
 124.7678610 100.2759590  90.2057550 124.3906590 100.7646690  89.4742450
 125.0251680 100.9484870  90.8364080 140.3923860 102.5499140  99.2405340
 139.7087380 103.2198250  99.2322010 140.9318150 102.7479790  98.4750200
 141.8448000  92.3778800  97.3687070 140.8972910  92.4117780  97.5002500
 142.1697990  93.1917750  97.7536430 137.9282600 104.3943270  97.9550520
 137.9409760 103.9905560  97.0872780 137.3757820 105.1690560  97.8511950
 139.2228020 101.1159490  93.0440690 139.1124350 100.1733820  93.1690110
 139.2196270 101.4775130  93.9303450 137.3268040  99.2973110  99.2833130
 137.7436830  99.0833220  98.4486590 138.0507860  99.5545900  99.8541750
 134.7648300  96.7424810  92.4003180 133.8377580  96.6762190  92.6291650
 134.9173120  97.6804940  92.2858420 134.7517380  93.0141810  89.3970340
 133.8121050  93.1755770  89.4822800 135.0700640  93.7327490  88.8506330
 141.2730140  97.6960330  99.3749370 140.4448770  97.7653420  98.8999500
 141.8680620  98.2814640  98.9065200 138.7945590  98.3045110  92.9038430
 138.1758010  97.9664660  92.2564730 138.7770040  97.6604870  93.6117620
 129.0833560  94.0432760  98.9621950 129.6348150  94.1528100  98.1875200
 129.5977070  94.4170360  99.6777180 138.9272250 104.5288980 101.0085220
 138.4502810 105.3361170 100.8157830 138.2434040 103.8767310 101.1611430
 136.9710290  97.5431920  89.9111180 137.4103570  96.7054350  89.7649000
 137.6838710  98.1761320  89.9975320 142.5071460 104.2900920 106.0776610
 142.9831180 104.7683810 106.7565690 143.1278620 104.2218410 105.3522110
 141.9104710 101.4813770 103.2376620 142.0367770 101.2425650 102.3193800
 141.9526090 100.6498310 103.7098700 135.7721450 105.1841770 101.8071430
 136.2866120 105.0949780 102.6093860 134.9290530 105.5301470 102.0999340
 137.7475850 105.4697110  91.2355430 137.5876990 105.1800050  92.1337260
 137.5822560 104.6937240  90.7000660 137.4501980 102.9784670  89.7953430
 136.7567140 102.9761960  89.1355710 138.1924840 102.5543990  89.3647600
 137.0151910 104.6047380  93.8701920 137.4708860 103.8236760  94.1840540
 137.3544430 105.3154200  94.4143100 141.7628720  93.5346230 104.2026360
 141.1472990  94.0425900 103.6741820 141.4425140  92.6344560 104.1452300
 124.7654460 100.3763840 101.0292660 124.9285500  99.9069200 100.2112030
 125.2306910  99.8687400 101.6941500 138.8247550  93.5947070 102.7985210
 137.9741140  93.2952820 103.1194280 138.6649340  93.8389080 101.8869030
 135.9197260  95.0948820 104.8984000 136.2450670  94.2612570 104.5586230
 136.7077590  95.6177340 105.0462330 136.5585210  94.6366540  92.3925130
 135.9594100  95.3602340  92.2088750 137.1064820  94.5743320  91.6101580
 135.1650080  93.2730080  94.4228410 135.5579650  93.5902280  93.6097100
 135.5266930  92.3941960  94.5372930 124.2014250  89.8630880  96.6458610
 123.9127300  90.4333740  97.3583590 124.9460010  89.3835330  97.0089840
 132.1882610  92.5390030  96.9231680 132.1918670  92.0979980  96.0736220
 133.0833730  92.8607360  97.0303500 128.0384990  92.4216520  95.8825890
 127.6985040  92.8991750  96.6392940 127.2762310  91.9681640  95.5226990
 132.2502760  93.5402110  89.9138440 132.3715580  93.4988590  90.8624260
 131.8651270  94.4026260  89.7585170 131.2624260  95.8503250  89.3121740
 130.6941160  95.4021500  88.6857650 131.9713260  96.2096030  88.7786890
 139.6401880  88.7301690 103.7688510 139.9647650  87.9991350 104.2946490
 139.6758390  88.4115330 102.8669500 130.2789950  95.6400450 100.9881300
 129.9747020  96.5192430 101.2131660 131.2336410  95.7000240 101.0238740
 139.5659720  98.8426800  97.3774540 140.2858840  99.3382090  96.9870650
 139.3641540  98.1644690  96.7328410 134.9478520  98.9135860 103.2643540
 134.8815830  97.9931530 103.0101130 134.3183660  99.0111300 103.9788180
 137.7418050  94.6084410  89.8166090 138.6297670  94.9201640  89.6417430
 137.7123140  93.7356660  89.4246670 126.3353680  96.4803190 102.1352660
 125.9768620  97.1457040 102.7226000 126.0408240  95.6486740 102.5065280
 134.8795250 101.7356430 103.0147340 134.8939790 100.8037390 102.7966250
 134.1720350 101.8216190 103.6537110 140.0132320  95.9196250  89.2845950
 139.9296040  96.3510470  88.4342390 140.7326510  96.3794600  89.7172770
 141.0906460  98.3763770 102.3615920 140.3654650  98.9692550 102.1645310
 141.6181920  98.3687310 101.5629290 141.0419570 102.7738510  92.0128080
 140.3995730 102.1194130  92.2871800 140.6550230 103.1793600  91.2368750
 136.6206050 100.1023940  95.8599770 136.9729870  99.5052070  95.2001140
 135.7368380  99.7768170  96.0308020 134.3129150 103.3774000 100.1087840
 134.9571370 103.5833380 100.7861260 134.6758590 102.6162400  99.6558690
 127.9108320  88.2105310  93.3518060 127.7822950  88.2023210  94.3002980
 127.0870340  88.5488400  93.0009070 135.5861230 101.3806350  98.8265290
 136.2283460 100.6799510  98.9397460 136.1110580 102.1604790  98.6462180
 139.4316950 101.6654970  88.5504430 139.2054530 100.9485410  89.1429070
 139.0413150 101.4167410  87.7126180 137.3598850 102.1801250 102.0301350
 137.6955090 102.7667940 102.7079270 136.4399190 102.0493960 102.2599140
 125.2132980 105.6921830  89.3248890 125.5730620 106.2911170  88.6706160
 125.0725320 106.2381720  90.0983920 139.0133200  99.5826910  90.2118590
 138.7254900 100.0439600  90.9996470 139.8085370  99.1224680  90.4802810
 125.1974840 103.9576690 103.7991290 125.3065960 103.0171430 103.6586680
 124.5455400 104.2231440 103.1505020 133.1887430 102.2292580 105.1989410
 132.8684300 101.5101820 105.7435100 132.5145790 102.9047650 105.2725470
 139.7703060  91.4175680  91.3713770 139.1416220  91.5221350  90.6572000
 139.2754980  91.6372460  92.1607650 140.5709880  91.3326290 101.6292570
 140.0683480  92.0731690 101.9686380 141.3866540  91.7210290 101.3129360
 138.8631890  96.5759470  95.0753930 137.9222030  96.5909700  95.2501620
 139.1775960  95.7895430  95.5214230 140.8657470 103.7468320  96.7508190
 140.9904890 104.5699490  97.2232000 141.7323030 103.5359050  96.4032340
 125.2220480 101.9073100  92.2966830 124.2960260 102.1494240  92.2872240
 125.6876910 102.7347360  92.1751580 131.4477310 105.0129840  88.2450890
 132.2405920 105.3018670  87.7932680 130.9281660 104.5822010  87.5663370
 136.1797910 101.1325470 105.5586310 135.5736070 101.1557070 104.8182060
 135.8752020 100.4008510 106.0953560 137.6098280 104.8605760 104.1695720
 138.5620030 104.7763780 104.1195960 137.4626500 105.5247470 104.8429510
 140.5007480 104.2399970  89.6687630 140.2148990 103.8265110  88.8541810
 140.3027030 105.1687680  89.5488150 131.9654710 100.2333250  88.1093240
 131.8605350  99.6185600  88.8354620 131.7978930  99.7099140  87.3256250
 135.2057440  99.2953280  88.7135230 134.6567540  99.7422580  89.3577970
 135.8276700  98.7902530  89.2372900 139.2592380 100.6495380 104.6457490
 140.0001850 100.9871140 104.1424950 138.4965060 100.8187440 104.0927260
 130.8732560  98.2544200  90.6100530 131.2948980  98.0884070  91.4531920
 130.9983400  97.4444430  90.1155670 133.3860200  97.2781810  87.8577630
 133.9065860  96.5630830  87.4918780 134.0328600  97.9167680  88.1578140
 137.9338040  98.7010210 103.1812700 138.3479060  98.8555290 104.0303120
 136.9989040  98.8265430 103.3438480 138.4060210  96.0406370 105.1851850
 138.9880980  95.2858690 105.0972330 138.5821980  96.5713810 104.4083330
 132.6953270  98.6530690 101.1508630 133.1141380  99.4963420 100.9784870
 131.7761900  98.7902730 100.9215410 129.7691460  94.3277430  87.5558690
 129.5680520  93.4644790  87.9172030 129.5983510  94.2410790  86.6180290
 130.5460690 104.9583700 102.2666360 130.0081780 105.6829760 101.9475060
 130.7994650 104.4814040 101.4763700 133.4022900 106.1934910 102.5253010
 133.3281600 107.0970050 102.8325380 132.5001740 105.8746810 102.4975080
 133.9508230 105.3593420  90.1479370 134.8459020 105.6978390  90.1698130
 133.9825860 104.6372830  89.5203650 127.5904390 100.7320470  88.3766370
 128.0279260 101.2750140  89.0323950 128.0752120  99.9067420  88.3862710
 124.8050190 103.5209500  95.8286630 125.1353200 102.6530560  95.5965270
 125.2341190 103.7268020  96.6591590 125.2940400 104.3880090  98.5668260
 124.8571390 104.5680890  99.3992410 125.8618080 105.1454710  98.4249980
 140.9302580 103.8897090 102.8545570 140.3304570 103.9489650 102.1109490
 141.0596480 102.9502070 102.9842420 142.1704030 101.6314910  88.1915280
 141.3396990 101.6991560  88.6622510 142.3475860 102.5219030  87.8882140
 141.6260490  98.3762390  90.6949480 142.3879400  98.9459040  90.8009170
 141.6414860  97.8089590  91.4657790 142.6320460  99.2312490  95.5391410
 143.0029290  98.4479810  95.1327380 143.2722390  99.9201590  95.3608710
 139.6154220 100.6149070 100.9521730 138.8014060 101.0446230 101.2147520
 140.0228420 101.2267480 100.3390780 141.6779660  98.6696760  87.8522000
 141.9528500  99.5775640  87.7241220 141.4890400  98.6059290  88.7883990
 138.0755270  91.6941610  89.1475630 138.4940150  91.5072590  88.3072290
 137.7691330  90.8420660  89.4578560 141.5745000  96.6065750  92.8451430
 141.1988600  95.8393680  92.4132720 140.8448120  96.9888450  93.3326360
 126.1640760  97.2852890  99.4660480 126.5313800  97.1980290 100.3456500
 125.5951580  96.5219440  99.3667340 140.9644620  95.7537270 102.4790950
 140.7330710  95.5250020 101.5788900 141.2249170  96.6736820 102.4335840
 139.4032690  90.9793700 105.2570650 140.2802870  90.9877100 105.6404650
 139.4153530  90.2424540 104.6463000 140.8495960  94.8323240  96.1458670
 141.3733440  94.3385890  95.5148840 141.4355380  94.9673600  96.8906240
 141.0285680  94.9163110  99.6678220 140.0788390  94.8826650  99.7823210
 141.2098690  95.8263220  99.4327990 140.3395930  94.0896590  92.0851080
 140.8355050  93.8567460  92.8699960 140.1412000  93.2508430  91.6688720
 126.2196470  88.4710310  97.7202120 126.8672660  87.9207690  97.2797280
 126.6398310  88.7253460  98.5417930 141.7683090  92.7257540  94.6188760
 141.6582370  92.5713580  95.5571030 142.5290680  92.1978480  94.3764170
 140.1148810  88.6651670 101.0771760 140.7521030  89.2785810 101.4430950
 140.2623700  88.7012330 100.1320990 142.7311850  91.3276120  90.4851610
 141.9363350  91.2621240  91.0144520 142.9355130  92.2626760  90.4736960
 139.6730270 105.3667670  94.4790000 140.2689340 105.0452240  93.8024420
 139.9308420 104.8939490  95.2703270 131.2798870 103.3545170 100.2290350
 131.0390230 103.6219730  99.3420870 132.2201510 103.5250900 100.2841210
 142.5403030 105.3739550 101.0300990 142.0461310 105.7708420 100.3128120
 141.9316320 104.7488760 101.4238270 126.6449110  88.1542180 103.7378210
 127.1932100  87.9730230 102.9744320 126.7104420  87.3636290 104.2734520
 127.4180870 104.7447830 101.7478410 126.8241190 104.6132530 102.4868450
 127.4104710 103.9085970 101.2820510 136.8635890  88.0380060  99.9508440
 135.9895730  88.3715170  99.7481370 136.7546640  87.5653240 100.7760310
 137.7707870  90.2450930 101.3350160 137.4421230  89.4302690 100.9551890
 138.7190170  90.2020740 101.2115850 140.2242480 106.0162970  98.3087730
 139.7645450 106.7678780  97.9345750 139.5954940 105.2969440  98.2502530
 127.0493100 102.1106210 100.6986450 126.3227160 101.4911500 100.6312400
 127.1102250 102.5046820  99.8284530 139.1631780  89.6573000  96.9350440
 139.6039870  89.6018100  96.0872040 138.8939370  90.5731010  97.0060620
 141.0270350  89.2888240  94.9459260 140.9658750  88.3449460  94.7990280
 141.8062380  89.3968330  95.4912720 125.9551120  89.2597380  91.4115070
 126.7130480  89.3726260  90.8379100 125.4928290  90.0966580  91.3658500
 132.4964930  91.3736650  94.4017380 131.6839440  90.9993540  94.0613260
 133.0006570  90.6181730  94.7038570 133.4606060 106.1375800 105.6773040
 134.3873370 105.9020070 105.7209000 133.4456490 106.9647800 105.1959070
 141.6951120 105.6801370  92.6747290 141.8703310 104.9939110  92.0308210
 140.9972690 106.2048420  92.2823960 129.5378770 106.0696210  90.2282600
 130.2697590 105.7855490  89.6806490 129.7972440 105.8309490  91.1181980
 137.2485130  88.2174130 106.0195390 137.1350580  88.5368740 106.9146910
 138.0654870  88.6186640 105.7232670 140.0283620 105.3645660 105.5014080
 140.8208940 104.8694890 105.2940040 140.3216770 106.0435800 106.1089690
 136.1543280  96.2366600  76.3830130 136.0737330  95.3221210  76.1121840
 135.7407700  96.7333670  75.6769840 134.2861320  98.0145620  78.2639400
 133.5103420  97.5346060  78.5537970 134.9374250  97.3351270  78.0895560
 128.3027150  98.3265430  79.1415160 127.4712030  98.0714140  79.5411670
 128.9108130  98.3976200  79.8773080 138.3068750 102.4205810  77.0438530
 137.8450280 101.6493050  77.3725700 139.1194300 102.4471880  77.5490980
 126.7119100  93.2867320  72.9257550 125.8235800  93.6283290  72.8237430
 126.9960290  93.0867640  72.0338380 124.6752110  95.8872970  78.8097250
 125.2468220  95.1195170  78.8100890 124.6753650  96.1861730  77.9003860
 128.8880490  91.8698820  73.9595930 128.9947240  92.7702550  74.2664690
 127.9772850  91.8216790  73.6690580 126.5363650  93.7917830  79.2048520
 127.2173760  94.0556200  79.8235920 126.2211700  92.9518700  79.5386530
 130.7288220  94.8385190  78.2921110 131.2366440  95.3366160  78.9326130
 131.2601460  94.0620390  78.1160470 142.8299150  93.0090380  81.9950460
 142.1251320  93.3972090  81.4765570 143.0957070  93.7040670  82.5971390
 128.6939650  91.1893710  80.5654980 129.0356460  92.0335760  80.2708850
 127.7555460  91.3377450  80.6820320 124.7678610 100.2759590  71.4314060
 124.3906590 100.7646690  70.6998960 125.0251680 100.9484870  72.0620590
 140.3923860 102.5499140  80.4661850 139.7087380 103.2198250  80.4578520
 140.9318150 102.7479790  79.7006710 132.3767540  88.6775980  76.8899570
 132.6842520  88.1222870  76.1735070 131.4468240  88.8120440  76.7072560
 139.2228020 101.1159490  74.2697200 139.1124350 100.1733820  74.3946620
 139.2196270 101.4775130  75.1559960 137.3268040  99.2973110  80.5089640
 137.7436830  99.0833220  79.6743100 138.0507860  99.5545900  81.0798260
 134.7648300  96.7424810  73.6259690 133.8377580  96.6762190  73.8548160
 134.9173120  97.6804940  73.5114930 141.2730140  97.6960330  80.6005880
 140.4448770  97.7653420  80.1256010 141.8680620  98.2814640  80.1321710
 138.7945590  98.3045110  74.1294940 138.1758010  97.9664660  73.4821240
 138.7770040  97.6604870  74.8374130 130.3704940  97.2689550  76.4079420
 129.9661940  96.5566800  75.9125320 130.4568060  96.9242790  77.2967460
 130.8386640 100.9557110  78.5718630 130.5414930 100.3502580  77.8926410
 131.7886460 100.9934420  78.4607990 129.0833560  94.0432760  80.1878460
 129.6348150  94.1528100  79.4131710 129.5977070  94.4170360  80.9033690
 138.9272250 104.5288980  82.2341730 138.4502810 105.3361170  82.0414340
 138.2434040 103.8767310  82.3867940 140.5527430  88.7974730  69.4508730
 140.2400090  88.8901560  70.3507800 141.3139900  89.3755760  69.4006160
 127.0709570  96.1634530  73.9086070 126.9507170  96.8896620  73.2967340
 126.7610460  95.3937440  73.4313980 142.5071460 104.2900920  87.3033120
 142.9831180 104.7683810  87.9822200 143.1278620 104.2218410  86.5778620
 141.9104710 101.4813770  84.4633130 142.0367770 101.2425650  83.5450310
 141.9526090 100.6498310  84.9355210 137.7475850 105.4697110  72.4611940
 137.5876990 105.1800050  73.3593770 137.5822560 104.6937240  71.9257170
 141.7628720  93.5346230  85.4282870 141.1472990  94.0425900  84.8998330
 141.4425140  92.6344560  85.3708810 124.7654460 100.3763840  82.2549170
 124.9285500  99.9069200  81.4368540 125.2306910  99.8687400  82.9198010
 129.5373230  89.5069600  77.2909740 129.0941380  90.2879140  76.9594260
 130.0958220  89.8299490  77.9980680 133.8243040  92.3738120  82.8945060
 133.3622410  92.5821140  83.7065000 133.4221150  91.5597470  82.5915730
 138.8247550  93.5947070  84.0241720 137.9741140  93.2952820  84.3450790
 138.6649340  93.8389080  83.1125540 135.9197260  95.0948820  86.1240510
 136.2450670  94.2612570  85.7842740 136.7077590  95.6177340  86.2718840
 132.6532050  89.1280300  72.1715570 132.0286230  89.1240170  72.8968880
 132.5662170  88.2611260  71.7751540 131.5749130  90.0516930  79.1499340
 131.8721460  90.9579760  79.0691360 132.1234690  89.5635710  78.5358910
 129.3287450  94.6303170  75.0190990 129.1028370  94.4140340  75.9237610
 128.5479980  95.0631630  74.6736960 136.5585210  94.6366540  73.6181640
 135.9594100  95.3602340  73.4345260 137.1064820  94.5743320  72.8358090
 131.7686660  95.5288750  85.6851260 131.6730260  94.5883480  85.5351660
 132.6118640  95.7503820  85.2899330 124.3884480  93.8051000  69.0817840
 124.3059150  94.7481760  69.2232830 124.0367540  93.6625910  68.2030190
 132.1882610  92.5390030  78.1488190 132.1918670  92.0979980  77.2992730
 133.0833730  92.8607360  78.2560010 128.0384990  92.4216520  77.1082400
 127.6985040  92.8991750  77.8649450 127.2762310  91.9681640  76.7483500
 132.4890580  96.5991810  79.8953600 132.8560710  96.1250380  80.6414940
 132.2995640  97.4733380  80.2361940 125.3531070  91.3435500  76.0247070
 125.0677990  90.9791170  76.8625690 125.2909930  90.6115960  75.4110210
 130.2789950  95.6400450  82.2137810 129.9747020  96.5192430  82.4388170
 131.2336410  95.7000240  82.2495250 128.8071740  99.8461440  72.8104660
 128.0334000  99.3059060  72.6503380 129.5366370  99.3268050  72.4722420
 139.5659720  98.8426800  78.6031050 140.2858840  99.3382090  78.2127160
 139.3641540  98.1644690  77.9584920 135.0269660  90.2364760  72.7460440
 134.2134270  89.7377930  72.6705750 134.8331610  91.0763010  72.3296790
 134.9478520  98.9135860  84.4900050 134.8815830  97.9931530  84.2357640
 134.3183660  99.0111300  85.2044690 137.7418050  94.6084410  71.0422600
 138.6297670  94.9201640  70.8673940 137.7123140  93.7356660  70.6503180
 128.8509140  99.5141820  76.4483470 129.3687810  98.7110080  76.3940360
 128.3993160  99.4520960  77.2900300 140.0132320  95.9196250  70.5102460
 139.9296040  96.3510470  69.6598900 140.7326510  96.3794600  70.9429280
 141.0906460  98.3763770  83.5872430 140.3654650  98.9692550  83.3901820
 141.6181920  98.3687310  82.7885800 141.0419570 102.7738510  73.2384590
 140.3995730 102.1194130  73.5128310 140.6550230 103.1793600  72.4625260
 136.6206050 100.1023940  77.0856280 136.9729870  99.5052070  76.4257650
 135.7368380  99.7768170  77.2564530 124.8461730  96.4794450  69.9843770
 125.7156580  96.7619250  70.2679690 124.3552050  97.2930320  69.8692580
 132.0096540  97.8667660  74.1052050 132.4659320  98.6772910  74.3312240
 131.6584750  97.5490800  74.9370540 139.4316950 101.6654970  69.7760940
 139.2054530 100.9485410  70.3685580 139.0413150 101.4167410  68.9382690
 139.0133200  99.5826910  71.4375100 138.7254900 100.0439600  72.2252980
 139.8085370  99.1224680  71.7059320 125.1974840 103.9576690  85.0247800
 125.3065960 103.0171430  84.8843190 124.5455400 104.2231440  84.3761530
 126.8308240  98.2967920  72.1125830 126.2236190  99.0366820  72.1221130
 127.3057590  98.3867280  71.2864030 139.7703060  91.4175680  72.5970280
 139.1416220  91.5221350  71.8828510 139.2754980  91.6372460  73.3864160
 131.7387090  93.6961630  74.0128160 131.0303240  94.1647970  74.4541770
 132.0231570  93.0383640  74.6473350 133.3643020  95.1158330  82.0120690
 133.8628270  95.5904150  82.6772540 133.5065970  94.1921850  82.2190720
 135.7702520  90.4212290  75.4523950 135.6470300  90.4398420  74.5033460
 136.7187080  90.4691230  75.5722350 129.9422110  92.0046710  71.3878870
 130.7912640  92.4416860  71.3219060 129.5753380  92.3166970  72.2150930
 140.5709880  91.3326290  82.8549080 140.0683480  92.0731690  83.1942890
 141.3866540  91.7210290  82.5385870 140.8657470 103.7468320  77.9764700
 140.9904890 104.5699490  78.4488510 141.7323030 103.5359050  77.6288850
 128.3375000 105.8399530  77.6481830 129.0737480 105.2914990  77.9190400
 128.7215920 106.7055540  77.5087820 127.3433280 105.0245600  86.8367410
 128.1446010 105.3457650  87.2502810 126.8285100 104.6641180  87.5587320
 136.1797910 101.1325470  86.7842820 135.5736070 101.1557070  86.0438570
 135.8752020 100.4008510  87.3210070 140.5007480 104.2399970  70.8944140
 140.2148990 103.8265110  70.0798320 140.3027030 105.1687680  70.7744660
 139.2592380 100.6495380  85.8714000 140.0001850 100.9871140  85.3681460
 138.4965060 100.8187440  85.3183770 130.8732560  98.2544200  71.8357040
 131.2948980  98.0884070  72.6788430 130.9983400  97.4444430  71.3412180
 137.9338040  98.7010210  84.4069210 138.3479060  98.8555290  85.2559630
 136.9989040  98.8265430  84.5694990 138.4060210  96.0406370  86.4108360
 138.9880980  95.2858690  86.3228840 138.5821980  96.5713810  85.6339840
 129.5232280  91.2003120  84.7225310 129.4289150  90.5823870  83.9976180
 128.9429670  91.9269410  84.4955220 132.2893720  89.7576360  81.7552700
 131.8411020  89.7800620  80.9098250 131.6558920  89.3595380  82.3523000
 135.0317170  96.3846870  83.7602980 135.1513380  95.7888010  84.4997820
 135.8911170  96.4216560  83.3404280 137.3705070  96.9384060  82.3365490
 136.8440290  97.4626680  81.7330630 137.7136410  97.5711450  82.9675220
 131.7985940  92.9268220  85.0178800 132.3885630  92.6184070  85.7056620
 130.9806180  92.4547970  85.1738700 136.6179370  92.5434030  85.2511820
 135.9294890  91.8815570  85.1861810 137.3385390  92.0972300  85.6960280
 128.5674260  91.4278050  68.7693080 128.8700160  91.4345480  67.8612230
 129.3068850  91.0775910  69.2660740 127.5904390 100.7320470  69.6022880
 128.0279260 101.2750140  70.2580460 128.0752120  99.9067420  69.6119220
 129.4012110 101.8518510  74.7145110 129.1007650 101.7283480  75.6149020
 129.2949600 100.9927100  74.3060840 125.2940400 104.3880090  79.7924770
 124.8571390 104.5680890  80.6248920 125.8618080 105.1454710  79.6506490
 140.9302580 103.8897090  84.0802080 140.3304570 103.9489650  83.3366000
 141.0596480 102.9502070  84.2098930 142.1704030 101.6314910  69.4171790
 141.3396990 101.6991560  69.8879020 142.3475860 102.5219030  69.1138650
 141.6260490  98.3762390  71.9205990 142.3879400  98.9459040  72.0265680
 141.6414860  97.8089590  72.6914300 142.6320460  99.2312490  76.7647920
 143.0029290  98.4479810  76.3583890 143.2722390  99.9201590  76.5865220
 139.6154220 100.6149070  82.1778240 138.8014060 101.0446230  82.4404030
 140.0228420 101.2267480  81.5647290 141.6779660  98.6696760  69.0778510
 141.9528500  99.5775640  68.9497730 141.4890400  98.6059290  70.0140500
 138.0755270  91.6941610  70.3732140 138.4940150  91.5072590  69.5328800
 137.7691330  90.8420660  70.6835070 141.5745000  96.6065750  74.0707940
 141.1988600  95.8393680  73.6389230 140.8448120  96.9888450  74.5582870
 126.1640760  97.2852890  80.6916990 126.5313800  97.1980290  81.5713010
 125.5951580  96.5219440  80.5923850 140.9644620  95.7537270  83.7047460
 140.7330710  95.5250020  82.8045410 141.2249170  96.6736820  83.6592350
 124.3402910  94.1099250  72.0938980 123.4366990  94.3729450  71.9190640
 124.8243530  94.3810420  71.3138940 141.0285680  94.9163110  80.8934730
 140.0788390  94.8826650  81.0079720 141.2098690  95.8263220  80.6584500
 126.8830120  93.1664790  70.0033360 127.5921820  92.7448010  69.5180640
 126.1670060  93.2340020  69.3716710 126.5304280  89.2204120  69.0436010
 127.2532410  89.7613060  69.3617230 126.8028800  88.9467540  68.1677550
 140.3395930  94.0896590  73.3107590 140.8355050  93.8567460  74.0956470
 140.1412000  93.2508430  72.8945230 141.7683090  92.7257540  75.8445270
 141.6582370  92.5713580  76.7827540 142.5290680  92.1978480  75.6020680
 140.1148810  88.6651670  82.3028270 140.7521030  89.2785810  82.6687460
 140.2623700  88.7012330  81.3577500 142.6573360  90.5565460  69.0851410
 143.5822670  90.4246640  68.8769700 142.6349150  90.6358280  70.0387860
 142.7311850  91.3276120  71.7108120 141.9363350  91.2621240  72.2401030
 142.9355130  92.2626760  71.6993470 139.6730270 105.3667670  75.7046510
 140.2689340 105.0452240  75.0280930 139.9308420 104.8939490  76.4959780
 142.5403030 105.3739550  82.2557500 142.0461310 105.7708420  81.5384630
 141.9316320 104.7488760  82.6494780 136.8635890  88.0380060  81.1764950
 135.9895730  88.3715170  80.9737880 136.7546640  87.5653240  82.0016820
 137.7707870  90.2450930  82.5606670 137.4421230  89.4302690  82.1808400
 138.7190170  90.2020740  82.4372360 140.2242480 106.0162970  79.5344240
 139.7645450 106.7678780  79.1602260 139.5954940 105.2969440  79.4759040
 134.6110710  88.9549900  80.1157860 133.8282500  89.4295400  80.3954620
 134.3173640  88.0504730  80.0071040 141.0270350  89.2888240  76.1715770
 140.9658750  88.3449460  76.0246790 141.8062380  89.3968330  76.7169230
 125.3323100 105.4280600  75.1339720 125.1645140 104.7951280  75.8321610
 124.4657610 105.6340000  74.7833910 132.4964930  91.3736650  75.6273890
 131.6839440  90.9993540  75.2869770 133.0006570  90.6181730  75.9295080
 130.5214110  89.5236570  74.2318940 129.8916850  88.8223880  74.3989070
 129.9819250  90.2840700  74.0152100 141.6951120 105.6801370  73.9003800
 141.8703310 104.9939110  73.2564720 140.9972690 106.2048420  73.5080470
 128.6993560 102.1860940  71.4585440 128.0702440 102.6546040  72.0071270
 128.8141390 101.3410160  71.8931630 140.0283620 105.3645660  86.7270590
 140.8208940 104.8694890  86.5196550 140.3216770 106.0435800  87.3346200
 136.1543280  96.2366600  57.6086640 136.0737330  95.3221210  57.3378350
 135.7407700  96.7333670  56.9026350 134.2861320  98.0145620  59.4895910
 133.5103420  97.5346060  59.7794480 134.9374250  97.3351270  59.3152070
 128.3027150  98.3265430  60.3671670 127.4712030  98.0714140  60.7668180
 128.9108130  98.3976200  61.1029590 138.3068750 102.4205810  58.2695040
 137.8450280 101.6493050  58.5982210 139.1194300 102.4471880  58.7747490
 128.2828410 102.3605520  60.5629690 128.5856450 101.4703260  60.3839910
 129.0272000 102.9175740  60.3351940 138.5399600  90.9923630  56.6563340
 139.3609220  90.5020200  56.6988820 138.5733680  91.5821290  57.4095180
 142.8299150  93.0090380  63.2206970 142.1251320  93.3972090  62.7022080
 143.0957070  93.7040670  63.8227900 129.0124320  89.4783750  63.7841040
 129.0142760  89.9956140  62.9786940 128.1828630  89.0013930  63.7610970
 135.3995410  99.5903060  55.2830940 134.7812680 100.0552510  54.7193660
 135.9118660 100.2830540  55.7000450 130.2627170  99.1178930  61.9614540
 129.9296550  99.7447850  62.6035610 130.4393850  99.6440810  61.1816210
 138.7761080  92.9324010  59.4290880 138.0716650  93.2208900  60.0093990
 139.1373240  93.7424120  59.0690440 124.7678610 100.2759590  52.6570570
 124.3906590 100.7646690  51.9255470 125.0251680 100.9484870  53.2877100
 140.3923860 102.5499140  61.6918360 139.7087380 103.2198250  61.6835030
 140.9318150 102.7479790  60.9263220 141.8448000  92.3778800  59.8200090
 140.8972910  92.4117780  59.9515520 142.1697990  93.1917750  60.2049450
 137.9282600 104.3943270  60.4063540 137.9409760 103.9905560  59.5385800
 137.3757820 105.1690560  60.3024970 139.2228020 101.1159490  55.4953710
 139.1124350 100.1733820  55.6203130 139.2196270 101.4775130  56.3816470
 137.3268040  99.2973110  61.7346150 137.7436830  99.0833220  60.8999610
 138.0507860  99.5545900  62.3054770 134.7648300  96.7424810  54.8516200
 133.8377580  96.6762190  55.0804670 134.9173120  97.6804940  54.7371440
 134.7517380  93.0141810  51.8483360 133.8121050  93.1755770  51.9335820
 135.0700640  93.7327490  51.3019350 141.2730140  97.6960330  61.8262390
 140.4448770  97.7653420  61.3512520 141.8680620  98.2814640  61.3578220
 138.7945590  98.3045110  55.3551450 138.1758010  97.9664660  54.7077750
 138.7770040  97.6604870  56.0630640 138.2372150  94.4829650  62.7717260
 137.8243330  95.3083360  63.0257250 137.5048100  93.8974690  62.5793620
 138.9272250 104.5288980  63.4598240 138.4502810 105.3361170  63.2670850
 138.2434040 103.8767310  63.6124450 129.9305070 100.6938800  66.4482940
 129.0333600 100.9178770  66.6956340 129.9557940 100.8173740  65.4994340
 136.9710290  97.5431920  52.3624200 137.4103570  96.7054350  52.2162020
 137.6838710  98.1761320  52.4488340 128.7576290  97.5652120  65.0240310
 128.6184060  98.4374920  65.3927710 127.8757650  97.2224930  64.8788250
 140.5527430  88.7974730  50.6765240 140.2400090  88.8901560  51.5764310
 141.3139900  89.3755760  50.6262670 142.5071460 104.2900920  68.5289630
 142.9831180 104.7683810  69.2078710 143.1278620 104.2218410  67.8035130
 141.9104710 101.4813770  65.6889640 142.0367770 101.2425650  64.7706820
 141.9526090 100.6498310  66.1611720 135.7721450 105.1841770  64.2584450
 136.2866120 105.0949780  65.0606880 134.9290530 105.5301470  64.5512360
 137.7475850 105.4697110  53.6868450 137.5876990 105.1800050  54.5850280
 137.5822560 104.6937240  53.1513680 130.2264230 105.2495640  55.4640070
 130.0506710 104.3331180  55.2507870 129.3719970 105.6082930  55.7037870
 137.4501980 102.9784670  52.2466450 136.7567140 102.9761960  51.5868730
 138.1924840 102.5543990  51.8160620 137.0151910 104.6047380  56.3214940
 137.4708860 103.8236760  56.6353560 137.3544430 105.3154200  56.8656120
 141.7628720  93.5346230  66.6539380 141.1472990  94.0425900  66.1254840
 141.4425140  92.6344560  66.5965320 133.8243040  92.3738120  64.1201570
 133.3622410  92.5821140  64.9321510 133.4221150  91.5597470  63.8172240
 138.8247550  93.5947070  65.2498230 137.9741140  93.2952820  65.5707300
 138.6649340  93.8389080  64.3382050 136.5585210  94.6366540  54.8438150
 135.9594100  95.3602340  54.6601770 137.1064820  94.5743320  54.0614600
 135.1650080  93.2730080  56.8741430 135.5579650  93.5902280  56.0610120
 135.5266930  92.3941960  56.9885950 135.7505220  95.8635830  60.9692210
 135.0186340  96.3722640  61.3182310 135.3529560  95.0465810  60.6680990
 132.2502760  93.5402110  52.3651460 132.3715580  93.4988590  53.3137280
 131.8651270  94.4026260  52.2098190 136.2131130  91.3169510  60.3815150
 136.2303870  91.7678160  61.2257000 135.9646710  90.4175150  60.5948590
 131.2624260  95.8503250  51.7634760 130.6941160  95.4021500  51.1370670
 131.9713260  96.2096030  51.2299910 139.6401880  88.7301690  66.2201530
 139.9647650  87.9991350  66.7459510 139.6758390  88.4115330  65.3182520
 126.3393440  99.7515270  65.6401490 125.9548230  99.1108940  66.2384450
 126.6505630 100.4551390  66.2096220 132.4890580  96.5991810  61.1210110
 132.8560710  96.1250380  61.8671450 132.2995640  97.4733380  61.4618450
 130.2789950  95.6400450  63.4394320 129.9747020  96.5192430  63.6644680
 131.2336410  95.7000240  63.4751760 128.8071740  99.8461440  54.0361170
 128.0334000  99.3059060  53.8759890 129.5366370  99.3268050  53.6978930
 139.5659720  98.8426800  59.8287560 140.2858840  99.3382090  59.4383670
 139.3641540  98.1644690  59.1841430 135.0269660  90.2364760  53.9716950
 134.2134270  89.7377930  53.8962260 134.8331610  91.0763010  53.5553300
 134.9478520  98.9135860  65.7156560 134.8815830  97.9931530  65.4614150
 134.3183660  99.0111300  66.4301200 137.7418050  94.6084410  52.2679110
 138.6297670  94.9201640  52.0930450 137.7123140  93.7356660  51.8759690
 133.7378640 100.7808100  52.9467280 134.0794340 101.5250330  52.4510600
 132.9091350 101.0939220  53.3092110 140.0132320  95.9196250  51.7358970
 139.9296040  96.3510470  50.8855410 140.7326510  96.3794600  52.1685790
 141.0906460  98.3763770  64.8128940 140.3654650  98.9692550  64.6158330
 141.6181920  98.3687310  64.0142310 141.0419570 102.7738510  54.4641100
 140.3995730 102.1194130  54.7384820 140.6550230 103.1793600  53.6881770
 136.6206050 100.1023940  58.3112790 136.9729870  99.5052070  57.6514160
 135.7368380  99.7768170  58.4821040 132.7069330 100.8621630  55.7183200
 133.3940460 101.4090840  56.0990790 131.9201750 101.4062360  55.7532810
 124.8461730  96.4794450  51.2100280 125.7156580  96.7619250  51.4936200
 124.3552050  97.2930320  51.0949090 127.9108320  88.2105310  55.8031080
 127.7822950  88.2023210  56.7516000 127.0870340  88.5488400  55.4522090
 139.4316950 101.6654970  51.0017450 139.2054530 100.9485410  51.5942090
 139.0413150 101.4167410  50.1639200 137.3598850 102.1801250  64.4814370
 137.6955090 102.7667940  65.1592290 136.4399190 102.0493960  64.7112160
 125.2132980 105.6921830  51.7761910 125.5730620 106.2911170  51.1219180
 125.0725320 106.2381720  52.5496940 139.0133200  99.5826910  52.6631610
 138.7254900 100.0439600  53.4509490 139.8085370  99.1224680  52.9315830
 131.2301600 103.0753030  52.5935580 131.2211700 103.8082720  51.9780090
 130.3099960 102.8284610  52.6862540 126.8308240  98.2967920  53.3382340
 126.2236190  99.0366820  53.3477640 127.3057590  98.3867280  52.5120540
 136.4041030  92.4618740  63.0139230 136.7721850  91.6413950  63.3418800
 135.5439230  92.5220630  63.4294880 139.7703060  91.4175680  53.8226790
 139.1416220  91.5221350  53.1085020 139.2754980  91.6372460  54.6120670
 134.2161200 103.1381270  51.2560770 134.3173180 102.9345260  50.3262750
 133.3162940 102.8839550  51.4608550 133.3643020  95.1158330  63.2377200
 133.8628270  95.5904150  63.9029050 133.5065970  94.1921850  63.4447230
 135.7702520  90.4212290  56.6780460 135.6470300  90.4398420  55.7289970
 136.7187080  90.4691230  56.7978860 132.8579310 105.6567590  55.9508440
 133.1120810 105.6188980  55.0287810 131.9091790 105.5300920  55.9436690
 129.9422110  92.0046710  52.6135380 130.7912640  92.4416860  52.5475570
 129.5753380  92.3166970  53.4407440 140.5709880  91.3326290  64.0805590
 140.0683480  92.0731690  64.4199400 141.3866540  91.7210290  63.7642380
 138.8631890  96.5759470  57.5266950 137.9222030  96.5909700  57.7014640
 139.1775960  95.7895430  57.9727250 128.8413530  98.2579070  51.0870910
 129.6076800  98.1460430  51.6496340 128.9188220  97.5617040  50.4347680
 127.5360290  95.6904140  51.7703800 127.6163880  94.7431650  51.8821200
 128.4280040  96.0211020  51.8764460 140.8657470 103.7468320  59.2021210
 140.9904890 104.5699490  59.6745020 141.7323030 103.5359050  58.8545360
 131.4477310 105.0129840  50.6963910 132.2405920 105.3018670  50.2445700
 130.9281660 104.5822010  50.0176390 136.1797910 101.1325470  68.0099330
 135.5736070 101.1557070  67.2695080 135.8752020 100.4008510  68.5466580
 137.6098280 104.8605760  66.6208740 138.5620030 104.7763780  66.5708980
 137.4626500 105.5247470  67.2942530 140.5007480 104.2399970  52.1200650
 140.2148990 103.8265110  51.3054830 140.3027030 105.1687680  52.0001170
 125.0631090  97.5119060  67.0059970 125.5670110  96.9326340  67.5776200
 124.3238510  97.7959290  67.5436340 131.9654710 100.2333250  50.5606260
 131.8605350  99.6185600  51.2867640 131.7978930  99.7099140  49.7769270
 135.2057440  99.2953280  51.1648250 134.6567540  99.7422580  51.8090990
 135.8276700  98.7902530  51.6885920 139.2592380 100.6495380  67.0970510
 140.0001850 100.9871140  66.5937970 138.4965060 100.8187440  66.5440280
 130.8732560  98.2544200  53.0613550 131.2948980  98.0884070  53.9044940
 130.9983400  97.4444430  52.5668690 133.3860200  97.2781810  50.3090650
 133.9065860  96.5630830  49.9431800 134.0328600  97.9167680  50.6091160
 137.9338040  98.7010210  65.6325720 138.3479060  98.8555290  66.4816140
 136.9989040  98.8265430  65.7951500 138.4060210  96.0406370  67.6364870
 138.9880980  95.2858690  67.5485350 138.5821980  96.5713810  66.8596350
 129.5232280  91.2003120  65.9481820 129.4289150  90.5823870  65.2232690
 128.9429670  91.9269410  65.7211730 132.6953270  98.6530690  63.6021650
 133.1141380  99.4963420  63.4297890 131.7761900  98.7902730  63.3728430
 135.0317170  96.3846870  64.9859490 135.1513380  95.7888010  65.7254330
 135.8911170  96.4216560  64.5660790 137.3705070  96.9384060  63.5622000
 136.8440290  97.4626680  62.9587140 137.7136410  97.5711450  64.1931730
 136.6179370  92.5434030  66.4768330 135.9294890  91.8815570  66.4118320
 137.3385390  92.0972300  66.9216790 137.2479770  89.1385660  52.5358590
 137.5282060  88.2953560  52.8918010 136.4745500  89.3708770  53.0497340
 128.5674260  91.4278050  49.9949590 128.8700160  91.4345480  49.0868740
 129.3068850  91.0775910  50.4917250 133.4022900 106.1934910  64.9766030
 133.3281600 107.0970050  65.2838400 132.5001740 105.8746810  64.9488100
 131.7859190  90.3712670  50.9805790 131.4381190  89.6936660  50.4008240
 131.9871960  89.9102180  51.7949180 133.9508230 105.3593420  52.5992390
 134.8459020 105.6978390  52.6211150 133.9825860 104.6372830  51.9716670
 127.5904390 100.7320470  50.8279390 128.0279260 101.2750140  51.4836970
 128.0752120  99.9067420  50.8375730 129.4012110 101.8518510  55.9401620
 129.1007650 101.7283480  56.8405530 129.2949600 100.9927100  55.5317350
 125.2940400 104.3880090  61.0181280 124.8571390 104.5680890  61.8505430
 125.8618080 105.1454710  60.8763000 140.9302580 103.8897090  65.3058590
 140.3304570 103.9489650  64.5622510 141.0596480 102.9502070  65.4355440
 142.1704030 101.6314910  50.6428300 141.3396990 101.6991560  51.1135530
 142.3475860 102.5219030  50.3395160 141.6260490  98.3762390  53.1462500
 142.3879400  98.9459040  53.2522190 141.6414860  97.8089590  53.9170810
 142.6320460  99.2312490  57.9904430 143.0029290  98.4479810  57.5840400
 143.2722390  99.9201590  57.8121730 139.6154220 100.6149070  63.4034750
 138.8014060 101.0446230  63.6660540 140.0228420 101.2267480  62.7903800
 141.6779660  98.6696760  50.3035020 141.9528500  99.5775640  50.1754240
 141.4890400  98.6059290  51.2397010 138.0755270  91.6941610  51.5988650
 138.4940150  91.5072590  50.7585310 137.7691330  90.8420660  51.9091580
 141.5745000  96.6065750  55.2964450 141.1988600  95.8393680  54.8645740
 140.8448120  96.9888450  55.7839380 126.1640760  97.2852890  61.9173500
 126.5313800  97.1980290  62.7969520 125.5951580  96.5219440  61.8180360
 140.9644620  95.7537270  64.9303970 140.7330710  95.5250020  64.0301920
 141.2249170  96.6736820  64.8848860 139.4032690  90.9793700  67.7083670
 140.2802870  90.9877100  68.0917670 139.4153530  90.2424540  67.0976020
 140.8495960  94.8323240  58.5971690 141.3733440  94.3385890  57.9661860
 141.4355380  94.9673600  59.3419260 141.0285680  94.9163110  62.1191240
 140.0788390  94.8826650  62.2336230 141.2098690  95.8263220  61.8841010
 126.8830120  93.1664790  51.2289870 127.5921820  92.7448010  50.7437150
 126.1670060  93.2340020  50.5973220 126.5304280  89.2204120  50.2692520
 127.2532410  89.7613060  50.5873740 126.8028800  88.9467540  49.3934060
 140.3395930  94.0896590  54.5364100 140.8355050  93.8567460  55.3212980
 140.1412000  93.2508430  54.1201740 126.2196470  88.4710310  60.1715140
 126.8672660  87.9207690  59.7310300 126.6398310  88.7253460  60.9930950
 141.7683090  92.7257540  57.0701780 141.6582370  92.5713580  58.0084050
 142.5290680  92.1978480  56.8277190 140.1148810  88.6651670  63.5284780
 140.7521030  89.2785810  63.8943970 140.2623700  88.7012330  62.5834010
 142.6573360  90.5565460  50.3107920 143.5822670  90.4246640  50.1026210
 142.6349150  90.6358280  51.2644370 142.7311850  91.3276120  52.9364630
 141.9363350  91.2621240  53.4657540 142.9355130  92.2626760  52.9249980
 139.6730270 105.3667670  56.9303020 140.2689340 105.0452240  56.2537440
 139.9308420 104.8939490  57.7216290 125.9728470  88.6265980  62.9140460
 125.6243290  89.0829800  63.6798640 125.6416170  87.7323110  62.9962890
 127.5792840 101.7985580  67.0793650 127.5362470 101.4278490  67.9608110
 127.7103850 102.7363150  67.2195470 133.4853290  89.8177860  66.4359880
 133.4242180  90.4099690  67.1855290 134.4253670  89.7103820  66.2910140
 136.1227850  89.4747920  66.0752170 136.7368260  89.7927210  65.4133250
 136.6677410  88.9896510  66.6948030 142.5403030 105.3739550  63.4814010
 142.0461310 105.7708420  62.7641140 141.9316320 104.7488760  63.8751290
 126.6449110  88.1542180  66.1891230 127.1932100  87.9730230  65.4257340
 126.7104420  87.3636290  66.7247540 136.8635890  88.0380060  62.4021460
 135.9895730  88.3715170  62.1994390 136.7546640  87.5653240  63.2273330
 137.7707870  90.2450930  63.7863180 137.4421230  89.4302690  63.4064910
 138.7190170  90.2020740  63.6628870 140.2242480 106.0162970  60.7600750
 139.7645450 106.7678780  60.3858770 139.5954940 105.2969440  60.7015550
 127.0493100 102.1106210  63.1499470 126.3227160 101.4911500  63.0825420
 127.1102250 102.5046820  62.2797550 139.1631780  89.6573000  59.3863460
 139.6039870  89.6018100  58.5385060 138.8939370  90.5731010  59.4573640
 141.0270350  89.2888240  57.3972280 140.9658750  88.3449460  57.2503300
 141.8062380  89.3968330  57.9425740 125.9551120  89.2597380  53.8628090
 126.7130480  89.3726260  53.2892120 125.4928290  90.0966580  53.8171520
 136.9989910  88.0379100  58.0913470 137.6019280  88.6099310  58.5661990
 136.2582900  88.6018540  57.8687370 140.1424510  88.4400660  53.3653750
 140.3375140  89.3384110  53.6321180 139.3554380  88.2087740  53.8586700
 128.3276270  89.7861430  52.4030060 128.8569030  88.9991230  52.2738010
 128.9604590  90.4652620  52.6365590 130.5214110  89.5236570  55.4575450
 129.8916850  88.8223880  55.6245580 129.9819250  90.2840700  55.2408610
 141.6951120 105.6801370  55.1260310 141.8703310 104.9939110  54.4821230
 140.9972690 106.2048420  54.7336980 130.6469670  88.8020550  67.8927940
 130.3653940  89.3054150  67.1288760 131.0289370  88.0042300  67.5270070
 129.5378770 106.0696210  52.6795620 130.2697590 105.7855490  52.1319510
 129.7972440 105.8309490  53.5695000 128.6993560 102.1860940  52.6841950
 128.0702440 102.6546040  53.2327780 128.8141390 101.3410160  53.1188140
 137.2485130  88.2174130  68.4708410 137.1350580  88.5368740  69.3659930
 138.0654870  88.6186640  68.1745690 140.0283620 105.3645660  67.9527100
 140.8208940 104.8694890  67.7453060 140.3216770 106.0435800  68.5602710
 136.1543280  96.2366600  38.8343150 136.0737330  95.3221210  38.5634860
 135.7407700  96.7333670  38.1282860 134.2861320  98.0145620  40.7152420
 133.5103420  97.5346060  41.0050990 134.9374250  97.3351270  40.5408580
 138.3068750 102.4205810  39.4951550 137.8450280 101.6493050  39.8238720
 139.1194300 102.4471880  40.0004000 126.7119100  93.2867320  35.3770570
 125.8235800  93.6283290  35.2750450 126.9960290  93.0867640  34.4851400
 134.5332060 104.7063820  39.1155540 133.9143500 105.1621320  38.5449980
 135.3883840 104.8615280  38.7145240 133.7270310 100.6902810  40.7222580
 133.6578590  99.7492750  40.5611710 134.4890170 100.7804220  41.2945150
 134.7575480  93.4973190  40.9491510 135.1340300  92.6245070  40.8365180
 134.6594990  93.8331890  40.0581950 128.8880490  91.8698820  36.4108950
 128.9947240  92.7702550  36.7177710 127.9772850  91.8216790  36.1203600
 138.5399600  90.9923630  37.8819850 139.3609220  90.5020200  37.9245330
 138.5733680  91.5821290  38.6351690 130.7288220  94.8385190  40.7434130
 131.2366440  95.3366160  41.3839150 131.2601460  94.0620390  40.5673490
 142.8299150  93.0090380  44.4463480 142.1251320  93.3972090  43.9278590
 143.0957070  93.7040670  45.0484410 129.0124320  89.4783750  45.0097550
 129.0142760  89.9956140  44.2043450 128.1828630  89.0013930  44.9867480
 135.3995410  99.5903060  36.5087450 134.7812680 100.0552510  35.9450170
 135.9118660 100.2830540  36.9256960 138.7761080  92.9324010  40.6547390
 138.0716650  93.2208900  41.2350500 139.1373240  93.7424120  40.2946950
 124.7678610 100.2759590  33.8827080 124.3906590 100.7646690  33.1511980
 125.0251680 100.9484870  34.5133610 140.3923860 102.5499140  42.9174870
 139.7087380 103.2198250  42.9091540 140.9318150 102.7479790  42.1519730
 141.8448000  92.3778800  41.0456600 140.8972910  92.4117780  41.1772030
 142.1697990  93.1917750  41.4305960 132.3767540  88.6775980  39.3412590
 132.6842520  88.1222870  38.6248090 131.4468240  88.8120440  39.1585580
 137.9282600 104.3943270  41.6320050 137.9409760 103.9905560  40.7642310
 137.3757820 105.1690560  41.5281480 139.2228020 101.1159490  36.7210220
 139.1124350 100.1733820  36.8459640 139.2196270 101.4775130  37.6072980
 137.3268040  99.2973110  42.9602660 137.7436830  99.0833220  42.1256120
 138.0507860  99.5545900  43.5311280 134.7648300  96.7424810  36.0772710
 133.8377580  96.6762190  36.3061180 134.9173120  97.6804940  35.9627950
 134.7517380  93.0141810  33.0739870 133.8121050  93.1755770  33.1592330
 135.0700640  93.7327490  32.5275860 141.2730140  97.6960330  43.0518900
 140.4448770  97.7653420  42.5769030 141.8680620  98.2814640  42.5834730
 138.7945590  98.3045110  36.5807960 138.1758010  97.9664660  35.9334260
 138.7770040  97.6604870  37.2887150 138.2372150  94.4829650  43.9973770
 137.8243330  95.3083360  44.2513760 137.5048100  93.8974690  43.8050130
 130.3704940  97.2689550  38.8592440 129.9661940  96.5566800  38.3638340
 130.4568060  96.9242790  39.7480480 130.8386640 100.9557110  41.0231650
 130.5414930 100.3502580  40.3439430 131.7886460 100.9934420  40.9121010
 138.9272250 104.5288980  44.6854750 138.4502810 105.3361170  44.4927360
 138.2434040 103.8767310  44.8380960 129.9305070 100.6938800  47.6739450
 129.0333600 100.9178770  47.9212850 129.9557940 100.8173740  46.7250850
 136.9710290  97.5431920  33.5880710 137.4103570  96.7054350  33.4418530
 137.6838710  98.1761320  33.6744850 135.0805670 102.4827990  37.5561950
 135.5201580 103.2252320  37.1417340 135.0192560 102.7254560  38.4800910
 130.5556640 103.5073820  48.4581970 130.5272070 103.9116770  47.5910400
 130.3921610 102.5784180  48.2953570 140.5527430  88.7974730  31.9021750
 140.2400090  88.8901560  32.8020820 141.3139900  89.3755760  31.8519180
 127.0709570  96.1634530  36.3599090 126.9507170  96.8896620  35.7480360
 126.7610460  95.3937440  35.8827000 142.5071460 104.2900920  49.7546140
 142.9831180 104.7683810  50.4335220 143.1278620 104.2218410  49.0291640
 141.9104710 101.4813770  46.9146150 142.0367770 101.2425650  45.9963330
 141.9526090 100.6498310  47.3868230 135.7721450 105.1841770  45.4840960
 136.2866120 105.0949780  46.2863390 134.9290530 105.5301470  45.7768870
 137.7475850 105.4697110  34.9124960 137.5876990 105.1800050  35.8106790
 137.5822560 104.6937240  34.3770190 130.2264230 105.2495640  36.6896580
 130.0506710 104.3331180  36.4764380 129.3719970 105.6082930  36.9294380
 137.4501980 102.9784670  33.4722960 136.7567140 102.9761960  32.8125240
 138.1924840 102.5543990  33.0417130 137.0151910 104.6047380  37.5471450
 137.4708860 103.8236760  37.8610070 137.3544430 105.3154200  38.0912630
 141.7628720  93.5346230  47.8795890 141.1472990  94.0425900  47.3511350
 141.4425140  92.6344560  47.8221830 129.5373230  89.5069600  39.7422760
 129.0941380  90.2879140  39.4107280 130.0958220  89.8299490  40.4493700
 138.8247550  93.5947070  46.4754740 137.9741140  93.2952820  46.7963810
 138.6649340  93.8389080  45.5638560 135.9197260  95.0948820  48.5753530
 136.2450670  94.2612570  48.2355760 136.7077590  95.6177340  48.7231860
 132.6532050  89.1280300  34.6228590 132.0286230  89.1240170  35.3481900
 132.5662170  88.2611260  34.2264560 131.5749130  90.0516930  41.6012360
 131.8721460  90.9579760  41.5204380 132.1234690  89.5635710  40.9871930
 129.3287450  94.6303170  37.4704010 129.1028370  94.4140340  38.3750630
 128.5479980  95.0631630  37.1249980 136.5585210  94.6366540  36.0694660
 135.9594100  95.3602340  35.8858280 137.1064820  94.5743320  35.2871110
 135.1650080  93.2730080  38.0997940 135.5579650  93.5902280  37.2866630
 135.5266930  92.3941960  38.2142460 133.4742250  92.0237390  49.3594800
 132.7840570  91.8309590  49.9940890 134.2174550  92.3072030  49.8919100
 124.2014250  89.8630880  40.3228140 123.9127300  90.4333740  41.0353120
 124.9460010  89.3835330  40.6859370 124.3884480  93.8051000  31.5330860
 124.3059150  94.7481760  31.6745850 124.0367540  93.6625910  30.6543210
 135.7505220  95.8635830  42.1948720 135.0186340  96.3722640  42.5438820
 135.3529560  95.0465810  41.8937500 132.1882610  92.5390030  40.6001210
 132.1918670  92.0979980  39.7505750 133.0833730  92.8607360  40.7073030
 128.0384990  92.4216520  39.5595420 127.6985040  92.8991750  40.3162470
 127.2762310  91.9681640  39.1996520 132.2502760  93.5402110  33.5907970
 132.3715580  93.4988590  34.5393790 131.8651270  94.4026260  33.4354700
 136.2131130  91.3169510  41.6071660 136.2303870  91.7678160  42.4513510
 135.9646710  90.4175150  41.8205100 131.2624260  95.8503250  32.9891270
 130.6941160  95.4021500  32.3627180 131.9713260  96.2096030  32.4556420
 139.6401880  88.7301690  47.4458040 139.9647650  87.9991350  47.9716020
 139.6758390  88.4115330  46.5439030 132.4890580  96.5991810  42.3466620
 132.8560710  96.1250380  43.0927960 132.2995640  97.4733380  42.6874960
 125.3531070  91.3435500  38.4760090 125.0677990  90.9791170  39.3138710
 125.2909930  90.6115960  37.8623230 128.8071740  99.8461440  35.2617680
 128.0334000  99.3059060  35.1016400 129.5366370  99.3268050  34.9235440
 139.5659720  98.8426800  41.0544070 140.2858840  99.3382090  40.6640180
 139.3641540  98.1644690  40.4097940 135.0269660  90.2364760  35.1973460
 134.2134270  89.7377930  35.1218770 134.8331610  91.0763010  34.7809810
 134.9478520  98.9135860  46.9413070 134.8815830  97.9931530  46.6870660
 134.3183660  99.0111300  47.6557710 137.7418050  94.6084410  33.4935620
 138.6297670  94.9201640  33.3186960 137.7123140  93.7356660  33.1016200
 128.8509140  99.5141820  38.8996490 129.3687810  98.7110080  38.8453380
 128.3993160  99.4520960  39.7413320 133.7378640 100.7808100  34.1723790
 134.0794340 101.5250330  33.6767110 132.9091350 101.0939220  34.5348620
 134.8795250 101.7356430  46.6916870 134.8939790 100.8037390  46.4735780
 134.1720350 101.8216190  47.3306640 140.0132320  95.9196250  32.9615480
 139.9296040  96.3510470  32.1111920 140.7326510  96.3794600  33.3942300
 141.0906460  98.3763770  46.0385450 140.3654650  98.9692550  45.8414840
 141.6181920  98.3687310  45.2398820 141.0419570 102.7738510  35.6897610
 140.3995730 102.1194130  35.9641330 140.6550230 103.1793600  34.9138280
 136.6206050 100.1023940  39.5369300 136.9729870  99.5052070  38.8770670
 135.7368380  99.7768170  39.7077550 132.7069330 100.8621630  36.9439710
 133.3940460 101.4090840  37.3247300 131.9201750 101.4062360  36.9789320
 124.8461730  96.4794450  32.4356790 125.7156580  96.7619250  32.7192710
 124.3552050  97.2930320  32.3205600 132.0096540  97.8667660  36.5565070
 132.4659320  98.6772910  36.7825260 131.6584750  97.5490800  37.3883560
 134.3129150 103.3774000  43.7857370 134.9571370 103.5833380  44.4630790
 134.6758590 102.6162400  43.3328220 127.9108320  88.2105310  37.0287590
 127.7822950  88.2023210  37.9772510 127.0870340  88.5488400  36.6778600
 135.5861230 101.3806350  42.5034820 136.2283460 100.6799510  42.6166990
 136.1110580 102.1604790  42.3231710 139.4316950 101.6654970  32.2273960
 139.2054530 100.9485410  32.8198600 139.0413150 101.4167410  31.3895710
 137.3598850 102.1801250  45.7070880 137.6955090 102.7667940  46.3848800
 136.4399190 102.0493960  45.9368670 125.2132980 105.6921830  33.0018420
 125.5730620 106.2911170  32.3475690 125.0725320 106.2381720  33.7753450
 124.9102250  89.9696430  46.4894290 124.1960770  90.1693350  47.0946900
 125.3297290  89.1936000  46.8609090 139.0133200  99.5826910  33.8888120
 138.7254900 100.0439600  34.6766000 139.8085370  99.1224680  34.1572340
 125.1974840 103.9576690  47.4760820 125.3065960 103.0171430  47.3356210
 124.5455400 104.2231440  46.8274550 133.1887430 102.2292580  48.8758940
 132.8684300 101.5101820  49.4204630 132.5145790 102.9047650  48.9495000
 131.2301600 103.0753030  33.8192090 131.2211700 103.8082720  33.2036600
 130.3099960 102.8284610  33.9119050 126.8308240  98.2967920  34.5638850
 126.2236190  99.0366820  34.5734150 127.3057590  98.3867280  33.7377050
 136.4041030  92.4618740  44.2395740 136.7721850  91.6413950  44.5675310
 135.5439230  92.5220630  44.6551390 139.7703060  91.4175680  35.0483300
 139.1416220  91.5221350  34.3341530 139.2754980  91.6372460  35.8377180
 134.2161200 103.1381270  32.4817280 134.3173180 102.9345260  31.5519260
 133.3162940 102.8839550  32.6865060 131.7387090  93.6961630  36.4641180
 131.0303240  94.1647970  36.9054790 132.0231570  93.0383640  37.0986370
 133.3643020  95.1158330  44.4633710 133.8628270  95.5904150  45.1285560
 133.5065970  94.1921850  44.6703740 135.7702520  90.4212290  37.9036970
 135.6470300  90.4398420  36.9546480 136.7187080  90.4691230  38.0235370
 132.8579310 105.6567590  37.1764950 133.1120810 105.6188980  36.2544320
 131.9091790 105.5300920  37.1693200 129.9422110  92.0046710  33.8391890
 130.7912640  92.4416860  33.7732080 129.5753380  92.3166970  34.6663950
 140.5709880  91.3326290  45.3062100 140.0683480  92.0731690  45.6455910
 141.3866540  91.7210290  44.9898890 138.8631890  96.5759470  38.7523460
 137.9222030  96.5909700  38.9271150 139.1775960  95.7895430  39.1983760
 128.8413530  98.2579070  32.3127420 129.6076800  98.1460430  32.8752850
 128.9188220  97.5617040  31.6604190 127.5360290  95.6904140  32.9960310
 127.6163880  94.7431650  33.1077710 128.4280040  96.0211020  33.1020970
 140.8657470 103.7468320  40.4277720 140.9904890 104.5699490  40.9001530
 141.7323030 103.5359050  40.0801870 128.3375000 105.8399530  40.0994850
 129.0737480 105.2914990  40.3703420 128.7215920 106.7055540  39.9600840
 125.2220480 101.9073100  35.9736360 124.2960260 102.1494240  35.9641770
 125.6876910 102.7347360  35.8521110 127.3433280 105.0245600  49.2880430
 128.1446010 105.3457650  49.7015830 126.8285100 104.6641180  50.0100340
 131.4477310 105.0129840  31.9220420 132.2405920 105.3018670  31.4702210
 130.9281660 104.5822010  31.2432900 136.1797910 101.1325470  49.2355840
 135.5736070 101.1557070  48.4951590 135.8752020 100.4008510  49.7723090
 137.6098280 104.8605760  47.8465250 138.5620030 104.7763780  47.7965490
 137.4626500 105.5247470  48.5199040 140.5007480 104.2399970  33.3457160
 140.2148990 103.8265110  32.5311340 140.3027030 105.1687680  33.2257680
 125.0631090  97.5119060  48.2316480 125.5670110  96.9326340  48.8032710
 124.3238510  97.7959290  48.7692850 131.9654710 100.2333250  31.7862770
 131.8605350  99.6185600  32.5124150 131.7978930  99.7099140  31.0025780
 132.1169030  98.9190050  47.7652000 131.3514700  99.4875050  47.6806670
 132.2984990  98.6266260  46.8720230 135.2057440  99.2953280  32.3904760
 134.6567540  99.7422580  33.0347500 135.8276700  98.7902530  32.9142430
 139.2592380 100.6495380  48.3227020 140.0001850 100.9871140  47.8194480
 138.4965060 100.8187440  47.7696790 130.8732560  98.2544200  34.2870060
 131.2948980  98.0884070  35.1301450 130.9983400  97.4444430  33.7925200
 133.3860200  97.2781810  31.5347160 133.9065860  96.5630830  31.1688310
 134.0328600  97.9167680  31.8347670 137.9338040  98.7010210  46.8582230
 138.3479060  98.8555290  47.7072650 136.9989040  98.8265430  47.0208010
 138.4060210  96.0406370  48.8621380 138.9880980  95.2858690  48.7741860
 138.5821980  96.5713810  48.0852860 132.6953270  98.6530690  44.8278160
 133.1141380  99.4963420  44.6554400 131.7761900  98.7902730  44.5984940
 135.0317170  96.3846870  46.2116000 135.1513380  95.7888010  46.9510840
 135.8911170  96.4216560  45.7917300 137.3705070  96.9384060  44.7878510
 136.8440290  97.4626680  44.1843650 137.7136410  97.5711450  45.4188240
 129.7691460  94.3277430  31.2328220 129.5680520  93.4644790  31.5941560
 129.5983510  94.2410790  30.2949820 130.5460690 104.9583700  45.9435890
 130.0081780 105.6829760  45.6244590 130.7994650 104.4814040  45.1533230
 136.6179370  92.5434030  47.7024840 135.9294890  91.8815570  47.6374830
 137.3385390  92.0972300  48.1473300 137.2479770  89.1385660  33.7615100
 137.5282060  88.2953560  34.1174520 136.4745500  89.3708770  34.2753850
 128.5674260  91.4278050  31.2206100 128.8700160  91.4345480  30.3125250
 129.3068850  91.0775910  31.7173760 133.4022900 106.1934910  46.2022540
 133.3281600 107.0970050  46.5094910 132.5001740 105.8746810  46.1744610
 131.7859190  90.3712670  32.2062300 131.4381190  89.6936660  31.6264750
 131.9871960  89.9102180  33.0205690 133.9508230 105.3593420  33.8248900
 134.8459020 105.6978390  33.8467660 133.9825860 104.6372830  33.1973180
 127.5904390 100.7320470  32.0535900 128.0279260 101.2750140  32.7093480
 128.0752120  99.9067420  32.0632240 124.8050190 103.5209500  39.5056160
 125.1353200 102.6530560  39.2734800 125.2341190 103.7268020  40.3361120
 129.4012110 101.8518510  37.1658130 129.1007650 101.7283480  38.0662040
 129.2949600 100.9927100  36.7573860 125.2940400 104.3880090  42.2437790
 124.8571390 104.5680890  43.0761940 125.8618080 105.1454710  42.1019510
 140.9302580 103.8897090  46.5315100 140.3304570 103.9489650  45.7879020
 141.0596480 102.9502070  46.6611950 142.1704030 101.6314910  31.8684810
 141.3396990 101.6991560  32.3392040 142.3475860 102.5219030  31.5651670
 141.6260490  98.3762390  34.3719010 142.3879400  98.9459040  34.4778700
 141.6414860  97.8089590  35.1427320 142.6320460  99.2312490  39.2160940
 143.0029290  98.4479810  38.8096910 143.2722390  99.9201590  39.0378240
 139.6154220 100.6149070  44.6291260 138.8014060 101.0446230  44.8917050
 140.0228420 101.2267480  44.0160310 141.6779660  98.6696760  31.5291530
 141.9528500  99.5775640  31.4010750 141.4890400  98.6059290  32.4653520
 138.0755270  91.6941610  32.8245160 138.4940150  91.5072590  31.9841820
 137.7691330  90.8420660  33.1348090 141.5745000  96.6065750  36.5220960
 141.1988600  95.8393680  36.0902250 140.8448120  96.9888450  37.0095890
 140.9644620  95.7537270  46.1560480 140.7330710  95.5250020  45.2558430
 141.2249170  96.6736820  46.1105370 139.4032690  90.9793700  48.9340180
 140.2802870  90.9877100  49.3174180 139.4153530  90.2424540  48.3232530
 140.8495960  94.8323240  39.8228200 141.3733440  94.3385890  39.1918370
 141.4355380  94.9673600  40.5675770 141.0285680  94.9163110  43.3447750
 140.0788390  94.8826650  43.4592740 141.2098690  95.8263220  43.1097520
 126.8830120  93.1664790  32.4546380 127.5921820  92.7448010  31.9693660
 126.1670060  93.2340020  31.8229730 126.5304280  89.2204120  31.4949030
 127.2532410  89.7613060  31.8130250 126.8028800  88.9467540  30.6190570
 140.3395930  94.0896590  35.7620610 140.8355050  93.8567460  36.5469490
 140.1412000  93.2508430  35.3458250 126.2196470  88.4710310  41.3971650
 126.8672660  87.9207690  40.9566810 126.6398310  88.7253460  42.2187460
 141.7683090  92.7257540  38.2958290 141.6582370  92.5713580  39.2340560
 142.5290680  92.1978480  38.0533700 140.1148810  88.6651670  44.7541290
 140.7521030  89.2785810  45.1200480 140.2623700  88.7012330  43.8090520
 142.6573360  90.5565460  31.5364430 143.5822670  90.4246640  31.3282720
 142.6349150  90.6358280  32.4900880 142.7311850  91.3276120  34.1621140
 141.9363350  91.2621240  34.6914050 142.9355130  92.2626760  34.1506490
 139.6730270 105.3667670  38.1559530 140.2689340 105.0452240  37.4793950
 139.9308420 104.8939490  38.9472800 125.9728470  88.6265980  44.1396970
 125.6243290  89.0829800  44.9055150 125.6416170  87.7323110  44.2219400
 127.5792840 101.7985580  48.3050160 127.5362470 101.4278490  49.1864620
 127.7103850 102.7363150  48.4451980 131.2798870 103.3545170  43.9059880
 131.0390230 103.6219730  43.0190400 132.2201510 103.5250900  43.9610740
 142.5403030 105.3739550  44.7070520 142.0461310 105.7708420  43.9897650
 141.9316320 104.7488760  45.1007800 126.6449110  88.1542180  47.4147740
 127.1932100  87.9730230  46.6513850 126.7104420  87.3636290  47.9504050
 127.4180870 104.7447830  45.4247940 126.8241190 104.6132530  46.1637980
 127.4104710 103.9085970  44.9590040 136.8635890  88.0380060  43.6277970
 135.9895730  88.3715170  43.4250900 136.7546640  87.5653240  44.4529840
 137.7707870  90.2450930  45.0119690 137.4421230  89.4302690  44.6321420
 138.7190170  90.2020740  44.8885380 140.2242480 106.0162970  41.9857260
 139.7645450 106.7678780  41.6115280 139.5954940 105.2969440  41.9272060
 130.6538200 104.3251210  41.1605390 131.1703220 103.7138570  40.6353650
 131.3035580 104.8279990  41.6516400 133.3933700 105.2159700  41.9874370
 133.6811510 104.9614000  41.1107380 133.9056920 104.6637060  42.5779940
 134.6110710  88.9549900  42.5670880 133.8282500  89.4295400  42.8467640
 134.3173640  88.0504730  42.4584060 139.1631780  89.6573000  40.6119970
 139.6039870  89.6018100  39.7641570 138.8939370  90.5731010  40.6830150
 141.0270350  89.2888240  38.6228790 140.9658750  88.3449460  38.4759810
 141.8062380  89.3968330  39.1682250 125.3323100 105.4280600  37.5852740
 125.1645140 104.7951280  38.2834630 124.4657610 105.6340000  37.2346930
 125.9551120  89.2597380  35.0884600 126.7130480  89.3726260  34.5148630
 125.4928290  90.0966580  35.0428030 132.4964930  91.3736650  38.0786910
 131.6839440  90.9993540  37.7382790 133.0006570  90.6181730  38.3808100
 136.9989910  88.0379100  39.3169980 137.6019280  88.6099310  39.7918500
 136.2582900  88.6018540  39.0943880 140.1424510  88.4400660  34.5910260
 140.3375140  89.3384110  34.8577690 139.3554380  88.2087740  35.0843210
 126.9385800 104.1213830  35.0302880 126.4133420 104.5021860  34.3264840
 126.8630380 104.7464600  35.7512590 128.3276270  89.7861430  33.6286570
 128.8569030  88.9991230  33.4994520 128.9604590  90.4652620  33.8622100
 130.5214110  89.5236570  36.6831960 129.8916850  88.8223880  36.8502090
 129.9819250  90.2840700  36.4665120 133.4606060 106.1375800  49.3542570
 134.3873370 105.9020070  49.3978530 133.4456490 106.9647800  48.8728600
 141.6951120 105.6801370  36.3516820 141.8703310 104.9939110  35.7077740
 140.9972690 106.2048420  35.9593490 130.6469670  88.8020550  49.1184450
 130.3653940  89.3054150  48.3545270 131.0289370  88.0042300  48.7526580
 129.5378770 106.0696210  33.9052130 130.2697590 105.7855490  33.3576020
 129.7972440 105.8309490  34.7951510 128.6993560 102.1860940  33.9098460
 128.0702440 102.6546040  34.4584290 128.8141390 101.3410160  34.3444650
 137.2485130  88.2174130  49.6964920 137.1350580  88.5368740  50.5916440
 138.0654870  88.6186640  49.4002200 140.0283620 105.3645660  49.1783610
 140.8208940 104.8694890  48.9709570 140.3216770 106.0435800  49.7859220
 136.1543280  96.2366600  20.0599660 136.0737330  95.3221210  19.7891370
 135.7407700  96.7333670  19.3539370 134.2861320  98.0145620  21.9408930
 133.5103420  97.5346060  22.2307500 134.9374250  97.3351270  21.7665090
 128.3027150  98.3265430  22.8184690 127.4712030  98.0714140  23.2181200
 128.9108130  98.3976200  23.5542610 138.3068750 102.4205810  20.7208060
 137.8450280 101.6493050  21.0495230 139.1194300 102.4471880  21.2260510
 128.2828410 102.3605520  23.0142710 128.5856450 101.4703260  22.8352930
 129.0272000 102.9175740  22.7864960 126.7119100  93.2867320  16.6027080
 125.8235800  93.6283290  16.5006960 126.9960290  93.0867640  15.7107910
 124.6752110  95.8872970  22.4866780 125.2468220  95.1195170  22.4870420
 124.6753650  96.1861730  21.5773390 134.5332060 104.7063820  20.3412050
 133.9143500 105.1621320  19.7706490 135.3883840 104.8615280  19.9401750
 133.7270310 100.6902810  21.9479090 133.6578590  99.7492750  21.7868220
 134.4890170 100.7804220  22.5201660 125.9176980  91.2957330  24.2735710
 125.7379820  90.3983080  24.5538470 125.5157060  91.8429200  24.9482660
 134.7575480  93.4973190  22.1748020 135.1340300  92.6245070  22.0621690
 134.6594990  93.8331890  21.2838460 128.8880490  91.8698820  17.6365460
 128.9947240  92.7702550  17.9434220 127.9772850  91.8216790  17.3460110
 138.5399600  90.9923630  19.1076360 139.3609220  90.5020200  19.1501840
 138.5733680  91.5821290  19.8608200 126.5363650  93.7917830  22.8818050
 127.2173760  94.0556200  23.5005450 126.2211700  92.9518700  23.2156060
 130.7288220  94.8385190  21.9690640 131.2366440  95.3366160  22.6095660
 131.2601460  94.0620390  21.7930000 142.8299150  93.0090380  25.6719990
 142.1251320  93.3972090  25.1535100 143.0957070  93.7040670  26.2740920
 129.0124320  89.4783750  26.2354060 129.0142760  89.9956140  25.4299960
 128.1828630  89.0013930  26.2123990 135.3995410  99.5903060  17.7343960
 134.7812680 100.0552510  17.1706680 135.9118660 100.2830540  18.1513470
 130.2627170  99.1178930  24.4127560 129.9296550  99.7447850  25.0548630
 130.4393850  99.6440810  23.6329230 138.7761080  92.9324010  21.8803900
 138.0716650  93.2208900  22.4607010 139.1373240  93.7424120  21.5203460
 128.6939650  91.1893710  24.2424510 129.0356460  92.0335760  23.9478380
 127.7555460  91.3377450  24.3589850 129.4746270 101.0859730  26.2276740
 130.0920270 101.7610810  25.9461190 128.6139390 101.4947710  26.1364240
 124.7678610 100.2759590  15.1083590 124.3906590 100.7646690  14.3768490
 125.0251680 100.9484870  15.7390120 140.3923860 102.5499140  24.1431380
 139.7087380 103.2198250  24.1348050 140.9318150 102.7479790  23.3776240
 141.8448000  92.3778800  22.2713110 140.8972910  92.4117780  22.4028540
 142.1697990  93.1917750  22.6562470 132.3767540  88.6775980  20.5669100
 132.6842520  88.1222870  19.8504600 131.4468240  88.8120440  20.3842090
 137.9282600 104.3943270  22.8576560 137.9409760 103.9905560  21.9898820
 137.3757820 105.1690560  22.7537990 139.2228020 101.1159490  17.9466730
 139.1124350 100.1733820  18.0716150 139.2196270 101.4775130  18.8329490
 137.3268040  99.2973110  24.1859170 137.7436830  99.0833220  23.3512630
 138.0507860  99.5545900  24.7567790 134.7648300  96.7424810  17.3029220
 133.8377580  96.6762190  17.5317690 134.9173120  97.6804940  17.1884460
 134.7517380  93.0141810  14.2996380 133.8121050  93.1755770  14.3848840
 135.0700640  93.7327490  13.7532370 141.2730140  97.6960330  24.2775410
 140.4448770  97.7653420  23.8025540 141.8680620  98.2814640  23.8091240
 138.7945590  98.3045110  17.8064470 138.1758010  97.9664660  17.1590770
 138.7770040  97.6604870  18.5143660 138.2372150  94.4829650  25.2230280
 137.8243330  95.3083360  25.4770270 137.5048100  93.8974690  25.0306640
 130.3704940  97.2689550  20.0848950 129.9661940  96.5566800  19.5894850
 130.4568060  96.9242790  20.9736990 130.8386640 100.9557110  22.2488160
 130.5414930 100.3502580  21.5695940 131.7886460 100.9934420  22.1377520
 129.0833560  94.0432760  23.8647990 129.6348150  94.1528100  23.0901240
 129.5977070  94.4170360  24.5803220 138.9272250 104.5288980  25.9111260
 138.4502810 105.3361170  25.7183870 138.2434040 103.8767310  26.0637470
 129.9305070 100.6938800  28.8995960 129.0333600 100.9178770  29.1469360
 129.9557940 100.8173740  27.9507360 136.9710290  97.5431920  14.8137220
 137.4103570  96.7054350  14.6675040 137.6838710  98.1761320  14.9001360
 128.7576290  97.5652120  27.4753330 128.6184060  98.4374920  27.8440730
 127.8757650  97.2224930  27.3301270 135.0805670 102.4827990  18.7818460
 135.5201580 103.2252320  18.3673850 135.0192560 102.7254560  19.7057420
 130.5556640 103.5073820  29.6838480 130.5272070 103.9116770  28.8166910
 130.3921610 102.5784180  29.5210080 140.5527430  88.7974730  13.1278260
 140.2400090  88.8901560  14.0277330 141.3139900  89.3755760  13.0775690
 127.0709570  96.1634530  17.5855600 126.9507170  96.8896620  16.9736870
 126.7610460  95.3937440  17.1083510 142.5071460 104.2900920  30.9802650
 142.9831180 104.7683810  31.6591730 143.1278620 104.2218410  30.2548150
 124.7094940  99.3349670  23.3924240 124.7875360  99.4698440  22.4479960
 125.3236620  98.6265560  23.5852360 125.9542570 101.0349860  19.8030420
 125.5470650 101.1764450  18.9484020 126.8455580 100.7510020  19.6001630
 141.9104710 101.4813770  28.1402660 142.0367770 101.2425650  27.2219840
 141.9526090 100.6498310  28.6124740 135.7721450 105.1841770  26.7097470
 136.2866120 105.0949780  27.5119900 134.9290530 105.5301470  27.0025380
 137.7475850 105.4697110  16.1381470 137.5876990 105.1800050  17.0363300
 137.5822560 104.6937240  15.6026700 130.2264230 105.2495640  17.9153090
 130.0506710 104.3331180  17.7020890 129.3719970 105.6082930  18.1550890
 137.4501980 102.9784670  14.6979470 136.7567140 102.9761960  14.0381750
 138.1924840 102.5543990  14.2673640 137.0151910 104.6047380  18.7727960
 137.4708860 103.8236760  19.0866580 137.3544430 105.3154200  19.3169140
 141.7628720  93.5346230  29.1052400 141.1472990  94.0425900  28.5767860
 141.4425140  92.6344560  29.0478340 124.7654460 100.3763840  25.9318700
 124.9285500  99.9069200  25.1138070 125.2306910  99.8687400  26.5967540
 129.5373230  89.5069600  20.9679270 129.0941380  90.2879140  20.6363790
 130.0958220  89.8299490  21.6750210 133.8243040  92.3738120  26.5714590
 133.3622410  92.5821140  27.3834530 133.4221150  91.5597470  26.2685260
 138.8247550  93.5947070  27.7011250 137.9741140  93.2952820  28.0220320
 138.6649340  93.8389080  26.7895070 135.9197260  95.0948820  29.8010040
 136.2450670  94.2612570  29.4612270 136.7077590  95.6177340  29.9488370
 132.6532050  89.1280300  15.8485100 132.0286230  89.1240170  16.5738410
 132.5662170  88.2611260  15.4521070 131.5749130  90.0516930  22.8268870
 131.8721460  90.9579760  22.7460890 132.1234690  89.5635710  22.2128440
 129.3287450  94.6303170  18.6960520 129.1028370  94.4140340  19.6007140
 128.5479980  95.0631630  18.3506490 136.5585210  94.6366540  17.2951170
 135.9594100  95.3602340  17.1114790 137.1064820  94.5743320  16.5127620
 131.7686660  95.5288750  29.3620790 131.6730260  94.5883480  29.2121190
 132.6118640  95.7503820  28.9668860 135.1650080  93.2730080  19.3254450
 135.5579650  93.5902280  18.5123140 135.5266930  92.3941960  19.4398970
 126.8997200  91.9402420  27.5154570 126.5060590  92.7877630  27.7227350
 126.2115600  91.3028790  27.7063210 133.4742250  92.0237390  30.5851310
 132.7840570  91.8309590  31.2197400 134.2174550  92.3072030  31.1175610
 124.2014250  89.8630880  21.5484650 123.9127300  90.4333740  22.2609630
 124.9460010  89.3835330  21.9115880 124.3884480  93.8051000  12.7587370
 124.3059150  94.7481760  12.9002360 124.0367540  93.6625910  11.8799720
 135.7505220  95.8635830  23.4205230 135.0186340  96.3722640  23.7695330
 135.3529560  95.0465810  23.1194010 132.1882610  92.5390030  21.8257720
 132.1918670  92.0979980  20.9762260 133.0833730  92.8607360  21.9329540
 128.0384990  92.4216520  20.7851930 127.6985040  92.8991750  21.5418980
 127.2762310  91.9681640  20.4253030 132.2502760  93.5402110  14.8164480
 132.3715580  93.4988590  15.7650300 131.8651270  94.4026260  14.6611210
 136.2131130  91.3169510  22.8328170 136.2303870  91.7678160  23.6770020
 135.9646710  90.4175150  23.0461610 131.2624260  95.8503250  14.2147780
 130.6941160  95.4021500  13.5883690 131.9713260  96.2096030  13.6812930
 139.6401880  88.7301690  28.6714550 139.9647650  87.9991350  29.1972530
 139.6758390  88.4115330  27.7695540 126.3393440  99.7515270  28.0914510
 125.9548230  99.1108940  28.6897470 126.6505630 100.4551390  28.6609240
 132.4890580  96.5991810  23.5723130 132.8560710  96.1250380  24.3184470
 132.2995640  97.4733380  23.9131470 125.3531070  91.3435500  19.7016600
 125.0677990  90.9791170  20.5395220 125.2909930  90.6115960  19.0879740
 130.2789950  95.6400450  25.8907340 129.9747020  96.5192430  26.1157700
 131.2336410  95.7000240  25.9264780 128.8071740  99.8461440  16.4874190
 128.0334000  99.3059060  16.3272910 129.5366370  99.3268050  16.1491950
 139.5659720  98.8426800  22.2800580 140.2858840  99.3382090  21.8896690
 139.3641540  98.1644690  21.6354450 135.0269660  90.2364760  16.4229970
 134.2134270  89.7377930  16.3475280 134.8331610  91.0763010  16.0066320
 134.9478520  98.9135860  28.1669580 134.8815830  97.9931530  27.9127170
 134.3183660  99.0111300  28.8814220 137.7418050  94.6084410  14.7192130
 138.6297670  94.9201640  14.5443470 137.7123140  93.7356660  14.3272710
 128.8509140  99.5141820  20.1253000 129.3687810  98.7110080  20.0709890
 128.3993160  99.4520960  20.9669830 133.7378640 100.7808100  15.3980300
 134.0794340 101.5250330  14.9023620 132.9091350 101.0939220  15.7605130
 126.3353680  96.4803190  27.0378700 125.9768620  97.1457040  27.6252040
 126.0408240  95.6486740  27.4091320 129.5366800  96.9387430  29.9218250
 129.2366940  97.0844610  29.0246070 130.3078040  96.3792720  29.8291640
 134.8795250 101.7356430  27.9173380 134.8939790 100.8037390  27.6992290
 134.1720350 101.8216190  28.5563150 140.0132320  95.9196250  14.1871990
 139.9296040  96.3510470  13.3368430 140.7326510  96.3794600  14.6198810
 141.0906460  98.3763770  27.2641960 140.3654650  98.9692550  27.0671350
 141.6181920  98.3687310  26.4655330 141.0419570 102.7738510  16.9154120
 140.3995730 102.1194130  17.1897840 140.6550230 103.1793600  16.1394790
 136.6206050 100.1023940  20.7625810 136.9729870  99.5052070  20.1027180
 135.7368380  99.7768170  20.9334060 132.7069330 100.8621630  18.1696220
 133.3940460 101.4090840  18.5503810 131.9201750 101.4062360  18.2045830
 124.8461730  96.4794450  13.6613300 125.7156580  96.7619250  13.9449220
 124.3552050  97.2930320  13.5462110 132.0096540  97.8667660  17.7821580
 132.4659320  98.6772910  18.0081770 131.6584750  97.5490800  18.6140070
 134.3129150 103.3774000  25.0113880 134.9571370 103.5833380  25.6887300
 134.6758590 102.6162400  24.5584730 127.9108320  88.2105310  18.2544100
 127.7822950  88.2023210  19.2029020 127.0870340  88.5488400  17.9035110
 135.5861230 101.3806350  23.7291330 136.2283460 100.6799510  23.8423500
 136.1110580 102.1604790  23.5488220 139.4316950 101.6654970  13.4530470
 139.2054530 100.9485410  14.0455110 139.0413150 101.4167410  12.6152220
 137.3598850 102.1801250  26.9327390 137.6955090 102.7667940  27.6105310
 136.4399190 102.0493960  27.1625180 125.2132980 105.6921830  14.2274930
 125.5730620 106.2911170  13.5732200 125.0725320 106.2381720  15.0009960
 124.9102250  89.9696430  27.7150800 124.1960770  90.1693350  28.3203410
 125.3297290  89.1936000  28.0865600 139.0133200  99.5826910  15.1144630
 138.7254900 100.0439600  15.9022510 139.8085370  99.1224680  15.3828850
 125.1974840 103.9576690  28.7017330 125.3065960 103.0171430  28.5612720
 124.5455400 104.2231440  28.0531060 133.1887430 102.2292580  30.1015450
 132.8684300 101.5101820  30.6461140 132.5145790 102.9047650  30.1751510
 131.2301600 103.0753030  15.0448600 131.2211700 103.8082720  14.4293110
 130.3099960 102.8284610  15.1375560 126.8308240  98.2967920  15.7895360
 126.2236190  99.0366820  15.7990660 127.3057590  98.3867280  14.9633560
 136.4041030  92.4618740  25.4652250 136.7721850  91.6413950  25.7931820
 135.5439230  92.5220630  25.8807900 139.7703060  91.4175680  16.2739810
 139.1416220  91.5221350  15.5598040 139.2754980  91.6372460  17.0633690
 134.2161200 103.1381270  13.7073790 134.3173180 102.9345260  12.7775770
 133.3162940 102.8839550  13.9121570 131.7387090  93.6961630  17.6897690
 131.0303240  94.1647970  18.1311300 132.0231570  93.0383640  18.3242880
 133.3643020  95.1158330  25.6890220 133.8628270  95.5904150  26.3542070
 133.5065970  94.1921850  25.8960250 135.7702520  90.4212290  19.1293480
 135.6470300  90.4398420  18.1802990 136.7187080  90.4691230  19.2491880
 132.8579310 105.6567590  18.4021460 133.1120810 105.6188980  17.4800830
 131.9091790 105.5300920  18.3949710 129.9422110  92.0046710  15.0648400
 130.7912640  92.4416860  14.9988590 129.5753380  92.3166970  15.8920460
 140.5709880  91.3326290  26.5318610 140.0683480  92.0731690  26.8712420
 141.3866540  91.7210290  26.2155400 138.8631890  96.5759470  19.9779970
 137.9222030  96.5909700  20.1527660 139.1775960  95.7895430  20.4240270
 128.8413530  98.2579070  13.5383930 129.6076800  98.1460430  14.1009360
 128.9188220  97.5617040  12.8860700 127.5360290  95.6904140  14.2216820
 127.6163880  94.7431650  14.3334220 128.4280040  96.0211020  14.3277480
 140.8657470 103.7468320  21.6534230 140.9904890 104.5699490  22.1258040
 141.7323030 103.5359050  21.3058380 128.3375000 105.8399530  21.3251360
 129.0737480 105.2914990  21.5959930 128.7215920 106.7055540  21.1857350
 125.2220480 101.9073100  17.1992870 124.2960260 102.1494240  17.1898280
 125.6876910 102.7347360  17.0777620 127.3433280 105.0245600  30.5136940
 128.1446010 105.3457650  30.9272340 126.8285100 104.6641180  31.2356850
 131.4477310 105.0129840  13.1476930 132.2405920 105.3018670  12.6958720
 130.9281660 104.5822010  12.4689410 136.1797910 101.1325470  30.4612350
 135.5736070 101.1557070  29.7208100 135.8752020 100.4008510  30.9979600
 137.6098280 104.8605760  29.0721760 138.5620030 104.7763780  29.0222000
 137.4626500 105.5247470  29.7455550 140.5007480 104.2399970  14.5713670
 140.2148990 103.8265110  13.7567850 140.3027030 105.1687680  14.4514190
 125.0631090  97.5119060  29.4572990 125.5670110  96.9326340  30.0289220
 124.3238510  97.7959290  29.9949360 131.9654710 100.2333250  13.0119280
 131.8605350  99.6185600  13.7380660 131.7978930  99.7099140  12.2282290
 132.1169030  98.9190050  28.9908510 131.3514700  99.4875050  28.9063180
 132.2984990  98.6266260  28.0976740 135.2057440  99.2953280  13.6161270
 134.6567540  99.7422580  14.2604010 135.8276700  98.7902530  14.1398940
 139.2592380 100.6495380  29.5483530 140.0001850 100.9871140  29.0450990
 138.4965060 100.8187440  28.9953300 127.0954170  95.6548650  30.3523060
 127.1359510  95.3562520  31.2608290 127.9499670  96.0556260  30.1930580
 130.8732560  98.2544200  15.5126570 131.2948980  98.0884070  16.3557960
 130.9983400  97.4444430  15.0181710 129.0359980  94.2340750  28.3197550
 128.5056440  93.7431700  27.6920890 129.7048050  94.6624950  27.7855480
 133.3860200  97.2781810  12.7603670 133.9065860  96.5630830  12.3944820
 134.0328600  97.9167680  13.0604180 137.9338040  98.7010210  28.0838740
 138.3479060  98.8555290  28.9329160 136.9989040  98.8265430  28.2464520
 138.4060210  96.0406370  30.0877890 138.9880980  95.2858690  29.9998370
 138.5821980  96.5713810  29.3109370 129.5232280  91.2003120  28.3994840
 129.4289150  90.5823870  27.6745710 128.9429670  91.9269410  28.1724750
 132.2893720  89.7576360  25.4322230 131.8411020  89.7800620  24.5867780
 131.6558920  89.3595380  26.0292530 132.6953270  98.6530690  26.0534670
 133.1141380  99.4963420  25.8810910 131.7761900  98.7902730  25.8241450
 135.0317170  96.3846870  27.4372510 135.1513380  95.7888010  28.1767350
 135.8911170  96.4216560  27.0173810 137.3705070  96.9384060  26.0135020
 136.8440290  97.4626680  25.4100160 137.7136410  97.5711450  26.6444750
 129.7691460  94.3277430  12.4584730 129.5680520  93.4644790  12.8198070
 129.5983510  94.2410790  11.5206330 130.5460690 104.9583700  27.1692400
 130.0081780 105.6829760  26.8501100 130.7994650 104.4814040  26.3789740
 131.7985940  92.9268220  28.6948330 132.3885630  92.6184070  29.3826150
 130.9806180  92.4547970  28.8508230 136.6179370  92.5434030  28.9281350
 135.9294890  91.8815570  28.8631340 137.3385390  92.0972300  29.3729810
 137.2479770  89.1385660  14.9871610 137.5282060  88.2953560  15.3431030
 136.4745500  89.3708770  15.5010360 128.5674260  91.4278050  12.4462610
 128.8700160  91.4345480  11.5381760 129.3068850  91.0775910  12.9430270
 133.4022900 106.1934910  27.4279050 133.3281600 107.0970050  27.7351420
 132.5001740 105.8746810  27.4001120 131.7859190  90.3712670  13.4318810
 131.4381190  89.6936660  12.8521260 131.9871960  89.9102180  14.2462200
 133.9508230 105.3593420  15.0505410 134.8459020 105.6978390  15.0724170
 133.9825860 104.6372830  14.4229690 127.5904390 100.7320470  13.2792410
 128.0279260 101.2750140  13.9349990 128.0752120  99.9067420  13.2888750
 124.8050190 103.5209500  20.7312670 125.1353200 102.6530560  20.4991310
 125.2341190 103.7268020  21.5617630 129.4012110 101.8518510  18.3914640
 129.1007650 101.7283480  19.2918550 129.2949600 100.9927100  17.9830370
 125.2940400 104.3880090  23.4694300 124.8571390 104.5680890  24.3018450
 125.8618080 105.1454710  23.3276020 140.9302580 103.8897090  27.7571610
 140.3304570 103.9489650  27.0135530 141.0596480 102.9502070  27.8868460
 142.1704030 101.6314910  13.0941320 141.3396990 101.6991560  13.5648550
 142.3475860 102.5219030  12.7908180 141.6260490  98.3762390  15.5975520
 142.3879400  98.9459040  15.7035210 141.6414860  97.8089590  16.3683830
 125.1264830  96.9000320  19.8283180 124.4713670  96.6311960  19.1842880
 125.9642780  96.7904800  19.3785160 142.6320460  99.2312490  20.4417450
 143.0029290  98.4479810  20.0353420 143.2722390  99.9201590  20.2634750
 139.6154220 100.6149070  25.8547770 138.8014060 101.0446230  26.1173560
 140.0228420 101.2267480  25.2416820 141.6779660  98.6696760  12.7548040
 141.9528500  99.5775640  12.6267260 141.4890400  98.6059290  13.6910030
 138.0755270  91.6941610  14.0501670 138.4940150  91.5072590  13.2098330
 137.7691330  90.8420660  14.3604600 141.5745000  96.6065750  17.7477470
 141.1988600  95.8393680  17.3158760 140.8448120  96.9888450  18.2352400
 126.1640760  97.2852890  24.3686520 126.5313800  97.1980290  25.2482540
 125.5951580  96.5219440  24.2693380 140.9644620  95.7537270  27.3816990
 140.7330710  95.5250020  26.4814940 141.2249170  96.6736820  27.3361880
 125.7156760  94.1961980  28.2744940 124.8212810  94.1628740  28.6138650
 126.2554310  94.3948770  29.0396190 139.4032690  90.9793700  30.1596690
 140.2802870  90.9877100  30.5430690 139.4153530  90.2424540  29.5489040
 124.3402910  94.1099250  15.7708510 123.4366990  94.3729450  15.5960170
 124.8243530  94.3810420  14.9908470 140.8495960  94.8323240  21.0484710
 141.3733440  94.3385890  20.4174880 141.4355380  94.9673600  21.7932280
 141.0285680  94.9163110  24.5704260 140.0788390  94.8826650  24.6849250
 141.2098690  95.8263220  24.3354030 126.8830120  93.1664790  13.6802890
 127.5921820  92.7448010  13.1950170 126.1670060  93.2340020  13.0486240
 126.5304280  89.2204120  12.7205540 127.2532410  89.7613060  13.0386760
 126.8028800  88.9467540  11.8447080 140.3395930  94.0896590  16.9877120
 140.8355050  93.8567460  17.7726000 140.1412000  93.2508430  16.5714760
 126.2196470  88.4710310  22.6228160 126.8672660  87.9207690  22.1823320
 126.6398310  88.7253460  23.4443970 141.7683090  92.7257540  19.5214800
 141.6582370  92.5713580  20.4597070 142.5290680  92.1978480  19.2790210
 140.1148810  88.6651670  25.9797800 140.7521030  89.2785810  26.3456990
 140.2623700  88.7012330  25.0347030 142.6573360  90.5565460  12.7620940
 143.5822670  90.4246640  12.5539230 142.6349150  90.6358280  13.7157390
 142.7311850  91.3276120  15.3877650 141.9363350  91.2621240  15.9170560
 142.9355130  92.2626760  15.3763000 139.6730270 105.3667670  19.3816040
 140.2689340 105.0452240  18.7050460 139.9308420 104.8939490  20.1729310
 125.9728470  88.6265980  25.3653480 125.6243290  89.0829800  26.1311660
 125.6416170  87.7323110  25.4475910 127.5792840 101.7985580  29.5306670
 127.5362470 101.4278490  30.4121130 127.7103850 102.7363150  29.6708490
 131.2798870 103.3545170  25.1316390 131.0390230 103.6219730  24.2446910
 132.2201510 103.5250900  25.1867250 133.4853290  89.8177860  28.8872900
 133.4242180  90.4099690  29.6368310 134.4253670  89.7103820  28.7423160
 136.1227850  89.4747920  28.5265190 136.7368260  89.7927210  27.8646270
 136.6677410  88.9896510  29.1461050 142.5403030 105.3739550  25.9327030
 142.0461310 105.7708420  25.2154160 141.9316320 104.7488760  26.3264310
 126.6449110  88.1542180  28.6404250 127.1932100  87.9730230  27.8770360
 126.7104420  87.3636290  29.1760560 127.4180870 104.7447830  26.6504450
 126.8241190 104.6132530  27.3894490 127.4104710 103.9085970  26.1846550
 136.8635890  88.0380060  24.8534480 135.9895730  88.3715170  24.6507410
 136.7546640  87.5653240  25.6786350 137.7707870  90.2450930  26.2376200
 137.4421230  89.4302690  25.8577930 138.7190170  90.2020740  26.1141890
 140.2242480 106.0162970  23.2113770 139.7645450 106.7678780  22.8371790
 139.5954940 105.2969440  23.1528570 127.0493100 102.1106210  25.6012490
 126.3227160 101.4911500  25.5338440 127.1102250 102.5046820  24.7310570
 130.6538200 104.3251210  22.3861900 131.1703220 103.7138570  21.8610160
 131.3035580 104.8279990  22.8772910 133.3933700 105.2159700  23.2130880
 133.6811510 104.9614000  22.3363890 133.9056920 104.6637060  23.8036450
 134.6110710  88.9549900  23.7927390 133.8282500  89.4295400  24.0724150
 134.3173640  88.0504730  23.6840570 139.1631780  89.6573000  21.8376480
 139.6039870  89.6018100  20.9898080 138.8939370  90.5731010  21.9086660
 141.0270350  89.2888240  19.8485300 140.9658750  88.3449460  19.7016320
 141.8062380  89.3968330  20.3938760 125.3323100 105.4280600  18.8109250
 125.1645140 104.7951280  19.5091140 124.4657610 105.6340000  18.4603440
 125.9551120  89.2597380  16.3141110 126.7130480  89.3726260  15.7405140
 125.4928290  90.0966580  16.2684540 132.4964930  91.3736650  19.3043420
 131.6839440  90.9993540  18.9639300 133.0006570  90.6181730  19.6064610
 136.9989910  88.0379100  20.5426490 137.6019280  88.6099310  21.0175010
 136.2582900  88.6018540  20.3200390 140.1424510  88.4400660  15.8166770
 140.3375140  89.3384110  16.0834200 139.3554380  88.2087740  16.3099720
 126.9385800 104.1213830  16.2559390 126.4133420 104.5021860  15.5521350
 126.8630380 104.7464600  16.9769100 128.3276270  89.7861430  14.8543080
 128.8569030  88.9991230  14.7251030 128.9604590  90.4652620  15.0878610
 130.5214110  89.5236570  17.9088470 129.8916850  88.8223880  18.0758600
 129.9819250  90.2840700  17.6921630 133.4606060 106.1375800  30.5799080
 134.3873370 105.9020070  30.6235040 133.4456490 106.9647800  30.0985110
 141.6951120 105.6801370  17.5773330 141.8703310 104.9939110  16.9334250
 140.9972690 106.2048420  17.1850000 130.6469670  88.8020550  30.3440960
 130.3653940  89.3054150  29.5801780 131.0289370  88.0042300  29.9783090
 129.5378770 106.0696210  15.1308640 130.2697590 105.7855490  14.5832530
 129.7972440 105.8309490  16.0208020 128.6993560 102.1860940  15.1354970
 128.0702440 102.6546040  15.6840800 128.8141390 101.3410160  15.5701160
 137.2485130  88.2174130  30.9221430 137.1350580  88.5368740  31.8172950
 138.0654870  88.6186640  30.6258710 140.0283620 105.3645660  30.4040120
 140.8208940 104.8694890  30.1966080 140.3216770 106.0435800  31.0115730
 134.2861320  98.0145620   3.1665440 133.5103420  97.5346060   3.4564010
 134.9374250  97.3351270   2.9921600 128.3027150  98.3265430   4.0441200
 127.4712030  98.0714140   4.4437710 128.9108130  98.3976200   4.7799120
 138.3068750 102.4205810   1.9464570 137.8450280 101.6493050   2.2751740
 139.1194300 102.4471880   2.4517020 128.2828410 102.3605520   4.2399220
 128.5856450 101.4703260   4.0609440 129.0272000 102.9175740   4.0121470
 124.6752110  95.8872970   3.7123290 125.2468220  95.1195170   3.7126930
 124.6753650  96.1861730   2.8029900 133.7270310 100.6902810   3.1735600
 133.6578590  99.7492750   3.0124730 134.4890170 100.7804220   3.7458170
 125.9176980  91.2957330   5.4992220 125.7379820  90.3983080   5.7794980
 125.5157060  91.8429200   6.1739170 134.7575480  93.4973190   3.4004530
 135.1340300  92.6245070   3.2878200 134.6594990  93.8331890   2.5094970
 126.5363650  93.7917830   4.1074560 127.2173760  94.0556200   4.7261960
 126.2211700  92.9518700   4.4412570 130.7288220  94.8385190   3.1947150
 131.2366440  95.3366160   3.8352170 131.2601460  94.0620390   3.0186510
 142.8299150  93.0090380   6.8976500 142.1251320  93.3972090   6.3791610
 143.0957070  93.7040670   7.4997430 129.0124320  89.4783750   7.4610570
 129.0142760  89.9956140   6.6556470 128.1828630  89.0013930   7.4380500
 130.2627170  99.1178930   5.6384070 129.9296550  99.7447850   6.2805140
 130.4393850  99.6440810   4.8585740 138.7761080  92.9324010   3.1060410
 138.0716650  93.2208900   3.6863520 139.1373240  93.7424120   2.7459970
 128.6939650  91.1893710   5.4681020 129.0356460  92.0335760   5.1734890
 127.7555460  91.3377450   5.5846360 129.4746270 101.0859730   7.4533250
 130.0920270 101.7610810   7.1717700 128.6139390 101.4947710   7.3620750
 140.3923860 102.5499140   5.3687890 139.7087380 103.2198250   5.3604560
 140.9318150 102.7479790   4.6032750 141.8448000  92.3778800   3.4969620
 140.8972910  92.4117780   3.6285050 142.1697990  93.1917750   3.8818980
 137.9282600 104.3943270   4.0833070 137.9409760 103.9905560   3.2155330
 137.3757820 105.1690560   3.9794500 137.3268040  99.2973110   5.4115680
 137.7436830  99.0833220   4.5769140 138.0507860  99.5545900   5.9824300
 141.2730140  97.6960330   5.5031920 140.4448770  97.7653420   5.0282050
 141.8680620  98.2814640   5.0347750 138.2372150  94.4829650   6.4486790
 137.8243330  95.3083360   6.7026780 137.5048100  93.8974690   6.2563150
 130.8386640 100.9557110   3.4744670 130.5414930 100.3502580   2.7952450
 131.7886460 100.9934420   3.3634030 129.0833560  94.0432760   5.0904500
 129.6348150  94.1528100   4.3157750 129.5977070  94.4170360   5.8059730
 138.9272250 104.5288980   7.1367770 138.4502810 105.3361170   6.9440380
 138.2434040 103.8767310   7.2893980 129.9305070 100.6938800  10.1252470
 129.0333600 100.9178770  10.3725870 129.9557940 100.8173740   9.1763870
 128.7576290  97.5652120   8.7009840 128.6184060  98.4374920   9.0697240
 127.8757650  97.2224930   8.5557780 130.5556640 103.5073820  10.9094990
 130.5272070 103.9116770  10.0423420 130.3921610 102.5784180  10.7466590
 142.5071460 104.2900920  12.2059160 142.9831180 104.7683810  12.8848240
 143.1278620 104.2218410  11.4804660 124.7094940  99.3349670   4.6180750
 124.7875360  99.4698440   3.6736470 125.3236620  98.6265560   4.8108870
 141.9104710 101.4813770   9.3659170 142.0367770 101.2425650   8.4476350
 141.9526090 100.6498310   9.8381250 135.7721450 105.1841770   7.9353980
 136.2866120 105.0949780   8.7376410 134.9290530 105.5301470   8.2281890
 141.7628720  93.5346230  10.3308910 141.1472990  94.0425900   9.8024370
 141.4425140  92.6344560  10.2734850 124.7654460 100.3763840   7.1575210
 124.9285500  99.9069200   6.3394580 125.2306910  99.8687400   7.8224050
 129.5373230  89.5069600   2.1935780 129.0941380  90.2879140   1.8620300
 130.0958220  89.8299490   2.9006720 133.8243040  92.3738120   7.7971100
 133.3622410  92.5821140   8.6091040 133.4221150  91.5597470   7.4941770
 138.8247550  93.5947070   8.9267760 137.9741140  93.2952820   9.2476830
 138.6649340  93.8389080   8.0151580 135.9197260  95.0948820  11.0266550
 136.2450670  94.2612570  10.6868780 136.7077590  95.6177340  11.1744880
 131.5749130  90.0516930   4.0525380 131.8721460  90.9579760   3.9717400
 132.1234690  89.5635710   3.4384950 131.7686660  95.5288750  10.5877300
 131.6730260  94.5883480  10.4377700 132.6118640  95.7503820  10.1925370
 126.8997200  91.9402420   8.7411080 126.5060590  92.7877630   8.9483860
 126.2115600  91.3028790   8.9319720 133.4742250  92.0237390  11.8107820
 132.7840570  91.8309590  12.4453910 134.2174550  92.3072030  12.3432120
 124.2014250  89.8630880   2.7741160 123.9127300  90.4333740   3.4866140
 124.9460010  89.3835330   3.1372390 135.7505220  95.8635830   4.6461740
 135.0186340  96.3722640   4.9951840 135.3529560  95.0465810   4.3450520
 132.1882610  92.5390030   3.0514230 132.1918670  92.0979980   2.2018770
 133.0833730  92.8607360   3.1586050 128.0384990  92.4216520   2.0108440
 127.6985040  92.8991750   2.7675490 127.2762310  91.9681640   1.6509540
 136.2131130  91.3169510   4.0584680 136.2303870  91.7678160   4.9026530
 135.9646710  90.4175150   4.2718120 139.6401880  88.7301690   9.8971060
 139.9647650  87.9991350  10.4229040 139.6758390  88.4115330   8.9952050
 126.3393440  99.7515270   9.3171020 125.9548230  99.1108940   9.9153980
 126.6505630 100.4551390   9.8865750 132.4890580  96.5991810   4.7979640
 132.8560710  96.1250380   5.5440980 132.2995640  97.4733380   5.1387980
 130.2789950  95.6400450   7.1163850 129.9747020  96.5192430   7.3414210
 131.2336410  95.7000240   7.1521290 139.5659720  98.8426800   3.5057090
 140.2858840  99.3382090   3.1153200 139.3641540  98.1644690   2.8610960
 134.9478520  98.9135860   9.3926090 134.8815830  97.9931530   9.1383680
 134.3183660  99.0111300  10.1070730 126.3353680  96.4803190   8.2635210
 125.9768620  97.1457040   8.8508550 126.0408240  95.6486740   8.6347830
 129.5366800  96.9387430  11.1474760 129.2366940  97.0844610  10.2502580
 130.3078040  96.3792720  11.0548150 134.8795250 101.7356430   9.1429890
 134.8939790 100.8037390   8.9248800 134.1720350 101.8216190   9.7819660
 141.0906460  98.3763770   8.4898470 140.3654650  98.9692550   8.2927860
 141.6181920  98.3687310   7.6911840 134.3129150 103.3774000   6.2370390
 134.9571370 103.5833380   6.9143810 134.6758590 102.6162400   5.7841240
 135.5861230 101.3806350   4.9547840 136.2283460 100.6799510   5.0680010
 136.1110580 102.1604790   4.7744730 137.3598850 102.1801250   8.1583900
 137.6955090 102.7667940   8.8361820 136.4399190 102.0493960   8.3881690
 124.9102250  89.9696430   8.9407310 124.1960770  90.1693350   9.5459920
 125.3297290  89.1936000   9.3122110 125.1974840 103.9576690   9.9273840
 125.3065960 103.0171430   9.7869230 124.5455400 104.2231440   9.2787570
 133.1887430 102.2292580  11.3271960 132.8684300 101.5101820  11.8717650
 132.5145790 102.9047650  11.4008020 136.4041030  92.4618740   6.6908760
 136.7721850  91.6413950   7.0188330 135.5439230  92.5220630   7.1064410
 133.3643020  95.1158330   6.9146730 133.8628270  95.5904150   7.5798580
 133.5065970  94.1921850   7.1216760 140.5709880  91.3326290   7.7575120
 140.0683480  92.0731690   8.0968930 141.3866540  91.7210290   7.4411910
 140.8657470 103.7468320   2.8790740 140.9904890 104.5699490   3.3514550
 141.7323030 103.5359050   2.5314890 128.3375000 105.8399530   2.5507870
 129.0737480 105.2914990   2.8216440 128.7215920 106.7055540   2.4113860
 127.3433280 105.0245600  11.7393450 128.1446010 105.3457650  12.1528850
 126.8285100 104.6641180  12.4613360 136.1797910 101.1325470  11.6868860
 135.5736070 101.1557070  10.9464610 135.8752020 100.4008510  12.2236110
 137.6098280 104.8605760  10.2978270 138.5620030 104.7763780  10.2478510
 137.4626500 105.5247470  10.9712060 125.0631090  97.5119060  10.6829500
 125.5670110  96.9326340  11.2545730 124.3238510  97.7959290  11.2205870
 132.1169030  98.9190050  10.2165020 131.3514700  99.4875050  10.1319690
 132.2984990  98.6266260   9.3233250 139.2592380 100.6495380  10.7740040
 140.0001850 100.9871140  10.2707500 138.4965060 100.8187440  10.2209810
 127.0954170  95.6548650  11.5779570 127.1359510  95.3562520  12.4864800
 127.9499670  96.0556260  11.4187090 129.0359980  94.2340750   9.5454060
 128.5056440  93.7431700   8.9177400 129.7048050  94.6624950   9.0111990
 137.9338040  98.7010210   9.3095250 138.3479060  98.8555290  10.1585670
 136.9989040  98.8265430   9.4721030 138.4060210  96.0406370  11.3134400
 138.9880980  95.2858690  11.2254880 138.5821980  96.5713810  10.5365880
 129.5232280  91.2003120   9.6251350 129.4289150  90.5823870   8.9002220
 128.9429670  91.9269410   9.3981260 132.2893720  89.7576360   6.6578740
 131.8411020  89.7800620   5.8124290 131.6558920  89.3595380   7.2549040
 132.6953270  98.6530690   7.2791180 133.1141380  99.4963420   7.1067420
 131.7761900  98.7902730   7.0497960 135.0317170  96.3846870   8.6629020
 135.1513380  95.7888010   9.4023860 135.8911170  96.4216560   8.2430320
 137.3705070  96.9384060   7.2391530 136.8440290  97.4626680   6.6356670
 137.7136410  97.5711450   7.8701260 130.5460690 104.9583700   8.3948910
 130.0081780 105.6829760   8.0757610 130.7994650 104.4814040   7.6046250
 131.7985940  92.9268220   9.9204840 132.3885630  92.6184070  10.6082660
 130.9806180  92.4547970  10.0764740 136.6179370  92.5434030  10.1537860
 135.9294890  91.8815570  10.0887850 137.3385390  92.0972300  10.5986320
 133.4022900 106.1934910   8.6535560 133.3281600 107.0970050   8.9607930
 132.5001740 105.8746810   8.6257630 124.8050190 103.5209500   1.9569180
 125.1353200 102.6530560   1.7247820 125.2341190 103.7268020   2.7874140
 125.2940400 104.3880090   4.6950810 124.8571390 104.5680890   5.5274960
 125.8618080 105.1454710   4.5532530 140.9302580 103.8897090   8.9828120
 140.3304570 103.9489650   8.2392040 141.0596480 102.9502070   9.1124970
 139.6154220 100.6149070   7.0804280 138.8014060 101.0446230   7.3430070
 140.0228420 101.2267480   6.4673330 126.1640760  97.2852890   5.5943030
 126.5313800  97.1980290   6.4739050 125.5951580  96.5219440   5.4949890
 140.9644620  95.7537270   8.6073500 140.7330710  95.5250020   7.7071450
 141.2249170  96.6736820   8.5618390 125.7156760  94.1961980   9.5001450
 124.8212810  94.1628740   9.8395160 126.2554310  94.3948770  10.2652700
 139.4032690  90.9793700  11.3853200 140.2802870  90.9877100  11.7687200
 139.4153530  90.2424540  10.7745550 140.8495960  94.8323240   2.2741220
 141.3733440  94.3385890   1.6431390 141.4355380  94.9673600   3.0188790
 141.0285680  94.9163110   5.7960770 140.0788390  94.8826650   5.9105760
 141.2098690  95.8263220   5.5610540 126.2196470  88.4710310   3.8484670
 126.8672660  87.9207690   3.4079830 126.6398310  88.7253460   4.6700480
 140.1148810  88.6651670   7.2054310 140.7521030  89.2785810   7.5713500
 140.2623700  88.7012330   6.2603540 125.9728470  88.6265980   6.5909990
 125.6243290  89.0829800   7.3568170 125.6416170  87.7323110   6.6732420
 127.5792840 101.7985580  10.7563180 127.5362470 101.4278490  11.6377640
 127.7103850 102.7363150  10.8965000 131.2798870 103.3545170   6.3572900
 131.0390230 103.6219730   5.4703420 132.2201510 103.5250900   6.4123760
 133.4853290  89.8177860  10.1129410 133.4242180  90.4099690  10.8624820
 134.4253670  89.7103820   9.9679670 136.1227850  89.4747920   9.7521700
 136.7368260  89.7927210   9.0902780 136.6677410  88.9896510  10.3717560
 142.5403030 105.3739550   7.1583540 142.0461310 105.7708420   6.4410670
 141.9316320 104.7488760   7.5520820 126.6449110  88.1542180   9.8660760
 127.1932100  87.9730230   9.1026870 126.7104420  87.3636290  10.4017070
 127.4180870 104.7447830   7.8760960 126.8241190 104.6132530   8.6151000
 127.4104710 103.9085970   7.4103060 136.8635890  88.0380060   6.0790990
 135.9895730  88.3715170   5.8763920 136.7546640  87.5653240   6.9042860
 137.7707870  90.2450930   7.4632710 137.4421230  89.4302690   7.0834440
 138.7190170  90.2020740   7.3398400 140.2242480 106.0162970   4.4370280
 139.7645450 106.7678780   4.0628300 139.5954940 105.2969440   4.3785080
 127.0493100 102.1106210   6.8269000 126.3227160 101.4911500   6.7594950
 127.1102250 102.5046820   5.9567080 130.6538200 104.3251210   3.6118410
 131.1703220 103.7138570   3.0866670 131.3035580 104.8279990   4.1029420
 133.3933700 105.2159700   4.4387390 133.6811510 104.9614000   3.5620400
 133.9056920 104.6637060   5.0292960 134.6110710  88.9549900   5.0183900
 133.8282500  89.4295400   5.2980660 134.3173640  88.0504730   4.9097080
 139.1631780  89.6573000   3.0632990 139.6039870  89.6018100   2.2154590
 138.8939370  90.5731010   3.1343170 136.9989910  88.0379100   1.7683000
 137.6019280  88.6099310   2.2431520 136.2582900  88.6018540   1.5456900
 133.4606060 106.1375800  11.8055590 134.3873370 105.9020070  11.8491550
 133.4456490 106.9647800  11.3241620 130.6469670  88.8020550  11.5697470
 130.3653940  89.3054150  10.8058290 131.0289370  88.0042300  11.2039600
 137.2485130  88.2174130  12.1477940 137.1350580  88.5368740  13.0429460
 138.0654870  88.6186640  11.8515220 140.0283620 105.3645660  11.6296630
 140.8208940 104.8694890  11.4222590 140.3216770 106.0435800  12.2372240
 136.1543280  77.4623110 151.4804090 136.0737330  76.5477720 151.2095800
 135.7407700  77.9590180 150.7743800 134.2861320  79.2402130 153.3613360
 133.5103420  78.7602570 153.6511930 134.9374250  78.5607780 153.1869520
 138.3068750  83.6462320 152.1412490 137.8450280  82.8749560 152.4699660
 139.1194300  83.6728390 152.6464940 128.2828410  83.5862030 154.4347140
 128.5856450  82.6959770 154.2557360 129.0272000  84.1432250 154.2069390
 126.7119100  74.5123830 148.0231510 125.8235800  74.8539800 147.9211390
 126.9960290  74.3124150 147.1312340 124.6752110  77.1129480 153.9071210
 125.2468220  76.3451680 153.9074850 124.6753650  77.4118240 152.9977820
 134.5332060  85.9320330 151.7616480 133.9143500  86.3877830 151.1910920
 135.3883840  86.0871790 151.3606180 133.7270310  81.9159320 153.3683520
 133.6578590  80.9749260 153.2072650 134.4890170  82.0060730 153.9406090
 134.7575480  74.7229700 153.5952450 135.1340300  73.8501580 153.4826120
 134.6594990  75.0588400 152.7042890 128.8880490  73.0955330 149.0569890
 128.9947240  73.9959060 149.3638650 127.9772850  73.0473300 148.7664540
 138.5399600  72.2180140 150.5280790 139.3609220  71.7276710 150.5706270
 138.5733680  72.8077800 151.2812630 130.7288220  76.0641700 153.3895070
 131.2366440  76.5622670 154.0300090 131.2601460  75.2876900 153.2134430
 135.3995410  80.8159570 149.1548390 134.7812680  81.2809020 148.5911110
 135.9118660  81.5087050 149.5717900 138.7761080  74.1580520 153.3008330
 138.0716650  74.4465410 153.8811440 139.1373240  74.9680630 152.9407890
 124.7678610  81.5016100 146.5288020 124.3906590  81.9903200 145.7972920
 125.0251680  82.1741380 147.1594550 141.8448000  73.6035310 153.6917540
 140.8972910  73.6374290 153.8232970 142.1697990  74.4174260 154.0766900
 132.3767540  69.9032490 151.9873530 132.6842520  69.3479380 151.2709030
 131.4468240  70.0376950 151.8046520 137.9282600  85.6199780 154.2780990
 137.9409760  85.2162070 153.4103250 137.3757820  86.3947070 154.1742420
 139.2228020  82.3416000 149.3671160 139.1124350  81.3990330 149.4920580
 139.2196270  82.7031640 150.2533920 134.7648300  77.9681320 148.7233650
 133.8377580  77.9018700 148.9522120 134.9173120  78.9061450 148.6088890
 134.7517380  74.2398320 145.7200810 133.8121050  74.4012280 145.8053270
 135.0700640  74.9584000 145.1736800 138.7945590  79.5301620 149.2268900
 138.1758010  79.1921170 148.5795200 138.7770040  78.8861380 149.9348090
 130.3704940  78.4946060 151.5053380 129.9661940  77.7823310 151.0099280
 130.4568060  78.1499300 152.3941420 130.8386640  82.1813620 153.6692590
 130.5414930  81.5759090 152.9900370 131.7886460  82.2190930 153.5581950
 136.9710290  78.7688430 146.2341650 137.4103570  77.9310860 146.0879470
 137.6838710  79.4017830 146.3205790 135.0805670  83.7084500 150.2022890
 135.5201580  84.4508830 149.7878280 135.0192560  83.9511070 151.1261850
 140.5527430  70.0231240 144.5482690 140.2400090  70.1158070 145.4481760
 141.3139900  70.6012270 144.4980120 127.0709570  77.3891040 149.0060030
 126.9507170  78.1153130 148.3941300 126.7610460  76.6193950 148.5287940
 125.9542570  82.2606370 151.2234850 125.5470650  82.4020960 150.3688450
 126.8455580  81.9766530 151.0206060 137.7475850  86.6953620 147.5585900
 137.5876990  86.4056560 148.4567730 137.5822560  85.9193750 147.0231130
 130.2264230  86.4752150 149.3357520 130.0506710  85.5587690 149.1225320
 129.3719970  86.8339440 149.5755320 137.4501980  84.2041180 146.1183900
 136.7567140  84.2018470 145.4586180 138.1924840  83.7800500 145.6878070
 137.0151910  85.8303890 150.1932390 137.4708860  85.0493270 150.5071010
 137.3544430  86.5410710 150.7373570 129.5373230  70.7326110 152.3883700
 129.0941380  71.5135650 152.0568220 130.0958220  71.0556000 153.0954640
 132.6532050  70.3536810 147.2689530 132.0286230  70.3496680 147.9942840
 132.5662170  69.4867770 146.8725500 131.5749130  71.2773440 154.2473300
 131.8721460  72.1836270 154.1665320 132.1234690  70.7892220 153.6332870
 129.3287450  75.8559680 150.1164950 129.1028370  75.6396850 151.0211570
 128.5479980  76.2888140 149.7710920 136.5585210  75.8623050 148.7155600
 135.9594100  76.5858850 148.5319220 137.1064820  75.7999830 147.9332050
 135.1650080  74.4986590 150.7458880 135.5579650  74.8158790 149.9327570
 135.5266930  73.6198470 150.8603400 124.2014250  71.0887390 152.9689080
 123.9127300  71.6590250 153.6814060 124.9460010  70.6091840 153.3320310
 124.3884480  75.0307510 144.1791800 124.3059150  75.9738270 144.3206790
 124.0367540  74.8882420 143.3004150 132.1882610  73.7646540 153.2462150
 132.1918670  73.3236490 152.3966690 133.0833730  74.0863870 153.3533970
 128.0384990  73.6473030 152.2056360 127.6985040  74.1248260 152.9623410
 127.2762310  73.1938150 151.8457460 132.2502760  74.7658620 146.2368910
 132.3715580  74.7245100 147.1854730 131.8651270  75.6282770 146.0815640
 131.2624260  77.0759760 145.6352210 130.6941160  76.6278010 145.0088120
 131.9713260  77.4352540 145.1017360 125.3531070  72.5692010 151.1221030
 125.0677990  72.2047680 151.9599650 125.2909930  71.8372470 150.5084170
 128.8071740  81.0717950 147.9078620 128.0334000  80.5315570 147.7477340
 129.5366370  80.5524560 147.5696380 139.5659720  80.0683310 153.7005010
 140.2858840  80.5638600 153.3101120 139.3641540  79.3901200 153.0558880
 135.0269660  71.4621270 147.8434400 134.2134270  70.9634440 147.7679710
 134.8331610  72.3019520 147.4270750 137.7418050  75.8340920 146.1396560
 138.6297670  76.1458150 145.9647900 137.7123140  74.9613170 145.7477140
 128.8509140  80.7398330 151.5457430 129.3687810  79.9366590 151.4914320
 128.3993160  80.6777470 152.3874260 133.7378640  82.0064610 146.8184730
 134.0794340  82.7506840 146.3228050 132.9091350  82.3195730 147.1809560
 140.0132320  77.1452760 145.6076420 139.9296040  77.5766980 144.7572860
 140.7326510  77.6051110 146.0403240 141.0419570  83.9995020 148.3358550
 140.3995730  83.3450640 148.6102270 140.6550230  84.4050110 147.5599220
 136.6206050  81.3280450 152.1830240 136.9729870  80.7308580 151.5231610
 135.7368380  81.0024680 152.3538490 132.7069330  82.0878140 149.5900650
 133.3940460  82.6347350 149.9708240 131.9201750  82.6318870 149.6250260
 124.8461730  77.7050960 145.0817730 125.7156580  77.9875760 145.3653650
 124.3552050  78.5186830 144.9666540 132.0096540  79.0924170 149.2026010
 132.4659320  79.9029420 149.4286200 131.6584750  78.7747310 150.0344500
 127.9108320  69.4361820 149.6748530 127.7822950  69.4279720 150.6233450
 127.0870340  69.7744910 149.3239540 139.4316950  82.8911480 144.8734900
 139.2054530  82.1741920 145.4659540 139.0413150  82.6423920 144.0356650
 125.2132980  86.9178340 145.6479360 125.5730620  87.5167680 144.9936630
 125.0725320  87.4638230 146.4214390 139.0133200  80.8083420 146.5349060
 138.7254900  81.2696110 147.3226940 139.8085370  80.3481190 146.8033280
 131.2301600  84.3009540 146.4653030 131.2211700  85.0339230 145.8497540
 130.3099960  84.0541120 146.5579990 126.8308240  79.5224430 147.2099790
 126.2236190  80.2623330 147.2195090 127.3057590  79.6123790 146.3837990
 139.7703060  72.6432190 147.6944240 139.1416220  72.7477860 146.9802470
 139.2754980  72.8628970 148.4838120 134.2161200  84.3637780 145.1278220
 134.3173180  84.1601770 144.1980200 133.3162940  84.1096060 145.3326000
 131.7387090  74.9218140 149.1102120 131.0303240  75.3904480 149.5515730
 132.0231570  74.2640150 149.7447310 135.7702520  71.6468800 150.5497910
 135.6470300  71.6654930 149.6007420 136.7187080  71.6947740 150.6696310
 132.8579310  86.8824100 149.8225890 133.1120810  86.8445490 148.9005260
 131.9091790  86.7557430 149.8154140 129.9422110  73.2303220 146.4852830
 130.7912640  73.6673370 146.4193020 129.5753380  73.5423480 147.3124890
 138.8631890  77.8015980 151.3984400 137.9222030  77.8166210 151.5732090
 139.1775960  77.0151940 151.8444700 128.8413530  79.4835580 144.9588360
 129.6076800  79.3716940 145.5213790 128.9188220  78.7873550 144.3065130
 127.5360290  76.9160650 145.6421250 127.6163880  75.9688160 145.7538650
 128.4280040  77.2467530 145.7481910 140.8657470  84.9724830 153.0738660
 140.9904890  85.7956000 153.5462470 141.7323030  84.7615560 152.7262810
 128.3375000  87.0656040 152.7455790 129.0737480  86.5171500 153.0164360
 128.7215920  87.9312050 152.6061780 125.2220480  83.1329610 148.6197300
 124.2960260  83.3750750 148.6102710 125.6876910  83.9603870 148.4982050
 131.4477310  86.2386350 144.5681360 132.2405920  86.5275180 144.1163150
 130.9281660  85.8078520 143.8893840 140.5007480  85.4656480 145.9918100
 140.2148990  85.0521620 145.1772280 140.3027030  86.3944190 145.8718620
 131.9654710  81.4589760 144.4323710 131.8605350  80.8442110 145.1585090
 131.7978930  80.9355650 143.6486720 135.2057440  80.5209790 145.0365700
 134.6567540  80.9679090 145.6808440 135.8276700  80.0159040 145.5603370
 130.8732560  79.4800710 146.9331000 131.2948980  79.3140580 147.7762390
 130.9983400  78.6700940 146.4386140 133.3860200  78.5038320 144.1808100
 133.9065860  77.7887340 143.8149250 134.0328600  79.1424190 144.4808610
 129.7691460  75.5533940 143.8789160 129.5680520  74.6901300 144.2402500
 129.5983510  75.4667300 142.9410760 137.2479770  70.3642170 146.4076040
 137.5282060  69.5210070 146.7635460 136.4745500  70.5965280 146.9214790
 128.5674260  72.6534560 143.8667040 128.8700160  72.6601990 142.9586190
 129.3068850  72.3032420 144.3634700 131.7859190  71.5969180 144.8523240
 131.4381190  70.9193170 144.2725690 131.9871960  71.1358690 145.6666630
 133.9508230  86.5849930 146.4709840 134.8459020  86.9234900 146.4928600
 133.9825860  85.8629340 145.8434120 127.5904390  81.9576980 144.6996840
 128.0279260  82.5006650 145.3554420 128.0752120  81.1323930 144.7093180
 124.8050190  84.7466010 152.1517100 125.1353200  83.8787070 151.9195740
 125.2341190  84.9524530 152.9822060 129.4012110  83.0775020 149.8119070
 129.1007650  82.9539990 150.7122980 129.2949600  82.2183610 149.4034800
 142.1704030  82.8571420 144.5145750 141.3396990  82.9248070 144.9852980
 142.3475860  83.7475540 144.2112610 141.6260490  79.6018900 147.0179950
 142.3879400  80.1715550 147.1239640 141.6414860  79.0346100 147.7888260
 125.1264830  78.1256830 151.2487610 124.4713670  77.8568470 150.6047310
 125.9642780  78.0161310 150.7989590 142.6320460  80.4569000 151.8621880
 143.0029290  79.6736320 151.4557850 143.2722390  81.1458100 151.6839180
 141.6779660  79.8953270 144.1752470 141.9528500  80.8032150 144.0471690
 141.4890400  79.8315800 145.1114460 138.0755270  72.9198120 145.4706100
 138.4940150  72.7329100 144.6302760 137.7691330  72.0677170 145.7809030
 141.5745000  77.8322260 149.1681900 141.1988600  77.0650190 148.7363190
 140.8448120  78.2144960 149.6556830 124.3402910  75.3355760 147.1912940
 123.4366990  75.5985960 147.0164600 124.8243530  75.6066930 146.4112900
 140.8495960  76.0579750 152.4689140 141.3733440  75.5642400 151.8379310
 141.4355380  76.1930110 153.2136710 126.8830120  74.3921300 145.1007320
 127.5921820  73.9704520 144.6154600 126.1670060  74.4596530 144.4690670
 126.5304280  70.4460630 144.1409970 127.2532410  70.9869570 144.4591190
 126.8028800  70.1724050 143.2651510 140.3395930  75.3153100 148.4081550
 140.8355050  75.0823970 149.1930430 140.1412000  74.4764940 147.9919190
 141.7683090  73.9514050 150.9419230 141.6582370  73.7970090 151.8801500
 142.5290680  73.4234990 150.6994640 142.6573360  71.7821970 144.1825370
 143.5822670  71.6503150 143.9743660 142.6349150  71.8614790 145.1361820
 142.7311850  72.5532630 146.8082080 141.9363350  72.4877750 147.3374990
 142.9355130  73.4883270 146.7967430 139.6730270  86.5924180 150.8020470
 140.2689340  86.2708750 150.1254890 139.9308420  86.1196000 151.5933740
 130.6538200  85.5507720 153.8066330 131.1703220  84.9395080 153.2814590
 131.3035580  86.0536500 154.2977340 139.1631780  70.8829510 153.2580910
 139.6039870  70.8274610 152.4102510 138.8939370  71.7987520 153.3291090
 141.0270350  70.5144750 151.2689730 140.9658750  69.5705970 151.1220750
 141.8062380  70.6224840 151.8143190 125.3323100  86.6537110 150.2313680
 125.1645140  86.0207790 150.9295570 124.4657610  86.8596510 149.8807870
 125.9551120  70.4853890 147.7345540 126.7130480  70.5982770 147.1609570
 125.4928290  71.3223090 147.6888970 132.4964930  72.5993160 150.7247850
 131.6839440  72.2250050 150.3843730 133.0006570  71.8438240 151.0269040
 136.9989910  69.2635610 151.9630920 137.6019280  69.8355820 152.4379440
 136.2582900  69.8275050 151.7404820 140.1424510  69.6657170 147.2371200
 140.3375140  70.5640620 147.5038630 139.3554380  69.4344250 147.7304150
 126.9385800  85.3470340 147.6763820 126.4133420  85.7278370 146.9725780
 126.8630380  85.9721110 148.3973530 128.3276270  71.0117940 146.2747510
 128.8569030  70.2247740 146.1455460 128.9604590  71.6909130 146.5083040
 130.5214110  70.7493080 149.3292900 129.8916850  70.0480390 149.4963030
 129.9819250  71.5097210 149.1126060 141.6951120  86.9057880 148.9977760
 141.8703310  86.2195620 148.3538680 140.9972690  87.4304930 148.6054430
 129.5378770  87.2952720 146.5513070 130.2697590  87.0112000 146.0036960
 129.7972440  87.0566000 147.4412450 128.6993560  83.4117450 146.5559400
 128.0702440  83.8802550 147.1045230 128.8141390  82.5666670 146.9905590
 136.1543280  77.4623110 132.7060600 136.0737330  76.5477720 132.4352310
 135.7407700  77.9590180 132.0000310 134.2861320  79.2402130 134.5869870
 133.5103420  78.7602570 134.8768440 134.9374250  78.5607780 134.4126030
 128.3027150  79.5521940 135.4645630 127.4712030  79.2970650 135.8642140
 128.9108130  79.6232710 136.2003550 138.3068750  83.6462320 133.3669000
 137.8450280  82.8749560 133.6956170 139.1194300  83.6728390 133.8721450
 128.2828410  83.5862030 135.6603650 128.5856450  82.6959770 135.4813870
 129.0272000  84.1432250 135.4325900 126.7119100  74.5123830 129.2488020
 125.8235800  74.8539800 129.1467900 126.9960290  74.3124150 128.3568850
 124.6752110  77.1129480 135.1327720 125.2468220  76.3451680 135.1331360
 124.6753650  77.4118240 134.2234330 134.5332060  85.9320330 132.9872990
 133.9143500  86.3877830 132.4167430 135.3883840  86.0871790 132.5862690
 133.7270310  81.9159320 134.5940030 133.6578590  80.9749260 134.4329160
 134.4890170  82.0060730 135.1662600 125.9176980  72.5213840 136.9196650
 125.7379820  71.6239590 137.1999410 125.5157060  73.0685710 137.5943600
 134.7575480  74.7229700 134.8208960 135.1340300  73.8501580 134.7082630
 134.6594990  75.0588400 133.9299400 128.8880490  73.0955330 130.2826400
 128.9947240  73.9959060 130.5895160 127.9772850  73.0473300 129.9921050
 138.5399600  72.2180140 131.7537300 139.3609220  71.7276710 131.7962780
 138.5733680  72.8077800 132.5069140 126.5363650  75.0174340 135.5278990
 127.2173760  75.2812710 136.1466390 126.2211700  74.1775210 135.8617000
 130.7288220  76.0641700 134.6151580 131.2366440  76.5622670 135.2556600
 131.2601460  75.2876900 134.4390940 142.8299150  74.2346890 138.3180930
 142.1251320  74.6228600 137.7996040 143.0957070  74.9297180 138.9201860
 129.0124320  70.7040260 138.8815000 129.0142760  71.2212650 138.0760900
 128.1828630  70.2270440 138.8584930 135.3995410  80.8159570 130.3804900
 134.7812680  81.2809020 129.8167620 135.9118660  81.5087050 130.7974410
 130.2627170  80.3435440 137.0588500 129.9296550  80.9704360 137.7009570
 130.4393850  80.8697320 136.2790170 138.7761080  74.1580520 134.5264840
 138.0716650  74.4465410 135.1067950 139.1373240  74.9680630 134.1664400
 128.6939650  72.4150220 136.8885450 129.0356460  73.2592270 136.5939320
 127.7555460  72.5633960 137.0050790 129.4746270  82.3116240 138.8737680
 130.0920270  82.9867320 138.5922130 128.6139390  82.7204220 138.7825180
 124.7678610  81.5016100 127.7544530 124.3906590  81.9903200 127.0229430
 125.0251680  82.1741380 128.3851060 140.3923860  83.7755650 136.7892320
 139.7087380  84.4454760 136.7808990 140.9318150  83.9736300 136.0237180
 141.8448000  73.6035310 134.9174050 140.8972910  73.6374290 135.0489480
 142.1697990  74.4174260 135.3023410 132.3767540  69.9032490 133.2130040
 132.6842520  69.3479380 132.4965540 131.4468240  70.0376950 133.0303030
 137.9282600  85.6199780 135.5037500 137.9409760  85.2162070 134.6359760
 137.3757820  86.3947070 135.3998930 139.2228020  82.3416000 130.5927670
 139.1124350  81.3990330 130.7177090 139.2196270  82.7031640 131.4790430
 137.3268040  80.5229620 136.8320110 137.7436830  80.3089730 135.9973570
 138.0507860  80.7802410 137.4028730 134.7648300  77.9681320 129.9490160
 133.8377580  77.9018700 130.1778630 134.9173120  78.9061450 129.8345400
 134.7517380  74.2398320 126.9457320 133.8121050  74.4012280 127.0309780
 135.0700640  74.9584000 126.3993310 141.2730140  78.9216840 136.9236350
 140.4448770  78.9909930 136.4486480 141.8680620  79.5071150 136.4552180
 138.7945590  79.5301620 130.4525410 138.1758010  79.1921170 129.8051710
 138.7770040  78.8861380 131.1604600 138.2372150  75.7086160 137.8691220
 137.8243330  76.5339870 138.1231210 137.5048100  75.1231200 137.6767580
 130.3704940  78.4946060 132.7309890 129.9661940  77.7823310 132.2355790
 130.4568060  78.1499300 133.6197930 130.8386640  82.1813620 134.8949100
 130.5414930  81.5759090 134.2156880 131.7886460  82.2190930 134.7838460
 129.0833560  75.2689270 136.5108930 129.6348150  75.3784610 135.7362180
 129.5977070  75.6426870 137.2264160 138.9272250  85.7545490 138.5572200
 138.4502810  86.5617680 138.3644810 138.2434040  85.1023820 138.7098410
 129.9305070  81.9195310 141.5456900 129.0333600  82.1435280 141.7930300
 129.9557940  82.0430250 140.5968300 136.9710290  78.7688430 127.4598160
 137.4103570  77.9310860 127.3135980 137.6838710  79.4017830 127.5462300
 128.7576290  78.7908630 140.1214270 128.6184060  79.6631430 140.4901670
 127.8757650  78.4481440 139.9762210 135.0805670  83.7084500 131.4279400
 135.5201580  84.4508830 131.0134790 135.0192560  83.9511070 132.3518360
 130.5556640  84.7330330 142.3299420 130.5272070  85.1373280 141.4627850
 130.3921610  83.8040690 142.1671020 140.5527430  70.0231240 125.7739200
 140.2400090  70.1158070 126.6738270 141.3139900  70.6012270 125.7236630
 127.0709570  77.3891040 130.2316540 126.9507170  78.1153130 129.6197810
 126.7610460  76.6193950 129.7544450 142.5071460  85.5157430 143.6263590
 142.9831180  85.9940320 144.3052670 143.1278620  85.4474920 142.9009090
 124.7094940  80.5606180 136.0385180 124.7875360  80.6954950 135.0940900
 125.3236620  79.8522070 136.2313300 125.9542570  82.2606370 132.4491360
 125.5470650  82.4020960 131.5944960 126.8455580  81.9766530 132.2462570
 141.9104710  82.7070280 140.7863600 142.0367770  82.4682160 139.8680780
 141.9526090  81.8754820 141.2585680 135.7721450  86.4098280 139.3558410
 136.2866120  86.3206290 140.1580840 134.9290530  86.7557980 139.6486320
 137.7475850  86.6953620 128.7842410 137.5876990  86.4056560 129.6824240
 137.5822560  85.9193750 128.2487640 130.2264230  86.4752150 130.5614030
 130.0506710  85.5587690 130.3481830 129.3719970  86.8339440 130.8011830
 137.4501980  84.2041180 127.3440410 136.7567140  84.2018470 126.6842690
 138.1924840  83.7800500 126.9134580 137.0151910  85.8303890 131.4188900
 137.4708860  85.0493270 131.7327520 137.3544430  86.5410710 131.9630080
 141.7628720  74.7602740 141.7513340 141.1472990  75.2682410 141.2228800
 141.4425140  73.8601070 141.6939280 124.7654460  81.6020350 138.5779640
 124.9285500  81.1325710 137.7599010 125.2306910  81.0943910 139.2428480
 129.5373230  70.7326110 133.6140210 129.0941380  71.5135650 133.2824730
 130.0958220  71.0556000 134.3211150 133.8243040  73.5994630 139.2175530
 133.3622410  73.8077650 140.0295470 133.4221150  72.7853980 138.9146200
 138.8247550  74.8203580 140.3472190 137.9741140  74.5209330 140.6681260
 138.6649340  75.0645590 139.4356010 135.9197260  76.3205330 142.4470980
 136.2450670  75.4869080 142.1073210 136.7077590  76.8433850 142.5949310
 132.6532050  70.3536810 128.4946040 132.0286230  70.3496680 129.2199350
 132.5662170  69.4867770 128.0982010 131.5749130  71.2773440 135.4729810
 131.8721460  72.1836270 135.3921830 132.1234690  70.7892220 134.8589380
 129.3287450  75.8559680 131.3421460 129.1028370  75.6396850 132.2468080
 128.5479980  76.2888140 130.9967430 136.5585210  75.8623050 129.9412110
 135.9594100  76.5858850 129.7575730 137.1064820  75.7999830 129.1588560
 131.7686660  76.7545260 142.0081730 131.6730260  75.8139990 141.8582130
 132.6118640  76.9760330 141.6129800 135.1650080  74.4986590 131.9715390
 135.5579650  74.8158790 131.1584080 135.5266930  73.6198470 132.0859910
 126.8997200  73.1658930 140.1615510 126.5060590  74.0134140 140.3688290
 126.2115600  72.5285300 140.3524150 133.4742250  73.2493900 143.2312250
 132.7840570  73.0566100 143.8658340 134.2174550  73.5328540 143.7636550
 124.2014250  71.0887390 134.1945590 123.9127300  71.6590250 134.9070570
 124.9460010  70.6091840 134.5576820 124.3884480  75.0307510 125.4048310
 124.3059150  75.9738270 125.5463300 124.0367540  74.8882420 124.5260660
 135.7505220  77.0892340 136.0666170 135.0186340  77.5979150 136.4156270
 135.3529560  76.2722320 135.7654950 132.1882610  73.7646540 134.4718660
 132.1918670  73.3236490 133.6223200 133.0833730  74.0863870 134.5790480
 128.0384990  73.6473030 133.4312870 127.6985040  74.1248260 134.1879920
 127.2762310  73.1938150 133.0713970 132.2502760  74.7658620 127.4625420
 132.3715580  74.7245100 128.4111240 131.8651270  75.6282770 127.3072150
 136.2131130  72.5426020 135.4789110 136.2303870  72.9934670 136.3230960
 135.9646710  71.6431660 135.6922550 131.2624260  77.0759760 126.8608720
 130.6941160  76.6278010 126.2344630 131.9713260  77.4352540 126.3273870
 139.6401880  69.9558200 141.3175490 139.9647650  69.2247860 141.8433470
 139.6758390  69.6371840 140.4156480 126.3393440  80.9771780 140.7375450
 125.9548230  80.3365450 141.3358410 126.6505630  81.6807900 141.3070180
 132.4890580  77.8248320 136.2184070 132.8560710  77.3506890 136.9645410
 132.2995640  78.6989890 136.5592410 125.3531070  72.5692010 132.3477540
 125.0677990  72.2047680 133.1856160 125.2909930  71.8372470 131.7340680
 130.2789950  76.8656960 138.5368280 129.9747020  77.7448940 138.7618640
 131.2336410  76.9256750 138.5725720 128.8071740  81.0717950 129.1335130
 128.0334000  80.5315570 128.9733850 129.5366370  80.5524560 128.7952890
 139.5659720  80.0683310 134.9261520 140.2858840  80.5638600 134.5357630
 139.3641540  79.3901200 134.2815390 135.0269660  71.4621270 129.0690910
 134.2134270  70.9634440 128.9936220 134.8331610  72.3019520 128.6527260
 134.9478520  80.1392370 140.8130520 134.8815830  79.2188040 140.5588110
 134.3183660  80.2367810 141.5275160 137.7418050  75.8340920 127.3653070
 138.6297670  76.1458150 127.1904410 137.7123140  74.9613170 126.9733650
 128.8509140  80.7398330 132.7713940 129.3687810  79.9366590 132.7170830
 128.3993160  80.6777470 133.6130770 133.7378640  82.0064610 128.0441240
 134.0794340  82.7506840 127.5484560 132.9091350  82.3195730 128.4066070
 126.3353680  77.7059700 139.6839640 125.9768620  78.3713550 140.2712980
 126.0408240  76.8743250 140.0552260 129.5366800  78.1643940 142.5679190
 129.2366940  78.3101120 141.6707010 130.3078040  77.6049230 142.4752580
 134.8795250  82.9612940 140.5634320 134.8939790  82.0293900 140.3453230
 134.1720350  83.0472700 141.2024090 140.0132320  77.1452760 126.8332930
 139.9296040  77.5766980 125.9829370 140.7326510  77.6051110 127.2659750
 141.0906460  79.6020280 139.9102900 140.3654650  80.1949060 139.7132290
 141.6181920  79.5943820 139.1116270 141.0419570  83.9995020 129.5615060
 140.3995730  83.3450640 129.8358780 140.6550230  84.4050110 128.7855730
 136.6206050  81.3280450 133.4086750 136.9729870  80.7308580 132.7488120
 135.7368380  81.0024680 133.5795000 132.7069330  82.0878140 130.8157160
 133.3940460  82.6347350 131.1964750 131.9201750  82.6318870 130.8506770
 124.8461730  77.7050960 126.3074240 125.7156580  77.9875760 126.5910160
 124.3552050  78.5186830 126.1923050 132.0096540  79.0924170 130.4282520
 132.4659320  79.9029420 130.6542710 131.6584750  78.7747310 131.2601010
 134.3129150  84.6030510 137.6574820 134.9571370  84.8089890 138.3348240
 134.6758590  83.8418910 137.2045670 127.9108320  69.4361820 130.9005040
 127.7822950  69.4279720 131.8489960 127.0870340  69.7744910 130.5496050
 135.5861230  82.6062860 136.3752270 136.2283460  81.9056020 136.4884440
 136.1110580  83.3861300 136.1949160 139.4316950  82.8911480 126.0991410
 139.2054530  82.1741920 126.6916050 139.0413150  82.6423920 125.2613160
 137.3598850  83.4057760 139.5788330 137.6955090  83.9924450 140.2566250
 136.4399190  83.2750470 139.8086120 125.2132980  86.9178340 126.8735870
 125.5730620  87.5167680 126.2193140 125.0725320  87.4638230 127.6470900
 124.9102250  71.1952940 140.3611740 124.1960770  71.3949860 140.9664350
 125.3297290  70.4192510 140.7326540 139.0133200  80.8083420 127.7605570
 138.7254900  81.2696110 128.5483450 139.8085370  80.3481190 128.0289790
 125.1974840  85.1833200 141.3478270 125.3065960  84.2427940 141.2073660
 124.5455400  85.4487950 140.6992000 133.1887430  83.4549090 142.7476390
 132.8684300  82.7358330 143.2922080 132.5145790  84.1304160 142.8212450
 131.2301600  84.3009540 127.6909540 131.2211700  85.0339230 127.0754050
 130.3099960  84.0541120 127.7836500 126.8308240  79.5224430 128.4356300
 126.2236190  80.2623330 128.4451600 127.3057590  79.6123790 127.6094500
 136.4041030  73.6875250 138.1113190 136.7721850  72.8670460 138.4392760
 135.5439230  73.7477140 138.5268840 139.7703060  72.6432190 128.9200750
 139.1416220  72.7477860 128.2058980 139.2754980  72.8628970 129.7094630
 134.2161200  84.3637780 126.3534730 134.3173180  84.1601770 125.4236710
 133.3162940  84.1096060 126.5582510 131.7387090  74.9218140 130.3358630
 131.0303240  75.3904480 130.7772240 132.0231570  74.2640150 130.9703820
 133.3643020  76.3414840 138.3351160 133.8628270  76.8160660 139.0003010
 133.5065970  75.4178360 138.5421190 135.7702520  71.6468800 131.7754420
 135.6470300  71.6654930 130.8263930 136.7187080  71.6947740 131.8952820
 132.8579310  86.8824100 131.0482400 133.1120810  86.8445490 130.1261770
 131.9091790  86.7557430 131.0410650 129.9422110  73.2303220 127.7109340
 130.7912640  73.6673370 127.6449530 129.5753380  73.5423480 128.5381400
 140.5709880  72.5582800 139.1779550 140.0683480  73.2988200 139.5173360
 141.3866540  72.9466800 138.8616340 138.8631890  77.8015980 132.6240910
 137.9222030  77.8166210 132.7988600 139.1775960  77.0151940 133.0701210
 128.8413530  79.4835580 126.1844870 129.6076800  79.3716940 126.7470300
 128.9188220  78.7873550 125.5321640 127.5360290  76.9160650 126.8677760
 127.6163880  75.9688160 126.9795160 128.4280040  77.2467530 126.9738420
 140.8657470  84.9724830 134.2995170 140.9904890  85.7956000 134.7718980
 141.7323030  84.7615560 133.9519320 128.3375000  87.0656040 133.9712300
 129.0737480  86.5171500 134.2420870 128.7215920  87.9312050 133.8318290
 125.2220480  83.1329610 129.8453810 124.2960260  83.3750750 129.8359220
 125.6876910  83.9603870 129.7238560 127.3433280  86.2502110 143.1597880
 128.1446010  86.5714160 143.5733280 126.8285100  85.8897690 143.8817790
 131.4477310  86.2386350 125.7937870 132.2405920  86.5275180 125.3419660
 130.9281660  85.8078520 125.1150350 136.1797910  82.3581980 143.1073290
 135.5736070  82.3813580 142.3669040 135.8752020  81.6265020 143.6440540
 137.6098280  86.0862270 141.7182700 138.5620030  86.0020290 141.6682940
 137.4626500  86.7503980 142.3916490 140.5007480  85.4656480 127.2174610
 140.2148990  85.0521620 126.4028790 140.3027030  86.3944190 127.0975130
 125.0631090  78.7375570 142.1033930 125.5670110  78.1582850 142.6750160
 124.3238510  79.0215800 142.6410300 131.9654710  81.4589760 125.6580220
 131.8605350  80.8442110 126.3841600 131.7978930  80.9355650 124.8743230
 132.1169030  80.1446560 141.6369450 131.3514700  80.7131560 141.5524120
 132.2984990  79.8522770 140.7437680 135.2057440  80.5209790 126.2622210
 134.6567540  80.9679090 126.9064950 135.8276700  80.0159040 126.7859880
 139.2592380  81.8751890 142.1944470 140.0001850  82.2127650 141.6911930
 138.4965060  82.0443950 141.6414240 127.0954170  76.8805160 142.9984000
 127.1359510  76.5819030 143.9069230 127.9499670  77.2812770 142.8391520
 130.8732560  79.4800710 128.1587510 131.2948980  79.3140580 129.0018900
 130.9983400  78.6700940 127.6642650 129.0359980  75.4597260 140.9658490
 128.5056440  74.9688210 140.3381830 129.7048050  75.8881460 140.4316420
 133.3860200  78.5038320 125.4064610 133.9065860  77.7887340 125.0405760
 134.0328600  79.1424190 125.7065120 137.9338040  79.9266720 140.7299680
 138.3479060  80.0811800 141.5790100 136.9989040  80.0521940 140.8925460
 138.4060210  77.2662880 142.7338830 138.9880980  76.5115200 142.6459310
 138.5821980  77.7970320 141.9570310 129.5232280  72.4259630 141.0455780
 129.4289150  71.8080380 140.3206650 128.9429670  73.1525920 140.8185690
 132.2893720  70.9832870 138.0783170 131.8411020  71.0057130 137.2328720
 131.6558920  70.5851890 138.6753470 132.6953270  79.8787200 138.6995610
 133.1141380  80.7219930 138.5271850 131.7761900  80.0159240 138.4702390
 135.0317170  77.6103380 140.0833450 135.1513380  77.0144520 140.8228290
 135.8911170  77.6473070 139.6634750 137.3705070  78.1640570 138.6595960
 136.8440290  78.6883190 138.0561100 137.7136410  78.7967960 139.2905690
 129.7691460  75.5533940 125.1045670 129.5680520  74.6901300 125.4659010
 129.5983510  75.4667300 124.1667270 130.5460690  86.1840210 139.8153340
 130.0081780  86.9086270 139.4962040 130.7994650  85.7070550 139.0250680
 131.7985940  74.1524730 141.3409270 132.3885630  73.8440580 142.0287090
 130.9806180  73.6804480 141.4969170 136.6179370  73.7690540 141.5742290
 135.9294890  73.1072080 141.5092280 137.3385390  73.3228810 142.0190750
 137.2479770  70.3642170 127.6332550 137.5282060  69.5210070 127.9891970
 136.4745500  70.5965280 128.1471300 128.5674260  72.6534560 125.0923550
 128.8700160  72.6601990 124.1842700 129.3068850  72.3032420 125.5891210
 133.4022900  87.4191420 140.0739990 133.3281600  88.3226560 140.3812360
 132.5001740  87.1003320 140.0462060 131.7859190  71.5969180 126.0779750
 131.4381190  70.9193170 125.4982200 131.9871960  71.1358690 126.8923140
 133.9508230  86.5849930 127.6966350 134.8459020  86.9234900 127.7185110
 133.9825860  85.8629340 127.0690630 127.5904390  81.9576980 125.9253350
 128.0279260  82.5006650 126.5810930 128.0752120  81.1323930 125.9349690
 124.8050190  84.7466010 133.3773610 125.1353200  83.8787070 133.1452250
 125.2341190  84.9524530 134.2078570 129.4012110  83.0775020 131.0375580
 129.1007650  82.9539990 131.9379490 129.2949600  82.2183610 130.6291310
 125.2940400  85.6136600 136.1155240 124.8571390  85.7937400 136.9479390
 125.8618080  86.3711220 135.9736960 140.9302580  85.1153600 140.4032550
 140.3304570  85.1746160 139.6596470 141.0596480  84.1758580 140.5329400
 142.1704030  82.8571420 125.7402260 141.3396990  82.9248070 126.2109490
 142.3475860  83.7475540 125.4369120 141.6260490  79.6018900 128.2436460
 142.3879400  80.1715550 128.3496150 141.6414860  79.0346100 129.0144770
 125.1264830  78.1256830 132.4744120 124.4713670  77.8568470 131.8303820
 125.9642780  78.0161310 132.0246100 142.6320460  80.4569000 133.0878390
 143.0029290  79.6736320 132.6814360 143.2722390  81.1458100 132.9095690
 139.6154220  81.8405580 138.5008710 138.8014060  82.2702740 138.7634500
 140.0228420  82.4523990 137.8877760 141.6779660  79.8953270 125.4008980
 141.9528500  80.8032150 125.2728200 141.4890400  79.8315800 126.3370970
 138.0755270  72.9198120 126.6962610 138.4940150  72.7329100 125.8559270
 137.7691330  72.0677170 127.0065540 141.5745000  77.8322260 130.3938410
 141.1988600  77.0650190 129.9619700 140.8448120  78.2144960 130.8813340
 126.1640760  78.5109400 137.0147460 126.5313800  78.4236800 137.8943480
 125.5951580  77.7475950 136.9154320 140.9644620  76.9793780 140.0277930
 140.7330710  76.7506530 139.1275880 141.2249170  77.8993330 139.9822820
 125.7156760  75.4218490 140.9205880 124.8212810  75.3885250 141.2599590
 126.2554310  75.6205280 141.6857130 139.4032690  72.2050210 142.8057630
 140.2802870  72.2133610 143.1891630 139.4153530  71.4681050 142.1949980
 124.3402910  75.3355760 128.4169450 123.4366990  75.5985960 128.2421110
 124.8243530  75.6066930 127.6369410 140.8495960  76.0579750 133.6945650
 141.3733440  75.5642400 133.0635820 141.4355380  76.1930110 134.4393220
 141.0285680  76.1419620 137.2165200 140.0788390  76.1083160 137.3310190
 141.2098690  77.0519730 136.9814970 126.8830120  74.3921300 126.3263830
 127.5921820  73.9704520 125.8411110 126.1670060  74.4596530 125.6947180
 126.5304280  70.4460630 125.3666480 127.2532410  70.9869570 125.6847700
 126.8028800  70.1724050 124.4908020 140.3395930  75.3153100 129.6338060
 140.8355050  75.0823970 130.4186940 140.1412000  74.4764940 129.2175700
 126.2196470  69.6966820 135.2689100 126.8672660  69.1464200 134.8284260
 126.6398310  69.9509970 136.0904910 141.7683090  73.9514050 132.1675740
 141.6582370  73.7970090 133.1058010 142.5290680  73.4234990 131.9251150
 140.1148810  69.8908180 138.6258740 140.7521030  70.5042320 138.9917930
 140.2623700  69.9268840 137.6807970 142.6573360  71.7821970 125.4081880
 143.5822670  71.6503150 125.2000170 142.6349150  71.8614790 126.3618330
 142.7311850  72.5532630 128.0338590 141.9363350  72.4877750 128.5631500
 142.9355130  73.4883270 128.0223940 139.6730270  86.5924180 132.0276980
 140.2689340  86.2708750 131.3511400 139.9308420  86.1196000 132.8190250
 125.9728470  69.8522490 138.0114420 125.6243290  70.3086310 138.7772600
 125.6416170  68.9579620 138.0936850 127.5792840  83.0242090 142.1767610
 127.5362470  82.6535000 143.0582070 127.7103850  83.9619660 142.3169430
 131.2798870  84.5801680 137.7777330 131.0390230  84.8476240 136.8907850
 132.2201510  84.7507410 137.8328190 133.4853290  71.0434370 141.5333840
 133.4242180  71.6356200 142.2829250 134.4253670  70.9360330 141.3884100
 136.1227850  70.7004430 141.1726130 136.7368260  71.0183720 140.5107210
 136.6677410  70.2153020 141.7921990 142.5403030  86.5996060 138.5787970
 142.0461310  86.9964930 137.8615100 141.9316320  85.9745270 138.9725250
 126.6449110  69.3798690 141.2865190 127.1932100  69.1986740 140.5231300
 126.7104420  68.5892800 141.8221500 127.4180870  85.9704340 139.2965390
 126.8241190  85.8389040 140.0355430 127.4104710  85.1342480 138.8307490
 136.8635890  69.2636570 137.4995420 135.9895730  69.5971680 137.2968350
 136.7546640  68.7909750 138.3247290 137.7707870  71.4707440 138.8837140
 137.4421230  70.6559200 138.5038870 138.7190170  71.4277250 138.7602830
 140.2242480  87.2419480 135.8574710 139.7645450  87.9935290 135.4832730
 139.5954940  86.5225950 135.7989510 127.0493100  83.3362720 138.2473430
 126.3227160  82.7168010 138.1799380 127.1102250  83.7303330 137.3771510
 130.6538200  85.5507720 135.0322840 131.1703220  84.9395080 134.5071100
 131.3035580  86.0536500 135.5233850 133.3933700  86.4416210 135.8591820
 133.6811510  86.1870510 134.9824830 133.9056920  85.8893570 136.4497390
 134.6110710  70.1806410 136.4388330 133.8282500  70.6551910 136.7185090
 134.3173640  69.2761240 136.3301510 139.1631780  70.8829510 134.4837420
 139.6039870  70.8274610 133.6359020 138.8939370  71.7987520 134.5547600
 141.0270350  70.5144750 132.4946240 140.9658750  69.5705970 132.3477260
 141.8062380  70.6224840 133.0399700 125.3323100  86.6537110 131.4570190
 125.1645140  86.0207790 132.1552080 124.4657610  86.8596510 131.1064380
 125.9551120  70.4853890 128.9602050 126.7130480  70.5982770 128.3866080
 125.4928290  71.3223090 128.9145480 132.4964930  72.5993160 131.9504360
 131.6839440  72.2250050 131.6100240 133.0006570  71.8438240 132.2525550
 136.9989910  69.2635610 133.1887430 137.6019280  69.8355820 133.6635950
 136.2582900  69.8275050 132.9661330 140.1424510  69.6657170 128.4627710
 140.3375140  70.5640620 128.7295140 139.3554380  69.4344250 128.9560660
 126.9385800  85.3470340 128.9020330 126.4133420  85.7278370 128.1982290
 126.8630380  85.9721110 129.6230040 128.3276270  71.0117940 127.5004020
 128.8569030  70.2247740 127.3711970 128.9604590  71.6909130 127.7339550
 130.5214110  70.7493080 130.5549410 129.8916850  70.0480390 130.7219540
 129.9819250  71.5097210 130.3382570 133.4606060  87.3632310 143.2260020
 134.3873370  87.1276580 143.2695980 133.4456490  88.1904310 142.7446050
 141.6951120  86.9057880 130.2234270 141.8703310  86.2195620 129.5795190
 140.9972690  87.4304930 129.8310940 130.6469670  70.0277060 142.9901900
 130.3653940  70.5310660 142.2262720 131.0289370  69.2298810 142.6244030
 129.5378770  87.2952720 127.7769580 130.2697590  87.0112000 127.2293470
 129.7972440  87.0566000 128.6668960 128.6993560  83.4117450 127.7815910
 128.0702440  83.8802550 128.3301740 128.8141390  82.5666670 128.2162100
 137.2485130  69.4430640 143.5682370 137.1350580  69.7625250 144.4633890
 138.0654870  69.8443150 143.2719650 140.0283620  86.5902170 143.0501060
 140.8208940  86.0951400 142.8427020 140.3216770  87.2692310 143.6576670
 136.1543280  77.4623110 113.9317110 136.0737330  76.5477720 113.6608820
 135.7407700  77.9590180 113.2256820 134.2861320  79.2402130 115.8126380
 133.5103420  78.7602570 116.1024950 134.9374250  78.5607780 115.6382540
 138.3068750  83.6462320 114.5925510 137.8450280  82.8749560 114.9212680
 139.1194300  83.6728390 115.0977960 126.7119100  74.5123830 110.4744530
 125.8235800  74.8539800 110.3724410 126.9960290  74.3124150 109.5825360
 133.7270310  81.9159320 115.8196540 133.6578590  80.9749260 115.6585670
 134.4890170  82.0060730 116.3919110 134.7575480  74.7229700 116.0465470
 135.1340300  73.8501580 115.9339140 134.6594990  75.0588400 115.1555910
 128.8880490  73.0955330 111.5082910 128.9947240  73.9959060 111.8151670
 127.9772850  73.0473300 111.2177560 138.5399600  72.2180140 112.9793810
 139.3609220  71.7276710 113.0219290 138.5733680  72.8077800 113.7325650
 130.7288220  76.0641700 115.8408090 131.2366440  76.5622670 116.4813110
 131.2601460  75.2876900 115.6647450 142.8299150  74.2346890 119.5437440
 142.1251320  74.6228600 119.0252550 143.0957070  74.9297180 120.1458370
 129.0124320  70.7040260 120.1071510 129.0142760  71.2212650 119.3017410
 128.1828630  70.2270440 120.0841440 138.7761080  74.1580520 115.7521350
 138.0716650  74.4465410 116.3324460 139.1373240  74.9680630 115.3920910
 129.4746270  82.3116240 120.0994190 130.0920270  82.9867320 119.8178640
 128.6139390  82.7204220 120.0081690 124.7678610  81.5016100 108.9801040
 124.3906590  81.9903200 108.2485940 125.0251680  82.1741380 109.6107570
 140.3923860  83.7755650 118.0148830 139.7087380  84.4454760 118.0065500
 140.9318150  83.9736300 117.2493690 141.8448000  73.6035310 116.1430560
 140.8972910  73.6374290 116.2745990 142.1697990  74.4174260 116.5279920
 137.9282600  85.6199780 116.7294010 137.9409760  85.2162070 115.8616270
 137.3757820  86.3947070 116.6255440 139.2228020  82.3416000 111.8184180
 139.1124350  81.3990330 111.9433600 139.2196270  82.7031640 112.7046940
 137.3268040  80.5229620 118.0576620 137.7436830  80.3089730 117.2230080
 138.0507860  80.7802410 118.6285240 141.2730140  78.9216840 118.1492860
 140.4448770  78.9909930 117.6742990 141.8680620  79.5071150 117.6808690
 138.7945590  79.5301620 111.6781920 138.1758010  79.1921170 111.0308220
 138.7770040  78.8861380 112.3861110 138.2372150  75.7086160 119.0947730
 137.8243330  76.5339870 119.3487720 137.5048100  75.1231200 118.9024090
 130.3704940  78.4946060 113.9566400 129.9661940  77.7823310 113.4612300
 130.4568060  78.1499300 114.8454440 130.8386640  82.1813620 116.1205610
 130.5414930  81.5759090 115.4413390 131.7886460  82.2190930 116.0094970
 138.9272250  85.7545490 119.7828710 138.4502810  86.5617680 119.5901320
 138.2434040  85.1023820 119.9354920 129.9305070  81.9195310 122.7713410
 129.0333600  82.1435280 123.0186810 129.9557940  82.0430250 121.8224810
 135.0805670  83.7084500 112.6535910 135.5201580  84.4508830 112.2391300
 135.0192560  83.9511070 113.5774870 130.5556640  84.7330330 123.5555930
 130.5272070  85.1373280 122.6884360 130.3921610  83.8040690 123.3927530
 140.5527430  70.0231240 106.9995710 140.2400090  70.1158070 107.8994780
 141.3139900  70.6012270 106.9493140 127.0709570  77.3891040 111.4573050
 126.9507170  78.1153130 110.8454320 126.7610460  76.6193950 110.9800960
 142.5071460  85.5157430 124.8520100 142.9831180  85.9940320 125.5309180
 143.1278620  85.4474920 124.1265600 125.9542570  82.2606370 113.6747870
 125.5470650  82.4020960 112.8201470 126.8455580  81.9766530 113.4719080
 141.9104710  82.7070280 122.0120110 142.0367770  82.4682160 121.0937290
 141.9526090  81.8754820 122.4842190 135.7721450  86.4098280 120.5814920
 136.2866120  86.3206290 121.3837350 134.9290530  86.7557980 120.8742830
 137.7475850  86.6953620 110.0098920 137.5876990  86.4056560 110.9080750
 137.5822560  85.9193750 109.4744150 137.4501980  84.2041180 108.5696920
 136.7567140  84.2018470 107.9099200 138.1924840  83.7800500 108.1391090
 137.0151910  85.8303890 112.6445410 137.4708860  85.0493270 112.9584030
 137.3544430  86.5410710 113.1886590 141.7628720  74.7602740 122.9769850
 141.1472990  75.2682410 122.4485310 141.4425140  73.8601070 122.9195790
 133.8243040  73.5994630 120.4432040 133.3622410  73.8077650 121.2551980
 133.4221150  72.7853980 120.1402710 138.8247550  74.8203580 121.5728700
 137.9741140  74.5209330 121.8937770 138.6649340  75.0645590 120.6612520
 135.9197260  76.3205330 123.6727490 136.2450670  75.4869080 123.3329720
 136.7077590  76.8433850 123.8205820 131.5749130  71.2773440 116.6986320
 131.8721460  72.1836270 116.6178340 132.1234690  70.7892220 116.0845890
 129.3287450  75.8559680 112.5677970 129.1028370  75.6396850 113.4724590
 128.5479980  76.2888140 112.2223940 131.7686660  76.7545260 123.2338240
 131.6730260  75.8139990 123.0838640 132.6118640  76.9760330 122.8386310
 135.1650080  74.4986590 113.1971900 135.5579650  74.8158790 112.3840590
 135.5266930  73.6198470 113.3116420 133.4742250  73.2493900 124.4568760
 132.7840570  73.0566100 125.0914850 134.2174550  73.5328540 124.9893060
 124.3884480  75.0307510 106.6304820 124.3059150  75.9738270 106.7719810
 124.0367540  74.8882420 105.7517170 135.7505220  77.0892340 117.2922680
 135.0186340  77.5979150 117.6412780 135.3529560  76.2722320 116.9911460
 132.1882610  73.7646540 115.6975170 132.1918670  73.3236490 114.8479710
 133.0833730  74.0863870 115.8046990 136.2131130  72.5426020 116.7045620
 136.2303870  72.9934670 117.5487470 135.9646710  71.6431660 116.9179060
 139.6401880  69.9558200 122.5432000 139.9647650  69.2247860 123.0689980
 139.6758390  69.6371840 121.6412990 132.4890580  77.8248320 117.4440580
 132.8560710  77.3506890 118.1901920 132.2995640  78.6989890 117.7848920
 139.5659720  80.0683310 116.1518030 140.2858840  80.5638600 115.7614140
 139.3641540  79.3901200 115.5071900 135.0269660  71.4621270 110.2947420
 134.2134270  70.9634440 110.2192730 134.8331610  72.3019520 109.8783770
 134.9478520  80.1392370 122.0387030 134.8815830  79.2188040 121.7844620
 134.3183660  80.2367810 122.7531670 129.5366800  78.1643940 123.7935700
 129.2366940  78.3101120 122.8963520 130.3078040  77.6049230 123.7009090
 134.8795250  82.9612940 121.7890830 134.8939790  82.0293900 121.5709740
 134.1720350  83.0472700 122.4280600 140.0132320  77.1452760 108.0589440
 139.9296040  77.5766980 107.2085880 140.7326510  77.6051110 108.4916260
 141.0906460  79.6020280 121.1359410 140.3654650  80.1949060 120.9388800
 141.6181920  79.5943820 120.3372780 141.0419570  83.9995020 110.7871570
 140.3995730  83.3450640 111.0615290 140.6550230  84.4050110 110.0112240
 136.6206050  81.3280450 114.6343260 136.9729870  80.7308580 113.9744630
 135.7368380  81.0024680 114.8051510 124.8461730  77.7050960 107.5330750
 125.7156580  77.9875760 107.8166670 124.3552050  78.5186830 107.4179560
 134.3129150  84.6030510 118.8831330 134.9571370  84.8089890 119.5604750
 134.6758590  83.8418910 118.4302180 135.5861230  82.6062860 117.6008780
 136.2283460  81.9056020 117.7140950 136.1110580  83.3861300 117.4205670
 139.4316950  82.8911480 107.3247920 139.2054530  82.1741920 107.9172560
 139.0413150  82.6423920 106.4869670 137.3598850  83.4057760 120.8044840
 137.6955090  83.9924450 121.4822760 136.4399190  83.2750470 121.0342630
 125.2132980  86.9178340 108.0992380 125.5730620  87.5167680 107.4449650
 125.0725320  87.4638230 108.8727410 139.0133200  80.8083420 108.9862080
 138.7254900  81.2696110 109.7739960 139.8085370  80.3481190 109.2546300
 133.1887430  83.4549090 123.9732900 132.8684300  82.7358330 124.5178590
 132.5145790  84.1304160 124.0468960 126.8308240  79.5224430 109.6612810
 126.2236190  80.2623330 109.6708110 127.3057590  79.6123790 108.8351010
 136.4041030  73.6875250 119.3369700 136.7721850  72.8670460 119.6649270
 135.5439230  73.7477140 119.7525350 139.7703060  72.6432190 110.1457260
 139.1416220  72.7477860 109.4315490 139.2754980  72.8628970 110.9351140
 134.2161200  84.3637780 107.5791240 134.3173180  84.1601770 106.6493220
 133.3162940  84.1096060 107.7839020 133.3643020  76.3414840 119.5607670
 133.8628270  76.8160660 120.2259520 133.5065970  75.4178360 119.7677700
 135.7702520  71.6468800 113.0010930 135.6470300  71.6654930 112.0520440
 136.7187080  71.6947740 113.1209330 129.9422110  73.2303220 108.9365850
 130.7912640  73.6673370 108.8706040 129.5753380  73.5423480 109.7637910
 140.5709880  72.5582800 120.4036060 140.0683480  73.2988200 120.7429870
 141.3866540  72.9466800 120.0872850 138.8631890  77.8015980 113.8497420
 137.9222030  77.8166210 114.0245110 139.1775960  77.0151940 114.2957720
 128.8413530  79.4835580 107.4101380 129.6076800  79.3716940 107.9726810
 128.9188220  78.7873550 106.7578150 127.5360290  76.9160650 108.0934270
 127.6163880  75.9688160 108.2051670 128.4280040  77.2467530 108.1994930
 140.8657470  84.9724830 115.5251680 140.9904890  85.7956000 115.9975490
 141.7323030  84.7615560 115.1775830 125.2220480  83.1329610 111.0710320
 124.2960260  83.3750750 111.0615730 125.6876910  83.9603870 110.9495070
 127.3433280  86.2502110 124.3854390 128.1446010  86.5714160 124.7989790
 126.8285100  85.8897690 125.1074300 131.4477310  86.2386350 107.0194380
 132.2405920  86.5275180 106.5676170 130.9281660  85.8078520 106.3406860
 136.1797910  82.3581980 124.3329800 135.5736070  82.3813580 123.5925550
 135.8752020  81.6265020 124.8697050 137.6098280  86.0862270 122.9439210
 138.5620030  86.0020290 122.8939450 137.4626500  86.7503980 123.6173000
 140.5007480  85.4656480 108.4431120 140.2148990  85.0521620 107.6285300
 140.3027030  86.3944190 108.3231640 131.9654710  81.4589760 106.8836730
 131.8605350  80.8442110 107.6098110 131.7978930  80.9355650 106.0999740
 132.1169030  80.1446560 122.8625960 131.3514700  80.7131560 122.7780630
 132.2984990  79.8522770 121.9694190 139.2592380  81.8751890 123.4200980
 140.0001850  82.2127650 122.9168440 138.4965060  82.0443950 122.8670750
 127.0954170  76.8805160 124.2240510 127.1359510  76.5819030 125.1325740
 127.9499670  77.2812770 124.0648030 129.0359980  75.4597260 122.1915000
 128.5056440  74.9688210 121.5638340 129.7048050  75.8881460 121.6572930
 137.9338040  79.9266720 121.9556190 138.3479060  80.0811800 122.8046610
 136.9989040  80.0521940 122.1181970 138.4060210  77.2662880 123.9595340
 138.9880980  76.5115200 123.8715820 138.5821980  77.7970320 123.1826820
 129.5232280  72.4259630 122.2712290 129.4289150  71.8080380 121.5463160
 128.9429670  73.1525920 122.0442200 132.2893720  70.9832870 119.3039680
 131.8411020  71.0057130 118.4585230 131.6558920  70.5851890 119.9009980
 132.6953270  79.8787200 119.9252120 133.1141380  80.7219930 119.7528360
 131.7761900  80.0159240 119.6958900 135.0317170  77.6103380 121.3089960
 135.1513380  77.0144520 122.0484800 135.8911170  77.6473070 120.8891260
 137.3705070  78.1640570 119.8852470 136.8440290  78.6883190 119.2817610
 137.7136410  78.7967960 120.5162200 129.7691460  75.5533940 106.3302180
 129.5680520  74.6901300 106.6915520 129.5983510  75.4667300 105.3923780
 130.5460690  86.1840210 121.0409850 130.0081780  86.9086270 120.7218550
 130.7994650  85.7070550 120.2507190 131.7985940  74.1524730 122.5665780
 132.3885630  73.8440580 123.2543600 130.9806180  73.6804480 122.7225680
 136.6179370  73.7690540 122.7998800 135.9294890  73.1072080 122.7348790
 137.3385390  73.3228810 123.2447260 137.2479770  70.3642170 108.8589060
 137.5282060  69.5210070 109.2148480 136.4745500  70.5965280 109.3727810
 128.5674260  72.6534560 106.3180060 128.8700160  72.6601990 105.4099210
 129.3068850  72.3032420 106.8147720 133.4022900  87.4191420 121.2996500
 133.3281600  88.3226560 121.6068870 132.5001740  87.1003320 121.2718570
 127.5904390  81.9576980 107.1509860 128.0279260  82.5006650 107.8067440
 128.0752120  81.1323930 107.1606200 124.8050190  84.7466010 114.6030120
 125.1353200  83.8787070 114.3708760 125.2341190  84.9524530 115.4335080
 129.4012110  83.0775020 112.2632090 129.1007650  82.9539990 113.1636000
 129.2949600  82.2183610 111.8547820 140.9302580  85.1153600 121.6289060
 140.3304570  85.1746160 120.8852980 141.0596480  84.1758580 121.7585910
 142.1704030  82.8571420 106.9658770 141.3396990  82.9248070 107.4366000
 142.3475860  83.7475540 106.6625630 141.6260490  79.6018900 109.4692970
 142.3879400  80.1715550 109.5752660 141.6414860  79.0346100 110.2401280
 142.6320460  80.4569000 114.3134900 143.0029290  79.6736320 113.9070870
 143.2722390  81.1458100 114.1352200 139.6154220  81.8405580 119.7265220
 138.8014060  82.2702740 119.9891010 140.0228420  82.4523990 119.1134270
 141.6779660  79.8953270 106.6265490 141.9528500  80.8032150 106.4984710
 141.4890400  79.8315800 107.5627480 138.0755270  72.9198120 107.9219120
 138.4940150  72.7329100 107.0815780 137.7691330  72.0677170 108.2322050
 141.5745000  77.8322260 111.6194920 141.1988600  77.0650190 111.1876210
 140.8448120  78.2144960 112.1069850 140.9644620  76.9793780 121.2534440
 140.7330710  76.7506530 120.3532390 141.2249170  77.8993330 121.2079330
 139.4032690  72.2050210 124.0314140 140.2802870  72.2133610 124.4148140
 139.4153530  71.4681050 123.4206490 124.3402910  75.3355760 109.6425960
 123.4366990  75.5985960 109.4677620 124.8243530  75.6066930 108.8625920
 140.8495960  76.0579750 114.9202160 141.3733440  75.5642400 114.2892330
 141.4355380  76.1930110 115.6649730 141.0285680  76.1419620 118.4421710
 140.0788390  76.1083160 118.5566700 141.2098690  77.0519730 118.2071480
 126.8830120  74.3921300 107.5520340 127.5921820  73.9704520 107.0667620
 126.1670060  74.4596530 106.9203690 126.5304280  70.4460630 106.5922990
 127.2532410  70.9869570 106.9104210 126.8028800  70.1724050 105.7164530
 140.3395930  75.3153100 110.8594570 140.8355050  75.0823970 111.6443450
 140.1412000  74.4764940 110.4432210 141.7683090  73.9514050 113.3932250
 141.6582370  73.7970090 114.3314520 142.5290680  73.4234990 113.1507660
 140.1148810  69.8908180 119.8515250 140.7521030  70.5042320 120.2174440
 140.2623700  69.9268840 118.9064480 142.6573360  71.7821970 106.6338390
 143.5822670  71.6503150 106.4256680 142.6349150  71.8614790 107.5874840
 142.7311850  72.5532630 109.2595100 141.9363350  72.4877750 109.7888010
 142.9355130  73.4883270 109.2480450 139.6730270  86.5924180 113.2533490
 140.2689340  86.2708750 112.5767910 139.9308420  86.1196000 114.0446760
 127.5792840  83.0242090 123.4024120 127.5362470  82.6535000 124.2838580
 127.7103850  83.9619660 123.5425940 131.2798870  84.5801680 119.0033840
 131.0390230  84.8476240 118.1164360 132.2201510  84.7507410 119.0584700
 133.4853290  71.0434370 122.7590350 133.4242180  71.6356200 123.5085760
 134.4253670  70.9360330 122.6140610 136.1227850  70.7004430 122.3982640
 136.7368260  71.0183720 121.7363720 136.6677410  70.2153020 123.0178500
 142.5403030  86.5996060 119.8044480 142.0461310  86.9964930 119.0871610
 141.9316320  85.9745270 120.1981760 126.6449110  69.3798690 122.5121700
 127.1932100  69.1986740 121.7487810 126.7104420  68.5892800 123.0478010
 136.8635890  69.2636570 118.7251930 135.9895730  69.5971680 118.5224860
 136.7546640  68.7909750 119.5503800 137.7707870  71.4707440 120.1093650
 137.4421230  70.6559200 119.7295380 138.7190170  71.4277250 119.9859340
 140.2242480  87.2419480 117.0831220 139.7645450  87.9935290 116.7089240
 139.5954940  86.5225950 117.0246020 133.3933700  86.4416210 117.0848330
 133.6811510  86.1870510 116.2081340 133.9056920  85.8893570 117.6753900
 134.6110710  70.1806410 117.6644840 133.8282500  70.6551910 117.9441600
 134.3173640  69.2761240 117.5558020 139.1631780  70.8829510 115.7093930
 139.6039870  70.8274610 114.8615530 138.8939370  71.7987520 115.7804110
 141.0270350  70.5144750 113.7202750 140.9658750  69.5705970 113.5733770
 141.8062380  70.6224840 114.2656210 125.3323100  86.6537110 112.6826700
 125.1645140  86.0207790 113.3808590 124.4657610  86.8596510 112.3320890
 136.9989910  69.2635610 114.4143940 137.6019280  69.8355820 114.8892460
 136.2582900  69.8275050 114.1917840 140.1424510  69.6657170 109.6884220
 140.3375140  70.5640620 109.9551650 139.3554380  69.4344250 110.1817170
 126.9385800  85.3470340 110.1276840 126.4133420  85.7278370 109.4238800
 126.8630380  85.9721110 110.8486550 128.3276270  71.0117940 108.7260530
 128.8569030  70.2247740 108.5968480 128.9604590  71.6909130 108.9596060
 133.4606060  87.3632310 124.4516530 134.3873370  87.1276580 124.4952490
 133.4456490  88.1904310 123.9702560 141.6951120  86.9057880 111.4490780
 141.8703310  86.2195620 110.8051700 140.9972690  87.4304930 111.0567450
 130.6469670  70.0277060 124.2158410 130.3653940  70.5310660 123.4519230
 131.0289370  69.2298810 123.8500540 128.6993560  83.4117450 109.0072420
 128.0702440  83.8802550 109.5558250 128.8141390  82.5666670 109.4418610
 137.2485130  69.4430640 124.7938880 137.1350580  69.7625250 125.6890400
 138.0654870  69.8443150 124.4976160 140.0283620  86.5902170 124.2757570
 140.8208940  86.0951400 124.0683530 140.3216770  87.2692310 124.8833180
 136.1543280  77.4623110  95.1573620 136.0737330  76.5477720  94.8865330
 135.7407700  77.9590180  94.4513330 138.3068750  83.6462320  95.8182020
 137.8450280  82.8749560  96.1469190 139.1194300  83.6728390  96.3234470
 142.8299150  74.2346890 100.7693950 142.1251320  74.6228600 100.2509060
 143.0957070  74.9297180 101.3714880 124.7678610  81.5016100  90.2057550
 124.3906590  81.9903200  89.4742450 125.0251680  82.1741380  90.8364080
 140.3923860  83.7755650  99.2405340 139.7087380  84.4454760  99.2322010
 140.9318150  83.9736300  98.4750200 137.9282600  85.6199780  97.9550520
 137.9409760  85.2162070  97.0872780 137.3757820  86.3947070  97.8511950
 134.7648300  77.9681320  92.4003180 133.8377580  77.9018700  92.6291650
 134.9173120  78.9061450  92.2858420 141.2730140  78.9216840  99.3749370
 140.4448770  78.9909930  98.8999500 141.8680620  79.5071150  98.9065200
 138.2372150  75.7086160 100.3204240 137.8243330  76.5339870 100.5744230
 137.5048100  75.1231200 100.1280600 138.9272250  85.7545490 101.0085220
 138.4502810  86.5617680 100.8157830 138.2434040  85.1023820 101.1611430
 128.7576290  78.7908630 102.5727290 128.6184060  79.6631430 102.9414690
 127.8757650  78.4481440 102.4275230 142.5071460  85.5157430 106.0776610
 142.9831180  85.9940320 106.7565690 143.1278620  85.4474920 105.3522110
 124.7094940  80.5606180  98.4898200 124.7875360  80.6954950  97.5453920
 125.3236620  79.8522070  98.6826320 141.9104710  82.7070280 103.2376620
 142.0367770  82.4682160 102.3193800 141.9526090  81.8754820 103.7098700
 141.7628720  74.7602740 104.2026360 141.1472990  75.2682410 103.6741820
 141.4425140  73.8601070 104.1452300 124.7654460  81.6020350 101.0292660
 124.9285500  81.1325710 100.2112030 125.2306910  81.0943910 101.6941500
 138.8247550  74.8203580 102.7985210 137.9741140  74.5209330 103.1194280
 138.6649340  75.0645590 101.8869030 126.8997200  73.1658930 102.6128530
 126.5060590  74.0134140 102.8201310 126.2115600  72.5285300 102.8037170
 124.3884480  75.0307510  87.8561330 124.3059150  75.9738270  87.9976320
 124.0367540  74.8882420  86.9773680 136.2131130  72.5426020  97.9302130
 136.2303870  72.9934670  98.7743980 135.9646710  71.6431660  98.1435570
 131.2624260  77.0759760  89.3121740 130.6941160  76.6278010  88.6857650
 131.9713260  77.4352540  88.7786890 139.6401880  69.9558200 103.7688510
 139.9647650  69.2247860 104.2946490 139.6758390  69.6371840 102.8669500
 126.3393440  80.9771780 103.1888470 125.9548230  80.3365450 103.7871430
 126.6505630  81.6807900 103.7583200 128.8071740  81.0717950  91.5848150
 128.0334000  80.5315570  91.4246870 129.5366370  80.5524560  91.2465910
 139.5659720  80.0683310  97.3774540 140.2858840  80.5638600  96.9870650
 139.3641540  79.3901200  96.7328410 137.7418050  75.8340920  89.8166090
 138.6297670  76.1458150  89.6417430 137.7123140  74.9613170  89.4246670
 126.3353680  77.7059700 102.1352660 125.9768620  78.3713550 102.7226000
 126.0408240  76.8743250 102.5065280 129.5366800  78.1643940 105.0192210
 129.2366940  78.3101120 104.1220030 130.3078040  77.6049230 104.9265600
 140.0132320  77.1452760  89.2845950 139.9296040  77.5766980  88.4342390
 140.7326510  77.6051110  89.7172770 141.0906460  79.6020280 102.3615920
 140.3654650  80.1949060 102.1645310 141.6181920  79.5943820 101.5629290
 141.0419570  83.9995020  92.0128080 140.3995730  83.3450640  92.2871800
 140.6550230  84.4050110  91.2368750 124.8461730  77.7050960  88.7587260
 125.7156580  77.9875760  89.0423180 124.3552050  78.5186830  88.6436070
 124.9102250  71.1952940 102.8124760 124.1960770  71.3949860 103.4177370
 125.3297290  70.4192510 103.1839560 125.1974840  85.1833200 103.7991290
 125.3065960  84.2427940 103.6586680 124.5455400  85.4487950 103.1505020
 140.5709880  72.5582800 101.6292570 140.0683480  73.2988200 101.9686380
 141.3866540  72.9466800 101.3129360 138.8631890  77.8015980  95.0753930
 137.9222030  77.8166210  95.2501620 139.1775960  77.0151940  95.5214230
 128.8413530  79.4835580  88.6357890 129.6076800  79.3716940  89.1983320
 128.9188220  78.7873550  87.9834660 127.5360290  76.9160650  89.3190780
 127.6163880  75.9688160  89.4308180 128.4280040  77.2467530  89.4251440
 140.8657470  84.9724830  96.7508190 140.9904890  85.7956000  97.2232000
 141.7323030  84.7615560  96.4032340 125.2220480  83.1329610  92.2966830
 124.2960260  83.3750750  92.2872240 125.6876910  83.9603870  92.1751580
 127.3433280  86.2502110 105.6110900 128.1446010  86.5714160 106.0246300
 126.8285100  85.8897690 106.3330810 137.6098280  86.0862270 104.1695720
 138.5620030  86.0020290 104.1195960 137.4626500  86.7503980 104.8429510
 125.0631090  78.7375570 104.5546950 125.5670110  78.1582850 105.1263180
 124.3238510  79.0215800 105.0923320 139.2592380  81.8751890 104.6457490
 140.0001850  82.2127650 104.1424950 138.4965060  82.0443950 104.0927260
 127.0954170  76.8805160 105.4497020 127.1359510  76.5819030 106.3582250
 127.9499670  77.2812770 105.2904540 130.8732560  79.4800710  90.6100530
 131.2948980  79.3140580  91.4531920 130.9983400  78.6700940  90.1155670
 129.0359980  75.4597260 103.4171510 128.5056440  74.9688210 102.7894850
 129.7048050  75.8881460 102.8829440 133.3860200  78.5038320  87.8577630
 133.9065860  77.7887340  87.4918780 134.0328600  79.1424190  88.1578140
 137.9338040  79.9266720 103.1812700 138.3479060  80.0811800 104.0303120
 136.9989040  80.0521940 103.3438480 138.4060210  77.2662880 105.1851850
 138.9880980  76.5115200 105.0972330 138.5821980  77.7970320 104.4083330
 129.5232280  72.4259630 103.4968800 129.4289150  71.8080380 102.7719670
 128.9429670  73.1525920 103.2698710 124.8050190  84.7466010  95.8286630
 125.1353200  83.8787070  95.5965270 125.2341190  84.9524530  96.6591590
 125.2940400  85.6136600  98.5668260 124.8571390  85.7937400  99.3992410
 125.8618080  86.3711220  98.4249980 140.9302580  85.1153600 102.8545570
 140.3304570  85.1746160 102.1109490 141.0596480  84.1758580 102.9842420
 142.1704030  82.8571420  88.1915280 141.3396990  82.9248070  88.6622510
 142.3475860  83.7475540  87.8882140 142.6320460  80.4569000  95.5391410
 143.0029290  79.6736320  95.1327380 143.2722390  81.1458100  95.3608710
 139.6154220  81.8405580 100.9521730 138.8014060  82.2702740 101.2147520
 140.0228420  82.4523990 100.3390780 141.6779660  79.8953270  87.8522000
 141.9528500  80.8032150  87.7241220 141.4890400  79.8315800  88.7883990
 141.5745000  77.8322260  92.8451430 141.1988600  77.0650190  92.4132720
 140.8448120  78.2144960  93.3326360 140.9644620  76.9793780 102.4790950
 140.7330710  76.7506530 101.5788900 141.2249170  77.8993330 102.4335840
 125.7156760  75.4218490 103.3718900 124.8212810  75.3885250 103.7112610
 126.2554310  75.6205280 104.1370150 139.4032690  72.2050210 105.2570650
 140.2802870  72.2133610 105.6404650 139.4153530  71.4681050 104.6463000
 124.3402910  75.3355760  90.8682470 123.4366990  75.5985960  90.6934130
 124.8243530  75.6066930  90.0882430 140.8495960  76.0579750  96.1458670
 141.3733440  75.5642400  95.5148840 141.4355380  76.1930110  96.8906240
 141.0285680  76.1419620  99.6678220 140.0788390  76.1083160  99.7823210
 141.2098690  77.0519730  99.4327990 140.3395930  75.3153100  92.0851080
 140.8355050  75.0823970  92.8699960 140.1412000  74.4764940  91.6688720
 140.1148810  69.8908180 101.0771760 140.7521030  70.5042320 101.4430950
 140.2623700  69.9268840 100.1320990 142.7311850  72.5532630  90.4851610
 141.9363350  72.4877750  91.0144520 142.9355130  73.4883270  90.4736960
 139.6730270  86.5924180  94.4790000 140.2689340  86.2708750  93.8024420
 139.9308420  86.1196000  95.2703270 127.5792840  83.0242090 104.6280630
 127.5362470  82.6535000 105.5095090 127.7103850  83.9619660 104.7682450
 142.5403030  86.5996060 101.0300990 142.0461310  86.9964930 100.3128120
 141.9316320  85.9745270 101.4238270 126.6449110  69.3798690 103.7378210
 127.1932100  69.1986740 102.9744320 126.7104420  68.5892800 104.2734520
 127.4180870  85.9704340 101.7478410 126.8241190  85.8389040 102.4868450
 127.4104710  85.1342480 101.2820510 136.8635890  69.2636570  99.9508440
 135.9895730  69.5971680  99.7481370 136.7546640  68.7909750 100.7760310
 137.7707870  71.4707440 101.3350160 137.4421230  70.6559200 100.9551890
 138.7190170  71.4277250 101.2115850 140.2242480  87.2419480  98.3087730
 139.7645450  87.9935290  97.9345750 139.5954940  86.5225950  98.2502530
 127.0493100  83.3362720 100.6986450 126.3227160  82.7168010 100.6312400
 127.1102250  83.7303330  99.8284530 134.6110710  70.1806410  98.8901350
 133.8282500  70.6551910  99.1698110 134.3173640  69.2761240  98.7814530
 125.3323100  86.6537110  93.9083210 125.1645140  86.0207790  94.6065100
 124.4657610  86.8596510  93.5577400 141.6951120  86.9057880  92.6747290
 141.8703310  86.2195620  92.0308210 140.9972690  87.4304930  92.2823960
 130.6469670  70.0277060 105.4414920 130.3653940  70.5310660 104.6775740
 131.0289370  69.2298810 105.0757050 137.2485130  69.4430640 106.0195390
 137.1350580  69.7625250 106.9146910 138.0654870  69.8443150 105.7232670
 140.0283620  86.5902170 105.5014080 140.8208940  86.0951400 105.2940040
 140.3216770  87.2692310 106.1089690 128.3027150  79.5521940  79.1415160
 127.4712030  79.2970650  79.5411670 128.9108130  79.6232710  79.8773080
 138.3068750  83.6462320  77.0438530 137.8450280  82.8749560  77.3725700
 139.1194300  83.6728390  77.5490980 124.6752110  77.1129480  78.8097250
 125.2468220  76.3451680  78.8100890 124.6753650  77.4118240  77.9003860
 125.9176980  72.5213840  80.5966180 125.7379820  71.6239590  80.8768940
 125.5157060  73.0685710  81.2713130 134.7575480  74.7229700  78.4978490
 135.1340300  73.8501580  78.3852160 134.6594990  75.0588400  77.6068930
 138.5399600  72.2180140  75.4306830 139.3609220  71.7276710  75.4732310
 138.5733680  72.8077800  76.1838670 126.5363650  75.0174340  79.2048520
 127.2173760  75.2812710  79.8235920 126.2211700  74.1775210  79.5386530
 130.7288220  76.0641700  78.2921110 131.2366440  76.5622670  78.9326130
 131.2601460  75.2876900  78.1160470 130.2627170  80.3435440  80.7358030
 129.9296550  80.9704360  81.3779100 130.4393850  80.8697320  79.9559700
 128.6939650  72.4150220  80.5654980 129.0356460  73.2592270  80.2708850
 127.7555460  72.5633960  80.6820320 140.3923860  83.7755650  80.4661850
 139.7087380  84.4454760  80.4578520 140.9318150  83.9736300  79.7006710
 132.3767540  69.9032490  76.8899570 132.6842520  69.3479380  76.1735070
 131.4468240  70.0376950  76.7072560 137.9282600  85.6199780  79.1807030
 137.9409760  85.2162070  78.3129290 137.3757820  86.3947070  79.0768460
 137.3268040  80.5229620  80.5089640 137.7436830  80.3089730  79.6743100
 138.0507860  80.7802410  81.0798260 141.2730140  78.9216840  80.6005880
 140.4448770  78.9909930  80.1256010 141.8680620  79.5071150  80.1321710
 129.0833560  75.2689270  80.1878460 129.6348150  75.3784610  79.4131710
 129.5977070  75.6426870  80.9033690 138.9272250  85.7545490  82.2341730
 138.4502810  86.5617680  82.0414340 138.2434040  85.1023820  82.3867940
 128.7576290  78.7908630  83.7983800 128.6184060  79.6631430  84.1671200
 127.8757650  78.4481440  83.6531740 140.5527430  70.0231240  69.4508730
 140.2400090  70.1158070  70.3507800 141.3139900  70.6012270  69.4006160
 124.7094940  80.5606180  79.7154710 124.7875360  80.6954950  78.7710430
 125.3236620  79.8522070  79.9082830 125.9542570  82.2606370  76.1260890
 125.5470650  82.4020960  75.2714490 126.8455580  81.9766530  75.9232100
 141.9104710  82.7070280  84.4633130 142.0367770  82.4682160  83.5450310
 141.9526090  81.8754820  84.9355210 141.7628720  74.7602740  85.4282870
 141.1472990  75.2682410  84.8998330 141.4425140  73.8601070  85.3708810
 129.5373230  70.7326110  77.2909740 129.0941380  71.5135650  76.9594260
 130.0958220  71.0556000  77.9980680 138.8247550  74.8203580  84.0241720
 137.9741140  74.5209330  84.3450790 138.6649340  75.0645590  83.1125540
 135.9197260  76.3205330  86.1240510 136.2450670  75.4869080  85.7842740
 136.7077590  76.8433850  86.2718840 131.5749130  71.2773440  79.1499340
 131.8721460  72.1836270  79.0691360 132.1234690  70.7892220  78.5358910
 131.7686660  76.7545260  85.6851260 131.6730260  75.8139990  85.5351660
 132.6118640  76.9760330  85.2899330 135.1650080  74.4986590  75.6484920
 135.5579650  74.8158790  74.8353610 135.5266930  73.6198470  75.7629440
 124.2014250  71.0887390  77.8715120 123.9127300  71.6590250  78.5840100
 124.9460010  70.6091840  78.2346350 132.1882610  73.7646540  78.1488190
 132.1918670  73.3236490  77.2992730 133.0833730  74.0863870  78.2560010
 128.0384990  73.6473030  77.1082400 127.6985040  74.1248260  77.8649450
 127.2762310  73.1938150  76.7483500 125.3531070  72.5692010  76.0247070
 125.0677990  72.2047680  76.8625690 125.2909930  71.8372470  75.4110210
 130.2789950  76.8656960  82.2137810 129.9747020  77.7448940  82.4388170
 131.2336410  76.9256750  82.2495250 128.8071740  81.0717950  72.8104660
 128.0334000  80.5315570  72.6503380 129.5366370  80.5524560  72.4722420
 139.5659720  80.0683310  78.6031050 140.2858840  80.5638600  78.2127160
 139.3641540  79.3901200  77.9584920 134.9478520  80.1392370  84.4900050
 134.8815830  79.2188040  84.2357640 134.3183660  80.2367810  85.2044690
 128.8509140  80.7398330  76.4483470 129.3687810  79.9366590  76.3940360
 128.3993160  80.6777470  77.2900300 126.3353680  77.7059700  83.3609170
 125.9768620  78.3713550  83.9482510 126.0408240  76.8743250  83.7321790
 129.5366800  78.1643940  86.2448720 129.2366940  78.3101120  85.3476540
 130.3078040  77.6049230  86.1522110 134.8795250  82.9612940  84.2403850
 134.8939790  82.0293900  84.0222760 134.1720350  83.0472700  84.8793620
 140.0132320  77.1452760  70.5102460 139.9296040  77.5766980  69.6598900
 140.7326510  77.6051110  70.9429280 141.0906460  79.6020280  83.5872430
 140.3654650  80.1949060  83.3901820 141.6181920  79.5943820  82.7885800
 141.0419570  83.9995020  73.2384590 140.3995730  83.3450640  73.5128310
 140.6550230  84.4050110  72.4625260 127.9108320  69.4361820  74.5774570
 127.7822950  69.4279720  75.5259490 127.0870340  69.7744910  74.2265580
 139.4316950  82.8911480  69.7760940 139.2054530  82.1741920  70.3685580
 139.0413150  82.6423920  68.9382690 137.3598850  83.4057760  83.2557860
 137.6955090  83.9924450  83.9335780 136.4399190  83.2750470  83.4855650
 124.9102250  71.1952940  84.0381270 124.1960770  71.3949860  84.6433880
 125.3297290  70.4192510  84.4096070 139.0133200  80.8083420  71.4375100
 138.7254900  81.2696110  72.2252980 139.8085370  80.3481190  71.7059320
 131.2301600  84.3009540  71.3679070 131.2211700  85.0339230  70.7523580
 130.3099960  84.0541120  71.4606030 139.7703060  72.6432190  72.5970280
 139.1416220  72.7477860  71.8828510 139.2754980  72.8628970  73.3864160
 134.2161200  84.3637780  70.0304260 134.3173180  84.1601770  69.1006240
 133.3162940  84.1096060  70.2352040 131.7387090  74.9218140  74.0128160
 131.0303240  75.3904480  74.4541770 132.0231570  74.2640150  74.6473350
 133.3643020  76.3414840  82.0120690 133.8628270  76.8160660  82.6772540
 133.5065970  75.4178360  82.2190720 135.7702520  71.6468800  75.4523950
 135.6470300  71.6654930  74.5033460 136.7187080  71.6947740  75.5722350
 132.8579310  86.8824100  74.7251930 133.1120810  86.8445490  73.8031300
 131.9091790  86.7557430  74.7180180 140.8657470  84.9724830  77.9764700
 140.9904890  85.7956000  78.4488510 141.7323030  84.7615560  77.6288850
 131.4477310  86.2386350  69.4707400 132.2405920  86.5275180  69.0189190
 130.9281660  85.8078520  68.7919880 140.5007480  85.4656480  70.8944140
 140.2148990  85.0521620  70.0798320 140.3027030  86.3944190  70.7744660
 125.0631090  78.7375570  85.7803460 125.5670110  78.1582850  86.3519690
 124.3238510  79.0215800  86.3179830 132.1169030  80.1446560  85.3138980
 131.3514700  80.7131560  85.2293650 132.2984990  79.8522770  84.4207210
 127.0954170  76.8805160  86.6753530 127.1359510  76.5819030  87.5838760
 127.9499670  77.2812770  86.5161050 137.9338040  79.9266720  84.4069210
 138.3479060  80.0811800  85.2559630 136.9989040  80.0521940  84.5694990
 138.4060210  77.2662880  86.4108360 138.9880980  76.5115200  86.3228840
 138.5821980  77.7970320  85.6339840 132.6953270  79.8787200  82.3765140
 133.1141380  80.7219930  82.2041380 131.7761900  80.0159240  82.1471920
 135.0317170  77.6103380  83.7602980 135.1513380  77.0144520  84.4997820
 135.8911170  77.6473070  83.3404280 137.3705070  78.1640570  82.3365490
 136.8440290  78.6883190  81.7330630 137.7136410  78.7967960  82.9675220
 136.6179370  73.7690540  85.2511820 135.9294890  73.1072080  85.1861810
 137.3385390  73.3228810  85.6960280 137.2479770  70.3642170  71.3102080
 137.5282060  69.5210070  71.6661500 136.4745500  70.5965280  71.8240830
 127.5904390  81.9576980  69.6022880 128.0279260  82.5006650  70.2580460
 128.0752120  81.1323930  69.6119220 140.9302580  85.1153600  84.0802080
 140.3304570  85.1746160  83.3366000 141.0596480  84.1758580  84.2098930
 142.1704030  82.8571420  69.4171790 141.3396990  82.9248070  69.8879020
 142.3475860  83.7475540  69.1138650 141.6260490  79.6018900  71.9205990
 142.3879400  80.1715550  72.0265680 141.6414860  79.0346100  72.6914300
 125.1264830  78.1256830  76.1513650 124.4713670  77.8568470  75.5073350
 125.9642780  78.0161310  75.7015630 142.6320460  80.4569000  76.7647920
 143.0029290  79.6736320  76.3583890 143.2722390  81.1458100  76.5865220
 139.6154220  81.8405580  82.1778240 138.8014060  82.2702740  82.4404030
 140.0228420  82.4523990  81.5647290 141.6779660  79.8953270  69.0778510
 141.9528500  80.8032150  68.9497730 141.4890400  79.8315800  70.0140500
 138.0755270  72.9198120  70.3732140 138.4940150  72.7329100  69.5328800
 137.7691330  72.0677170  70.6835070 141.5745000  77.8322260  74.0707940
 141.1988600  77.0650190  73.6389230 140.8448120  78.2144960  74.5582870
 126.1640760  78.5109400  80.6916990 126.5313800  78.4236800  81.5713010
 125.5951580  77.7475950  80.5923850 140.9644620  76.9793780  83.7047460
 140.7330710  76.7506530  82.8045410 141.2249170  77.8993330  83.6592350
 125.7156760  75.4218490  84.5975410 124.8212810  75.3885250  84.9369120
 126.2554310  75.6205280  85.3626660 140.3395930  75.3153100  73.3107590
 140.8355050  75.0823970  74.0956470 140.1412000  74.4764940  72.8945230
 140.1148810  69.8908180  82.3028270 140.7521030  70.5042320  82.6687460
 140.2623700  69.9268840  81.3577500 142.6573360  71.7821970  69.0851410
 143.5822670  71.6503150  68.8769700 142.6349150  71.8614790  70.0387860
 142.7311850  72.5532630  71.7108120 141.9363350  72.4877750  72.2401030
 142.9355130  73.4883270  71.6993470 125.9728470  69.8522490  81.6883950
 125.6243290  70.3086310  82.4542130 125.6416170  68.9579620  81.7706380
 142.5403030  86.5996060  82.2557500 142.0461310  86.9964930  81.5384630
 141.9316320  85.9745270  82.6494780 126.6449110  69.3798690  84.9634720
 127.1932100  69.1986740  84.2000830 126.7104420  68.5892800  85.4991030
 136.8635890  69.2636570  81.1764950 135.9895730  69.5971680  80.9737880
 136.7546640  68.7909750  82.0016820 140.2242480  87.2419480  79.5344240
 139.7645450  87.9935290  79.1602260 139.5954940  86.5225950  79.4759040
 141.0270350  70.5144750  76.1715770 140.9658750  69.5705970  76.0246790
 141.8062380  70.6224840  76.7169230 132.4964930  72.5993160  75.6273890
 131.6839440  72.2250050  75.2869770 133.0006570  71.8438240  75.9295080
 136.9989910  69.2635610  76.8656960 137.6019280  69.8355820  77.3405480
 136.2582900  69.8275050  76.6430860 140.1424510  69.6657170  72.1397240
 140.3375140  70.5640620  72.4064670 139.3554380  69.4344250  72.6330190
 130.5214110  70.7493080  74.2318940 129.8916850  70.0480390  74.3989070
 129.9819250  71.5097210  74.0152100 141.6951120  86.9057880  73.9003800
 141.8703310  86.2195620  73.2564720 140.9972690  87.4304930  73.5080470
 128.3027150  79.5521940  60.3671670 127.4712030  79.2970650  60.7668180
 128.9108130  79.6232710  61.1029590 134.5332060  85.9320330  57.8899030
 133.9143500  86.3877830  57.3193470 135.3883840  86.0871790  57.4888730
 138.5399600  72.2180140  56.6563340 139.3609220  71.7276710  56.6988820
 138.5733680  72.8077800  57.4095180 130.7288220  76.0641700  59.5177620
 131.2366440  76.5622670  60.1582640 131.2601460  75.2876900  59.3416980
 142.8299150  74.2346890  63.2206970 142.1251320  74.6228600  62.7022080
 143.0957070  74.9297180  63.8227900 129.0124320  70.7040260  63.7841040
 129.0142760  71.2212650  62.9786940 128.1828630  70.2270440  63.7610970
 130.2627170  80.3435440  61.9614540 129.9296550  80.9704360  62.6035610
 130.4393850  80.8697320  61.1816210 140.3923860  83.7755650  61.6918360
 139.7087380  84.4454760  61.6835030 140.9318150  83.9736300  60.9263220
 132.3767540  69.9032490  58.1156080 132.6842520  69.3479380  57.3991580
 131.4468240  70.0376950  57.9329070 137.9282600  85.6199780  60.4063540
 137.9409760  85.2162070  59.5385800 137.3757820  86.3947070  60.3024970
 137.3268040  80.5229620  61.7346150 137.7436830  80.3089730  60.8999610
 138.0507860  80.7802410  62.3054770 134.7648300  77.9681320  54.8516200
 133.8377580  77.9018700  55.0804670 134.9173120  78.9061450  54.7371440
 134.7517380  74.2398320  51.8483360 133.8121050  74.4012280  51.9335820
 135.0700640  74.9584000  51.3019350 141.2730140  78.9216840  61.8262390
 140.4448770  78.9909930  61.3512520 141.8680620  79.5071150  61.3578220
 130.3704940  78.4946060  57.6335930 129.9661940  77.7823310  57.1381830
 130.4568060  78.1499300  58.5223970 130.8386640  82.1813620  59.7975140
 130.5414930  81.5759090  59.1182920 131.7886460  82.2190930  59.6864500
 138.9272250  85.7545490  63.4598240 138.4502810  86.5617680  63.2670850
 138.2434040  85.1023820  63.6124450 129.9305070  81.9195310  66.4482940
 129.0333600  82.1435280  66.6956340 129.9557940  82.0430250  65.4994340
 140.5527430  70.0231240  50.6765240 140.2400090  70.1158070  51.5764310
 141.3139900  70.6012270  50.6262670 142.5071460  85.5157430  68.5289630
 142.9831180  85.9940320  69.2078710 143.1278620  85.4474920  67.8035130
 124.7094940  80.5606180  60.9411220 124.7875360  80.6954950  59.9966940
 125.3236620  79.8522070  61.1339340 125.9542570  82.2606370  57.3517400
 125.5470650  82.4020960  56.4971000 126.8455580  81.9766530  57.1488610
 141.9104710  82.7070280  65.6889640 142.0367770  82.4682160  64.7706820
 141.9526090  81.8754820  66.1611720 135.7721450  86.4098280  64.2584450
 136.2866120  86.3206290  65.0606880 134.9290530  86.7557980  64.5512360
 137.7475850  86.6953620  53.6868450 137.5876990  86.4056560  54.5850280
 137.5822560  85.9193750  53.1513680 137.4501980  84.2041180  52.2466450
 136.7567140  84.2018470  51.5868730 138.1924840  83.7800500  51.8160620
 137.0151910  85.8303890  56.3214940 137.4708860  85.0493270  56.6353560
 137.3544430  86.5410710  56.8656120 141.7628720  74.7602740  66.6539380
 141.1472990  75.2682410  66.1254840 141.4425140  73.8601070  66.5965320
 124.7654460  81.6020350  63.4805680 124.9285500  81.1325710  62.6625050
 125.2306910  81.0943910  64.1454520 131.5749130  71.2773440  60.3755850
 131.8721460  72.1836270  60.2947870 132.1234690  70.7892220  59.7615420
 129.3287450  75.8559680  56.2447500 129.1028370  75.6396850  57.1494120
 128.5479980  76.2888140  55.8993470 136.5585210  75.8623050  54.8438150
 135.9594100  76.5858850  54.6601770 137.1064820  75.7999830  54.0614600
 135.1650080  74.4986590  56.8741430 135.5579650  74.8158790  56.0610120
 135.5266930  73.6198470  56.9885950 124.3884480  75.0307510  50.3074350
 124.3059150  75.9738270  50.4489340 124.0367540  74.8882420  49.4286700
 132.1882610  73.7646540  59.3744700 132.1918670  73.3236490  58.5249240
 133.0833730  74.0863870  59.4816520 128.0384990  73.6473030  58.3338910
 127.6985040  74.1248260  59.0905960 127.2762310  73.1938150  57.9740010
 132.2502760  74.7658620  52.3651460 132.3715580  74.7245100  53.3137280
 131.8651270  75.6282770  52.2098190 139.6401880  69.9558200  66.2201530
 139.9647650  69.2247860  66.7459510 139.6758390  69.6371840  65.3182520
 126.3393440  80.9771780  65.6401490 125.9548230  80.3365450  66.2384450
 126.6505630  81.6807900  66.2096220 137.7418050  75.8340920  52.2679110
 138.6297670  76.1458150  52.0930450 137.7123140  74.9613170  51.8759690
 128.8509140  80.7398330  57.6739980 129.3687810  79.9366590  57.6196870
 128.3993160  80.6777470  58.5156810 134.8795250  82.9612940  65.4660360
 134.8939790  82.0293900  65.2479270 134.1720350  83.0472700  66.1050130
 140.0132320  77.1452760  51.7358970 139.9296040  77.5766980  50.8855410
 140.7326510  77.6051110  52.1685790 141.0906460  79.6020280  64.8128940
 140.3654650  80.1949060  64.6158330 141.6181920  79.5943820  64.0142310
 141.0419570  83.9995020  54.4641100 140.3995730  83.3450640  54.7384820
 140.6550230  84.4050110  53.6881770 132.7069330  82.0878140  55.7183200
 133.3940460  82.6347350  56.0990790 131.9201750  82.6318870  55.7532810
 132.0096540  79.0924170  55.3308560 132.4659320  79.9029420  55.5568750
 131.6584750  78.7747310  56.1627050 135.5861230  82.6062860  61.2778310
 136.2283460  81.9056020  61.3910480 136.1110580  83.3861300  61.0975200
 139.4316950  82.8911480  51.0017450 139.2054530  82.1741920  51.5942090
 139.0413150  82.6423920  50.1639200 137.3598850  83.4057760  64.4814370
 137.6955090  83.9924450  65.1592290 136.4399190  83.2750470  64.7112160
 125.2132980  86.9178340  51.7761910 125.5730620  87.5167680  51.1219180
 125.0725320  87.4638230  52.5496940 124.9102250  71.1952940  65.2637780
 124.1960770  71.3949860  65.8690390 125.3297290  70.4192510  65.6352580
 139.0133200  80.8083420  52.6631610 138.7254900  81.2696110  53.4509490
 139.8085370  80.3481190  52.9315830 133.1887430  83.4549090  67.6502430
 132.8684300  82.7358330  68.1948120 132.5145790  84.1304160  67.7238490
 139.7703060  72.6432190  53.8226790 139.1416220  72.7477860  53.1085020
 139.2754980  72.8628970  54.6120670 131.7387090  74.9218140  55.2384670
 131.0303240  75.3904480  55.6798280 132.0231570  74.2640150  55.8729860
 135.7702520  71.6468800  56.6780460 135.6470300  71.6654930  55.7289970
 136.7187080  71.6947740  56.7978860 140.8657470  84.9724830  59.2021210
 140.9904890  85.7956000  59.6745020 141.7323030  84.7615560  58.8545360
 128.3375000  87.0656040  58.8738340 129.0737480  86.5171500  59.1446910
 128.7215920  87.9312050  58.7344330 125.2220480  83.1329610  54.7479850
 124.2960260  83.3750750  54.7385260 125.6876910  83.9603870  54.6264600
 136.1797910  82.3581980  68.0099330 135.5736070  82.3813580  67.2695080
 135.8752020  81.6265020  68.5466580 137.6098280  86.0862270  66.6208740
 138.5620030  86.0020290  66.5708980 137.4626500  86.7503980  67.2942530
 140.5007480  85.4656480  52.1200650 140.2148990  85.0521620  51.3054830
 140.3027030  86.3944190  52.0001170 125.0631090  78.7375570  67.0059970
 125.5670110  78.1582850  67.5776200 124.3238510  79.0215800  67.5436340
 139.2592380  81.8751890  67.0970510 140.0001850  82.2127650  66.5937970
 138.4965060  82.0443950  66.5440280 137.9338040  79.9266720  65.6325720
 138.3479060  80.0811800  66.4816140 136.9989040  80.0521940  65.7951500
 132.2893720  70.9832870  62.9809210 131.8411020  71.0057130  62.1354760
 131.6558920  70.5851890  63.5779510 124.8050190  84.7466010  58.2799650
 125.1353200  83.8787070  58.0478290 125.2341190  84.9524530  59.1104610
 129.4012110  83.0775020  55.9401620 129.1007650  82.9539990  56.8405530
 129.2949600  82.2183610  55.5317350 140.9302580  85.1153600  65.3058590
 140.3304570  85.1746160  64.5622510 141.0596480  84.1758580  65.4355440
 142.1704030  82.8571420  50.6428300 141.3396990  82.9248070  51.1135530
 142.3475860  83.7475540  50.3395160 141.6260490  79.6018900  53.1462500
 142.3879400  80.1715550  53.2522190 141.6414860  79.0346100  53.9170810
 125.1264830  78.1256830  57.3770160 124.4713670  77.8568470  56.7329860
 125.9642780  78.0161310  56.9272140 142.6320460  80.4569000  57.9904430
 143.0029290  79.6736320  57.5840400 143.2722390  81.1458100  57.8121730
 139.6154220  81.8405580  63.4034750 138.8014060  82.2702740  63.6660540
 140.0228420  82.4523990  62.7903800 141.6779660  79.8953270  50.3035020
 141.9528500  80.8032150  50.1754240 141.4890400  79.8315800  51.2397010
 138.0755270  72.9198120  51.5988650 138.4940150  72.7329100  50.7585310
 137.7691330  72.0677170  51.9091580 141.5745000  77.8322260  55.2964450
 141.1988600  77.0650190  54.8645740 140.8448120  78.2144960  55.7839380
 139.4032690  72.2050210  67.7083670 140.2802870  72.2133610  68.0917670
 139.4153530  71.4681050  67.0976020 124.3402910  75.3355760  53.3195490
 123.4366990  75.5985960  53.1447150 124.8243530  75.6066930  52.5395450
 126.8830120  74.3921300  51.2289870 127.5921820  73.9704520  50.7437150
 126.1670060  74.4596530  50.5973220 126.5304280  70.4460630  50.2692520
 127.2532410  70.9869570  50.5873740 126.8028800  70.1724050  49.3934060
 140.3395930  75.3153100  54.5364100 140.8355050  75.0823970  55.3212980
 140.1412000  74.4764940  54.1201740 141.7683090  73.9514050  57.0701780
 141.6582370  73.7970090  58.0084050 142.5290680  73.4234990  56.8277190
 140.1148810  69.8908180  63.5284780 140.7521030  70.5042320  63.8943970
 140.2623700  69.9268840  62.5834010 142.6573360  71.7821970  50.3107920
 143.5822670  71.6503150  50.1026210 142.6349150  71.8614790  51.2644370
 142.7311850  72.5532630  52.9364630 141.9363350  72.4877750  53.4657540
 142.9355130  73.4883270  52.9249980 139.6730270  86.5924180  56.9303020
 140.2689340  86.2708750  56.2537440 139.9308420  86.1196000  57.7216290
 125.9728470  69.8522490  62.9140460 125.6243290  70.3086310  63.6798640
 125.6416170  68.9579620  62.9962890 142.5403030  86.5996060  63.4814010
 142.0461310  86.9964930  62.7641140 141.9316320  85.9745270  63.8751290
 126.6449110  69.3798690  66.1891230 127.1932100  69.1986740  65.4257340
 126.7104420  68.5892800  66.7247540 136.8635890  69.2636570  62.4021460
 135.9895730  69.5971680  62.1994390 136.7546640  68.7909750  63.2273330
 140.2242480  87.2419480  60.7600750 139.7645450  87.9935290  60.3858770
 139.5954940  86.5225950  60.7015550 134.6110710  70.1806410  61.3414370
 133.8282500  70.6551910  61.6211130 134.3173640  69.2761240  61.2327550
 139.1631780  70.8829510  59.3863460 139.6039870  70.8274610  58.5385060
 138.8939370  71.7987520  59.4573640 141.0270350  70.5144750  57.3972280
 140.9658750  69.5705970  57.2503300 141.8062380  70.6224840  57.9425740
 125.3323100  86.6537110  56.3596230 125.1645140  86.0207790  57.0578120
 124.4657610  86.8596510  56.0090420 132.4964930  72.5993160  56.8530400
 131.6839440  72.2250050  56.5126280 133.0006570  71.8438240  57.1551590
 136.9989910  69.2635610  58.0913470 137.6019280  69.8355820  58.5661990
 136.2582900  69.8275050  57.8687370 140.1424510  69.6657170  53.3653750
 140.3375140  70.5640620  53.6321180 139.3554380  69.4344250  53.8586700
 126.9385800  85.3470340  53.8046370 126.4133420  85.7278370  53.1008330
 126.8630380  85.9721110  54.5256080 133.4606060  87.3632310  68.1286060
 134.3873370  87.1276580  68.1722020 133.4456490  88.1904310  67.6472090
 141.6951120  86.9057880  55.1260310 141.8703310  86.2195620  54.4821230
 140.9972690  87.4304930  54.7336980 140.0283620  86.5902170  67.9527100
 140.8208940  86.0951400  67.7453060 140.3216770  87.2692310  68.5602710
 136.1543280  77.4623110  38.8343150 136.0737330  76.5477720  38.5634860
 135.7407700  77.9590180  38.1282860 138.3068750  83.6462320  39.4951550
 137.8450280  82.8749560  39.8238720 139.1194300  83.6728390  40.0004000
 126.7119100  74.5123830  35.3770570 125.8235800  74.8539800  35.2750450
 126.9960290  74.3124150  34.4851400 134.5332060  85.9320330  39.1155540
 133.9143500  86.3877830  38.5449980 135.3883840  86.0871790  38.7145240
 134.7575480  74.7229700  40.9491510 135.1340300  73.8501580  40.8365180
 134.6594990  75.0588400  40.0581950 128.8880490  73.0955330  36.4108950
 128.9947240  73.9959060  36.7177710 127.9772850  73.0473300  36.1203600
 138.5399600  72.2180140  37.8819850 139.3609220  71.7276710  37.9245330
 138.5733680  72.8077800  38.6351690 130.7288220  76.0641700  40.7434130
 131.2366440  76.5622670  41.3839150 131.2601460  75.2876900  40.5673490
 142.8299150  74.2346890  44.4463480 142.1251320  74.6228600  43.9278590
 143.0957070  74.9297180  45.0484410 135.3995410  80.8159570  36.5087450
 134.7812680  81.2809020  35.9450170 135.9118660  81.5087050  36.9256960
 138.7761080  74.1580520  40.6547390 138.0716650  74.4465410  41.2350500
 139.1373240  74.9680630  40.2946950 129.4746270  82.3116240  45.0020230
 130.0920270  82.9867320  44.7204680 128.6139390  82.7204220  44.9107730
 124.7678610  81.5016100  33.8827080 124.3906590  81.9903200  33.1511980
 125.0251680  82.1741380  34.5133610 140.3923860  83.7755650  42.9174870
 139.7087380  84.4454760  42.9091540 140.9318150  83.9736300  42.1519730
 141.8448000  73.6035310  41.0456600 140.8972910  73.6374290  41.1772030
 142.1697990  74.4174260  41.4305960 132.3767540  69.9032490  39.3412590
 132.6842520  69.3479380  38.6248090 131.4468240  70.0376950  39.1585580
 137.9282600  85.6199780  41.6320050 137.9409760  85.2162070  40.7642310
 137.3757820  86.3947070  41.5281480 139.2228020  82.3416000  36.7210220
 139.1124350  81.3990330  36.8459640 139.2196270  82.7031640  37.6072980
 137.3268040  80.5229620  42.9602660 137.7436830  80.3089730  42.1256120
 138.0507860  80.7802410  43.5311280 134.7648300  77.9681320  36.0772710
 133.8377580  77.9018700  36.3061180 134.9173120  78.9061450  35.9627950
 134.7517380  74.2398320  33.0739870 133.8121050  74.4012280  33.1592330
 135.0700640  74.9584000  32.5275860 141.2730140  78.9216840  43.0518900
 140.4448770  78.9909930  42.5769030 141.8680620  79.5071150  42.5834730
 138.7945590  79.5301620  36.5807960 138.1758010  79.1921170  35.9334260
 138.7770040  78.8861380  37.2887150 138.2372150  75.7086160  43.9973770
 137.8243330  76.5339870  44.2513760 137.5048100  75.1231200  43.8050130
 129.0833560  75.2689270  42.6391480 129.6348150  75.3784610  41.8644730
 129.5977070  75.6426870  43.3546710 138.9272250  85.7545490  44.6854750
 138.4502810  86.5617680  44.4927360 138.2434040  85.1023820  44.8380960
 136.9710290  78.7688430  33.5880710 137.4103570  77.9310860  33.4418530
 137.6838710  79.4017830  33.6744850 135.0805670  83.7084500  37.5561950
 135.5201580  84.4508830  37.1417340 135.0192560  83.9511070  38.4800910
 140.5527430  70.0231240  31.9021750 140.2400090  70.1158070  32.8020820
 141.3139900  70.6012270  31.8519180 127.0709570  77.3891040  36.3599090
 126.9507170  78.1153130  35.7480360 126.7610460  76.6193950  35.8827000
 142.5071460  85.5157430  49.7546140 142.9831180  85.9940320  50.4335220
 143.1278620  85.4474920  49.0291640 141.9104710  82.7070280  46.9146150
 142.0367770  82.4682160  45.9963330 141.9526090  81.8754820  47.3868230
 137.7475850  86.6953620  34.9124960 137.5876990  86.4056560  35.8106790
 137.5822560  85.9193750  34.3770190 130.2264230  86.4752150  36.6896580
 130.0506710  85.5587690  36.4764380 129.3719970  86.8339440  36.9294380
 137.4501980  84.2041180  33.4722960 136.7567140  84.2018470  32.8125240
 138.1924840  83.7800500  33.0417130 137.0151910  85.8303890  37.5471450
 137.4708860  85.0493270  37.8610070 137.3544430  86.5410710  38.0912630
 141.7628720  74.7602740  47.8795890 141.1472990  75.2682410  47.3511350
 141.4425140  73.8601070  47.8221830 138.8247550  74.8203580  46.4754740
 137.9741140  74.5209330  46.7963810 138.6649340  75.0645590  45.5638560
 132.6532050  70.3536810  34.6228590 132.0286230  70.3496680  35.3481900
 132.5662170  69.4867770  34.2264560 131.5749130  71.2773440  41.6012360
 131.8721460  72.1836270  41.5204380 132.1234690  70.7892220  40.9871930
 129.3287450  75.8559680  37.4704010 129.1028370  75.6396850  38.3750630
 128.5479980  76.2888140  37.1249980 136.5585210  75.8623050  36.0694660
 135.9594100  76.5858850  35.8858280 137.1064820  75.7999830  35.2871110
 135.1650080  74.4986590  38.0997940 135.5579650  74.8158790  37.2866630
 135.5266930  73.6198470  38.2142460 124.3884480  75.0307510  31.5330860
 124.3059150  75.9738270  31.6745850 124.0367540  74.8882420  30.6543210
 135.7505220  77.0892340  42.1948720 135.0186340  77.5979150  42.5438820
 135.3529560  76.2722320  41.8937500 132.1882610  73.7646540  40.6001210
 132.1918670  73.3236490  39.7505750 133.0833730  74.0863870  40.7073030
 132.2502760  74.7658620  33.5907970 132.3715580  74.7245100  34.5393790
 131.8651270  75.6282770  33.4354700 136.2131130  72.5426020  41.6071660
 136.2303870  72.9934670  42.4513510 135.9646710  71.6431660  41.8205100
 131.2624260  77.0759760  32.9891270 130.6941160  76.6278010  32.3627180
 131.9713260  77.4352540  32.4556420 139.6401880  69.9558200  47.4458040
 139.9647650  69.2247860  47.9716020 139.6758390  69.6371840  46.5439030
 128.8071740  81.0717950  35.2617680 128.0334000  80.5315570  35.1016400
 129.5366370  80.5524560  34.9235440 139.5659720  80.0683310  41.0544070
 140.2858840  80.5638600  40.6640180 139.3641540  79.3901200  40.4097940
 135.0269660  71.4621270  35.1973460 134.2134270  70.9634440  35.1218770
 134.8331610  72.3019520  34.7809810 137.7418050  75.8340920  33.4935620
 138.6297670  76.1458150  33.3186960 137.7123140  74.9613170  33.1016200
 133.7378640  82.0064610  34.1723790 134.0794340  82.7506840  33.6767110
 132.9091350  82.3195730  34.5348620 140.0132320  77.1452760  32.9615480
 139.9296040  77.5766980  32.1111920 140.7326510  77.6051110  33.3942300
 141.0906460  79.6020280  46.0385450 140.3654650  80.1949060  45.8414840
 141.6181920  79.5943820  45.2398820 141.0419570  83.9995020  35.6897610
 140.3995730  83.3450640  35.9641330 140.6550230  84.4050110  34.9138280
 136.6206050  81.3280450  39.5369300 136.9729870  80.7308580  38.8770670
 135.7368380  81.0024680  39.7077550 132.7069330  82.0878140  36.9439710
 133.3940460  82.6347350  37.3247300 131.9201750  82.6318870  36.9789320
 124.8461730  77.7050960  32.4356790 125.7156580  77.9875760  32.7192710
 124.3552050  78.5186830  32.3205600 132.0096540  79.0924170  36.5565070
 132.4659320  79.9029420  36.7825260 131.6584750  78.7747310  37.3883560
 135.5861230  82.6062860  42.5034820 136.2283460  81.9056020  42.6166990
 136.1110580  83.3861300  42.3231710 139.4316950  82.8911480  32.2273960
 139.2054530  82.1741920  32.8198600 139.0413150  82.6423920  31.3895710
 137.3598850  83.4057760  45.7070880 137.6955090  83.9924450  46.3848800
 136.4399190  83.2750470  45.9368670 125.2132980  86.9178340  33.0018420
 125.5730620  87.5167680  32.3475690 125.0725320  87.4638230  33.7753450
 139.0133200  80.8083420  33.8888120 138.7254900  81.2696110  34.6766000
 139.8085370  80.3481190  34.1572340 131.2301600  84.3009540  33.8192090
 131.2211700  85.0339230  33.2036600 130.3099960  84.0541120  33.9119050
 126.8308240  79.5224430  34.5638850 126.2236190  80.2623330  34.5734150
 127.3057590  79.6123790  33.7377050 136.4041030  73.6875250  44.2395740
 136.7721850  72.8670460  44.5675310 135.5439230  73.7477140  44.6551390
 139.7703060  72.6432190  35.0483300 139.1416220  72.7477860  34.3341530
 139.2754980  72.8628970  35.8377180 134.2161200  84.3637780  32.4817280
 134.3173180  84.1601770  31.5519260 133.3162940  84.1096060  32.6865060
 131.7387090  74.9218140  36.4641180 131.0303240  75.3904480  36.9054790
 132.0231570  74.2640150  37.0986370 133.3643020  76.3414840  44.4633710
 133.8628270  76.8160660  45.1285560 133.5065970  75.4178360  44.6703740
 135.7702520  71.6468800  37.9036970 135.6470300  71.6654930  36.9546480
 136.7187080  71.6947740  38.0235370 132.8579310  86.8824100  37.1764950
 133.1120810  86.8445490  36.2544320 131.9091790  86.7557430  37.1693200
 129.9422110  73.2303220  33.8391890 130.7912640  73.6673370  33.7732080
 129.5753380  73.5423480  34.6663950 140.5709880  72.5582800  45.3062100
 140.0683480  73.2988200  45.6455910 141.3866540  72.9466800  44.9898890
 138.8631890  77.8015980  38.7523460 137.9222030  77.8166210  38.9271150
 139.1775960  77.0151940  39.1983760 128.8413530  79.4835580  32.3127420
 129.6076800  79.3716940  32.8752850 128.9188220  78.7873550  31.6604190
 127.5360290  76.9160650  32.9960310 127.6163880  75.9688160  33.1077710
 128.4280040  77.2467530  33.1020970 140.8657470  84.9724830  40.4277720
 140.9904890  85.7956000  40.9001530 141.7323030  84.7615560  40.0801870
 128.3375000  87.0656040  40.0994850 129.0737480  86.5171500  40.3703420
 128.7215920  87.9312050  39.9600840 125.2220480  83.1329610  35.9736360
 124.2960260  83.3750750  35.9641770 125.6876910  83.9603870  35.8521110
 131.4477310  86.2386350  31.9220420 132.2405920  86.5275180  31.4702210
 130.9281660  85.8078520  31.2432900 136.1797910  82.3581980  49.2355840
 135.5736070  82.3813580  48.4951590 135.8752020  81.6265020  49.7723090
 140.5007480  85.4656480  33.3457160 140.2148990  85.0521620  32.5311340
 140.3027030  86.3944190  33.2257680 131.9654710  81.4589760  31.7862770
 131.8605350  80.8442110  32.5124150 131.7978930  80.9355650  31.0025780
 135.2057440  80.5209790  32.3904760 134.6567540  80.9679090  33.0347500
 135.8276700  80.0159040  32.9142430 139.2592380  81.8751890  48.3227020
 140.0001850  82.2127650  47.8194480 138.4965060  82.0443950  47.7696790
 130.8732560  79.4800710  34.2870060 131.2948980  79.3140580  35.1301450
 130.9983400  78.6700940  33.7925200 133.3860200  78.5038320  31.5347160
 133.9065860  77.7887340  31.1688310 134.0328600  79.1424190  31.8347670
 137.9338040  79.9266720  46.8582230 138.3479060  80.0811800  47.7072650
 136.9989040  80.0521940  47.0208010 137.3705070  78.1640570  44.7878510
 136.8440290  78.6883190  44.1843650 137.7136410  78.7967960  45.4188240
 129.7691460  75.5533940  31.2328220 129.5680520  74.6901300  31.5941560
 129.5983510  75.4667300  30.2949820 136.6179370  73.7690540  47.7024840
 135.9294890  73.1072080  47.6374830 137.3385390  73.3228810  48.1473300
 137.2479770  70.3642170  33.7615100 137.5282060  69.5210070  34.1174520
 136.4745500  70.5965280  34.2753850 128.5674260  72.6534560  31.2206100
 128.8700160  72.6601990  30.3125250 129.3068850  72.3032420  31.7173760
 131.7859190  71.5969180  32.2062300 131.4381190  70.9193170  31.6264750
 131.9871960  71.1358690  33.0205690 133.9508230  86.5849930  33.8248900
 134.8459020  86.9234900  33.8467660 133.9825860  85.8629340  33.1973180
 127.5904390  81.9576980  32.0535900 128.0279260  82.5006650  32.7093480
 128.0752120  81.1323930  32.0632240 129.4012110  83.0775020  37.1658130
 129.1007650  82.9539990  38.0662040 129.2949600  82.2183610  36.7573860
 140.9302580  85.1153600  46.5315100 140.3304570  85.1746160  45.7879020
 141.0596480  84.1758580  46.6611950 142.1704030  82.8571420  31.8684810
 141.3396990  82.9248070  32.3392040 142.3475860  83.7475540  31.5651670
 141.6260490  79.6018900  34.3719010 142.3879400  80.1715550  34.4778700
 141.6414860  79.0346100  35.1427320 142.6320460  80.4569000  39.2160940
 143.0029290  79.6736320  38.8096910 143.2722390  81.1458100  39.0378240
 139.6154220  81.8405580  44.6291260 138.8014060  82.2702740  44.8917050
 140.0228420  82.4523990  44.0160310 141.6779660  79.8953270  31.5291530
 141.9528500  80.8032150  31.4010750 141.4890400  79.8315800  32.4653520
 138.0755270  72.9198120  32.8245160 138.4940150  72.7329100  31.9841820
 137.7691330  72.0677170  33.1348090 141.5745000  77.8322260  36.5220960
 141.1988600  77.0650190  36.0902250 140.8448120  78.2144960  37.0095890
 140.9644620  76.9793780  46.1560480 140.7330710  76.7506530  45.2558430
 141.2249170  77.8993330  46.1105370 139.4032690  72.2050210  48.9340180
 140.2802870  72.2133610  49.3174180 139.4153530  71.4681050  48.3232530
 124.3402910  75.3355760  34.5452000 123.4366990  75.5985960  34.3703660
 124.8243530  75.6066930  33.7651960 140.8495960  76.0579750  39.8228200
 141.3733440  75.5642400  39.1918370 141.4355380  76.1930110  40.5675770
 141.0285680  76.1419620  43.3447750 140.0788390  76.1083160  43.4592740
 141.2098690  77.0519730  43.1097520 126.8830120  74.3921300  32.4546380
 127.5921820  73.9704520  31.9693660 126.1670060  74.4596530  31.8229730
 126.5304280  70.4460630  31.4949030 127.2532410  70.9869570  31.8130250
 126.8028800  70.1724050  30.6190570 140.3395930  75.3153100  35.7620610
 140.8355050  75.0823970  36.5469490 140.1412000  74.4764940  35.3458250
 141.7683090  73.9514050  38.2958290 141.6582370  73.7970090  39.2340560
 142.5290680  73.4234990  38.0533700 140.1148810  69.8908180  44.7541290
 140.7521030  70.5042320  45.1200480 140.2623700  69.9268840  43.8090520
 142.6573360  71.7821970  31.5364430 143.5822670  71.6503150  31.3282720
 142.6349150  71.8614790  32.4900880 142.7311850  72.5532630  34.1621140
 141.9363350  72.4877750  34.6914050 142.9355130  73.4883270  34.1506490
 139.6730270  86.5924180  38.1559530 140.2689340  86.2708750  37.4793950
 139.9308420  86.1196000  38.9472800 142.5403030  86.5996060  44.7070520
 142.0461310  86.9964930  43.9897650 141.9316320  85.9745270  45.1007800
 127.4180870  85.9704340  45.4247940 126.8241190  85.8389040  46.1637980
 127.4104710  85.1342480  44.9590040 136.8635890  69.2636570  43.6277970
 135.9895730  69.5971680  43.4250900 136.7546640  68.7909750  44.4529840
 137.7707870  71.4707440  45.0119690 137.4421230  70.6559200  44.6321420
 138.7190170  71.4277250  44.8885380 140.2242480  87.2419480  41.9857260
 139.7645450  87.9935290  41.6115280 139.5954940  86.5225950  41.9272060
 130.6538200  85.5507720  41.1605390 131.1703220  84.9395080  40.6353650
 131.3035580  86.0536500  41.6516400 133.3933700  86.4416210  41.9874370
 133.6811510  86.1870510  41.1107380 133.9056920  85.8893570  42.5779940
 134.6110710  70.1806410  42.5670880 133.8282500  70.6551910  42.8467640
 134.3173640  69.2761240  42.4584060 139.1631780  70.8829510  40.6119970
 139.6039870  70.8274610  39.7641570 138.8939370  71.7987520  40.6830150
 141.0270350  70.5144750  38.6228790 140.9658750  69.5705970  38.4759810
 141.8062380  70.6224840  39.1682250 125.3323100  86.6537110  37.5852740
 125.1645140  86.0207790  38.2834630 124.4657610  86.8596510  37.2346930
 125.9551120  70.4853890  35.0884600 126.7130480  70.5982770  34.5148630
 125.4928290  71.3223090  35.0428030 132.4964930  72.5993160  38.0786910
 131.6839440  72.2250050  37.7382790 133.0006570  71.8438240  38.3808100
 136.9989910  69.2635610  39.3169980 137.6019280  69.8355820  39.7918500
 136.2582900  69.8275050  39.0943880 140.1424510  69.6657170  34.5910260
 140.3375140  70.5640620  34.8577690 139.3554380  69.4344250  35.0843210
 126.9385800  85.3470340  35.0302880 126.4133420  85.7278370  34.3264840
 126.8630380  85.9721110  35.7512590 128.3276270  71.0117940  33.6286570
 128.8569030  70.2247740  33.4994520 128.9604590  71.6909130  33.8622100
 130.5214110  70.7493080  36.6831960 129.8916850  70.0480390  36.8502090
 129.9819250  71.5097210  36.4665120 141.6951120  86.9057880  36.3516820
 141.8703310  86.2195620  35.7077740 140.9972690  87.4304930  35.9593490
 129.5378770  87.2952720  33.9052130 130.2697590  87.0112000  33.3576020
 129.7972440  87.0566000  34.7951510 128.6993560  83.4117450  33.9098460
 128.0702440  83.8802550  34.4584290 128.8141390  82.5666670  34.3444650
 140.0283620  86.5902170  49.1783610 140.8208940  86.0951400  48.9709570
 140.3216770  87.2692310  49.7859220 136.1543280  77.4623110  20.0599660
 136.0737330  76.5477720  19.7891370 135.7407700  77.9590180  19.3539370
 134.2861320  79.2402130  21.9408930 133.5103420  78.7602570  22.2307500
 134.9374250  78.5607780  21.7665090 128.3027150  79.5521940  22.8184690
 127.4712030  79.2970650  23.2181200 128.9108130  79.6232710  23.5542610
 138.3068750  83.6462320  20.7208060 137.8450280  82.8749560  21.0495230
 139.1194300  83.6728390  21.2260510 128.2828410  83.5862030  23.0142710
 128.5856450  82.6959770  22.8352930 129.0272000  84.1432250  22.7864960
 126.7119100  74.5123830  16.6027080 125.8235800  74.8539800  16.5006960
 126.9960290  74.3124150  15.7107910 124.6752110  77.1129480  22.4866780
 125.2468220  76.3451680  22.4870420 124.6753650  77.4118240  21.5773390
 134.5332060  85.9320330  20.3412050 133.9143500  86.3877830  19.7706490
 135.3883840  86.0871790  19.9401750 133.7270310  81.9159320  21.9479090
 133.6578590  80.9749260  21.7868220 134.4890170  82.0060730  22.5201660
 125.9176980  72.5213840  24.2735710 125.7379820  71.6239590  24.5538470
 125.5157060  73.0685710  24.9482660 134.7575480  74.7229700  22.1748020
 135.1340300  73.8501580  22.0621690 134.6594990  75.0588400  21.2838460
 128.8880490  73.0955330  17.6365460 128.9947240  73.9959060  17.9434220
 127.9772850  73.0473300  17.3460110 138.5399600  72.2180140  19.1076360
 139.3609220  71.7276710  19.1501840 138.5733680  72.8077800  19.8608200
 126.5363650  75.0174340  22.8818050 127.2173760  75.2812710  23.5005450
 126.2211700  74.1775210  23.2156060 130.7288220  76.0641700  21.9690640
 131.2366440  76.5622670  22.6095660 131.2601460  75.2876900  21.7930000
 142.8299150  74.2346890  25.6719990 142.1251320  74.6228600  25.1535100
 143.0957070  74.9297180  26.2740920 129.0124320  70.7040260  26.2354060
 129.0142760  71.2212650  25.4299960 128.1828630  70.2270440  26.2123990
 135.3995410  80.8159570  17.7343960 134.7812680  81.2809020  17.1706680
 135.9118660  81.5087050  18.1513470 130.2627170  80.3435440  24.4127560
 129.9296550  80.9704360  25.0548630 130.4393850  80.8697320  23.6329230
 138.7761080  74.1580520  21.8803900 138.0716650  74.4465410  22.4607010
 139.1373240  74.9680630  21.5203460 128.6939650  72.4150220  24.2424510
 129.0356460  73.2592270  23.9478380 127.7555460  72.5633960  24.3589850
 129.4746270  82.3116240  26.2276740 130.0920270  82.9867320  25.9461190
 128.6139390  82.7204220  26.1364240 124.7678610  81.5016100  15.1083590
 124.3906590  81.9903200  14.3768490 125.0251680  82.1741380  15.7390120
 140.3923860  83.7755650  24.1431380 139.7087380  84.4454760  24.1348050
 140.9318150  83.9736300  23.3776240 141.8448000  73.6035310  22.2713110
 140.8972910  73.6374290  22.4028540 142.1697990  74.4174260  22.6562470
 132.3767540  69.9032490  20.5669100 132.6842520  69.3479380  19.8504600
 131.4468240  70.0376950  20.3842090 137.9282600  85.6199780  22.8576560
 137.9409760  85.2162070  21.9898820 137.3757820  86.3947070  22.7537990
 139.2228020  82.3416000  17.9466730 139.1124350  81.3990330  18.0716150
 139.2196270  82.7031640  18.8329490 137.3268040  80.5229620  24.1859170
 137.7436830  80.3089730  23.3512630 138.0507860  80.7802410  24.7567790
 134.7648300  77.9681320  17.3029220 133.8377580  77.9018700  17.5317690
 134.9173120  78.9061450  17.1884460 134.7517380  74.2398320  14.2996380
 133.8121050  74.4012280  14.3848840 135.0700640  74.9584000  13.7532370
 141.2730140  78.9216840  24.2775410 140.4448770  78.9909930  23.8025540
 141.8680620  79.5071150  23.8091240 138.7945590  79.5301620  17.8064470
 138.1758010  79.1921170  17.1590770 138.7770040  78.8861380  18.5143660
 138.2372150  75.7086160  25.2230280 137.8243330  76.5339870  25.4770270
 137.5048100  75.1231200  25.0306640 130.3704940  78.4946060  20.0848950
 129.9661940  77.7823310  19.5894850 130.4568060  78.1499300  20.9736990
 130.8386640  82.1813620  22.2488160 130.5414930  81.5759090  21.5695940
 131.7886460  82.2190930  22.1377520 129.0833560  75.2689270  23.8647990
 129.6348150  75.3784610  23.0901240 129.5977070  75.6426870  24.5803220
 138.9272250  85.7545490  25.9111260 138.4502810  86.5617680  25.7183870
 138.2434040  85.1023820  26.0637470 129.9305070  81.9195310  28.8995960
 129.0333600  82.1435280  29.1469360 129.9557940  82.0430250  27.9507360
 136.9710290  78.7688430  14.8137220 137.4103570  77.9310860  14.6675040
 137.6838710  79.4017830  14.9001360 128.7576290  78.7908630  27.4753330
 128.6184060  79.6631430  27.8440730 127.8757650  78.4481440  27.3301270
 135.0805670  83.7084500  18.7818460 135.5201580  84.4508830  18.3673850
 135.0192560  83.9511070  19.7057420 130.5556640  84.7330330  29.6838480
 130.5272070  85.1373280  28.8166910 130.3921610  83.8040690  29.5210080
 140.5527430  70.0231240  13.1278260 140.2400090  70.1158070  14.0277330
 141.3139900  70.6012270  13.0775690 127.0709570  77.3891040  17.5855600
 126.9507170  78.1153130  16.9736870 126.7610460  76.6193950  17.1083510
 142.5071460  85.5157430  30.9802650 142.9831180  85.9940320  31.6591730
 143.1278620  85.4474920  30.2548150 124.7094940  80.5606180  23.3924240
 124.7875360  80.6954950  22.4479960 125.3236620  79.8522070  23.5852360
 125.9542570  82.2606370  19.8030420 125.5470650  82.4020960  18.9484020
 126.8455580  81.9766530  19.6001630 141.9104710  82.7070280  28.1402660
 142.0367770  82.4682160  27.2219840 141.9526090  81.8754820  28.6124740
 135.7721450  86.4098280  26.7097470 136.2866120  86.3206290  27.5119900
 134.9290530  86.7557980  27.0025380 137.7475850  86.6953620  16.1381470
 137.5876990  86.4056560  17.0363300 137.5822560  85.9193750  15.6026700
 130.2264230  86.4752150  17.9153090 130.0506710  85.5587690  17.7020890
 129.3719970  86.8339440  18.1550890 137.4501980  84.2041180  14.6979470
 136.7567140  84.2018470  14.0381750 138.1924840  83.7800500  14.2673640
 137.0151910  85.8303890  18.7727960 137.4708860  85.0493270  19.0866580
 137.3544430  86.5410710  19.3169140 141.7628720  74.7602740  29.1052400
 141.1472990  75.2682410  28.5767860 141.4425140  73.8601070  29.0478340
 124.7654460  81.6020350  25.9318700 124.9285500  81.1325710  25.1138070
 125.2306910  81.0943910  26.5967540 129.5373230  70.7326110  20.9679270
 129.0941380  71.5135650  20.6363790 130.0958220  71.0556000  21.6750210
 133.8243040  73.5994630  26.5714590 133.3622410  73.8077650  27.3834530
 133.4221150  72.7853980  26.2685260 138.8247550  74.8203580  27.7011250
 137.9741140  74.5209330  28.0220320 138.6649340  75.0645590  26.7895070
 135.9197260  76.3205330  29.8010040 136.2450670  75.4869080  29.4612270
 136.7077590  76.8433850  29.9488370 132.6532050  70.3536810  15.8485100
 132.0286230  70.3496680  16.5738410 132.5662170  69.4867770  15.4521070
 131.5749130  71.2773440  22.8268870 131.8721460  72.1836270  22.7460890
 132.1234690  70.7892220  22.2128440 129.3287450  75.8559680  18.6960520
 129.1028370  75.6396850  19.6007140 128.5479980  76.2888140  18.3506490
 136.5585210  75.8623050  17.2951170 135.9594100  76.5858850  17.1114790
 137.1064820  75.7999830  16.5127620 131.7686660  76.7545260  29.3620790
 131.6730260  75.8139990  29.2121190 132.6118640  76.9760330  28.9668860
 135.1650080  74.4986590  19.3254450 135.5579650  74.8158790  18.5123140
 135.5266930  73.6198470  19.4398970 126.8997200  73.1658930  27.5154570
 126.5060590  74.0134140  27.7227350 126.2115600  72.5285300  27.7063210
 133.4742250  73.2493900  30.5851310 132.7840570  73.0566100  31.2197400
 134.2174550  73.5328540  31.1175610 124.2014250  71.0887390  21.5484650
 123.9127300  71.6590250  22.2609630 124.9460010  70.6091840  21.9115880
 124.3884480  75.0307510  12.7587370 124.3059150  75.9738270  12.9002360
 124.0367540  74.8882420  11.8799720 135.7505220  77.0892340  23.4205230
 135.0186340  77.5979150  23.7695330 135.3529560  76.2722320  23.1194010
 132.1882610  73.7646540  21.8257720 132.1918670  73.3236490  20.9762260
 133.0833730  74.0863870  21.9329540 128.0384990  73.6473030  20.7851930
 127.6985040  74.1248260  21.5418980 127.2762310  73.1938150  20.4253030
 132.2502760  74.7658620  14.8164480 132.3715580  74.7245100  15.7650300
 131.8651270  75.6282770  14.6611210 136.2131130  72.5426020  22.8328170
 136.2303870  72.9934670  23.6770020 135.9646710  71.6431660  23.0461610
 131.2624260  77.0759760  14.2147780 130.6941160  76.6278010  13.5883690
 131.9713260  77.4352540  13.6812930 139.6401880  69.9558200  28.6714550
 139.9647650  69.2247860  29.1972530 139.6758390  69.6371840  27.7695540
 126.3393440  80.9771780  28.0914510 125.9548230  80.3365450  28.6897470
 126.6505630  81.6807900  28.6609240 132.4890580  77.8248320  23.5723130
 132.8560710  77.3506890  24.3184470 132.2995640  78.6989890  23.9131470
 125.3531070  72.5692010  19.7016600 125.0677990  72.2047680  20.5395220
 125.2909930  71.8372470  19.0879740 130.2789950  76.8656960  25.8907340
 129.9747020  77.7448940  26.1157700 131.2336410  76.9256750  25.9264780
 128.8071740  81.0717950  16.4874190 128.0334000  80.5315570  16.3272910
 129.5366370  80.5524560  16.1491950 139.5659720  80.0683310  22.2800580
 140.2858840  80.5638600  21.8896690 139.3641540  79.3901200  21.6354450
 135.0269660  71.4621270  16.4229970 134.2134270  70.9634440  16.3475280
 134.8331610  72.3019520  16.0066320 134.9478520  80.1392370  28.1669580
 134.8815830  79.2188040  27.9127170 134.3183660  80.2367810  28.8814220
 137.7418050  75.8340920  14.7192130 138.6297670  76.1458150  14.5443470
 137.7123140  74.9613170  14.3272710 128.8509140  80.7398330  20.1253000
 129.3687810  79.9366590  20.0709890 128.3993160  80.6777470  20.9669830
 133.7378640  82.0064610  15.3980300 134.0794340  82.7506840  14.9023620
 132.9091350  82.3195730  15.7605130 126.3353680  77.7059700  27.0378700
 125.9768620  78.3713550  27.6252040 126.0408240  76.8743250  27.4091320
 129.5366800  78.1643940  29.9218250 129.2366940  78.3101120  29.0246070
 130.3078040  77.6049230  29.8291640 134.8795250  82.9612940  27.9173380
 134.8939790  82.0293900  27.6992290 134.1720350  83.0472700  28.5563150
 140.0132320  77.1452760  14.1871990 139.9296040  77.5766980  13.3368430
 140.7326510  77.6051110  14.6198810 141.0906460  79.6020280  27.2641960
 140.3654650  80.1949060  27.0671350 141.6181920  79.5943820  26.4655330
 141.0419570  83.9995020  16.9154120 140.3995730  83.3450640  17.1897840
 140.6550230  84.4050110  16.1394790 136.6206050  81.3280450  20.7625810
 136.9729870  80.7308580  20.1027180 135.7368380  81.0024680  20.9334060
 132.7069330  82.0878140  18.1696220 133.3940460  82.6347350  18.5503810
 131.9201750  82.6318870  18.2045830 124.8461730  77.7050960  13.6613300
 125.7156580  77.9875760  13.9449220 124.3552050  78.5186830  13.5462110
 132.0096540  79.0924170  17.7821580 132.4659320  79.9029420  18.0081770
 131.6584750  78.7747310  18.6140070 134.3129150  84.6030510  25.0113880
 134.9571370  84.8089890  25.6887300 134.6758590  83.8418910  24.5584730
 127.9108320  69.4361820  18.2544100 127.7822950  69.4279720  19.2029020
 127.0870340  69.7744910  17.9035110 135.5861230  82.6062860  23.7291330
 136.2283460  81.9056020  23.8423500 136.1110580  83.3861300  23.5488220
 139.4316950  82.8911480  13.4530470 139.2054530  82.1741920  14.0455110
 139.0413150  82.6423920  12.6152220 137.3598850  83.4057760  26.9327390
 137.6955090  83.9924450  27.6105310 136.4399190  83.2750470  27.1625180
 125.2132980  86.9178340  14.2274930 125.5730620  87.5167680  13.5732200
 125.0725320  87.4638230  15.0009960 124.9102250  71.1952940  27.7150800
 124.1960770  71.3949860  28.3203410 125.3297290  70.4192510  28.0865600
 139.0133200  80.8083420  15.1144630 138.7254900  81.2696110  15.9022510
 139.8085370  80.3481190  15.3828850 125.1974840  85.1833200  28.7017330
 125.3065960  84.2427940  28.5612720 124.5455400  85.4487950  28.0531060
 133.1887430  83.4549090  30.1015450 132.8684300  82.7358330  30.6461140
 132.5145790  84.1304160  30.1751510 131.2301600  84.3009540  15.0448600
 131.2211700  85.0339230  14.4293110 130.3099960  84.0541120  15.1375560
 126.8308240  79.5224430  15.7895360 126.2236190  80.2623330  15.7990660
 127.3057590  79.6123790  14.9633560 136.4041030  73.6875250  25.4652250
 136.7721850  72.8670460  25.7931820 135.5439230  73.7477140  25.8807900
 139.7703060  72.6432190  16.2739810 139.1416220  72.7477860  15.5598040
 139.2754980  72.8628970  17.0633690 134.2161200  84.3637780  13.7073790
 134.3173180  84.1601770  12.7775770 133.3162940  84.1096060  13.9121570
 131.7387090  74.9218140  17.6897690 131.0303240  75.3904480  18.1311300
 132.0231570  74.2640150  18.3242880 133.3643020  76.3414840  25.6890220
 133.8628270  76.8160660  26.3542070 133.5065970  75.4178360  25.8960250
 135.7702520  71.6468800  19.1293480 135.6470300  71.6654930  18.1802990
 136.7187080  71.6947740  19.2491880 132.8579310  86.8824100  18.4021460
 133.1120810  86.8445490  17.4800830 131.9091790  86.7557430  18.3949710
 129.9422110  73.2303220  15.0648400 130.7912640  73.6673370  14.9988590
 129.5753380  73.5423480  15.8920460 140.5709880  72.5582800  26.5318610
 140.0683480  73.2988200  26.8712420 141.3866540  72.9466800  26.2155400
 138.8631890  77.8015980  19.9779970 137.9222030  77.8166210  20.1527660
 139.1775960  77.0151940  20.4240270 128.8413530  79.4835580  13.5383930
 129.6076800  79.3716940  14.1009360 128.9188220  78.7873550  12.8860700
 127.5360290  76.9160650  14.2216820 127.6163880  75.9688160  14.3334220
 128.4280040  77.2467530  14.3277480 140.8657470  84.9724830  21.6534230
 140.9904890  85.7956000  22.1258040 141.7323030  84.7615560  21.3058380
 128.3375000  87.0656040  21.3251360 129.0737480  86.5171500  21.5959930
 128.7215920  87.9312050  21.1857350 125.2220480  83.1329610  17.1992870
 124.2960260  83.3750750  17.1898280 125.6876910  83.9603870  17.0777620
 127.3433280  86.2502110  30.5136940 128.1446010  86.5714160  30.9272340
 126.8285100  85.8897690  31.2356850 131.4477310  86.2386350  13.1476930
 132.2405920  86.5275180  12.6958720 130.9281660  85.8078520  12.4689410
 136.1797910  82.3581980  30.4612350 135.5736070  82.3813580  29.7208100
 135.8752020  81.6265020  30.9979600 137.6098280  86.0862270  29.0721760
 138.5620030  86.0020290  29.0222000 137.4626500  86.7503980  29.7455550
 140.5007480  85.4656480  14.5713670 140.2148990  85.0521620  13.7567850
 140.3027030  86.3944190  14.4514190 125.0631090  78.7375570  29.4572990
 125.5670110  78.1582850  30.0289220 124.3238510  79.0215800  29.9949360
 131.9654710  81.4589760  13.0119280 131.8605350  80.8442110  13.7380660
 131.7978930  80.9355650  12.2282290 132.1169030  80.1446560  28.9908510
 131.3514700  80.7131560  28.9063180 132.2984990  79.8522770  28.0976740
 135.2057440  80.5209790  13.6161270 134.6567540  80.9679090  14.2604010
 135.8276700  80.0159040  14.1398940 139.2592380  81.8751890  29.5483530
 140.0001850  82.2127650  29.0450990 138.4965060  82.0443950  28.9953300
 127.0954170  76.8805160  30.3523060 127.1359510  76.5819030  31.2608290
 127.9499670  77.2812770  30.1930580 130.8732560  79.4800710  15.5126570
 131.2948980  79.3140580  16.3557960 130.9983400  78.6700940  15.0181710
 129.0359980  75.4597260  28.3197550 128.5056440  74.9688210  27.6920890
 129.7048050  75.8881460  27.7855480 133.3860200  78.5038320  12.7603670
 133.9065860  77.7887340  12.3944820 134.0328600  79.1424190  13.0604180
 137.9338040  79.9266720  28.0838740 138.3479060  80.0811800  28.9329160
 136.9989040  80.0521940  28.2464520 138.4060210  77.2662880  30.0877890
 138.9880980  76.5115200  29.9998370 138.5821980  77.7970320  29.3109370
 129.5232280  72.4259630  28.3994840 129.4289150  71.8080380  27.6745710
 128.9429670  73.1525920  28.1724750 132.2893720  70.9832870  25.4322230
 131.8411020  71.0057130  24.5867780 131.6558920  70.5851890  26.0292530
 132.6953270  79.8787200  26.0534670 133.1141380  80.7219930  25.8810910
 131.7761900  80.0159240  25.8241450 135.0317170  77.6103380  27.4372510
 135.1513380  77.0144520  28.1767350 135.8911170  77.6473070  27.0173810
 137.3705070  78.1640570  26.0135020 136.8440290  78.6883190  25.4100160
 137.7136410  78.7967960  26.6444750 129.7691460  75.5533940  12.4584730
 129.5680520  74.6901300  12.8198070 129.5983510  75.4667300  11.5206330
 130.5460690  86.1840210  27.1692400 130.0081780  86.9086270  26.8501100
 130.7994650  85.7070550  26.3789740 131.7985940  74.1524730  28.6948330
 132.3885630  73.8440580  29.3826150 130.9806180  73.6804480  28.8508230
 136.6179370  73.7690540  28.9281350 135.9294890  73.1072080  28.8631340
 137.3385390  73.3228810  29.3729810 137.2479770  70.3642170  14.9871610
 137.5282060  69.5210070  15.3431030 136.4745500  70.5965280  15.5010360
 128.5674260  72.6534560  12.4462610 128.8700160  72.6601990  11.5381760
 129.3068850  72.3032420  12.9430270 133.4022900  87.4191420  27.4279050
 133.3281600  88.3226560  27.7351420 132.5001740  87.1003320  27.4001120
 131.7859190  71.5969180  13.4318810 131.4381190  70.9193170  12.8521260
 131.9871960  71.1358690  14.2462200 133.9508230  86.5849930  15.0505410
 134.8459020  86.9234900  15.0724170 133.9825860  85.8629340  14.4229690
 127.5904390  81.9576980  13.2792410 128.0279260  82.5006650  13.9349990
 128.0752120  81.1323930  13.2888750 124.8050190  84.7466010  20.7312670
 125.1353200  83.8787070  20.4991310 125.2341190  84.9524530  21.5617630
 129.4012110  83.0775020  18.3914640 129.1007650  82.9539990  19.2918550
 129.2949600  82.2183610  17.9830370 125.2940400  85.6136600  23.4694300
 124.8571390  85.7937400  24.3018450 125.8618080  86.3711220  23.3276020
 140.9302580  85.1153600  27.7571610 140.3304570  85.1746160  27.0135530
 141.0596480  84.1758580  27.8868460 142.1704030  82.8571420  13.0941320
 141.3396990  82.9248070  13.5648550 142.3475860  83.7475540  12.7908180
 141.6260490  79.6018900  15.5975520 142.3879400  80.1715550  15.7035210
 141.6414860  79.0346100  16.3683830 125.1264830  78.1256830  19.8283180
 124.4713670  77.8568470  19.1842880 125.9642780  78.0161310  19.3785160
 142.6320460  80.4569000  20.4417450 143.0029290  79.6736320  20.0353420
 143.2722390  81.1458100  20.2634750 139.6154220  81.8405580  25.8547770
 138.8014060  82.2702740  26.1173560 140.0228420  82.4523990  25.2416820
 141.6779660  79.8953270  12.7548040 141.9528500  80.8032150  12.6267260
 141.4890400  79.8315800  13.6910030 138.0755270  72.9198120  14.0501670
 138.4940150  72.7329100  13.2098330 137.7691330  72.0677170  14.3604600
 141.5745000  77.8322260  17.7477470 141.1988600  77.0650190  17.3158760
 140.8448120  78.2144960  18.2352400 126.1640760  78.5109400  24.3686520
 126.5313800  78.4236800  25.2482540 125.5951580  77.7475950  24.2693380
 140.9644620  76.9793780  27.3816990 140.7330710  76.7506530  26.4814940
 141.2249170  77.8993330  27.3361880 125.7156760  75.4218490  28.2744940
 124.8212810  75.3885250  28.6138650 126.2554310  75.6205280  29.0396190
 139.4032690  72.2050210  30.1596690 140.2802870  72.2133610  30.5430690
 139.4153530  71.4681050  29.5489040 124.3402910  75.3355760  15.7708510
 123.4366990  75.5985960  15.5960170 124.8243530  75.6066930  14.9908470
 140.8495960  76.0579750  21.0484710 141.3733440  75.5642400  20.4174880
 141.4355380  76.1930110  21.7932280 141.0285680  76.1419620  24.5704260
 140.0788390  76.1083160  24.6849250 141.2098690  77.0519730  24.3354030
 126.8830120  74.3921300  13.6802890 127.5921820  73.9704520  13.1950170
 126.1670060  74.4596530  13.0486240 126.5304280  70.4460630  12.7205540
 127.2532410  70.9869570  13.0386760 126.8028800  70.1724050  11.8447080
 140.3395930  75.3153100  16.9877120 140.8355050  75.0823970  17.7726000
 140.1412000  74.4764940  16.5714760 126.2196470  69.6966820  22.6228160
 126.8672660  69.1464200  22.1823320 126.6398310  69.9509970  23.4443970
 141.7683090  73.9514050  19.5214800 141.6582370  73.7970090  20.4597070
 142.5290680  73.4234990  19.2790210 140.1148810  69.8908180  25.9797800
 140.7521030  70.5042320  26.3456990 140.2623700  69.9268840  25.0347030
 142.6573360  71.7821970  12.7620940 143.5822670  71.6503150  12.5539230
 142.6349150  71.8614790  13.7157390 142.7311850  72.5532630  15.3877650
 141.9363350  72.4877750  15.9170560 142.9355130  73.4883270  15.3763000
 139.6730270  86.5924180  19.3816040 140.2689340  86.2708750  18.7050460
 139.9308420  86.1196000  20.1729310 125.9728470  69.8522490  25.3653480
 125.6243290  70.3086310  26.1311660 125.6416170  68.9579620  25.4475910
 127.5792840  83.0242090  29.5306670 127.5362470  82.6535000  30.4121130
 127.7103850  83.9619660  29.6708490 131.2798870  84.5801680  25.1316390
 131.0390230  84.8476240  24.2446910 132.2201510  84.7507410  25.1867250
 133.4853290  71.0434370  28.8872900 133.4242180  71.6356200  29.6368310
 134.4253670  70.9360330  28.7423160 136.1227850  70.7004430  28.5265190
 136.7368260  71.0183720  27.8646270 136.6677410  70.2153020  29.1461050
 142.5403030  86.5996060  25.9327030 142.0461310  86.9964930  25.2154160
 141.9316320  85.9745270  26.3264310 126.6449110  69.3798690  28.6404250
 127.1932100  69.1986740  27.8770360 126.7104420  68.5892800  29.1760560
 127.4180870  85.9704340  26.6504450 126.8241190  85.8389040  27.3894490
 127.4104710  85.1342480  26.1846550 136.8635890  69.2636570  24.8534480
 135.9895730  69.5971680  24.6507410 136.7546640  68.7909750  25.6786350
 137.7707870  71.4707440  26.2376200 137.4421230  70.6559200  25.8577930
 138.7190170  71.4277250  26.1141890 140.2242480  87.2419480  23.2113770
 139.7645450  87.9935290  22.8371790 139.5954940  86.5225950  23.1528570
 127.0493100  83.3362720  25.6012490 126.3227160  82.7168010  25.5338440
 127.1102250  83.7303330  24.7310570 130.6538200  85.5507720  22.3861900
 131.1703220  84.9395080  21.8610160 131.3035580  86.0536500  22.8772910
 133.3933700  86.4416210  23.2130880 133.6811510  86.1870510  22.3363890
 133.9056920  85.8893570  23.8036450 134.6110710  70.1806410  23.7927390
 133.8282500  70.6551910  24.0724150 134.3173640  69.2761240  23.6840570
 139.1631780  70.8829510  21.8376480 139.6039870  70.8274610  20.9898080
 138.8939370  71.7987520  21.9086660 141.0270350  70.5144750  19.8485300
 140.9658750  69.5705970  19.7016320 141.8062380  70.6224840  20.3938760
 125.3323100  86.6537110  18.8109250 125.1645140  86.0207790  19.5091140
 124.4657610  86.8596510  18.4603440 125.9551120  70.4853890  16.3141110
 126.7130480  70.5982770  15.7405140 125.4928290  71.3223090  16.2684540
 132.4964930  72.5993160  19.3043420 131.6839440  72.2250050  18.9639300
 133.0006570  71.8438240  19.6064610 136.9989910  69.2635610  20.5426490
 137.6019280  69.8355820  21.0175010 136.2582900  69.8275050  20.3200390
 140.1424510  69.6657170  15.8166770 140.3375140  70.5640620  16.0834200
 139.3554380  69.4344250  16.3099720 126.9385800  85.3470340  16.2559390
 126.4133420  85.7278370  15.5521350 126.8630380  85.9721110  16.9769100
 128.3276270  71.0117940  14.8543080 128.8569030  70.2247740  14.7251030
 128.9604590  71.6909130  15.0878610 130.5214110  70.7493080  17.9088470
 129.8916850  70.0480390  18.0758600 129.9819250  71.5097210  17.6921630
 133.4606060  87.3632310  30.5799080 134.3873370  87.1276580  30.6235040
 133.4456490  88.1904310  30.0985110 141.6951120  86.9057880  17.5773330
 141.8703310  86.2195620  16.9334250 140.9972690  87.4304930  17.1850000
 130.6469670  70.0277060  30.3440960 130.3653940  70.5310660  29.5801780
 131.0289370  69.2298810  29.9783090 129.5378770  87.2952720  15.1308640
 130.2697590  87.0112000  14.5832530 129.7972440  87.0566000  16.0208020
 128.6993560  83.4117450  15.1354970 128.0702440  83.8802550  15.6840800
 128.8141390  82.5666670  15.5701160 137.2485130  69.4430640  30.9221430
 137.1350580  69.7625250  31.8172950 138.0654870  69.8443150  30.6258710
 140.0283620  86.5902170  30.4040120 140.8208940  86.0951400  30.1966080
 140.3216770  87.2692310  31.0115730 134.2861320  79.2402130   3.1665440
 133.5103420  78.7602570   3.4564010 134.9374250  78.5607780   2.9921600
 128.3027150  79.5521940   4.0441200 127.4712030  79.2970650   4.4437710
 128.9108130  79.6232710   4.7799120 138.3068750  83.6462320   1.9464570
 137.8450280  82.8749560   2.2751740 139.1194300  83.6728390   2.4517020
 128.2828410  83.5862030   4.2399220 128.5856450  82.6959770   4.0609440
 129.0272000  84.1432250   4.0121470 124.6752110  77.1129480   3.7123290
 125.2468220  76.3451680   3.7126930 124.6753650  77.4118240   2.8029900
 133.7270310  81.9159320   3.1735600 133.6578590  80.9749260   3.0124730
 134.4890170  82.0060730   3.7458170 125.9176980  72.5213840   5.4992220
 125.7379820  71.6239590   5.7794980 125.5157060  73.0685710   6.1739170
 134.7575480  74.7229700   3.4004530 135.1340300  73.8501580   3.2878200
 134.6594990  75.0588400   2.5094970 126.5363650  75.0174340   4.1074560
 127.2173760  75.2812710   4.7261960 126.2211700  74.1775210   4.4412570
 130.7288220  76.0641700   3.1947150 131.2366440  76.5622670   3.8352170
 131.2601460  75.2876900   3.0186510 142.8299150  74.2346890   6.8976500
 142.1251320  74.6228600   6.3791610 143.0957070  74.9297180   7.4997430
 129.0124320  70.7040260   7.4610570 129.0142760  71.2212650   6.6556470
 128.1828630  70.2270440   7.4380500 130.2627170  80.3435440   5.6384070
 129.9296550  80.9704360   6.2805140 130.4393850  80.8697320   4.8585740
 138.7761080  74.1580520   3.1060410 138.0716650  74.4465410   3.6863520
 139.1373240  74.9680630   2.7459970 128.6939650  72.4150220   5.4681020
 129.0356460  73.2592270   5.1734890 127.7555460  72.5633960   5.5846360
 129.4746270  82.3116240   7.4533250 130.0920270  82.9867320   7.1717700
 128.6139390  82.7204220   7.3620750 140.3923860  83.7755650   5.3687890
 139.7087380  84.4454760   5.3604560 140.9318150  83.9736300   4.6032750
 141.8448000  73.6035310   3.4969620 140.8972910  73.6374290   3.6285050
 142.1697990  74.4174260   3.8818980 137.9282600  85.6199780   4.0833070
 137.9409760  85.2162070   3.2155330 137.3757820  86.3947070   3.9794500
 137.3268040  80.5229620   5.4115680 137.7436830  80.3089730   4.5769140
 138.0507860  80.7802410   5.9824300 141.2730140  78.9216840   5.5031920
 140.4448770  78.9909930   5.0282050 141.8680620  79.5071150   5.0347750
 138.2372150  75.7086160   6.4486790 137.8243330  76.5339870   6.7026780
 137.5048100  75.1231200   6.2563150 130.8386640  82.1813620   3.4744670
 130.5414930  81.5759090   2.7952450 131.7886460  82.2190930   3.3634030
 129.0833560  75.2689270   5.0904500 129.6348150  75.3784610   4.3157750
 129.5977070  75.6426870   5.8059730 138.9272250  85.7545490   7.1367770
 138.4502810  86.5617680   6.9440380 138.2434040  85.1023820   7.2893980
 129.9305070  81.9195310  10.1252470 129.0333600  82.1435280  10.3725870
 129.9557940  82.0430250   9.1763870 128.7576290  78.7908630   8.7009840
 128.6184060  79.6631430   9.0697240 127.8757650  78.4481440   8.5557780
 130.5556640  84.7330330  10.9094990 130.5272070  85.1373280  10.0423420
 130.3921610  83.8040690  10.7466590 142.5071460  85.5157430  12.2059160
 142.9831180  85.9940320  12.8848240 143.1278620  85.4474920  11.4804660
 124.7094940  80.5606180   4.6180750 124.7875360  80.6954950   3.6736470
 125.3236620  79.8522070   4.8108870 141.9104710  82.7070280   9.3659170
 142.0367770  82.4682160   8.4476350 141.9526090  81.8754820   9.8381250
 135.7721450  86.4098280   7.9353980 136.2866120  86.3206290   8.7376410
 134.9290530  86.7557980   8.2281890 141.7628720  74.7602740  10.3308910
 141.1472990  75.2682410   9.8024370 141.4425140  73.8601070  10.2734850
 124.7654460  81.6020350   7.1575210 124.9285500  81.1325710   6.3394580
 125.2306910  81.0943910   7.8224050 129.5373230  70.7326110   2.1935780
 129.0941380  71.5135650   1.8620300 130.0958220  71.0556000   2.9006720
 133.8243040  73.5994630   7.7971100 133.3622410  73.8077650   8.6091040
 133.4221150  72.7853980   7.4941770 138.8247550  74.8203580   8.9267760
 137.9741140  74.5209330   9.2476830 138.6649340  75.0645590   8.0151580
 135.9197260  76.3205330  11.0266550 136.2450670  75.4869080  10.6868780
 136.7077590  76.8433850  11.1744880 131.5749130  71.2773440   4.0525380
 131.8721460  72.1836270   3.9717400 132.1234690  70.7892220   3.4384950
 131.7686660  76.7545260  10.5877300 131.6730260  75.8139990  10.4377700
 132.6118640  76.9760330  10.1925370 126.8997200  73.1658930   8.7411080
 126.5060590  74.0134140   8.9483860 126.2115600  72.5285300   8.9319720
 133.4742250  73.2493900  11.8107820 132.7840570  73.0566100  12.4453910
 134.2174550  73.5328540  12.3432120 124.2014250  71.0887390   2.7741160
 123.9127300  71.6590250   3.4866140 124.9460010  70.6091840   3.1372390
 135.7505220  77.0892340   4.6461740 135.0186340  77.5979150   4.9951840
 135.3529560  76.2722320   4.3450520 132.1882610  73.7646540   3.0514230
 132.1918670  73.3236490   2.2018770 133.0833730  74.0863870   3.1586050
 128.0384990  73.6473030   2.0108440 127.6985040  74.1248260   2.7675490
 127.2762310  73.1938150   1.6509540 136.2131130  72.5426020   4.0584680
 136.2303870  72.9934670   4.9026530 135.9646710  71.6431660   4.2718120
 139.6401880  69.9558200   9.8971060 139.9647650  69.2247860  10.4229040
 139.6758390  69.6371840   8.9952050 126.3393440  80.9771780   9.3171020
 125.9548230  80.3365450   9.9153980 126.6505630  81.6807900   9.8865750
 132.4890580  77.8248320   4.7979640 132.8560710  77.3506890   5.5440980
 132.2995640  78.6989890   5.1387980 130.2789950  76.8656960   7.1163850
 129.9747020  77.7448940   7.3414210 131.2336410  76.9256750   7.1521290
 139.5659720  80.0683310   3.5057090 140.2858840  80.5638600   3.1153200
 139.3641540  79.3901200   2.8610960 134.9478520  80.1392370   9.3926090
 134.8815830  79.2188040   9.1383680 134.3183660  80.2367810  10.1070730
 126.3353680  77.7059700   8.2635210 125.9768620  78.3713550   8.8508550
 126.0408240  76.8743250   8.6347830 129.5366800  78.1643940  11.1474760
 129.2366940  78.3101120  10.2502580 130.3078040  77.6049230  11.0548150
 134.8795250  82.9612940   9.1429890 134.8939790  82.0293900   8.9248800
 134.1720350  83.0472700   9.7819660 141.0906460  79.6020280   8.4898470
 140.3654650  80.1949060   8.2927860 141.6181920  79.5943820   7.6911840
 134.3129150  84.6030510   6.2370390 134.9571370  84.8089890   6.9143810
 134.6758590  83.8418910   5.7841240 135.5861230  82.6062860   4.9547840
 136.2283460  81.9056020   5.0680010 136.1110580  83.3861300   4.7744730
 137.3598850  83.4057760   8.1583900 137.6955090  83.9924450   8.8361820
 136.4399190  83.2750470   8.3881690 124.9102250  71.1952940   8.9407310
 124.1960770  71.3949860   9.5459920 125.3297290  70.4192510   9.3122110
 125.1974840  85.1833200   9.9273840 125.3065960  84.2427940   9.7869230
 124.5455400  85.4487950   9.2787570 133.1887430  83.4549090  11.3271960
 132.8684300  82.7358330  11.8717650 132.5145790  84.1304160  11.4008020
 136.4041030  73.6875250   6.6908760 136.7721850  72.8670460   7.0188330
 135.5439230  73.7477140   7.1064410 133.3643020  76.3414840   6.9146730
 133.8628270  76.8160660   7.5798580 133.5065970  75.4178360   7.1216760
 140.5709880  72.5582800   7.7575120 140.0683480  73.2988200   8.0968930
 141.3866540  72.9466800   7.4411910 140.8657470  84.9724830   2.8790740
 140.9904890  85.7956000   3.3514550 141.7323030  84.7615560   2.5314890
 128.3375000  87.0656040   2.5507870 129.0737480  86.5171500   2.8216440
 128.7215920  87.9312050   2.4113860 127.3433280  86.2502110  11.7393450
 128.1446010  86.5714160  12.1528850 126.8285100  85.8897690  12.4613360
 136.1797910  82.3581980  11.6868860 135.5736070  82.3813580  10.9464610
 135.8752020  81.6265020  12.2236110 137.6098280  86.0862270  10.2978270
 138.5620030  86.0020290  10.2478510 137.4626500  86.7503980  10.9712060
 125.0631090  78.7375570  10.6829500 125.5670110  78.1582850  11.2545730
 124.3238510  79.0215800  11.2205870 132.1169030  80.1446560  10.2165020
 131.3514700  80.7131560  10.1319690 132.2984990  79.8522770   9.3233250
 139.2592380  81.8751890  10.7740040 140.0001850  82.2127650  10.2707500
 138.4965060  82.0443950  10.2209810 127.0954170  76.8805160  11.5779570
 127.1359510  76.5819030  12.4864800 127.9499670  77.2812770  11.4187090
 129.0359980  75.4597260   9.5454060 128.5056440  74.9688210   8.9177400
 129.7048050  75.8881460   9.0111990 137.9338040  79.9266720   9.3095250
 138.3479060  80.0811800  10.1585670 136.9989040  80.0521940   9.4721030
 138.4060210  77.2662880  11.3134400 138.9880980  76.5115200  11.2254880
 138.5821980  77.7970320  10.5365880 129.5232280  72.4259630   9.6251350
 129.4289150  71.8080380   8.9002220 128.9429670  73.1525920   9.3981260
 132.2893720  70.9832870   6.6578740 131.8411020  71.0057130   5.8124290
 131.6558920  70.5851890   7.2549040 132.6953270  79.8787200   7.2791180
 133.1141380  80.7219930   7.1067420 131.7761900  80.0159240   7.0497960
 135.0317170  77.6103380   8.6629020 135.1513380  77.0144520   9.4023860
 135.8911170  77.6473070   8.2430320 137.3705070  78.1640570   7.2391530
 136.8440290  78.6883190   6.6356670 137.7136410  78.7967960   7.8701260
 130.5460690  86.1840210   8.3948910 130.0081780  86.9086270   8.0757610
 130.7994650  85.7070550   7.6046250 131.7985940  74.1524730   9.9204840
 132.3885630  73.8440580  10.6082660 130.9806180  73.6804480  10.0764740
 136.6179370  73.7690540  10.1537860 135.9294890  73.1072080  10.0887850
 137.3385390  73.3228810  10.5986320 133.4022900  87.4191420   8.6535560
 133.3281600  88.3226560   8.9607930 132.5001740  87.1003320   8.6257630
 124.8050190  84.7466010   1.9569180 125.1353200  83.8787070   1.7247820
 125.2341190  84.9524530   2.7874140 125.2940400  85.6136600   4.6950810
 124.8571390  85.7937400   5.5274960 125.8618080  86.3711220   4.5532530
 140.9302580  85.1153600   8.9828120 140.3304570  85.1746160   8.2392040
 141.0596480  84.1758580   9.1124970 139.6154220  81.8405580   7.0804280
 138.8014060  82.2702740   7.3430070 140.0228420  82.4523990   6.4673330
 126.1640760  78.5109400   5.5943030 126.5313800  78.4236800   6.4739050
 125.5951580  77.7475950   5.4949890 140.9644620  76.9793780   8.6073500
 140.7330710  76.7506530   7.7071450 141.2249170  77.8993330   8.5618390
 125.7156760  75.4218490   9.5001450 124.8212810  75.3885250   9.8395160
 126.2554310  75.6205280  10.2652700 139.4032690  72.2050210  11.3853200
 140.2802870  72.2133610  11.7687200 139.4153530  71.4681050  10.7745550
 140.8495960  76.0579750   2.2741220 141.3733440  75.5642400   1.6431390
 141.4355380  76.1930110   3.0188790 141.0285680  76.1419620   5.7960770
 140.0788390  76.1083160   5.9105760 141.2098690  77.0519730   5.5610540
 126.2196470  69.6966820   3.8484670 126.8672660  69.1464200   3.4079830
 126.6398310  69.9509970   4.6700480 140.1148810  69.8908180   7.2054310
 140.7521030  70.5042320   7.5713500 140.2623700  69.9268840   6.2603540
 125.9728470  69.8522490   6.5909990 125.6243290  70.3086310   7.3568170
 125.6416170  68.9579620   6.6732420 127.5792840  83.0242090  10.7563180
 127.5362470  82.6535000  11.6377640 127.7103850  83.9619660  10.8965000
 131.2798870  84.5801680   6.3572900 131.0390230  84.8476240   5.4703420
 132.2201510  84.7507410   6.4123760 133.4853290  71.0434370  10.1129410
 133.4242180  71.6356200  10.8624820 134.4253670  70.9360330   9.9679670
 136.1227850  70.7004430   9.7521700 136.7368260  71.0183720   9.0902780
 136.6677410  70.2153020  10.3717560 142.5403030  86.5996060   7.1583540
 142.0461310  86.9964930   6.4410670 141.9316320  85.9745270   7.5520820
 126.6449110  69.3798690   9.8660760 127.1932100  69.1986740   9.1026870
 126.7104420  68.5892800  10.4017070 127.4180870  85.9704340   7.8760960
 126.8241190  85.8389040   8.6151000 127.4104710  85.1342480   7.4103060
 136.8635890  69.2636570   6.0790990 135.9895730  69.5971680   5.8763920
 136.7546640  68.7909750   6.9042860 137.7707870  71.4707440   7.4632710
 137.4421230  70.6559200   7.0834440 138.7190170  71.4277250   7.3398400
 140.2242480  87.2419480   4.4370280 139.7645450  87.9935290   4.0628300
 139.5954940  86.5225950   4.3785080 127.0493100  83.3362720   6.8269000
 126.3227160  82.7168010   6.7594950 127.1102250  83.7303330   5.9567080
 130.6538200  85.5507720   3.6118410 131.1703220  84.9395080   3.0866670
 131.3035580  86.0536500   4.1029420 133.3933700  86.4416210   4.4387390
 133.6811510  86.1870510   3.5620400 133.9056920  85.8893570   5.0292960
 134.6110710  70.1806410   5.0183900 133.8282500  70.6551910   5.2980660
 134.3173640  69.2761240   4.9097080 139.1631780  70.8829510   3.0632990
 139.6039870  70.8274610   2.2154590 138.8939370  71.7987520   3.1343170
 136.9989910  69.2635610   1.7683000 137.6019280  69.8355820   2.2431520
 136.2582900  69.8275050   1.5456900 133.4606060  87.3632310  11.8055590
 134.3873370  87.1276580  11.8491550 133.4456490  88.1904310  11.3241620
 130.6469670  70.0277060  11.5697470 130.3653940  70.5310660  10.8058290
 131.0289370  69.2298810  11.2039600 137.2485130  69.4430640  12.1477940
 137.1350580  69.7625250  13.0429460 138.0654870  69.8443150  11.8515220
 140.0283620  86.5902170  11.6296630 140.8208940  86.0951400  11.4222590
 140.3216770  87.2692310  12.2372240 136.1543280  58.6879620 151.4804090
 136.0737330  57.7734230 151.2095800 135.7407700  59.1846690 150.7743800
 134.2861320  60.4658640 153.3613360 133.5103420  59.9859080 153.6511930
 134.9374250  59.7864290 153.1869520 138.3068750  64.8718830 152.1412490
 137.8450280  64.1006070 152.4699660 139.1194300  64.8984900 152.6464940
 128.2828410  64.8118540 154.4347140 128.5856450  63.9216280 154.2557360
 129.0272000  65.3688760 154.2069390 126.7119100  55.7380340 148.0231510
 125.8235800  56.0796310 147.9211390 126.9960290  55.5380660 147.1312340
 124.6752110  58.3385990 153.9071210 125.2468220  57.5708190 153.9074850
 124.6753650  58.6374750 152.9977820 134.5332060  67.1576840 151.7616480
 133.9143500  67.6134340 151.1910920 135.3883840  67.3128300 151.3606180
 133.7270310  63.1415830 153.3683520 133.6578590  62.2005770 153.2072650
 134.4890170  63.2317240 153.9406090 134.7575480  55.9486210 153.5952450
 135.1340300  55.0758090 153.4826120 134.6594990  56.2844910 152.7042890
 128.8880490  54.3211840 149.0569890 128.9947240  55.2215570 149.3638650
 127.9772850  54.2729810 148.7664540 138.5399600  53.4436650 150.5280790
 139.3609220  52.9533220 150.5706270 138.5733680  54.0334310 151.2812630
 130.7288220  57.2898210 153.3895070 131.2366440  57.7879180 154.0300090
 131.2601460  56.5133410 153.2134430 135.3995410  62.0416080 149.1548390
 134.7812680  62.5065530 148.5911110 135.9118660  62.7343560 149.5717900
 138.7761080  55.3837030 153.3008330 138.0716650  55.6721920 153.8811440
 139.1373240  56.1937140 152.9407890 124.7678610  62.7272610 146.5288020
 124.3906590  63.2159710 145.7972920 125.0251680  63.3997890 147.1594550
 141.8448000  54.8291820 153.6917540 140.8972910  54.8630800 153.8232970
 142.1697990  55.6430770 154.0766900 132.3767540  51.1289000 151.9873530
 132.6842520  50.5735890 151.2709030 131.4468240  51.2633460 151.8046520
 137.9282600  66.8456290 154.2780990 137.9409760  66.4418580 153.4103250
 137.3757820  67.6203580 154.1742420 139.2228020  63.5672510 149.3671160
 139.1124350  62.6246840 149.4920580 139.2196270  63.9288150 150.2533920
 134.7648300  59.1937830 148.7233650 133.8377580  59.1275210 148.9522120
 134.9173120  60.1317960 148.6088890 134.7517380  55.4654830 145.7200810
 133.8121050  55.6268790 145.8053270 135.0700640  56.1840510 145.1736800
 138.7945590  60.7558130 149.2268900 138.1758010  60.4177680 148.5795200
 138.7770040  60.1117890 149.9348090 130.3704940  59.7202570 151.5053380
 129.9661940  59.0079820 151.0099280 130.4568060  59.3755810 152.3941420
 130.8386640  63.4070130 153.6692590 130.5414930  62.8015600 152.9900370
 131.7886460  63.4447440 153.5581950 136.9710290  59.9944940 146.2341650
 137.4103570  59.1567370 146.0879470 137.6838710  60.6274340 146.3205790
 135.0805670  64.9341010 150.2022890 135.5201580  65.6765340 149.7878280
 135.0192560  65.1767580 151.1261850 140.5527430  51.2487750 144.5482690
 140.2400090  51.3414580 145.4481760 141.3139900  51.8268780 144.4980120
 127.0709570  58.6147550 149.0060030 126.9507170  59.3409640 148.3941300
 126.7610460  57.8450460 148.5287940 125.9542570  63.4862880 151.2234850
 125.5470650  63.6277470 150.3688450 126.8455580  63.2023040 151.0206060
 137.7475850  67.9210130 147.5585900 137.5876990  67.6313070 148.4567730
 137.5822560  67.1450260 147.0231130 130.2264230  67.7008660 149.3357520
 130.0506710  66.7844200 149.1225320 129.3719970  68.0595950 149.5755320
 137.4501980  65.4297690 146.1183900 136.7567140  65.4274980 145.4586180
 138.1924840  65.0057010 145.6878070 137.0151910  67.0560400 150.1932390
 137.4708860  66.2749780 150.5071010 137.3544430  67.7667220 150.7373570
 129.5373230  51.9582620 152.3883700 129.0941380  52.7392160 152.0568220
 130.0958220  52.2812510 153.0954640 132.6532050  51.5793320 147.2689530
 132.0286230  51.5753190 147.9942840 132.5662170  50.7124280 146.8725500
 131.5749130  52.5029950 154.2473300 131.8721460  53.4092780 154.1665320
 132.1234690  52.0148730 153.6332870 129.3287450  57.0816190 150.1164950
 129.1028370  56.8653360 151.0211570 128.5479980  57.5144650 149.7710920
 136.5585210  57.0879560 148.7155600 135.9594100  57.8115360 148.5319220
 137.1064820  57.0256340 147.9332050 135.1650080  55.7243100 150.7458880
 135.5579650  56.0415300 149.9327570 135.5266930  54.8454980 150.8603400
 124.2014250  52.3143900 152.9689080 123.9127300  52.8846760 153.6814060
 124.9460010  51.8348350 153.3320310 124.3884480  56.2564020 144.1791800
 124.3059150  57.1994780 144.3206790 124.0367540  56.1138930 143.3004150
 132.1882610  54.9903050 153.2462150 132.1918670  54.5493000 152.3966690
 133.0833730  55.3120380 153.3533970 128.0384990  54.8729540 152.2056360
 127.6985040  55.3504770 152.9623410 127.2762310  54.4194660 151.8457460
 132.2502760  55.9915130 146.2368910 132.3715580  55.9501610 147.1854730
 131.8651270  56.8539280 146.0815640 131.2624260  58.3016270 145.6352210
 130.6941160  57.8534520 145.0088120 131.9713260  58.6609050 145.1017360
 125.3531070  53.7948520 151.1221030 125.0677990  53.4304190 151.9599650
 125.2909930  53.0628980 150.5084170 128.8071740  62.2974460 147.9078620
 128.0334000  61.7572080 147.7477340 129.5366370  61.7781070 147.5696380
 139.5659720  61.2939820 153.7005010 140.2858840  61.7895110 153.3101120
 139.3641540  60.6157710 153.0558880 135.0269660  52.6877780 147.8434400
 134.2134270  52.1890950 147.7679710 134.8331610  53.5276030 147.4270750
 137.7418050  57.0597430 146.1396560 138.6297670  57.3714660 145.9647900
 137.7123140  56.1869680 145.7477140 128.8509140  61.9654840 151.5457430
 129.3687810  61.1623100 151.4914320 128.3993160  61.9033980 152.3874260
 133.7378640  63.2321120 146.8184730 134.0794340  63.9763350 146.3228050
 132.9091350  63.5452240 147.1809560 140.0132320  58.3709270 145.6076420
 139.9296040  58.8023490 144.7572860 140.7326510  58.8307620 146.0403240
 141.0419570  65.2251530 148.3358550 140.3995730  64.5707150 148.6102270
 140.6550230  65.6306620 147.5599220 136.6206050  62.5536960 152.1830240
 136.9729870  61.9565090 151.5231610 135.7368380  62.2281190 152.3538490
 132.7069330  63.3134650 149.5900650 133.3940460  63.8603860 149.9708240
 131.9201750  63.8575380 149.6250260 124.8461730  58.9307470 145.0817730
 125.7156580  59.2132270 145.3653650 124.3552050  59.7443340 144.9666540
 132.0096540  60.3180680 149.2026010 132.4659320  61.1285930 149.4286200
 131.6584750  60.0003820 150.0344500 127.9108320  50.6618330 149.6748530
 127.7822950  50.6536230 150.6233450 127.0870340  51.0001420 149.3239540
 139.4316950  64.1167990 144.8734900 139.2054530  63.3998430 145.4659540
 139.0413150  63.8680430 144.0356650 125.2132980  68.1434850 145.6479360
 125.5730620  68.7424190 144.9936630 125.0725320  68.6894740 146.4214390
 139.0133200  62.0339930 146.5349060 138.7254900  62.4952620 147.3226940
 139.8085370  61.5737700 146.8033280 131.2301600  65.5266050 146.4653030
 131.2211700  66.2595740 145.8497540 130.3099960  65.2797630 146.5579990
 126.8308240  60.7480940 147.2099790 126.2236190  61.4879840 147.2195090
 127.3057590  60.8380300 146.3837990 139.7703060  53.8688700 147.6944240
 139.1416220  53.9734370 146.9802470 139.2754980  54.0885480 148.4838120
 134.2161200  65.5894290 145.1278220 134.3173180  65.3858280 144.1980200
 133.3162940  65.3352570 145.3326000 131.7387090  56.1474650 149.1102120
 131.0303240  56.6160990 149.5515730 132.0231570  55.4896660 149.7447310
 135.7702520  52.8725310 150.5497910 135.6470300  52.8911440 149.6007420
 136.7187080  52.9204250 150.6696310 132.8579310  68.1080610 149.8225890
 133.1120810  68.0702000 148.9005260 131.9091790  67.9813940 149.8154140
 129.9422110  54.4559730 146.4852830 130.7912640  54.8929880 146.4193020
 129.5753380  54.7679990 147.3124890 138.8631890  59.0272490 151.3984400
 137.9222030  59.0422720 151.5732090 139.1775960  58.2408450 151.8444700
 128.8413530  60.7092090 144.9588360 129.6076800  60.5973450 145.5213790
 128.9188220  60.0130060 144.3065130 127.5360290  58.1417160 145.6421250
 127.6163880  57.1944670 145.7538650 128.4280040  58.4724040 145.7481910
 140.8657470  66.1981340 153.0738660 140.9904890  67.0212510 153.5462470
 141.7323030  65.9872070 152.7262810 128.3375000  68.2912550 152.7455790
 129.0737480  67.7428010 153.0164360 128.7215920  69.1568560 152.6061780
 125.2220480  64.3586120 148.6197300 124.2960260  64.6007260 148.6102710
 125.6876910  65.1860380 148.4982050 131.4477310  67.4642860 144.5681360
 132.2405920  67.7531690 144.1163150 130.9281660  67.0335030 143.8893840
 140.5007480  66.6912990 145.9918100 140.2148990  66.2778130 145.1772280
 140.3027030  67.6200700 145.8718620 131.9654710  62.6846270 144.4323710
 131.8605350  62.0698620 145.1585090 131.7978930  62.1612160 143.6486720
 135.2057440  61.7466300 145.0365700 134.6567540  62.1935600 145.6808440
 135.8276700  61.2415550 145.5603370 130.8732560  60.7057220 146.9331000
 131.2948980  60.5397090 147.7762390 130.9983400  59.8957450 146.4386140
 133.3860200  59.7294830 144.1808100 133.9065860  59.0143850 143.8149250
 134.0328600  60.3680700 144.4808610 129.7691460  56.7790450 143.8789160
 129.5680520  55.9157810 144.2402500 129.5983510  56.6923810 142.9410760
 137.2479770  51.5898680 146.4076040 137.5282060  50.7466580 146.7635460
 136.4745500  51.8221790 146.9214790 128.5674260  53.8791070 143.8667040
 128.8700160  53.8858500 142.9586190 129.3068850  53.5288930 144.3634700
 131.7859190  52.8225690 144.8523240 131.4381190  52.1449680 144.2725690
 131.9871960  52.3615200 145.6666630 133.9508230  67.8106440 146.4709840
 134.8459020  68.1491410 146.4928600 133.9825860  67.0885850 145.8434120
 127.5904390  63.1833490 144.6996840 128.0279260  63.7263160 145.3554420
 128.0752120  62.3580440 144.7093180 124.8050190  65.9722520 152.1517100
 125.1353200  65.1043580 151.9195740 125.2341190  66.1781040 152.9822060
 129.4012110  64.3031530 149.8119070 129.1007650  64.1796500 150.7122980
 129.2949600  63.4440120 149.4034800 142.1704030  64.0827930 144.5145750
 141.3396990  64.1504580 144.9852980 142.3475860  64.9732050 144.2112610
 141.6260490  60.8275410 147.0179950 142.3879400  61.3972060 147.1239640
 141.6414860  60.2602610 147.7888260 125.1264830  59.3513340 151.2487610
 124.4713670  59.0824980 150.6047310 125.9642780  59.2417820 150.7989590
 142.6320460  61.6825510 151.8621880 143.0029290  60.8992830 151.4557850
 143.2722390  62.3714610 151.6839180 141.6779660  61.1209780 144.1752470
 141.9528500  62.0288660 144.0471690 141.4890400  61.0572310 145.1114460
 138.0755270  54.1454630 145.4706100 138.4940150  53.9585610 144.6302760
 137.7691330  53.2933680 145.7809030 141.5745000  59.0578770 149.1681900
 141.1988600  58.2906700 148.7363190 140.8448120  59.4401470 149.6556830
 124.3402910  56.5612270 147.1912940 123.4366990  56.8242470 147.0164600
 124.8243530  56.8323440 146.4112900 140.8495960  57.2836260 152.4689140
 141.3733440  56.7898910 151.8379310 141.4355380  57.4186620 153.2136710
 126.8830120  55.6177810 145.1007320 127.5921820  55.1961030 144.6154600
 126.1670060  55.6853040 144.4690670 126.5304280  51.6717140 144.1409970
 127.2532410  52.2126080 144.4591190 126.8028800  51.3980560 143.2651510
 140.3395930  56.5409610 148.4081550 140.8355050  56.3080480 149.1930430
 140.1412000  55.7021450 147.9919190 141.7683090  55.1770560 150.9419230
 141.6582370  55.0226600 151.8801500 142.5290680  54.6491500 150.6994640
 142.6573360  53.0078480 144.1825370 143.5822670  52.8759660 143.9743660
 142.6349150  53.0871300 145.1361820 142.7311850  53.7789140 146.8082080
 141.9363350  53.7134260 147.3374990 142.9355130  54.7139780 146.7967430
 139.6730270  67.8180690 150.8020470 140.2689340  67.4965260 150.1254890
 139.9308420  67.3452510 151.5933740 130.6538200  66.7764230 153.8066330
 131.1703220  66.1651590 153.2814590 131.3035580  67.2793010 154.2977340
 139.1631780  52.1086020 153.2580910 139.6039870  52.0531120 152.4102510
 138.8939370  53.0244030 153.3291090 141.0270350  51.7401260 151.2689730
 140.9658750  50.7962480 151.1220750 141.8062380  51.8481350 151.8143190
 125.3323100  67.8793620 150.2313680 125.1645140  67.2464300 150.9295570
 124.4657610  68.0853020 149.8807870 125.9551120  51.7110400 147.7345540
 126.7130480  51.8239280 147.1609570 125.4928290  52.5479600 147.6888970
 132.4964930  53.8249670 150.7247850 131.6839440  53.4506560 150.3843730
 133.0006570  53.0694750 151.0269040 136.9989910  50.4892120 151.9630920
 137.6019280  51.0612330 152.4379440 136.2582900  51.0531560 151.7404820
 140.1424510  50.8913680 147.2371200 140.3375140  51.7897130 147.5038630
 139.3554380  50.6600760 147.7304150 126.9385800  66.5726850 147.6763820
 126.4133420  66.9534880 146.9725780 126.8630380  67.1977620 148.3973530
 128.3276270  52.2374450 146.2747510 128.8569030  51.4504250 146.1455460
 128.9604590  52.9165640 146.5083040 130.5214110  51.9749590 149.3292900
 129.8916850  51.2736900 149.4963030 129.9819250  52.7353720 149.1126060
 141.6951120  68.1314390 148.9977760 141.8703310  67.4452130 148.3538680
 140.9972690  68.6561440 148.6054430 129.5378770  68.5209230 146.5513070
 130.2697590  68.2368510 146.0036960 129.7972440  68.2822510 147.4412450
 128.6993560  64.6373960 146.5559400 128.0702440  65.1059060 147.1045230
 128.8141390  63.7923180 146.9905590 136.1543280  58.6879620 132.7060600
 136.0737330  57.7734230 132.4352310 135.7407700  59.1846690 132.0000310
 134.2861320  60.4658640 134.5869870 133.5103420  59.9859080 134.8768440
 134.9374250  59.7864290 134.4126030 128.3027150  60.7778450 135.4645630
 127.4712030  60.5227160 135.8642140 128.9108130  60.8489220 136.2003550
 138.3068750  64.8718830 133.3669000 137.8450280  64.1006070 133.6956170
 139.1194300  64.8984900 133.8721450 128.2828410  64.8118540 135.6603650
 128.5856450  63.9216280 135.4813870 129.0272000  65.3688760 135.4325900
 126.7119100  55.7380340 129.2488020 125.8235800  56.0796310 129.1467900
 126.9960290  55.5380660 128.3568850 124.6752110  58.3385990 135.1327720
 125.2468220  57.5708190 135.1331360 124.6753650  58.6374750 134.2234330
 134.5332060  67.1576840 132.9872990 133.9143500  67.6134340 132.4167430
 135.3883840  67.3128300 132.5862690 133.7270310  63.1415830 134.5940030
 133.6578590  62.2005770 134.4329160 134.4890170  63.2317240 135.1662600
 125.9176980  53.7470350 136.9196650 125.7379820  52.8496100 137.1999410
 125.5157060  54.2942220 137.5943600 134.7575480  55.9486210 134.8208960
 135.1340300  55.0758090 134.7082630 134.6594990  56.2844910 133.9299400
 128.8880490  54.3211840 130.2826400 128.9947240  55.2215570 130.5895160
 127.9772850  54.2729810 129.9921050 138.5399600  53.4436650 131.7537300
 139.3609220  52.9533220 131.7962780 138.5733680  54.0334310 132.5069140
 126.5363650  56.2430850 135.5278990 127.2173760  56.5069220 136.1466390
 126.2211700  55.4031720 135.8617000 130.7288220  57.2898210 134.6151580
 131.2366440  57.7879180 135.2556600 131.2601460  56.5133410 134.4390940
 142.8299150  55.4603400 138.3180930 142.1251320  55.8485110 137.7996040
 143.0957070  56.1553690 138.9201860 129.0124320  51.9296770 138.8815000
 129.0142760  52.4469160 138.0760900 128.1828630  51.4526950 138.8584930
 135.3995410  62.0416080 130.3804900 134.7812680  62.5065530 129.8167620
 135.9118660  62.7343560 130.7974410 130.2627170  61.5691950 137.0588500
 129.9296550  62.1960870 137.7009570 130.4393850  62.0953830 136.2790170
 138.7761080  55.3837030 134.5264840 138.0716650  55.6721920 135.1067950
 139.1373240  56.1937140 134.1664400 128.6939650  53.6406730 136.8885450
 129.0356460  54.4848780 136.5939320 127.7555460  53.7890470 137.0050790
 129.4746270  63.5372750 138.8737680 130.0920270  64.2123830 138.5922130
 128.6139390  63.9460730 138.7825180 124.7678610  62.7272610 127.7544530
 124.3906590  63.2159710 127.0229430 125.0251680  63.3997890 128.3851060
 140.3923860  65.0012160 136.7892320 139.7087380  65.6711270 136.7808990
 140.9318150  65.1992810 136.0237180 141.8448000  54.8291820 134.9174050
 140.8972910  54.8630800 135.0489480 142.1697990  55.6430770 135.3023410
 132.3767540  51.1289000 133.2130040 132.6842520  50.5735890 132.4965540
 131.4468240  51.2633460 133.0303030 137.9282600  66.8456290 135.5037500
 137.9409760  66.4418580 134.6359760 137.3757820  67.6203580 135.3998930
 139.2228020  63.5672510 130.5927670 139.1124350  62.6246840 130.7177090
 139.2196270  63.9288150 131.4790430 137.3268040  61.7486130 136.8320110
 137.7436830  61.5346240 135.9973570 138.0507860  62.0058920 137.4028730
 134.7648300  59.1937830 129.9490160 133.8377580  59.1275210 130.1778630
 134.9173120  60.1317960 129.8345400 134.7517380  55.4654830 126.9457320
 133.8121050  55.6268790 127.0309780 135.0700640  56.1840510 126.3993310
 141.2730140  60.1473350 136.9236350 140.4448770  60.2166440 136.4486480
 141.8680620  60.7327660 136.4552180 138.7945590  60.7558130 130.4525410
 138.1758010  60.4177680 129.8051710 138.7770040  60.1117890 131.1604600
 138.2372150  56.9342670 137.8691220 137.8243330  57.7596380 138.1231210
 137.5048100  56.3487710 137.6767580 130.3704940  59.7202570 132.7309890
 129.9661940  59.0079820 132.2355790 130.4568060  59.3755810 133.6197930
 130.8386640  63.4070130 134.8949100 130.5414930  62.8015600 134.2156880
 131.7886460  63.4447440 134.7838460 129.0833560  56.4945780 136.5108930
 129.6348150  56.6041120 135.7362180 129.5977070  56.8683380 137.2264160
 138.9272250  66.9802000 138.5572200 138.4502810  67.7874190 138.3644810
 138.2434040  66.3280330 138.7098410 129.9305070  63.1451820 141.5456900
 129.0333600  63.3691790 141.7930300 129.9557940  63.2686760 140.5968300
 136.9710290  59.9944940 127.4598160 137.4103570  59.1567370 127.3135980
 137.6838710  60.6274340 127.5462300 128.7576290  60.0165140 140.1214270
 128.6184060  60.8887940 140.4901670 127.8757650  59.6737950 139.9762210
 135.0805670  64.9341010 131.4279400 135.5201580  65.6765340 131.0134790
 135.0192560  65.1767580 132.3518360 130.5556640  65.9586840 142.3299420
 130.5272070  66.3629790 141.4627850 130.3921610  65.0297200 142.1671020
 140.5527430  51.2487750 125.7739200 140.2400090  51.3414580 126.6738270
 141.3139900  51.8268780 125.7236630 127.0709570  58.6147550 130.2316540
 126.9507170  59.3409640 129.6197810 126.7610460  57.8450460 129.7544450
 142.5071460  66.7413940 143.6263590 142.9831180  67.2196830 144.3052670
 143.1278620  66.6731430 142.9009090 124.7094940  61.7862690 136.0385180
 124.7875360  61.9211460 135.0940900 125.3236620  61.0778580 136.2313300
 125.9542570  63.4862880 132.4491360 125.5470650  63.6277470 131.5944960
 126.8455580  63.2023040 132.2462570 141.9104710  63.9326790 140.7863600
 142.0367770  63.6938670 139.8680780 141.9526090  63.1011330 141.2585680
 135.7721450  67.6354790 139.3558410 136.2866120  67.5462800 140.1580840
 134.9290530  67.9814490 139.6486320 137.7475850  67.9210130 128.7842410
 137.5876990  67.6313070 129.6824240 137.5822560  67.1450260 128.2487640
 130.2264230  67.7008660 130.5614030 130.0506710  66.7844200 130.3481830
 129.3719970  68.0595950 130.8011830 137.4501980  65.4297690 127.3440410
 136.7567140  65.4274980 126.6842690 138.1924840  65.0057010 126.9134580
 137.0151910  67.0560400 131.4188900 137.4708860  66.2749780 131.7327520
 137.3544430  67.7667220 131.9630080 141.7628720  55.9859250 141.7513340
 141.1472990  56.4938920 141.2228800 141.4425140  55.0857580 141.6939280
 124.7654460  62.8276860 138.5779640 124.9285500  62.3582220 137.7599010
 125.2306910  62.3200420 139.2428480 129.5373230  51.9582620 133.6140210
 129.0941380  52.7392160 133.2824730 130.0958220  52.2812510 134.3211150
 133.8243040  54.8251140 139.2175530 133.3622410  55.0334160 140.0295470
 133.4221150  54.0110490 138.9146200 138.8247550  56.0460090 140.3472190
 137.9741140  55.7465840 140.6681260 138.6649340  56.2902100 139.4356010
 135.9197260  57.5461840 142.4470980 136.2450670  56.7125590 142.1073210
 136.7077590  58.0690360 142.5949310 132.6532050  51.5793320 128.4946040
 132.0286230  51.5753190 129.2199350 132.5662170  50.7124280 128.0982010
 131.5749130  52.5029950 135.4729810 131.8721460  53.4092780 135.3921830
 132.1234690  52.0148730 134.8589380 129.3287450  57.0816190 131.3421460
 129.1028370  56.8653360 132.2468080 128.5479980  57.5144650 130.9967430
 136.5585210  57.0879560 129.9412110 135.9594100  57.8115360 129.7575730
 137.1064820  57.0256340 129.1588560 131.7686660  57.9801770 142.0081730
 131.6730260  57.0396500 141.8582130 132.6118640  58.2016840 141.6129800
 135.1650080  55.7243100 131.9715390 135.5579650  56.0415300 131.1584080
 135.5266930  54.8454980 132.0859910 126.8997200  54.3915440 140.1615510
 126.5060590  55.2390650 140.3688290 126.2115600  53.7541810 140.3524150
 133.4742250  54.4750410 143.2312250 132.7840570  54.2822610 143.8658340
 134.2174550  54.7585050 143.7636550 124.2014250  52.3143900 134.1945590
 123.9127300  52.8846760 134.9070570 124.9460010  51.8348350 134.5576820
 124.3884480  56.2564020 125.4048310 124.3059150  57.1994780 125.5463300
 124.0367540  56.1138930 124.5260660 135.7505220  58.3148850 136.0666170
 135.0186340  58.8235660 136.4156270 135.3529560  57.4978830 135.7654950
 132.1882610  54.9903050 134.4718660 132.1918670  54.5493000 133.6223200
 133.0833730  55.3120380 134.5790480 128.0384990  54.8729540 133.4312870
 127.6985040  55.3504770 134.1879920 127.2762310  54.4194660 133.0713970
 132.2502760  55.9915130 127.4625420 132.3715580  55.9501610 128.4111240
 131.8651270  56.8539280 127.3072150 136.2131130  53.7682530 135.4789110
 136.2303870  54.2191180 136.3230960 135.9646710  52.8688170 135.6922550
 131.2624260  58.3016270 126.8608720 130.6941160  57.8534520 126.2344630
 131.9713260  58.6609050 126.3273870 139.6401880  51.1814710 141.3175490
 139.9647650  50.4504370 141.8433470 139.6758390  50.8628350 140.4156480
 126.3393440  62.2028290 140.7375450 125.9548230  61.5621960 141.3358410
 126.6505630  62.9064410 141.3070180 132.4890580  59.0504830 136.2184070
 132.8560710  58.5763400 136.9645410 132.2995640  59.9246400 136.5592410
 125.3531070  53.7948520 132.3477540 125.0677990  53.4304190 133.1856160
 125.2909930  53.0628980 131.7340680 130.2789950  58.0913470 138.5368280
 129.9747020  58.9705450 138.7618640 131.2336410  58.1513260 138.5725720
 128.8071740  62.2974460 129.1335130 128.0334000  61.7572080 128.9733850
 129.5366370  61.7781070 128.7952890 139.5659720  61.2939820 134.9261520
 140.2858840  61.7895110 134.5357630 139.3641540  60.6157710 134.2815390
 135.0269660  52.6877780 129.0690910 134.2134270  52.1890950 128.9936220
 134.8331610  53.5276030 128.6527260 134.9478520  61.3648880 140.8130520
 134.8815830  60.4444550 140.5588110 134.3183660  61.4624320 141.5275160
 137.7418050  57.0597430 127.3653070 138.6297670  57.3714660 127.1904410
 137.7123140  56.1869680 126.9733650 128.8509140  61.9654840 132.7713940
 129.3687810  61.1623100 132.7170830 128.3993160  61.9033980 133.6130770
 133.7378640  63.2321120 128.0441240 134.0794340  63.9763350 127.5484560
 132.9091350  63.5452240 128.4066070 126.3353680  58.9316210 139.6839640
 125.9768620  59.5970060 140.2712980 126.0408240  58.0999760 140.0552260
 129.5366800  59.3900450 142.5679190 129.2366940  59.5357630 141.6707010
 130.3078040  58.8305740 142.4752580 134.8795250  64.1869450 140.5634320
 134.8939790  63.2550410 140.3453230 134.1720350  64.2729210 141.2024090
 140.0132320  58.3709270 126.8332930 139.9296040  58.8023490 125.9829370
 140.7326510  58.8307620 127.2659750 141.0906460  60.8276790 139.9102900
 140.3654650  61.4205570 139.7132290 141.6181920  60.8200330 139.1116270
 141.0419570  65.2251530 129.5615060 140.3995730  64.5707150 129.8358780
 140.6550230  65.6306620 128.7855730 136.6206050  62.5536960 133.4086750
 136.9729870  61.9565090 132.7488120 135.7368380  62.2281190 133.5795000
 132.7069330  63.3134650 130.8157160 133.3940460  63.8603860 131.1964750
 131.9201750  63.8575380 130.8506770 124.8461730  58.9307470 126.3074240
 125.7156580  59.2132270 126.5910160 124.3552050  59.7443340 126.1923050
 132.0096540  60.3180680 130.4282520 132.4659320  61.1285930 130.6542710
 131.6584750  60.0003820 131.2601010 134.3129150  65.8287020 137.6574820
 134.9571370  66.0346400 138.3348240 134.6758590  65.0675420 137.2045670
 127.9108320  50.6618330 130.9005040 127.7822950  50.6536230 131.8489960
 127.0870340  51.0001420 130.5496050 135.5861230  63.8319370 136.3752270
 136.2283460  63.1312530 136.4884440 136.1110580  64.6117810 136.1949160
 139.4316950  64.1167990 126.0991410 139.2054530  63.3998430 126.6916050
 139.0413150  63.8680430 125.2613160 137.3598850  64.6314270 139.5788330
 137.6955090  65.2180960 140.2566250 136.4399190  64.5006980 139.8086120
 125.2132980  68.1434850 126.8735870 125.5730620  68.7424190 126.2193140
 125.0725320  68.6894740 127.6470900 124.9102250  52.4209450 140.3611740
 124.1960770  52.6206370 140.9664350 125.3297290  51.6449020 140.7326540
 139.0133200  62.0339930 127.7605570 138.7254900  62.4952620 128.5483450
 139.8085370  61.5737700 128.0289790 125.1974840  66.4089710 141.3478270
 125.3065960  65.4684450 141.2073660 124.5455400  66.6744460 140.6992000
 133.1887430  64.6805600 142.7476390 132.8684300  63.9614840 143.2922080
 132.5145790  65.3560670 142.8212450 131.2301600  65.5266050 127.6909540
 131.2211700  66.2595740 127.0754050 130.3099960  65.2797630 127.7836500
 126.8308240  60.7480940 128.4356300 126.2236190  61.4879840 128.4451600
 127.3057590  60.8380300 127.6094500 136.4041030  54.9131760 138.1113190
 136.7721850  54.0926970 138.4392760 135.5439230  54.9733650 138.5268840
 139.7703060  53.8688700 128.9200750 139.1416220  53.9734370 128.2058980
 139.2754980  54.0885480 129.7094630 134.2161200  65.5894290 126.3534730
 134.3173180  65.3858280 125.4236710 133.3162940  65.3352570 126.5582510
 131.7387090  56.1474650 130.3358630 131.0303240  56.6160990 130.7772240
 132.0231570  55.4896660 130.9703820 133.3643020  57.5671350 138.3351160
 133.8628270  58.0417170 139.0003010 133.5065970  56.6434870 138.5421190
 135.7702520  52.8725310 131.7754420 135.6470300  52.8911440 130.8263930
 136.7187080  52.9204250 131.8952820 132.8579310  68.1080610 131.0482400
 133.1120810  68.0702000 130.1261770 131.9091790  67.9813940 131.0410650
 129.9422110  54.4559730 127.7109340 130.7912640  54.8929880 127.6449530
 129.5753380  54.7679990 128.5381400 140.5709880  53.7839310 139.1779550
 140.0683480  54.5244710 139.5173360 141.3866540  54.1723310 138.8616340
 138.8631890  59.0272490 132.6240910 137.9222030  59.0422720 132.7988600
 139.1775960  58.2408450 133.0701210 128.8413530  60.7092090 126.1844870
 129.6076800  60.5973450 126.7470300 128.9188220  60.0130060 125.5321640
 127.5360290  58.1417160 126.8677760 127.6163880  57.1944670 126.9795160
 128.4280040  58.4724040 126.9738420 140.8657470  66.1981340 134.2995170
 140.9904890  67.0212510 134.7718980 141.7323030  65.9872070 133.9519320
 128.3375000  68.2912550 133.9712300 129.0737480  67.7428010 134.2420870
 128.7215920  69.1568560 133.8318290 125.2220480  64.3586120 129.8453810
 124.2960260  64.6007260 129.8359220 125.6876910  65.1860380 129.7238560
 127.3433280  67.4758620 143.1597880 128.1446010  67.7970670 143.5733280
 126.8285100  67.1154200 143.8817790 131.4477310  67.4642860 125.7937870
 132.2405920  67.7531690 125.3419660 130.9281660  67.0335030 125.1150350
 136.1797910  63.5838490 143.1073290 135.5736070  63.6070090 142.3669040
 135.8752020  62.8521530 143.6440540 137.6098280  67.3118780 141.7182700
 138.5620030  67.2276800 141.6682940 137.4626500  67.9760490 142.3916490
 140.5007480  66.6912990 127.2174610 140.2148990  66.2778130 126.4028790
 140.3027030  67.6200700 127.0975130 125.0631090  59.9632080 142.1033930
 125.5670110  59.3839360 142.6750160 124.3238510  60.2472310 142.6410300
 131.9654710  62.6846270 125.6580220 131.8605350  62.0698620 126.3841600
 131.7978930  62.1612160 124.8743230 132.1169030  61.3703070 141.6369450
 131.3514700  61.9388070 141.5524120 132.2984990  61.0779280 140.7437680
 135.2057440  61.7466300 126.2622210 134.6567540  62.1935600 126.9064950
 135.8276700  61.2415550 126.7859880 139.2592380  63.1008400 142.1944470
 140.0001850  63.4384160 141.6911930 138.4965060  63.2700460 141.6414240
 127.0954170  58.1061670 142.9984000 127.1359510  57.8075540 143.9069230
 127.9499670  58.5069280 142.8391520 130.8732560  60.7057220 128.1587510
 131.2948980  60.5397090 129.0018900 130.9983400  59.8957450 127.6642650
 129.0359980  56.6853770 140.9658490 128.5056440  56.1944720 140.3381830
 129.7048050  57.1137970 140.4316420 133.3860200  59.7294830 125.4064610
 133.9065860  59.0143850 125.0405760 134.0328600  60.3680700 125.7065120
 137.9338040  61.1523230 140.7299680 138.3479060  61.3068310 141.5790100
 136.9989040  61.2778450 140.8925460 138.4060210  58.4919390 142.7338830
 138.9880980  57.7371710 142.6459310 138.5821980  59.0226830 141.9570310
 129.5232280  53.6516140 141.0455780 129.4289150  53.0336890 140.3206650
 128.9429670  54.3782430 140.8185690 132.2893720  52.2089380 138.0783170
 131.8411020  52.2313640 137.2328720 131.6558920  51.8108400 138.6753470
 132.6953270  61.1043710 138.6995610 133.1141380  61.9476440 138.5271850
 131.7761900  61.2415750 138.4702390 135.0317170  58.8359890 140.0833450
 135.1513380  58.2401030 140.8228290 135.8911170  58.8729580 139.6634750
 137.3705070  59.3897080 138.6595960 136.8440290  59.9139700 138.0561100
 137.7136410  60.0224470 139.2905690 129.7691460  56.7790450 125.1045670
 129.5680520  55.9157810 125.4659010 129.5983510  56.6923810 124.1667270
 130.5460690  67.4096720 139.8153340 130.0081780  68.1342780 139.4962040
 130.7994650  66.9327060 139.0250680 131.7985940  55.3781240 141.3409270
 132.3885630  55.0697090 142.0287090 130.9806180  54.9060990 141.4969170
 136.6179370  54.9947050 141.5742290 135.9294890  54.3328590 141.5092280
 137.3385390  54.5485320 142.0190750 137.2479770  51.5898680 127.6332550
 137.5282060  50.7466580 127.9891970 136.4745500  51.8221790 128.1471300
 128.5674260  53.8791070 125.0923550 128.8700160  53.8858500 124.1842700
 129.3068850  53.5288930 125.5891210 133.4022900  68.6447930 140.0739990
 133.3281600  69.5483070 140.3812360 132.5001740  68.3259830 140.0462060
 131.7859190  52.8225690 126.0779750 131.4381190  52.1449680 125.4982200
 131.9871960  52.3615200 126.8923140 133.9508230  67.8106440 127.6966350
 134.8459020  68.1491410 127.7185110 133.9825860  67.0885850 127.0690630
 127.5904390  63.1833490 125.9253350 128.0279260  63.7263160 126.5810930
 128.0752120  62.3580440 125.9349690 124.8050190  65.9722520 133.3773610
 125.1353200  65.1043580 133.1452250 125.2341190  66.1781040 134.2078570
 129.4012110  64.3031530 131.0375580 129.1007650  64.1796500 131.9379490
 129.2949600  63.4440120 130.6291310 125.2940400  66.8393110 136.1155240
 124.8571390  67.0193910 136.9479390 125.8618080  67.5967730 135.9736960
 140.9302580  66.3410110 140.4032550 140.3304570  66.4002670 139.6596470
 141.0596480  65.4015090 140.5329400 142.1704030  64.0827930 125.7402260
 141.3396990  64.1504580 126.2109490 142.3475860  64.9732050 125.4369120
 141.6260490  60.8275410 128.2436460 142.3879400  61.3972060 128.3496150
 141.6414860  60.2602610 129.0144770 125.1264830  59.3513340 132.4744120
 124.4713670  59.0824980 131.8303820 125.9642780  59.2417820 132.0246100
 142.6320460  61.6825510 133.0878390 143.0029290  60.8992830 132.6814360
 143.2722390  62.3714610 132.9095690 139.6154220  63.0662090 138.5008710
 138.8014060  63.4959250 138.7634500 140.0228420  63.6780500 137.8877760
 141.6779660  61.1209780 125.4008980 141.9528500  62.0288660 125.2728200
 141.4890400  61.0572310 126.3370970 138.0755270  54.1454630 126.6962610
 138.4940150  53.9585610 125.8559270 137.7691330  53.2933680 127.0065540
 141.5745000  59.0578770 130.3938410 141.1988600  58.2906700 129.9619700
 140.8448120  59.4401470 130.8813340 126.1640760  59.7365910 137.0147460
 126.5313800  59.6493310 137.8943480 125.5951580  58.9732460 136.9154320
 140.9644620  58.2050290 140.0277930 140.7330710  57.9763040 139.1275880
 141.2249170  59.1249840 139.9822820 125.7156760  56.6475000 140.9205880
 124.8212810  56.6141760 141.2599590 126.2554310  56.8461790 141.6857130
 139.4032690  53.4306720 142.8057630 140.2802870  53.4390120 143.1891630
 139.4153530  52.6937560 142.1949980 124.3402910  56.5612270 128.4169450
 123.4366990  56.8242470 128.2421110 124.8243530  56.8323440 127.6369410
 140.8495960  57.2836260 133.6945650 141.3733440  56.7898910 133.0635820
 141.4355380  57.4186620 134.4393220 141.0285680  57.3676130 137.2165200
 140.0788390  57.3339670 137.3310190 141.2098690  58.2776240 136.9814970
 126.8830120  55.6177810 126.3263830 127.5921820  55.1961030 125.8411110
 126.1670060  55.6853040 125.6947180 126.5304280  51.6717140 125.3666480
 127.2532410  52.2126080 125.6847700 126.8028800  51.3980560 124.4908020
 140.3395930  56.5409610 129.6338060 140.8355050  56.3080480 130.4186940
 140.1412000  55.7021450 129.2175700 126.2196470  50.9223330 135.2689100
 126.8672660  50.3720710 134.8284260 126.6398310  51.1766480 136.0904910
 141.7683090  55.1770560 132.1675740 141.6582370  55.0226600 133.1058010
 142.5290680  54.6491500 131.9251150 140.1148810  51.1164690 138.6258740
 140.7521030  51.7298830 138.9917930 140.2623700  51.1525350 137.6807970
 142.6573360  53.0078480 125.4081880 143.5822670  52.8759660 125.2000170
 142.6349150  53.0871300 126.3618330 142.7311850  53.7789140 128.0338590
 141.9363350  53.7134260 128.5631500 142.9355130  54.7139780 128.0223940
 139.6730270  67.8180690 132.0276980 140.2689340  67.4965260 131.3511400
 139.9308420  67.3452510 132.8190250 125.9728470  51.0779000 138.0114420
 125.6243290  51.5342820 138.7772600 125.6416170  50.1836130 138.0936850
 127.5792840  64.2498600 142.1767610 127.5362470  63.8791510 143.0582070
 127.7103850  65.1876170 142.3169430 131.2798870  65.8058190 137.7777330
 131.0390230  66.0732750 136.8907850 132.2201510  65.9763920 137.8328190
 133.4853290  52.2690880 141.5333840 133.4242180  52.8612710 142.2829250
 134.4253670  52.1616840 141.3884100 136.1227850  51.9260940 141.1726130
 136.7368260  52.2440230 140.5107210 136.6677410  51.4409530 141.7921990
 142.5403030  67.8252570 138.5787970 142.0461310  68.2221440 137.8615100
 141.9316320  67.2001780 138.9725250 126.6449110  50.6055200 141.2865190
 127.1932100  50.4243250 140.5231300 126.7104420  49.8149310 141.8221500
 127.4180870  67.1960850 139.2965390 126.8241190  67.0645550 140.0355430
 127.4104710  66.3598990 138.8307490 136.8635890  50.4893080 137.4995420
 135.9895730  50.8228190 137.2968350 136.7546640  50.0166260 138.3247290
 137.7707870  52.6963950 138.8837140 137.4421230  51.8815710 138.5038870
 138.7190170  52.6533760 138.7602830 140.2242480  68.4675990 135.8574710
 139.7645450  69.2191800 135.4832730 139.5954940  67.7482460 135.7989510
 127.0493100  64.5619230 138.2473430 126.3227160  63.9424520 138.1799380
 127.1102250  64.9559840 137.3771510 130.6538200  66.7764230 135.0322840
 131.1703220  66.1651590 134.5071100 131.3035580  67.2793010 135.5233850
 133.3933700  67.6672720 135.8591820 133.6811510  67.4127020 134.9824830
 133.9056920  67.1150080 136.4497390 134.6110710  51.4062920 136.4388330
 133.8282500  51.8808420 136.7185090 134.3173640  50.5017750 136.3301510
 139.1631780  52.1086020 134.4837420 139.6039870  52.0531120 133.6359020
 138.8939370  53.0244030 134.5547600 141.0270350  51.7401260 132.4946240
 140.9658750  50.7962480 132.3477260 141.8062380  51.8481350 133.0399700
 125.3323100  67.8793620 131.4570190 125.1645140  67.2464300 132.1552080
 124.4657610  68.0853020 131.1064380 125.9551120  51.7110400 128.9602050
 126.7130480  51.8239280 128.3866080 125.4928290  52.5479600 128.9145480
 132.4964930  53.8249670 131.9504360 131.6839440  53.4506560 131.6100240
 133.0006570  53.0694750 132.2525550 136.9989910  50.4892120 133.1887430
 137.6019280  51.0612330 133.6635950 136.2582900  51.0531560 132.9661330
 140.1424510  50.8913680 128.4627710 140.3375140  51.7897130 128.7295140
 139.3554380  50.6600760 128.9560660 126.9385800  66.5726850 128.9020330
 126.4133420  66.9534880 128.1982290 126.8630380  67.1977620 129.6230040
 128.3276270  52.2374450 127.5004020 128.8569030  51.4504250 127.3711970
 128.9604590  52.9165640 127.7339550 130.5214110  51.9749590 130.5549410
 129.8916850  51.2736900 130.7219540 129.9819250  52.7353720 130.3382570
 133.4606060  68.5888820 143.2260020 134.3873370  68.3533090 143.2695980
 133.4456490  69.4160820 142.7446050 141.6951120  68.1314390 130.2234270
 141.8703310  67.4452130 129.5795190 140.9972690  68.6561440 129.8310940
 130.6469670  51.2533570 142.9901900 130.3653940  51.7567170 142.2262720
 131.0289370  50.4555320 142.6244030 129.5378770  68.5209230 127.7769580
 130.2697590  68.2368510 127.2293470 129.7972440  68.2822510 128.6668960
 128.6993560  64.6373960 127.7815910 128.0702440  65.1059060 128.3301740
 128.8141390  63.7923180 128.2162100 137.2485130  50.6687150 143.5682370
 137.1350580  50.9881760 144.4633890 138.0654870  51.0699660 143.2719650
 140.0283620  67.8158680 143.0501060 140.8208940  67.3207910 142.8427020
 140.3216770  68.4948820 143.6576670 136.1543280  58.6879620 113.9317110
 136.0737330  57.7734230 113.6608820 135.7407700  59.1846690 113.2256820
 134.2861320  60.4658640 115.8126380 133.5103420  59.9859080 116.1024950
 134.9374250  59.7864290 115.6382540 138.3068750  64.8718830 114.5925510
 137.8450280  64.1006070 114.9212680 139.1194300  64.8984900 115.0977960
 124.6752110  58.3385990 116.3584230 125.2468220  57.5708190 116.3587870
 124.6753650  58.6374750 115.4490840 134.5332060  67.1576840 114.2129500
 133.9143500  67.6134340 113.6423940 135.3883840  67.3128300 113.8119200
 133.7270310  63.1415830 115.8196540 133.6578590  62.2005770 115.6585670
 134.4890170  63.2317240 116.3919110 125.9176980  53.7470350 118.1453160
 125.7379820  52.8496100 118.4255920 125.5157060  54.2942220 118.8200110
 134.7575480  55.9486210 116.0465470 135.1340300  55.0758090 115.9339140
 134.6594990  56.2844910 115.1555910 138.5399600  53.4436650 112.9793810
 139.3609220  52.9533220 113.0219290 138.5733680  54.0334310 113.7325650
 126.5363650  56.2430850 116.7535500 127.2173760  56.5069220 117.3722900
 126.2211700  55.4031720 117.0873510 130.7288220  57.2898210 115.8408090
 131.2366440  57.7879180 116.4813110 131.2601460  56.5133410 115.6647450
 142.8299150  55.4603400 119.5437440 142.1251320  55.8485110 119.0252550
 143.0957070  56.1553690 120.1458370 129.0124320  51.9296770 120.1071510
 129.0142760  52.4469160 119.3017410 128.1828630  51.4526950 120.0841440
 135.3995410  62.0416080 111.6061410 134.7812680  62.5065530 111.0424130
 135.9118660  62.7343560 112.0230920 138.7761080  55.3837030 115.7521350
 138.0716650  55.6721920 116.3324460 139.1373240  56.1937140 115.3920910
 128.6939650  53.6406730 118.1141960 129.0356460  54.4848780 117.8195830
 127.7555460  53.7890470 118.2307300 129.4746270  63.5372750 120.0994190
 130.0920270  64.2123830 119.8178640 128.6139390  63.9460730 120.0081690
 140.3923860  65.0012160 118.0148830 139.7087380  65.6711270 118.0065500
 140.9318150  65.1992810 117.2493690 141.8448000  54.8291820 116.1430560
 140.8972910  54.8630800 116.2745990 142.1697990  55.6430770 116.5279920
 132.3767540  51.1289000 114.4386550 132.6842520  50.5735890 113.7222050
 131.4468240  51.2633460 114.2559540 137.9282600  66.8456290 116.7294010
 137.9409760  66.4418580 115.8616270 137.3757820  67.6203580 116.6255440
 139.2228020  63.5672510 111.8184180 139.1124350  62.6246840 111.9433600
 139.2196270  63.9288150 112.7046940 137.3268040  61.7486130 118.0576620
 137.7436830  61.5346240 117.2230080 138.0507860  62.0058920 118.6285240
 134.7648300  59.1937830 111.1746670 133.8377580  59.1275210 111.4035140
 134.9173120  60.1317960 111.0601910 141.2730140  60.1473350 118.1492860
 140.4448770  60.2166440 117.6742990 141.8680620  60.7327660 117.6808690
 138.7945590  60.7558130 111.6781920 138.1758010  60.4177680 111.0308220
 138.7770040  60.1117890 112.3861110 138.2372150  56.9342670 119.0947730
 137.8243330  57.7596380 119.3487720 137.5048100  56.3487710 118.9024090
 130.3704940  59.7202570 113.9566400 129.9661940  59.0079820 113.4612300
 130.4568060  59.3755810 114.8454440 129.0833560  56.4945780 117.7365440
 129.6348150  56.6041120 116.9618690 129.5977070  56.8683380 118.4520670
 138.9272250  66.9802000 119.7828710 138.4502810  67.7874190 119.5901320
 138.2434040  66.3280330 119.9354920 129.9305070  63.1451820 122.7713410
 129.0333600  63.3691790 123.0186810 129.9557940  63.2686760 121.8224810
 136.9710290  59.9944940 108.6854670 137.4103570  59.1567370 108.5392490
 137.6838710  60.6274340 108.7718810 128.7576290  60.0165140 121.3470780
 128.6184060  60.8887940 121.7158180 127.8757650  59.6737950 121.2018720
 135.0805670  64.9341010 112.6535910 135.5201580  65.6765340 112.2391300
 135.0192560  65.1767580 113.5774870 130.5556640  65.9586840 123.5555930
 130.5272070  66.3629790 122.6884360 130.3921610  65.0297200 123.3927530
 140.5527430  51.2487750 106.9995710 140.2400090  51.3414580 107.8994780
 141.3139900  51.8268780 106.9493140 142.5071460  66.7413940 124.8520100
 142.9831180  67.2196830 125.5309180 143.1278620  66.6731430 124.1265600
 124.7094940  61.7862690 117.2641690 124.7875360  61.9211460 116.3197410
 125.3236620  61.0778580 117.4569810 141.9104710  63.9326790 122.0120110
 142.0367770  63.6938670 121.0937290 141.9526090  63.1011330 122.4842190
 135.7721450  67.6354790 120.5814920 136.2866120  67.5462800 121.3837350
 134.9290530  67.9814490 120.8742830 137.7475850  67.9210130 110.0098920
 137.5876990  67.6313070 110.9080750 137.5822560  67.1450260 109.4744150
 137.4501980  65.4297690 108.5696920 136.7567140  65.4274980 107.9099200
 138.1924840  65.0057010 108.1391090 137.0151910  67.0560400 112.6445410
 137.4708860  66.2749780 112.9584030 137.3544430  67.7667220 113.1886590
 141.7628720  55.9859250 122.9769850 141.1472990  56.4938920 122.4485310
 141.4425140  55.0857580 122.9195790 124.7654460  62.8276860 119.8036150
 124.9285500  62.3582220 118.9855520 125.2306910  62.3200420 120.4684990
 129.5373230  51.9582620 114.8396720 129.0941380  52.7392160 114.5081240
 130.0958220  52.2812510 115.5467660 133.8243040  54.8251140 120.4432040
 133.3622410  55.0334160 121.2551980 133.4221150  54.0110490 120.1402710
 138.8247550  56.0460090 121.5728700 137.9741140  55.7465840 121.8937770
 138.6649340  56.2902100 120.6612520 135.9197260  57.5461840 123.6727490
 136.2450670  56.7125590 123.3329720 136.7077590  58.0690360 123.8205820
 132.6532050  51.5793320 109.7202550 132.0286230  51.5753190 110.4455860
 132.5662170  50.7124280 109.3238520 131.5749130  52.5029950 116.6986320
 131.8721460  53.4092780 116.6178340 132.1234690  52.0148730 116.0845890
 136.5585210  57.0879560 111.1668620 135.9594100  57.8115360 110.9832240
 137.1064820  57.0256340 110.3845070 131.7686660  57.9801770 123.2338240
 131.6730260  57.0396500 123.0838640 132.6118640  58.2016840 122.8386310
 135.1650080  55.7243100 113.1971900 135.5579650  56.0415300 112.3840590
 135.5266930  54.8454980 113.3116420 126.8997200  54.3915440 121.3872020
 126.5060590  55.2390650 121.5944800 126.2115600  53.7541810 121.5780660
 133.4742250  54.4750410 124.4568760 132.7840570  54.2822610 125.0914850
 134.2174550  54.7585050 124.9893060 124.2014250  52.3143900 115.4202100
 123.9127300  52.8846760 116.1327080 124.9460010  51.8348350 115.7833330
 135.7505220  58.3148850 117.2922680 135.0186340  58.8235660 117.6412780
 135.3529560  57.4978830 116.9911460 132.1882610  54.9903050 115.6975170
 132.1918670  54.5493000 114.8479710 133.0833730  55.3120380 115.8046990
 128.0384990  54.8729540 114.6569380 127.6985040  55.3504770 115.4136430
 127.2762310  54.4194660 114.2970480 136.2131130  53.7682530 116.7045620
 136.2303870  54.2191180 117.5487470 135.9646710  52.8688170 116.9179060
 139.6401880  51.1814710 122.5432000 139.9647650  50.4504370 123.0689980
 139.6758390  50.8628350 121.6412990 126.3393440  62.2028290 121.9631960
 125.9548230  61.5621960 122.5614920 126.6505630  62.9064410 122.5326690
 132.4890580  59.0504830 117.4440580 132.8560710  58.5763400 118.1901920
 132.2995640  59.9246400 117.7848920 125.3531070  53.7948520 113.5734050
 125.0677990  53.4304190 114.4112670 125.2909930  53.0628980 112.9597190
 130.2789950  58.0913470 119.7624790 129.9747020  58.9705450 119.9875150
 131.2336410  58.1513260 119.7982230 128.8071740  62.2974460 110.3591640
 128.0334000  61.7572080 110.1990360 129.5366370  61.7781070 110.0209400
 139.5659720  61.2939820 116.1518030 140.2858840  61.7895110 115.7614140
 139.3641540  60.6157710 115.5071900 135.0269660  52.6877780 110.2947420
 134.2134270  52.1890950 110.2192730 134.8331610  53.5276030 109.8783770
 134.9478520  61.3648880 122.0387030 134.8815830  60.4444550 121.7844620
 134.3183660  61.4624320 122.7531670 137.7418050  57.0597430 108.5909580
 138.6297670  57.3714660 108.4160920 137.7123140  56.1869680 108.1990160
 133.7378640  63.2321120 109.2697750 134.0794340  63.9763350 108.7741070
 132.9091350  63.5452240 109.6322580 126.3353680  58.9316210 120.9096150
 125.9768620  59.5970060 121.4969490 126.0408240  58.0999760 121.2808770
 129.5366800  59.3900450 123.7935700 129.2366940  59.5357630 122.8963520
 130.3078040  58.8305740 123.7009090 134.8795250  64.1869450 121.7890830
 134.8939790  63.2550410 121.5709740 134.1720350  64.2729210 122.4280600
 140.0132320  58.3709270 108.0589440 139.9296040  58.8023490 107.2085880
 140.7326510  58.8307620 108.4916260 141.0906460  60.8276790 121.1359410
 140.3654650  61.4205570 120.9388800 141.6181920  60.8200330 120.3372780
 141.0419570  65.2251530 110.7871570 140.3995730  64.5707150 111.0615290
 140.6550230  65.6306620 110.0112240 136.6206050  62.5536960 114.6343260
 136.9729870  61.9565090 113.9744630 135.7368380  62.2281190 114.8051510
 132.7069330  63.3134650 112.0413670 133.3940460  63.8603860 112.4221260
 131.9201750  63.8575380 112.0763280 134.3129150  65.8287020 118.8831330
 134.9571370  66.0346400 119.5604750 134.6758590  65.0675420 118.4302180
 127.9108320  50.6618330 112.1261550 127.7822950  50.6536230 113.0746470
 127.0870340  51.0001420 111.7752560 135.5861230  63.8319370 117.6008780
 136.2283460  63.1312530 117.7140950 136.1110580  64.6117810 117.4205670
 139.4316950  64.1167990 107.3247920 139.2054530  63.3998430 107.9172560
 139.0413150  63.8680430 106.4869670 137.3598850  64.6314270 120.8044840
 137.6955090  65.2180960 121.4822760 136.4399190  64.5006980 121.0342630
 125.2132980  68.1434850 108.0992380 125.5730620  68.7424190 107.4449650
 125.0725320  68.6894740 108.8727410 124.9102250  52.4209450 121.5868250
 124.1960770  52.6206370 122.1920860 125.3297290  51.6449020 121.9583050
 139.0133200  62.0339930 108.9862080 138.7254900  62.4952620 109.7739960
 139.8085370  61.5737700 109.2546300 125.1974840  66.4089710 122.5734780
 125.3065960  65.4684450 122.4330170 124.5455400  66.6744460 121.9248510
 133.1887430  64.6805600 123.9732900 132.8684300  63.9614840 124.5178590
 132.5145790  65.3560670 124.0468960 136.4041030  54.9131760 119.3369700
 136.7721850  54.0926970 119.6649270 135.5439230  54.9733650 119.7525350
 139.7703060  53.8688700 110.1457260 139.1416220  53.9734370 109.4315490
 139.2754980  54.0885480 110.9351140 134.2161200  65.5894290 107.5791240
 134.3173180  65.3858280 106.6493220 133.3162940  65.3352570 107.7839020
 133.3643020  57.5671350 119.5607670 133.8628270  58.0417170 120.2259520
 133.5065970  56.6434870 119.7677700 135.7702520  52.8725310 113.0010930
 135.6470300  52.8911440 112.0520440 136.7187080  52.9204250 113.1209330
 140.5709880  53.7839310 120.4036060 140.0683480  54.5244710 120.7429870
 141.3866540  54.1723310 120.0872850 138.8631890  59.0272490 113.8497420
 137.9222030  59.0422720 114.0245110 139.1775960  58.2408450 114.2957720
 128.8413530  60.7092090 107.4101380 129.6076800  60.5973450 107.9726810
 128.9188220  60.0130060 106.7578150 140.8657470  66.1981340 115.5251680
 140.9904890  67.0212510 115.9975490 141.7323030  65.9872070 115.1775830
 127.3433280  67.4758620 124.3854390 128.1446010  67.7970670 124.7989790
 126.8285100  67.1154200 125.1074300 131.4477310  67.4642860 107.0194380
 132.2405920  67.7531690 106.5676170 130.9281660  67.0335030 106.3406860
 136.1797910  63.5838490 124.3329800 135.5736070  63.6070090 123.5925550
 135.8752020  62.8521530 124.8697050 137.6098280  67.3118780 122.9439210
 138.5620030  67.2276800 122.8939450 137.4626500  67.9760490 123.6173000
 140.5007480  66.6912990 108.4431120 140.2148990  66.2778130 107.6285300
 140.3027030  67.6200700 108.3231640 125.0631090  59.9632080 123.3290440
 125.5670110  59.3839360 123.9006670 124.3238510  60.2472310 123.8666810
 131.9654710  62.6846270 106.8836730 131.8605350  62.0698620 107.6098110
 131.7978930  62.1612160 106.0999740 132.1169030  61.3703070 122.8625960
 131.3514700  61.9388070 122.7780630 132.2984990  61.0779280 121.9694190
 135.2057440  61.7466300 107.4878720 134.6567540  62.1935600 108.1321460
 135.8276700  61.2415550 108.0116390 139.2592380  63.1008400 123.4200980
 140.0001850  63.4384160 122.9168440 138.4965060  63.2700460 122.8670750
 127.0954170  58.1061670 124.2240510 127.1359510  57.8075540 125.1325740
 127.9499670  58.5069280 124.0648030 129.0359980  56.6853770 122.1915000
 128.5056440  56.1944720 121.5638340 129.7048050  57.1137970 121.6572930
 133.3860200  59.7294830 106.6321120 133.9065860  59.0143850 106.2662270
 134.0328600  60.3680700 106.9321630 137.9338040  61.1523230 121.9556190
 138.3479060  61.3068310 122.8046610 136.9989040  61.2778450 122.1181970
 138.4060210  58.4919390 123.9595340 138.9880980  57.7371710 123.8715820
 138.5821980  59.0226830 123.1826820 129.5232280  53.6516140 122.2712290
 129.4289150  53.0336890 121.5463160 128.9429670  54.3782430 122.0442200
 132.2893720  52.2089380 119.3039680 131.8411020  52.2313640 118.4585230
 131.6558920  51.8108400 119.9009980 132.6953270  61.1043710 119.9252120
 133.1141380  61.9476440 119.7528360 131.7761900  61.2415750 119.6958900
 135.0317170  58.8359890 121.3089960 135.1513380  58.2401030 122.0484800
 135.8911170  58.8729580 120.8891260 137.3705070  59.3897080 119.8852470
 136.8440290  59.9139700 119.2817610 137.7136410  60.0224470 120.5162200
 130.5460690  67.4096720 121.0409850 130.0081780  68.1342780 120.7218550
 130.7994650  66.9327060 120.2507190 131.7985940  55.3781240 122.5665780
 132.3885630  55.0697090 123.2543600 130.9806180  54.9060990 122.7225680
 136.6179370  54.9947050 122.7998800 135.9294890  54.3328590 122.7348790
 137.3385390  54.5485320 123.2447260 137.2479770  51.5898680 108.8589060
 137.5282060  50.7466580 109.2148480 136.4745500  51.8221790 109.3727810
 128.5674260  53.8791070 106.3180060 128.8700160  53.8858500 105.4099210
 129.3068850  53.5288930 106.8147720 133.4022900  68.6447930 121.2996500
 133.3281600  69.5483070 121.6068870 132.5001740  68.3259830 121.2718570
 131.7859190  52.8225690 107.3036260 131.4381190  52.1449680 106.7238710
 131.9871960  52.3615200 108.1179650 133.9508230  67.8106440 108.9222860
 134.8459020  68.1491410 108.9441620 133.9825860  67.0885850 108.2947140
 140.9302580  66.3410110 121.6289060 140.3304570  66.4002670 120.8852980
 141.0596480  65.4015090 121.7585910 142.1704030  64.0827930 106.9658770
 141.3396990  64.1504580 107.4366000 142.3475860  64.9732050 106.6625630
 141.6260490  60.8275410 109.4692970 142.3879400  61.3972060 109.5752660
 141.6414860  60.2602610 110.2401280 125.1264830  59.3513340 113.7000630
 124.4713670  59.0824980 113.0560330 125.9642780  59.2417820 113.2502610
 142.6320460  61.6825510 114.3134900 143.0029290  60.8992830 113.9070870
 143.2722390  62.3714610 114.1352200 139.6154220  63.0662090 119.7265220
 138.8014060  63.4959250 119.9891010 140.0228420  63.6780500 119.1134270
 141.6779660  61.1209780 106.6265490 141.9528500  62.0288660 106.4984710
 141.4890400  61.0572310 107.5627480 138.0755270  54.1454630 107.9219120
 138.4940150  53.9585610 107.0815780 137.7691330  53.2933680 108.2322050
 141.5745000  59.0578770 111.6194920 141.1988600  58.2906700 111.1876210
 140.8448120  59.4401470 112.1069850 126.1640760  59.7365910 118.2403970
 126.5313800  59.6493310 119.1199990 125.5951580  58.9732460 118.1410830
 140.9644620  58.2050290 121.2534440 140.7330710  57.9763040 120.3532390
 141.2249170  59.1249840 121.2079330 125.7156760  56.6475000 122.1462390
 124.8212810  56.6141760 122.4856100 126.2554310  56.8461790 122.9113640
 139.4032690  53.4306720 124.0314140 140.2802870  53.4390120 124.4148140
 139.4153530  52.6937560 123.4206490 140.8495960  57.2836260 114.9202160
 141.3733440  56.7898910 114.2892330 141.4355380  57.4186620 115.6649730
 141.0285680  57.3676130 118.4421710 140.0788390  57.3339670 118.5566700
 141.2098690  58.2776240 118.2071480 140.3395930  56.5409610 110.8594570
 140.8355050  56.3080480 111.6443450 140.1412000  55.7021450 110.4432210
 126.2196470  50.9223330 116.4945610 126.8672660  50.3720710 116.0540770
 126.6398310  51.1766480 117.3161420 141.7683090  55.1770560 113.3932250
 141.6582370  55.0226600 114.3314520 142.5290680  54.6491500 113.1507660
 140.1148810  51.1164690 119.8515250 140.7521030  51.7298830 120.2174440
 140.2623700  51.1525350 118.9064480 142.6573360  53.0078480 106.6338390
 143.5822670  52.8759660 106.4256680 142.6349150  53.0871300 107.5874840
 142.7311850  53.7789140 109.2595100 141.9363350  53.7134260 109.7888010
 142.9355130  54.7139780 109.2480450 139.6730270  67.8180690 113.2533490
 140.2689340  67.4965260 112.5767910 139.9308420  67.3452510 114.0446760
 125.9728470  51.0779000 119.2370930 125.6243290  51.5342820 120.0029110
 125.6416170  50.1836130 119.3193360 127.5792840  64.2498600 123.4024120
 127.5362470  63.8791510 124.2838580 127.7103850  65.1876170 123.5425940
 131.2798870  65.8058190 119.0033840 131.0390230  66.0732750 118.1164360
 132.2201510  65.9763920 119.0584700 133.4853290  52.2690880 122.7590350
 133.4242180  52.8612710 123.5085760 134.4253670  52.1616840 122.6140610
 136.1227850  51.9260940 122.3982640 136.7368260  52.2440230 121.7363720
 136.6677410  51.4409530 123.0178500 142.5403030  67.8252570 119.8044480
 142.0461310  68.2221440 119.0871610 141.9316320  67.2001780 120.1981760
 126.6449110  50.6055200 122.5121700 127.1932100  50.4243250 121.7487810
 126.7104420  49.8149310 123.0478010 127.4180870  67.1960850 120.5221900
 126.8241190  67.0645550 121.2611940 127.4104710  66.3598990 120.0564000
 136.8635890  50.4893080 118.7251930 135.9895730  50.8228190 118.5224860
 136.7546640  50.0166260 119.5503800 137.7707870  52.6963950 120.1093650
 137.4421230  51.8815710 119.7295380 138.7190170  52.6533760 119.9859340
 140.2242480  68.4675990 117.0831220 139.7645450  69.2191800 116.7089240
 139.5954940  67.7482460 117.0246020 127.0493100  64.5619230 119.4729940
 126.3227160  63.9424520 119.4055890 127.1102250  64.9559840 118.6028020
 133.3933700  67.6672720 117.0848330 133.6811510  67.4127020 116.2081340
 133.9056920  67.1150080 117.6753900 134.6110710  51.4062920 117.6644840
 133.8282500  51.8808420 117.9441600 134.3173640  50.5017750 117.5558020
 139.1631780  52.1086020 115.7093930 139.6039870  52.0531120 114.8615530
 138.8939370  53.0244030 115.7804110 141.0270350  51.7401260 113.7202750
 140.9658750  50.7962480 113.5733770 141.8062380  51.8481350 114.2656210
 132.4964930  53.8249670 113.1760870 131.6839440  53.4506560 112.8356750
 133.0006570  53.0694750 113.4782060 136.9989910  50.4892120 114.4143940
 137.6019280  51.0612330 114.8892460 136.2582900  51.0531560 114.1917840
 140.1424510  50.8913680 109.6884220 140.3375140  51.7897130 109.9551650
 139.3554380  50.6600760 110.1817170 128.3276270  52.2374450 108.7260530
 128.8569030  51.4504250 108.5968480 128.9604590  52.9165640 108.9596060
 130.5214110  51.9749590 111.7805920 129.8916850  51.2736900 111.9476050
 129.9819250  52.7353720 111.5639080 133.4606060  68.5888820 124.4516530
 134.3873370  68.3533090 124.4952490 133.4456490  69.4160820 123.9702560
 141.6951120  68.1314390 111.4490780 141.8703310  67.4452130 110.8051700
 140.9972690  68.6561440 111.0567450 130.6469670  51.2533570 124.2158410
 130.3653940  51.7567170 123.4519230 131.0289370  50.4555320 123.8500540
 137.2485130  50.6687150 124.7938880 137.1350580  50.9881760 125.6890400
 138.0654870  51.0699660 124.4976160 140.0283620  67.8158680 124.2757570
 140.8208940  67.3207910 124.0683530 140.3216770  68.4948820 124.8833180
 134.2861320  60.4658640  97.0382890 133.5103420  59.9859080  97.3281460
 134.9374250  59.7864290  96.8639050 128.3027150  60.7778450  97.9158650
 127.4712030  60.5227160  98.3155160 128.9108130  60.8489220  98.6516570
 128.2828410  64.8118540  98.1116670 128.5856450  63.9216280  97.9326890
 129.0272000  65.3688760  97.8838920 126.7119100  55.7380340  91.7001040
 125.8235800  56.0796310  91.5980920 126.9960290  55.5380660  90.8081870
 124.6752110  58.3385990  97.5840740 125.2468220  57.5708190  97.5844380
 124.6753650  58.6374750  96.6747350 125.9176980  53.7470350  99.3709670
 125.7379820  52.8496100  99.6512430 125.5157060  54.2942220 100.0456620
 134.7575480  55.9486210  97.2721980 135.1340300  55.0758090  97.1595650
 134.6594990  56.2844910  96.3812420 138.5399600  53.4436650  94.2050320
 139.3609220  52.9533220  94.2475800 138.5733680  54.0334310  94.9582160
 126.5363650  56.2430850  97.9792010 127.2173760  56.5069220  98.5979410
 126.2211700  55.4031720  98.3130020 130.7288220  57.2898210  97.0664600
 131.2366440  57.7879180  97.7069620 131.2601460  56.5133410  96.8903960
 142.8299150  55.4603400 100.7693950 142.1251320  55.8485110 100.2509060
 143.0957070  56.1553690 101.3714880 129.0124320  51.9296770 101.3328020
 129.0142760  52.4469160 100.5273920 128.1828630  51.4526950 101.3097950
 130.2627170  61.5691950  99.5101520 129.9296550  62.1960870 100.1522590
 130.4393850  62.0953830  98.7303190 138.7761080  55.3837030  96.9777860
 138.0716650  55.6721920  97.5580970 139.1373240  56.1937140  96.6177420
 129.4746270  63.5372750 101.3250700 130.0920270  64.2123830 101.0435150
 128.6139390  63.9460730 101.2338200 140.3923860  65.0012160  99.2405340
 139.7087380  65.6711270  99.2322010 140.9318150  65.1992810  98.4750200
 141.8448000  54.8291820  97.3687070 140.8972910  54.8630800  97.5002500
 142.1697990  55.6430770  97.7536430 137.9282600  66.8456290  97.9550520
 137.9409760  66.4418580  97.0872780 137.3757820  67.6203580  97.8511950
 137.3268040  61.7486130  99.2833130 137.7436830  61.5346240  98.4486590
 138.0507860  62.0058920  99.8541750 134.7517380  55.4654830  89.3970340
 133.8121050  55.6268790  89.4822800 135.0700640  56.1840510  88.8506330
 141.2730140  60.1473350  99.3749370 140.4448770  60.2166440  98.8999500
 141.8680620  60.7327660  98.9065200 138.2372150  56.9342670 100.3204240
 137.8243330  57.7596380 100.5744230 137.5048100  56.3487710 100.1280600
 130.8386640  63.4070130  97.3462120 130.5414930  62.8015600  96.6669900
 131.7886460  63.4447440  97.2351480 129.0833560  56.4945780  98.9621950
 129.6348150  56.6041120  98.1875200 129.5977070  56.8683380  99.6777180
 138.9272250  66.9802000 101.0085220 138.4502810  67.7874190 100.8157830
 138.2434040  66.3280330 101.1611430 129.9305070  63.1451820 103.9969920
 129.0333600  63.3691790 104.2443320 129.9557940  63.2686760 103.0481320
 128.7576290  60.0165140 102.5727290 128.6184060  60.8887940 102.9414690
 127.8757650  59.6737950 102.4275230 130.5556640  65.9586840 104.7812440
 130.5272070  66.3629790 103.9140870 130.3921610  65.0297200 104.6184040
 140.5527430  51.2487750  88.2252220 140.2400090  51.3414580  89.1251290
 141.3139900  51.8268780  88.1749650 127.0709570  58.6147550  92.6829560
 126.9507170  59.3409640  92.0710830 126.7610460  57.8450460  92.2057470
 142.5071460  66.7413940 106.0776610 142.9831180  67.2196830 106.7565690
 143.1278620  66.6731430 105.3522110 124.7094940  61.7862690  98.4898200
 124.7875360  61.9211460  97.5453920 125.3236620  61.0778580  98.6826320
 125.9542570  63.4862880  94.9004380 125.5470650  63.6277470  94.0457980
 126.8455580  63.2023040  94.6975590 141.9104710  63.9326790 103.2376620
 142.0367770  63.6938670 102.3193800 141.9526090  63.1011330 103.7098700
 135.7721450  67.6354790 101.8071430 136.2866120  67.5462800 102.6093860
 134.9290530  67.9814490 102.0999340 130.2264230  67.7008660  93.0127050
 130.0506710  66.7844200  92.7994850 129.3719970  68.0595950  93.2524850
 141.7628720  55.9859250 104.2026360 141.1472990  56.4938920 103.6741820
 141.4425140  55.0857580 104.1452300 124.7654460  62.8276860 101.0292660
 124.9285500  62.3582220 100.2112030 125.2306910  62.3200420 101.6941500
 133.8243040  54.8251140 101.6688550 133.3622410  55.0334160 102.4808490
 133.4221150  54.0110490 101.3659220 138.8247550  56.0460090 102.7985210
 137.9741140  55.7465840 103.1194280 138.6649340  56.2902100 101.8869030
 135.9197260  57.5461840 104.8984000 136.2450670  56.7125590 104.5586230
 136.7077590  58.0690360 105.0462330 131.5749130  52.5029950  97.9242830
 131.8721460  53.4092780  97.8434850 132.1234690  52.0148730  97.3102400
 131.7686660  57.9801770 104.4594750 131.6730260  57.0396500 104.3095150
 132.6118640  58.2016840 104.0642820 126.8997200  54.3915440 102.6128530
 126.5060590  55.2390650 102.8201310 126.2115600  53.7541810 102.8037170
 133.4742250  54.4750410 105.6825270 132.7840570  54.2822610 106.3171360
 134.2174550  54.7585050 106.2149570 124.2014250  52.3143900  96.6458610
 123.9127300  52.8846760  97.3583590 124.9460010  51.8348350  97.0089840
 124.3884480  56.2564020  87.8561330 124.3059150  57.1994780  87.9976320
 124.0367540  56.1138930  86.9773680 135.7505220  58.3148850  98.5179190
 135.0186340  58.8235660  98.8669290 135.3529560  57.4978830  98.2167970
 132.1882610  54.9903050  96.9231680 132.1918670  54.5493000  96.0736220
 133.0833730  55.3120380  97.0303500 136.2131130  53.7682530  97.9302130
 136.2303870  54.2191180  98.7743980 135.9646710  52.8688170  98.1435570
 139.6401880  51.1814710 103.7688510 139.9647650  50.4504370 104.2946490
 139.6758390  50.8628350 102.8669500 126.3393440  62.2028290 103.1888470
 125.9548230  61.5621960 103.7871430 126.6505630  62.9064410 103.7583200
 132.4890580  59.0504830  98.6697090 132.8560710  58.5763400  99.4158430
 132.2995640  59.9246400  99.0105430 130.2789950  58.0913470 100.9881300
 129.9747020  58.9705450 101.2131660 131.2336410  58.1513260 101.0238740
 128.8071740  62.2974460  91.5848150 128.0334000  61.7572080  91.4246870
 129.5366370  61.7781070  91.2465910 139.5659720  61.2939820  97.3774540
 140.2858840  61.7895110  96.9870650 139.3641540  60.6157710  96.7328410
 135.0269660  52.6877780  91.5203930 134.2134270  52.1890950  91.4449240
 134.8331610  53.5276030  91.1040280 134.9478520  61.3648880 103.2643540
 134.8815830  60.4444550 103.0101130 134.3183660  61.4624320 103.9788180
 137.7418050  57.0597430  89.8166090 138.6297670  57.3714660  89.6417430
 137.7123140  56.1869680  89.4246670 128.8509140  61.9654840  95.2226960
 129.3687810  61.1623100  95.1683850 128.3993160  61.9033980  96.0643790
 126.3353680  58.9316210 102.1352660 125.9768620  59.5970060 102.7226000
 126.0408240  58.0999760 102.5065280 129.5366800  59.3900450 105.0192210
 129.2366940  59.5357630 104.1220030 130.3078040  58.8305740 104.9265600
 134.8795250  64.1869450 103.0147340 134.8939790  63.2550410 102.7966250
 134.1720350  64.2729210 103.6537110 141.0906460  60.8276790 102.3615920
 140.3654650  61.4205570 102.1645310 141.6181920  60.8200330 101.5629290
 141.0419570  65.2251530  92.0128080 140.3995730  64.5707150  92.2871800
 140.6550230  65.6306620  91.2368750 124.8461730  58.9307470  88.7587260
 125.7156580  59.2132270  89.0423180 124.3552050  59.7443340  88.6436070
 134.3129150  65.8287020 100.1087840 134.9571370  66.0346400 100.7861260
 134.6758590  65.0675420  99.6558690 135.5861230  63.8319370  98.8265290
 136.2283460  63.1312530  98.9397460 136.1110580  64.6117810  98.6462180
 137.3598850  64.6314270 102.0301350 137.6955090  65.2180960 102.7079270
 136.4399190  64.5006980 102.2599140 124.9102250  52.4209450 102.8124760
 124.1960770  52.6206370 103.4177370 125.3297290  51.6449020 103.1839560
 125.1974840  66.4089710 103.7991290 125.3065960  65.4684450 103.6586680
 124.5455400  66.6744460 103.1505020 133.1887430  64.6805600 105.1989410
 132.8684300  63.9614840 105.7435100 132.5145790  65.3560670 105.2725470
 126.8308240  60.7480940  90.8869320 126.2236190  61.4879840  90.8964620
 127.3057590  60.8380300  90.0607520 136.4041030  54.9131760 100.5626210
 136.7721850  54.0926970 100.8905780 135.5439230  54.9733650 100.9781860
 139.7703060  53.8688700  91.3713770 139.1416220  53.9734370  90.6572000
 139.2754980  54.0885480  92.1607650 133.3643020  57.5671350 100.7864180
 133.8628270  58.0417170 101.4516030 133.5065970  56.6434870 100.9934210
 135.7702520  52.8725310  94.2267440 135.6470300  52.8911440  93.2776950
 136.7187080  52.9204250  94.3465840 140.5709880  53.7839310 101.6292570
 140.0683480  54.5244710 101.9686380 141.3866540  54.1723310 101.3129360
 127.5360290  58.1417160  89.3190780 127.6163880  57.1944670  89.4308180
 128.4280040  58.4724040  89.4251440 140.8657470  66.1981340  96.7508190
 140.9904890  67.0212510  97.2232000 141.7323030  65.9872070  96.4032340
 125.2220480  64.3586120  92.2966830 124.2960260  64.6007260  92.2872240
 125.6876910  65.1860380  92.1751580 127.3433280  67.4758620 105.6110900
 128.1446010  67.7970670 106.0246300 126.8285100  67.1154200 106.3330810
 136.1797910  63.5838490 105.5586310 135.5736070  63.6070090 104.8182060
 135.8752020  62.8521530 106.0953560 137.6098280  67.3118780 104.1695720
 138.5620030  67.2276800 104.1195960 137.4626500  67.9760490 104.8429510
 132.1169030  61.3703070 104.0882470 131.3514700  61.9388070 104.0037140
 132.2984990  61.0779280 103.1950700 139.2592380  63.1008400 104.6457490
 140.0001850  63.4384160 104.1424950 138.4965060  63.2700460 104.0927260
 127.0954170  58.1061670 105.4497020 127.1359510  57.8075540 106.3582250
 127.9499670  58.5069280 105.2904540 129.0359980  56.6853770 103.4171510
 128.5056440  56.1944720 102.7894850 129.7048050  57.1137970 102.8829440
 137.9338040  61.1523230 103.1812700 138.3479060  61.3068310 104.0303120
 136.9989040  61.2778450 103.3438480 138.4060210  58.4919390 105.1851850
 138.9880980  57.7371710 105.0972330 138.5821980  59.0226830 104.4083330
 129.5232280  53.6516140 103.4968800 129.4289150  53.0336890 102.7719670
 128.9429670  54.3782430 103.2698710 132.2893720  52.2089380 100.5296190
 131.8411020  52.2313640  99.6841740 131.6558920  51.8108400 101.1266490
 132.6953270  61.1043710 101.1508630 133.1141380  61.9476440 100.9784870
 131.7761900  61.2415750 100.9215410 135.0317170  58.8359890 102.5346470
 135.1513380  58.2401030 103.2741310 135.8911170  58.8729580 102.1147770
 137.3705070  59.3897080 101.1108980 136.8440290  59.9139700 100.5074120
 137.7136410  60.0224470 101.7418710 129.7691460  56.7790450  87.5558690
 129.5680520  55.9157810  87.9172030 129.5983510  56.6923810  86.6180290
 130.5460690  67.4096720 102.2666360 130.0081780  68.1342780 101.9475060
 130.7994650  66.9327060 101.4763700 131.7985940  55.3781240 103.7922290
 132.3885630  55.0697090 104.4800110 130.9806180  54.9060990 103.9482190
 136.6179370  54.9947050 104.0255310 135.9294890  54.3328590 103.9605300
 137.3385390  54.5485320 104.4703770 137.2479770  51.5898680  90.0845570
 137.5282060  50.7466580  90.4404990 136.4745500  51.8221790  90.5984320
 133.4022900  68.6447930 102.5253010 133.3281600  69.5483070 102.8325380
 132.5001740  68.3259830 102.4975080 124.8050190  65.9722520  95.8286630
 125.1353200  65.1043580  95.5965270 125.2341190  66.1781040  96.6591590
 129.4012110  64.3031530  93.4888600 129.1007650  64.1796500  94.3892510
 129.2949600  63.4440120  93.0804330 125.2940400  66.8393110  98.5668260
 124.8571390  67.0193910  99.3992410 125.8618080  67.5967730  98.4249980
 140.9302580  66.3410110 102.8545570 140.3304570  66.4002670 102.1109490
 141.0596480  65.4015090 102.9842420 142.1704030  64.0827930  88.1915280
 141.3396990  64.1504580  88.6622510 142.3475860  64.9732050  87.8882140
 125.1264830  59.3513340  94.9257140 124.4713670  59.0824980  94.2816840
 125.9642780  59.2417820  94.4759120 142.6320460  61.6825510  95.5391410
 143.0029290  60.8992830  95.1327380 143.2722390  62.3714610  95.3608710
 139.6154220  63.0662090 100.9521730 138.8014060  63.4959250 101.2147520
 140.0228420  63.6780500 100.3390780 138.0755270  54.1454630  89.1475630
 138.4940150  53.9585610  88.3072290 137.7691330  53.2933680  89.4578560
 141.5745000  59.0578770  92.8451430 141.1988600  58.2906700  92.4132720
 140.8448120  59.4401470  93.3326360 126.1640760  59.7365910  99.4660480
 126.5313800  59.6493310 100.3456500 125.5951580  58.9732460  99.3667340
 140.9644620  58.2050290 102.4790950 140.7330710  57.9763040 101.5788900
 141.2249170  59.1249840 102.4335840 125.7156760  56.6475000 103.3718900
 124.8212810  56.6141760 103.7112610 126.2554310  56.8461790 104.1370150
 139.4032690  53.4306720 105.2570650 140.2802870  53.4390120 105.6404650
 139.4153530  52.6937560 104.6463000 124.3402910  56.5612270  90.8682470
 123.4366990  56.8242470  90.6934130 124.8243530  56.8323440  90.0882430
 140.8495960  57.2836260  96.1458670 141.3733440  56.7898910  95.5148840
 141.4355380  57.4186620  96.8906240 141.0285680  57.3676130  99.6678220
 140.0788390  57.3339670  99.7823210 141.2098690  58.2776240  99.4327990
 126.8830120  55.6177810  88.7776850 127.5921820  55.1961030  88.2924130
 126.1670060  55.6853040  88.1460200 140.3395930  56.5409610  92.0851080
 140.8355050  56.3080480  92.8699960 140.1412000  55.7021450  91.6688720
 141.7683090  55.1770560  94.6188760 141.6582370  55.0226600  95.5571030
 142.5290680  54.6491500  94.3764170 140.1148810  51.1164690 101.0771760
 140.7521030  51.7298830 101.4430950 140.2623700  51.1525350 100.1320990
 142.6573360  53.0078480  87.8594900 143.5822670  52.8759660  87.6513190
 142.6349150  53.0871300  88.8131350 142.7311850  53.7789140  90.4851610
 141.9363350  53.7134260  91.0144520 142.9355130  54.7139780  90.4736960
 125.9728470  51.0779000 100.4627440 125.6243290  51.5342820 101.2285620
 125.6416170  50.1836130 100.5449870 127.5792840  64.2498600 104.6280630
 127.5362470  63.8791510 105.5095090 127.7103850  65.1876170 104.7682450
 131.2798870  65.8058190 100.2290350 131.0390230  66.0732750  99.3420870
 132.2201510  65.9763920 100.2841210 133.4853290  52.2690880 103.9846860
 133.4242180  52.8612710 104.7342270 134.4253670  52.1616840 103.8397120
 136.1227850  51.9260940 103.6239150 136.7368260  52.2440230 102.9620230
 136.6677410  51.4409530 104.2435010 142.5403030  67.8252570 101.0300990
 142.0461310  68.2221440 100.3128120 141.9316320  67.2001780 101.4238270
 127.4180870  67.1960850 101.7478410 126.8241190  67.0645550 102.4868450
 127.4104710  66.3598990 101.2820510 136.8635890  50.4893080  99.9508440
 135.9895730  50.8228190  99.7481370 136.7546640  50.0166260 100.7760310
 137.7707870  52.6963950 101.3350160 137.4421230  51.8815710 100.9551890
 138.7190170  52.6533760 101.2115850 127.0493100  64.5619230 100.6986450
 126.3227160  63.9424520 100.6312400 127.1102250  64.9559840  99.8284530
 130.6538200  66.7764230  97.4835860 131.1703220  66.1651590  96.9584120
 131.3035580  67.2793010  97.9746870 133.3933700  67.6672720  98.3104840
 133.6811510  67.4127020  97.4337850 133.9056920  67.1150080  98.9010410
 134.6110710  51.4062920  98.8901350 133.8282500  51.8808420  99.1698110
 134.3173640  50.5017750  98.7814530 139.1631780  52.1086020  96.9350440
 139.6039870  52.0531120  96.0872040 138.8939370  53.0244030  97.0060620
 141.0270350  51.7401260  94.9459260 140.9658750  50.7962480  94.7990280
 141.8062380  51.8481350  95.4912720 132.4964930  53.8249670  94.4017380
 131.6839440  53.4506560  94.0613260 133.0006570  53.0694750  94.7038570
 136.9989910  50.4892120  95.6400450 137.6019280  51.0612330  96.1148970
 136.2582900  51.0531560  95.4174350 140.1424510  50.8913680  90.9140730
 140.3375140  51.7897130  91.1808160 139.3554380  50.6600760  91.4073680
 126.9385800  66.5726850  91.3533350 126.4133420  66.9534880  90.6495310
 126.8630380  67.1977620  92.0743060 133.4606060  68.5888820 105.6773040
 134.3873370  68.3533090 105.7209000 133.4456490  69.4160820 105.1959070
 141.6951120  68.1314390  92.6747290 141.8703310  67.4452130  92.0308210
 140.9972690  68.6561440  92.2823960 130.6469670  51.2533570 105.4414920
 130.3653940  51.7567170 104.6775740 131.0289370  50.4555320 105.0757050
 137.2485130  50.6687150 106.0195390 137.1350580  50.9881760 106.9146910
 138.0654870  51.0699660 105.7232670 140.0283620  67.8158680 105.5014080
 140.8208940  67.3207910 105.2940040 140.3216770  68.4948820 106.1089690
 136.1543280  58.6879620  76.3830130 136.0737330  57.7734230  76.1121840
 135.7407700  59.1846690  75.6769840 138.3068750  64.8718830  77.0438530
 137.8450280  64.1006070  77.3725700 139.1194300  64.8984900  77.5490980
 128.2828410  64.8118540  79.3373180 128.5856450  63.9216280  79.1583400
 129.0272000  65.3688760  79.1095430 126.7119100  55.7380340  72.9257550
 125.8235800  56.0796310  72.8237430 126.9960290  55.5380660  72.0338380
 124.6752110  58.3385990  78.8097250 125.2468220  57.5708190  78.8100890
 124.6753650  58.6374750  77.9003860 125.9176980  53.7470350  80.5966180
 125.7379820  52.8496100  80.8768940 125.5157060  54.2942220  81.2713130
 134.7575480  55.9486210  78.4978490 135.1340300  55.0758090  78.3852160
 134.6594990  56.2844910  77.6068930 138.5399600  53.4436650  75.4306830
 139.3609220  52.9533220  75.4732310 138.5733680  54.0334310  76.1838670
 126.5363650  56.2430850  79.2048520 127.2173760  56.5069220  79.8235920
 126.2211700  55.4031720  79.5386530 130.7288220  57.2898210  78.2921110
 131.2366440  57.7879180  78.9326130 131.2601460  56.5133410  78.1160470
 142.8299150  55.4603400  81.9950460 142.1251320  55.8485110  81.4765570
 143.0957070  56.1553690  82.5971390 129.0124320  51.9296770  82.5584530
 129.0142760  52.4469160  81.7530430 128.1828630  51.4526950  82.5354460
 138.7761080  55.3837030  78.2034370 138.0716650  55.6721920  78.7837480
 139.1373240  56.1937140  77.8433930 128.6939650  53.6406730  80.5654980
 129.0356460  54.4848780  80.2708850 127.7555460  53.7890470  80.6820320
 140.3923860  65.0012160  80.4661850 139.7087380  65.6711270  80.4578520
 140.9318150  65.1992810  79.7006710 141.8448000  54.8291820  78.5943580
 140.8972910  54.8630800  78.7259010 142.1697990  55.6430770  78.9792940
 137.9282600  66.8456290  79.1807030 137.9409760  66.4418580  78.3129290
 137.3757820  67.6203580  79.0768460 139.2228020  63.5672510  74.2697200
 139.1124350  62.6246840  74.3946620 139.2196270  63.9288150  75.1559960
 137.3268040  61.7486130  80.5089640 137.7436830  61.5346240  79.6743100
 138.0507860  62.0058920  81.0798260 134.7648300  59.1937830  73.6259690
 133.8377580  59.1275210  73.8548160 134.9173120  60.1317960  73.5114930
 141.2730140  60.1473350  80.6005880 140.4448770  60.2166440  80.1256010
 141.8680620  60.7327660  80.1321710 138.7945590  60.7558130  74.1294940
 138.1758010  60.4177680  73.4821240 138.7770040  60.1117890  74.8374130
 138.2372150  56.9342670  81.5460750 137.8243330  57.7596380  81.8000740
 137.5048100  56.3487710  81.3537110 129.0833560  56.4945780  80.1878460
 129.6348150  56.6041120  79.4131710 129.5977070  56.8683380  80.9033690
 138.9272250  66.9802000  82.2341730 138.4502810  67.7874190  82.0414340
 138.2434040  66.3280330  82.3867940 136.9710290  59.9944940  71.1367690
 137.4103570  59.1567370  70.9905510 137.6838710  60.6274340  71.2231830
 140.5527430  51.2487750  69.4508730 140.2400090  51.3414580  70.3507800
 141.3139900  51.8268780  69.4006160 127.0709570  58.6147550  73.9086070
 126.9507170  59.3409640  73.2967340 126.7610460  57.8450460  73.4313980
 124.7094940  61.7862690  79.7154710 124.7875360  61.9211460  78.7710430
 125.3236620  61.0778580  79.9082830 141.9104710  63.9326790  84.4633130
 142.0367770  63.6938670  83.5450310 141.9526090  63.1011330  84.9355210
 137.7475850  67.9210130  72.4611940 137.5876990  67.6313070  73.3593770
 137.5822560  67.1450260  71.9257170 137.4501980  65.4297690  71.0209940
 136.7567140  65.4274980  70.3612220 138.1924840  65.0057010  70.5904110
 137.0151910  67.0560400  75.0958430 137.4708860  66.2749780  75.4097050
 137.3544430  67.7667220  75.6399610 141.7628720  55.9859250  85.4282870
 141.1472990  56.4938920  84.8998330 141.4425140  55.0857580  85.3708810
 124.7654460  62.8276860  82.2549170 124.9285500  62.3582220  81.4368540
 125.2306910  62.3200420  82.9198010 133.8243040  54.8251140  82.8945060
 133.3622410  55.0334160  83.7065000 133.4221150  54.0110490  82.5915730
 138.8247550  56.0460090  84.0241720 137.9741140  55.7465840  84.3450790
 138.6649340  56.2902100  83.1125540 135.9197260  57.5461840  86.1240510
 136.2450670  56.7125590  85.7842740 136.7077590  58.0690360  86.2718840
 131.5749130  52.5029950  79.1499340 131.8721460  53.4092780  79.0691360
 132.1234690  52.0148730  78.5358910 129.3287450  57.0816190  75.0190990
 129.1028370  56.8653360  75.9237610 128.5479980  57.5144650  74.6736960
 136.5585210  57.0879560  73.6181640 135.9594100  57.8115360  73.4345260
 137.1064820  57.0256340  72.8358090 131.7686660  57.9801770  85.6851260
 131.6730260  57.0396500  85.5351660 132.6118640  58.2016840  85.2899330
 135.1650080  55.7243100  75.6484920 135.5579650  56.0415300  74.8353610
 135.5266930  54.8454980  75.7629440 126.8997200  54.3915440  83.8385040
 126.5060590  55.2390650  84.0457820 126.2115600  53.7541810  84.0293680
 133.4742250  54.4750410  86.9081780 132.7840570  54.2822610  87.5427870
 134.2174550  54.7585050  87.4406080 135.7505220  58.3148850  79.7435700
 135.0186340  58.8235660  80.0925800 135.3529560  57.4978830  79.4424480
 132.1882610  54.9903050  78.1488190 132.1918670  54.5493000  77.2992730
 133.0833730  55.3120380  78.2560010 128.0384990  54.8729540  77.1082400
 127.6985040  55.3504770  77.8649450 127.2762310  54.4194660  76.7483500
 136.2131130  53.7682530  79.1558640 136.2303870  54.2191180  80.0000490
 135.9646710  52.8688170  79.3692080 139.6401880  51.1814710  84.9945020
 139.9647650  50.4504370  85.5203000 139.6758390  50.8628350  84.0926010
 132.4890580  59.0504830  79.8953600 132.8560710  58.5763400  80.6414940
 132.2995640  59.9246400  80.2361940 130.2789950  58.0913470  82.2137810
 129.9747020  58.9705450  82.4388170 131.2336410  58.1513260  82.2495250
 139.5659720  61.2939820  78.6031050 140.2858840  61.7895110  78.2127160
 139.3641540  60.6157710  77.9584920 134.9478520  61.3648880  84.4900050
 134.8815830  60.4444550  84.2357640 134.3183660  61.4624320  85.2044690
 137.7418050  57.0597430  71.0422600 138.6297670  57.3714660  70.8673940
 137.7123140  56.1869680  70.6503180 126.3353680  58.9316210  83.3609170
 125.9768620  59.5970060  83.9482510 126.0408240  58.0999760  83.7321790
 140.0132320  58.3709270  70.5102460 139.9296040  58.8023490  69.6598900
 140.7326510  58.8307620  70.9429280 141.0906460  60.8276790  83.5872430
 140.3654650  61.4205570  83.3901820 141.6181920  60.8200330  82.7885800
 141.0419570  65.2251530  73.2384590 140.3995730  64.5707150  73.5128310
 140.6550230  65.6306620  72.4625260 136.6206050  62.5536960  77.0856280
 136.9729870  61.9565090  76.4257650 135.7368380  62.2281190  77.2564530
 134.3129150  65.8287020  81.3344350 134.9571370  66.0346400  82.0117770
 134.6758590  65.0675420  80.8815200 135.5861230  63.8319370  80.0521800
 136.2283460  63.1312530  80.1653970 136.1110580  64.6117810  79.8718690
 139.4316950  64.1167990  69.7760940 139.2054530  63.3998430  70.3685580
 139.0413150  63.8680430  68.9382690 137.3598850  64.6314270  83.2557860
 137.6955090  65.2180960  83.9335780 136.4399190  64.5006980  83.4855650
 124.9102250  52.4209450  84.0381270 124.1960770  52.6206370  84.6433880
 125.3297290  51.6449020  84.4096070 139.0133200  62.0339930  71.4375100
 138.7254900  62.4952620  72.2252980 139.8085370  61.5737700  71.7059320
 125.1974840  66.4089710  85.0247800 125.3065960  65.4684450  84.8843190
 124.5455400  66.6744460  84.3761530 136.4041030  54.9131760  81.7882720
 136.7721850  54.0926970  82.1162290 135.5439230  54.9733650  82.2038370
 139.7703060  53.8688700  72.5970280 139.1416220  53.9734370  71.8828510
 139.2754980  54.0885480  73.3864160 131.7387090  56.1474650  74.0128160
 131.0303240  56.6160990  74.4541770 132.0231570  55.4896660  74.6473350
 133.3643020  57.5671350  82.0120690 133.8628270  58.0417170  82.6772540
 133.5065970  56.6434870  82.2190720 135.7702520  52.8725310  75.4523950
 135.6470300  52.8911440  74.5033460 136.7187080  52.9204250  75.5722350
 140.5709880  53.7839310  82.8549080 140.0683480  54.5244710  83.1942890
 141.3866540  54.1723310  82.5385870 138.8631890  59.0272490  76.3010440
 137.9222030  59.0422720  76.4758130 139.1775960  58.2408450  76.7470740
 140.8657470  66.1981340  77.9764700 140.9904890  67.0212510  78.4488510
 141.7323030  65.9872070  77.6288850 128.3375000  68.2912550  77.6481830
 129.0737480  67.7428010  77.9190400 128.7215920  69.1568560  77.5087820
 125.2220480  64.3586120  73.5223340 124.2960260  64.6007260  73.5128750
 125.6876910  65.1860380  73.4008090 127.3433280  67.4758620  86.8367410
 128.1446010  67.7970670  87.2502810 126.8285100  67.1154200  87.5587320
 140.5007480  66.6912990  70.8944140 140.2148990  66.2778130  70.0798320
 140.3027030  67.6200700  70.7744660 125.0631090  59.9632080  85.7803460
 125.5670110  59.3839360  86.3519690 124.3238510  60.2472310  86.3179830
 129.0359980  56.6853770  84.6428020 128.5056440  56.1944720  84.0151360
 129.7048050  57.1137970  84.1085950 137.9338040  61.1523230  84.4069210
 138.3479060  61.3068310  85.2559630 136.9989040  61.2778450  84.5694990
 129.5232280  53.6516140  84.7225310 129.4289150  53.0336890  83.9976180
 128.9429670  54.3782430  84.4955220 132.2893720  52.2089380  81.7552700
 131.8411020  52.2313640  80.9098250 131.6558920  51.8108400  82.3523000
 135.0317170  58.8359890  83.7602980 135.1513380  58.2401030  84.4997820
 135.8911170  58.8729580  83.3404280 137.3705070  59.3897080  82.3365490
 136.8440290  59.9139700  81.7330630 137.7136410  60.0224470  82.9675220
 129.7691460  56.7790450  68.7815200 129.5680520  55.9157810  69.1428540
 129.5983510  56.6923810  67.8436800 131.7985940  55.3781240  85.0178800
 132.3885630  55.0697090  85.7056620 130.9806180  54.9060990  85.1738700
 136.6179370  54.9947050  85.2511820 135.9294890  54.3328590  85.1861810
 137.3385390  54.5485320  85.6960280 128.5674260  53.8791070  68.7693080
 128.8700160  53.8858500  67.8612230 129.3068850  53.5288930  69.2660740
 142.1704030  64.0827930  69.4171790 141.3396990  64.1504580  69.8879020
 142.3475860  64.9732050  69.1138650 141.6260490  60.8275410  71.9205990
 142.3879400  61.3972060  72.0265680 141.6414860  60.2602610  72.6914300
 125.1264830  59.3513340  76.1513650 124.4713670  59.0824980  75.5073350
 125.9642780  59.2417820  75.7015630 142.6320460  61.6825510  76.7647920
 143.0029290  60.8992830  76.3583890 143.2722390  62.3714610  76.5865220
 139.6154220  63.0662090  82.1778240 138.8014060  63.4959250  82.4404030
 140.0228420  63.6780500  81.5647290 141.6779660  61.1209780  69.0778510
 141.9528500  62.0288660  68.9497730 141.4890400  61.0572310  70.0140500
 141.5745000  59.0578770  74.0707940 141.1988600  58.2906700  73.6389230
 140.8448120  59.4401470  74.5582870 126.1640760  59.7365910  80.6916990
 126.5313800  59.6493310  81.5713010 125.5951580  58.9732460  80.5923850
 140.9644620  58.2050290  83.7047460 140.7330710  57.9763040  82.8045410
 141.2249170  59.1249840  83.6592350 125.7156760  56.6475000  84.5975410
 124.8212810  56.6141760  84.9369120 126.2554310  56.8461790  85.3626660
 139.4032690  53.4306720  86.4827160 140.2802870  53.4390120  86.8661160
 139.4153530  52.6937560  85.8719510 140.8495960  57.2836260  77.3715180
 141.3733440  56.7898910  76.7405350 141.4355380  57.4186620  78.1162750
 141.0285680  57.3676130  80.8934730 140.0788390  57.3339670  81.0079720
 141.2098690  58.2776240  80.6584500 126.8830120  55.6177810  70.0033360
 127.5921820  55.1961030  69.5180640 126.1670060  55.6853040  69.3716710
 140.3395930  56.5409610  73.3107590 140.8355050  56.3080480  74.0956470
 140.1412000  55.7021450  72.8945230 126.2196470  50.9223330  78.9458630
 126.8672660  50.3720710  78.5053790 126.6398310  51.1766480  79.7674440
 141.7683090  55.1770560  75.8445270 141.6582370  55.0226600  76.7827540
 142.5290680  54.6491500  75.6020680 140.1148810  51.1164690  82.3028270
 140.7521030  51.7298830  82.6687460 140.2623700  51.1525350  81.3577500
 142.6573360  53.0078480  69.0851410 143.5822670  52.8759660  68.8769700
 142.6349150  53.0871300  70.0387860 142.7311850  53.7789140  71.7108120
 141.9363350  53.7134260  72.2401030 142.9355130  54.7139780  71.6993470
 139.6730270  67.8180690  75.7046510 140.2689340  67.4965260  75.0280930
 139.9308420  67.3452510  76.4959780 125.9728470  51.0779000  81.6883950
 125.6243290  51.5342820  82.4542130 125.6416170  50.1836130  81.7706380
 131.2798870  65.8058190  81.4546860 131.0390230  66.0732750  80.5677380
 132.2201510  65.9763920  81.5097720 133.4853290  52.2690880  85.2103370
 133.4242180  52.8612710  85.9598780 134.4253670  52.1616840  85.0653630
 136.1227850  51.9260940  84.8495660 136.7368260  52.2440230  84.1876740
 136.6677410  51.4409530  85.4691520 142.5403030  67.8252570  82.2557500
 142.0461310  68.2221440  81.5384630 141.9316320  67.2001780  82.6494780
 126.6449110  50.6055200  84.9634720 127.1932100  50.4243250  84.2000830
 126.7104420  49.8149310  85.4991030 127.4180870  67.1960850  82.9734920
 126.8241190  67.0645550  83.7124960 127.4104710  66.3598990  82.5077020
 136.8635890  50.4893080  81.1764950 135.9895730  50.8228190  80.9737880
 136.7546640  50.0166260  82.0016820 137.7707870  52.6963950  82.5606670
 137.4421230  51.8815710  82.1808400 138.7190170  52.6533760  82.4372360
 140.2242480  68.4675990  79.5344240 139.7645450  69.2191800  79.1602260
 139.5954940  67.7482460  79.4759040 127.0493100  64.5619230  81.9242960
 126.3227160  63.9424520  81.8568910 127.1102250  64.9559840  81.0541040
 134.6110710  51.4062920  80.1157860 133.8282500  51.8808420  80.3954620
 134.3173640  50.5017750  80.0071040 139.1631780  52.1086020  78.1606950
 139.6039870  52.0531120  77.3128550 138.8939370  53.0244030  78.2317130
 141.0270350  51.7401260  76.1715770 140.9658750  50.7962480  76.0246790
 141.8062380  51.8481350  76.7169230 136.9989910  50.4892120  76.8656960
 137.6019280  51.0612330  77.3405480 136.2582900  51.0531560  76.6430860
 140.1424510  50.8913680  72.1397240 140.3375140  51.7897130  72.4064670
 139.3554380  50.6600760  72.6330190 126.9385800  66.5726850  72.5789860
 126.4133420  66.9534880  71.8751820 126.8630380  67.1977620  73.2999570
 141.6951120  68.1314390  73.9003800 141.8703310  67.4452130  73.2564720
 140.9972690  68.6561440  73.5080470 137.2485130  50.6687150  87.2451900
 137.1350580  50.9881760  88.1403420 138.0654870  51.0699660  86.9489180
 138.3068750  64.8718830  58.2695040 137.8450280  64.1006070  58.5982210
 139.1194300  64.8984900  58.7747490 128.2828410  64.8118540  60.5629690
 128.5856450  63.9216280  60.3839910 129.0272000  65.3688760  60.3351940
 124.6752110  58.3385990  60.0353760 125.2468220  57.5708190  60.0357400
 124.6753650  58.6374750  59.1260370 134.5332060  67.1576840  57.8899030
 133.9143500  67.6134340  57.3193470 135.3883840  67.3128300  57.4888730
 125.9176980  53.7470350  61.8222690 125.7379820  52.8496100  62.1025450
 125.5157060  54.2942220  62.4969640 138.5399600  53.4436650  56.6563340
 139.3609220  52.9533220  56.6988820 138.5733680  54.0334310  57.4095180
 142.8299150  55.4603400  63.2206970 142.1251320  55.8485110  62.7022080
 143.0957070  56.1553690  63.8227900 135.3995410  62.0416080  55.2830940
 134.7812680  62.5065530  54.7193660 135.9118660  62.7343560  55.7000450
 130.2627170  61.5691950  61.9614540 129.9296550  62.1960870  62.6035610
 130.4393850  62.0953830  61.1816210 138.7761080  55.3837030  59.4290880
 138.0716650  55.6721920  60.0093990 139.1373240  56.1937140  59.0690440
 129.4746270  63.5372750  63.7763720 130.0920270  64.2123830  63.4948170
 128.6139390  63.9460730  63.6851220 140.3923860  65.0012160  61.6918360
 139.7087380  65.6711270  61.6835030 140.9318150  65.1992810  60.9263220
 141.8448000  54.8291820  59.8200090 140.8972910  54.8630800  59.9515520
 142.1697990  55.6430770  60.2049450 137.9282600  66.8456290  60.4063540
 137.9409760  66.4418580  59.5385800 137.3757820  67.6203580  60.3024970
 139.2228020  63.5672510  55.4953710 139.1124350  62.6246840  55.6203130
 139.2196270  63.9288150  56.3816470 134.7648300  59.1937830  54.8516200
 133.8377580  59.1275210  55.0804670 134.9173120  60.1317960  54.7371440
 134.7517380  55.4654830  51.8483360 133.8121050  55.6268790  51.9335820
 135.0700640  56.1840510  51.3019350 141.2730140  60.1473350  61.8262390
 140.4448770  60.2166440  61.3512520 141.8680620  60.7327660  61.3578220
 138.7945590  60.7558130  55.3551450 138.1758010  60.4177680  54.7077750
 138.7770040  60.1117890  56.0630640 138.2372150  56.9342670  62.7717260
 137.8243330  57.7596380  63.0257250 137.5048100  56.3487710  62.5793620
 130.8386640  63.4070130  59.7975140 130.5414930  62.8015600  59.1182920
 131.7886460  63.4447440  59.6864500 138.9272250  66.9802000  63.4598240
 138.4502810  67.7874190  63.2670850 138.2434040  66.3280330  63.6124450
 136.9710290  59.9944940  52.3624200 137.4103570  59.1567370  52.2162020
 137.6838710  60.6274340  52.4488340 128.7576290  60.0165140  65.0240310
 128.6184060  60.8887940  65.3927710 127.8757650  59.6737950  64.8788250
 135.0805670  64.9341010  56.3305440 135.5201580  65.6765340  55.9160830
 135.0192560  65.1767580  57.2544400 140.5527430  51.2487750  50.6765240
 140.2400090  51.3414580  51.5764310 141.3139900  51.8268780  50.6262670
 127.0709570  58.6147550  55.1342580 126.9507170  59.3409640  54.5223850
 126.7610460  57.8450460  54.6570490 142.5071460  66.7413940  68.5289630
 142.9831180  67.2196830  69.2078710 143.1278620  66.6731430  67.8035130
 124.7094940  61.7862690  60.9411220 124.7875360  61.9211460  59.9966940
 125.3236620  61.0778580  61.1339340 125.9542570  63.4862880  57.3517400
 125.5470650  63.6277470  56.4971000 126.8455580  63.2023040  57.1488610
 141.9104710  63.9326790  65.6889640 142.0367770  63.6938670  64.7706820
 141.9526090  63.1011330  66.1611720 137.7475850  67.9210130  53.6868450
 137.5876990  67.6313070  54.5850280 137.5822560  67.1450260  53.1513680
 137.4501980  65.4297690  52.2466450 136.7567140  65.4274980  51.5868730
 138.1924840  65.0057010  51.8160620 137.0151910  67.0560400  56.3214940
 137.4708860  66.2749780  56.6353560 137.3544430  67.7667220  56.8656120
 141.7628720  55.9859250  66.6539380 141.1472990  56.4938920  66.1254840
 141.4425140  55.0857580  66.5965320 124.7654460  62.8276860  63.4805680
 124.9285500  62.3582220  62.6625050 125.2306910  62.3200420  64.1454520
 133.8243040  54.8251140  64.1201570 133.3622410  55.0334160  64.9321510
 133.4221150  54.0110490  63.8172240 138.8247550  56.0460090  65.2498230
 137.9741140  55.7465840  65.5707300 138.6649340  56.2902100  64.3382050
 135.9197260  57.5461840  67.3497020 136.2450670  56.7125590  67.0099250
 136.7077590  58.0690360  67.4975350 136.5585210  57.0879560  54.8438150
 135.9594100  57.8115360  54.6601770 137.1064820  57.0256340  54.0614600
 126.8997200  54.3915440  65.0641550 126.5060590  55.2390650  65.2714330
 126.2115600  53.7541810  65.2550190 124.2014250  52.3143900  59.0971630
 123.9127300  52.8846760  59.8096610 124.9460010  51.8348350  59.4602860
 131.2624260  58.3016270  51.7634760 130.6941160  57.8534520  51.1370670
 131.9713260  58.6609050  51.2299910 139.6401880  51.1814710  66.2201530
 139.9647650  50.4504370  66.7459510 139.6758390  50.8628350  65.3182520
 128.8071740  62.2974460  54.0361170 128.0334000  61.7572080  53.8759890
 129.5366370  61.7781070  53.6978930 139.5659720  61.2939820  59.8287560
 140.2858840  61.7895110  59.4383670 139.3641540  60.6157710  59.1841430
 137.7418050  57.0597430  52.2679110 138.6297670  57.3714660  52.0930450
 137.7123140  56.1869680  51.8759690 128.8509140  61.9654840  57.6739980
 129.3687810  61.1623100  57.6196870 128.3993160  61.9033980  58.5156810
 133.7378640  63.2321120  52.9467280 134.0794340  63.9763350  52.4510600
 132.9091350  63.5452240  53.3092110 126.3353680  58.9316210  64.5865680
 125.9768620  59.5970060  65.1739020 126.0408240  58.0999760  64.9578300
 140.0132320  58.3709270  51.7358970 139.9296040  58.8023490  50.8855410
 140.7326510  58.8307620  52.1685790 141.0906460  60.8276790  64.8128940
 140.3654650  61.4205570  64.6158330 141.6181920  60.8200330  64.0142310
 141.0419570  65.2251530  54.4641100 140.3995730  64.5707150  54.7384820
 140.6550230  65.6306620  53.6881770 136.6206050  62.5536960  58.3112790
 136.9729870  61.9565090  57.6514160 135.7368380  62.2281190  58.4821040
 132.7069330  63.3134650  55.7183200 133.3940460  63.8603860  56.0990790
 131.9201750  63.8575380  55.7532810 132.0096540  60.3180680  55.3308560
 132.4659320  61.1285930  55.5568750 131.6584750  60.0003820  56.1627050
 139.4316950  64.1167990  51.0017450 139.2054530  63.3998430  51.5942090
 139.0413150  63.8680430  50.1639200 139.0133200  62.0339930  52.6631610
 138.7254900  62.4952620  53.4509490 139.8085370  61.5737700  52.9315830
 125.1974840  66.4089710  66.2504310 125.3065960  65.4684450  66.1099700
 124.5455400  66.6744460  65.6018040 126.8308240  60.7480940  53.3382340
 126.2236190  61.4879840  53.3477640 127.3057590  60.8380300  52.5120540
 136.4041030  54.9131760  63.0139230 136.7721850  54.0926970  63.3418800
 135.5439230  54.9733650  63.4294880 139.7703060  53.8688700  53.8226790
 139.1416220  53.9734370  53.1085020 139.2754980  54.0885480  54.6120670
 134.2161200  65.5894290  51.2560770 134.3173180  65.3858280  50.3262750
 133.3162940  65.3352570  51.4608550 133.3643020  57.5671350  63.2377200
 133.8628270  58.0417170  63.9029050 133.5065970  56.6434870  63.4447230
 140.5709880  53.7839310  64.0805590 140.0683480  54.5244710  64.4199400
 141.3866540  54.1723310  63.7642380 138.8631890  59.0272490  57.5266950
 137.9222030  59.0422720  57.7014640 139.1775960  58.2408450  57.9727250
 128.8413530  60.7092090  51.0870910 129.6076800  60.5973450  51.6496340
 128.9188220  60.0130060  50.4347680 127.5360290  58.1417160  51.7703800
 127.6163880  57.1944670  51.8821200 128.4280040  58.4724040  51.8764460
 140.8657470  66.1981340  59.2021210 140.9904890  67.0212510  59.6745020
 141.7323030  65.9872070  58.8545360 127.3433280  67.4758620  68.0623920
 128.1446010  67.7970670  68.4759320 126.8285100  67.1154200  68.7843830
 140.5007480  66.6912990  52.1200650 140.2148990  66.2778130  51.3054830
 140.3027030  67.6200700  52.0001170 131.9654710  62.6846270  50.5606260
 131.8605350  62.0698620  51.2867640 131.7978930  62.1612160  49.7769270
 135.2057440  61.7466300  51.1648250 134.6567540  62.1935600  51.8090990
 135.8276700  61.2415550  51.6885920 139.2592380  63.1008400  67.0970510
 140.0001850  63.4384160  66.5937970 138.4965060  63.2700460  66.5440280
 127.0954170  58.1061670  67.9010040 127.1359510  57.8075540  68.8095270
 127.9499670  58.5069280  67.7417560 130.8732560  60.7057220  53.0613550
 131.2948980  60.5397090  53.9044940 130.9983400  59.8957450  52.5668690
 129.0359980  56.6853770  65.8684530 128.5056440  56.1944720  65.2407870
 129.7048050  57.1137970  65.3342460 133.3860200  59.7294830  50.3090650
 133.9065860  59.0143850  49.9431800 134.0328600  60.3680700  50.6091160
 137.9338040  61.1523230  65.6325720 138.3479060  61.3068310  66.4816140
 136.9989040  61.2778450  65.7951500 138.4060210  58.4919390  67.6364870
 138.9880980  57.7371710  67.5485350 138.5821980  59.0226830  66.8596350
 129.5232280  53.6516140  65.9481820 129.4289150  53.0336890  65.2232690
 128.9429670  54.3782430  65.7211730 135.0317170  58.8359890  64.9859490
 135.1513380  58.2401030  65.7254330 135.8911170  58.8729580  64.5660790
 137.3705070  59.3897080  63.5622000 136.8440290  59.9139700  62.9587140
 137.7136410  60.0224470  64.1931730 129.7691460  56.7790450  50.0071710
 129.5680520  55.9157810  50.3685050 129.5983510  56.6923810  49.0693310
 130.5460690  67.4096720  64.7179380 130.0081780  68.1342780  64.3988080
 130.7994650  66.9327060  63.9276720 131.7985940  55.3781240  66.2435310
 132.3885630  55.0697090  66.9313130 130.9806180  54.9060990  66.3995210
 136.6179370  54.9947050  66.4768330 135.9294890  54.3328590  66.4118320
 137.3385390  54.5485320  66.9216790 137.2479770  51.5898680  52.5358590
 137.5282060  50.7466580  52.8918010 136.4745500  51.8221790  53.0497340
 128.5674260  53.8791070  49.9949590 128.8700160  53.8858500  49.0868740
 129.3068850  53.5288930  50.4917250 127.5904390  63.1833490  50.8279390
 128.0279260  63.7263160  51.4836970 128.0752120  62.3580440  50.8375730
 124.8050190  65.9722520  58.2799650 125.1353200  65.1043580  58.0478290
 125.2341190  66.1781040  59.1104610 125.2940400  66.8393110  61.0181280
 124.8571390  67.0193910  61.8505430 125.8618080  67.5967730  60.8763000
 140.9302580  66.3410110  65.3058590 140.3304570  66.4002670  64.5622510
 141.0596480  65.4015090  65.4355440 142.1704030  64.0827930  50.6428300
 141.3396990  64.1504580  51.1135530 142.3475860  64.9732050  50.3395160
 141.6260490  60.8275410  53.1462500 142.3879400  61.3972060  53.2522190
 141.6414860  60.2602610  53.9170810 125.1264830  59.3513340  57.3770160
 124.4713670  59.0824980  56.7329860 125.9642780  59.2417820  56.9272140
 142.6320460  61.6825510  57.9904430 143.0029290  60.8992830  57.5840400
 143.2722390  62.3714610  57.8121730 139.6154220  63.0662090  63.4034750
 138.8014060  63.4959250  63.6660540 140.0228420  63.6780500  62.7903800
 141.6779660  61.1209780  50.3035020 141.9528500  62.0288660  50.1754240
 141.4890400  61.0572310  51.2397010 138.0755270  54.1454630  51.5988650
 138.4940150  53.9585610  50.7585310 137.7691330  53.2933680  51.9091580
 141.5745000  59.0578770  55.2964450 141.1988600  58.2906700  54.8645740
 140.8448120  59.4401470  55.7839380 126.1640760  59.7365910  61.9173500
 126.5313800  59.6493310  62.7969520 125.5951580  58.9732460  61.8180360
 140.9644620  58.2050290  64.9303970 140.7330710  57.9763040  64.0301920
 141.2249170  59.1249840  64.8848860 125.7156760  56.6475000  65.8231920
 124.8212810  56.6141760  66.1625630 126.2554310  56.8461790  66.5883170
 139.4032690  53.4306720  67.7083670 140.2802870  53.4390120  68.0917670
 139.4153530  52.6937560  67.0976020 140.8495960  57.2836260  58.5971690
 141.3733440  56.7898910  57.9661860 141.4355380  57.4186620  59.3419260
 141.0285680  57.3676130  62.1191240 140.0788390  57.3339670  62.2336230
 141.2098690  58.2776240  61.8841010 126.5304280  51.6717140  50.2692520
 127.2532410  52.2126080  50.5873740 126.8028800  51.3980560  49.3934060
 140.3395930  56.5409610  54.5364100 140.8355050  56.3080480  55.3212980
 140.1412000  55.7021450  54.1201740 141.7683090  55.1770560  57.0701780
 141.6582370  55.0226600  58.0084050 142.5290680  54.6491500  56.8277190
 140.1148810  51.1164690  63.5284780 140.7521030  51.7298830  63.8943970
 140.2623700  51.1525350  62.5834010 142.6573360  53.0078480  50.3107920
 143.5822670  52.8759660  50.1026210 142.6349150  53.0871300  51.2644370
 142.7311850  53.7789140  52.9364630 141.9363350  53.7134260  53.4657540
 142.9355130  54.7139780  52.9249980 139.6730270  67.8180690  56.9303020
 140.2689340  67.4965260  56.2537440 139.9308420  67.3452510  57.7216290
 131.2798870  65.8058190  62.6803370 131.0390230  66.0732750  61.7933890
 132.2201510  65.9763920  62.7354230 133.4853290  52.2690880  66.4359880
 133.4242180  52.8612710  67.1855290 134.4253670  52.1616840  66.2910140
 142.5403030  67.8252570  63.4814010 142.0461310  68.2221440  62.7641140
 141.9316320  67.2001780  63.8751290 127.4180870  67.1960850  64.1991430
 126.8241190  67.0645550  64.9381470 127.4104710  66.3598990  63.7333530
 136.8635890  50.4893080  62.4021460 135.9895730  50.8228190  62.1994390
 136.7546640  50.0166260  63.2273330 137.7707870  52.6963950  63.7863180
 137.4421230  51.8815710  63.4064910 138.7190170  52.6533760  63.6628870
 140.2242480  68.4675990  60.7600750 139.7645450  69.2191800  60.3858770
 139.5954940  67.7482460  60.7015550 127.0493100  64.5619230  63.1499470
 126.3227160  63.9424520  63.0825420 127.1102250  64.9559840  62.2797550
 130.6538200  66.7764230  59.9348880 131.1703220  66.1651590  59.4097140
 131.3035580  67.2793010  60.4259890 133.3933700  67.6672720  60.7617860
 133.6811510  67.4127020  59.8850870 133.9056920  67.1150080  61.3523430
 139.1631780  52.1086020  59.3863460 139.6039870  52.0531120  58.5385060
 138.8939370  53.0244030  59.4573640 141.0270350  51.7401260  57.3972280
 140.9658750  50.7962480  57.2503300 141.8062380  51.8481350  57.9425740
 125.9551120  51.7110400  53.8628090 126.7130480  51.8239280  53.2892120
 125.4928290  52.5479600  53.8171520 136.9989910  50.4892120  58.0913470
 137.6019280  51.0612330  58.5661990 136.2582900  51.0531560  57.8687370
 140.1424510  50.8913680  53.3653750 140.3375140  51.7897130  53.6321180
 139.3554380  50.6600760  53.8586700 141.6951120  68.1314390  55.1260310
 141.8703310  67.4452130  54.4821230 140.9972690  68.6561440  54.7336980
 130.6469670  51.2533570  67.8927940 130.3653940  51.7567170  67.1288760
 131.0289370  50.4555320  67.5270070 140.0283620  67.8158680  67.9527100
 140.8208940  67.3207910  67.7453060 140.3216770  68.4948820  68.5602710
 136.1543280  58.6879620  38.8343150 136.0737330  57.7734230  38.5634860
 135.7407700  59.1846690  38.1282860 134.2861320  60.4658640  40.7152420
 133.5103420  59.9859080  41.0050990 134.9374250  59.7864290  40.5408580
 128.3027150  60.7778450  41.5928180 127.4712030  60.5227160  41.9924690
 128.9108130  60.8489220  42.3286100 138.3068750  64.8718830  39.4951550
 137.8450280  64.1006070  39.8238720 139.1194300  64.8984900  40.0004000
 128.2828410  64.8118540  41.7886200 128.5856450  63.9216280  41.6096420
 129.0272000  65.3688760  41.5608450 126.7119100  55.7380340  35.3770570
 125.8235800  56.0796310  35.2750450 126.9960290  55.5380660  34.4851400
 134.5332060  67.1576840  39.1155540 133.9143500  67.6134340  38.5449980
 135.3883840  67.3128300  38.7145240 133.7270310  63.1415830  40.7222580
 133.6578590  62.2005770  40.5611710 134.4890170  63.2317240  41.2945150
 125.9176980  53.7470350  43.0479200 125.7379820  52.8496100  43.3281960
 125.5157060  54.2942220  43.7226150 134.7575480  55.9486210  40.9491510
 135.1340300  55.0758090  40.8365180 134.6594990  56.2844910  40.0581950
 128.8880490  54.3211840  36.4108950 128.9947240  55.2215570  36.7177710
 127.9772850  54.2729810  36.1203600 138.5399600  53.4436650  37.8819850
 139.3609220  52.9533220  37.9245330 138.5733680  54.0334310  38.6351690
 126.5363650  56.2430850  41.6561540 127.2173760  56.5069220  42.2748940
 126.2211700  55.4031720  41.9899550 130.7288220  57.2898210  40.7434130
 131.2366440  57.7879180  41.3839150 131.2601460  56.5133410  40.5673490
 142.8299150  55.4603400  44.4463480 142.1251320  55.8485110  43.9278590
 143.0957070  56.1553690  45.0484410 129.0124320  51.9296770  45.0097550
 129.0142760  52.4469160  44.2043450 128.1828630  51.4526950  44.9867480
 135.3995410  62.0416080  36.5087450 134.7812680  62.5065530  35.9450170
 135.9118660  62.7343560  36.9256960 130.2627170  61.5691950  43.1871050
 129.9296550  62.1960870  43.8292120 130.4393850  62.0953830  42.4072720
 138.7761080  55.3837030  40.6547390 138.0716650  55.6721920  41.2350500
 139.1373240  56.1937140  40.2946950 128.6939650  53.6406730  43.0168000
 129.0356460  54.4848780  42.7221870 127.7555460  53.7890470  43.1333340
 129.4746270  63.5372750  45.0020230 130.0920270  64.2123830  44.7204680
 128.6139390  63.9460730  44.9107730 140.3923860  65.0012160  42.9174870
 139.7087380  65.6711270  42.9091540 140.9318150  65.1992810  42.1519730
 141.8448000  54.8291820  41.0456600 140.8972910  54.8630800  41.1772030
 142.1697990  55.6430770  41.4305960 132.3767540  51.1289000  39.3412590
 132.6842520  50.5735890  38.6248090 131.4468240  51.2633460  39.1585580
 137.9282600  66.8456290  41.6320050 137.9409760  66.4418580  40.7642310
 137.3757820  67.6203580  41.5281480 139.2228020  63.5672510  36.7210220
 139.1124350  62.6246840  36.8459640 139.2196270  63.9288150  37.6072980
 137.3268040  61.7486130  42.9602660 137.7436830  61.5346240  42.1256120
 138.0507860  62.0058920  43.5311280 134.7648300  59.1937830  36.0772710
 133.8377580  59.1275210  36.3061180 134.9173120  60.1317960  35.9627950
 134.7517380  55.4654830  33.0739870 133.8121050  55.6268790  33.1592330
 135.0700640  56.1840510  32.5275860 141.2730140  60.1473350  43.0518900
 140.4448770  60.2166440  42.5769030 141.8680620  60.7327660  42.5834730
 138.7945590  60.7558130  36.5807960 138.1758010  60.4177680  35.9334260
 138.7770040  60.1117890  37.2887150 138.2372150  56.9342670  43.9973770
 137.8243330  57.7596380  44.2513760 137.5048100  56.3487710  43.8050130
 130.3704940  59.7202570  38.8592440 129.9661940  59.0079820  38.3638340
 130.4568060  59.3755810  39.7480480 130.8386640  63.4070130  41.0231650
 130.5414930  62.8015600  40.3439430 131.7886460  63.4447440  40.9121010
 129.0833560  56.4945780  42.6391480 129.6348150  56.6041120  41.8644730
 129.5977070  56.8683380  43.3546710 138.9272250  66.9802000  44.6854750
 138.4502810  67.7874190  44.4927360 138.2434040  66.3280330  44.8380960
 136.9710290  59.9944940  33.5880710 137.4103570  59.1567370  33.4418530
 137.6838710  60.6274340  33.6744850 128.7576290  60.0165140  46.2496820
 128.6184060  60.8887940  46.6184220 127.8757650  59.6737950  46.1044760
 135.0805670  64.9341010  37.5561950 135.5201580  65.6765340  37.1417340
 135.0192560  65.1767580  38.4800910 140.5527430  51.2487750  31.9021750
 140.2400090  51.3414580  32.8020820 141.3139900  51.8268780  31.8519180
 127.0709570  58.6147550  36.3599090 126.9507170  59.3409640  35.7480360
 126.7610460  57.8450460  35.8827000 142.5071460  66.7413940  49.7546140
 142.9831180  67.2196830  50.4335220 143.1278620  66.6731430  49.0291640
 124.7094940  61.7862690  42.1667730 124.7875360  61.9211460  41.2223450
 125.3236620  61.0778580  42.3595850 141.9104710  63.9326790  46.9146150
 142.0367770  63.6938670  45.9963330 141.9526090  63.1011330  47.3868230
 137.7475850  67.9210130  34.9124960 137.5876990  67.6313070  35.8106790
 137.5822560  67.1450260  34.3770190 130.2264230  67.7008660  36.6896580
 130.0506710  66.7844200  36.4764380 129.3719970  68.0595950  36.9294380
 137.4501980  65.4297690  33.4722960 136.7567140  65.4274980  32.8125240
 138.1924840  65.0057010  33.0417130 137.0151910  67.0560400  37.5471450
 137.4708860  66.2749780  37.8610070 137.3544430  67.7667220  38.0912630
 141.7628720  55.9859250  47.8795890 141.1472990  56.4938920  47.3511350
 141.4425140  55.0857580  47.8221830 124.7654460  62.8276860  44.7062190
 124.9285500  62.3582220  43.8881560 125.2306910  62.3200420  45.3711030
 129.5373230  51.9582620  39.7422760 129.0941380  52.7392160  39.4107280
 130.0958220  52.2812510  40.4493700 133.8243040  54.8251140  45.3458080
 133.3622410  55.0334160  46.1578020 133.4221150  54.0110490  45.0428750
 138.8247550  56.0460090  46.4754740 137.9741140  55.7465840  46.7963810
 138.6649340  56.2902100  45.5638560 135.9197260  57.5461840  48.5753530
 136.2450670  56.7125590  48.2355760 136.7077590  58.0690360  48.7231860
 132.6532050  51.5793320  34.6228590 132.0286230  51.5753190  35.3481900
 132.5662170  50.7124280  34.2264560 131.5749130  52.5029950  41.6012360
 131.8721460  53.4092780  41.5204380 132.1234690  52.0148730  40.9871930
 129.3287450  57.0816190  37.4704010 129.1028370  56.8653360  38.3750630
 128.5479980  57.5144650  37.1249980 136.5585210  57.0879560  36.0694660
 135.9594100  57.8115360  35.8858280 137.1064820  57.0256340  35.2871110
 131.7686660  57.9801770  48.1364280 131.6730260  57.0396500  47.9864680
 132.6118640  58.2016840  47.7412350 135.1650080  55.7243100  38.0997940
 135.5579650  56.0415300  37.2866630 135.5266930  54.8454980  38.2142460
 126.8997200  54.3915440  46.2898060 126.5060590  55.2390650  46.4970840
 126.2115600  53.7541810  46.4806700 133.4742250  54.4750410  49.3594800
 132.7840570  54.2822610  49.9940890 134.2174550  54.7585050  49.8919100
 124.3884480  56.2564020  31.5330860 124.3059150  57.1994780  31.6745850
 124.0367540  56.1138930  30.6543210 135.7505220  58.3148850  42.1948720
 135.0186340  58.8235660  42.5438820 135.3529560  57.4978830  41.8937500
 132.1882610  54.9903050  40.6001210 132.1918670  54.5493000  39.7505750
 133.0833730  55.3120380  40.7073030 128.0384990  54.8729540  39.5595420
 127.6985040  55.3504770  40.3162470 127.2762310  54.4194660  39.1996520
 132.2502760  55.9915130  33.5907970 132.3715580  55.9501610  34.5393790
 131.8651270  56.8539280  33.4354700 136.2131130  53.7682530  41.6071660
 136.2303870  54.2191180  42.4513510 135.9646710  52.8688170  41.8205100
 131.2624260  58.3016270  32.9891270 130.6941160  57.8534520  32.3627180
 131.9713260  58.6609050  32.4556420 139.6401880  51.1814710  47.4458040
 139.9647650  50.4504370  47.9716020 139.6758390  50.8628350  46.5439030
 126.3393440  62.2028290  46.8658000 125.9548230  61.5621960  47.4640960
 126.6505630  62.9064410  47.4352730 132.4890580  59.0504830  42.3466620
 132.8560710  58.5763400  43.0927960 132.2995640  59.9246400  42.6874960
 130.2789950  58.0913470  44.6650830 129.9747020  58.9705450  44.8901190
 131.2336410  58.1513260  44.7008270 128.8071740  62.2974460  35.2617680
 128.0334000  61.7572080  35.1016400 129.5366370  61.7781070  34.9235440
 139.5659720  61.2939820  41.0544070 140.2858840  61.7895110  40.6640180
 139.3641540  60.6157710  40.4097940 135.0269660  52.6877780  35.1973460
 134.2134270  52.1890950  35.1218770 134.8331610  53.5276030  34.7809810
 134.9478520  61.3648880  46.9413070 134.8815830  60.4444550  46.6870660
 134.3183660  61.4624320  47.6557710 137.7418050  57.0597430  33.4935620
 138.6297670  57.3714660  33.3186960 137.7123140  56.1869680  33.1016200
 128.8509140  61.9654840  38.8996490 129.3687810  61.1623100  38.8453380
 128.3993160  61.9033980  39.7413320 133.7378640  63.2321120  34.1723790
 134.0794340  63.9763350  33.6767110 132.9091350  63.5452240  34.5348620
 126.3353680  58.9316210  45.8122190 125.9768620  59.5970060  46.3995530
 126.0408240  58.0999760  46.1834810 129.5366800  59.3900450  48.6961740
 129.2366940  59.5357630  47.7989560 130.3078040  58.8305740  48.6035130
 134.8795250  64.1869450  46.6916870 134.8939790  63.2550410  46.4735780
 134.1720350  64.2729210  47.3306640 140.0132320  58.3709270  32.9615480
 139.9296040  58.8023490  32.1111920 140.7326510  58.8307620  33.3942300
 141.0906460  60.8276790  46.0385450 140.3654650  61.4205570  45.8414840
 141.6181920  60.8200330  45.2398820 141.0419570  65.2251530  35.6897610
 140.3995730  64.5707150  35.9641330 140.6550230  65.6306620  34.9138280
 136.6206050  62.5536960  39.5369300 136.9729870  61.9565090  38.8770670
 135.7368380  62.2281190  39.7077550 132.7069330  63.3134650  36.9439710
 133.3940460  63.8603860  37.3247300 131.9201750  63.8575380  36.9789320
 124.8461730  58.9307470  32.4356790 125.7156580  59.2132270  32.7192710
 124.3552050  59.7443340  32.3205600 132.0096540  60.3180680  36.5565070
 132.4659320  61.1285930  36.7825260 131.6584750  60.0003820  37.3883560
 134.3129150  65.8287020  43.7857370 134.9571370  66.0346400  44.4630790
 134.6758590  65.0675420  43.3328220 127.9108320  50.6618330  37.0287590
 127.7822950  50.6536230  37.9772510 127.0870340  51.0001420  36.6778600
 135.5861230  63.8319370  42.5034820 136.2283460  63.1312530  42.6166990
 136.1110580  64.6117810  42.3231710 139.4316950  64.1167990  32.2273960
 139.2054530  63.3998430  32.8198600 139.0413150  63.8680430  31.3895710
 137.3598850  64.6314270  45.7070880 137.6955090  65.2180960  46.3848800
 136.4399190  64.5006980  45.9368670 125.2132980  68.1434850  33.0018420
 125.5730620  68.7424190  32.3475690 125.0725320  68.6894740  33.7753450
 124.9102250  52.4209450  46.4894290 124.1960770  52.6206370  47.0946900
 125.3297290  51.6449020  46.8609090 139.0133200  62.0339930  33.8888120
 138.7254900  62.4952620  34.6766000 139.8085370  61.5737700  34.1572340
 125.1974840  66.4089710  47.4760820 125.3065960  65.4684450  47.3356210
 124.5455400  66.6744460  46.8274550 131.2301600  65.5266050  33.8192090
 131.2211700  66.2595740  33.2036600 130.3099960  65.2797630  33.9119050
 126.8308240  60.7480940  34.5638850 126.2236190  61.4879840  34.5734150
 127.3057590  60.8380300  33.7377050 136.4041030  54.9131760  44.2395740
 136.7721850  54.0926970  44.5675310 135.5439230  54.9733650  44.6551390
 139.7703060  53.8688700  35.0483300 139.1416220  53.9734370  34.3341530
 139.2754980  54.0885480  35.8377180 134.2161200  65.5894290  32.4817280
 134.3173180  65.3858280  31.5519260 133.3162940  65.3352570  32.6865060
 131.7387090  56.1474650  36.4641180 131.0303240  56.6160990  36.9054790
 132.0231570  55.4896660  37.0986370 133.3643020  57.5671350  44.4633710
 133.8628270  58.0417170  45.1285560 133.5065970  56.6434870  44.6703740
 135.7702520  52.8725310  37.9036970 135.6470300  52.8911440  36.9546480
 136.7187080  52.9204250  38.0235370 132.8579310  68.1080610  37.1764950
 133.1120810  68.0702000  36.2544320 131.9091790  67.9813940  37.1693200
 129.9422110  54.4559730  33.8391890 130.7912640  54.8929880  33.7732080
 129.5753380  54.7679990  34.6663950 140.5709880  53.7839310  45.3062100
 140.0683480  54.5244710  45.6455910 141.3866540  54.1723310  44.9898890
 138.8631890  59.0272490  38.7523460 137.9222030  59.0422720  38.9271150
 139.1775960  58.2408450  39.1983760 128.8413530  60.7092090  32.3127420
 129.6076800  60.5973450  32.8752850 128.9188220  60.0130060  31.6604190
 127.5360290  58.1417160  32.9960310 127.6163880  57.1944670  33.1077710
 128.4280040  58.4724040  33.1020970 140.8657470  66.1981340  40.4277720
 140.9904890  67.0212510  40.9001530 141.7323030  65.9872070  40.0801870
 131.4477310  67.4642860  31.9220420 132.2405920  67.7531690  31.4702210
 130.9281660  67.0335030  31.2432900 136.1797910  63.5838490  49.2355840
 135.5736070  63.6070090  48.4951590 135.8752020  62.8521530  49.7723090
 140.5007480  66.6912990  33.3457160 140.2148990  66.2778130  32.5311340
 140.3027030  67.6200700  33.2257680 125.0631090  59.9632080  48.2316480
 125.5670110  59.3839360  48.8032710 124.3238510  60.2472310  48.7692850
 131.9654710  62.6846270  31.7862770 131.8605350  62.0698620  32.5124150
 131.7978930  62.1612160  31.0025780 132.1169030  61.3703070  47.7652000
 131.3514700  61.9388070  47.6806670 132.2984990  61.0779280  46.8720230
 135.2057440  61.7466300  32.3904760 134.6567540  62.1935600  33.0347500
 135.8276700  61.2415550  32.9142430 139.2592380  63.1008400  48.3227020
 140.0001850  63.4384160  47.8194480 138.4965060  63.2700460  47.7696790
 127.0954170  58.1061670  49.1266550 127.1359510  57.8075540  50.0351780
 127.9499670  58.5069280  48.9674070 130.8732560  60.7057220  34.2870060
 131.2948980  60.5397090  35.1301450 130.9983400  59.8957450  33.7925200
 129.0359980  56.6853770  47.0941040 128.5056440  56.1944720  46.4664380
 129.7048050  57.1137970  46.5598970 133.3860200  59.7294830  31.5347160
 133.9065860  59.0143850  31.1688310 134.0328600  60.3680700  31.8347670
 137.9338040  61.1523230  46.8582230 138.3479060  61.3068310  47.7072650
 136.9989040  61.2778450  47.0208010 138.4060210  58.4919390  48.8621380
 138.9880980  57.7371710  48.7741860 138.5821980  59.0226830  48.0852860
 129.5232280  53.6516140  47.1738330 129.4289150  53.0336890  46.4489200
 128.9429670  54.3782430  46.9468240 132.2893720  52.2089380  44.2065720
 131.8411020  52.2313640  43.3611270 131.6558920  51.8108400  44.8036020
 132.6953270  61.1043710  44.8278160 133.1141380  61.9476440  44.6554400
 131.7761900  61.2415750  44.5984940 135.0317170  58.8359890  46.2116000
 135.1513380  58.2401030  46.9510840 135.8911170  58.8729580  45.7917300
 137.3705070  59.3897080  44.7878510 136.8440290  59.9139700  44.1843650
 137.7136410  60.0224470  45.4188240 129.7691460  56.7790450  31.2328220
 129.5680520  55.9157810  31.5941560 129.5983510  56.6923810  30.2949820
 131.7985940  55.3781240  47.4691820 132.3885630  55.0697090  48.1569640
 130.9806180  54.9060990  47.6251720 136.6179370  54.9947050  47.7024840
 135.9294890  54.3328590  47.6374830 137.3385390  54.5485320  48.1473300
 137.2479770  51.5898680  33.7615100 137.5282060  50.7466580  34.1174520
 136.4745500  51.8221790  34.2753850 128.5674260  53.8791070  31.2206100
 128.8700160  53.8858500  30.3125250 129.3068850  53.5288930  31.7173760
 131.7859190  52.8225690  32.2062300 131.4381190  52.1449680  31.6264750
 131.9871960  52.3615200  33.0205690 133.9508230  67.8106440  33.8248900
 134.8459020  68.1491410  33.8467660 133.9825860  67.0885850  33.1973180
 127.5904390  63.1833490  32.0535900 128.0279260  63.7263160  32.7093480
 128.0752120  62.3580440  32.0632240 129.4012110  64.3031530  37.1658130
 129.1007650  64.1796500  38.0662040 129.2949600  63.4440120  36.7573860
 125.2940400  66.8393110  42.2437790 124.8571390  67.0193910  43.0761940
 125.8618080  67.5967730  42.1019510 140.9302580  66.3410110  46.5315100
 140.3304570  66.4002670  45.7879020 141.0596480  65.4015090  46.6611950
 142.1704030  64.0827930  31.8684810 141.3396990  64.1504580  32.3392040
 142.3475860  64.9732050  31.5651670 141.6260490  60.8275410  34.3719010
 142.3879400  61.3972060  34.4778700 141.6414860  60.2602610  35.1427320
 125.1264830  59.3513340  38.6026670 124.4713670  59.0824980  37.9586370
 125.9642780  59.2417820  38.1528650 142.6320460  61.6825510  39.2160940
 143.0029290  60.8992830  38.8096910 143.2722390  62.3714610  39.0378240
 139.6154220  63.0662090  44.6291260 138.8014060  63.4959250  44.8917050
 140.0228420  63.6780500  44.0160310 141.6779660  61.1209780  31.5291530
 141.9528500  62.0288660  31.4010750 141.4890400  61.0572310  32.4653520
 138.0755270  54.1454630  32.8245160 138.4940150  53.9585610  31.9841820
 137.7691330  53.2933680  33.1348090 141.5745000  59.0578770  36.5220960
 141.1988600  58.2906700  36.0902250 140.8448120  59.4401470  37.0095890
 126.1640760  59.7365910  43.1430010 126.5313800  59.6493310  44.0226030
 125.5951580  58.9732460  43.0436870 140.9644620  58.2050290  46.1560480
 140.7330710  57.9763040  45.2558430 141.2249170  59.1249840  46.1105370
 125.7156760  56.6475000  47.0488430 124.8212810  56.6141760  47.3882140
 126.2554310  56.8461790  47.8139680 139.4032690  53.4306720  48.9340180
 140.2802870  53.4390120  49.3174180 139.4153530  52.6937560  48.3232530
 124.3402910  56.5612270  34.5452000 123.4366990  56.8242470  34.3703660
 124.8243530  56.8323440  33.7651960 140.8495960  57.2836260  39.8228200
 141.3733440  56.7898910  39.1918370 141.4355380  57.4186620  40.5675770
 141.0285680  57.3676130  43.3447750 140.0788390  57.3339670  43.4592740
 141.2098690  58.2776240  43.1097520 126.8830120  55.6177810  32.4546380
 127.5921820  55.1961030  31.9693660 126.1670060  55.6853040  31.8229730
 126.5304280  51.6717140  31.4949030 127.2532410  52.2126080  31.8130250
 126.8028800  51.3980560  30.6190570 140.3395930  56.5409610  35.7620610
 140.8355050  56.3080480  36.5469490 140.1412000  55.7021450  35.3458250
 126.2196470  50.9223330  41.3971650 126.8672660  50.3720710  40.9566810
 126.6398310  51.1766480  42.2187460 141.7683090  55.1770560  38.2958290
 141.6582370  55.0226600  39.2340560 142.5290680  54.6491500  38.0533700
 140.1148810  51.1164690  44.7541290 140.7521030  51.7298830  45.1200480
 140.2623700  51.1525350  43.8090520 142.6573360  53.0078480  31.5364430
 143.5822670  52.8759660  31.3282720 142.6349150  53.0871300  32.4900880
 142.7311850  53.7789140  34.1621140 141.9363350  53.7134260  34.6914050
 142.9355130  54.7139780  34.1506490 139.6730270  67.8180690  38.1559530
 140.2689340  67.4965260  37.4793950 139.9308420  67.3452510  38.9472800
 125.9728470  51.0779000  44.1396970 125.6243290  51.5342820  44.9055150
 125.6416170  50.1836130  44.2219400 127.5792840  64.2498600  48.3050160
 127.5362470  63.8791510  49.1864620 127.7103850  65.1876170  48.4451980
 133.4853290  52.2690880  47.6616390 133.4242180  52.8612710  48.4111800
 134.4253670  52.1616840  47.5166650 136.1227850  51.9260940  47.3008680
 136.7368260  52.2440230  46.6389760 136.6677410  51.4409530  47.9204540
 142.5403030  67.8252570  44.7070520 142.0461310  68.2221440  43.9897650
 141.9316320  67.2001780  45.1007800 126.6449110  50.6055200  47.4147740
 127.1932100  50.4243250  46.6513850 126.7104420  49.8149310  47.9504050
 136.8635890  50.4893080  43.6277970 135.9895730  50.8228190  43.4250900
 136.7546640  50.0166260  44.4529840 137.7707870  52.6963950  45.0119690
 137.4421230  51.8815710  44.6321420 138.7190170  52.6533760  44.8885380
 140.2242480  68.4675990  41.9857260 139.7645450  69.2191800  41.6115280
 139.5954940  67.7482460  41.9272060 127.0493100  64.5619230  44.3755980
 126.3227160  63.9424520  44.3081930 127.1102250  64.9559840  43.5054060
 130.6538200  66.7764230  41.1605390 131.1703220  66.1651590  40.6353650
 131.3035580  67.2793010  41.6516400 133.3933700  67.6672720  41.9874370
 133.6811510  67.4127020  41.1107380 133.9056920  67.1150080  42.5779940
 134.6110710  51.4062920  42.5670880 133.8282500  51.8808420  42.8467640
 134.3173640  50.5017750  42.4584060 139.1631780  52.1086020  40.6119970
 139.6039870  52.0531120  39.7641570 138.8939370  53.0244030  40.6830150
 141.0270350  51.7401260  38.6228790 140.9658750  50.7962480  38.4759810
 141.8062380  51.8481350  39.1682250 125.3323100  67.8793620  37.5852740
 125.1645140  67.2464300  38.2834630 124.4657610  68.0853020  37.2346930
 125.9551120  51.7110400  35.0884600 126.7130480  51.8239280  34.5148630
 125.4928290  52.5479600  35.0428030 132.4964930  53.8249670  38.0786910
 131.6839440  53.4506560  37.7382790 133.0006570  53.0694750  38.3808100
 136.9989910  50.4892120  39.3169980 137.6019280  51.0612330  39.7918500
 136.2582900  51.0531560  39.0943880 140.1424510  50.8913680  34.5910260
 140.3375140  51.7897130  34.8577690 139.3554380  50.6600760  35.0843210
 126.9385800  66.5726850  35.0302880 126.4133420  66.9534880  34.3264840
 126.8630380  67.1977620  35.7512590 128.3276270  52.2374450  33.6286570
 128.8569030  51.4504250  33.4994520 128.9604590  52.9165640  33.8622100
 130.5214110  51.9749590  36.6831960 129.8916850  51.2736900  36.8502090
 129.9819250  52.7353720  36.4665120 141.6951120  68.1314390  36.3516820
 141.8703310  67.4452130  35.7077740 140.9972690  68.6561440  35.9593490
 130.6469670  51.2533570  49.1184450 130.3653940  51.7567170  48.3545270
 131.0289370  50.4555320  48.7526580 129.5378770  68.5209230  33.9052130
 130.2697590  68.2368510  33.3576020 129.7972440  68.2822510  34.7951510
 128.6993560  64.6373960  33.9098460 128.0702440  65.1059060  34.4584290
 128.8141390  63.7923180  34.3444650 137.2485130  50.6687150  49.6964920
 137.1350580  50.9881760  50.5916440 138.0654870  51.0699660  49.4002200
 140.0283620  67.8158680  49.1783610 140.8208940  67.3207910  48.9709570
 140.3216770  68.4948820  49.7859220 136.1543280  58.6879620  20.0599660
 136.0737330  57.7734230  19.7891370 135.7407700  59.1846690  19.3539370
 134.2861320  60.4658640  21.9408930 133.5103420  59.9859080  22.2307500
 134.9374250  59.7864290  21.7665090 128.3027150  60.7778450  22.8184690
 127.4712030  60.5227160  23.2181200 128.9108130  60.8489220  23.5542610
 138.3068750  64.8718830  20.7208060 137.8450280  64.1006070  21.0495230
 139.1194300  64.8984900  21.2260510 128.2828410  64.8118540  23.0142710
 128.5856450  63.9216280  22.8352930 129.0272000  65.3688760  22.7864960
 126.7119100  55.7380340  16.6027080 125.8235800  56.0796310  16.5006960
 126.9960290  55.5380660  15.7107910 124.6752110  58.3385990  22.4866780
 125.2468220  57.5708190  22.4870420 124.6753650  58.6374750  21.5773390
 134.5332060  67.1576840  20.3412050 133.9143500  67.6134340  19.7706490
 135.3883840  67.3128300  19.9401750 133.7270310  63.1415830  21.9479090
 133.6578590  62.2005770  21.7868220 134.4890170  63.2317240  22.5201660
 125.9176980  53.7470350  24.2735710 125.7379820  52.8496100  24.5538470
 125.5157060  54.2942220  24.9482660 134.7575480  55.9486210  22.1748020
 135.1340300  55.0758090  22.0621690 134.6594990  56.2844910  21.2838460
 128.8880490  54.3211840  17.6365460 128.9947240  55.2215570  17.9434220
 127.9772850  54.2729810  17.3460110 138.5399600  53.4436650  19.1076360
 139.3609220  52.9533220  19.1501840 138.5733680  54.0334310  19.8608200
 126.5363650  56.2430850  22.8818050 127.2173760  56.5069220  23.5005450
 126.2211700  55.4031720  23.2156060 130.7288220  57.2898210  21.9690640
 131.2366440  57.7879180  22.6095660 131.2601460  56.5133410  21.7930000
 142.8299150  55.4603400  25.6719990 142.1251320  55.8485110  25.1535100
 143.0957070  56.1553690  26.2740920 129.0124320  51.9296770  26.2354060
 129.0142760  52.4469160  25.4299960 128.1828630  51.4526950  26.2123990
 135.3995410  62.0416080  17.7343960 134.7812680  62.5065530  17.1706680
 135.9118660  62.7343560  18.1513470 130.2627170  61.5691950  24.4127560
 129.9296550  62.1960870  25.0548630 130.4393850  62.0953830  23.6329230
 138.7761080  55.3837030  21.8803900 138.0716650  55.6721920  22.4607010
 139.1373240  56.1937140  21.5203460 128.6939650  53.6406730  24.2424510
 129.0356460  54.4848780  23.9478380 127.7555460  53.7890470  24.3589850
 129.4746270  63.5372750  26.2276740 130.0920270  64.2123830  25.9461190
 128.6139390  63.9460730  26.1364240 124.7678610  62.7272610  15.1083590
 124.3906590  63.2159710  14.3768490 125.0251680  63.3997890  15.7390120
 140.3923860  65.0012160  24.1431380 139.7087380  65.6711270  24.1348050
 140.9318150  65.1992810  23.3776240 141.8448000  54.8291820  22.2713110
 140.8972910  54.8630800  22.4028540 142.1697990  55.6430770  22.6562470
 132.3767540  51.1289000  20.5669100 132.6842520  50.5735890  19.8504600
 131.4468240  51.2633460  20.3842090 137.9282600  66.8456290  22.8576560
 137.9409760  66.4418580  21.9898820 137.3757820  67.6203580  22.7537990
 139.2228020  63.5672510  17.9466730 139.1124350  62.6246840  18.0716150
 139.2196270  63.9288150  18.8329490 137.3268040  61.7486130  24.1859170
 137.7436830  61.5346240  23.3512630 138.0507860  62.0058920  24.7567790
 134.7648300  59.1937830  17.3029220 133.8377580  59.1275210  17.5317690
 134.9173120  60.1317960  17.1884460 134.7517380  55.4654830  14.2996380
 133.8121050  55.6268790  14.3848840 135.0700640  56.1840510  13.7532370
 141.2730140  60.1473350  24.2775410 140.4448770  60.2166440  23.8025540
 141.8680620  60.7327660  23.8091240 138.7945590  60.7558130  17.8064470
 138.1758010  60.4177680  17.1590770 138.7770040  60.1117890  18.5143660
 138.2372150  56.9342670  25.2230280 137.8243330  57.7596380  25.4770270
 137.5048100  56.3487710  25.0306640 130.3704940  59.7202570  20.0848950
 129.9661940  59.0079820  19.5894850 130.4568060  59.3755810  20.9736990
 130.8386640  63.4070130  22.2488160 130.5414930  62.8015600  21.5695940
 131.7886460  63.4447440  22.1377520 129.0833560  56.4945780  23.8647990
 129.6348150  56.6041120  23.0901240 129.5977070  56.8683380  24.5803220
 138.9272250  66.9802000  25.9111260 138.4502810  67.7874190  25.7183870
 138.2434040  66.3280330  26.0637470 129.9305070  63.1451820  28.8995960
 129.0333600  63.3691790  29.1469360 129.9557940  63.2686760  27.9507360
 136.9710290  59.9944940  14.8137220 137.4103570  59.1567370  14.6675040
 137.6838710  60.6274340  14.9001360 128.7576290  60.0165140  27.4753330
 128.6184060  60.8887940  27.8440730 127.8757650  59.6737950  27.3301270
 135.0805670  64.9341010  18.7818460 135.5201580  65.6765340  18.3673850
 135.0192560  65.1767580  19.7057420 130.5556640  65.9586840  29.6838480
 130.5272070  66.3629790  28.8166910 130.3921610  65.0297200  29.5210080
 140.5527430  51.2487750  13.1278260 140.2400090  51.3414580  14.0277330
 141.3139900  51.8268780  13.0775690 127.0709570  58.6147550  17.5855600
 126.9507170  59.3409640  16.9736870 126.7610460  57.8450460  17.1083510
 142.5071460  66.7413940  30.9802650 142.9831180  67.2196830  31.6591730
 143.1278620  66.6731430  30.2548150 124.7094940  61.7862690  23.3924240
 124.7875360  61.9211460  22.4479960 125.3236620  61.0778580  23.5852360
 125.9542570  63.4862880  19.8030420 125.5470650  63.6277470  18.9484020
 126.8455580  63.2023040  19.6001630 141.9104710  63.9326790  28.1402660
 142.0367770  63.6938670  27.2219840 141.9526090  63.1011330  28.6124740
 135.7721450  67.6354790  26.7097470 136.2866120  67.5462800  27.5119900
 134.9290530  67.9814490  27.0025380 137.7475850  67.9210130  16.1381470
 137.5876990  67.6313070  17.0363300 137.5822560  67.1450260  15.6026700
 130.2264230  67.7008660  17.9153090 130.0506710  66.7844200  17.7020890
 129.3719970  68.0595950  18.1550890 137.4501980  65.4297690  14.6979470
 136.7567140  65.4274980  14.0381750 138.1924840  65.0057010  14.2673640
 137.0151910  67.0560400  18.7727960 137.4708860  66.2749780  19.0866580
 137.3544430  67.7667220  19.3169140 141.7628720  55.9859250  29.1052400
 141.1472990  56.4938920  28.5767860 141.4425140  55.0857580  29.0478340
 124.7654460  62.8276860  25.9318700 124.9285500  62.3582220  25.1138070
 125.2306910  62.3200420  26.5967540 129.5373230  51.9582620  20.9679270
 129.0941380  52.7392160  20.6363790 130.0958220  52.2812510  21.6750210
 133.8243040  54.8251140  26.5714590 133.3622410  55.0334160  27.3834530
 133.4221150  54.0110490  26.2685260 138.8247550  56.0460090  27.7011250
 137.9741140  55.7465840  28.0220320 138.6649340  56.2902100  26.7895070
 135.9197260  57.5461840  29.8010040 136.2450670  56.7125590  29.4612270
 136.7077590  58.0690360  29.9488370 132.6532050  51.5793320  15.8485100
 132.0286230  51.5753190  16.5738410 132.5662170  50.7124280  15.4521070
 131.5749130  52.5029950  22.8268870 131.8721460  53.4092780  22.7460890
 132.1234690  52.0148730  22.2128440 129.3287450  57.0816190  18.6960520
 129.1028370  56.8653360  19.6007140 128.5479980  57.5144650  18.3506490
 136.5585210  57.0879560  17.2951170 135.9594100  57.8115360  17.1114790
 137.1064820  57.0256340  16.5127620 131.7686660  57.9801770  29.3620790
 131.6730260  57.0396500  29.2121190 132.6118640  58.2016840  28.9668860
 135.1650080  55.7243100  19.3254450 135.5579650  56.0415300  18.5123140
 135.5266930  54.8454980  19.4398970 126.8997200  54.3915440  27.5154570
 126.5060590  55.2390650  27.7227350 126.2115600  53.7541810  27.7063210
 133.4742250  54.4750410  30.5851310 132.7840570  54.2822610  31.2197400
 134.2174550  54.7585050  31.1175610 124.2014250  52.3143900  21.5484650
 123.9127300  52.8846760  22.2609630 124.9460010  51.8348350  21.9115880
 124.3884480  56.2564020  12.7587370 124.3059150  57.1994780  12.9002360
 124.0367540  56.1138930  11.8799720 135.7505220  58.3148850  23.4205230
 135.0186340  58.8235660  23.7695330 135.3529560  57.4978830  23.1194010
 132.1882610  54.9903050  21.8257720 132.1918670  54.5493000  20.9762260
 133.0833730  55.3120380  21.9329540 128.0384990  54.8729540  20.7851930
 127.6985040  55.3504770  21.5418980 127.2762310  54.4194660  20.4253030
 132.2502760  55.9915130  14.8164480 132.3715580  55.9501610  15.7650300
 131.8651270  56.8539280  14.6611210 136.2131130  53.7682530  22.8328170
 136.2303870  54.2191180  23.6770020 135.9646710  52.8688170  23.0461610
 131.2624260  58.3016270  14.2147780 130.6941160  57.8534520  13.5883690
 131.9713260  58.6609050  13.6812930 139.6401880  51.1814710  28.6714550
 139.9647650  50.4504370  29.1972530 139.6758390  50.8628350  27.7695540
 126.3393440  62.2028290  28.0914510 125.9548230  61.5621960  28.6897470
 126.6505630  62.9064410  28.6609240 132.4890580  59.0504830  23.5723130
 132.8560710  58.5763400  24.3184470 132.2995640  59.9246400  23.9131470
 125.3531070  53.7948520  19.7016600 125.0677990  53.4304190  20.5395220
 125.2909930  53.0628980  19.0879740 130.2789950  58.0913470  25.8907340
 129.9747020  58.9705450  26.1157700 131.2336410  58.1513260  25.9264780
 128.8071740  62.2974460  16.4874190 128.0334000  61.7572080  16.3272910
 129.5366370  61.7781070  16.1491950 139.5659720  61.2939820  22.2800580
 140.2858840  61.7895110  21.8896690 139.3641540  60.6157710  21.6354450
 135.0269660  52.6877780  16.4229970 134.2134270  52.1890950  16.3475280
 134.8331610  53.5276030  16.0066320 134.9478520  61.3648880  28.1669580
 134.8815830  60.4444550  27.9127170 134.3183660  61.4624320  28.8814220
 137.7418050  57.0597430  14.7192130 138.6297670  57.3714660  14.5443470
 137.7123140  56.1869680  14.3272710 128.8509140  61.9654840  20.1253000
 129.3687810  61.1623100  20.0709890 128.3993160  61.9033980  20.9669830
 133.7378640  63.2321120  15.3980300 134.0794340  63.9763350  14.9023620
 132.9091350  63.5452240  15.7605130 126.3353680  58.9316210  27.0378700
 125.9768620  59.5970060  27.6252040 126.0408240  58.0999760  27.4091320
 129.5366800  59.3900450  29.9218250 129.2366940  59.5357630  29.0246070
 130.3078040  58.8305740  29.8291640 134.8795250  64.1869450  27.9173380
 134.8939790  63.2550410  27.6992290 134.1720350  64.2729210  28.5563150
 140.0132320  58.3709270  14.1871990 139.9296040  58.8023490  13.3368430
 140.7326510  58.8307620  14.6198810 141.0906460  60.8276790  27.2641960
 140.3654650  61.4205570  27.0671350 141.6181920  60.8200330  26.4655330
 141.0419570  65.2251530  16.9154120 140.3995730  64.5707150  17.1897840
 140.6550230  65.6306620  16.1394790 136.6206050  62.5536960  20.7625810
 136.9729870  61.9565090  20.1027180 135.7368380  62.2281190  20.9334060
 132.7069330  63.3134650  18.1696220 133.3940460  63.8603860  18.5503810
 131.9201750  63.8575380  18.2045830 124.8461730  58.9307470  13.6613300
 125.7156580  59.2132270  13.9449220 124.3552050  59.7443340  13.5462110
 132.0096540  60.3180680  17.7821580 132.4659320  61.1285930  18.0081770
 131.6584750  60.0003820  18.6140070 134.3129150  65.8287020  25.0113880
 134.9571370  66.0346400  25.6887300 134.6758590  65.0675420  24.5584730
 127.9108320  50.6618330  18.2544100 127.7822950  50.6536230  19.2029020
 127.0870340  51.0001420  17.9035110 135.5861230  63.8319370  23.7291330
 136.2283460  63.1312530  23.8423500 136.1110580  64.6117810  23.5488220
 139.4316950  64.1167990  13.4530470 139.2054530  63.3998430  14.0455110
 139.0413150  63.8680430  12.6152220 137.3598850  64.6314270  26.9327390
 137.6955090  65.2180960  27.6105310 136.4399190  64.5006980  27.1625180
 125.2132980  68.1434850  14.2274930 125.5730620  68.7424190  13.5732200
 125.0725320  68.6894740  15.0009960 124.9102250  52.4209450  27.7150800
 124.1960770  52.6206370  28.3203410 125.3297290  51.6449020  28.0865600
 139.0133200  62.0339930  15.1144630 138.7254900  62.4952620  15.9022510
 139.8085370  61.5737700  15.3828850 125.1974840  66.4089710  28.7017330
 125.3065960  65.4684450  28.5612720 124.5455400  66.6744460  28.0531060
 133.1887430  64.6805600  30.1015450 132.8684300  63.9614840  30.6461140
 132.5145790  65.3560670  30.1751510 131.2301600  65.5266050  15.0448600
 131.2211700  66.2595740  14.4293110 130.3099960  65.2797630  15.1375560
 126.8308240  60.7480940  15.7895360 126.2236190  61.4879840  15.7990660
 127.3057590  60.8380300  14.9633560 136.4041030  54.9131760  25.4652250
 136.7721850  54.0926970  25.7931820 135.5439230  54.9733650  25.8807900
 139.7703060  53.8688700  16.2739810 139.1416220  53.9734370  15.5598040
 139.2754980  54.0885480  17.0633690 134.2161200  65.5894290  13.7073790
 134.3173180  65.3858280  12.7775770 133.3162940  65.3352570  13.9121570
 131.7387090  56.1474650  17.6897690 131.0303240  56.6160990  18.1311300
 132.0231570  55.4896660  18.3242880 133.3643020  57.5671350  25.6890220
 133.8628270  58.0417170  26.3542070 133.5065970  56.6434870  25.8960250
 135.7702520  52.8725310  19.1293480 135.6470300  52.8911440  18.1802990
 136.7187080  52.9204250  19.2491880 132.8579310  68.1080610  18.4021460
 133.1120810  68.0702000  17.4800830 131.9091790  67.9813940  18.3949710
 129.9422110  54.4559730  15.0648400 130.7912640  54.8929880  14.9988590
 129.5753380  54.7679990  15.8920460 140.5709880  53.7839310  26.5318610
 140.0683480  54.5244710  26.8712420 141.3866540  54.1723310  26.2155400
 138.8631890  59.0272490  19.9779970 137.9222030  59.0422720  20.1527660
 139.1775960  58.2408450  20.4240270 128.8413530  60.7092090  13.5383930
 129.6076800  60.5973450  14.1009360 128.9188220  60.0130060  12.8860700
 127.5360290  58.1417160  14.2216820 127.6163880  57.1944670  14.3334220
 128.4280040  58.4724040  14.3277480 140.8657470  66.1981340  21.6534230
 140.9904890  67.0212510  22.1258040 141.7323030  65.9872070  21.3058380
 128.3375000  68.2912550  21.3251360 129.0737480  67.7428010  21.5959930
 128.7215920  69.1568560  21.1857350 125.2220480  64.3586120  17.1992870
 124.2960260  64.6007260  17.1898280 125.6876910  65.1860380  17.0777620
 127.3433280  67.4758620  30.5136940 128.1446010  67.7970670  30.9272340
 126.8285100  67.1154200  31.2356850 131.4477310  67.4642860  13.1476930
 132.2405920  67.7531690  12.6958720 130.9281660  67.0335030  12.4689410
 136.1797910  63.5838490  30.4612350 135.5736070  63.6070090  29.7208100
 135.8752020  62.8521530  30.9979600 137.6098280  67.3118780  29.0721760
 138.5620030  67.2276800  29.0222000 137.4626500  67.9760490  29.7455550
 140.5007480  66.6912990  14.5713670 140.2148990  66.2778130  13.7567850
 140.3027030  67.6200700  14.4514190 125.0631090  59.9632080  29.4572990
 125.5670110  59.3839360  30.0289220 124.3238510  60.2472310  29.9949360
 131.9654710  62.6846270  13.0119280 131.8605350  62.0698620  13.7380660
 131.7978930  62.1612160  12.2282290 132.1169030  61.3703070  28.9908510
 131.3514700  61.9388070  28.9063180 132.2984990  61.0779280  28.0976740
 135.2057440  61.7466300  13.6161270 134.6567540  62.1935600  14.2604010
 135.8276700  61.2415550  14.1398940 139.2592380  63.1008400  29.5483530
 140.0001850  63.4384160  29.0450990 138.4965060  63.2700460  28.9953300
 127.0954170  58.1061670  30.3523060 127.1359510  57.8075540  31.2608290
 127.9499670  58.5069280  30.1930580 130.8732560  60.7057220  15.5126570
 131.2948980  60.5397090  16.3557960 130.9983400  59.8957450  15.0181710
 129.0359980  56.6853770  28.3197550 128.5056440  56.1944720  27.6920890
 129.7048050  57.1137970  27.7855480 133.3860200  59.7294830  12.7603670
 133.9065860  59.0143850  12.3944820 134.0328600  60.3680700  13.0604180
 137.9338040  61.1523230  28.0838740 138.3479060  61.3068310  28.9329160
 136.9989040  61.2778450  28.2464520 138.4060210  58.4919390  30.0877890
 138.9880980  57.7371710  29.9998370 138.5821980  59.0226830  29.3109370
 129.5232280  53.6516140  28.3994840 129.4289150  53.0336890  27.6745710
 128.9429670  54.3782430  28.1724750 132.2893720  52.2089380  25.4322230
 131.8411020  52.2313640  24.5867780 131.6558920  51.8108400  26.0292530
 132.6953270  61.1043710  26.0534670 133.1141380  61.9476440  25.8810910
 131.7761900  61.2415750  25.8241450 135.0317170  58.8359890  27.4372510
 135.1513380  58.2401030  28.1767350 135.8911170  58.8729580  27.0173810
 137.3705070  59.3897080  26.0135020 136.8440290  59.9139700  25.4100160
 137.7136410  60.0224470  26.6444750 129.7691460  56.7790450  12.4584730
 129.5680520  55.9157810  12.8198070 129.5983510  56.6923810  11.5206330
 130.5460690  67.4096720  27.1692400 130.0081780  68.1342780  26.8501100
 130.7994650  66.9327060  26.3789740 131.7985940  55.3781240  28.6948330
 132.3885630  55.0697090  29.3826150 130.9806180  54.9060990  28.8508230
 136.6179370  54.9947050  28.9281350 135.9294890  54.3328590  28.8631340
 137.3385390  54.5485320  29.3729810 137.2479770  51.5898680  14.9871610
 137.5282060  50.7466580  15.3431030 136.4745500  51.8221790  15.5010360
 128.5674260  53.8791070  12.4462610 128.8700160  53.8858500  11.5381760
 129.3068850  53.5288930  12.9430270 133.4022900  68.6447930  27.4279050
 133.3281600  69.5483070  27.7351420 132.5001740  68.3259830  27.4001120
 131.7859190  52.8225690  13.4318810 131.4381190  52.1449680  12.8521260
 131.9871960  52.3615200  14.2462200 133.9508230  67.8106440  15.0505410
 134.8459020  68.1491410  15.0724170 133.9825860  67.0885850  14.4229690
 127.5904390  63.1833490  13.2792410 128.0279260  63.7263160  13.9349990
 128.0752120  62.3580440  13.2888750 124.8050190  65.9722520  20.7312670
 125.1353200  65.1043580  20.4991310 125.2341190  66.1781040  21.5617630
 129.4012110  64.3031530  18.3914640 129.1007650  64.1796500  19.2918550
 129.2949600  63.4440120  17.9830370 125.2940400  66.8393110  23.4694300
 124.8571390  67.0193910  24.3018450 125.8618080  67.5967730  23.3276020
 140.9302580  66.3410110  27.7571610 140.3304570  66.4002670  27.0135530
 141.0596480  65.4015090  27.8868460 142.1704030  64.0827930  13.0941320
 141.3396990  64.1504580  13.5648550 142.3475860  64.9732050  12.7908180
 141.6260490  60.8275410  15.5975520 142.3879400  61.3972060  15.7035210
 141.6414860  60.2602610  16.3683830 125.1264830  59.3513340  19.8283180
 124.4713670  59.0824980  19.1842880 125.9642780  59.2417820  19.3785160
 142.6320460  61.6825510  20.4417450 143.0029290  60.8992830  20.0353420
 143.2722390  62.3714610  20.2634750 139.6154220  63.0662090  25.8547770
 138.8014060  63.4959250  26.1173560 140.0228420  63.6780500  25.2416820
 141.6779660  61.1209780  12.7548040 141.9528500  62.0288660  12.6267260
 141.4890400  61.0572310  13.6910030 138.0755270  54.1454630  14.0501670
 138.4940150  53.9585610  13.2098330 137.7691330  53.2933680  14.3604600
 141.5745000  59.0578770  17.7477470 141.1988600  58.2906700  17.3158760
 140.8448120  59.4401470  18.2352400 126.1640760  59.7365910  24.3686520
 126.5313800  59.6493310  25.2482540 125.5951580  58.9732460  24.2693380
 140.9644620  58.2050290  27.3816990 140.7330710  57.9763040  26.4814940
 141.2249170  59.1249840  27.3361880 125.7156760  56.6475000  28.2744940
 124.8212810  56.6141760  28.6138650 126.2554310  56.8461790  29.0396190
 139.4032690  53.4306720  30.1596690 140.2802870  53.4390120  30.5430690
 139.4153530  52.6937560  29.5489040 124.3402910  56.5612270  15.7708510
 123.4366990  56.8242470  15.5960170 124.8243530  56.8323440  14.9908470
 140.8495960  57.2836260  21.0484710 141.3733440  56.7898910  20.4174880
 141.4355380  57.4186620  21.7932280 141.0285680  57.3676130  24.5704260
 140.0788390  57.3339670  24.6849250 141.2098690  58.2776240  24.3354030
 126.8830120  55.6177810  13.6802890 127.5921820  55.1961030  13.1950170
 126.1670060  55.6853040  13.0486240 126.5304280  51.6717140  12.7205540
 127.2532410  52.2126080  13.0386760 126.8028800  51.3980560  11.8447080
 140.3395930  56.5409610  16.9877120 140.8355050  56.3080480  17.7726000
 140.1412000  55.7021450  16.5714760 126.2196470  50.9223330  22.6228160
 126.8672660  50.3720710  22.1823320 126.6398310  51.1766480  23.4443970
 141.7683090  55.1770560  19.5214800 141.6582370  55.0226600  20.4597070
 142.5290680  54.6491500  19.2790210 140.1148810  51.1164690  25.9797800
 140.7521030  51.7298830  26.3456990 140.2623700  51.1525350  25.0347030
 142.6573360  53.0078480  12.7620940 143.5822670  52.8759660  12.5539230
 142.6349150  53.0871300  13.7157390 142.7311850  53.7789140  15.3877650
 141.9363350  53.7134260  15.9170560 142.9355130  54.7139780  15.3763000
 139.6730270  67.8180690  19.3816040 140.2689340  67.4965260  18.7050460
 139.9308420  67.3452510  20.1729310 125.9728470  51.0779000  25.3653480
 125.6243290  51.5342820  26.1311660 125.6416170  50.1836130  25.4475910
 127.5792840  64.2498600  29.5306670 127.5362470  63.8791510  30.4121130
 127.7103850  65.1876170  29.6708490 131.2798870  65.8058190  25.1316390
 131.0390230  66.0732750  24.2446910 132.2201510  65.9763920  25.1867250
 133.4853290  52.2690880  28.8872900 133.4242180  52.8612710  29.6368310
 134.4253670  52.1616840  28.7423160 136.1227850  51.9260940  28.5265190
 136.7368260  52.2440230  27.8646270 136.6677410  51.4409530  29.1461050
 142.5403030  67.8252570  25.9327030 142.0461310  68.2221440  25.2154160
 141.9316320  67.2001780  26.3264310 126.6449110  50.6055200  28.6404250
 127.1932100  50.4243250  27.8770360 126.7104420  49.8149310  29.1760560
 127.4180870  67.1960850  26.6504450 126.8241190  67.0645550  27.3894490
 127.4104710  66.3598990  26.1846550 136.8635890  50.4893080  24.8534480
 135.9895730  50.8228190  24.6507410 136.7546640  50.0166260  25.6786350
 137.7707870  52.6963950  26.2376200 137.4421230  51.8815710  25.8577930
 138.7190170  52.6533760  26.1141890 140.2242480  68.4675990  23.2113770
 139.7645450  69.2191800  22.8371790 139.5954940  67.7482460  23.1528570
 127.0493100  64.5619230  25.6012490 126.3227160  63.9424520  25.5338440
 127.1102250  64.9559840  24.7310570 130.6538200  66.7764230  22.3861900
 131.1703220  66.1651590  21.8610160 131.3035580  67.2793010  22.8772910
 133.3933700  67.6672720  23.2130880 133.6811510  67.4127020  22.3363890
 133.9056920  67.1150080  23.8036450 134.6110710  51.4062920  23.7927390
 133.8282500  51.8808420  24.0724150 134.3173640  50.5017750  23.6840570
 139.1631780  52.1086020  21.8376480 139.6039870  52.0531120  20.9898080
 138.8939370  53.0244030  21.9086660 141.0270350  51.7401260  19.8485300
 140.9658750  50.7962480  19.7016320 141.8062380  51.8481350  20.3938760
 125.3323100  67.8793620  18.8109250 125.1645140  67.2464300  19.5091140
 124.4657610  68.0853020  18.4603440 125.9551120  51.7110400  16.3141110
 126.7130480  51.8239280  15.7405140 125.4928290  52.5479600  16.2684540
 132.4964930  53.8249670  19.3043420 131.6839440  53.4506560  18.9639300
 133.0006570  53.0694750  19.6064610 136.9989910  50.4892120  20.5426490
 137.6019280  51.0612330  21.0175010 136.2582900  51.0531560  20.3200390
 140.1424510  50.8913680  15.8166770 140.3375140  51.7897130  16.0834200
 139.3554380  50.6600760  16.3099720 126.9385800  66.5726850  16.2559390
 126.4133420  66.9534880  15.5521350 126.8630380  67.1977620  16.9769100
 128.3276270  52.2374450  14.8543080 128.8569030  51.4504250  14.7251030
 128.9604590  52.9165640  15.0878610 130.5214110  51.9749590  17.9088470
 129.8916850  51.2736900  18.0758600 129.9819250  52.7353720  17.6921630
 133.4606060  68.5888820  30.5799080 134.3873370  68.3533090  30.6235040
 133.4456490  69.4160820  30.0985110 141.6951120  68.1314390  17.5773330
 141.8703310  67.4452130  16.9334250 140.9972690  68.6561440  17.1850000
 130.6469670  51.2533570  30.3440960 130.3653940  51.7567170  29.5801780
 131.0289370  50.4555320  29.9783090 129.5378770  68.5209230  15.1308640
 130.2697590  68.2368510  14.5832530 129.7972440  68.2822510  16.0208020
 128.6993560  64.6373960  15.1354970 128.0702440  65.1059060  15.6840800
 128.8141390  63.7923180  15.5701160 137.2485130  50.6687150  30.9221430
 137.1350580  50.9881760  31.8172950 138.0654870  51.0699660  30.6258710
 140.0283620  67.8158680  30.4040120 140.8208940  67.3207910  30.1966080
 140.3216770  68.4948820  31.0115730 134.2861320  60.4658640   3.1665440
 133.5103420  59.9859080   3.4564010 134.9374250  59.7864290   2.9921600
 128.3027150  60.7778450   4.0441200 127.4712030  60.5227160   4.4437710
 128.9108130  60.8489220   4.7799120 138.3068750  64.8718830   1.9464570
 137.8450280  64.1006070   2.2751740 139.1194300  64.8984900   2.4517020
 128.2828410  64.8118540   4.2399220 128.5856450  63.9216280   4.0609440
 129.0272000  65.3688760   4.0121470 124.6752110  58.3385990   3.7123290
 125.2468220  57.5708190   3.7126930 124.6753650  58.6374750   2.8029900
 133.7270310  63.1415830   3.1735600 133.6578590  62.2005770   3.0124730
 134.4890170  63.2317240   3.7458170 125.9176980  53.7470350   5.4992220
 125.7379820  52.8496100   5.7794980 125.5157060  54.2942220   6.1739170
 134.7575480  55.9486210   3.4004530 135.1340300  55.0758090   3.2878200
 134.6594990  56.2844910   2.5094970 126.5363650  56.2430850   4.1074560
 127.2173760  56.5069220   4.7261960 126.2211700  55.4031720   4.4412570
 130.7288220  57.2898210   3.1947150 131.2366440  57.7879180   3.8352170
 131.2601460  56.5133410   3.0186510 142.8299150  55.4603400   6.8976500
 142.1251320  55.8485110   6.3791610 143.0957070  56.1553690   7.4997430
 129.0124320  51.9296770   7.4610570 129.0142760  52.4469160   6.6556470
 128.1828630  51.4526950   7.4380500 130.2627170  61.5691950   5.6384070
 129.9296550  62.1960870   6.2805140 130.4393850  62.0953830   4.8585740
 138.7761080  55.3837030   3.1060410 138.0716650  55.6721920   3.6863520
 139.1373240  56.1937140   2.7459970 128.6939650  53.6406730   5.4681020
 129.0356460  54.4848780   5.1734890 127.7555460  53.7890470   5.5846360
 129.4746270  63.5372750   7.4533250 130.0920270  64.2123830   7.1717700
 128.6139390  63.9460730   7.3620750 140.3923860  65.0012160   5.3687890
 139.7087380  65.6711270   5.3604560 140.9318150  65.1992810   4.6032750
 141.8448000  54.8291820   3.4969620 140.8972910  54.8630800   3.6285050
 142.1697990  55.6430770   3.8818980 137.9282600  66.8456290   4.0833070
 137.9409760  66.4418580   3.2155330 137.3757820  67.6203580   3.9794500
 137.3268040  61.7486130   5.4115680 137.7436830  61.5346240   4.5769140
 138.0507860  62.0058920   5.9824300 141.2730140  60.1473350   5.5031920
 140.4448770  60.2166440   5.0282050 141.8680620  60.7327660   5.0347750
 138.2372150  56.9342670   6.4486790 137.8243330  57.7596380   6.7026780
 137.5048100  56.3487710   6.2563150 130.8386640  63.4070130   3.4744670
 130.5414930  62.8015600   2.7952450 131.7886460  63.4447440   3.3634030
 129.0833560  56.4945780   5.0904500 129.6348150  56.6041120   4.3157750
 129.5977070  56.8683380   5.8059730 138.9272250  66.9802000   7.1367770
 138.4502810  67.7874190   6.9440380 138.2434040  66.3280330   7.2893980
 129.9305070  63.1451820  10.1252470 129.0333600  63.3691790  10.3725870
 129.9557940  63.2686760   9.1763870 128.7576290  60.0165140   8.7009840
 128.6184060  60.8887940   9.0697240 127.8757650  59.6737950   8.5557780
 130.5556640  65.9586840  10.9094990 130.5272070  66.3629790  10.0423420
 130.3921610  65.0297200  10.7466590 142.5071460  66.7413940  12.2059160
 142.9831180  67.2196830  12.8848240 143.1278620  66.6731430  11.4804660
 124.7094940  61.7862690   4.6180750 124.7875360  61.9211460   3.6736470
 125.3236620  61.0778580   4.8108870 141.9104710  63.9326790   9.3659170
 142.0367770  63.6938670   8.4476350 141.9526090  63.1011330   9.8381250
 135.7721450  67.6354790   7.9353980 136.2866120  67.5462800   8.7376410
 134.9290530  67.9814490   8.2281890 141.7628720  55.9859250  10.3308910
 141.1472990  56.4938920   9.8024370 141.4425140  55.0857580  10.2734850
 124.7654460  62.8276860   7.1575210 124.9285500  62.3582220   6.3394580
 125.2306910  62.3200420   7.8224050 129.5373230  51.9582620   2.1935780
 129.0941380  52.7392160   1.8620300 130.0958220  52.2812510   2.9006720
 133.8243040  54.8251140   7.7971100 133.3622410  55.0334160   8.6091040
 133.4221150  54.0110490   7.4941770 138.8247550  56.0460090   8.9267760
 137.9741140  55.7465840   9.2476830 138.6649340  56.2902100   8.0151580
 135.9197260  57.5461840  11.0266550 136.2450670  56.7125590  10.6868780
 136.7077590  58.0690360  11.1744880 131.5749130  52.5029950   4.0525380
 131.8721460  53.4092780   3.9717400 132.1234690  52.0148730   3.4384950
 131.7686660  57.9801770  10.5877300 131.6730260  57.0396500  10.4377700
 132.6118640  58.2016840  10.1925370 126.8997200  54.3915440   8.7411080
 126.5060590  55.2390650   8.9483860 126.2115600  53.7541810   8.9319720
 133.4742250  54.4750410  11.8107820 132.7840570  54.2822610  12.4453910
 134.2174550  54.7585050  12.3432120 124.2014250  52.3143900   2.7741160
 123.9127300  52.8846760   3.4866140 124.9460010  51.8348350   3.1372390
 135.7505220  58.3148850   4.6461740 135.0186340  58.8235660   4.9951840
 135.3529560  57.4978830   4.3450520 132.1882610  54.9903050   3.0514230
 132.1918670  54.5493000   2.2018770 133.0833730  55.3120380   3.1586050
 128.0384990  54.8729540   2.0108440 127.6985040  55.3504770   2.7675490
 127.2762310  54.4194660   1.6509540 136.2131130  53.7682530   4.0584680
 136.2303870  54.2191180   4.9026530 135.9646710  52.8688170   4.2718120
 139.6401880  51.1814710   9.8971060 139.9647650  50.4504370  10.4229040
 139.6758390  50.8628350   8.9952050 126.3393440  62.2028290   9.3171020
 125.9548230  61.5621960   9.9153980 126.6505630  62.9064410   9.8865750
 132.4890580  59.0504830   4.7979640 132.8560710  58.5763400   5.5440980
 132.2995640  59.9246400   5.1387980 130.2789950  58.0913470   7.1163850
 129.9747020  58.9705450   7.3414210 131.2336410  58.1513260   7.1521290
 139.5659720  61.2939820   3.5057090 140.2858840  61.7895110   3.1153200
 139.3641540  60.6157710   2.8610960 134.9478520  61.3648880   9.3926090
 134.8815830  60.4444550   9.1383680 134.3183660  61.4624320  10.1070730
 126.3353680  58.9316210   8.2635210 125.9768620  59.5970060   8.8508550
 126.0408240  58.0999760   8.6347830 129.5366800  59.3900450  11.1474760
 129.2366940  59.5357630  10.2502580 130.3078040  58.8305740  11.0548150
 134.8795250  64.1869450   9.1429890 134.8939790  63.2550410   8.9248800
 134.1720350  64.2729210   9.7819660 141.0906460  60.8276790   8.4898470
 140.3654650  61.4205570   8.2927860 141.6181920  60.8200330   7.6911840
 134.3129150  65.8287020   6.2370390 134.9571370  66.0346400   6.9143810
 134.6758590  65.0675420   5.7841240 135.5861230  63.8319370   4.9547840
 136.2283460  63.1312530   5.0680010 136.1110580  64.6117810   4.7744730
 137.3598850  64.6314270   8.1583900 137.6955090  65.2180960   8.8361820
 136.4399190  64.5006980   8.3881690 124.9102250  52.4209450   8.9407310
 124.1960770  52.6206370   9.5459920 125.3297290  51.6449020   9.3122110
 125.1974840  66.4089710   9.9273840 125.3065960  65.4684450   9.7869230
 124.5455400  66.6744460   9.2787570 133.1887430  64.6805600  11.3271960
 132.8684300  63.9614840  11.8717650 132.5145790  65.3560670  11.4008020
 136.4041030  54.9131760   6.6908760 136.7721850  54.0926970   7.0188330
 135.5439230  54.9733650   7.1064410 133.3643020  57.5671350   6.9146730
 133.8628270  58.0417170   7.5798580 133.5065970  56.6434870   7.1216760
 140.5709880  53.7839310   7.7575120 140.0683480  54.5244710   8.0968930
 141.3866540  54.1723310   7.4411910 140.8657470  66.1981340   2.8790740
 140.9904890  67.0212510   3.3514550 141.7323030  65.9872070   2.5314890
 128.3375000  68.2912550   2.5507870 129.0737480  67.7428010   2.8216440
 128.7215920  69.1568560   2.4113860 127.3433280  67.4758620  11.7393450
 128.1446010  67.7970670  12.1528850 126.8285100  67.1154200  12.4613360
 136.1797910  63.5838490  11.6868860 135.5736070  63.6070090  10.9464610
 135.8752020  62.8521530  12.2236110 137.6098280  67.3118780  10.2978270
 138.5620030  67.2276800  10.2478510 137.4626500  67.9760490  10.9712060
 125.0631090  59.9632080  10.6829500 125.5670110  59.3839360  11.2545730
 124.3238510  60.2472310  11.2205870 132.1169030  61.3703070  10.2165020
 131.3514700  61.9388070  10.1319690 132.2984990  61.0779280   9.3233250
 139.2592380  63.1008400  10.7740040 140.0001850  63.4384160  10.2707500
 138.4965060  63.2700460  10.2209810 127.0954170  58.1061670  11.5779570
 127.1359510  57.8075540  12.4864800 127.9499670  58.5069280  11.4187090
 129.0359980  56.6853770   9.5454060 128.5056440  56.1944720   8.9177400
 129.7048050  57.1137970   9.0111990 137.9338040  61.1523230   9.3095250
 138.3479060  61.3068310  10.1585670 136.9989040  61.2778450   9.4721030
 138.4060210  58.4919390  11.3134400 138.9880980  57.7371710  11.2254880
 138.5821980  59.0226830  10.5365880 129.5232280  53.6516140   9.6251350
 129.4289150  53.0336890   8.9002220 128.9429670  54.3782430   9.3981260
 132.2893720  52.2089380   6.6578740 131.8411020  52.2313640   5.8124290
 131.6558920  51.8108400   7.2549040 132.6953270  61.1043710   7.2791180
 133.1141380  61.9476440   7.1067420 131.7761900  61.2415750   7.0497960
 135.0317170  58.8359890   8.6629020 135.1513380  58.2401030   9.4023860
 135.8911170  58.8729580   8.2430320 137.3705070  59.3897080   7.2391530
 136.8440290  59.9139700   6.6356670 137.7136410  60.0224470   7.8701260
 130.5460690  67.4096720   8.3948910 130.0081780  68.1342780   8.0757610
 130.7994650  66.9327060   7.6046250 131.7985940  55.3781240   9.9204840
 132.3885630  55.0697090  10.6082660 130.9806180  54.9060990  10.0764740
 136.6179370  54.9947050  10.1537860 135.9294890  54.3328590  10.0887850
 137.3385390  54.5485320  10.5986320 133.4022900  68.6447930   8.6535560
 133.3281600  69.5483070   8.9607930 132.5001740  68.3259830   8.6257630
 124.8050190  65.9722520   1.9569180 125.1353200  65.1043580   1.7247820
 125.2341190  66.1781040   2.7874140 125.2940400  66.8393110   4.6950810
 124.8571390  67.0193910   5.5274960 125.8618080  67.5967730   4.5532530
 140.9302580  66.3410110   8.9828120 140.3304570  66.4002670   8.2392040
 141.0596480  65.4015090   9.1124970 139.6154220  63.0662090   7.0804280
 138.8014060  63.4959250   7.3430070 140.0228420  63.6780500   6.4673330
 126.1640760  59.7365910   5.5943030 126.5313800  59.6493310   6.4739050
 125.5951580  58.9732460   5.4949890 140.9644620  58.2050290   8.6073500
 140.7330710  57.9763040   7.7071450 141.2249170  59.1249840   8.5618390
 125.7156760  56.6475000   9.5001450 124.8212810  56.6141760   9.8395160
 126.2554310  56.8461790  10.2652700 139.4032690  53.4306720  11.3853200
 140.2802870  53.4390120  11.7687200 139.4153530  52.6937560  10.7745550
 140.8495960  57.2836260   2.2741220 141.3733440  56.7898910   1.6431390
 141.4355380  57.4186620   3.0188790 141.0285680  57.3676130   5.7960770
 140.0788390  57.3339670   5.9105760 141.2098690  58.2776240   5.5610540
 126.2196470  50.9223330   3.8484670 126.8672660  50.3720710   3.4079830
 126.6398310  51.1766480   4.6700480 140.1148810  51.1164690   7.2054310
 140.7521030  51.7298830   7.5713500 140.2623700  51.1525350   6.2603540
 125.9728470  51.0779000   6.5909990 125.6243290  51.5342820   7.3568170
 125.6416170  50.1836130   6.6732420 127.5792840  64.2498600  10.7563180
 127.5362470  63.8791510  11.6377640 127.7103850  65.1876170  10.8965000
 131.2798870  65.8058190   6.3572900 131.0390230  66.0732750   5.4703420
 132.2201510  65.9763920   6.4123760 133.4853290  52.2690880  10.1129410
 133.4242180  52.8612710  10.8624820 134.4253670  52.1616840   9.9679670
 136.1227850  51.9260940   9.7521700 136.7368260  52.2440230   9.0902780
 136.6677410  51.4409530  10.3717560 142.5403030  67.8252570   7.1583540
 142.0461310  68.2221440   6.4410670 141.9316320  67.2001780   7.5520820
 126.6449110  50.6055200   9.8660760 127.1932100  50.4243250   9.1026870
 126.7104420  49.8149310  10.4017070 127.4180870  67.1960850   7.8760960
 126.8241190  67.0645550   8.6151000 127.4104710  66.3598990   7.4103060
 136.8635890  50.4893080   6.0790990 135.9895730  50.8228190   5.8763920
 136.7546640  50.0166260   6.9042860 137.7707870  52.6963950   7.4632710
 137.4421230  51.8815710   7.0834440 138.7190170  52.6533760   7.3398400
 140.2242480  68.4675990   4.4370280 139.7645450  69.2191800   4.0628300
 139.5954940  67.7482460   4.3785080 127.0493100  64.5619230   6.8269000
 126.3227160  63.9424520   6.7594950 127.1102250  64.9559840   5.9567080
 130.6538200  66.7764230   3.6118410 131.1703220  66.1651590   3.0866670
 131.3035580  67.2793010   4.1029420 133.3933700  67.6672720   4.4387390
 133.6811510  67.4127020   3.5620400 133.9056920  67.1150080   5.0292960
 134.6110710  51.4062920   5.0183900 133.8282500  51.8808420   5.2980660
 134.3173640  50.5017750   4.9097080 139.1631780  52.1086020   3.0632990
 139.6039870  52.0531120   2.2154590 138.8939370  53.0244030   3.1343170
 136.9989910  50.4892120   1.7683000 137.6019280  51.0612330   2.2431520
 136.2582900  51.0531560   1.5456900 133.4606060  68.5888820  11.8055590
 134.3873370  68.3533090  11.8491550 133.4456490  69.4160820  11.3241620
 130.6469670  51.2533570  11.5697470 130.3653940  51.7567170  10.8058290
 131.0289370  50.4555320  11.2039600 137.2485130  50.6687150  12.1477940
 137.1350580  50.9881760  13.0429460 138.0654870  51.0699660  11.8515220
 140.0283620  67.8158680  11.6296630 140.8208940  67.3207910  11.4222590
 140.3216770  68.4948820  12.2372240 136.1543280  39.9136130 151.4804090
 136.0737330  38.9990740 151.2095800 135.7407700  40.4103200 150.7743800
 134.2861320  41.6915150 153.3613360 133.5103420  41.2115590 153.6511930
 134.9374250  41.0120800 153.1869520 138.3068750  46.0975340 152.1412490
 137.8450280  45.3262580 152.4699660 139.1194300  46.1241410 152.6464940
 128.2828410  46.0375050 154.4347140 128.5856450  45.1472790 154.2557360
 129.0272000  46.5945270 154.2069390 126.7119100  36.9636850 148.0231510
 125.8235800  37.3052820 147.9211390 126.9960290  36.7637170 147.1312340
 124.6752110  39.5642500 153.9071210 125.2468220  38.7964700 153.9074850
 124.6753650  39.8631260 152.9977820 134.5332060  48.3833350 151.7616480
 133.9143500  48.8390850 151.1910920 135.3883840  48.5384810 151.3606180
 133.7270310  44.3672340 153.3683520 133.6578590  43.4262280 153.2072650
 134.4890170  44.4573750 153.9406090 134.7575480  37.1742720 153.5952450
 135.1340300  36.3014600 153.4826120 134.6594990  37.5101420 152.7042890
 128.8880490  35.5468350 149.0569890 128.9947240  36.4472080 149.3638650
 127.9772850  35.4986320 148.7664540 138.5399600  34.6693160 150.5280790
 139.3609220  34.1789730 150.5706270 138.5733680  35.2590820 151.2812630
 130.7288220  38.5154720 153.3895070 131.2366440  39.0135690 154.0300090
 131.2601460  37.7389920 153.2134430 135.3995410  43.2672590 149.1548390
 134.7812680  43.7322040 148.5911110 135.9118660  43.9600070 149.5717900
 138.7761080  36.6093540 153.3008330 138.0716650  36.8978430 153.8811440
 139.1373240  37.4193650 152.9407890 124.7678610  43.9529120 146.5288020
 124.3906590  44.4416220 145.7972920 125.0251680  44.6254400 147.1594550
 141.8448000  36.0548330 153.6917540 140.8972910  36.0887310 153.8232970
 142.1697990  36.8687280 154.0766900 132.3767540  32.3545510 151.9873530
 132.6842520  31.7992400 151.2709030 131.4468240  32.4889970 151.8046520
 137.9282600  48.0712800 154.2780990 137.9409760  47.6675090 153.4103250
 137.3757820  48.8460090 154.1742420 139.2228020  44.7929020 149.3671160
 139.1124350  43.8503350 149.4920580 139.2196270  45.1544660 150.2533920
 134.7648300  40.4194340 148.7233650 133.8377580  40.3531720 148.9522120
 134.9173120  41.3574470 148.6088890 134.7517380  36.6911340 145.7200810
 133.8121050  36.8525300 145.8053270 135.0700640  37.4097020 145.1736800
 138.7945590  41.9814640 149.2268900 138.1758010  41.6434190 148.5795200
 138.7770040  41.3374400 149.9348090 130.3704940  40.9459080 151.5053380
 129.9661940  40.2336330 151.0099280 130.4568060  40.6012320 152.3941420
 130.8386640  44.6326640 153.6692590 130.5414930  44.0272110 152.9900370
 131.7886460  44.6703950 153.5581950 136.9710290  41.2201450 146.2341650
 137.4103570  40.3823880 146.0879470 137.6838710  41.8530850 146.3205790
 135.0805670  46.1597520 150.2022890 135.5201580  46.9021850 149.7878280
 135.0192560  46.4024090 151.1261850 140.5527430  32.4744260 144.5482690
 140.2400090  32.5671090 145.4481760 141.3139900  33.0525290 144.4980120
 127.0709570  39.8404060 149.0060030 126.9507170  40.5666150 148.3941300
 126.7610460  39.0706970 148.5287940 125.9542570  44.7119390 151.2234850
 125.5470650  44.8533980 150.3688450 126.8455580  44.4279550 151.0206060
 137.7475850  49.1466640 147.5585900 137.5876990  48.8569580 148.4567730
 137.5822560  48.3706770 147.0231130 130.2264230  48.9265170 149.3357520
 130.0506710  48.0100710 149.1225320 129.3719970  49.2852460 149.5755320
 137.4501980  46.6554200 146.1183900 136.7567140  46.6531490 145.4586180
 138.1924840  46.2313520 145.6878070 137.0151910  48.2816910 150.1932390
 137.4708860  47.5006290 150.5071010 137.3544430  48.9923730 150.7373570
 129.5373230  33.1839130 152.3883700 129.0941380  33.9648670 152.0568220
 130.0958220  33.5069020 153.0954640 132.6532050  32.8049830 147.2689530
 132.0286230  32.8009700 147.9942840 132.5662170  31.9380790 146.8725500
 131.5749130  33.7286460 154.2473300 131.8721460  34.6349290 154.1665320
 132.1234690  33.2405240 153.6332870 129.3287450  38.3072700 150.1164950
 129.1028370  38.0909870 151.0211570 128.5479980  38.7401160 149.7710920
 136.5585210  38.3136070 148.7155600 135.9594100  39.0371870 148.5319220
 137.1064820  38.2512850 147.9332050 135.1650080  36.9499610 150.7458880
 135.5579650  37.2671810 149.9327570 135.5266930  36.0711490 150.8603400
 124.2014250  33.5400410 152.9689080 123.9127300  34.1103270 153.6814060
 124.9460010  33.0604860 153.3320310 124.3884480  37.4820530 144.1791800
 124.3059150  38.4251290 144.3206790 124.0367540  37.3395440 143.3004150
 132.1882610  36.2159560 153.2462150 132.1918670  35.7749510 152.3966690
 133.0833730  36.5376890 153.3533970 128.0384990  36.0986050 152.2056360
 127.6985040  36.5761280 152.9623410 127.2762310  35.6451170 151.8457460
 132.2502760  37.2171640 146.2368910 132.3715580  37.1758120 147.1854730
 131.8651270  38.0795790 146.0815640 131.2624260  39.5272780 145.6352210
 130.6941160  39.0791030 145.0088120 131.9713260  39.8865560 145.1017360
 125.3531070  35.0205030 151.1221030 125.0677990  34.6560700 151.9599650
 125.2909930  34.2885490 150.5084170 128.8071740  43.5230970 147.9078620
 128.0334000  42.9828590 147.7477340 129.5366370  43.0037580 147.5696380
 139.5659720  42.5196330 153.7005010 140.2858840  43.0151620 153.3101120
 139.3641540  41.8414220 153.0558880 135.0269660  33.9134290 147.8434400
 134.2134270  33.4147460 147.7679710 134.8331610  34.7532540 147.4270750
 137.7418050  38.2853940 146.1396560 138.6297670  38.5971170 145.9647900
 137.7123140  37.4126190 145.7477140 128.8509140  43.1911350 151.5457430
 129.3687810  42.3879610 151.4914320 128.3993160  43.1290490 152.3874260
 133.7378640  44.4577630 146.8184730 134.0794340  45.2019860 146.3228050
 132.9091350  44.7708750 147.1809560 140.0132320  39.5965780 145.6076420
 139.9296040  40.0280000 144.7572860 140.7326510  40.0564130 146.0403240
 141.0419570  46.4508040 148.3358550 140.3995730  45.7963660 148.6102270
 140.6550230  46.8563130 147.5599220 136.6206050  43.7793470 152.1830240
 136.9729870  43.1821600 151.5231610 135.7368380  43.4537700 152.3538490
 132.7069330  44.5391160 149.5900650 133.3940460  45.0860370 149.9708240
 131.9201750  45.0831890 149.6250260 124.8461730  40.1563980 145.0817730
 125.7156580  40.4388780 145.3653650 124.3552050  40.9699850 144.9666540
 132.0096540  41.5437190 149.2026010 132.4659320  42.3542440 149.4286200
 131.6584750  41.2260330 150.0344500 127.9108320  31.8874840 149.6748530
 127.7822950  31.8792740 150.6233450 127.0870340  32.2257930 149.3239540
 139.4316950  45.3424500 144.8734900 139.2054530  44.6254940 145.4659540
 139.0413150  45.0936940 144.0356650 125.2132980  49.3691360 145.6479360
 125.5730620  49.9680700 144.9936630 125.0725320  49.9151250 146.4214390
 139.0133200  43.2596440 146.5349060 138.7254900  43.7209130 147.3226940
 139.8085370  42.7994210 146.8033280 131.2301600  46.7522560 146.4653030
 131.2211700  47.4852250 145.8497540 130.3099960  46.5054140 146.5579990
 126.8308240  41.9737450 147.2099790 126.2236190  42.7136350 147.2195090
 127.3057590  42.0636810 146.3837990 139.7703060  35.0945210 147.6944240
 139.1416220  35.1990880 146.9802470 139.2754980  35.3141990 148.4838120
 134.2161200  46.8150800 145.1278220 134.3173180  46.6114790 144.1980200
 133.3162940  46.5609080 145.3326000 131.7387090  37.3731160 149.1102120
 131.0303240  37.8417500 149.5515730 132.0231570  36.7153170 149.7447310
 135.7702520  34.0981820 150.5497910 135.6470300  34.1167950 149.6007420
 136.7187080  34.1460760 150.6696310 132.8579310  49.3337120 149.8225890
 133.1120810  49.2958510 148.9005260 131.9091790  49.2070450 149.8154140
 129.9422110  35.6816240 146.4852830 130.7912640  36.1186390 146.4193020
 129.5753380  35.9936500 147.3124890 138.8631890  40.2529000 151.3984400
 137.9222030  40.2679230 151.5732090 139.1775960  39.4664960 151.8444700
 128.8413530  41.9348600 144.9588360 129.6076800  41.8229960 145.5213790
 128.9188220  41.2386570 144.3065130 127.5360290  39.3673670 145.6421250
 127.6163880  38.4201180 145.7538650 128.4280040  39.6980550 145.7481910
 140.8657470  47.4237850 153.0738660 140.9904890  48.2469020 153.5462470
 141.7323030  47.2128580 152.7262810 128.3375000  49.5169060 152.7455790
 129.0737480  48.9684520 153.0164360 128.7215920  50.3825070 152.6061780
 125.2220480  45.5842630 148.6197300 124.2960260  45.8263770 148.6102710
 125.6876910  46.4116890 148.4982050 131.4477310  48.6899370 144.5681360
 132.2405920  48.9788200 144.1163150 130.9281660  48.2591540 143.8893840
 140.5007480  47.9169500 145.9918100 140.2148990  47.5034640 145.1772280
 140.3027030  48.8457210 145.8718620 131.9654710  43.9102780 144.4323710
 131.8605350  43.2955130 145.1585090 131.7978930  43.3868670 143.6486720
 135.2057440  42.9722810 145.0365700 134.6567540  43.4192110 145.6808440
 135.8276700  42.4672060 145.5603370 130.8732560  41.9313730 146.9331000
 131.2948980  41.7653600 147.7762390 130.9983400  41.1213960 146.4386140
 133.3860200  40.9551340 144.1808100 133.9065860  40.2400360 143.8149250
 134.0328600  41.5937210 144.4808610 129.7691460  38.0046960 143.8789160
 129.5680520  37.1414320 144.2402500 129.5983510  37.9180320 142.9410760
 137.2479770  32.8155190 146.4076040 137.5282060  31.9723090 146.7635460
 136.4745500  33.0478300 146.9214790 128.5674260  35.1047580 143.8667040
 128.8700160  35.1115010 142.9586190 129.3068850  34.7545440 144.3634700
 131.7859190  34.0482200 144.8523240 131.4381190  33.3706190 144.2725690
 131.9871960  33.5871710 145.6666630 133.9508230  49.0362950 146.4709840
 134.8459020  49.3747920 146.4928600 133.9825860  48.3142360 145.8434120
 127.5904390  44.4090000 144.6996840 128.0279260  44.9519670 145.3554420
 128.0752120  43.5836950 144.7093180 124.8050190  47.1979030 152.1517100
 125.1353200  46.3300090 151.9195740 125.2341190  47.4037550 152.9822060
 129.4012110  45.5288040 149.8119070 129.1007650  45.4053010 150.7122980
 129.2949600  44.6696630 149.4034800 142.1704030  45.3084440 144.5145750
 141.3396990  45.3761090 144.9852980 142.3475860  46.1988560 144.2112610
 141.6260490  42.0531920 147.0179950 142.3879400  42.6228570 147.1239640
 141.6414860  41.4859120 147.7888260 125.1264830  40.5769850 151.2487610
 124.4713670  40.3081490 150.6047310 125.9642780  40.4674330 150.7989590
 142.6320460  42.9082020 151.8621880 143.0029290  42.1249340 151.4557850
 143.2722390  43.5971120 151.6839180 141.6779660  42.3466290 144.1752470
 141.9528500  43.2545170 144.0471690 141.4890400  42.2828820 145.1114460
 138.0755270  35.3711140 145.4706100 138.4940150  35.1842120 144.6302760
 137.7691330  34.5190190 145.7809030 141.5745000  40.2835280 149.1681900
 141.1988600  39.5163210 148.7363190 140.8448120  40.6657980 149.6556830
 124.3402910  37.7868780 147.1912940 123.4366990  38.0498980 147.0164600
 124.8243530  38.0579950 146.4112900 140.8495960  38.5092770 152.4689140
 141.3733440  38.0155420 151.8379310 141.4355380  38.6443130 153.2136710
 126.8830120  36.8434320 145.1007320 127.5921820  36.4217540 144.6154600
 126.1670060  36.9109550 144.4690670 126.5304280  32.8973650 144.1409970
 127.2532410  33.4382590 144.4591190 126.8028800  32.6237070 143.2651510
 140.3395930  37.7666120 148.4081550 140.8355050  37.5336990 149.1930430
 140.1412000  36.9277960 147.9919190 141.7683090  36.4027070 150.9419230
 141.6582370  36.2483110 151.8801500 142.5290680  35.8748010 150.6994640
 142.6573360  34.2334990 144.1825370 143.5822670  34.1016170 143.9743660
 142.6349150  34.3127810 145.1361820 142.7311850  35.0045650 146.8082080
 141.9363350  34.9390770 147.3374990 142.9355130  35.9396290 146.7967430
 139.6730270  49.0437200 150.8020470 140.2689340  48.7221770 150.1254890
 139.9308420  48.5709020 151.5933740 130.6538200  48.0020740 153.8066330
 131.1703220  47.3908100 153.2814590 131.3035580  48.5049520 154.2977340
 139.1631780  33.3342530 153.2580910 139.6039870  33.2787630 152.4102510
 138.8939370  34.2500540 153.3291090 141.0270350  32.9657770 151.2689730
 140.9658750  32.0218990 151.1220750 141.8062380  33.0737860 151.8143190
 125.3323100  49.1050130 150.2313680 125.1645140  48.4720810 150.9295570
 124.4657610  49.3109530 149.8807870 125.9551120  32.9366910 147.7345540
 126.7130480  33.0495790 147.1609570 125.4928290  33.7736110 147.6888970
 132.4964930  35.0506180 150.7247850 131.6839440  34.6763070 150.3843730
 133.0006570  34.2951260 151.0269040 136.9989910  31.7148630 151.9630920
 137.6019280  32.2868840 152.4379440 136.2582900  32.2788070 151.7404820
 140.1424510  32.1170190 147.2371200 140.3375140  33.0153640 147.5038630
 139.3554380  31.8857270 147.7304150 126.9385800  47.7983360 147.6763820
 126.4133420  48.1791390 146.9725780 126.8630380  48.4234130 148.3973530
 128.3276270  33.4630960 146.2747510 128.8569030  32.6760760 146.1455460
 128.9604590  34.1422150 146.5083040 130.5214110  33.2006100 149.3292900
 129.8916850  32.4993410 149.4963030 129.9819250  33.9610230 149.1126060
 141.6951120  49.3570900 148.9977760 141.8703310  48.6708640 148.3538680
 140.9972690  49.8817950 148.6054430 129.5378770  49.7465740 146.5513070
 130.2697590  49.4625020 146.0036960 129.7972440  49.5079020 147.4412450
 128.6993560  45.8630470 146.5559400 128.0702440  46.3315570 147.1045230
 128.8141390  45.0179690 146.9905590 136.1543280  39.9136130 132.7060600
 136.0737330  38.9990740 132.4352310 135.7407700  40.4103200 132.0000310
 134.2861320  41.6915150 134.5869870 133.5103420  41.2115590 134.8768440
 134.9374250  41.0120800 134.4126030 128.3027150  42.0034960 135.4645630
 127.4712030  41.7483670 135.8642140 128.9108130  42.0745730 136.2003550
 138.3068750  46.0975340 133.3669000 137.8450280  45.3262580 133.6956170
 139.1194300  46.1241410 133.8721450 128.2828410  46.0375050 135.6603650
 128.5856450  45.1472790 135.4813870 129.0272000  46.5945270 135.4325900
 126.7119100  36.9636850 129.2488020 125.8235800  37.3052820 129.1467900
 126.9960290  36.7637170 128.3568850 124.6752110  39.5642500 135.1327720
 125.2468220  38.7964700 135.1331360 124.6753650  39.8631260 134.2234330
 134.5332060  48.3833350 132.9872990 133.9143500  48.8390850 132.4167430
 135.3883840  48.5384810 132.5862690 133.7270310  44.3672340 134.5940030
 133.6578590  43.4262280 134.4329160 134.4890170  44.4573750 135.1662600
 125.9176980  34.9726860 136.9196650 125.7379820  34.0752610 137.1999410
 125.5157060  35.5198730 137.5943600 134.7575480  37.1742720 134.8208960
 135.1340300  36.3014600 134.7082630 134.6594990  37.5101420 133.9299400
 128.8880490  35.5468350 130.2826400 128.9947240  36.4472080 130.5895160
 127.9772850  35.4986320 129.9921050 138.5399600  34.6693160 131.7537300
 139.3609220  34.1789730 131.7962780 138.5733680  35.2590820 132.5069140
 126.5363650  37.4687360 135.5278990 127.2173760  37.7325730 136.1466390
 126.2211700  36.6288230 135.8617000 130.7288220  38.5154720 134.6151580
 131.2366440  39.0135690 135.2556600 131.2601460  37.7389920 134.4390940
 142.8299150  36.6859910 138.3180930 142.1251320  37.0741620 137.7996040
 143.0957070  37.3810200 138.9201860 129.0124320  33.1553280 138.8815000
 129.0142760  33.6725670 138.0760900 128.1828630  32.6783460 138.8584930
 135.3995410  43.2672590 130.3804900 134.7812680  43.7322040 129.8167620
 135.9118660  43.9600070 130.7974410 130.2627170  42.7948460 137.0588500
 129.9296550  43.4217380 137.7009570 130.4393850  43.3210340 136.2790170
 138.7761080  36.6093540 134.5264840 138.0716650  36.8978430 135.1067950
 139.1373240  37.4193650 134.1664400 128.6939650  34.8663240 136.8885450
 129.0356460  35.7105290 136.5939320 127.7555460  35.0146980 137.0050790
 129.4746270  44.7629260 138.8737680 130.0920270  45.4380340 138.5922130
 128.6139390  45.1717240 138.7825180 124.7678610  43.9529120 127.7544530
 124.3906590  44.4416220 127.0229430 125.0251680  44.6254400 128.3851060
 140.3923860  46.2268670 136.7892320 139.7087380  46.8967780 136.7808990
 140.9318150  46.4249320 136.0237180 141.8448000  36.0548330 134.9174050
 140.8972910  36.0887310 135.0489480 142.1697990  36.8687280 135.3023410
 132.3767540  32.3545510 133.2130040 132.6842520  31.7992400 132.4965540
 131.4468240  32.4889970 133.0303030 137.9282600  48.0712800 135.5037500
 137.9409760  47.6675090 134.6359760 137.3757820  48.8460090 135.3998930
 139.2228020  44.7929020 130.5927670 139.1124350  43.8503350 130.7177090
 139.2196270  45.1544660 131.4790430 137.3268040  42.9742640 136.8320110
 137.7436830  42.7602750 135.9973570 138.0507860  43.2315430 137.4028730
 134.7648300  40.4194340 129.9490160 133.8377580  40.3531720 130.1778630
 134.9173120  41.3574470 129.8345400 134.7517380  36.6911340 126.9457320
 133.8121050  36.8525300 127.0309780 135.0700640  37.4097020 126.3993310
 141.2730140  41.3729860 136.9236350 140.4448770  41.4422950 136.4486480
 141.8680620  41.9584170 136.4552180 138.7945590  41.9814640 130.4525410
 138.1758010  41.6434190 129.8051710 138.7770040  41.3374400 131.1604600
 138.2372150  38.1599180 137.8691220 137.8243330  38.9852890 138.1231210
 137.5048100  37.5744220 137.6767580 130.3704940  40.9459080 132.7309890
 129.9661940  40.2336330 132.2355790 130.4568060  40.6012320 133.6197930
 130.8386640  44.6326640 134.8949100 130.5414930  44.0272110 134.2156880
 131.7886460  44.6703950 134.7838460 129.0833560  37.7202290 136.5108930
 129.6348150  37.8297630 135.7362180 129.5977070  38.0939890 137.2264160
 138.9272250  48.2058510 138.5572200 138.4502810  49.0130700 138.3644810
 138.2434040  47.5536840 138.7098410 129.9305070  44.3708330 141.5456900
 129.0333600  44.5948300 141.7930300 129.9557940  44.4943270 140.5968300
 136.9710290  41.2201450 127.4598160 137.4103570  40.3823880 127.3135980
 137.6838710  41.8530850 127.5462300 128.7576290  41.2421650 140.1214270
 128.6184060  42.1144450 140.4901670 127.8757650  40.8994460 139.9762210
 135.0805670  46.1597520 131.4279400 135.5201580  46.9021850 131.0134790
 135.0192560  46.4024090 132.3518360 130.5556640  47.1843350 142.3299420
 130.5272070  47.5886300 141.4627850 130.3921610  46.2553710 142.1671020
 140.5527430  32.4744260 125.7739200 140.2400090  32.5671090 126.6738270
 141.3139900  33.0525290 125.7236630 127.0709570  39.8404060 130.2316540
 126.9507170  40.5666150 129.6197810 126.7610460  39.0706970 129.7544450
 142.5071460  47.9670450 143.6263590 142.9831180  48.4453340 144.3052670
 143.1278620  47.8987940 142.9009090 124.7094940  43.0119200 136.0385180
 124.7875360  43.1467970 135.0940900 125.3236620  42.3035090 136.2313300
 125.9542570  44.7119390 132.4491360 125.5470650  44.8533980 131.5944960
 126.8455580  44.4279550 132.2462570 141.9104710  45.1583300 140.7863600
 142.0367770  44.9195180 139.8680780 141.9526090  44.3267840 141.2585680
 135.7721450  48.8611300 139.3558410 136.2866120  48.7719310 140.1580840
 134.9290530  49.2071000 139.6486320 137.7475850  49.1466640 128.7842410
 137.5876990  48.8569580 129.6824240 137.5822560  48.3706770 128.2487640
 130.2264230  48.9265170 130.5614030 130.0506710  48.0100710 130.3481830
 129.3719970  49.2852460 130.8011830 137.4501980  46.6554200 127.3440410
 136.7567140  46.6531490 126.6842690 138.1924840  46.2313520 126.9134580
 137.0151910  48.2816910 131.4188900 137.4708860  47.5006290 131.7327520
 137.3544430  48.9923730 131.9630080 141.7628720  37.2115760 141.7513340
 141.1472990  37.7195430 141.2228800 141.4425140  36.3114090 141.6939280
 124.7654460  44.0533370 138.5779640 124.9285500  43.5838730 137.7599010
 125.2306910  43.5456930 139.2428480 129.5373230  33.1839130 133.6140210
 129.0941380  33.9648670 133.2824730 130.0958220  33.5069020 134.3211150
 133.8243040  36.0507650 139.2175530 133.3622410  36.2590670 140.0295470
 133.4221150  35.2367000 138.9146200 138.8247550  37.2716600 140.3472190
 137.9741140  36.9722350 140.6681260 138.6649340  37.5158610 139.4356010
 135.9197260  38.7718350 142.4470980 136.2450670  37.9382100 142.1073210
 136.7077590  39.2946870 142.5949310 132.6532050  32.8049830 128.4946040
 132.0286230  32.8009700 129.2199350 132.5662170  31.9380790 128.0982010
 131.5749130  33.7286460 135.4729810 131.8721460  34.6349290 135.3921830
 132.1234690  33.2405240 134.8589380 129.3287450  38.3072700 131.3421460
 129.1028370  38.0909870 132.2468080 128.5479980  38.7401160 130.9967430
 136.5585210  38.3136070 129.9412110 135.9594100  39.0371870 129.7575730
 137.1064820  38.2512850 129.1588560 131.7686660  39.2058280 142.0081730
 131.6730260  38.2653010 141.8582130 132.6118640  39.4273350 141.6129800
 135.1650080  36.9499610 131.9715390 135.5579650  37.2671810 131.1584080
 135.5266930  36.0711490 132.0859910 126.8997200  35.6171950 140.1615510
 126.5060590  36.4647160 140.3688290 126.2115600  34.9798320 140.3524150
 133.4742250  35.7006920 143.2312250 132.7840570  35.5079120 143.8658340
 134.2174550  35.9841560 143.7636550 124.2014250  33.5400410 134.1945590
 123.9127300  34.1103270 134.9070570 124.9460010  33.0604860 134.5576820
 124.3884480  37.4820530 125.4048310 124.3059150  38.4251290 125.5463300
 124.0367540  37.3395440 124.5260660 135.7505220  39.5405360 136.0666170
 135.0186340  40.0492170 136.4156270 135.3529560  38.7235340 135.7654950
 132.1882610  36.2159560 134.4718660 132.1918670  35.7749510 133.6223200
 133.0833730  36.5376890 134.5790480 128.0384990  36.0986050 133.4312870
 127.6985040  36.5761280 134.1879920 127.2762310  35.6451170 133.0713970
 132.2502760  37.2171640 127.4625420 132.3715580  37.1758120 128.4111240
 131.8651270  38.0795790 127.3072150 136.2131130  34.9939040 135.4789110
 136.2303870  35.4447690 136.3230960 135.9646710  34.0944680 135.6922550
 131.2624260  39.5272780 126.8608720 130.6941160  39.0791030 126.2344630
 131.9713260  39.8865560 126.3273870 139.6401880  32.4071220 141.3175490
 139.9647650  31.6760880 141.8433470 139.6758390  32.0884860 140.4156480
 126.3393440  43.4284800 140.7375450 125.9548230  42.7878470 141.3358410
 126.6505630  44.1320920 141.3070180 132.4890580  40.2761340 136.2184070
 132.8560710  39.8019910 136.9645410 132.2995640  41.1502910 136.5592410
 125.3531070  35.0205030 132.3477540 125.0677990  34.6560700 133.1856160
 125.2909930  34.2885490 131.7340680 130.2789950  39.3169980 138.5368280
 129.9747020  40.1961960 138.7618640 131.2336410  39.3769770 138.5725720
 128.8071740  43.5230970 129.1335130 128.0334000  42.9828590 128.9733850
 129.5366370  43.0037580 128.7952890 139.5659720  42.5196330 134.9261520
 140.2858840  43.0151620 134.5357630 139.3641540  41.8414220 134.2815390
 135.0269660  33.9134290 129.0690910 134.2134270  33.4147460 128.9936220
 134.8331610  34.7532540 128.6527260 134.9478520  42.5905390 140.8130520
 134.8815830  41.6701060 140.5588110 134.3183660  42.6880830 141.5275160
 137.7418050  38.2853940 127.3653070 138.6297670  38.5971170 127.1904410
 137.7123140  37.4126190 126.9733650 128.8509140  43.1911350 132.7713940
 129.3687810  42.3879610 132.7170830 128.3993160  43.1290490 133.6130770
 133.7378640  44.4577630 128.0441240 134.0794340  45.2019860 127.5484560
 132.9091350  44.7708750 128.4066070 126.3353680  40.1572720 139.6839640
 125.9768620  40.8226570 140.2712980 126.0408240  39.3256270 140.0552260
 129.5366800  40.6156960 142.5679190 129.2366940  40.7614140 141.6707010
 130.3078040  40.0562250 142.4752580 134.8795250  45.4125960 140.5634320
 134.8939790  44.4806920 140.3453230 134.1720350  45.4985720 141.2024090
 140.0132320  39.5965780 126.8332930 139.9296040  40.0280000 125.9829370
 140.7326510  40.0564130 127.2659750 141.0906460  42.0533300 139.9102900
 140.3654650  42.6462080 139.7132290 141.6181920  42.0456840 139.1116270
 141.0419570  46.4508040 129.5615060 140.3995730  45.7963660 129.8358780
 140.6550230  46.8563130 128.7855730 136.6206050  43.7793470 133.4086750
 136.9729870  43.1821600 132.7488120 135.7368380  43.4537700 133.5795000
 132.7069330  44.5391160 130.8157160 133.3940460  45.0860370 131.1964750
 131.9201750  45.0831890 130.8506770 124.8461730  40.1563980 126.3074240
 125.7156580  40.4388780 126.5910160 124.3552050  40.9699850 126.1923050
 132.0096540  41.5437190 130.4282520 132.4659320  42.3542440 130.6542710
 131.6584750  41.2260330 131.2601010 134.3129150  47.0543530 137.6574820
 134.9571370  47.2602910 138.3348240 134.6758590  46.2931930 137.2045670
 127.9108320  31.8874840 130.9005040 127.7822950  31.8792740 131.8489960
 127.0870340  32.2257930 130.5496050 135.5861230  45.0575880 136.3752270
 136.2283460  44.3569040 136.4884440 136.1110580  45.8374320 136.1949160
 139.4316950  45.3424500 126.0991410 139.2054530  44.6254940 126.6916050
 139.0413150  45.0936940 125.2613160 137.3598850  45.8570780 139.5788330
 137.6955090  46.4437470 140.2566250 136.4399190  45.7263490 139.8086120
 125.2132980  49.3691360 126.8735870 125.5730620  49.9680700 126.2193140
 125.0725320  49.9151250 127.6470900 124.9102250  33.6465960 140.3611740
 124.1960770  33.8462880 140.9664350 125.3297290  32.8705530 140.7326540
 139.0133200  43.2596440 127.7605570 138.7254900  43.7209130 128.5483450
 139.8085370  42.7994210 128.0289790 125.1974840  47.6346220 141.3478270
 125.3065960  46.6940960 141.2073660 124.5455400  47.9000970 140.6992000
 133.1887430  45.9062110 142.7476390 132.8684300  45.1871350 143.2922080
 132.5145790  46.5817180 142.8212450 131.2301600  46.7522560 127.6909540
 131.2211700  47.4852250 127.0754050 130.3099960  46.5054140 127.7836500
 126.8308240  41.9737450 128.4356300 126.2236190  42.7136350 128.4451600
 127.3057590  42.0636810 127.6094500 136.4041030  36.1388270 138.1113190
 136.7721850  35.3183480 138.4392760 135.5439230  36.1990160 138.5268840
 139.7703060  35.0945210 128.9200750 139.1416220  35.1990880 128.2058980
 139.2754980  35.3141990 129.7094630 134.2161200  46.8150800 126.3534730
 134.3173180  46.6114790 125.4236710 133.3162940  46.5609080 126.5582510
 131.7387090  37.3731160 130.3358630 131.0303240  37.8417500 130.7772240
 132.0231570  36.7153170 130.9703820 133.3643020  38.7927860 138.3351160
 133.8628270  39.2673680 139.0003010 133.5065970  37.8691380 138.5421190
 135.7702520  34.0981820 131.7754420 135.6470300  34.1167950 130.8263930
 136.7187080  34.1460760 131.8952820 132.8579310  49.3337120 131.0482400
 133.1120810  49.2958510 130.1261770 131.9091790  49.2070450 131.0410650
 129.9422110  35.6816240 127.7109340 130.7912640  36.1186390 127.6449530
 129.5753380  35.9936500 128.5381400 140.5709880  35.0095820 139.1779550
 140.0683480  35.7501220 139.5173360 141.3866540  35.3979820 138.8616340
 138.8631890  40.2529000 132.6240910 137.9222030  40.2679230 132.7988600
 139.1775960  39.4664960 133.0701210 128.8413530  41.9348600 126.1844870
 129.6076800  41.8229960 126.7470300 128.9188220  41.2386570 125.5321640
 127.5360290  39.3673670 126.8677760 127.6163880  38.4201180 126.9795160
 128.4280040  39.6980550 126.9738420 140.8657470  47.4237850 134.2995170
 140.9904890  48.2469020 134.7718980 141.7323030  47.2128580 133.9519320
 128.3375000  49.5169060 133.9712300 129.0737480  48.9684520 134.2420870
 128.7215920  50.3825070 133.8318290 125.2220480  45.5842630 129.8453810
 124.2960260  45.8263770 129.8359220 125.6876910  46.4116890 129.7238560
 127.3433280  48.7015130 143.1597880 128.1446010  49.0227180 143.5733280
 126.8285100  48.3410710 143.8817790 131.4477310  48.6899370 125.7937870
 132.2405920  48.9788200 125.3419660 130.9281660  48.2591540 125.1150350
 136.1797910  44.8095000 143.1073290 135.5736070  44.8326600 142.3669040
 135.8752020  44.0778040 143.6440540 137.6098280  48.5375290 141.7182700
 138.5620030  48.4533310 141.6682940 137.4626500  49.2017000 142.3916490
 140.5007480  47.9169500 127.2174610 140.2148990  47.5034640 126.4028790
 140.3027030  48.8457210 127.0975130 125.0631090  41.1888590 142.1033930
 125.5670110  40.6095870 142.6750160 124.3238510  41.4728820 142.6410300
 131.9654710  43.9102780 125.6580220 131.8605350  43.2955130 126.3841600
 131.7978930  43.3868670 124.8743230 132.1169030  42.5959580 141.6369450
 131.3514700  43.1644580 141.5524120 132.2984990  42.3035790 140.7437680
 135.2057440  42.9722810 126.2622210 134.6567540  43.4192110 126.9064950
 135.8276700  42.4672060 126.7859880 139.2592380  44.3264910 142.1944470
 140.0001850  44.6640670 141.6911930 138.4965060  44.4956970 141.6414240
 127.0954170  39.3318180 142.9984000 127.1359510  39.0332050 143.9069230
 127.9499670  39.7325790 142.8391520 130.8732560  41.9313730 128.1587510
 131.2948980  41.7653600 129.0018900 130.9983400  41.1213960 127.6642650
 129.0359980  37.9110280 140.9658490 128.5056440  37.4201230 140.3381830
 129.7048050  38.3394480 140.4316420 133.3860200  40.9551340 125.4064610
 133.9065860  40.2400360 125.0405760 134.0328600  41.5937210 125.7065120
 137.9338040  42.3779740 140.7299680 138.3479060  42.5324820 141.5790100
 136.9989040  42.5034960 140.8925460 138.4060210  39.7175900 142.7338830
 138.9880980  38.9628220 142.6459310 138.5821980  40.2483340 141.9570310
 129.5232280  34.8772650 141.0455780 129.4289150  34.2593400 140.3206650
 128.9429670  35.6038940 140.8185690 132.2893720  33.4345890 138.0783170
 131.8411020  33.4570150 137.2328720 131.6558920  33.0364910 138.6753470
 132.6953270  42.3300220 138.6995610 133.1141380  43.1732950 138.5271850
 131.7761900  42.4672260 138.4702390 135.0317170  40.0616400 140.0833450
 135.1513380  39.4657540 140.8228290 135.8911170  40.0986090 139.6634750
 137.3705070  40.6153590 138.6595960 136.8440290  41.1396210 138.0561100
 137.7136410  41.2480980 139.2905690 129.7691460  38.0046960 125.1045670
 129.5680520  37.1414320 125.4659010 129.5983510  37.9180320 124.1667270
 130.5460690  48.6353230 139.8153340 130.0081780  49.3599290 139.4962040
 130.7994650  48.1583570 139.0250680 131.7985940  36.6037750 141.3409270
 132.3885630  36.2953600 142.0287090 130.9806180  36.1317500 141.4969170
 136.6179370  36.2203560 141.5742290 135.9294890  35.5585100 141.5092280
 137.3385390  35.7741830 142.0190750 137.2479770  32.8155190 127.6332550
 137.5282060  31.9723090 127.9891970 136.4745500  33.0478300 128.1471300
 128.5674260  35.1047580 125.0923550 128.8700160  35.1115010 124.1842700
 129.3068850  34.7545440 125.5891210 133.4022900  49.8704440 140.0739990
 133.3281600  50.7739580 140.3812360 132.5001740  49.5516340 140.0462060
 131.7859190  34.0482200 126.0779750 131.4381190  33.3706190 125.4982200
 131.9871960  33.5871710 126.8923140 133.9508230  49.0362950 127.6966350
 134.8459020  49.3747920 127.7185110 133.9825860  48.3142360 127.0690630
 127.5904390  44.4090000 125.9253350 128.0279260  44.9519670 126.5810930
 128.0752120  43.5836950 125.9349690 124.8050190  47.1979030 133.3773610
 125.1353200  46.3300090 133.1452250 125.2341190  47.4037550 134.2078570
 129.4012110  45.5288040 131.0375580 129.1007650  45.4053010 131.9379490
 129.2949600  44.6696630 130.6291310 125.2940400  48.0649620 136.1155240
 124.8571390  48.2450420 136.9479390 125.8618080  48.8224240 135.9736960
 140.9302580  47.5666620 140.4032550 140.3304570  47.6259180 139.6596470
 141.0596480  46.6271600 140.5329400 142.1704030  45.3084440 125.7402260
 141.3396990  45.3761090 126.2109490 142.3475860  46.1988560 125.4369120
 141.6260490  42.0531920 128.2436460 142.3879400  42.6228570 128.3496150
 141.6414860  41.4859120 129.0144770 125.1264830  40.5769850 132.4744120
 124.4713670  40.3081490 131.8303820 125.9642780  40.4674330 132.0246100
 142.6320460  42.9082020 133.0878390 143.0029290  42.1249340 132.6814360
 143.2722390  43.5971120 132.9095690 139.6154220  44.2918600 138.5008710
 138.8014060  44.7215760 138.7634500 140.0228420  44.9037010 137.8877760
 141.6779660  42.3466290 125.4008980 141.9528500  43.2545170 125.2728200
 141.4890400  42.2828820 126.3370970 138.0755270  35.3711140 126.6962610
 138.4940150  35.1842120 125.8559270 137.7691330  34.5190190 127.0065540
 141.5745000  40.2835280 130.3938410 141.1988600  39.5163210 129.9619700
 140.8448120  40.6657980 130.8813340 126.1640760  40.9622420 137.0147460
 126.5313800  40.8749820 137.8943480 125.5951580  40.1988970 136.9154320
 140.9644620  39.4306800 140.0277930 140.7330710  39.2019550 139.1275880
 141.2249170  40.3506350 139.9822820 125.7156760  37.8731510 140.9205880
 124.8212810  37.8398270 141.2599590 126.2554310  38.0718300 141.6857130
 139.4032690  34.6563230 142.8057630 140.2802870  34.6646630 143.1891630
 139.4153530  33.9194070 142.1949980 124.3402910  37.7868780 128.4169450
 123.4366990  38.0498980 128.2421110 124.8243530  38.0579950 127.6369410
 140.8495960  38.5092770 133.6945650 141.3733440  38.0155420 133.0635820
 141.4355380  38.6443130 134.4393220 141.0285680  38.5932640 137.2165200
 140.0788390  38.5596180 137.3310190 141.2098690  39.5032750 136.9814970
 126.8830120  36.8434320 126.3263830 127.5921820  36.4217540 125.8411110
 126.1670060  36.9109550 125.6947180 126.5304280  32.8973650 125.3666480
 127.2532410  33.4382590 125.6847700 126.8028800  32.6237070 124.4908020
 140.3395930  37.7666120 129.6338060 140.8355050  37.5336990 130.4186940
 140.1412000  36.9277960 129.2175700 126.2196470  32.1479840 135.2689100
 126.8672660  31.5977220 134.8284260 126.6398310  32.4022990 136.0904910
 141.7683090  36.4027070 132.1675740 141.6582370  36.2483110 133.1058010
 142.5290680  35.8748010 131.9251150 140.1148810  32.3421200 138.6258740
 140.7521030  32.9555340 138.9917930 140.2623700  32.3781860 137.6807970
 142.6573360  34.2334990 125.4081880 143.5822670  34.1016170 125.2000170
 142.6349150  34.3127810 126.3618330 142.7311850  35.0045650 128.0338590
 141.9363350  34.9390770 128.5631500 142.9355130  35.9396290 128.0223940
 139.6730270  49.0437200 132.0276980 140.2689340  48.7221770 131.3511400
 139.9308420  48.5709020 132.8190250 125.9728470  32.3035510 138.0114420
 125.6243290  32.7599330 138.7772600 125.6416170  31.4092640 138.0936850
 127.5792840  45.4755110 142.1767610 127.5362470  45.1048020 143.0582070
 127.7103850  46.4132680 142.3169430 131.2798870  47.0314700 137.7777330
 131.0390230  47.2989260 136.8907850 132.2201510  47.2020430 137.8328190
 133.4853290  33.4947390 141.5333840 133.4242180  34.0869220 142.2829250
 134.4253670  33.3873350 141.3884100 136.1227850  33.1517450 141.1726130
 136.7368260  33.4696740 140.5107210 136.6677410  32.6666040 141.7921990
 142.5403030  49.0509080 138.5787970 142.0461310  49.4477950 137.8615100
 141.9316320  48.4258290 138.9725250 126.6449110  31.8311710 141.2865190
 127.1932100  31.6499760 140.5231300 126.7104420  31.0405820 141.8221500
 127.4180870  48.4217360 139.2965390 126.8241190  48.2902060 140.0355430
 127.4104710  47.5855500 138.8307490 136.8635890  31.7149590 137.4995420
 135.9895730  32.0484700 137.2968350 136.7546640  31.2422770 138.3247290
 137.7707870  33.9220460 138.8837140 137.4421230  33.1072220 138.5038870
 138.7190170  33.8790270 138.7602830 140.2242480  49.6932500 135.8574710
 139.7645450  50.4448310 135.4832730 139.5954940  48.9738970 135.7989510
 127.0493100  45.7875740 138.2473430 126.3227160  45.1681030 138.1799380
 127.1102250  46.1816350 137.3771510 130.6538200  48.0020740 135.0322840
 131.1703220  47.3908100 134.5071100 131.3035580  48.5049520 135.5233850
 133.3933700  48.8929230 135.8591820 133.6811510  48.6383530 134.9824830
 133.9056920  48.3406590 136.4497390 134.6110710  32.6319430 136.4388330
 133.8282500  33.1064930 136.7185090 134.3173640  31.7274260 136.3301510
 139.1631780  33.3342530 134.4837420 139.6039870  33.2787630 133.6359020
 138.8939370  34.2500540 134.5547600 141.0270350  32.9657770 132.4946240
 140.9658750  32.0218990 132.3477260 141.8062380  33.0737860 133.0399700
 125.3323100  49.1050130 131.4570190 125.1645140  48.4720810 132.1552080
 124.4657610  49.3109530 131.1064380 125.9551120  32.9366910 128.9602050
 126.7130480  33.0495790 128.3866080 125.4928290  33.7736110 128.9145480
 132.4964930  35.0506180 131.9504360 131.6839440  34.6763070 131.6100240
 133.0006570  34.2951260 132.2525550 136.9989910  31.7148630 133.1887430
 137.6019280  32.2868840 133.6635950 136.2582900  32.2788070 132.9661330
 140.1424510  32.1170190 128.4627710 140.3375140  33.0153640 128.7295140
 139.3554380  31.8857270 128.9560660 126.9385800  47.7983360 128.9020330
 126.4133420  48.1791390 128.1982290 126.8630380  48.4234130 129.6230040
 128.3276270  33.4630960 127.5004020 128.8569030  32.6760760 127.3711970
 128.9604590  34.1422150 127.7339550 130.5214110  33.2006100 130.5549410
 129.8916850  32.4993410 130.7219540 129.9819250  33.9610230 130.3382570
 133.4606060  49.8145330 143.2260020 134.3873370  49.5789600 143.2695980
 133.4456490  50.6417330 142.7446050 141.6951120  49.3570900 130.2234270
 141.8703310  48.6708640 129.5795190 140.9972690  49.8817950 129.8310940
 130.6469670  32.4790080 142.9901900 130.3653940  32.9823680 142.2262720
 131.0289370  31.6811830 142.6244030 129.5378770  49.7465740 127.7769580
 130.2697590  49.4625020 127.2293470 129.7972440  49.5079020 128.6668960
 128.6993560  45.8630470 127.7815910 128.0702440  46.3315570 128.3301740
 128.8141390  45.0179690 128.2162100 137.2485130  31.8943660 143.5682370
 137.1350580  32.2138270 144.4633890 138.0654870  32.2956170 143.2719650
 140.0283620  49.0415190 143.0501060 140.8208940  48.5464420 142.8427020
 140.3216770  49.7205330 143.6576670 136.1543280  39.9136130 113.9317110
 136.0737330  38.9990740 113.6608820 135.7407700  40.4103200 113.2256820
 134.2861320  41.6915150 115.8126380 133.5103420  41.2115590 116.1024950
 134.9374250  41.0120800 115.6382540 128.3027150  42.0034960 116.6902140
 127.4712030  41.7483670 117.0898650 128.9108130  42.0745730 117.4260060
 138.3068750  46.0975340 114.5925510 137.8450280  45.3262580 114.9212680
 139.1194300  46.1241410 115.0977960 128.2828410  46.0375050 116.8860160
 128.5856450  45.1472790 116.7070380 129.0272000  46.5945270 116.6582410
 126.7119100  36.9636850 110.4744530 125.8235800  37.3052820 110.3724410
 126.9960290  36.7637170 109.5825360 124.6752110  39.5642500 116.3584230
 125.2468220  38.7964700 116.3587870 124.6753650  39.8631260 115.4490840
 134.5332060  48.3833350 114.2129500 133.9143500  48.8390850 113.6423940
 135.3883840  48.5384810 113.8119200 133.7270310  44.3672340 115.8196540
 133.6578590  43.4262280 115.6585670 134.4890170  44.4573750 116.3919110
 125.9176980  34.9726860 118.1453160 125.7379820  34.0752610 118.4255920
 125.5157060  35.5198730 118.8200110 134.7575480  37.1742720 116.0465470
 135.1340300  36.3014600 115.9339140 134.6594990  37.5101420 115.1555910
 128.8880490  35.5468350 111.5082910 128.9947240  36.4472080 111.8151670
 127.9772850  35.4986320 111.2177560 138.5399600  34.6693160 112.9793810
 139.3609220  34.1789730 113.0219290 138.5733680  35.2590820 113.7325650
 126.5363650  37.4687360 116.7535500 127.2173760  37.7325730 117.3722900
 126.2211700  36.6288230 117.0873510 130.7288220  38.5154720 115.8408090
 131.2366440  39.0135690 116.4813110 131.2601460  37.7389920 115.6647450
 142.8299150  36.6859910 119.5437440 142.1251320  37.0741620 119.0252550
 143.0957070  37.3810200 120.1458370 129.0124320  33.1553280 120.1071510
 129.0142760  33.6725670 119.3017410 128.1828630  32.6783460 120.0841440
 135.3995410  43.2672590 111.6061410 134.7812680  43.7322040 111.0424130
 135.9118660  43.9600070 112.0230920 130.2627170  42.7948460 118.2845010
 129.9296550  43.4217380 118.9266080 130.4393850  43.3210340 117.5046680
 138.7761080  36.6093540 115.7521350 138.0716650  36.8978430 116.3324460
 139.1373240  37.4193650 115.3920910 128.6939650  34.8663240 118.1141960
 129.0356460  35.7105290 117.8195830 127.7555460  35.0146980 118.2307300
 129.4746270  44.7629260 120.0994190 130.0920270  45.4380340 119.8178640
 128.6139390  45.1717240 120.0081690 124.7678610  43.9529120 108.9801040
 124.3906590  44.4416220 108.2485940 125.0251680  44.6254400 109.6107570
 140.3923860  46.2268670 118.0148830 139.7087380  46.8967780 118.0065500
 140.9318150  46.4249320 117.2493690 141.8448000  36.0548330 116.1430560
 140.8972910  36.0887310 116.2745990 142.1697990  36.8687280 116.5279920
 132.3767540  32.3545510 114.4386550 132.6842520  31.7992400 113.7222050
 131.4468240  32.4889970 114.2559540 137.9282600  48.0712800 116.7294010
 137.9409760  47.6675090 115.8616270 137.3757820  48.8460090 116.6255440
 139.2228020  44.7929020 111.8184180 139.1124350  43.8503350 111.9433600
 139.2196270  45.1544660 112.7046940 137.3268040  42.9742640 118.0576620
 137.7436830  42.7602750 117.2230080 138.0507860  43.2315430 118.6285240
 134.7648300  40.4194340 111.1746670 133.8377580  40.3531720 111.4035140
 134.9173120  41.3574470 111.0601910 134.7517380  36.6911340 108.1713830
 133.8121050  36.8525300 108.2566290 135.0700640  37.4097020 107.6249820
 141.2730140  41.3729860 118.1492860 140.4448770  41.4422950 117.6742990
 141.8680620  41.9584170 117.6808690 138.7945590  41.9814640 111.6781920
 138.1758010  41.6434190 111.0308220 138.7770040  41.3374400 112.3861110
 138.2372150  38.1599180 119.0947730 137.8243330  38.9852890 119.3487720
 137.5048100  37.5744220 118.9024090 130.3704940  40.9459080 113.9566400
 129.9661940  40.2336330 113.4612300 130.4568060  40.6012320 114.8454440
 130.8386640  44.6326640 116.1205610 130.5414930  44.0272110 115.4413390
 131.7886460  44.6703950 116.0094970 129.0833560  37.7202290 117.7365440
 129.6348150  37.8297630 116.9618690 129.5977070  38.0939890 118.4520670
 138.9272250  48.2058510 119.7828710 138.4502810  49.0130700 119.5901320
 138.2434040  47.5536840 119.9354920 129.9305070  44.3708330 122.7713410
 129.0333600  44.5948300 123.0186810 129.9557940  44.4943270 121.8224810
 136.9710290  41.2201450 108.6854670 137.4103570  40.3823880 108.5392490
 137.6838710  41.8530850 108.7718810 128.7576290  41.2421650 121.3470780
 128.6184060  42.1144450 121.7158180 127.8757650  40.8994460 121.2018720
 135.0805670  46.1597520 112.6535910 135.5201580  46.9021850 112.2391300
 135.0192560  46.4024090 113.5774870 130.5556640  47.1843350 123.5555930
 130.5272070  47.5886300 122.6884360 130.3921610  46.2553710 123.3927530
 140.5527430  32.4744260 106.9995710 140.2400090  32.5671090 107.8994780
 141.3139900  33.0525290 106.9493140 127.0709570  39.8404060 111.4573050
 126.9507170  40.5666150 110.8454320 126.7610460  39.0706970 110.9800960
 142.5071460  47.9670450 124.8520100 142.9831180  48.4453340 125.5309180
 143.1278620  47.8987940 124.1265600 124.7094940  43.0119200 117.2641690
 124.7875360  43.1467970 116.3197410 125.3236620  42.3035090 117.4569810
 125.9542570  44.7119390 113.6747870 125.5470650  44.8533980 112.8201470
 126.8455580  44.4279550 113.4719080 141.9104710  45.1583300 122.0120110
 142.0367770  44.9195180 121.0937290 141.9526090  44.3267840 122.4842190
 135.7721450  48.8611300 120.5814920 136.2866120  48.7719310 121.3837350
 134.9290530  49.2071000 120.8742830 137.7475850  49.1466640 110.0098920
 137.5876990  48.8569580 110.9080750 137.5822560  48.3706770 109.4744150
 130.2264230  48.9265170 111.7870540 130.0506710  48.0100710 111.5738340
 129.3719970  49.2852460 112.0268340 137.4501980  46.6554200 108.5696920
 136.7567140  46.6531490 107.9099200 138.1924840  46.2313520 108.1391090
 137.0151910  48.2816910 112.6445410 137.4708860  47.5006290 112.9584030
 137.3544430  48.9923730 113.1886590 141.7628720  37.2115760 122.9769850
 141.1472990  37.7195430 122.4485310 141.4425140  36.3114090 122.9195790
 124.7654460  44.0533370 119.8036150 124.9285500  43.5838730 118.9855520
 125.2306910  43.5456930 120.4684990 129.5373230  33.1839130 114.8396720
 129.0941380  33.9648670 114.5081240 130.0958220  33.5069020 115.5467660
 133.8243040  36.0507650 120.4432040 133.3622410  36.2590670 121.2551980
 133.4221150  35.2367000 120.1402710 138.8247550  37.2716600 121.5728700
 137.9741140  36.9722350 121.8937770 138.6649340  37.5158610 120.6612520
 135.9197260  38.7718350 123.6727490 136.2450670  37.9382100 123.3329720
 136.7077590  39.2946870 123.8205820 132.6532050  32.8049830 109.7202550
 132.0286230  32.8009700 110.4455860 132.5662170  31.9380790 109.3238520
 131.5749130  33.7286460 116.6986320 131.8721460  34.6349290 116.6178340
 132.1234690  33.2405240 116.0845890 129.3287450  38.3072700 112.5677970
 129.1028370  38.0909870 113.4724590 128.5479980  38.7401160 112.2223940
 136.5585210  38.3136070 111.1668620 135.9594100  39.0371870 110.9832240
 137.1064820  38.2512850 110.3845070 131.7686660  39.2058280 123.2338240
 131.6730260  38.2653010 123.0838640 132.6118640  39.4273350 122.8386310
 135.1650080  36.9499610 113.1971900 135.5579650  37.2671810 112.3840590
 135.5266930  36.0711490 113.3116420 126.8997200  35.6171950 121.3872020
 126.5060590  36.4647160 121.5944800 126.2115600  34.9798320 121.5780660
 133.4742250  35.7006920 124.4568760 132.7840570  35.5079120 125.0914850
 134.2174550  35.9841560 124.9893060 124.2014250  33.5400410 115.4202100
 123.9127300  34.1103270 116.1327080 124.9460010  33.0604860 115.7833330
 124.3884480  37.4820530 106.6304820 124.3059150  38.4251290 106.7719810
 124.0367540  37.3395440 105.7517170 135.7505220  39.5405360 117.2922680
 135.0186340  40.0492170 117.6412780 135.3529560  38.7235340 116.9911460
 132.1882610  36.2159560 115.6975170 132.1918670  35.7749510 114.8479710
 133.0833730  36.5376890 115.8046990 128.0384990  36.0986050 114.6569380
 127.6985040  36.5761280 115.4136430 127.2762310  35.6451170 114.2970480
 132.2502760  37.2171640 108.6881930 132.3715580  37.1758120 109.6367750
 131.8651270  38.0795790 108.5328660 136.2131130  34.9939040 116.7045620
 136.2303870  35.4447690 117.5487470 135.9646710  34.0944680 116.9179060
 131.2624260  39.5272780 108.0865230 130.6941160  39.0791030 107.4601140
 131.9713260  39.8865560 107.5530380 139.6401880  32.4071220 122.5432000
 139.9647650  31.6760880 123.0689980 139.6758390  32.0884860 121.6412990
 126.3393440  43.4284800 121.9631960 125.9548230  42.7878470 122.5614920
 126.6505630  44.1320920 122.5326690 132.4890580  40.2761340 117.4440580
 132.8560710  39.8019910 118.1901920 132.2995640  41.1502910 117.7848920
 125.3531070  35.0205030 113.5734050 125.0677990  34.6560700 114.4112670
 125.2909930  34.2885490 112.9597190 130.2789950  39.3169980 119.7624790
 129.9747020  40.1961960 119.9875150 131.2336410  39.3769770 119.7982230
 128.8071740  43.5230970 110.3591640 128.0334000  42.9828590 110.1990360
 129.5366370  43.0037580 110.0209400 139.5659720  42.5196330 116.1518030
 140.2858840  43.0151620 115.7614140 139.3641540  41.8414220 115.5071900
 135.0269660  33.9134290 110.2947420 134.2134270  33.4147460 110.2192730
 134.8331610  34.7532540 109.8783770 134.9478520  42.5905390 122.0387030
 134.8815830  41.6701060 121.7844620 134.3183660  42.6880830 122.7531670
 137.7418050  38.2853940 108.5909580 138.6297670  38.5971170 108.4160920
 137.7123140  37.4126190 108.1990160 128.8509140  43.1911350 113.9970450
 129.3687810  42.3879610 113.9427340 128.3993160  43.1290490 114.8387280
 133.7378640  44.4577630 109.2697750 134.0794340  45.2019860 108.7741070
 132.9091350  44.7708750 109.6322580 126.3353680  40.1572720 120.9096150
 125.9768620  40.8226570 121.4969490 126.0408240  39.3256270 121.2808770
 129.5366800  40.6156960 123.7935700 129.2366940  40.7614140 122.8963520
 130.3078040  40.0562250 123.7009090 134.8795250  45.4125960 121.7890830
 134.8939790  44.4806920 121.5709740 134.1720350  45.4985720 122.4280600
 140.0132320  39.5965780 108.0589440 139.9296040  40.0280000 107.2085880
 140.7326510  40.0564130 108.4916260 141.0906460  42.0533300 121.1359410
 140.3654650  42.6462080 120.9388800 141.6181920  42.0456840 120.3372780
 141.0419570  46.4508040 110.7871570 140.3995730  45.7963660 111.0615290
 140.6550230  46.8563130 110.0112240 136.6206050  43.7793470 114.6343260
 136.9729870  43.1821600 113.9744630 135.7368380  43.4537700 114.8051510
 132.7069330  44.5391160 112.0413670 133.3940460  45.0860370 112.4221260
 131.9201750  45.0831890 112.0763280 124.8461730  40.1563980 107.5330750
 125.7156580  40.4388780 107.8166670 124.3552050  40.9699850 107.4179560
 132.0096540  41.5437190 111.6539030 132.4659320  42.3542440 111.8799220
 131.6584750  41.2260330 112.4857520 134.3129150  47.0543530 118.8831330
 134.9571370  47.2602910 119.5604750 134.6758590  46.2931930 118.4302180
 127.9108320  31.8874840 112.1261550 127.7822950  31.8792740 113.0746470
 127.0870340  32.2257930 111.7752560 135.5861230  45.0575880 117.6008780
 136.2283460  44.3569040 117.7140950 136.1110580  45.8374320 117.4205670
 139.4316950  45.3424500 107.3247920 139.2054530  44.6254940 107.9172560
 139.0413150  45.0936940 106.4869670 137.3598850  45.8570780 120.8044840
 137.6955090  46.4437470 121.4822760 136.4399190  45.7263490 121.0342630
 124.9102250  33.6465960 121.5868250 124.1960770  33.8462880 122.1920860
 125.3297290  32.8705530 121.9583050 139.0133200  43.2596440 108.9862080
 138.7254900  43.7209130 109.7739960 139.8085370  42.7994210 109.2546300
 125.1974840  47.6346220 122.5734780 125.3065960  46.6940960 122.4330170
 124.5455400  47.9000970 121.9248510 133.1887430  45.9062110 123.9732900
 132.8684300  45.1871350 124.5178590 132.5145790  46.5817180 124.0468960
 131.2301600  46.7522560 108.9166050 131.2211700  47.4852250 108.3010560
 130.3099960  46.5054140 109.0093010 126.8308240  41.9737450 109.6612810
 126.2236190  42.7136350 109.6708110 127.3057590  42.0636810 108.8351010
 136.4041030  36.1388270 119.3369700 136.7721850  35.3183480 119.6649270
 135.5439230  36.1990160 119.7525350 139.7703060  35.0945210 110.1457260
 139.1416220  35.1990880 109.4315490 139.2754980  35.3141990 110.9351140
 134.2161200  46.8150800 107.5791240 134.3173180  46.6114790 106.6493220
 133.3162940  46.5609080 107.7839020 131.7387090  37.3731160 111.5615140
 131.0303240  37.8417500 112.0028750 132.0231570  36.7153170 112.1960330
 133.3643020  38.7927860 119.5607670 133.8628270  39.2673680 120.2259520
 133.5065970  37.8691380 119.7677700 135.7702520  34.0981820 113.0010930
 135.6470300  34.1167950 112.0520440 136.7187080  34.1460760 113.1209330
 132.8579310  49.3337120 112.2738910 133.1120810  49.2958510 111.3518280
 131.9091790  49.2070450 112.2667160 129.9422110  35.6816240 108.9365850
 130.7912640  36.1186390 108.8706040 129.5753380  35.9936500 109.7637910
 140.5709880  35.0095820 120.4036060 140.0683480  35.7501220 120.7429870
 141.3866540  35.3979820 120.0872850 138.8631890  40.2529000 113.8497420
 137.9222030  40.2679230 114.0245110 139.1775960  39.4664960 114.2957720
 128.8413530  41.9348600 107.4101380 129.6076800  41.8229960 107.9726810
 128.9188220  41.2386570 106.7578150 127.5360290  39.3673670 108.0934270
 127.6163880  38.4201180 108.2051670 128.4280040  39.6980550 108.1994930
 140.8657470  47.4237850 115.5251680 140.9904890  48.2469020 115.9975490
 141.7323030  47.2128580 115.1775830 128.3375000  49.5169060 115.1968810
 129.0737480  48.9684520 115.4677380 128.7215920  50.3825070 115.0574800
 125.2220480  45.5842630 111.0710320 124.2960260  45.8263770 111.0615730
 125.6876910  46.4116890 110.9495070 127.3433280  48.7015130 124.3854390
 128.1446010  49.0227180 124.7989790 126.8285100  48.3410710 125.1074300
 136.1797910  44.8095000 124.3329800 135.5736070  44.8326600 123.5925550
 135.8752020  44.0778040 124.8697050 137.6098280  48.5375290 122.9439210
 138.5620030  48.4533310 122.8939450 137.4626500  49.2017000 123.6173000
 140.5007480  47.9169500 108.4431120 140.2148990  47.5034640 107.6285300
 140.3027030  48.8457210 108.3231640 125.0631090  41.1888590 123.3290440
 125.5670110  40.6095870 123.9006670 124.3238510  41.4728820 123.8666810
 131.9654710  43.9102780 106.8836730 131.8605350  43.2955130 107.6098110
 131.7978930  43.3868670 106.0999740 132.1169030  42.5959580 122.8625960
 131.3514700  43.1644580 122.7780630 132.2984990  42.3035790 121.9694190
 135.2057440  42.9722810 107.4878720 134.6567540  43.4192110 108.1321460
 135.8276700  42.4672060 108.0116390 139.2592380  44.3264910 123.4200980
 140.0001850  44.6640670 122.9168440 138.4965060  44.4956970 122.8670750
 127.0954170  39.3318180 124.2240510 127.1359510  39.0332050 125.1325740
 127.9499670  39.7325790 124.0648030 130.8732560  41.9313730 109.3844020
 131.2948980  41.7653600 110.2275410 130.9983400  41.1213960 108.8899160
 129.0359980  37.9110280 122.1915000 128.5056440  37.4201230 121.5638340
 129.7048050  38.3394480 121.6572930 133.3860200  40.9551340 106.6321120
 133.9065860  40.2400360 106.2662270 134.0328600  41.5937210 106.9321630
 137.9338040  42.3779740 121.9556190 138.3479060  42.5324820 122.8046610
 136.9989040  42.5034960 122.1181970 138.4060210  39.7175900 123.9595340
 138.9880980  38.9628220 123.8715820 138.5821980  40.2483340 123.1826820
 129.5232280  34.8772650 122.2712290 129.4289150  34.2593400 121.5463160
 128.9429670  35.6038940 122.0442200 132.2893720  33.4345890 119.3039680
 131.8411020  33.4570150 118.4585230 131.6558920  33.0364910 119.9009980
 132.6953270  42.3300220 119.9252120 133.1141380  43.1732950 119.7528360
 131.7761900  42.4672260 119.6958900 135.0317170  40.0616400 121.3089960
 135.1513380  39.4657540 122.0484800 135.8911170  40.0986090 120.8891260
 137.3705070  40.6153590 119.8852470 136.8440290  41.1396210 119.2817610
 137.7136410  41.2480980 120.5162200 129.7691460  38.0046960 106.3302180
 129.5680520  37.1414320 106.6915520 129.5983510  37.9180320 105.3923780
 130.5460690  48.6353230 121.0409850 130.0081780  49.3599290 120.7218550
 130.7994650  48.1583570 120.2507190 131.7985940  36.6037750 122.5665780
 132.3885630  36.2953600 123.2543600 130.9806180  36.1317500 122.7225680
 136.6179370  36.2203560 122.7998800 135.9294890  35.5585100 122.7348790
 137.3385390  35.7741830 123.2447260 137.2479770  32.8155190 108.8589060
 137.5282060  31.9723090 109.2148480 136.4745500  33.0478300 109.3727810
 128.5674260  35.1047580 106.3180060 128.8700160  35.1115010 105.4099210
 129.3068850  34.7545440 106.8147720 133.4022900  49.8704440 121.2996500
 133.3281600  50.7739580 121.6068870 132.5001740  49.5516340 121.2718570
 131.7859190  34.0482200 107.3036260 131.4381190  33.3706190 106.7238710
 131.9871960  33.5871710 108.1179650 133.9508230  49.0362950 108.9222860
 134.8459020  49.3747920 108.9441620 133.9825860  48.3142360 108.2947140
 124.8050190  47.1979030 114.6030120 125.1353200  46.3300090 114.3708760
 125.2341190  47.4037550 115.4335080 129.4012110  45.5288040 112.2632090
 129.1007650  45.4053010 113.1636000 129.2949600  44.6696630 111.8547820
 125.2940400  48.0649620 117.3411750 124.8571390  48.2450420 118.1735900
 125.8618080  48.8224240 117.1993470 140.9302580  47.5666620 121.6289060
 140.3304570  47.6259180 120.8852980 141.0596480  46.6271600 121.7585910
 142.1704030  45.3084440 106.9658770 141.3396990  45.3761090 107.4366000
 142.3475860  46.1988560 106.6625630 141.6260490  42.0531920 109.4692970
 142.3879400  42.6228570 109.5752660 141.6414860  41.4859120 110.2401280
 125.1264830  40.5769850 113.7000630 124.4713670  40.3081490 113.0560330
 125.9642780  40.4674330 113.2502610 142.6320460  42.9082020 114.3134900
 143.0029290  42.1249340 113.9070870 143.2722390  43.5971120 114.1352200
 139.6154220  44.2918600 119.7265220 138.8014060  44.7215760 119.9891010
 140.0228420  44.9037010 119.1134270 141.6779660  42.3466290 106.6265490
 141.9528500  43.2545170 106.4984710 141.4890400  42.2828820 107.5627480
 138.0755270  35.3711140 107.9219120 138.4940150  35.1842120 107.0815780
 137.7691330  34.5190190 108.2322050 141.5745000  40.2835280 111.6194920
 141.1988600  39.5163210 111.1876210 140.8448120  40.6657980 112.1069850
 126.1640760  40.9622420 118.2403970 126.5313800  40.8749820 119.1199990
 125.5951580  40.1988970 118.1410830 140.9644620  39.4306800 121.2534440
 140.7330710  39.2019550 120.3532390 141.2249170  40.3506350 121.2079330
 125.7156760  37.8731510 122.1462390 124.8212810  37.8398270 122.4856100
 126.2554310  38.0718300 122.9113640 139.4032690  34.6563230 124.0314140
 140.2802870  34.6646630 124.4148140 139.4153530  33.9194070 123.4206490
 124.3402910  37.7868780 109.6425960 123.4366990  38.0498980 109.4677620
 124.8243530  38.0579950 108.8625920 140.8495960  38.5092770 114.9202160
 141.3733440  38.0155420 114.2892330 141.4355380  38.6443130 115.6649730
 141.0285680  38.5932640 118.4421710 140.0788390  38.5596180 118.5566700
 141.2098690  39.5032750 118.2071480 126.8830120  36.8434320 107.5520340
 127.5921820  36.4217540 107.0667620 126.1670060  36.9109550 106.9203690
 126.5304280  32.8973650 106.5922990 127.2532410  33.4382590 106.9104210
 126.8028800  32.6237070 105.7164530 140.3395930  37.7666120 110.8594570
 140.8355050  37.5336990 111.6443450 140.1412000  36.9277960 110.4432210
 126.2196470  32.1479840 116.4945610 126.8672660  31.5977220 116.0540770
 126.6398310  32.4022990 117.3161420 141.7683090  36.4027070 113.3932250
 141.6582370  36.2483110 114.3314520 142.5290680  35.8748010 113.1507660
 140.1148810  32.3421200 119.8515250 140.7521030  32.9555340 120.2174440
 140.2623700  32.3781860 118.9064480 142.6573360  34.2334990 106.6338390
 143.5822670  34.1016170 106.4256680 142.6349150  34.3127810 107.5874840
 142.7311850  35.0045650 109.2595100 141.9363350  34.9390770 109.7888010
 142.9355130  35.9396290 109.2480450 139.6730270  49.0437200 113.2533490
 140.2689340  48.7221770 112.5767910 139.9308420  48.5709020 114.0446760
 125.9728470  32.3035510 119.2370930 125.6243290  32.7599330 120.0029110
 125.6416170  31.4092640 119.3193360 127.5792840  45.4755110 123.4024120
 127.5362470  45.1048020 124.2838580 127.7103850  46.4132680 123.5425940
 131.2798870  47.0314700 119.0033840 131.0390230  47.2989260 118.1164360
 132.2201510  47.2020430 119.0584700 133.4853290  33.4947390 122.7590350
 133.4242180  34.0869220 123.5085760 134.4253670  33.3873350 122.6140610
 136.1227850  33.1517450 122.3982640 136.7368260  33.4696740 121.7363720
 136.6677410  32.6666040 123.0178500 142.5403030  49.0509080 119.8044480
 142.0461310  49.4477950 119.0871610 141.9316320  48.4258290 120.1981760
 126.6449110  31.8311710 122.5121700 127.1932100  31.6499760 121.7487810
 126.7104420  31.0405820 123.0478010 127.4180870  48.4217360 120.5221900
 126.8241190  48.2902060 121.2611940 127.4104710  47.5855500 120.0564000
 136.8635890  31.7149590 118.7251930 135.9895730  32.0484700 118.5224860
 136.7546640  31.2422770 119.5503800 137.7707870  33.9220460 120.1093650
 137.4421230  33.1072220 119.7295380 138.7190170  33.8790270 119.9859340
 140.2242480  49.6932500 117.0831220 139.7645450  50.4448310 116.7089240
 139.5954940  48.9738970 117.0246020 127.0493100  45.7875740 119.4729940
 126.3227160  45.1681030 119.4055890 127.1102250  46.1816350 118.6028020
 130.6538200  48.0020740 116.2579350 131.1703220  47.3908100 115.7327610
 131.3035580  48.5049520 116.7490360 133.3933700  48.8929230 117.0848330
 133.6811510  48.6383530 116.2081340 133.9056920  48.3406590 117.6753900
 134.6110710  32.6319430 117.6644840 133.8282500  33.1064930 117.9441600
 134.3173640  31.7274260 117.5558020 139.1631780  33.3342530 115.7093930
 139.6039870  33.2787630 114.8615530 138.8939370  34.2500540 115.7804110
 141.0270350  32.9657770 113.7202750 140.9658750  32.0218990 113.5733770
 141.8062380  33.0737860 114.2656210 125.3323100  49.1050130 112.6826700
 125.1645140  48.4720810 113.3808590 124.4657610  49.3109530 112.3320890
 125.9551120  32.9366910 110.1858560 126.7130480  33.0495790 109.6122590
 125.4928290  33.7736110 110.1401990 132.4964930  35.0506180 113.1760870
 131.6839440  34.6763070 112.8356750 133.0006570  34.2951260 113.4782060
 136.9989910  31.7148630 114.4143940 137.6019280  32.2868840 114.8892460
 136.2582900  32.2788070 114.1917840 140.1424510  32.1170190 109.6884220
 140.3375140  33.0153640 109.9551650 139.3554380  31.8857270 110.1817170
 126.9385800  47.7983360 110.1276840 126.4133420  48.1791390 109.4238800
 126.8630380  48.4234130 110.8486550 128.3276270  33.4630960 108.7260530
 128.8569030  32.6760760 108.5968480 128.9604590  34.1422150 108.9596060
 130.5214110  33.2006100 111.7805920 129.8916850  32.4993410 111.9476050
 129.9819250  33.9610230 111.5639080 133.4606060  49.8145330 124.4516530
 134.3873370  49.5789600 124.4952490 133.4456490  50.6417330 123.9702560
 141.6951120  49.3570900 111.4490780 141.8703310  48.6708640 110.8051700
 140.9972690  49.8817950 111.0567450 130.6469670  32.4790080 124.2158410
 130.3653940  32.9823680 123.4519230 131.0289370  31.6811830 123.8500540
 137.2485130  31.8943660 124.7938880 137.1350580  32.2138270 125.6890400
 138.0654870  32.2956170 124.4976160 140.0283620  49.0415190 124.2757570
 140.8208940  48.5464420 124.0683530 140.3216770  49.7205330 124.8833180
 136.1543280  39.9136130  95.1573620 136.0737330  38.9990740  94.8865330
 135.7407700  40.4103200  94.4513330 134.2861320  41.6915150  97.0382890
 133.5103420  41.2115590  97.3281460 134.9374250  41.0120800  96.8639050
 138.3068750  46.0975340  95.8182020 137.8450280  45.3262580  96.1469190
 139.1194300  46.1241410  96.3234470 126.7119100  36.9636850  91.7001040
 125.8235800  37.3052820  91.5980920 126.9960290  36.7637170  90.8081870
 124.6752110  39.5642500  97.5840740 125.2468220  38.7964700  97.5844380
 124.6753650  39.8631260  96.6747350 134.5332060  48.3833350  95.4386010
 133.9143500  48.8390850  94.8680450 135.3883840  48.5384810  95.0375710
 133.7270310  44.3672340  97.0453050 133.6578590  43.4262280  96.8842180
 134.4890170  44.4573750  97.6175620 125.9176980  34.9726860  99.3709670
 125.7379820  34.0752610  99.6512430 125.5157060  35.5198730 100.0456620
 134.7575480  37.1742720  97.2721980 135.1340300  36.3014600  97.1595650
 134.6594990  37.5101420  96.3812420 128.8880490  35.5468350  92.7339420
 128.9947240  36.4472080  93.0408180 127.9772850  35.4986320  92.4434070
 138.5399600  34.6693160  94.2050320 139.3609220  34.1789730  94.2475800
 138.5733680  35.2590820  94.9582160 126.5363650  37.4687360  97.9792010
 127.2173760  37.7325730  98.5979410 126.2211700  36.6288230  98.3130020
 130.7288220  38.5154720  97.0664600 131.2366440  39.0135690  97.7069620
 131.2601460  37.7389920  96.8903960 142.8299150  36.6859910 100.7693950
 142.1251320  37.0741620 100.2509060 143.0957070  37.3810200 101.3714880
 129.0124320  33.1553280 101.3328020 129.0142760  33.6725670 100.5273920
 128.1828630  32.6783460 101.3097950 135.3995410  43.2672590  92.8317920
 134.7812680  43.7322040  92.2680640 135.9118660  43.9600070  93.2487430
 130.2627170  42.7948460  99.5101520 129.9296550  43.4217380 100.1522590
 130.4393850  43.3210340  98.7303190 138.7761080  36.6093540  96.9777860
 138.0716650  36.8978430  97.5580970 139.1373240  37.4193650  96.6177420
 128.6939650  34.8663240  99.3398470 129.0356460  35.7105290  99.0452340
 127.7555460  35.0146980  99.4563810 129.4746270  44.7629260 101.3250700
 130.0920270  45.4380340 101.0435150 128.6139390  45.1717240 101.2338200
 140.3923860  46.2268670  99.2405340 139.7087380  46.8967780  99.2322010
 140.9318150  46.4249320  98.4750200 141.8448000  36.0548330  97.3687070
 140.8972910  36.0887310  97.5002500 142.1697990  36.8687280  97.7536430
 132.3767540  32.3545510  95.6643060 132.6842520  31.7992400  94.9478560
 131.4468240  32.4889970  95.4816050 137.9282600  48.0712800  97.9550520
 137.9409760  47.6675090  97.0872780 137.3757820  48.8460090  97.8511950
 139.2228020  44.7929020  93.0440690 139.1124350  43.8503350  93.1690110
 139.2196270  45.1544660  93.9303450 137.3268040  42.9742640  99.2833130
 137.7436830  42.7602750  98.4486590 138.0507860  43.2315430  99.8541750
 134.7648300  40.4194340  92.4003180 133.8377580  40.3531720  92.6291650
 134.9173120  41.3574470  92.2858420 134.7517380  36.6911340  89.3970340
 133.8121050  36.8525300  89.4822800 135.0700640  37.4097020  88.8506330
 141.2730140  41.3729860  99.3749370 140.4448770  41.4422950  98.8999500
 141.8680620  41.9584170  98.9065200 138.7945590  41.9814640  92.9038430
 138.1758010  41.6434190  92.2564730 138.7770040  41.3374400  93.6117620
 138.2372150  38.1599180 100.3204240 137.8243330  38.9852890 100.5744230
 137.5048100  37.5744220 100.1280600 130.3704940  40.9459080  95.1822910
 129.9661940  40.2336330  94.6868810 130.4568060  40.6012320  96.0710950
 130.8386640  44.6326640  97.3462120 130.5414930  44.0272110  96.6669900
 131.7886460  44.6703950  97.2351480 129.0833560  37.7202290  98.9621950
 129.6348150  37.8297630  98.1875200 129.5977070  38.0939890  99.6777180
 138.9272250  48.2058510 101.0085220 138.4502810  49.0130700 100.8157830
 138.2434040  47.5536840 101.1611430 129.9305070  44.3708330 103.9969920
 129.0333600  44.5948300 104.2443320 129.9557940  44.4943270 103.0481320
 136.9710290  41.2201450  89.9111180 137.4103570  40.3823880  89.7649000
 137.6838710  41.8530850  89.9975320 128.7576290  41.2421650 102.5727290
 128.6184060  42.1144450 102.9414690 127.8757650  40.8994460 102.4275230
 135.0805670  46.1597520  93.8792420 135.5201580  46.9021850  93.4647810
 135.0192560  46.4024090  94.8031380 140.5527430  32.4744260  88.2252220
 140.2400090  32.5671090  89.1251290 141.3139900  33.0525290  88.1749650
 127.0709570  39.8404060  92.6829560 126.9507170  40.5666150  92.0710830
 126.7610460  39.0706970  92.2057470 142.5071460  47.9670450 106.0776610
 142.9831180  48.4453340 106.7565690 143.1278620  47.8987940 105.3522110
 141.9104710  45.1583300 103.2376620 142.0367770  44.9195180 102.3193800
 141.9526090  44.3267840 103.7098700 135.7721450  48.8611300 101.8071430
 136.2866120  48.7719310 102.6093860 134.9290530  49.2071000 102.0999340
 137.7475850  49.1466640  91.2355430 137.5876990  48.8569580  92.1337260
 137.5822560  48.3706770  90.7000660 137.4501980  46.6554200  89.7953430
 136.7567140  46.6531490  89.1355710 138.1924840  46.2313520  89.3647600
 137.0151910  48.2816910  93.8701920 137.4708860  47.5006290  94.1840540
 137.3544430  48.9923730  94.4143100 141.7628720  37.2115760 104.2026360
 141.1472990  37.7195430 103.6741820 141.4425140  36.3114090 104.1452300
 129.5373230  33.1839130  96.0653230 129.0941380  33.9648670  95.7337750
 130.0958220  33.5069020  96.7724170 133.8243040  36.0507650 101.6688550
 133.3622410  36.2590670 102.4808490 133.4221150  35.2367000 101.3659220
 138.8247550  37.2716600 102.7985210 137.9741140  36.9722350 103.1194280
 138.6649340  37.5158610 101.8869030 135.9197260  38.7718350 104.8984000
 136.2450670  37.9382100 104.5586230 136.7077590  39.2946870 105.0462330
 132.6532050  32.8049830  90.9459060 132.0286230  32.8009700  91.6712370
 132.5662170  31.9380790  90.5495030 131.5749130  33.7286460  97.9242830
 131.8721460  34.6349290  97.8434850 132.1234690  33.2405240  97.3102400
 129.3287450  38.3072700  93.7934480 129.1028370  38.0909870  94.6981100
 128.5479980  38.7401160  93.4480450 136.5585210  38.3136070  92.3925130
 135.9594100  39.0371870  92.2088750 137.1064820  38.2512850  91.6101580
 131.7686660  39.2058280 104.4594750 131.6730260  38.2653010 104.3095150
 132.6118640  39.4273350 104.0642820 135.1650080  36.9499610  94.4228410
 135.5579650  37.2671810  93.6097100 135.5266930  36.0711490  94.5372930
 126.8997200  35.6171950 102.6128530 126.5060590  36.4647160 102.8201310
 126.2115600  34.9798320 102.8037170 133.4742250  35.7006920 105.6825270
 132.7840570  35.5079120 106.3171360 134.2174550  35.9841560 106.2149570
 124.2014250  33.5400410  96.6458610 123.9127300  34.1103270  97.3583590
 124.9460010  33.0604860  97.0089840 135.7505220  39.5405360  98.5179190
 135.0186340  40.0492170  98.8669290 135.3529560  38.7235340  98.2167970
 132.1882610  36.2159560  96.9231680 132.1918670  35.7749510  96.0736220
 133.0833730  36.5376890  97.0303500 128.0384990  36.0986050  95.8825890
 127.6985040  36.5761280  96.6392940 127.2762310  35.6451170  95.5226990
 132.2502760  37.2171640  89.9138440 132.3715580  37.1758120  90.8624260
 131.8651270  38.0795790  89.7585170 136.2131130  34.9939040  97.9302130
 136.2303870  35.4447690  98.7743980 135.9646710  34.0944680  98.1435570
 131.2624260  39.5272780  89.3121740 130.6941160  39.0791030  88.6857650
 131.9713260  39.8865560  88.7786890 139.6401880  32.4071220 103.7688510
 139.9647650  31.6760880 104.2946490 139.6758390  32.0884860 102.8669500
 132.4890580  40.2761340  98.6697090 132.8560710  39.8019910  99.4158430
 132.2995640  41.1502910  99.0105430 125.3531070  35.0205030  94.7990560
 125.0677990  34.6560700  95.6369180 125.2909930  34.2885490  94.1853700
 130.2789950  39.3169980 100.9881300 129.9747020  40.1961960 101.2131660
 131.2336410  39.3769770 101.0238740 128.8071740  43.5230970  91.5848150
 128.0334000  42.9828590  91.4246870 129.5366370  43.0037580  91.2465910
 139.5659720  42.5196330  97.3774540 140.2858840  43.0151620  96.9870650
 139.3641540  41.8414220  96.7328410 135.0269660  33.9134290  91.5203930
 134.2134270  33.4147460  91.4449240 134.8331610  34.7532540  91.1040280
 134.9478520  42.5905390 103.2643540 134.8815830  41.6701060 103.0101130
 134.3183660  42.6880830 103.9788180 137.7418050  38.2853940  89.8166090
 138.6297670  38.5971170  89.6417430 137.7123140  37.4126190  89.4246670
 128.8509140  43.1911350  95.2226960 129.3687810  42.3879610  95.1683850
 128.3993160  43.1290490  96.0643790 133.7378640  44.4577630  90.4954260
 134.0794340  45.2019860  89.9997580 132.9091350  44.7708750  90.8579090
 126.3353680  40.1572720 102.1352660 125.9768620  40.8226570 102.7226000
 126.0408240  39.3256270 102.5065280 129.5366800  40.6156960 105.0192210
 129.2366940  40.7614140 104.1220030 130.3078040  40.0562250 104.9265600
 134.8795250  45.4125960 103.0147340 134.8939790  44.4806920 102.7966250
 134.1720350  45.4985720 103.6537110 140.0132320  39.5965780  89.2845950
 139.9296040  40.0280000  88.4342390 140.7326510  40.0564130  89.7172770
 141.0906460  42.0533300 102.3615920 140.3654650  42.6462080 102.1645310
 141.6181920  42.0456840 101.5629290 141.0419570  46.4508040  92.0128080
 140.3995730  45.7963660  92.2871800 140.6550230  46.8563130  91.2368750
 136.6206050  43.7793470  95.8599770 136.9729870  43.1821600  95.2001140
 135.7368380  43.4537700  96.0308020 132.7069330  44.5391160  93.2670180
 133.3940460  45.0860370  93.6477770 131.9201750  45.0831890  93.3019790
 132.0096540  41.5437190  92.8795540 132.4659320  42.3542440  93.1055730
 131.6584750  41.2260330  93.7114030 134.3129150  47.0543530 100.1087840
 134.9571370  47.2602910 100.7861260 134.6758590  46.2931930  99.6558690
 127.9108320  31.8874840  93.3518060 127.7822950  31.8792740  94.3002980
 127.0870340  32.2257930  93.0009070 135.5861230  45.0575880  98.8265290
 136.2283460  44.3569040  98.9397460 136.1110580  45.8374320  98.6462180
 139.4316950  45.3424500  88.5504430 139.2054530  44.6254940  89.1429070
 139.0413150  45.0936940  87.7126180 137.3598850  45.8570780 102.0301350
 137.6955090  46.4437470 102.7079270 136.4399190  45.7263490 102.2599140
 124.9102250  33.6465960 102.8124760 124.1960770  33.8462880 103.4177370
 125.3297290  32.8705530 103.1839560 139.0133200  43.2596440  90.2118590
 138.7254900  43.7209130  90.9996470 139.8085370  42.7994210  90.4802810
 133.1887430  45.9062110 105.1989410 132.8684300  45.1871350 105.7435100
 132.5145790  46.5817180 105.2725470 131.2301600  46.7522560  90.1422560
 131.2211700  47.4852250  89.5267070 130.3099960  46.5054140  90.2349520
 136.4041030  36.1388270 100.5626210 136.7721850  35.3183480 100.8905780
 135.5439230  36.1990160 100.9781860 139.7703060  35.0945210  91.3713770
 139.1416220  35.1990880  90.6572000 139.2754980  35.3141990  92.1607650
 131.7387090  37.3731160  92.7871650 131.0303240  37.8417500  93.2285260
 132.0231570  36.7153170  93.4216840 133.3643020  38.7927860 100.7864180
 133.8628270  39.2673680 101.4516030 133.5065970  37.8691380 100.9934210
 135.7702520  34.0981820  94.2267440 135.6470300  34.1167950  93.2776950
 136.7187080  34.1460760  94.3465840 132.8579310  49.3337120  93.4995420
 133.1120810  49.2958510  92.5774790 131.9091790  49.2070450  93.4923670
 129.9422110  35.6816240  90.1622360 130.7912640  36.1186390  90.0962550
 129.5753380  35.9936500  90.9894420 140.5709880  35.0095820 101.6292570
 140.0683480  35.7501220 101.9686380 141.3866540  35.3979820 101.3129360
 138.8631890  40.2529000  95.0753930 137.9222030  40.2679230  95.2501620
 139.1775960  39.4664960  95.5214230 140.8657470  47.4237850  96.7508190
 140.9904890  48.2469020  97.2232000 141.7323030  47.2128580  96.4032340
 136.1797910  44.8095000 105.5586310 135.5736070  44.8326600 104.8182060
 135.8752020  44.0778040 106.0953560 137.6098280  48.5375290 104.1695720
 138.5620030  48.4533310 104.1195960 137.4626500  49.2017000 104.8429510
 140.5007480  47.9169500  89.6687630 140.2148990  47.5034640  88.8541810
 140.3027030  48.8457210  89.5488150 125.0631090  41.1888590 104.5546950
 125.5670110  40.6095870 105.1263180 124.3238510  41.4728820 105.0923320
 131.9654710  43.9102780  88.1093240 131.8605350  43.2955130  88.8354620
 131.7978930  43.3868670  87.3256250 132.1169030  42.5959580 104.0882470
 131.3514700  43.1644580 104.0037140 132.2984990  42.3035790 103.1950700
 135.2057440  42.9722810  88.7135230 134.6567540  43.4192110  89.3577970
 135.8276700  42.4672060  89.2372900 139.2592380  44.3264910 104.6457490
 140.0001850  44.6640670 104.1424950 138.4965060  44.4956970 104.0927260
 127.0954170  39.3318180 105.4497020 127.1359510  39.0332050 106.3582250
 127.9499670  39.7325790 105.2904540 130.8732560  41.9313730  90.6100530
 131.2948980  41.7653600  91.4531920 130.9983400  41.1213960  90.1155670
 129.0359980  37.9110280 103.4171510 128.5056440  37.4201230 102.7894850
 129.7048050  38.3394480 102.8829440 133.3860200  40.9551340  87.8577630
 133.9065860  40.2400360  87.4918780 134.0328600  41.5937210  88.1578140
 137.9338040  42.3779740 103.1812700 138.3479060  42.5324820 104.0303120
 136.9989040  42.5034960 103.3438480 138.4060210  39.7175900 105.1851850
 138.9880980  38.9628220 105.0972330 138.5821980  40.2483340 104.4083330
 129.5232280  34.8772650 103.4968800 129.4289150  34.2593400 102.7719670
 128.9429670  35.6038940 103.2698710 132.2893720  33.4345890 100.5296190
 131.8411020  33.4570150  99.6841740 131.6558920  33.0364910 101.1266490
 132.6953270  42.3300220 101.1508630 133.1141380  43.1732950 100.9784870
 131.7761900  42.4672260 100.9215410 135.0317170  40.0616400 102.5346470
 135.1513380  39.4657540 103.2741310 135.8911170  40.0986090 102.1147770
 137.3705070  40.6153590 101.1108980 136.8440290  41.1396210 100.5074120
 137.7136410  41.2480980 101.7418710 130.5460690  48.6353230 102.2666360
 130.0081780  49.3599290 101.9475060 130.7994650  48.1583570 101.4763700
 131.7985940  36.6037750 103.7922290 132.3885630  36.2953600 104.4800110
 130.9806180  36.1317500 103.9482190 136.6179370  36.2203560 104.0255310
 135.9294890  35.5585100 103.9605300 137.3385390  35.7741830 104.4703770
 137.2479770  32.8155190  90.0845570 137.5282060  31.9723090  90.4404990
 136.4745500  33.0478300  90.5984320 133.4022900  49.8704440 102.5253010
 133.3281600  50.7739580 102.8325380 132.5001740  49.5516340 102.4975080
 131.7859190  34.0482200  88.5292770 131.4381190  33.3706190  87.9495220
 131.9871960  33.5871710  89.3436160 133.9508230  49.0362950  90.1479370
 134.8459020  49.3747920  90.1698130 133.9825860  48.3142360  89.5203650
 129.4012110  45.5288040  93.4888600 129.1007650  45.4053010  94.3892510
 129.2949600  44.6696630  93.0804330 140.9302580  47.5666620 102.8545570
 140.3304570  47.6259180 102.1109490 141.0596480  46.6271600 102.9842420
 142.1704030  45.3084440  88.1915280 141.3396990  45.3761090  88.6622510
 142.3475860  46.1988560  87.8882140 141.6260490  42.0531920  90.6949480
 142.3879400  42.6228570  90.8009170 141.6414860  41.4859120  91.4657790
 125.1264830  40.5769850  94.9257140 124.4713670  40.3081490  94.2816840
 125.9642780  40.4674330  94.4759120 142.6320460  42.9082020  95.5391410
 143.0029290  42.1249340  95.1327380 143.2722390  43.5971120  95.3608710
 139.6154220  44.2918600 100.9521730 138.8014060  44.7215760 101.2147520
 140.0228420  44.9037010 100.3390780 141.6779660  42.3466290  87.8522000
 141.9528500  43.2545170  87.7241220 141.4890400  42.2828820  88.7883990
 138.0755270  35.3711140  89.1475630 138.4940150  35.1842120  88.3072290
 137.7691330  34.5190190  89.4578560 141.5745000  40.2835280  92.8451430
 141.1988600  39.5163210  92.4132720 140.8448120  40.6657980  93.3326360
 140.9644620  39.4306800 102.4790950 140.7330710  39.2019550 101.5788900
 141.2249170  40.3506350 102.4335840 125.7156760  37.8731510 103.3718900
 124.8212810  37.8398270 103.7112610 126.2554310  38.0718300 104.1370150
 139.4032690  34.6563230 105.2570650 140.2802870  34.6646630 105.6404650
 139.4153530  33.9194070 104.6463000 140.8495960  38.5092770  96.1458670
 141.3733440  38.0155420  95.5148840 141.4355380  38.6443130  96.8906240
 141.0285680  38.5932640  99.6678220 140.0788390  38.5596180  99.7823210
 141.2098690  39.5032750  99.4327990 140.3395930  37.7666120  92.0851080
 140.8355050  37.5336990  92.8699960 140.1412000  36.9277960  91.6688720
 126.2196470  32.1479840  97.7202120 126.8672660  31.5977220  97.2797280
 126.6398310  32.4022990  98.5417930 141.7683090  36.4027070  94.6188760
 141.6582370  36.2483110  95.5571030 142.5290680  35.8748010  94.3764170
 140.1148810  32.3421200 101.0771760 140.7521030  32.9555340 101.4430950
 140.2623700  32.3781860 100.1320990 142.6573360  34.2334990  87.8594900
 143.5822670  34.1016170  87.6513190 142.6349150  34.3127810  88.8131350
 142.7311850  35.0045650  90.4851610 141.9363350  34.9390770  91.0144520
 142.9355130  35.9396290  90.4736960 139.6730270  49.0437200  94.4790000
 140.2689340  48.7221770  93.8024420 139.9308420  48.5709020  95.2703270
 125.9728470  32.3035510 100.4627440 125.6243290  32.7599330 101.2285620
 125.6416170  31.4092640 100.5449870 131.2798870  47.0314700 100.2290350
 131.0390230  47.2989260  99.3420870 132.2201510  47.2020430 100.2841210
 133.4853290  33.4947390 103.9846860 133.4242180  34.0869220 104.7342270
 134.4253670  33.3873350 103.8397120 136.1227850  33.1517450 103.6239150
 136.7368260  33.4696740 102.9620230 136.6677410  32.6666040 104.2435010
 142.5403030  49.0509080 101.0300990 142.0461310  49.4477950 100.3128120
 141.9316320  48.4258290 101.4238270 126.6449110  31.8311710 103.7378210
 127.1932100  31.6499760 102.9744320 126.7104420  31.0405820 104.2734520
 136.8635890  31.7149590  99.9508440 135.9895730  32.0484700  99.7481370
 136.7546640  31.2422770 100.7760310 137.7707870  33.9220460 101.3350160
 137.4421230  33.1072220 100.9551890 138.7190170  33.8790270 101.2115850
 140.2242480  49.6932500  98.3087730 139.7645450  50.4448310  97.9345750
 139.5954940  48.9738970  98.2502530 133.3933700  48.8929230  98.3104840
 133.6811510  48.6383530  97.4337850 133.9056920  48.3406590  98.9010410
 134.6110710  32.6319430  98.8901350 133.8282500  33.1064930  99.1698110
 134.3173640  31.7274260  98.7814530 139.1631780  33.3342530  96.9350440
 139.6039870  33.2787630  96.0872040 138.8939370  34.2500540  97.0060620
 141.0270350  32.9657770  94.9459260 140.9658750  32.0218990  94.7990280
 141.8062380  33.0737860  95.4912720 132.4964930  35.0506180  94.4017380
 131.6839440  34.6763070  94.0613260 133.0006570  34.2951260  94.7038570
 136.9989910  31.7148630  95.6400450 137.6019280  32.2868840  96.1148970
 136.2582900  32.2788070  95.4174350 140.1424510  32.1170190  90.9140730
 140.3375140  33.0153640  91.1808160 139.3554380  31.8857270  91.4073680
 128.3276270  33.4630960  89.9517040 128.8569030  32.6760760  89.8224990
 128.9604590  34.1422150  90.1852570 130.5214110  33.2006100  93.0062430
 129.8916850  32.4993410  93.1732560 129.9819250  33.9610230  92.7895590
 133.4606060  49.8145330 105.6773040 134.3873370  49.5789600 105.7209000
 133.4456490  50.6417330 105.1959070 141.6951120  49.3570900  92.6747290
 141.8703310  48.6708640  92.0308210 140.9972690  49.8817950  92.2823960
 130.6469670  32.4790080 105.4414920 130.3653940  32.9823680 104.6775740
 131.0289370  31.6811830 105.0757050 128.6993560  45.8630470  90.2328930
 128.0702440  46.3315570  90.7814760 128.8141390  45.0179690  90.6675120
 137.2485130  31.8943660 106.0195390 137.1350580  32.2138270 106.9146910
 138.0654870  32.2956170 105.7232670 140.0283620  49.0415190 105.5014080
 140.8208940  48.5464420 105.2940040 140.3216770  49.7205330 106.1089690
 136.1543280  39.9136130  76.3830130 136.0737330  38.9990740  76.1121840
 135.7407700  40.4103200  75.6769840 134.2861320  41.6915150  78.2639400
 133.5103420  41.2115590  78.5537970 134.9374250  41.0120800  78.0895560
 138.3068750  46.0975340  77.0438530 137.8450280  45.3262580  77.3725700
 139.1194300  46.1241410  77.5490980 126.7119100  36.9636850  72.9257550
 125.8235800  37.3052820  72.8237430 126.9960290  36.7637170  72.0338380
 124.6752110  39.5642500  78.8097250 125.2468220  38.7964700  78.8100890
 124.6753650  39.8631260  77.9003860 125.9176980  34.9726860  80.5966180
 125.7379820  34.0752610  80.8768940 125.5157060  35.5198730  81.2713130
 134.7575480  37.1742720  78.4978490 135.1340300  36.3014600  78.3852160
 134.6594990  37.5101420  77.6068930 128.8880490  35.5468350  73.9595930
 128.9947240  36.4472080  74.2664690 127.9772850  35.4986320  73.6690580
 138.5399600  34.6693160  75.4306830 139.3609220  34.1789730  75.4732310
 138.5733680  35.2590820  76.1838670 126.5363650  37.4687360  79.2048520
 127.2173760  37.7325730  79.8235920 126.2211700  36.6288230  79.5386530
 130.7288220  38.5154720  78.2921110 131.2366440  39.0135690  78.9326130
 131.2601460  37.7389920  78.1160470 142.8299150  36.6859910  81.9950460
 142.1251320  37.0741620  81.4765570 143.0957070  37.3810200  82.5971390
 129.0124320  33.1553280  82.5584530 129.0142760  33.6725670  81.7530430
 128.1828630  32.6783460  82.5354460 135.3995410  43.2672590  74.0574430
 134.7812680  43.7322040  73.4937150 135.9118660  43.9600070  74.4743940
 138.7761080  36.6093540  78.2034370 138.0716650  36.8978430  78.7837480
 139.1373240  37.4193650  77.8433930 128.6939650  34.8663240  80.5654980
 129.0356460  35.7105290  80.2708850 127.7555460  35.0146980  80.6820320
 140.3923860  46.2268670  80.4661850 139.7087380  46.8967780  80.4578520
 140.9318150  46.4249320  79.7006710 141.8448000  36.0548330  78.5943580
 140.8972910  36.0887310  78.7259010 142.1697990  36.8687280  78.9792940
 132.3767540  32.3545510  76.8899570 132.6842520  31.7992400  76.1735070
 131.4468240  32.4889970  76.7072560 137.9282600  48.0712800  79.1807030
 137.9409760  47.6675090  78.3129290 137.3757820  48.8460090  79.0768460
 139.2228020  44.7929020  74.2697200 139.1124350  43.8503350  74.3946620
 139.2196270  45.1544660  75.1559960 137.3268040  42.9742640  80.5089640
 137.7436830  42.7602750  79.6743100 138.0507860  43.2315430  81.0798260
 134.7648300  40.4194340  73.6259690 133.8377580  40.3531720  73.8548160
 134.9173120  41.3574470  73.5114930 134.7517380  36.6911340  70.6226850
 133.8121050  36.8525300  70.7079310 135.0700640  37.4097020  70.0762840
 141.2730140  41.3729860  80.6005880 140.4448770  41.4422950  80.1256010
 141.8680620  41.9584170  80.1321710 138.7945590  41.9814640  74.1294940
 138.1758010  41.6434190  73.4821240 138.7770040  41.3374400  74.8374130
 138.2372150  38.1599180  81.5460750 137.8243330  38.9852890  81.8000740
 137.5048100  37.5744220  81.3537110 130.3704940  40.9459080  76.4079420
 129.9661940  40.2336330  75.9125320 130.4568060  40.6012320  77.2967460
 138.9272250  48.2058510  82.2341730 138.4502810  49.0130700  82.0414340
 138.2434040  47.5536840  82.3867940 136.9710290  41.2201450  71.1367690
 137.4103570  40.3823880  70.9905510 137.6838710  41.8530850  71.2231830
 140.5527430  32.4744260  69.4508730 140.2400090  32.5671090  70.3507800
 141.3139900  33.0525290  69.4006160 127.0709570  39.8404060  73.9086070
 126.9507170  40.5666150  73.2967340 126.7610460  39.0706970  73.4313980
 142.5071460  47.9670450  87.3033120 142.9831180  48.4453340  87.9822200
 143.1278620  47.8987940  86.5778620 124.7094940  43.0119200  79.7154710
 124.7875360  43.1467970  78.7710430 125.3236620  42.3035090  79.9082830
 125.9542570  44.7119390  76.1260890 125.5470650  44.8533980  75.2714490
 126.8455580  44.4279550  75.9232100 141.9104710  45.1583300  84.4633130
 142.0367770  44.9195180  83.5450310 141.9526090  44.3267840  84.9355210
 135.7721450  48.8611300  83.0327940 136.2866120  48.7719310  83.8350370
 134.9290530  49.2071000  83.3255850 137.4501980  46.6554200  71.0209940
 136.7567140  46.6531490  70.3612220 138.1924840  46.2313520  70.5904110
 137.0151910  48.2816910  75.0958430 137.4708860  47.5006290  75.4097050
 137.3544430  48.9923730  75.6399610 141.7628720  37.2115760  85.4282870
 141.1472990  37.7195430  84.8998330 141.4425140  36.3114090  85.3708810
 129.5373230  33.1839130  77.2909740 129.0941380  33.9648670  76.9594260
 130.0958220  33.5069020  77.9980680 133.8243040  36.0507650  82.8945060
 133.3622410  36.2590670  83.7065000 133.4221150  35.2367000  82.5915730
 138.8247550  37.2716600  84.0241720 137.9741140  36.9722350  84.3450790
 138.6649340  37.5158610  83.1125540 135.9197260  38.7718350  86.1240510
 136.2450670  37.9382100  85.7842740 136.7077590  39.2946870  86.2718840
 132.6532050  32.8049830  72.1715570 132.0286230  32.8009700  72.8968880
 132.5662170  31.9380790  71.7751540 131.5749130  33.7286460  79.1499340
 131.8721460  34.6349290  79.0691360 132.1234690  33.2405240  78.5358910
 129.3287450  38.3072700  75.0190990 129.1028370  38.0909870  75.9237610
 128.5479980  38.7401160  74.6736960 136.5585210  38.3136070  73.6181640
 135.9594100  39.0371870  73.4345260 137.1064820  38.2512850  72.8358090
 135.1650080  36.9499610  75.6484920 135.5579650  37.2671810  74.8353610
 135.5266930  36.0711490  75.7629440 133.4742250  35.7006920  86.9081780
 132.7840570  35.5079120  87.5427870 134.2174550  35.9841560  87.4406080
 124.2014250  33.5400410  77.8715120 123.9127300  34.1103270  78.5840100
 124.9460010  33.0604860  78.2346350 135.7505220  39.5405360  79.7435700
 135.0186340  40.0492170  80.0925800 135.3529560  38.7235340  79.4424480
 132.1882610  36.2159560  78.1488190 132.1918670  35.7749510  77.2992730
 133.0833730  36.5376890  78.2560010 128.0384990  36.0986050  77.1082400
 127.6985040  36.5761280  77.8649450 127.2762310  35.6451170  76.7483500
 132.2502760  37.2171640  71.1394950 132.3715580  37.1758120  72.0880770
 131.8651270  38.0795790  70.9841680 136.2131130  34.9939040  79.1558640
 136.2303870  35.4447690  80.0000490 135.9646710  34.0944680  79.3692080
 131.2624260  39.5272780  70.5378250 130.6941160  39.0791030  69.9114160
 131.9713260  39.8865560  70.0043400 139.6401880  32.4071220  84.9945020
 139.9647650  31.6760880  85.5203000 139.6758390  32.0884860  84.0926010
 132.4890580  40.2761340  79.8953600 132.8560710  39.8019910  80.6414940
 132.2995640  41.1502910  80.2361940 125.3531070  35.0205030  76.0247070
 125.0677990  34.6560700  76.8625690 125.2909930  34.2885490  75.4110210
 128.8071740  43.5230970  72.8104660 128.0334000  42.9828590  72.6503380
 129.5366370  43.0037580  72.4722420 139.5659720  42.5196330  78.6031050
 140.2858840  43.0151620  78.2127160 139.3641540  41.8414220  77.9584920
 135.0269660  33.9134290  72.7460440 134.2134270  33.4147460  72.6705750
 134.8331610  34.7532540  72.3296790 134.9478520  42.5905390  84.4900050
 134.8815830  41.6701060  84.2357640 134.3183660  42.6880830  85.2044690
 137.7418050  38.2853940  71.0422600 138.6297670  38.5971170  70.8673940
 137.7123140  37.4126190  70.6503180 133.7378640  44.4577630  71.7210770
 134.0794340  45.2019860  71.2254090 132.9091350  44.7708750  72.0835600
 140.0132320  39.5965780  70.5102460 139.9296040  40.0280000  69.6598900
 140.7326510  40.0564130  70.9429280 141.0906460  42.0533300  83.5872430
 140.3654650  42.6462080  83.3901820 141.6181920  42.0456840  82.7885800
 141.0419570  46.4508040  73.2384590 140.3995730  45.7963660  73.5128310
 140.6550230  46.8563130  72.4625260 136.6206050  43.7793470  77.0856280
 136.9729870  43.1821600  76.4257650 135.7368380  43.4537700  77.2564530
 132.7069330  44.5391160  74.4926690 133.3940460  45.0860370  74.8734280
 131.9201750  45.0831890  74.5276300 124.8461730  40.1563980  69.9843770
 125.7156580  40.4388780  70.2679690 124.3552050  40.9699850  69.8692580
 132.0096540  41.5437190  74.1052050 132.4659320  42.3542440  74.3312240
 131.6584750  41.2260330  74.9370540 127.9108320  31.8874840  74.5774570
 127.7822950  31.8792740  75.5259490 127.0870340  32.2257930  74.2265580
 139.4316950  45.3424500  69.7760940 139.2054530  44.6254940  70.3685580
 139.0413150  45.0936940  68.9382690 137.3598850  45.8570780  83.2557860
 137.6955090  46.4437470  83.9335780 136.4399190  45.7263490  83.4855650
 139.0133200  43.2596440  71.4375100 138.7254900  43.7209130  72.2252980
 139.8085370  42.7994210  71.7059320 125.1974840  47.6346220  85.0247800
 125.3065960  46.6940960  84.8843190 124.5455400  47.9000970  84.3761530
 131.2301600  46.7522560  71.3679070 131.2211700  47.4852250  70.7523580
 130.3099960  46.5054140  71.4606030 126.8308240  41.9737450  72.1125830
 126.2236190  42.7136350  72.1221130 127.3057590  42.0636810  71.2864030
 136.4041030  36.1388270  81.7882720 136.7721850  35.3183480  82.1162290
 135.5439230  36.1990160  82.2038370 139.7703060  35.0945210  72.5970280
 139.1416220  35.1990880  71.8828510 139.2754980  35.3141990  73.3864160
 134.2161200  46.8150800  70.0304260 134.3173180  46.6114790  69.1006240
 133.3162940  46.5609080  70.2352040 131.7387090  37.3731160  74.0128160
 131.0303240  37.8417500  74.4541770 132.0231570  36.7153170  74.6473350
 135.7702520  34.0981820  75.4523950 135.6470300  34.1167950  74.5033460
 136.7187080  34.1460760  75.5722350 129.9422110  35.6816240  71.3878870
 130.7912640  36.1186390  71.3219060 129.5753380  35.9936500  72.2150930
 140.5709880  35.0095820  82.8549080 140.0683480  35.7501220  83.1942890
 141.3866540  35.3979820  82.5385870 138.8631890  40.2529000  76.3010440
 137.9222030  40.2679230  76.4758130 139.1775960  39.4664960  76.7470740
 128.8413530  41.9348600  69.8614400 129.6076800  41.8229960  70.4239830
 128.9188220  41.2386570  69.2091170 127.5360290  39.3673670  70.5447290
 127.6163880  38.4201180  70.6564690 128.4280040  39.6980550  70.6507950
 140.8657470  47.4237850  77.9764700 140.9904890  48.2469020  78.4488510
 141.7323030  47.2128580  77.6288850 127.3433280  48.7015130  86.8367410
 128.1446010  49.0227180  87.2502810 126.8285100  48.3410710  87.5587320
 131.4477310  48.6899370  69.4707400 132.2405920  48.9788200  69.0189190
 130.9281660  48.2591540  68.7919880 136.1797910  44.8095000  86.7842820
 135.5736070  44.8326600  86.0438570 135.8752020  44.0778040  87.3210070
 137.6098280  48.5375290  85.3952230 138.5620030  48.4533310  85.3452470
 137.4626500  49.2017000  86.0686020 140.5007480  47.9169500  70.8944140
 140.2148990  47.5034640  70.0798320 140.3027030  48.8457210  70.7744660
 131.9654710  43.9102780  69.3349750 131.8605350  43.2955130  70.0611130
 131.7978930  43.3868670  68.5512760 135.2057440  42.9722810  69.9391740
 134.6567540  43.4192110  70.5834480 135.8276700  42.4672060  70.4629410
 139.2592380  44.3264910  85.8714000 140.0001850  44.6640670  85.3681460
 138.4965060  44.4956970  85.3183770 130.8732560  41.9313730  71.8357040
 131.2948980  41.7653600  72.6788430 130.9983400  41.1213960  71.3412180
 133.3860200  40.9551340  69.0834140 133.9065860  40.2400360  68.7175290
 134.0328600  41.5937210  69.3834650 137.9338040  42.3779740  84.4069210
 138.3479060  42.5324820  85.2559630 136.9989040  42.5034960  84.5694990
 138.4060210  39.7175900  86.4108360 138.9880980  38.9628220  86.3228840
 138.5821980  40.2483340  85.6339840 132.2893720  33.4345890  81.7552700
 131.8411020  33.4570150  80.9098250 131.6558920  33.0364910  82.3523000
 135.0317170  40.0616400  83.7602980 135.1513380  39.4657540  84.4997820
 135.8911170  40.0986090  83.3404280 137.3705070  40.6153590  82.3365490
 136.8440290  41.1396210  81.7330630 137.7136410  41.2480980  82.9675220
 129.7691460  38.0046960  68.7815200 129.5680520  37.1414320  69.1428540
 129.5983510  37.9180320  67.8436800 136.6179370  36.2203560  85.2511820
 135.9294890  35.5585100  85.1861810 137.3385390  35.7741830  85.6960280
 137.2479770  32.8155190  71.3102080 137.5282060  31.9723090  71.6661500
 136.4745500  33.0478300  71.8240830 131.7859190  34.0482200  69.7549280
 131.4381190  33.3706190  69.1751730 131.9871960  33.5871710  70.5692670
 127.5904390  44.4090000  69.6022880 128.0279260  44.9519670  70.2580460
 128.0752120  43.5836950  69.6119220 124.8050190  47.1979030  77.0543140
 125.1353200  46.3300090  76.8221780 125.2341190  47.4037550  77.8848100
 129.4012110  45.5288040  74.7145110 129.1007650  45.4053010  75.6149020
 129.2949600  44.6696630  74.3060840 140.9302580  47.5666620  84.0802080
 140.3304570  47.6259180  83.3366000 141.0596480  46.6271600  84.2098930
 142.1704030  45.3084440  69.4171790 141.3396990  45.3761090  69.8879020
 142.3475860  46.1988560  69.1138650 141.6260490  42.0531920  71.9205990
 142.3879400  42.6228570  72.0265680 141.6414860  41.4859120  72.6914300
 125.1264830  40.5769850  76.1513650 124.4713670  40.3081490  75.5073350
 125.9642780  40.4674330  75.7015630 142.6320460  42.9082020  76.7647920
 143.0029290  42.1249340  76.3583890 143.2722390  43.5971120  76.5865220
 139.6154220  44.2918600  82.1778240 138.8014060  44.7215760  82.4404030
 140.0228420  44.9037010  81.5647290 141.6779660  42.3466290  69.0778510
 141.9528500  43.2545170  68.9497730 141.4890400  42.2828820  70.0140500
 138.0755270  35.3711140  70.3732140 138.4940150  35.1842120  69.5328800
 137.7691330  34.5190190  70.6835070 141.5745000  40.2835280  74.0707940
 141.1988600  39.5163210  73.6389230 140.8448120  40.6657980  74.5582870
 126.1640760  40.9622420  80.6916990 126.5313800  40.8749820  81.5713010
 125.5951580  40.1988970  80.5923850 140.9644620  39.4306800  83.7047460
 140.7330710  39.2019550  82.8045410 141.2249170  40.3506350  83.6592350
 139.4032690  34.6563230  86.4827160 140.2802870  34.6646630  86.8661160
 139.4153530  33.9194070  85.8719510 124.3402910  37.7868780  72.0938980
 123.4366990  38.0498980  71.9190640 124.8243530  38.0579950  71.3138940
 140.8495960  38.5092770  77.3715180 141.3733440  38.0155420  76.7405350
 141.4355380  38.6443130  78.1162750 141.0285680  38.5932640  80.8934730
 140.0788390  38.5596180  81.0079720 141.2098690  39.5032750  80.6584500
 126.5304280  32.8973650  69.0436010 127.2532410  33.4382590  69.3617230
 126.8028800  32.6237070  68.1677550 140.3395930  37.7666120  73.3107590
 140.8355050  37.5336990  74.0956470 140.1412000  36.9277960  72.8945230
 126.2196470  32.1479840  78.9458630 126.8672660  31.5977220  78.5053790
 126.6398310  32.4022990  79.7674440 141.7683090  36.4027070  75.8445270
 141.6582370  36.2483110  76.7827540 142.5290680  35.8748010  75.6020680
 140.1148810  32.3421200  82.3028270 140.7521030  32.9555340  82.6687460
 140.2623700  32.3781860  81.3577500 142.6573360  34.2334990  69.0851410
 143.5822670  34.1016170  68.8769700 142.6349150  34.3127810  70.0387860
 142.7311850  35.0045650  71.7108120 141.9363350  34.9390770  72.2401030
 142.9355130  35.9396290  71.6993470 139.6730270  49.0437200  75.7046510
 140.2689340  48.7221770  75.0280930 139.9308420  48.5709020  76.4959780
 125.9728470  32.3035510  81.6883950 125.6243290  32.7599330  82.4542130
 125.6416170  31.4092640  81.7706380 127.5792840  45.4755110  85.8537140
 127.5362470  45.1048020  86.7351600 127.7103850  46.4132680  85.9938960
 133.4853290  33.4947390  85.2103370 133.4242180  34.0869220  85.9598780
 134.4253670  33.3873350  85.0653630 136.1227850  33.1517450  84.8495660
 136.7368260  33.4696740  84.1876740 136.6677410  32.6666040  85.4691520
 142.5403030  49.0509080  82.2557500 142.0461310  49.4477950  81.5384630
 141.9316320  48.4258290  82.6494780 127.4180870  48.4217360  82.9734920
 126.8241190  48.2902060  83.7124960 127.4104710  47.5855500  82.5077020
 136.8635890  31.7149590  81.1764950 135.9895730  32.0484700  80.9737880
 136.7546640  31.2422770  82.0016820 137.7707870  33.9220460  82.5606670
 137.4421230  33.1072220  82.1808400 138.7190170  33.8790270  82.4372360
 140.2242480  49.6932500  79.5344240 139.7645450  50.4448310  79.1602260
 139.5954940  48.9738970  79.4759040 134.6110710  32.6319430  80.1157860
 133.8282500  33.1064930  80.3954620 134.3173640  31.7274260  80.0071040
 139.1631780  33.3342530  78.1606950 139.6039870  33.2787630  77.3128550
 138.8939370  34.2500540  78.2317130 141.0270350  32.9657770  76.1715770
 140.9658750  32.0218990  76.0246790 141.8062380  33.0737860  76.7169230
 125.9551120  32.9366910  72.6371580 126.7130480  33.0495790  72.0635610
 125.4928290  33.7736110  72.5915010 132.4964930  35.0506180  75.6273890
 131.6839440  34.6763070  75.2869770 133.0006570  34.2951260  75.9295080
 136.9989910  31.7148630  76.8656960 137.6019280  32.2868840  77.3405480
 136.2582900  32.2788070  76.6430860 140.1424510  32.1170190  72.1397240
 140.3375140  33.0153640  72.4064670 139.3554380  31.8857270  72.6330190
 128.3276270  33.4630960  71.1773550 128.8569030  32.6760760  71.0481500
 128.9604590  34.1422150  71.4109080 130.5214110  33.2006100  74.2318940
 129.8916850  32.4993410  74.3989070 129.9819250  33.9610230  74.0152100
 141.6951120  49.3570900  73.9003800 141.8703310  48.6708640  73.2564720
 140.9972690  49.8817950  73.5080470 130.6469670  32.4790080  86.6671430
 130.3653940  32.9823680  85.9032250 131.0289370  31.6811830  86.3013560
 128.6993560  45.8630470  71.4585440 128.0702440  46.3315570  72.0071270
 128.8141390  45.0179690  71.8931630 137.2485130  31.8943660  87.2451900
 137.1350580  32.2138270  88.1403420 138.0654870  32.2956170  86.9489180
 140.0283620  49.0415190  86.7270590 140.8208940  48.5464420  86.5196550
 140.3216770  49.7205330  87.3346200 136.1543280  39.9136130  57.6086640
 136.0737330  38.9990740  57.3378350 135.7407700  40.4103200  56.9026350
 134.2861320  41.6915150  59.4895910 133.5103420  41.2115590  59.7794480
 134.9374250  41.0120800  59.3152070 138.3068750  46.0975340  58.2695040
 137.8450280  45.3262580  58.5982210 139.1194300  46.1241410  58.7747490
 126.7119100  36.9636850  54.1514060 125.8235800  37.3052820  54.0493940
 126.9960290  36.7637170  53.2594890 124.6752110  39.5642500  60.0353760
 125.2468220  38.7964700  60.0357400 124.6753650  39.8631260  59.1260370
 134.5332060  48.3833350  57.8899030 133.9143500  48.8390850  57.3193470
 135.3883840  48.5384810  57.4888730 133.7270310  44.3672340  59.4966070
 133.6578590  43.4262280  59.3355200 134.4890170  44.4573750  60.0688640
 125.9176980  34.9726860  61.8222690 125.7379820  34.0752610  62.1025450
 125.5157060  35.5198730  62.4969640 134.7575480  37.1742720  59.7235000
 135.1340300  36.3014600  59.6108670 134.6594990  37.5101420  58.8325440
 128.8880490  35.5468350  55.1852440 128.9947240  36.4472080  55.4921200
 127.9772850  35.4986320  54.8947090 138.5399600  34.6693160  56.6563340
 139.3609220  34.1789730  56.6988820 138.5733680  35.2590820  57.4095180
 142.8299150  36.6859910  63.2206970 142.1251320  37.0741620  62.7022080
 143.0957070  37.3810200  63.8227900 129.0124320  33.1553280  63.7841040
 129.0142760  33.6725670  62.9786940 128.1828630  32.6783460  63.7610970
 135.3995410  43.2672590  55.2830940 134.7812680  43.7322040  54.7193660
 135.9118660  43.9600070  55.7000450 138.7761080  36.6093540  59.4290880
 138.0716650  36.8978430  60.0093990 139.1373240  37.4193650  59.0690440
 128.6939650  34.8663240  61.7911490 129.0356460  35.7105290  61.4965360
 127.7555460  35.0146980  61.9076830 129.4746270  44.7629260  63.7763720
 130.0920270  45.4380340  63.4948170 128.6139390  45.1717240  63.6851220
 124.7678610  43.9529120  52.6570570 124.3906590  44.4416220  51.9255470
 125.0251680  44.6254400  53.2877100 140.3923860  46.2268670  61.6918360
 139.7087380  46.8967780  61.6835030 140.9318150  46.4249320  60.9263220
 141.8448000  36.0548330  59.8200090 140.8972910  36.0887310  59.9515520
 142.1697990  36.8687280  60.2049450 132.3767540  32.3545510  58.1156080
 132.6842520  31.7992400  57.3991580 131.4468240  32.4889970  57.9329070
 137.9282600  48.0712800  60.4063540 137.9409760  47.6675090  59.5385800
 137.3757820  48.8460090  60.3024970 139.2228020  44.7929020  55.4953710
 139.1124350  43.8503350  55.6203130 139.2196270  45.1544660  56.3816470
 137.3268040  42.9742640  61.7346150 137.7436830  42.7602750  60.8999610
 138.0507860  43.2315430  62.3054770 134.7648300  40.4194340  54.8516200
 133.8377580  40.3531720  55.0804670 134.9173120  41.3574470  54.7371440
 134.7517380  36.6911340  51.8483360 133.8121050  36.8525300  51.9335820
 135.0700640  37.4097020  51.3019350 141.2730140  41.3729860  61.8262390
 140.4448770  41.4422950  61.3512520 141.8680620  41.9584170  61.3578220
 138.7945590  41.9814640  55.3551450 138.1758010  41.6434190  54.7077750
 138.7770040  41.3374400  56.0630640 138.2372150  38.1599180  62.7717260
 137.8243330  38.9852890  63.0257250 137.5048100  37.5744220  62.5793620
 130.3704940  40.9459080  57.6335930 129.9661940  40.2336330  57.1381830
 130.4568060  40.6012320  58.5223970 130.8386640  44.6326640  59.7975140
 130.5414930  44.0272110  59.1182920 131.7886460  44.6703950  59.6864500
 138.9272250  48.2058510  63.4598240 138.4502810  49.0130700  63.2670850
 138.2434040  47.5536840  63.6124450 129.9305070  44.3708330  66.4482940
 129.0333600  44.5948300  66.6956340 129.9557940  44.4943270  65.4994340
 136.9710290  41.2201450  52.3624200 137.4103570  40.3823880  52.2162020
 137.6838710  41.8530850  52.4488340 135.0805670  46.1597520  56.3305440
 135.5201580  46.9021850  55.9160830 135.0192560  46.4024090  57.2544400
 130.5556640  47.1843350  67.2325460 130.5272070  47.5886300  66.3653890
 130.3921610  46.2553710  67.0697060 140.5527430  32.4744260  50.6765240
 140.2400090  32.5671090  51.5764310 141.3139900  33.0525290  50.6262670
 127.0709570  39.8404060  55.1342580 126.9507170  40.5666150  54.5223850
 126.7610460  39.0706970  54.6570490 142.5071460  47.9670450  68.5289630
 142.9831180  48.4453340  69.2078710 143.1278620  47.8987940  67.8035130
 124.7094940  43.0119200  60.9411220 124.7875360  43.1467970  59.9966940
 125.3236620  42.3035090  61.1339340 125.9542570  44.7119390  57.3517400
 125.5470650  44.8533980  56.4971000 126.8455580  44.4279550  57.1488610
 141.9104710  45.1583300  65.6889640 142.0367770  44.9195180  64.7706820
 141.9526090  44.3267840  66.1611720 135.7721450  48.8611300  64.2584450
 136.2866120  48.7719310  65.0606880 134.9290530  49.2071000  64.5512360
 137.7475850  49.1466640  53.6868450 137.5876990  48.8569580  54.5850280
 137.5822560  48.3706770  53.1513680 137.4501980  46.6554200  52.2466450
 136.7567140  46.6531490  51.5868730 138.1924840  46.2313520  51.8160620
 137.0151910  48.2816910  56.3214940 137.4708860  47.5006290  56.6353560
 137.3544430  48.9923730  56.8656120 141.7628720  37.2115760  66.6539380
 141.1472990  37.7195430  66.1254840 141.4425140  36.3114090  66.5965320
 124.7654460  44.0533370  63.4805680 124.9285500  43.5838730  62.6625050
 125.2306910  43.5456930  64.1454520 129.5373230  33.1839130  58.5166250
 129.0941380  33.9648670  58.1850770 130.0958220  33.5069020  59.2237190
 133.8243040  36.0507650  64.1201570 133.3622410  36.2590670  64.9321510
 133.4221150  35.2367000  63.8172240 138.8247550  37.2716600  65.2498230
 137.9741140  36.9722350  65.5707300 138.6649340  37.5158610  64.3382050
 135.9197260  38.7718350  67.3497020 136.2450670  37.9382100  67.0099250
 136.7077590  39.2946870  67.4975350 132.6532050  32.8049830  53.3972080
 132.0286230  32.8009700  54.1225390 132.5662170  31.9380790  53.0008050
 131.5749130  33.7286460  60.3755850 131.8721460  34.6349290  60.2947870
 132.1234690  33.2405240  59.7615420 129.3287450  38.3072700  56.2447500
 129.1028370  38.0909870  57.1494120 128.5479980  38.7401160  55.8993470
 136.5585210  38.3136070  54.8438150 135.9594100  39.0371870  54.6601770
 137.1064820  38.2512850  54.0614600 131.7686660  39.2058280  66.9107770
 131.6730260  38.2653010  66.7608170 132.6118640  39.4273350  66.5155840
 135.1650080  36.9499610  56.8741430 135.5579650  37.2671810  56.0610120
 135.5266930  36.0711490  56.9885950 133.4742250  35.7006920  68.1338290
 132.7840570  35.5079120  68.7684380 134.2174550  35.9841560  68.6662590
 124.2014250  33.5400410  59.0971630 123.9127300  34.1103270  59.8096610
 124.9460010  33.0604860  59.4602860 124.3884480  37.4820530  50.3074350
 124.3059150  38.4251290  50.4489340 124.0367540  37.3395440  49.4286700
 135.7505220  39.5405360  60.9692210 135.0186340  40.0492170  61.3182310
 135.3529560  38.7235340  60.6680990 132.1882610  36.2159560  59.3744700
 132.1918670  35.7749510  58.5249240 133.0833730  36.5376890  59.4816520
 128.0384990  36.0986050  58.3338910 127.6985040  36.5761280  59.0905960
 127.2762310  35.6451170  57.9740010 132.2502760  37.2171640  52.3651460
 132.3715580  37.1758120  53.3137280 131.8651270  38.0795790  52.2098190
 136.2131130  34.9939040  60.3815150 136.2303870  35.4447690  61.2257000
 135.9646710  34.0944680  60.5948590 131.2624260  39.5272780  51.7634760
 130.6941160  39.0791030  51.1370670 131.9713260  39.8865560  51.2299910
 139.6401880  32.4071220  66.2201530 139.9647650  31.6760880  66.7459510
 139.6758390  32.0884860  65.3182520 126.3393440  43.4284800  65.6401490
 125.9548230  42.7878470  66.2384450 126.6505630  44.1320920  66.2096220
 125.3531070  35.0205030  57.2503580 125.0677990  34.6560700  58.0882200
 125.2909930  34.2885490  56.6366720 128.8071740  43.5230970  54.0361170
 128.0334000  42.9828590  53.8759890 129.5366370  43.0037580  53.6978930
 139.5659720  42.5196330  59.8287560 140.2858840  43.0151620  59.4383670
 139.3641540  41.8414220  59.1841430 135.0269660  33.9134290  53.9716950
 134.2134270  33.4147460  53.8962260 134.8331610  34.7532540  53.5553300
 134.9478520  42.5905390  65.7156560 134.8815830  41.6701060  65.4614150
 134.3183660  42.6880830  66.4301200 137.7418050  38.2853940  52.2679110
 138.6297670  38.5971170  52.0930450 137.7123140  37.4126190  51.8759690
 128.8509140  43.1911350  57.6739980 129.3687810  42.3879610  57.6196870
 128.3993160  43.1290490  58.5156810 133.7378640  44.4577630  52.9467280
 134.0794340  45.2019860  52.4510600 132.9091350  44.7708750  53.3092110
 129.5366800  40.6156960  67.4705230 129.2366940  40.7614140  66.5733050
 130.3078040  40.0562250  67.3778620 134.8795250  45.4125960  65.4660360
 134.8939790  44.4806920  65.2479270 134.1720350  45.4985720  66.1050130
 140.0132320  39.5965780  51.7358970 139.9296040  40.0280000  50.8855410
 140.7326510  40.0564130  52.1685790 141.0906460  42.0533300  64.8128940
 140.3654650  42.6462080  64.6158330 141.6181920  42.0456840  64.0142310
 141.0419570  46.4508040  54.4641100 140.3995730  45.7963660  54.7384820
 140.6550230  46.8563130  53.6881770 136.6206050  43.7793470  58.3112790
 136.9729870  43.1821600  57.6514160 135.7368380  43.4537700  58.4821040
 132.7069330  44.5391160  55.7183200 133.3940460  45.0860370  56.0990790
 131.9201750  45.0831890  55.7532810 124.8461730  40.1563980  51.2100280
 125.7156580  40.4388780  51.4936200 124.3552050  40.9699850  51.0949090
 132.0096540  41.5437190  55.3308560 132.4659320  42.3542440  55.5568750
 131.6584750  41.2260330  56.1627050 134.3129150  47.0543530  62.5600860
 134.9571370  47.2602910  63.2374280 134.6758590  46.2931930  62.1071710
 127.9108320  31.8874840  55.8031080 127.7822950  31.8792740  56.7516000
 127.0870340  32.2257930  55.4522090 135.5861230  45.0575880  61.2778310
 136.2283460  44.3569040  61.3910480 136.1110580  45.8374320  61.0975200
 139.4316950  45.3424500  51.0017450 139.2054530  44.6254940  51.5942090
 139.0413150  45.0936940  50.1639200 137.3598850  45.8570780  64.4814370
 137.6955090  46.4437470  65.1592290 136.4399190  45.7263490  64.7112160
 139.0133200  43.2596440  52.6631610 138.7254900  43.7209130  53.4509490
 139.8085370  42.7994210  52.9315830 133.1887430  45.9062110  67.6502430
 132.8684300  45.1871350  68.1948120 132.5145790  46.5817180  67.7238490
 131.2301600  46.7522560  52.5935580 131.2211700  47.4852250  51.9780090
 130.3099960  46.5054140  52.6862540 126.8308240  41.9737450  53.3382340
 126.2236190  42.7136350  53.3477640 127.3057590  42.0636810  52.5120540
 136.4041030  36.1388270  63.0139230 136.7721850  35.3183480  63.3418800
 135.5439230  36.1990160  63.4294880 139.7703060  35.0945210  53.8226790
 139.1416220  35.1990880  53.1085020 139.2754980  35.3141990  54.6120670
 134.2161200  46.8150800  51.2560770 134.3173180  46.6114790  50.3262750
 133.3162940  46.5609080  51.4608550 131.7387090  37.3731160  55.2384670
 131.0303240  37.8417500  55.6798280 132.0231570  36.7153170  55.8729860
 133.3643020  38.7927860  63.2377200 133.8628270  39.2673680  63.9029050
 133.5065970  37.8691380  63.4447230 135.7702520  34.0981820  56.6780460
 135.6470300  34.1167950  55.7289970 136.7187080  34.1460760  56.7978860
 129.9422110  35.6816240  52.6135380 130.7912640  36.1186390  52.5475570
 129.5753380  35.9936500  53.4407440 140.5709880  35.0095820  64.0805590
 140.0683480  35.7501220  64.4199400 141.3866540  35.3979820  63.7642380
 138.8631890  40.2529000  57.5266950 137.9222030  40.2679230  57.7014640
 139.1775960  39.4664960  57.9727250 128.8413530  41.9348600  51.0870910
 129.6076800  41.8229960  51.6496340 128.9188220  41.2386570  50.4347680
 127.5360290  39.3673670  51.7703800 127.6163880  38.4201180  51.8821200
 128.4280040  39.6980550  51.8764460 140.8657470  47.4237850  59.2021210
 140.9904890  48.2469020  59.6745020 141.7323030  47.2128580  58.8545360
 125.2220480  45.5842630  54.7479850 124.2960260  45.8263770  54.7385260
 125.6876910  46.4116890  54.6264600 131.4477310  48.6899370  50.6963910
 132.2405920  48.9788200  50.2445700 130.9281660  48.2591540  50.0176390
 136.1797910  44.8095000  68.0099330 135.5736070  44.8326600  67.2695080
 135.8752020  44.0778040  68.5466580 137.6098280  48.5375290  66.6208740
 138.5620030  48.4533310  66.5708980 137.4626500  49.2017000  67.2942530
 140.5007480  47.9169500  52.1200650 140.2148990  47.5034640  51.3054830
 140.3027030  48.8457210  52.0001170 125.0631090  41.1888590  67.0059970
 125.5670110  40.6095870  67.5776200 124.3238510  41.4728820  67.5436340
 131.9654710  43.9102780  50.5606260 131.8605350  43.2955130  51.2867640
 131.7978930  43.3868670  49.7769270 132.1169030  42.5959580  66.5395490
 131.3514700  43.1644580  66.4550160 132.2984990  42.3035790  65.6463720
 135.2057440  42.9722810  51.1648250 134.6567540  43.4192110  51.8090990
 135.8276700  42.4672060  51.6885920 139.2592380  44.3264910  67.0970510
 140.0001850  44.6640670  66.5937970 138.4965060  44.4956970  66.5440280
 130.8732560  41.9313730  53.0613550 131.2948980  41.7653600  53.9044940
 130.9983400  41.1213960  52.5668690 129.0359980  37.9110280  65.8684530
 128.5056440  37.4201230  65.2407870 129.7048050  38.3394480  65.3342460
 133.3860200  40.9551340  50.3090650 133.9065860  40.2400360  49.9431800
 134.0328600  41.5937210  50.6091160 137.9338040  42.3779740  65.6325720
 138.3479060  42.5324820  66.4816140 136.9989040  42.5034960  65.7951500
 138.4060210  39.7175900  67.6364870 138.9880980  38.9628220  67.5485350
 138.5821980  40.2483340  66.8596350 129.5232280  34.8772650  65.9481820
 129.4289150  34.2593400  65.2232690 128.9429670  35.6038940  65.7211730
 132.2893720  33.4345890  62.9809210 131.8411020  33.4570150  62.1354760
 131.6558920  33.0364910  63.5779510 132.6953270  42.3300220  63.6021650
 133.1141380  43.1732950  63.4297890 131.7761900  42.4672260  63.3728430
 135.0317170  40.0616400  64.9859490 135.1513380  39.4657540  65.7254330
 135.8911170  40.0986090  64.5660790 137.3705070  40.6153590  63.5622000
 136.8440290  41.1396210  62.9587140 137.7136410  41.2480980  64.1931730
 129.7691460  38.0046960  50.0071710 129.5680520  37.1414320  50.3685050
 129.5983510  37.9180320  49.0693310 130.5460690  48.6353230  64.7179380
 130.0081780  49.3599290  64.3988080 130.7994650  48.1583570  63.9276720
 131.7985940  36.6037750  66.2435310 132.3885630  36.2953600  66.9313130
 130.9806180  36.1317500  66.3995210 136.6179370  36.2203560  66.4768330
 135.9294890  35.5585100  66.4118320 137.3385390  35.7741830  66.9216790
 137.2479770  32.8155190  52.5358590 137.5282060  31.9723090  52.8918010
 136.4745500  33.0478300  53.0497340 128.5674260  35.1047580  49.9949590
 128.8700160  35.1115010  49.0868740 129.3068850  34.7545440  50.4917250
 133.4022900  49.8704440  64.9766030 133.3281600  50.7739580  65.2838400
 132.5001740  49.5516340  64.9488100 131.7859190  34.0482200  50.9805790
 131.4381190  33.3706190  50.4008240 131.9871960  33.5871710  51.7949180
 127.5904390  44.4090000  50.8279390 128.0279260  44.9519670  51.4836970
 128.0752120  43.5836950  50.8375730 124.8050190  47.1979030  58.2799650
 125.1353200  46.3300090  58.0478290 125.2341190  47.4037550  59.1104610
 129.4012110  45.5288040  55.9401620 129.1007650  45.4053010  56.8405530
 129.2949600  44.6696630  55.5317350 140.9302580  47.5666620  65.3058590
 140.3304570  47.6259180  64.5622510 141.0596480  46.6271600  65.4355440
 142.1704030  45.3084440  50.6428300 141.3396990  45.3761090  51.1135530
 142.3475860  46.1988560  50.3395160 141.6260490  42.0531920  53.1462500
 142.3879400  42.6228570  53.2522190 141.6414860  41.4859120  53.9170810
 125.1264830  40.5769850  57.3770160 124.4713670  40.3081490  56.7329860
 125.9642780  40.4674330  56.9272140 142.6320460  42.9082020  57.9904430
 143.0029290  42.1249340  57.5840400 143.2722390  43.5971120  57.8121730
 139.6154220  44.2918600  63.4034750 138.8014060  44.7215760  63.6660540
 140.0228420  44.9037010  62.7903800 141.6779660  42.3466290  50.3035020
 141.9528500  43.2545170  50.1754240 141.4890400  42.2828820  51.2397010
 138.0755270  35.3711140  51.5988650 138.4940150  35.1842120  50.7585310
 137.7691330  34.5190190  51.9091580 141.5745000  40.2835280  55.2964450
 141.1988600  39.5163210  54.8645740 140.8448120  40.6657980  55.7839380
 140.9644620  39.4306800  64.9303970 140.7330710  39.2019550  64.0301920
 141.2249170  40.3506350  64.8848860 139.4032690  34.6563230  67.7083670
 140.2802870  34.6646630  68.0917670 139.4153530  33.9194070  67.0976020
 124.3402910  37.7868780  53.3195490 123.4366990  38.0498980  53.1447150
 124.8243530  38.0579950  52.5395450 140.8495960  38.5092770  58.5971690
 141.3733440  38.0155420  57.9661860 141.4355380  38.6443130  59.3419260
 141.0285680  38.5932640  62.1191240 140.0788390  38.5596180  62.2336230
 141.2098690  39.5032750  61.8841010 126.8830120  36.8434320  51.2289870
 127.5921820  36.4217540  50.7437150 126.1670060  36.9109550  50.5973220
 126.5304280  32.8973650  50.2692520 127.2532410  33.4382590  50.5873740
 126.8028800  32.6237070  49.3934060 140.3395930  37.7666120  54.5364100
 140.8355050  37.5336990  55.3212980 140.1412000  36.9277960  54.1201740
 126.2196470  32.1479840  60.1715140 126.8672660  31.5977220  59.7310300
 126.6398310  32.4022990  60.9930950 141.7683090  36.4027070  57.0701780
 141.6582370  36.2483110  58.0084050 142.5290680  35.8748010  56.8277190
 140.1148810  32.3421200  63.5284780 140.7521030  32.9555340  63.8943970
 140.2623700  32.3781860  62.5834010 142.6573360  34.2334990  50.3107920
 143.5822670  34.1016170  50.1026210 142.6349150  34.3127810  51.2644370
 142.7311850  35.0045650  52.9364630 141.9363350  34.9390770  53.4657540
 142.9355130  35.9396290  52.9249980 139.6730270  49.0437200  56.9303020
 140.2689340  48.7221770  56.2537440 139.9308420  48.5709020  57.7216290
 125.9728470  32.3035510  62.9140460 125.6243290  32.7599330  63.6798640
 125.6416170  31.4092640  62.9962890 127.5792840  45.4755110  67.0793650
 127.5362470  45.1048020  67.9608110 127.7103850  46.4132680  67.2195470
 133.4853290  33.4947390  66.4359880 133.4242180  34.0869220  67.1855290
 134.4253670  33.3873350  66.2910140 136.1227850  33.1517450  66.0752170
 136.7368260  33.4696740  65.4133250 136.6677410  32.6666040  66.6948030
 142.5403030  49.0509080  63.4814010 142.0461310  49.4477950  62.7641140
 141.9316320  48.4258290  63.8751290 126.6449110  31.8311710  66.1891230
 127.1932100  31.6499760  65.4257340 126.7104420  31.0405820  66.7247540
 136.8635890  31.7149590  62.4021460 135.9895730  32.0484700  62.1994390
 136.7546640  31.2422770  63.2273330 137.7707870  33.9220460  63.7863180
 137.4421230  33.1072220  63.4064910 138.7190170  33.8790270  63.6628870
 140.2242480  49.6932500  60.7600750 139.7645450  50.4448310  60.3858770
 139.5954940  48.9738970  60.7015550 127.0493100  45.7875740  63.1499470
 126.3227160  45.1681030  63.0825420 127.1102250  46.1816350  62.2797550
 134.6110710  32.6319430  61.3414370 133.8282500  33.1064930  61.6211130
 134.3173640  31.7274260  61.2327550 139.1631780  33.3342530  59.3863460
 139.6039870  33.2787630  58.5385060 138.8939370  34.2500540  59.4573640
 141.0270350  32.9657770  57.3972280 140.9658750  32.0218990  57.2503300
 141.8062380  33.0737860  57.9425740 125.3323100  49.1050130  56.3596230
 125.1645140  48.4720810  57.0578120 124.4657610  49.3109530  56.0090420
 125.9551120  32.9366910  53.8628090 126.7130480  33.0495790  53.2892120
 125.4928290  33.7736110  53.8171520 132.4964930  35.0506180  56.8530400
 131.6839440  34.6763070  56.5126280 133.0006570  34.2951260  57.1551590
 136.9989910  31.7148630  58.0913470 137.6019280  32.2868840  58.5661990
 136.2582900  32.2788070  57.8687370 140.1424510  32.1170190  53.3653750
 140.3375140  33.0153640  53.6321180 139.3554380  31.8857270  53.8586700
 126.9385800  47.7983360  53.8046370 126.4133420  48.1791390  53.1008330
 126.8630380  48.4234130  54.5256080 128.3276270  33.4630960  52.4030060
 128.8569030  32.6760760  52.2738010 128.9604590  34.1422150  52.6365590
 130.5214110  33.2006100  55.4575450 129.8916850  32.4993410  55.6245580
 129.9819250  33.9610230  55.2408610 141.6951120  49.3570900  55.1260310
 141.8703310  48.6708640  54.4821230 140.9972690  49.8817950  54.7336980
 130.6469670  32.4790080  67.8927940 130.3653940  32.9823680  67.1288760
 131.0289370  31.6811830  67.5270070 128.6993560  45.8630470  52.6841950
 128.0702440  46.3315570  53.2327780 128.8141390  45.0179690  53.1188140
 137.2485130  31.8943660  68.4708410 137.1350580  32.2138270  69.3659930
 138.0654870  32.2956170  68.1745690 140.0283620  49.0415190  67.9527100
 140.8208940  48.5464420  67.7453060 140.3216770  49.7205330  68.5602710
 136.1543280  39.9136130  38.8343150 136.0737330  38.9990740  38.5634860
 135.7407700  40.4103200  38.1282860 134.2861320  41.6915150  40.7152420
 133.5103420  41.2115590  41.0050990 134.9374250  41.0120800  40.5408580
 128.3027150  42.0034960  41.5928180 127.4712030  41.7483670  41.9924690
 128.9108130  42.0745730  42.3286100 138.3068750  46.0975340  39.4951550
 137.8450280  45.3262580  39.8238720 139.1194300  46.1241410  40.0004000
 128.2828410  46.0375050  41.7886200 128.5856450  45.1472790  41.6096420
 129.0272000  46.5945270  41.5608450 126.7119100  36.9636850  35.3770570
 125.8235800  37.3052820  35.2750450 126.9960290  36.7637170  34.4851400
 124.6752110  39.5642500  41.2610270 125.2468220  38.7964700  41.2613910
 124.6753650  39.8631260  40.3516880 134.5332060  48.3833350  39.1155540
 133.9143500  48.8390850  38.5449980 135.3883840  48.5384810  38.7145240
 133.7270310  44.3672340  40.7222580 133.6578590  43.4262280  40.5611710
 134.4890170  44.4573750  41.2945150 125.9176980  34.9726860  43.0479200
 125.7379820  34.0752610  43.3281960 125.5157060  35.5198730  43.7226150
 134.7575480  37.1742720  40.9491510 135.1340300  36.3014600  40.8365180
 134.6594990  37.5101420  40.0581950 128.8880490  35.5468350  36.4108950
 128.9947240  36.4472080  36.7177710 127.9772850  35.4986320  36.1203600
 138.5399600  34.6693160  37.8819850 139.3609220  34.1789730  37.9245330
 138.5733680  35.2590820  38.6351690 126.5363650  37.4687360  41.6561540
 127.2173760  37.7325730  42.2748940 126.2211700  36.6288230  41.9899550
 130.7288220  38.5154720  40.7434130 131.2366440  39.0135690  41.3839150
 131.2601460  37.7389920  40.5673490 142.8299150  36.6859910  44.4463480
 142.1251320  37.0741620  43.9278590 143.0957070  37.3810200  45.0484410
 129.0124320  33.1553280  45.0097550 129.0142760  33.6725670  44.2043450
 128.1828630  32.6783460  44.9867480 135.3995410  43.2672590  36.5087450
 134.7812680  43.7322040  35.9450170 135.9118660  43.9600070  36.9256960
 130.2627170  42.7948460  43.1871050 129.9296550  43.4217380  43.8292120
 130.4393850  43.3210340  42.4072720 138.7761080  36.6093540  40.6547390
 138.0716650  36.8978430  41.2350500 139.1373240  37.4193650  40.2946950
 128.6939650  34.8663240  43.0168000 129.0356460  35.7105290  42.7221870
 127.7555460  35.0146980  43.1333340 129.4746270  44.7629260  45.0020230
 130.0920270  45.4380340  44.7204680 128.6139390  45.1717240  44.9107730
 124.7678610  43.9529120  33.8827080 124.3906590  44.4416220  33.1511980
 125.0251680  44.6254400  34.5133610 140.3923860  46.2268670  42.9174870
 139.7087380  46.8967780  42.9091540 140.9318150  46.4249320  42.1519730
 141.8448000  36.0548330  41.0456600 140.8972910  36.0887310  41.1772030
 142.1697990  36.8687280  41.4305960 132.3767540  32.3545510  39.3412590
 132.6842520  31.7992400  38.6248090 131.4468240  32.4889970  39.1585580
 137.9282600  48.0712800  41.6320050 137.9409760  47.6675090  40.7642310
 137.3757820  48.8460090  41.5281480 139.2228020  44.7929020  36.7210220
 139.1124350  43.8503350  36.8459640 139.2196270  45.1544660  37.6072980
 137.3268040  42.9742640  42.9602660 137.7436830  42.7602750  42.1256120
 138.0507860  43.2315430  43.5311280 134.7648300  40.4194340  36.0772710
 133.8377580  40.3531720  36.3061180 134.9173120  41.3574470  35.9627950
 134.7517380  36.6911340  33.0739870 133.8121050  36.8525300  33.1592330
 135.0700640  37.4097020  32.5275860 141.2730140  41.3729860  43.0518900
 140.4448770  41.4422950  42.5769030 141.8680620  41.9584170  42.5834730
 138.7945590  41.9814640  36.5807960 138.1758010  41.6434190  35.9334260
 138.7770040  41.3374400  37.2887150 138.2372150  38.1599180  43.9973770
 137.8243330  38.9852890  44.2513760 137.5048100  37.5744220  43.8050130
 130.3704940  40.9459080  38.8592440 129.9661940  40.2336330  38.3638340
 130.4568060  40.6012320  39.7480480 130.8386640  44.6326640  41.0231650
 130.5414930  44.0272110  40.3439430 131.7886460  44.6703950  40.9121010
 129.0833560  37.7202290  42.6391480 129.6348150  37.8297630  41.8644730
 129.5977070  38.0939890  43.3546710 138.9272250  48.2058510  44.6854750
 138.4502810  49.0130700  44.4927360 138.2434040  47.5536840  44.8380960
 129.9305070  44.3708330  47.6739450 129.0333600  44.5948300  47.9212850
 129.9557940  44.4943270  46.7250850 136.9710290  41.2201450  33.5880710
 137.4103570  40.3823880  33.4418530 137.6838710  41.8530850  33.6744850
 128.7576290  41.2421650  46.2496820 128.6184060  42.1144450  46.6184220
 127.8757650  40.8994460  46.1044760 135.0805670  46.1597520  37.5561950
 135.5201580  46.9021850  37.1417340 135.0192560  46.4024090  38.4800910
 130.5556640  47.1843350  48.4581970 130.5272070  47.5886300  47.5910400
 130.3921610  46.2553710  48.2953570 140.5527430  32.4744260  31.9021750
 140.2400090  32.5671090  32.8020820 141.3139900  33.0525290  31.8519180
 127.0709570  39.8404060  36.3599090 126.9507170  40.5666150  35.7480360
 126.7610460  39.0706970  35.8827000 142.5071460  47.9670450  49.7546140
 142.9831180  48.4453340  50.4335220 143.1278620  47.8987940  49.0291640
 124.7094940  43.0119200  42.1667730 124.7875360  43.1467970  41.2223450
 125.3236620  42.3035090  42.3595850 125.9542570  44.7119390  38.5773910
 125.5470650  44.8533980  37.7227510 126.8455580  44.4279550  38.3745120
 141.9104710  45.1583300  46.9146150 142.0367770  44.9195180  45.9963330
 141.9526090  44.3267840  47.3868230 135.7721450  48.8611300  45.4840960
 136.2866120  48.7719310  46.2863390 134.9290530  49.2071000  45.7768870
 137.7475850  49.1466640  34.9124960 137.5876990  48.8569580  35.8106790
 137.5822560  48.3706770  34.3770190 130.2264230  48.9265170  36.6896580
 130.0506710  48.0100710  36.4764380 129.3719970  49.2852460  36.9294380
 137.4501980  46.6554200  33.4722960 136.7567140  46.6531490  32.8125240
 138.1924840  46.2313520  33.0417130 137.0151910  48.2816910  37.5471450
 137.4708860  47.5006290  37.8610070 137.3544430  48.9923730  38.0912630
 141.7628720  37.2115760  47.8795890 141.1472990  37.7195430  47.3511350
 141.4425140  36.3114090  47.8221830 124.7654460  44.0533370  44.7062190
 124.9285500  43.5838730  43.8881560 125.2306910  43.5456930  45.3711030
 129.5373230  33.1839130  39.7422760 129.0941380  33.9648670  39.4107280
 130.0958220  33.5069020  40.4493700 133.8243040  36.0507650  45.3458080
 133.3622410  36.2590670  46.1578020 133.4221150  35.2367000  45.0428750
 138.8247550  37.2716600  46.4754740 137.9741140  36.9722350  46.7963810
 138.6649340  37.5158610  45.5638560 135.9197260  38.7718350  48.5753530
 136.2450670  37.9382100  48.2355760 136.7077590  39.2946870  48.7231860
 132.6532050  32.8049830  34.6228590 132.0286230  32.8009700  35.3481900
 132.5662170  31.9380790  34.2264560 131.5749130  33.7286460  41.6012360
 131.8721460  34.6349290  41.5204380 132.1234690  33.2405240  40.9871930
 129.3287450  38.3072700  37.4704010 129.1028370  38.0909870  38.3750630
 128.5479980  38.7401160  37.1249980 136.5585210  38.3136070  36.0694660
 135.9594100  39.0371870  35.8858280 137.1064820  38.2512850  35.2871110
 131.7686660  39.2058280  48.1364280 131.6730260  38.2653010  47.9864680
 132.6118640  39.4273350  47.7412350 135.1650080  36.9499610  38.0997940
 135.5579650  37.2671810  37.2866630 135.5266930  36.0711490  38.2142460
 126.8997200  35.6171950  46.2898060 126.5060590  36.4647160  46.4970840
 126.2115600  34.9798320  46.4806700 133.4742250  35.7006920  49.3594800
 132.7840570  35.5079120  49.9940890 134.2174550  35.9841560  49.8919100
 124.2014250  33.5400410  40.3228140 123.9127300  34.1103270  41.0353120
 124.9460010  33.0604860  40.6859370 124.3884480  37.4820530  31.5330860
 124.3059150  38.4251290  31.6745850 124.0367540  37.3395440  30.6543210
 135.7505220  39.5405360  42.1948720 135.0186340  40.0492170  42.5438820
 135.3529560  38.7235340  41.8937500 132.1882610  36.2159560  40.6001210
 132.1918670  35.7749510  39.7505750 133.0833730  36.5376890  40.7073030
 128.0384990  36.0986050  39.5595420 127.6985040  36.5761280  40.3162470
 127.2762310  35.6451170  39.1996520 132.2502760  37.2171640  33.5907970
 132.3715580  37.1758120  34.5393790 131.8651270  38.0795790  33.4354700
 136.2131130  34.9939040  41.6071660 136.2303870  35.4447690  42.4513510
 135.9646710  34.0944680  41.8205100 131.2624260  39.5272780  32.9891270
 130.6941160  39.0791030  32.3627180 131.9713260  39.8865560  32.4556420
 139.6401880  32.4071220  47.4458040 139.9647650  31.6760880  47.9716020
 139.6758390  32.0884860  46.5439030 126.3393440  43.4284800  46.8658000
 125.9548230  42.7878470  47.4640960 126.6505630  44.1320920  47.4352730
 132.4890580  40.2761340  42.3466620 132.8560710  39.8019910  43.0927960
 132.2995640  41.1502910  42.6874960 125.3531070  35.0205030  38.4760090
 125.0677990  34.6560700  39.3138710 125.2909930  34.2885490  37.8623230
 130.2789950  39.3169980  44.6650830 129.9747020  40.1961960  44.8901190
 131.2336410  39.3769770  44.7008270 128.8071740  43.5230970  35.2617680
 128.0334000  42.9828590  35.1016400 129.5366370  43.0037580  34.9235440
 139.5659720  42.5196330  41.0544070 140.2858840  43.0151620  40.6640180
 139.3641540  41.8414220  40.4097940 135.0269660  33.9134290  35.1973460
 134.2134270  33.4147460  35.1218770 134.8331610  34.7532540  34.7809810
 134.9478520  42.5905390  46.9413070 134.8815830  41.6701060  46.6870660
 134.3183660  42.6880830  47.6557710 137.7418050  38.2853940  33.4935620
 138.6297670  38.5971170  33.3186960 137.7123140  37.4126190  33.1016200
 128.8509140  43.1911350  38.8996490 129.3687810  42.3879610  38.8453380
 128.3993160  43.1290490  39.7413320 133.7378640  44.4577630  34.1723790
 134.0794340  45.2019860  33.6767110 132.9091350  44.7708750  34.5348620
 126.3353680  40.1572720  45.8122190 125.9768620  40.8226570  46.3995530
 126.0408240  39.3256270  46.1834810 129.5366800  40.6156960  48.6961740
 129.2366940  40.7614140  47.7989560 130.3078040  40.0562250  48.6035130
 134.8795250  45.4125960  46.6916870 134.8939790  44.4806920  46.4735780
 134.1720350  45.4985720  47.3306640 140.0132320  39.5965780  32.9615480
 139.9296040  40.0280000  32.1111920 140.7326510  40.0564130  33.3942300
 141.0906460  42.0533300  46.0385450 140.3654650  42.6462080  45.8414840
 141.6181920  42.0456840  45.2398820 141.0419570  46.4508040  35.6897610
 140.3995730  45.7963660  35.9641330 140.6550230  46.8563130  34.9138280
 136.6206050  43.7793470  39.5369300 136.9729870  43.1821600  38.8770670
 135.7368380  43.4537700  39.7077550 132.7069330  44.5391160  36.9439710
 133.3940460  45.0860370  37.3247300 131.9201750  45.0831890  36.9789320
 124.8461730  40.1563980  32.4356790 125.7156580  40.4388780  32.7192710
 124.3552050  40.9699850  32.3205600 132.0096540  41.5437190  36.5565070
 132.4659320  42.3542440  36.7825260 131.6584750  41.2260330  37.3883560
 134.3129150  47.0543530  43.7857370 134.9571370  47.2602910  44.4630790
 134.6758590  46.2931930  43.3328220 127.9108320  31.8874840  37.0287590
 127.7822950  31.8792740  37.9772510 127.0870340  32.2257930  36.6778600
 135.5861230  45.0575880  42.5034820 136.2283460  44.3569040  42.6166990
 136.1110580  45.8374320  42.3231710 139.4316950  45.3424500  32.2273960
 139.2054530  44.6254940  32.8198600 139.0413150  45.0936940  31.3895710
 137.3598850  45.8570780  45.7070880 137.6955090  46.4437470  46.3848800
 136.4399190  45.7263490  45.9368670 125.2132980  49.3691360  33.0018420
 125.5730620  49.9680700  32.3475690 125.0725320  49.9151250  33.7753450
 124.9102250  33.6465960  46.4894290 124.1960770  33.8462880  47.0946900
 125.3297290  32.8705530  46.8609090 139.0133200  43.2596440  33.8888120
 138.7254900  43.7209130  34.6766000 139.8085370  42.7994210  34.1572340
 133.1887430  45.9062110  48.8758940 132.8684300  45.1871350  49.4204630
 132.5145790  46.5817180  48.9495000 131.2301600  46.7522560  33.8192090
 131.2211700  47.4852250  33.2036600 130.3099960  46.5054140  33.9119050
 126.8308240  41.9737450  34.5638850 126.2236190  42.7136350  34.5734150
 127.3057590  42.0636810  33.7377050 136.4041030  36.1388270  44.2395740
 136.7721850  35.3183480  44.5675310 135.5439230  36.1990160  44.6551390
 139.7703060  35.0945210  35.0483300 139.1416220  35.1990880  34.3341530
 139.2754980  35.3141990  35.8377180 134.2161200  46.8150800  32.4817280
 134.3173180  46.6114790  31.5519260 133.3162940  46.5609080  32.6865060
 131.7387090  37.3731160  36.4641180 131.0303240  37.8417500  36.9054790
 132.0231570  36.7153170  37.0986370 133.3643020  38.7927860  44.4633710
 133.8628270  39.2673680  45.1285560 133.5065970  37.8691380  44.6703740
 135.7702520  34.0981820  37.9036970 135.6470300  34.1167950  36.9546480
 136.7187080  34.1460760  38.0235370 132.8579310  49.3337120  37.1764950
 133.1120810  49.2958510  36.2544320 131.9091790  49.2070450  37.1693200
 129.9422110  35.6816240  33.8391890 130.7912640  36.1186390  33.7732080
 129.5753380  35.9936500  34.6663950 140.5709880  35.0095820  45.3062100
 140.0683480  35.7501220  45.6455910 141.3866540  35.3979820  44.9898890
 138.8631890  40.2529000  38.7523460 137.9222030  40.2679230  38.9271150
 139.1775960  39.4664960  39.1983760 128.8413530  41.9348600  32.3127420
 129.6076800  41.8229960  32.8752850 128.9188220  41.2386570  31.6604190
 127.5360290  39.3673670  32.9960310 127.6163880  38.4201180  33.1077710
 128.4280040  39.6980550  33.1020970 140.8657470  47.4237850  40.4277720
 140.9904890  48.2469020  40.9001530 141.7323030  47.2128580  40.0801870
 128.3375000  49.5169060  40.0994850 129.0737480  48.9684520  40.3703420
 128.7215920  50.3825070  39.9600840 125.2220480  45.5842630  35.9736360
 124.2960260  45.8263770  35.9641770 125.6876910  46.4116890  35.8521110
 131.4477310  48.6899370  31.9220420 132.2405920  48.9788200  31.4702210
 130.9281660  48.2591540  31.2432900 136.1797910  44.8095000  49.2355840
 135.5736070  44.8326600  48.4951590 135.8752020  44.0778040  49.7723090
 137.6098280  48.5375290  47.8465250 138.5620030  48.4533310  47.7965490
 137.4626500  49.2017000  48.5199040 140.5007480  47.9169500  33.3457160
 140.2148990  47.5034640  32.5311340 140.3027030  48.8457210  33.2257680
 125.0631090  41.1888590  48.2316480 125.5670110  40.6095870  48.8032710
 124.3238510  41.4728820  48.7692850 131.9654710  43.9102780  31.7862770
 131.8605350  43.2955130  32.5124150 131.7978930  43.3868670  31.0025780
 132.1169030  42.5959580  47.7652000 131.3514700  43.1644580  47.6806670
 132.2984990  42.3035790  46.8720230 135.2057440  42.9722810  32.3904760
 134.6567540  43.4192110  33.0347500 135.8276700  42.4672060  32.9142430
 139.2592380  44.3264910  48.3227020 140.0001850  44.6640670  47.8194480
 138.4965060  44.4956970  47.7696790 127.0954170  39.3318180  49.1266550
 127.1359510  39.0332050  50.0351780 127.9499670  39.7325790  48.9674070
 130.8732560  41.9313730  34.2870060 131.2948980  41.7653600  35.1301450
 130.9983400  41.1213960  33.7925200 129.0359980  37.9110280  47.0941040
 128.5056440  37.4201230  46.4664380 129.7048050  38.3394480  46.5598970
 133.3860200  40.9551340  31.5347160 133.9065860  40.2400360  31.1688310
 134.0328600  41.5937210  31.8347670 137.9338040  42.3779740  46.8582230
 138.3479060  42.5324820  47.7072650 136.9989040  42.5034960  47.0208010
 138.4060210  39.7175900  48.8621380 138.9880980  38.9628220  48.7741860
 138.5821980  40.2483340  48.0852860 129.5232280  34.8772650  47.1738330
 129.4289150  34.2593400  46.4489200 128.9429670  35.6038940  46.9468240
 132.2893720  33.4345890  44.2065720 131.8411020  33.4570150  43.3611270
 131.6558920  33.0364910  44.8036020 132.6953270  42.3300220  44.8278160
 133.1141380  43.1732950  44.6554400 131.7761900  42.4672260  44.5984940
 135.0317170  40.0616400  46.2116000 135.1513380  39.4657540  46.9510840
 135.8911170  40.0986090  45.7917300 137.3705070  40.6153590  44.7878510
 136.8440290  41.1396210  44.1843650 137.7136410  41.2480980  45.4188240
 129.7691460  38.0046960  31.2328220 129.5680520  37.1414320  31.5941560
 129.5983510  37.9180320  30.2949820 130.5460690  48.6353230  45.9435890
 130.0081780  49.3599290  45.6244590 130.7994650  48.1583570  45.1533230
 131.7985940  36.6037750  47.4691820 132.3885630  36.2953600  48.1569640
 130.9806180  36.1317500  47.6251720 136.6179370  36.2203560  47.7024840
 135.9294890  35.5585100  47.6374830 137.3385390  35.7741830  48.1473300
 137.2479770  32.8155190  33.7615100 137.5282060  31.9723090  34.1174520
 136.4745500  33.0478300  34.2753850 128.5674260  35.1047580  31.2206100
 128.8700160  35.1115010  30.3125250 129.3068850  34.7545440  31.7173760
 133.4022900  49.8704440  46.2022540 133.3281600  50.7739580  46.5094910
 132.5001740  49.5516340  46.1744610 131.7859190  34.0482200  32.2062300
 131.4381190  33.3706190  31.6264750 131.9871960  33.5871710  33.0205690
 133.9508230  49.0362950  33.8248900 134.8459020  49.3747920  33.8467660
 133.9825860  48.3142360  33.1973180 127.5904390  44.4090000  32.0535900
 128.0279260  44.9519670  32.7093480 128.0752120  43.5836950  32.0632240
 124.8050190  47.1979030  39.5056160 125.1353200  46.3300090  39.2734800
 125.2341190  47.4037550  40.3361120 129.4012110  45.5288040  37.1658130
 129.1007650  45.4053010  38.0662040 129.2949600  44.6696630  36.7573860
 125.2940400  48.0649620  42.2437790 124.8571390  48.2450420  43.0761940
 125.8618080  48.8224240  42.1019510 140.9302580  47.5666620  46.5315100
 140.3304570  47.6259180  45.7879020 141.0596480  46.6271600  46.6611950
 142.1704030  45.3084440  31.8684810 141.3396990  45.3761090  32.3392040
 142.3475860  46.1988560  31.5651670 141.6260490  42.0531920  34.3719010
 142.3879400  42.6228570  34.4778700 141.6414860  41.4859120  35.1427320
 125.1264830  40.5769850  38.6026670 124.4713670  40.3081490  37.9586370
 125.9642780  40.4674330  38.1528650 142.6320460  42.9082020  39.2160940
 143.0029290  42.1249340  38.8096910 143.2722390  43.5971120  39.0378240
 139.6154220  44.2918600  44.6291260 138.8014060  44.7215760  44.8917050
 140.0228420  44.9037010  44.0160310 141.6779660  42.3466290  31.5291530
 141.9528500  43.2545170  31.4010750 141.4890400  42.2828820  32.4653520
 138.0755270  35.3711140  32.8245160 138.4940150  35.1842120  31.9841820
 137.7691330  34.5190190  33.1348090 141.5745000  40.2835280  36.5220960
 141.1988600  39.5163210  36.0902250 140.8448120  40.6657980  37.0095890
 126.1640760  40.9622420  43.1430010 126.5313800  40.8749820  44.0226030
 125.5951580  40.1988970  43.0436870 140.9644620  39.4306800  46.1560480
 140.7330710  39.2019550  45.2558430 141.2249170  40.3506350  46.1105370
 125.7156760  37.8731510  47.0488430 124.8212810  37.8398270  47.3882140
 126.2554310  38.0718300  47.8139680 139.4032690  34.6563230  48.9340180
 140.2802870  34.6646630  49.3174180 139.4153530  33.9194070  48.3232530
 124.3402910  37.7868780  34.5452000 123.4366990  38.0498980  34.3703660
 124.8243530  38.0579950  33.7651960 140.8495960  38.5092770  39.8228200
 141.3733440  38.0155420  39.1918370 141.4355380  38.6443130  40.5675770
 141.0285680  38.5932640  43.3447750 140.0788390  38.5596180  43.4592740
 141.2098690  39.5032750  43.1097520 126.8830120  36.8434320  32.4546380
 127.5921820  36.4217540  31.9693660 126.1670060  36.9109550  31.8229730
 126.5304280  32.8973650  31.4949030 127.2532410  33.4382590  31.8130250
 126.8028800  32.6237070  30.6190570 140.3395930  37.7666120  35.7620610
 140.8355050  37.5336990  36.5469490 140.1412000  36.9277960  35.3458250
 126.2196470  32.1479840  41.3971650 126.8672660  31.5977220  40.9566810
 126.6398310  32.4022990  42.2187460 141.7683090  36.4027070  38.2958290
 141.6582370  36.2483110  39.2340560 142.5290680  35.8748010  38.0533700
 140.1148810  32.3421200  44.7541290 140.7521030  32.9555340  45.1200480
 140.2623700  32.3781860  43.8090520 142.6573360  34.2334990  31.5364430
 143.5822670  34.1016170  31.3282720 142.6349150  34.3127810  32.4900880
 142.7311850  35.0045650  34.1621140 141.9363350  34.9390770  34.6914050
 142.9355130  35.9396290  34.1506490 139.6730270  49.0437200  38.1559530
 140.2689340  48.7221770  37.4793950 139.9308420  48.5709020  38.9472800
 125.9728470  32.3035510  44.1396970 125.6243290  32.7599330  44.9055150
 125.6416170  31.4092640  44.2219400 131.2798870  47.0314700  43.9059880
 131.0390230  47.2989260  43.0190400 132.2201510  47.2020430  43.9610740
 133.4853290  33.4947390  47.6616390 133.4242180  34.0869220  48.4111800
 134.4253670  33.3873350  47.5166650 136.1227850  33.1517450  47.3008680
 136.7368260  33.4696740  46.6389760 136.6677410  32.6666040  47.9204540
 142.5403030  49.0509080  44.7070520 142.0461310  49.4477950  43.9897650
 141.9316320  48.4258290  45.1007800 126.6449110  31.8311710  47.4147740
 127.1932100  31.6499760  46.6513850 126.7104420  31.0405820  47.9504050
 127.4180870  48.4217360  45.4247940 126.8241190  48.2902060  46.1637980
 127.4104710  47.5855500  44.9590040 136.8635890  31.7149590  43.6277970
 135.9895730  32.0484700  43.4250900 136.7546640  31.2422770  44.4529840
 137.7707870  33.9220460  45.0119690 137.4421230  33.1072220  44.6321420
 138.7190170  33.8790270  44.8885380 140.2242480  49.6932500  41.9857260
 139.7645450  50.4448310  41.6115280 139.5954940  48.9738970  41.9272060
 127.0493100  45.7875740  44.3755980 126.3227160  45.1681030  44.3081930
 127.1102250  46.1816350  43.5054060 130.6538200  48.0020740  41.1605390
 131.1703220  47.3908100  40.6353650 131.3035580  48.5049520  41.6516400
 133.3933700  48.8929230  41.9874370 133.6811510  48.6383530  41.1107380
 133.9056920  48.3406590  42.5779940 134.6110710  32.6319430  42.5670880
 133.8282500  33.1064930  42.8467640 134.3173640  31.7274260  42.4584060
 139.1631780  33.3342530  40.6119970 139.6039870  33.2787630  39.7641570
 138.8939370  34.2500540  40.6830150 141.0270350  32.9657770  38.6228790
 140.9658750  32.0218990  38.4759810 141.8062380  33.0737860  39.1682250
 125.3323100  49.1050130  37.5852740 125.1645140  48.4720810  38.2834630
 124.4657610  49.3109530  37.2346930 125.9551120  32.9366910  35.0884600
 126.7130480  33.0495790  34.5148630 125.4928290  33.7736110  35.0428030
 132.4964930  35.0506180  38.0786910 131.6839440  34.6763070  37.7382790
 133.0006570  34.2951260  38.3808100 136.9989910  31.7148630  39.3169980
 137.6019280  32.2868840  39.7918500 136.2582900  32.2788070  39.0943880
 140.1424510  32.1170190  34.5910260 140.3375140  33.0153640  34.8577690
 139.3554380  31.8857270  35.0843210 126.9385800  47.7983360  35.0302880
 126.4133420  48.1791390  34.3264840 126.8630380  48.4234130  35.7512590
 128.3276270  33.4630960  33.6286570 128.8569030  32.6760760  33.4994520
 128.9604590  34.1422150  33.8622100 130.5214110  33.2006100  36.6831960
 129.8916850  32.4993410  36.8502090 129.9819250  33.9610230  36.4665120
 133.4606060  49.8145330  49.3542570 134.3873370  49.5789600  49.3978530
 133.4456490  50.6417330  48.8728600 141.6951120  49.3570900  36.3516820
 141.8703310  48.6708640  35.7077740 140.9972690  49.8817950  35.9593490
 130.6469670  32.4790080  49.1184450 130.3653940  32.9823680  48.3545270
 131.0289370  31.6811830  48.7526580 129.5378770  49.7465740  33.9052130
 130.2697590  49.4625020  33.3576020 129.7972440  49.5079020  34.7951510
 128.6993560  45.8630470  33.9098460 128.0702440  46.3315570  34.4584290
 128.8141390  45.0179690  34.3444650 137.2485130  31.8943660  49.6964920
 137.1350580  32.2138270  50.5916440 138.0654870  32.2956170  49.4002200
 140.0283620  49.0415190  49.1783610 140.8208940  48.5464420  48.9709570
 140.3216770  49.7205330  49.7859220 136.1543280  39.9136130  20.0599660
 136.0737330  38.9990740  19.7891370 135.7407700  40.4103200  19.3539370
 134.2861320  41.6915150  21.9408930 133.5103420  41.2115590  22.2307500
 134.9374250  41.0120800  21.7665090 128.3027150  42.0034960  22.8184690
 127.4712030  41.7483670  23.2181200 128.9108130  42.0745730  23.5542610
 138.3068750  46.0975340  20.7208060 137.8450280  45.3262580  21.0495230
 139.1194300  46.1241410  21.2260510 128.2828410  46.0375050  23.0142710
 128.5856450  45.1472790  22.8352930 129.0272000  46.5945270  22.7864960
 126.7119100  36.9636850  16.6027080 125.8235800  37.3052820  16.5006960
 126.9960290  36.7637170  15.7107910 124.6752110  39.5642500  22.4866780
 125.2468220  38.7964700  22.4870420 124.6753650  39.8631260  21.5773390
 134.5332060  48.3833350  20.3412050 133.9143500  48.8390850  19.7706490
 135.3883840  48.5384810  19.9401750 133.7270310  44.3672340  21.9479090
 133.6578590  43.4262280  21.7868220 134.4890170  44.4573750  22.5201660
 125.9176980  34.9726860  24.2735710 125.7379820  34.0752610  24.5538470
 125.5157060  35.5198730  24.9482660 134.7575480  37.1742720  22.1748020
 135.1340300  36.3014600  22.0621690 134.6594990  37.5101420  21.2838460
 128.8880490  35.5468350  17.6365460 128.9947240  36.4472080  17.9434220
 127.9772850  35.4986320  17.3460110 138.5399600  34.6693160  19.1076360
 139.3609220  34.1789730  19.1501840 138.5733680  35.2590820  19.8608200
 126.5363650  37.4687360  22.8818050 127.2173760  37.7325730  23.5005450
 126.2211700  36.6288230  23.2156060 130.7288220  38.5154720  21.9690640
 131.2366440  39.0135690  22.6095660 131.2601460  37.7389920  21.7930000
 142.8299150  36.6859910  25.6719990 142.1251320  37.0741620  25.1535100
 143.0957070  37.3810200  26.2740920 129.0124320  33.1553280  26.2354060
 129.0142760  33.6725670  25.4299960 128.1828630  32.6783460  26.2123990
 135.3995410  43.2672590  17.7343960 134.7812680  43.7322040  17.1706680
 135.9118660  43.9600070  18.1513470 130.2627170  42.7948460  24.4127560
 129.9296550  43.4217380  25.0548630 130.4393850  43.3210340  23.6329230
 138.7761080  36.6093540  21.8803900 138.0716650  36.8978430  22.4607010
 139.1373240  37.4193650  21.5203460 128.6939650  34.8663240  24.2424510
 129.0356460  35.7105290  23.9478380 127.7555460  35.0146980  24.3589850
 129.4746270  44.7629260  26.2276740 130.0920270  45.4380340  25.9461190
 128.6139390  45.1717240  26.1364240 124.7678610  43.9529120  15.1083590
 124.3906590  44.4416220  14.3768490 125.0251680  44.6254400  15.7390120
 140.3923860  46.2268670  24.1431380 139.7087380  46.8967780  24.1348050
 140.9318150  46.4249320  23.3776240 141.8448000  36.0548330  22.2713110
 140.8972910  36.0887310  22.4028540 142.1697990  36.8687280  22.6562470
 132.3767540  32.3545510  20.5669100 132.6842520  31.7992400  19.8504600
 131.4468240  32.4889970  20.3842090 137.9282600  48.0712800  22.8576560
 137.9409760  47.6675090  21.9898820 137.3757820  48.8460090  22.7537990
 139.2228020  44.7929020  17.9466730 139.1124350  43.8503350  18.0716150
 139.2196270  45.1544660  18.8329490 137.3268040  42.9742640  24.1859170
 137.7436830  42.7602750  23.3512630 138.0507860  43.2315430  24.7567790
 134.7648300  40.4194340  17.3029220 133.8377580  40.3531720  17.5317690
 134.9173120  41.3574470  17.1884460 134.7517380  36.6911340  14.2996380
 133.8121050  36.8525300  14.3848840 135.0700640  37.4097020  13.7532370
 141.2730140  41.3729860  24.2775410 140.4448770  41.4422950  23.8025540
 141.8680620  41.9584170  23.8091240 138.7945590  41.9814640  17.8064470
 138.1758010  41.6434190  17.1590770 138.7770040  41.3374400  18.5143660
 138.2372150  38.1599180  25.2230280 137.8243330  38.9852890  25.4770270
 137.5048100  37.5744220  25.0306640 130.3704940  40.9459080  20.0848950
 129.9661940  40.2336330  19.5894850 130.4568060  40.6012320  20.9736990
 130.8386640  44.6326640  22.2488160 130.5414930  44.0272110  21.5695940
 131.7886460  44.6703950  22.1377520 129.0833560  37.7202290  23.8647990
 129.6348150  37.8297630  23.0901240 129.5977070  38.0939890  24.5803220
 138.9272250  48.2058510  25.9111260 138.4502810  49.0130700  25.7183870
 138.2434040  47.5536840  26.0637470 129.9305070  44.3708330  28.8995960
 129.0333600  44.5948300  29.1469360 129.9557940  44.4943270  27.9507360
 136.9710290  41.2201450  14.8137220 137.4103570  40.3823880  14.6675040
 137.6838710  41.8530850  14.9001360 128.7576290  41.2421650  27.4753330
 128.6184060  42.1144450  27.8440730 127.8757650  40.8994460  27.3301270
 135.0805670  46.1597520  18.7818460 135.5201580  46.9021850  18.3673850
 135.0192560  46.4024090  19.7057420 130.5556640  47.1843350  29.6838480
 130.5272070  47.5886300  28.8166910 130.3921610  46.2553710  29.5210080
 140.5527430  32.4744260  13.1278260 140.2400090  32.5671090  14.0277330
 141.3139900  33.0525290  13.0775690 127.0709570  39.8404060  17.5855600
 126.9507170  40.5666150  16.9736870 126.7610460  39.0706970  17.1083510
 142.5071460  47.9670450  30.9802650 142.9831180  48.4453340  31.6591730
 143.1278620  47.8987940  30.2548150 124.7094940  43.0119200  23.3924240
 124.7875360  43.1467970  22.4479960 125.3236620  42.3035090  23.5852360
 125.9542570  44.7119390  19.8030420 125.5470650  44.8533980  18.9484020
 126.8455580  44.4279550  19.6001630 141.9104710  45.1583300  28.1402660
 142.0367770  44.9195180  27.2219840 141.9526090  44.3267840  28.6124740
 135.7721450  48.8611300  26.7097470 136.2866120  48.7719310  27.5119900
 134.9290530  49.2071000  27.0025380 137.7475850  49.1466640  16.1381470
 137.5876990  48.8569580  17.0363300 137.5822560  48.3706770  15.6026700
 130.2264230  48.9265170  17.9153090 130.0506710  48.0100710  17.7020890
 129.3719970  49.2852460  18.1550890 137.4501980  46.6554200  14.6979470
 136.7567140  46.6531490  14.0381750 138.1924840  46.2313520  14.2673640
 137.0151910  48.2816910  18.7727960 137.4708860  47.5006290  19.0866580
 137.3544430  48.9923730  19.3169140 141.7628720  37.2115760  29.1052400
 141.1472990  37.7195430  28.5767860 141.4425140  36.3114090  29.0478340
 124.7654460  44.0533370  25.9318700 124.9285500  43.5838730  25.1138070
 125.2306910  43.5456930  26.5967540 129.5373230  33.1839130  20.9679270
 129.0941380  33.9648670  20.6363790 130.0958220  33.5069020  21.6750210
 133.8243040  36.0507650  26.5714590 133.3622410  36.2590670  27.3834530
 133.4221150  35.2367000  26.2685260 138.8247550  37.2716600  27.7011250
 137.9741140  36.9722350  28.0220320 138.6649340  37.5158610  26.7895070
 135.9197260  38.7718350  29.8010040 136.2450670  37.9382100  29.4612270
 136.7077590  39.2946870  29.9488370 132.6532050  32.8049830  15.8485100
 132.0286230  32.8009700  16.5738410 132.5662170  31.9380790  15.4521070
 131.5749130  33.7286460  22.8268870 131.8721460  34.6349290  22.7460890
 132.1234690  33.2405240  22.2128440 129.3287450  38.3072700  18.6960520
 129.1028370  38.0909870  19.6007140 128.5479980  38.7401160  18.3506490
 136.5585210  38.3136070  17.2951170 135.9594100  39.0371870  17.1114790
 137.1064820  38.2512850  16.5127620 131.7686660  39.2058280  29.3620790
 131.6730260  38.2653010  29.2121190 132.6118640  39.4273350  28.9668860
 135.1650080  36.9499610  19.3254450 135.5579650  37.2671810  18.5123140
 135.5266930  36.0711490  19.4398970 126.8997200  35.6171950  27.5154570
 126.5060590  36.4647160  27.7227350 126.2115600  34.9798320  27.7063210
 133.4742250  35.7006920  30.5851310 132.7840570  35.5079120  31.2197400
 134.2174550  35.9841560  31.1175610 124.2014250  33.5400410  21.5484650
 123.9127300  34.1103270  22.2609630 124.9460010  33.0604860  21.9115880
 124.3884480  37.4820530  12.7587370 124.3059150  38.4251290  12.9002360
 124.0367540  37.3395440  11.8799720 135.7505220  39.5405360  23.4205230
 135.0186340  40.0492170  23.7695330 135.3529560  38.7235340  23.1194010
 132.1882610  36.2159560  21.8257720 132.1918670  35.7749510  20.9762260
 133.0833730  36.5376890  21.9329540 128.0384990  36.0986050  20.7851930
 127.6985040  36.5761280  21.5418980 127.2762310  35.6451170  20.4253030
 132.2502760  37.2171640  14.8164480 132.3715580  37.1758120  15.7650300
 131.8651270  38.0795790  14.6611210 136.2131130  34.9939040  22.8328170
 136.2303870  35.4447690  23.6770020 135.9646710  34.0944680  23.0461610
 131.2624260  39.5272780  14.2147780 130.6941160  39.0791030  13.5883690
 131.9713260  39.8865560  13.6812930 139.6401880  32.4071220  28.6714550
 139.9647650  31.6760880  29.1972530 139.6758390  32.0884860  27.7695540
 126.3393440  43.4284800  28.0914510 125.9548230  42.7878470  28.6897470
 126.6505630  44.1320920  28.6609240 132.4890580  40.2761340  23.5723130
 132.8560710  39.8019910  24.3184470 132.2995640  41.1502910  23.9131470
 125.3531070  35.0205030  19.7016600 125.0677990  34.6560700  20.5395220
 125.2909930  34.2885490  19.0879740 130.2789950  39.3169980  25.8907340
 129.9747020  40.1961960  26.1157700 131.2336410  39.3769770  25.9264780
 128.8071740  43.5230970  16.4874190 128.0334000  42.9828590  16.3272910
 129.5366370  43.0037580  16.1491950 139.5659720  42.5196330  22.2800580
 140.2858840  43.0151620  21.8896690 139.3641540  41.8414220  21.6354450
 135.0269660  33.9134290  16.4229970 134.2134270  33.4147460  16.3475280
 134.8331610  34.7532540  16.0066320 134.9478520  42.5905390  28.1669580
 134.8815830  41.6701060  27.9127170 134.3183660  42.6880830  28.8814220
 137.7418050  38.2853940  14.7192130 138.6297670  38.5971170  14.5443470
 137.7123140  37.4126190  14.3272710 128.8509140  43.1911350  20.1253000
 129.3687810  42.3879610  20.0709890 128.3993160  43.1290490  20.9669830
 133.7378640  44.4577630  15.3980300 134.0794340  45.2019860  14.9023620
 132.9091350  44.7708750  15.7605130 126.3353680  40.1572720  27.0378700
 125.9768620  40.8226570  27.6252040 126.0408240  39.3256270  27.4091320
 129.5366800  40.6156960  29.9218250 129.2366940  40.7614140  29.0246070
 130.3078040  40.0562250  29.8291640 134.8795250  45.4125960  27.9173380
 134.8939790  44.4806920  27.6992290 134.1720350  45.4985720  28.5563150
 140.0132320  39.5965780  14.1871990 139.9296040  40.0280000  13.3368430
 140.7326510  40.0564130  14.6198810 141.0906460  42.0533300  27.2641960
 140.3654650  42.6462080  27.0671350 141.6181920  42.0456840  26.4655330
 141.0419570  46.4508040  16.9154120 140.3995730  45.7963660  17.1897840
 140.6550230  46.8563130  16.1394790 136.6206050  43.7793470  20.7625810
 136.9729870  43.1821600  20.1027180 135.7368380  43.4537700  20.9334060
 132.7069330  44.5391160  18.1696220 133.3940460  45.0860370  18.5503810
 131.9201750  45.0831890  18.2045830 124.8461730  40.1563980  13.6613300
 125.7156580  40.4388780  13.9449220 124.3552050  40.9699850  13.5462110
 132.0096540  41.5437190  17.7821580 132.4659320  42.3542440  18.0081770
 131.6584750  41.2260330  18.6140070 134.3129150  47.0543530  25.0113880
 134.9571370  47.2602910  25.6887300 134.6758590  46.2931930  24.5584730
 127.9108320  31.8874840  18.2544100 127.7822950  31.8792740  19.2029020
 127.0870340  32.2257930  17.9035110 135.5861230  45.0575880  23.7291330
 136.2283460  44.3569040  23.8423500 136.1110580  45.8374320  23.5488220
 139.4316950  45.3424500  13.4530470 139.2054530  44.6254940  14.0455110
 139.0413150  45.0936940  12.6152220 137.3598850  45.8570780  26.9327390
 137.6955090  46.4437470  27.6105310 136.4399190  45.7263490  27.1625180
 125.2132980  49.3691360  14.2274930 125.5730620  49.9680700  13.5732200
 125.0725320  49.9151250  15.0009960 124.9102250  33.6465960  27.7150800
 124.1960770  33.8462880  28.3203410 125.3297290  32.8705530  28.0865600
 139.0133200  43.2596440  15.1144630 138.7254900  43.7209130  15.9022510
 139.8085370  42.7994210  15.3828850 125.1974840  47.6346220  28.7017330
 125.3065960  46.6940960  28.5612720 124.5455400  47.9000970  28.0531060
 133.1887430  45.9062110  30.1015450 132.8684300  45.1871350  30.6461140
 132.5145790  46.5817180  30.1751510 131.2301600  46.7522560  15.0448600
 131.2211700  47.4852250  14.4293110 130.3099960  46.5054140  15.1375560
 126.8308240  41.9737450  15.7895360 126.2236190  42.7136350  15.7990660
 127.3057590  42.0636810  14.9633560 136.4041030  36.1388270  25.4652250
 136.7721850  35.3183480  25.7931820 135.5439230  36.1990160  25.8807900
 139.7703060  35.0945210  16.2739810 139.1416220  35.1990880  15.5598040
 139.2754980  35.3141990  17.0633690 134.2161200  46.8150800  13.7073790
 134.3173180  46.6114790  12.7775770 133.3162940  46.5609080  13.9121570
 131.7387090  37.3731160  17.6897690 131.0303240  37.8417500  18.1311300
 132.0231570  36.7153170  18.3242880 133.3643020  38.7927860  25.6890220
 133.8628270  39.2673680  26.3542070 133.5065970  37.8691380  25.8960250
 135.7702520  34.0981820  19.1293480 135.6470300  34.1167950  18.1802990
 136.7187080  34.1460760  19.2491880 132.8579310  49.3337120  18.4021460
 133.1120810  49.2958510  17.4800830 131.9091790  49.2070450  18.3949710
 129.9422110  35.6816240  15.0648400 130.7912640  36.1186390  14.9988590
 129.5753380  35.9936500  15.8920460 140.5709880  35.0095820  26.5318610
 140.0683480  35.7501220  26.8712420 141.3866540  35.3979820  26.2155400
 138.8631890  40.2529000  19.9779970 137.9222030  40.2679230  20.1527660
 139.1775960  39.4664960  20.4240270 128.8413530  41.9348600  13.5383930
 129.6076800  41.8229960  14.1009360 128.9188220  41.2386570  12.8860700
 127.5360290  39.3673670  14.2216820 127.6163880  38.4201180  14.3334220
 128.4280040  39.6980550  14.3277480 140.8657470  47.4237850  21.6534230
 140.9904890  48.2469020  22.1258040 141.7323030  47.2128580  21.3058380
 128.3375000  49.5169060  21.3251360 129.0737480  48.9684520  21.5959930
 128.7215920  50.3825070  21.1857350 125.2220480  45.5842630  17.1992870
 124.2960260  45.8263770  17.1898280 125.6876910  46.4116890  17.0777620
 127.3433280  48.7015130  30.5136940 128.1446010  49.0227180  30.9272340
 126.8285100  48.3410710  31.2356850 131.4477310  48.6899370  13.1476930
 132.2405920  48.9788200  12.6958720 130.9281660  48.2591540  12.4689410
 136.1797910  44.8095000  30.4612350 135.5736070  44.8326600  29.7208100
 135.8752020  44.0778040  30.9979600 137.6098280  48.5375290  29.0721760
 138.5620030  48.4533310  29.0222000 137.4626500  49.2017000  29.7455550
 140.5007480  47.9169500  14.5713670 140.2148990  47.5034640  13.7567850
 140.3027030  48.8457210  14.4514190 125.0631090  41.1888590  29.4572990
 125.5670110  40.6095870  30.0289220 124.3238510  41.4728820  29.9949360
 131.9654710  43.9102780  13.0119280 131.8605350  43.2955130  13.7380660
 131.7978930  43.3868670  12.2282290 132.1169030  42.5959580  28.9908510
 131.3514700  43.1644580  28.9063180 132.2984990  42.3035790  28.0976740
 135.2057440  42.9722810  13.6161270 134.6567540  43.4192110  14.2604010
 135.8276700  42.4672060  14.1398940 139.2592380  44.3264910  29.5483530
 140.0001850  44.6640670  29.0450990 138.4965060  44.4956970  28.9953300
 127.0954170  39.3318180  30.3523060 127.1359510  39.0332050  31.2608290
 127.9499670  39.7325790  30.1930580 130.8732560  41.9313730  15.5126570
 131.2948980  41.7653600  16.3557960 130.9983400  41.1213960  15.0181710
 129.0359980  37.9110280  28.3197550 128.5056440  37.4201230  27.6920890
 129.7048050  38.3394480  27.7855480 133.3860200  40.9551340  12.7603670
 133.9065860  40.2400360  12.3944820 134.0328600  41.5937210  13.0604180
 137.9338040  42.3779740  28.0838740 138.3479060  42.5324820  28.9329160
 136.9989040  42.5034960  28.2464520 138.4060210  39.7175900  30.0877890
 138.9880980  38.9628220  29.9998370 138.5821980  40.2483340  29.3109370
 129.5232280  34.8772650  28.3994840 129.4289150  34.2593400  27.6745710
 128.9429670  35.6038940  28.1724750 132.2893720  33.4345890  25.4322230
 131.8411020  33.4570150  24.5867780 131.6558920  33.0364910  26.0292530
 132.6953270  42.3300220  26.0534670 133.1141380  43.1732950  25.8810910
 131.7761900  42.4672260  25.8241450 135.0317170  40.0616400  27.4372510
 135.1513380  39.4657540  28.1767350 135.8911170  40.0986090  27.0173810
 137.3705070  40.6153590  26.0135020 136.8440290  41.1396210  25.4100160
 137.7136410  41.2480980  26.6444750 129.7691460  38.0046960  12.4584730
 129.5680520  37.1414320  12.8198070 129.5983510  37.9180320  11.5206330
 130.5460690  48.6353230  27.1692400 130.0081780  49.3599290  26.8501100
 130.7994650  48.1583570  26.3789740 131.7985940  36.6037750  28.6948330
 132.3885630  36.2953600  29.3826150 130.9806180  36.1317500  28.8508230
 136.6179370  36.2203560  28.9281350 135.9294890  35.5585100  28.8631340
 137.3385390  35.7741830  29.3729810 137.2479770  32.8155190  14.9871610
 137.5282060  31.9723090  15.3431030 136.4745500  33.0478300  15.5010360
 128.5674260  35.1047580  12.4462610 128.8700160  35.1115010  11.5381760
 129.3068850  34.7545440  12.9430270 133.4022900  49.8704440  27.4279050
 133.3281600  50.7739580  27.7351420 132.5001740  49.5516340  27.4001120
 131.7859190  34.0482200  13.4318810 131.4381190  33.3706190  12.8521260
 131.9871960  33.5871710  14.2462200 133.9508230  49.0362950  15.0505410
 134.8459020  49.3747920  15.0724170 133.9825860  48.3142360  14.4229690
 127.5904390  44.4090000  13.2792410 128.0279260  44.9519670  13.9349990
 128.0752120  43.5836950  13.2888750 124.8050190  47.1979030  20.7312670
 125.1353200  46.3300090  20.4991310 125.2341190  47.4037550  21.5617630
 129.4012110  45.5288040  18.3914640 129.1007650  45.4053010  19.2918550
 129.2949600  44.6696630  17.9830370 125.2940400  48.0649620  23.4694300
 124.8571390  48.2450420  24.3018450 125.8618080  48.8224240  23.3276020
 140.9302580  47.5666620  27.7571610 140.3304570  47.6259180  27.0135530
 141.0596480  46.6271600  27.8868460 142.1704030  45.3084440  13.0941320
 141.3396990  45.3761090  13.5648550 142.3475860  46.1988560  12.7908180
 141.6260490  42.0531920  15.5975520 142.3879400  42.6228570  15.7035210
 141.6414860  41.4859120  16.3683830 125.1264830  40.5769850  19.8283180
 124.4713670  40.3081490  19.1842880 125.9642780  40.4674330  19.3785160
 142.6320460  42.9082020  20.4417450 143.0029290  42.1249340  20.0353420
 143.2722390  43.5971120  20.2634750 139.6154220  44.2918600  25.8547770
 138.8014060  44.7215760  26.1173560 140.0228420  44.9037010  25.2416820
 141.6779660  42.3466290  12.7548040 141.9528500  43.2545170  12.6267260
 141.4890400  42.2828820  13.6910030 138.0755270  35.3711140  14.0501670
 138.4940150  35.1842120  13.2098330 137.7691330  34.5190190  14.3604600
 141.5745000  40.2835280  17.7477470 141.1988600  39.5163210  17.3158760
 140.8448120  40.6657980  18.2352400 126.1640760  40.9622420  24.3686520
 126.5313800  40.8749820  25.2482540 125.5951580  40.1988970  24.2693380
 140.9644620  39.4306800  27.3816990 140.7330710  39.2019550  26.4814940
 141.2249170  40.3506350  27.3361880 125.7156760  37.8731510  28.2744940
 124.8212810  37.8398270  28.6138650 126.2554310  38.0718300  29.0396190
 139.4032690  34.6563230  30.1596690 140.2802870  34.6646630  30.5430690
 139.4153530  33.9194070  29.5489040 124.3402910  37.7868780  15.7708510
 123.4366990  38.0498980  15.5960170 124.8243530  38.0579950  14.9908470
 140.8495960  38.5092770  21.0484710 141.3733440  38.0155420  20.4174880
 141.4355380  38.6443130  21.7932280 141.0285680  38.5932640  24.5704260
 140.0788390  38.5596180  24.6849250 141.2098690  39.5032750  24.3354030
 126.8830120  36.8434320  13.6802890 127.5921820  36.4217540  13.1950170
 126.1670060  36.9109550  13.0486240 126.5304280  32.8973650  12.7205540
 127.2532410  33.4382590  13.0386760 126.8028800  32.6237070  11.8447080
 140.3395930  37.7666120  16.9877120 140.8355050  37.5336990  17.7726000
 140.1412000  36.9277960  16.5714760 126.2196470  32.1479840  22.6228160
 126.8672660  31.5977220  22.1823320 126.6398310  32.4022990  23.4443970
 141.7683090  36.4027070  19.5214800 141.6582370  36.2483110  20.4597070
 142.5290680  35.8748010  19.2790210 140.1148810  32.3421200  25.9797800
 140.7521030  32.9555340  26.3456990 140.2623700  32.3781860  25.0347030
 142.6573360  34.2334990  12.7620940 143.5822670  34.1016170  12.5539230
 142.6349150  34.3127810  13.7157390 142.7311850  35.0045650  15.3877650
 141.9363350  34.9390770  15.9170560 142.9355130  35.9396290  15.3763000
 139.6730270  49.0437200  19.3816040 140.2689340  48.7221770  18.7050460
 139.9308420  48.5709020  20.1729310 125.9728470  32.3035510  25.3653480
 125.6243290  32.7599330  26.1311660 125.6416170  31.4092640  25.4475910
 127.5792840  45.4755110  29.5306670 127.5362470  45.1048020  30.4121130
 127.7103850  46.4132680  29.6708490 131.2798870  47.0314700  25.1316390
 131.0390230  47.2989260  24.2446910 132.2201510  47.2020430  25.1867250
 133.4853290  33.4947390  28.8872900 133.4242180  34.0869220  29.6368310
 134.4253670  33.3873350  28.7423160 136.1227850  33.1517450  28.5265190
 136.7368260  33.4696740  27.8646270 136.6677410  32.6666040  29.1461050
 142.5403030  49.0509080  25.9327030 142.0461310  49.4477950  25.2154160
 141.9316320  48.4258290  26.3264310 126.6449110  31.8311710  28.6404250
 127.1932100  31.6499760  27.8770360 126.7104420  31.0405820  29.1760560
 127.4180870  48.4217360  26.6504450 126.8241190  48.2902060  27.3894490
 127.4104710  47.5855500  26.1846550 136.8635890  31.7149590  24.8534480
 135.9895730  32.0484700  24.6507410 136.7546640  31.2422770  25.6786350
 137.7707870  33.9220460  26.2376200 137.4421230  33.1072220  25.8577930
 138.7190170  33.8790270  26.1141890 140.2242480  49.6932500  23.2113770
 139.7645450  50.4448310  22.8371790 139.5954940  48.9738970  23.1528570
 127.0493100  45.7875740  25.6012490 126.3227160  45.1681030  25.5338440
 127.1102250  46.1816350  24.7310570 130.6538200  48.0020740  22.3861900
 131.1703220  47.3908100  21.8610160 131.3035580  48.5049520  22.8772910
 133.3933700  48.8929230  23.2130880 133.6811510  48.6383530  22.3363890
 133.9056920  48.3406590  23.8036450 134.6110710  32.6319430  23.7927390
 133.8282500  33.1064930  24.0724150 134.3173640  31.7274260  23.6840570
 139.1631780  33.3342530  21.8376480 139.6039870  33.2787630  20.9898080
 138.8939370  34.2500540  21.9086660 141.0270350  32.9657770  19.8485300
 140.9658750  32.0218990  19.7016320 141.8062380  33.0737860  20.3938760
 125.3323100  49.1050130  18.8109250 125.1645140  48.4720810  19.5091140
 124.4657610  49.3109530  18.4603440 125.9551120  32.9366910  16.3141110
 126.7130480  33.0495790  15.7405140 125.4928290  33.7736110  16.2684540
 132.4964930  35.0506180  19.3043420 131.6839440  34.6763070  18.9639300
 133.0006570  34.2951260  19.6064610 136.9989910  31.7148630  20.5426490
 137.6019280  32.2868840  21.0175010 136.2582900  32.2788070  20.3200390
 140.1424510  32.1170190  15.8166770 140.3375140  33.0153640  16.0834200
 139.3554380  31.8857270  16.3099720 126.9385800  47.7983360  16.2559390
 126.4133420  48.1791390  15.5521350 126.8630380  48.4234130  16.9769100
 128.3276270  33.4630960  14.8543080 128.8569030  32.6760760  14.7251030
 128.9604590  34.1422150  15.0878610 130.5214110  33.2006100  17.9088470
 129.8916850  32.4993410  18.0758600 129.9819250  33.9610230  17.6921630
 133.4606060  49.8145330  30.5799080 134.3873370  49.5789600  30.6235040
 133.4456490  50.6417330  30.0985110 141.6951120  49.3570900  17.5773330
 141.8703310  48.6708640  16.9334250 140.9972690  49.8817950  17.1850000
 130.6469670  32.4790080  30.3440960 130.3653940  32.9823680  29.5801780
 131.0289370  31.6811830  29.9783090 129.5378770  49.7465740  15.1308640
 130.2697590  49.4625020  14.5832530 129.7972440  49.5079020  16.0208020
 128.6993560  45.8630470  15.1354970 128.0702440  46.3315570  15.6840800
 128.8141390  45.0179690  15.5701160 137.2485130  31.8943660  30.9221430
 137.1350580  32.2138270  31.8172950 138.0654870  32.2956170  30.6258710
 140.0283620  49.0415190  30.4040120 140.8208940  48.5464420  30.1966080
 140.3216770  49.7205330  31.0115730 134.2861320  41.6915150   3.1665440
 133.5103420  41.2115590   3.4564010 134.9374250  41.0120800   2.9921600
 128.3027150  42.0034960   4.0441200 127.4712030  41.7483670   4.4437710
 128.9108130  42.0745730   4.7799120 138.3068750  46.0975340   1.9464570
 137.8450280  45.3262580   2.2751740 139.1194300  46.1241410   2.4517020
 128.2828410  46.0375050   4.2399220 128.5856450  45.1472790   4.0609440
 129.0272000  46.5945270   4.0121470 124.6752110  39.5642500   3.7123290
 125.2468220  38.7964700   3.7126930 124.6753650  39.8631260   2.8029900
 133.7270310  44.3672340   3.1735600 133.6578590  43.4262280   3.0124730
 134.4890170  44.4573750   3.7458170 125.9176980  34.9726860   5.4992220
 125.7379820  34.0752610   5.7794980 125.5157060  35.5198730   6.1739170
 134.7575480  37.1742720   3.4004530 135.1340300  36.3014600   3.2878200
 134.6594990  37.5101420   2.5094970 126.5363650  37.4687360   4.1074560
 127.2173760  37.7325730   4.7261960 126.2211700  36.6288230   4.4412570
 130.7288220  38.5154720   3.1947150 131.2366440  39.0135690   3.8352170
 131.2601460  37.7389920   3.0186510 142.8299150  36.6859910   6.8976500
 142.1251320  37.0741620   6.3791610 143.0957070  37.3810200   7.4997430
 129.0124320  33.1553280   7.4610570 129.0142760  33.6725670   6.6556470
 128.1828630  32.6783460   7.4380500 130.2627170  42.7948460   5.6384070
 129.9296550  43.4217380   6.2805140 130.4393850  43.3210340   4.8585740
 138.7761080  36.6093540   3.1060410 138.0716650  36.8978430   3.6863520
 139.1373240  37.4193650   2.7459970 128.6939650  34.8663240   5.4681020
 129.0356460  35.7105290   5.1734890 127.7555460  35.0146980   5.5846360
 129.4746270  44.7629260   7.4533250 130.0920270  45.4380340   7.1717700
 128.6139390  45.1717240   7.3620750 140.3923860  46.2268670   5.3687890
 139.7087380  46.8967780   5.3604560 140.9318150  46.4249320   4.6032750
 141.8448000  36.0548330   3.4969620 140.8972910  36.0887310   3.6285050
 142.1697990  36.8687280   3.8818980 137.9282600  48.0712800   4.0833070
 137.9409760  47.6675090   3.2155330 137.3757820  48.8460090   3.9794500
 137.3268040  42.9742640   5.4115680 137.7436830  42.7602750   4.5769140
 138.0507860  43.2315430   5.9824300 141.2730140  41.3729860   5.5031920
 140.4448770  41.4422950   5.0282050 141.8680620  41.9584170   5.0347750
 138.2372150  38.1599180   6.4486790 137.8243330  38.9852890   6.7026780
 137.5048100  37.5744220   6.2563150 130.8386640  44.6326640   3.4744670
 130.5414930  44.0272110   2.7952450 131.7886460  44.6703950   3.3634030
 129.0833560  37.7202290   5.0904500 129.6348150  37.8297630   4.3157750
 129.5977070  38.0939890   5.8059730 138.9272250  48.2058510   7.1367770
 138.4502810  49.0130700   6.9440380 138.2434040  47.5536840   7.2893980
 129.9305070  44.3708330  10.1252470 129.0333600  44.5948300  10.3725870
 129.9557940  44.4943270   9.1763870 128.7576290  41.2421650   8.7009840
 128.6184060  42.1144450   9.0697240 127.8757650  40.8994460   8.5557780
 130.5556640  47.1843350  10.9094990 130.5272070  47.5886300  10.0423420
 130.3921610  46.2553710  10.7466590 142.5071460  47.9670450  12.2059160
 142.9831180  48.4453340  12.8848240 143.1278620  47.8987940  11.4804660
 124.7094940  43.0119200   4.6180750 124.7875360  43.1467970   3.6736470
 125.3236620  42.3035090   4.8108870 141.9104710  45.1583300   9.3659170
 142.0367770  44.9195180   8.4476350 141.9526090  44.3267840   9.8381250
 135.7721450  48.8611300   7.9353980 136.2866120  48.7719310   8.7376410
 134.9290530  49.2071000   8.2281890 141.7628720  37.2115760  10.3308910
 141.1472990  37.7195430   9.8024370 141.4425140  36.3114090  10.2734850
 124.7654460  44.0533370   7.1575210 124.9285500  43.5838730   6.3394580
 125.2306910  43.5456930   7.8224050 129.5373230  33.1839130   2.1935780
 129.0941380  33.9648670   1.8620300 130.0958220  33.5069020   2.9006720
 133.8243040  36.0507650   7.7971100 133.3622410  36.2590670   8.6091040
 133.4221150  35.2367000   7.4941770 138.8247550  37.2716600   8.9267760
 137.9741140  36.9722350   9.2476830 138.6649340  37.5158610   8.0151580
 135.9197260  38.7718350  11.0266550 136.2450670  37.9382100  10.6868780
 136.7077590  39.2946870  11.1744880 131.5749130  33.7286460   4.0525380
 131.8721460  34.6349290   3.9717400 132.1234690  33.2405240   3.4384950
 131.7686660  39.2058280  10.5877300 131.6730260  38.2653010  10.4377700
 132.6118640  39.4273350  10.1925370 126.8997200  35.6171950   8.7411080
 126.5060590  36.4647160   8.9483860 126.2115600  34.9798320   8.9319720
 133.4742250  35.7006920  11.8107820 132.7840570  35.5079120  12.4453910
 134.2174550  35.9841560  12.3432120 124.2014250  33.5400410   2.7741160
 123.9127300  34.1103270   3.4866140 124.9460010  33.0604860   3.1372390
 135.7505220  39.5405360   4.6461740 135.0186340  40.0492170   4.9951840
 135.3529560  38.7235340   4.3450520 132.1882610  36.2159560   3.0514230
 132.1918670  35.7749510   2.2018770 133.0833730  36.5376890   3.1586050
 128.0384990  36.0986050   2.0108440 127.6985040  36.5761280   2.7675490
 127.2762310  35.6451170   1.6509540 136.2131130  34.9939040   4.0584680
 136.2303870  35.4447690   4.9026530 135.9646710  34.0944680   4.2718120
 139.6401880  32.4071220   9.8971060 139.9647650  31.6760880  10.4229040
 139.6758390  32.0884860   8.9952050 126.3393440  43.4284800   9.3171020
 125.9548230  42.7878470   9.9153980 126.6505630  44.1320920   9.8865750
 132.4890580  40.2761340   4.7979640 132.8560710  39.8019910   5.5440980
 132.2995640  41.1502910   5.1387980 130.2789950  39.3169980   7.1163850
 129.9747020  40.1961960   7.3414210 131.2336410  39.3769770   7.1521290
 139.5659720  42.5196330   3.5057090 140.2858840  43.0151620   3.1153200
 139.3641540  41.8414220   2.8610960 134.9478520  42.5905390   9.3926090
 134.8815830  41.6701060   9.1383680 134.3183660  42.6880830  10.1070730
 126.3353680  40.1572720   8.2635210 125.9768620  40.8226570   8.8508550
 126.0408240  39.3256270   8.6347830 129.5366800  40.6156960  11.1474760
 129.2366940  40.7614140  10.2502580 130.3078040  40.0562250  11.0548150
 134.8795250  45.4125960   9.1429890 134.8939790  44.4806920   8.9248800
 134.1720350  45.4985720   9.7819660 141.0906460  42.0533300   8.4898470
 140.3654650  42.6462080   8.2927860 141.6181920  42.0456840   7.6911840
 134.3129150  47.0543530   6.2370390 134.9571370  47.2602910   6.9143810
 134.6758590  46.2931930   5.7841240 135.5861230  45.0575880   4.9547840
 136.2283460  44.3569040   5.0680010 136.1110580  45.8374320   4.7744730
 137.3598850  45.8570780   8.1583900 137.6955090  46.4437470   8.8361820
 136.4399190  45.7263490   8.3881690 124.9102250  33.6465960   8.9407310
 124.1960770  33.8462880   9.5459920 125.3297290  32.8705530   9.3122110
 125.1974840  47.6346220   9.9273840 125.3065960  46.6940960   9.7869230
 124.5455400  47.9000970   9.2787570 133.1887430  45.9062110  11.3271960
 132.8684300  45.1871350  11.8717650 132.5145790  46.5817180  11.4008020
 136.4041030  36.1388270   6.6908760 136.7721850  35.3183480   7.0188330
 135.5439230  36.1990160   7.1064410 133.3643020  38.7927860   6.9146730
 133.8628270  39.2673680   7.5798580 133.5065970  37.8691380   7.1216760
 140.5709880  35.0095820   7.7575120 140.0683480  35.7501220   8.0968930
 141.3866540  35.3979820   7.4411910 140.8657470  47.4237850   2.8790740
 140.9904890  48.2469020   3.3514550 141.7323030  47.2128580   2.5314890
 128.3375000  49.5169060   2.5507870 129.0737480  48.9684520   2.8216440
 128.7215920  50.3825070   2.4113860 127.3433280  48.7015130  11.7393450
 128.1446010  49.0227180  12.1528850 126.8285100  48.3410710  12.4613360
 136.1797910  44.8095000  11.6868860 135.5736070  44.8326600  10.9464610
 135.8752020  44.0778040  12.2236110 137.6098280  48.5375290  10.2978270
 138.5620030  48.4533310  10.2478510 137.4626500  49.2017000  10.9712060
 125.0631090  41.1888590  10.6829500 125.5670110  40.6095870  11.2545730
 124.3238510  41.4728820  11.2205870 132.1169030  42.5959580  10.2165020
 131.3514700  43.1644580  10.1319690 132.2984990  42.3035790   9.3233250
 139.2592380  44.3264910  10.7740040 140.0001850  44.6640670  10.2707500
 138.4965060  44.4956970  10.2209810 127.0954170  39.3318180  11.5779570
 127.1359510  39.0332050  12.4864800 127.9499670  39.7325790  11.4187090
 129.0359980  37.9110280   9.5454060 128.5056440  37.4201230   8.9177400
 129.7048050  38.3394480   9.0111990 137.9338040  42.3779740   9.3095250
 138.3479060  42.5324820  10.1585670 136.9989040  42.5034960   9.4721030
 138.4060210  39.7175900  11.3134400 138.9880980  38.9628220  11.2254880
 138.5821980  40.2483340  10.5365880 129.5232280  34.8772650   9.6251350
 129.4289150  34.2593400   8.9002220 128.9429670  35.6038940   9.3981260
 132.2893720  33.4345890   6.6578740 131.8411020  33.4570150   5.8124290
 131.6558920  33.0364910   7.2549040 132.6953270  42.3300220   7.2791180
 133.1141380  43.1732950   7.1067420 131.7761900  42.4672260   7.0497960
 135.0317170  40.0616400   8.6629020 135.1513380  39.4657540   9.4023860
 135.8911170  40.0986090   8.2430320 137.3705070  40.6153590   7.2391530
 136.8440290  41.1396210   6.6356670 137.7136410  41.2480980   7.8701260
 130.5460690  48.6353230   8.3948910 130.0081780  49.3599290   8.0757610
 130.7994650  48.1583570   7.6046250 131.7985940  36.6037750   9.9204840
 132.3885630  36.2953600  10.6082660 130.9806180  36.1317500  10.0764740
 136.6179370  36.2203560  10.1537860 135.9294890  35.5585100  10.0887850
 137.3385390  35.7741830  10.5986320 133.4022900  49.8704440   8.6535560
 133.3281600  50.7739580   8.9607930 132.5001740  49.5516340   8.6257630
 124.8050190  47.1979030   1.9569180 125.1353200  46.3300090   1.7247820
 125.2341190  47.4037550   2.7874140 125.2940400  48.0649620   4.6950810
 124.8571390  48.2450420   5.5274960 125.8618080  48.8224240   4.5532530
 140.9302580  47.5666620   8.9828120 140.3304570  47.6259180   8.2392040
 141.0596480  46.6271600   9.1124970 139.6154220  44.2918600   7.0804280
 138.8014060  44.7215760   7.3430070 140.0228420  44.9037010   6.4673330
 126.1640760  40.9622420   5.5943030 126.5313800  40.8749820   6.4739050
 125.5951580  40.1988970   5.4949890 140.9644620  39.4306800   8.6073500
 140.7330710  39.2019550   7.7071450 141.2249170  40.3506350   8.5618390
 125.7156760  37.8731510   9.5001450 124.8212810  37.8398270   9.8395160
 126.2554310  38.0718300  10.2652700 139.4032690  34.6563230  11.3853200
 140.2802870  34.6646630  11.7687200 139.4153530  33.9194070  10.7745550
 140.8495960  38.5092770   2.2741220 141.3733440  38.0155420   1.6431390
 141.4355380  38.6443130   3.0188790 141.0285680  38.5932640   5.7960770
 140.0788390  38.5596180   5.9105760 141.2098690  39.5032750   5.5610540
 126.2196470  32.1479840   3.8484670 126.8672660  31.5977220   3.4079830
 126.6398310  32.4022990   4.6700480 140.1148810  32.3421200   7.2054310
 140.7521030  32.9555340   7.5713500 140.2623700  32.3781860   6.2603540
 125.9728470  32.3035510   6.5909990 125.6243290  32.7599330   7.3568170
 125.6416170  31.4092640   6.6732420 127.5792840  45.4755110  10.7563180
 127.5362470  45.1048020  11.6377640 127.7103850  46.4132680  10.8965000
 131.2798870  47.0314700   6.3572900 131.0390230  47.2989260   5.4703420
 132.2201510  47.2020430   6.4123760 133.4853290  33.4947390  10.1129410
 133.4242180  34.0869220  10.8624820 134.4253670  33.3873350   9.9679670
 136.1227850  33.1517450   9.7521700 136.7368260  33.4696740   9.0902780
 136.6677410  32.6666040  10.3717560 142.5403030  49.0509080   7.1583540
 142.0461310  49.4477950   6.4410670 141.9316320  48.4258290   7.5520820
 126.6449110  31.8311710   9.8660760 127.1932100  31.6499760   9.1026870
 126.7104420  31.0405820  10.4017070 127.4180870  48.4217360   7.8760960
 126.8241190  48.2902060   8.6151000 127.4104710  47.5855500   7.4103060
 136.8635890  31.7149590   6.0790990 135.9895730  32.0484700   5.8763920
 136.7546640  31.2422770   6.9042860 137.7707870  33.9220460   7.4632710
 137.4421230  33.1072220   7.0834440 138.7190170  33.8790270   7.3398400
 140.2242480  49.6932500   4.4370280 139.7645450  50.4448310   4.0628300
 139.5954940  48.9738970   4.3785080 127.0493100  45.7875740   6.8269000
 126.3227160  45.1681030   6.7594950 127.1102250  46.1816350   5.9567080
 130.6538200  48.0020740   3.6118410 131.1703220  47.3908100   3.0866670
 131.3035580  48.5049520   4.1029420 133.3933700  48.8929230   4.4387390
 133.6811510  48.6383530   3.5620400 133.9056920  48.3406590   5.0292960
 134.6110710  32.6319430   5.0183900 133.8282500  33.1064930   5.2980660
 134.3173640  31.7274260   4.9097080 139.1631780  33.3342530   3.0632990
 139.6039870  33.2787630   2.2154590 138.8939370  34.2500540   3.1343170
 136.9989910  31.7148630   1.7683000 137.6019280  32.2868840   2.2431520
 136.2582900  32.2788070   1.5456900 133.4606060  49.8145330  11.8055590
 134.3873370  49.5789600  11.8491550 133.4456490  50.6417330  11.3241620
 130.6469670  32.4790080  11.5697470 130.3653940  32.9823680  10.8058290
 131.0289370  31.6811830  11.2039600 137.2485130  31.8943660  12.1477940
 137.1350580  32.2138270  13.0429460 138.0654870  32.2956170  11.8515220
 140.0283620  49.0415190  11.6296630 140.8208940  48.5464420  11.4222590
 140.3216770  49.7205330  12.2372240 136.1543280  21.1392640 151.4804090
 136.0737330  20.2247250 151.2095800 135.7407700  21.6359710 150.7743800
 134.2861320  22.9171660 153.3613360 133.5103420  22.4372100 153.6511930
 134.9374250  22.2377310 153.1869520 138.3068750  27.3231850 152.1412490
 137.8450280  26.5519090 152.4699660 139.1194300  27.3497920 152.6464940
 128.2828410  27.2631560 154.4347140 128.5856450  26.3729300 154.2557360
 129.0272000  27.8201780 154.2069390 126.7119100  18.1893360 148.0231510
 125.8235800  18.5309330 147.9211390 126.9960290  17.9893680 147.1312340
 124.6752110  20.7899010 153.9071210 125.2468220  20.0221210 153.9074850
 124.6753650  21.0887770 152.9977820 134.5332060  29.6089860 151.7616480
 133.9143500  30.0647360 151.1910920 135.3883840  29.7641320 151.3606180
 133.7270310  25.5928850 153.3683520 133.6578590  24.6518790 153.2072650
 134.4890170  25.6830260 153.9406090 134.7575480  18.3999230 153.5952450
 135.1340300  17.5271110 153.4826120 134.6594990  18.7357930 152.7042890
 128.8880490  16.7724860 149.0569890 128.9947240  17.6728590 149.3638650
 127.9772850  16.7242830 148.7664540 138.5399600  15.8949670 150.5280790
 139.3609220  15.4046240 150.5706270 138.5733680  16.4847330 151.2812630
 130.7288220  19.7411230 153.3895070 131.2366440  20.2392200 154.0300090
 131.2601460  18.9646430 153.2134430 135.3995410  24.4929100 149.1548390
 134.7812680  24.9578550 148.5911110 135.9118660  25.1856580 149.5717900
 138.7761080  17.8350050 153.3008330 138.0716650  18.1234940 153.8811440
 139.1373240  18.6450160 152.9407890 124.7678610  25.1785630 146.5288020
 124.3906590  25.6672730 145.7972920 125.0251680  25.8510910 147.1594550
 141.8448000  17.2804840 153.6917540 140.8972910  17.3143820 153.8232970
 142.1697990  18.0943790 154.0766900 132.3767540  13.5802020 151.9873530
 132.6842520  13.0248910 151.2709030 131.4468240  13.7146480 151.8046520
 137.9282600  29.2969310 154.2780990 137.9409760  28.8931600 153.4103250
 137.3757820  30.0716600 154.1742420 139.2228020  26.0185530 149.3671160
 139.1124350  25.0759860 149.4920580 139.2196270  26.3801170 150.2533920
 134.7648300  21.6450850 148.7233650 133.8377580  21.5788230 148.9522120
 134.9173120  22.5830980 148.6088890 134.7517380  17.9167850 145.7200810
 133.8121050  18.0781810 145.8053270 135.0700640  18.6353530 145.1736800
 138.7945590  23.2071150 149.2268900 138.1758010  22.8690700 148.5795200
 138.7770040  22.5630910 149.9348090 130.3704940  22.1715590 151.5053380
 129.9661940  21.4592840 151.0099280 130.4568060  21.8268830 152.3941420
 130.8386640  25.8583150 153.6692590 130.5414930  25.2528620 152.9900370
 131.7886460  25.8960460 153.5581950 136.9710290  22.4457960 146.2341650
 137.4103570  21.6080390 146.0879470 137.6838710  23.0787360 146.3205790
 135.0805670  27.3854030 150.2022890 135.5201580  28.1278360 149.7878280
 135.0192560  27.6280600 151.1261850 140.5527430  13.7000770 144.5482690
 140.2400090  13.7927600 145.4481760 141.3139900  14.2781800 144.4980120
 127.0709570  21.0660570 149.0060030 126.9507170  21.7922660 148.3941300
 126.7610460  20.2963480 148.5287940 125.9542570  25.9375900 151.2234850
 125.5470650  26.0790490 150.3688450 126.8455580  25.6536060 151.0206060
 137.7475850  30.3723150 147.5585900 137.5876990  30.0826090 148.4567730
 137.5822560  29.5963280 147.0231130 130.2264230  30.1521680 149.3357520
 130.0506710  29.2357220 149.1225320 129.3719970  30.5108970 149.5755320
 137.4501980  27.8810710 146.1183900 136.7567140  27.8788000 145.4586180
 138.1924840  27.4570030 145.6878070 137.0151910  29.5073420 150.1932390
 137.4708860  28.7262800 150.5071010 137.3544430  30.2180240 150.7373570
 129.5373230  14.4095640 152.3883700 129.0941380  15.1905180 152.0568220
 130.0958220  14.7325530 153.0954640 132.6532050  14.0306340 147.2689530
 132.0286230  14.0266210 147.9942840 132.5662170  13.1637300 146.8725500
 131.5749130  14.9542970 154.2473300 131.8721460  15.8605800 154.1665320
 132.1234690  14.4661750 153.6332870 129.3287450  19.5329210 150.1164950
 129.1028370  19.3166380 151.0211570 128.5479980  19.9657670 149.7710920
 136.5585210  19.5392580 148.7155600 135.9594100  20.2628380 148.5319220
 137.1064820  19.4769360 147.9332050 135.1650080  18.1756120 150.7458880
 135.5579650  18.4928320 149.9327570 135.5266930  17.2968000 150.8603400
 124.2014250  14.7656920 152.9689080 123.9127300  15.3359780 153.6814060
 124.9460010  14.2861370 153.3320310 124.3884480  18.7077040 144.1791800
 124.3059150  19.6507800 144.3206790 124.0367540  18.5651950 143.3004150
 132.1882610  17.4416070 153.2462150 132.1918670  17.0006020 152.3966690
 133.0833730  17.7633400 153.3533970 128.0384990  17.3242560 152.2056360
 127.6985040  17.8017790 152.9623410 127.2762310  16.8707680 151.8457460
 132.2502760  18.4428150 146.2368910 132.3715580  18.4014630 147.1854730
 131.8651270  19.3052300 146.0815640 131.2624260  20.7529290 145.6352210
 130.6941160  20.3047540 145.0088120 131.9713260  21.1122070 145.1017360
 125.3531070  16.2461540 151.1221030 125.0677990  15.8817210 151.9599650
 125.2909930  15.5142000 150.5084170 128.8071740  24.7487480 147.9078620
 128.0334000  24.2085100 147.7477340 129.5366370  24.2294090 147.5696380
 139.5659720  23.7452840 153.7005010 140.2858840  24.2408130 153.3101120
 139.3641540  23.0670730 153.0558880 135.0269660  15.1390800 147.8434400
 134.2134270  14.6403970 147.7679710 134.8331610  15.9789050 147.4270750
 137.7418050  19.5110450 146.1396560 138.6297670  19.8227680 145.9647900
 137.7123140  18.6382700 145.7477140 128.8509140  24.4167860 151.5457430
 129.3687810  23.6136120 151.4914320 128.3993160  24.3547000 152.3874260
 133.7378640  25.6834140 146.8184730 134.0794340  26.4276370 146.3228050
 132.9091350  25.9965260 147.1809560 140.0132320  20.8222290 145.6076420
 139.9296040  21.2536510 144.7572860 140.7326510  21.2820640 146.0403240
 141.0419570  27.6764550 148.3358550 140.3995730  27.0220170 148.6102270
 140.6550230  28.0819640 147.5599220 136.6206050  25.0049980 152.1830240
 136.9729870  24.4078110 151.5231610 135.7368380  24.6794210 152.3538490
 132.7069330  25.7647670 149.5900650 133.3940460  26.3116880 149.9708240
 131.9201750  26.3088400 149.6250260 124.8461730  21.3820490 145.0817730
 125.7156580  21.6645290 145.3653650 124.3552050  22.1956360 144.9666540
 132.0096540  22.7693700 149.2026010 132.4659320  23.5798950 149.4286200
 131.6584750  22.4516840 150.0344500 127.9108320  13.1131350 149.6748530
 127.7822950  13.1049250 150.6233450 127.0870340  13.4514440 149.3239540
 139.4316950  26.5681010 144.8734900 139.2054530  25.8511450 145.4659540
 139.0413150  26.3193450 144.0356650 125.2132980  30.5947870 145.6479360
 125.5730620  31.1937210 144.9936630 125.0725320  31.1407760 146.4214390
 139.0133200  24.4852950 146.5349060 138.7254900  24.9465640 147.3226940
 139.8085370  24.0250720 146.8033280 131.2301600  27.9779070 146.4653030
 131.2211700  28.7108760 145.8497540 130.3099960  27.7310650 146.5579990
 126.8308240  23.1993960 147.2099790 126.2236190  23.9392860 147.2195090
 127.3057590  23.2893320 146.3837990 139.7703060  16.3201720 147.6944240
 139.1416220  16.4247390 146.9802470 139.2754980  16.5398500 148.4838120
 134.2161200  28.0407310 145.1278220 134.3173180  27.8371300 144.1980200
 133.3162940  27.7865590 145.3326000 131.7387090  18.5987670 149.1102120
 131.0303240  19.0674010 149.5515730 132.0231570  17.9409680 149.7447310
 135.7702520  15.3238330 150.5497910 135.6470300  15.3424460 149.6007420
 136.7187080  15.3717270 150.6696310 132.8579310  30.5593630 149.8225890
 133.1120810  30.5215020 148.9005260 131.9091790  30.4326960 149.8154140
 129.9422110  16.9072750 146.4852830 130.7912640  17.3442900 146.4193020
 129.5753380  17.2193010 147.3124890 138.8631890  21.4785510 151.3984400
 137.9222030  21.4935740 151.5732090 139.1775960  20.6921470 151.8444700
 128.8413530  23.1605110 144.9588360 129.6076800  23.0486470 145.5213790
 128.9188220  22.4643080 144.3065130 127.5360290  20.5930180 145.6421250
 127.6163880  19.6457690 145.7538650 128.4280040  20.9237060 145.7481910
 140.8657470  28.6494360 153.0738660 140.9904890  29.4725530 153.5462470
 141.7323030  28.4385090 152.7262810 128.3375000  30.7425570 152.7455790
 129.0737480  30.1941030 153.0164360 128.7215920  31.6081580 152.6061780
 125.2220480  26.8099140 148.6197300 124.2960260  27.0520280 148.6102710
 125.6876910  27.6373400 148.4982050 131.4477310  29.9155880 144.5681360
 132.2405920  30.2044710 144.1163150 130.9281660  29.4848050 143.8893840
 140.5007480  29.1426010 145.9918100 140.2148990  28.7291150 145.1772280
 140.3027030  30.0713720 145.8718620 131.9654710  25.1359290 144.4323710
 131.8605350  24.5211640 145.1585090 131.7978930  24.6125180 143.6486720
 135.2057440  24.1979320 145.0365700 134.6567540  24.6448620 145.6808440
 135.8276700  23.6928570 145.5603370 130.8732560  23.1570240 146.9331000
 131.2948980  22.9910110 147.7762390 130.9983400  22.3470470 146.4386140
 133.3860200  22.1807850 144.1808100 133.9065860  21.4656870 143.8149250
 134.0328600  22.8193720 144.4808610 129.7691460  19.2303470 143.8789160
 129.5680520  18.3670830 144.2402500 129.5983510  19.1436830 142.9410760
 137.2479770  14.0411700 146.4076040 137.5282060  13.1979600 146.7635460
 136.4745500  14.2734810 146.9214790 128.5674260  16.3304090 143.8667040
 128.8700160  16.3371520 142.9586190 129.3068850  15.9801950 144.3634700
 131.7859190  15.2738710 144.8523240 131.4381190  14.5962700 144.2725690
 131.9871960  14.8128220 145.6666630 133.9508230  30.2619460 146.4709840
 134.8459020  30.6004430 146.4928600 133.9825860  29.5398870 145.8434120
 127.5904390  25.6346510 144.6996840 128.0279260  26.1776180 145.3554420
 128.0752120  24.8093460 144.7093180 124.8050190  28.4235540 152.1517100
 125.1353200  27.5556600 151.9195740 125.2341190  28.6294060 152.9822060
 129.4012110  26.7544550 149.8119070 129.1007650  26.6309520 150.7122980
 129.2949600  25.8953140 149.4034800 142.1704030  26.5340950 144.5145750
 141.3396990  26.6017600 144.9852980 142.3475860  27.4245070 144.2112610
 141.6260490  23.2788430 147.0179950 142.3879400  23.8485080 147.1239640
 141.6414860  22.7115630 147.7888260 125.1264830  21.8026360 151.2487610
 124.4713670  21.5338000 150.6047310 125.9642780  21.6930840 150.7989590
 142.6320460  24.1338530 151.8621880 143.0029290  23.3505850 151.4557850
 143.2722390  24.8227630 151.6839180 141.6779660  23.5722800 144.1752470
 141.9528500  24.4801680 144.0471690 141.4890400  23.5085330 145.1114460
 138.0755270  16.5967650 145.4706100 138.4940150  16.4098630 144.6302760
 137.7691330  15.7446700 145.7809030 141.5745000  21.5091790 149.1681900
 141.1988600  20.7419720 148.7363190 140.8448120  21.8914490 149.6556830
 124.3402910  19.0125290 147.1912940 123.4366990  19.2755490 147.0164600
 124.8243530  19.2836460 146.4112900 140.8495960  19.7349280 152.4689140
 141.3733440  19.2411930 151.8379310 141.4355380  19.8699640 153.2136710
 126.8830120  18.0690830 145.1007320 127.5921820  17.6474050 144.6154600
 126.1670060  18.1366060 144.4690670 126.5304280  14.1230160 144.1409970
 127.2532410  14.6639100 144.4591190 126.8028800  13.8493580 143.2651510
 140.3395930  18.9922630 148.4081550 140.8355050  18.7593500 149.1930430
 140.1412000  18.1534470 147.9919190 141.7683090  17.6283580 150.9419230
 141.6582370  17.4739620 151.8801500 142.5290680  17.1004520 150.6994640
 142.6573360  15.4591500 144.1825370 143.5822670  15.3272680 143.9743660
 142.6349150  15.5384320 145.1361820 142.7311850  16.2302160 146.8082080
 141.9363350  16.1647280 147.3374990 142.9355130  17.1652800 146.7967430
 139.6730270  30.2693710 150.8020470 140.2689340  29.9478280 150.1254890
 139.9308420  29.7965530 151.5933740 130.6538200  29.2277250 153.8066330
 131.1703220  28.6164610 153.2814590 131.3035580  29.7306030 154.2977340
 139.1631780  14.5599040 153.2580910 139.6039870  14.5044140 152.4102510
 138.8939370  15.4757050 153.3291090 141.0270350  14.1914280 151.2689730
 140.9658750  13.2475500 151.1220750 141.8062380  14.2994370 151.8143190
 125.3323100  30.3306640 150.2313680 125.1645140  29.6977320 150.9295570
 124.4657610  30.5366040 149.8807870 125.9551120  14.1623420 147.7345540
 126.7130480  14.2752300 147.1609570 125.4928290  14.9992620 147.6888970
 132.4964930  16.2762690 150.7247850 131.6839440  15.9019580 150.3843730
 133.0006570  15.5207770 151.0269040 136.9989910  12.9405140 151.9630920
 137.6019280  13.5125350 152.4379440 136.2582900  13.5044580 151.7404820
 140.1424510  13.3426700 147.2371200 140.3375140  14.2410150 147.5038630
 139.3554380  13.1113780 147.7304150 126.9385800  29.0239870 147.6763820
 126.4133420  29.4047900 146.9725780 126.8630380  29.6490640 148.3973530
 128.3276270  14.6887470 146.2747510 128.8569030  13.9017270 146.1455460
 128.9604590  15.3678660 146.5083040 130.5214110  14.4262610 149.3292900
 129.8916850  13.7249920 149.4963030 129.9819250  15.1866740 149.1126060
 141.6951120  30.5827410 148.9977760 141.8703310  29.8965150 148.3538680
 140.9972690  31.1074460 148.6054430 129.5378770  30.9722250 146.5513070
 130.2697590  30.6881530 146.0036960 129.7972440  30.7335530 147.4412450
 128.6993560  27.0886980 146.5559400 128.0702440  27.5572080 147.1045230
 128.8141390  26.2436200 146.9905590 136.1543280  21.1392640 132.7060600
 136.0737330  20.2247250 132.4352310 135.7407700  21.6359710 132.0000310
 134.2861320  22.9171660 134.5869870 133.5103420  22.4372100 134.8768440
 134.9374250  22.2377310 134.4126030 128.3027150  23.2291470 135.4645630
 127.4712030  22.9740180 135.8642140 128.9108130  23.3002240 136.2003550
 138.3068750  27.3231850 133.3669000 137.8450280  26.5519090 133.6956170
 139.1194300  27.3497920 133.8721450 128.2828410  27.2631560 135.6603650
 128.5856450  26.3729300 135.4813870 129.0272000  27.8201780 135.4325900
 126.7119100  18.1893360 129.2488020 125.8235800  18.5309330 129.1467900
 126.9960290  17.9893680 128.3568850 124.6752110  20.7899010 135.1327720
 125.2468220  20.0221210 135.1331360 124.6753650  21.0887770 134.2234330
 134.5332060  29.6089860 132.9872990 133.9143500  30.0647360 132.4167430
 135.3883840  29.7641320 132.5862690 133.7270310  25.5928850 134.5940030
 133.6578590  24.6518790 134.4329160 134.4890170  25.6830260 135.1662600
 125.9176980  16.1983370 136.9196650 125.7379820  15.3009120 137.1999410
 125.5157060  16.7455240 137.5943600 134.7575480  18.3999230 134.8208960
 135.1340300  17.5271110 134.7082630 134.6594990  18.7357930 133.9299400
 128.8880490  16.7724860 130.2826400 128.9947240  17.6728590 130.5895160
 127.9772850  16.7242830 129.9921050 138.5399600  15.8949670 131.7537300
 139.3609220  15.4046240 131.7962780 138.5733680  16.4847330 132.5069140
 126.5363650  18.6943870 135.5278990 127.2173760  18.9582240 136.1466390
 126.2211700  17.8544740 135.8617000 130.7288220  19.7411230 134.6151580
 131.2366440  20.2392200 135.2556600 131.2601460  18.9646430 134.4390940
 142.8299150  17.9116420 138.3180930 142.1251320  18.2998130 137.7996040
 143.0957070  18.6066710 138.9201860 129.0124320  14.3809790 138.8815000
 129.0142760  14.8982180 138.0760900 128.1828630  13.9039970 138.8584930
 135.3995410  24.4929100 130.3804900 134.7812680  24.9578550 129.8167620
 135.9118660  25.1856580 130.7974410 130.2627170  24.0204970 137.0588500
 129.9296550  24.6473890 137.7009570 130.4393850  24.5466850 136.2790170
 138.7761080  17.8350050 134.5264840 138.0716650  18.1234940 135.1067950
 139.1373240  18.6450160 134.1664400 128.6939650  16.0919750 136.8885450
 129.0356460  16.9361800 136.5939320 127.7555460  16.2403490 137.0050790
 129.4746270  25.9885770 138.8737680 130.0920270  26.6636850 138.5922130
 128.6139390  26.3973750 138.7825180 124.7678610  25.1785630 127.7544530
 124.3906590  25.6672730 127.0229430 125.0251680  25.8510910 128.3851060
 140.3923860  27.4525180 136.7892320 139.7087380  28.1224290 136.7808990
 140.9318150  27.6505830 136.0237180 141.8448000  17.2804840 134.9174050
 140.8972910  17.3143820 135.0489480 142.1697990  18.0943790 135.3023410
 132.3767540  13.5802020 133.2130040 132.6842520  13.0248910 132.4965540
 131.4468240  13.7146480 133.0303030 137.9282600  29.2969310 135.5037500
 137.9409760  28.8931600 134.6359760 137.3757820  30.0716600 135.3998930
 139.2228020  26.0185530 130.5927670 139.1124350  25.0759860 130.7177090
 139.2196270  26.3801170 131.4790430 137.3268040  24.1999150 136.8320110
 137.7436830  23.9859260 135.9973570 138.0507860  24.4571940 137.4028730
 134.7648300  21.6450850 129.9490160 133.8377580  21.5788230 130.1778630
 134.9173120  22.5830980 129.8345400 134.7517380  17.9167850 126.9457320
 133.8121050  18.0781810 127.0309780 135.0700640  18.6353530 126.3993310
 141.2730140  22.5986370 136.9236350 140.4448770  22.6679460 136.4486480
 141.8680620  23.1840680 136.4552180 138.7945590  23.2071150 130.4525410
 138.1758010  22.8690700 129.8051710 138.7770040  22.5630910 131.1604600
 138.2372150  19.3855690 137.8691220 137.8243330  20.2109400 138.1231210
 137.5048100  18.8000730 137.6767580 130.3704940  22.1715590 132.7309890
 129.9661940  21.4592840 132.2355790 130.4568060  21.8268830 133.6197930
 130.8386640  25.8583150 134.8949100 130.5414930  25.2528620 134.2156880
 131.7886460  25.8960460 134.7838460 129.0833560  18.9458800 136.5108930
 129.6348150  19.0554140 135.7362180 129.5977070  19.3196400 137.2264160
 138.9272250  29.4315020 138.5572200 138.4502810  30.2387210 138.3644810
 138.2434040  28.7793350 138.7098410 129.9305070  25.5964840 141.5456900
 129.0333600  25.8204810 141.7930300 129.9557940  25.7199780 140.5968300
 136.9710290  22.4457960 127.4598160 137.4103570  21.6080390 127.3135980
 137.6838710  23.0787360 127.5462300 128.7576290  22.4678160 140.1214270
 128.6184060  23.3400960 140.4901670 127.8757650  22.1250970 139.9762210
 135.0805670  27.3854030 131.4279400 135.5201580  28.1278360 131.0134790
 135.0192560  27.6280600 132.3518360 130.5556640  28.4099860 142.3299420
 130.5272070  28.8142810 141.4627850 130.3921610  27.4810220 142.1671020
 140.5527430  13.7000770 125.7739200 140.2400090  13.7927600 126.6738270
 141.3139900  14.2781800 125.7236630 127.0709570  21.0660570 130.2316540
 126.9507170  21.7922660 129.6197810 126.7610460  20.2963480 129.7544450
 142.5071460  29.1926960 143.6263590 142.9831180  29.6709850 144.3052670
 143.1278620  29.1244450 142.9009090 124.7094940  24.2375710 136.0385180
 124.7875360  24.3724480 135.0940900 125.3236620  23.5291600 136.2313300
 125.9542570  25.9375900 132.4491360 125.5470650  26.0790490 131.5944960
 126.8455580  25.6536060 132.2462570 141.9104710  26.3839810 140.7863600
 142.0367770  26.1451690 139.8680780 141.9526090  25.5524350 141.2585680
 135.7721450  30.0867810 139.3558410 136.2866120  29.9975820 140.1580840
 134.9290530  30.4327510 139.6486320 137.7475850  30.3723150 128.7842410
 137.5876990  30.0826090 129.6824240 137.5822560  29.5963280 128.2487640
 130.2264230  30.1521680 130.5614030 130.0506710  29.2357220 130.3481830
 129.3719970  30.5108970 130.8011830 137.4501980  27.8810710 127.3440410
 136.7567140  27.8788000 126.6842690 138.1924840  27.4570030 126.9134580
 137.0151910  29.5073420 131.4188900 137.4708860  28.7262800 131.7327520
 137.3544430  30.2180240 131.9630080 141.7628720  18.4372270 141.7513340
 141.1472990  18.9451940 141.2228800 141.4425140  17.5370600 141.6939280
 124.7654460  25.2789880 138.5779640 124.9285500  24.8095240 137.7599010
 125.2306910  24.7713440 139.2428480 129.5373230  14.4095640 133.6140210
 129.0941380  15.1905180 133.2824730 130.0958220  14.7325530 134.3211150
 133.8243040  17.2764160 139.2175530 133.3622410  17.4847180 140.0295470
 133.4221150  16.4623510 138.9146200 138.8247550  18.4973110 140.3472190
 137.9741140  18.1978860 140.6681260 138.6649340  18.7415120 139.4356010
 135.9197260  19.9974860 142.4470980 136.2450670  19.1638610 142.1073210
 136.7077590  20.5203380 142.5949310 132.6532050  14.0306340 128.4946040
 132.0286230  14.0266210 129.2199350 132.5662170  13.1637300 128.0982010
 131.5749130  14.9542970 135.4729810 131.8721460  15.8605800 135.3921830
 132.1234690  14.4661750 134.8589380 129.3287450  19.5329210 131.3421460
 129.1028370  19.3166380 132.2468080 128.5479980  19.9657670 130.9967430
 136.5585210  19.5392580 129.9412110 135.9594100  20.2628380 129.7575730
 137.1064820  19.4769360 129.1588560 131.7686660  20.4314790 142.0081730
 131.6730260  19.4909520 141.8582130 132.6118640  20.6529860 141.6129800
 135.1650080  18.1756120 131.9715390 135.5579650  18.4928320 131.1584080
 135.5266930  17.2968000 132.0859910 126.8997200  16.8428460 140.1615510
 126.5060590  17.6903670 140.3688290 126.2115600  16.2054830 140.3524150
 133.4742250  16.9263430 143.2312250 132.7840570  16.7335630 143.8658340
 134.2174550  17.2098070 143.7636550 124.2014250  14.7656920 134.1945590
 123.9127300  15.3359780 134.9070570 124.9460010  14.2861370 134.5576820
 124.3884480  18.7077040 125.4048310 124.3059150  19.6507800 125.5463300
 124.0367540  18.5651950 124.5260660 135.7505220  20.7661870 136.0666170
 135.0186340  21.2748680 136.4156270 135.3529560  19.9491850 135.7654950
 132.1882610  17.4416070 134.4718660 132.1918670  17.0006020 133.6223200
 133.0833730  17.7633400 134.5790480 128.0384990  17.3242560 133.4312870
 127.6985040  17.8017790 134.1879920 127.2762310  16.8707680 133.0713970
 132.2502760  18.4428150 127.4625420 132.3715580  18.4014630 128.4111240
 131.8651270  19.3052300 127.3072150 136.2131130  16.2195550 135.4789110
 136.2303870  16.6704200 136.3230960 135.9646710  15.3201190 135.6922550
 131.2624260  20.7529290 126.8608720 130.6941160  20.3047540 126.2344630
 131.9713260  21.1122070 126.3273870 139.6401880  13.6327730 141.3175490
 139.9647650  12.9017390 141.8433470 139.6758390  13.3141370 140.4156480
 126.3393440  24.6541310 140.7375450 125.9548230  24.0134980 141.3358410
 126.6505630  25.3577430 141.3070180 132.4890580  21.5017850 136.2184070
 132.8560710  21.0276420 136.9645410 132.2995640  22.3759420 136.5592410
 125.3531070  16.2461540 132.3477540 125.0677990  15.8817210 133.1856160
 125.2909930  15.5142000 131.7340680 130.2789950  20.5426490 138.5368280
 129.9747020  21.4218470 138.7618640 131.2336410  20.6026280 138.5725720
 128.8071740  24.7487480 129.1335130 128.0334000  24.2085100 128.9733850
 129.5366370  24.2294090 128.7952890 139.5659720  23.7452840 134.9261520
 140.2858840  24.2408130 134.5357630 139.3641540  23.0670730 134.2815390
 135.0269660  15.1390800 129.0690910 134.2134270  14.6403970 128.9936220
 134.8331610  15.9789050 128.6527260 134.9478520  23.8161900 140.8130520
 134.8815830  22.8957570 140.5588110 134.3183660  23.9137340 141.5275160
 137.7418050  19.5110450 127.3653070 138.6297670  19.8227680 127.1904410
 137.7123140  18.6382700 126.9733650 128.8509140  24.4167860 132.7713940
 129.3687810  23.6136120 132.7170830 128.3993160  24.3547000 133.6130770
 133.7378640  25.6834140 128.0441240 134.0794340  26.4276370 127.5484560
 132.9091350  25.9965260 128.4066070 126.3353680  21.3829230 139.6839640
 125.9768620  22.0483080 140.2712980 126.0408240  20.5512780 140.0552260
 129.5366800  21.8413470 142.5679190 129.2366940  21.9870650 141.6707010
 130.3078040  21.2818760 142.4752580 134.8795250  26.6382470 140.5634320
 134.8939790  25.7063430 140.3453230 134.1720350  26.7242230 141.2024090
 140.0132320  20.8222290 126.8332930 139.9296040  21.2536510 125.9829370
 140.7326510  21.2820640 127.2659750 141.0906460  23.2789810 139.9102900
 140.3654650  23.8718590 139.7132290 141.6181920  23.2713350 139.1116270
 141.0419570  27.6764550 129.5615060 140.3995730  27.0220170 129.8358780
 140.6550230  28.0819640 128.7855730 136.6206050  25.0049980 133.4086750
 136.9729870  24.4078110 132.7488120 135.7368380  24.6794210 133.5795000
 132.7069330  25.7647670 130.8157160 133.3940460  26.3116880 131.1964750
 131.9201750  26.3088400 130.8506770 124.8461730  21.3820490 126.3074240
 125.7156580  21.6645290 126.5910160 124.3552050  22.1956360 126.1923050
 132.0096540  22.7693700 130.4282520 132.4659320  23.5798950 130.6542710
 131.6584750  22.4516840 131.2601010 134.3129150  28.2800040 137.6574820
 134.9571370  28.4859420 138.3348240 134.6758590  27.5188440 137.2045670
 127.9108320  13.1131350 130.9005040 127.7822950  13.1049250 131.8489960
 127.0870340  13.4514440 130.5496050 135.5861230  26.2832390 136.3752270
 136.2283460  25.5825550 136.4884440 136.1110580  27.0630830 136.1949160
 139.4316950  26.5681010 126.0991410 139.2054530  25.8511450 126.6916050
 139.0413150  26.3193450 125.2613160 137.3598850  27.0827290 139.5788330
 137.6955090  27.6693980 140.2566250 136.4399190  26.9520000 139.8086120
 125.2132980  30.5947870 126.8735870 125.5730620  31.1937210 126.2193140
 125.0725320  31.1407760 127.6470900 124.9102250  14.8722470 140.3611740
 124.1960770  15.0719390 140.9664350 125.3297290  14.0962040 140.7326540
 139.0133200  24.4852950 127.7605570 138.7254900  24.9465640 128.5483450
 139.8085370  24.0250720 128.0289790 125.1974840  28.8602730 141.3478270
 125.3065960  27.9197470 141.2073660 124.5455400  29.1257480 140.6992000
 133.1887430  27.1318620 142.7476390 132.8684300  26.4127860 143.2922080
 132.5145790  27.8073690 142.8212450 131.2301600  27.9779070 127.6909540
 131.2211700  28.7108760 127.0754050 130.3099960  27.7310650 127.7836500
 126.8308240  23.1993960 128.4356300 126.2236190  23.9392860 128.4451600
 127.3057590  23.2893320 127.6094500 136.4041030  17.3644780 138.1113190
 136.7721850  16.5439990 138.4392760 135.5439230  17.4246670 138.5268840
 139.7703060  16.3201720 128.9200750 139.1416220  16.4247390 128.2058980
 139.2754980  16.5398500 129.7094630 134.2161200  28.0407310 126.3534730
 134.3173180  27.8371300 125.4236710 133.3162940  27.7865590 126.5582510
 131.7387090  18.5987670 130.3358630 131.0303240  19.0674010 130.7772240
 132.0231570  17.9409680 130.9703820 133.3643020  20.0184370 138.3351160
 133.8628270  20.4930190 139.0003010 133.5065970  19.0947890 138.5421190
 135.7702520  15.3238330 131.7754420 135.6470300  15.3424460 130.8263930
 136.7187080  15.3717270 131.8952820 132.8579310  30.5593630 131.0482400
 133.1120810  30.5215020 130.1261770 131.9091790  30.4326960 131.0410650
 129.9422110  16.9072750 127.7109340 130.7912640  17.3442900 127.6449530
 129.5753380  17.2193010 128.5381400 140.5709880  16.2352330 139.1779550
 140.0683480  16.9757730 139.5173360 141.3866540  16.6236330 138.8616340
 138.8631890  21.4785510 132.6240910 137.9222030  21.4935740 132.7988600
 139.1775960  20.6921470 133.0701210 128.8413530  23.1605110 126.1844870
 129.6076800  23.0486470 126.7470300 128.9188220  22.4643080 125.5321640
 127.5360290  20.5930180 126.8677760 127.6163880  19.6457690 126.9795160
 128.4280040  20.9237060 126.9738420 140.8657470  28.6494360 134.2995170
 140.9904890  29.4725530 134.7718980 141.7323030  28.4385090 133.9519320
 128.3375000  30.7425570 133.9712300 129.0737480  30.1941030 134.2420870
 128.7215920  31.6081580 133.8318290 125.2220480  26.8099140 129.8453810
 124.2960260  27.0520280 129.8359220 125.6876910  27.6373400 129.7238560
 127.3433280  29.9271640 143.1597880 128.1446010  30.2483690 143.5733280
 126.8285100  29.5667220 143.8817790 131.4477310  29.9155880 125.7937870
 132.2405920  30.2044710 125.3419660 130.9281660  29.4848050 125.1150350
 136.1797910  26.0351510 143.1073290 135.5736070  26.0583110 142.3669040
 135.8752020  25.3034550 143.6440540 137.6098280  29.7631800 141.7182700
 138.5620030  29.6789820 141.6682940 137.4626500  30.4273510 142.3916490
 140.5007480  29.1426010 127.2174610 140.2148990  28.7291150 126.4028790
 140.3027030  30.0713720 127.0975130 125.0631090  22.4145100 142.1033930
 125.5670110  21.8352380 142.6750160 124.3238510  22.6985330 142.6410300
 131.9654710  25.1359290 125.6580220 131.8605350  24.5211640 126.3841600
 131.7978930  24.6125180 124.8743230 132.1169030  23.8216090 141.6369450
 131.3514700  24.3901090 141.5524120 132.2984990  23.5292300 140.7437680
 135.2057440  24.1979320 126.2622210 134.6567540  24.6448620 126.9064950
 135.8276700  23.6928570 126.7859880 139.2592380  25.5521420 142.1944470
 140.0001850  25.8897180 141.6911930 138.4965060  25.7213480 141.6414240
 127.0954170  20.5574690 142.9984000 127.1359510  20.2588560 143.9069230
 127.9499670  20.9582300 142.8391520 130.8732560  23.1570240 128.1587510
 131.2948980  22.9910110 129.0018900 130.9983400  22.3470470 127.6642650
 129.0359980  19.1366790 140.9658490 128.5056440  18.6457740 140.3381830
 129.7048050  19.5650990 140.4316420 133.3860200  22.1807850 125.4064610
 133.9065860  21.4656870 125.0405760 134.0328600  22.8193720 125.7065120
 137.9338040  23.6036250 140.7299680 138.3479060  23.7581330 141.5790100
 136.9989040  23.7291470 140.8925460 138.4060210  20.9432410 142.7338830
 138.9880980  20.1884730 142.6459310 138.5821980  21.4739850 141.9570310
 129.5232280  16.1029160 141.0455780 129.4289150  15.4849910 140.3206650
 128.9429670  16.8295450 140.8185690 132.2893720  14.6602400 138.0783170
 131.8411020  14.6826660 137.2328720 131.6558920  14.2621420 138.6753470
 132.6953270  23.5556730 138.6995610 133.1141380  24.3989460 138.5271850
 131.7761900  23.6928770 138.4702390 135.0317170  21.2872910 140.0833450
 135.1513380  20.6914050 140.8228290 135.8911170  21.3242600 139.6634750
 137.3705070  21.8410100 138.6595960 136.8440290  22.3652720 138.0561100
 137.7136410  22.4737490 139.2905690 129.7691460  19.2303470 125.1045670
 129.5680520  18.3670830 125.4659010 129.5983510  19.1436830 124.1667270
 130.5460690  29.8609740 139.8153340 130.0081780  30.5855800 139.4962040
 130.7994650  29.3840080 139.0250680 131.7985940  17.8294260 141.3409270
 132.3885630  17.5210110 142.0287090 130.9806180  17.3574010 141.4969170
 136.6179370  17.4460070 141.5742290 135.9294890  16.7841610 141.5092280
 137.3385390  16.9998340 142.0190750 137.2479770  14.0411700 127.6332550
 137.5282060  13.1979600 127.9891970 136.4745500  14.2734810 128.1471300
 128.5674260  16.3304090 125.0923550 128.8700160  16.3371520 124.1842700
 129.3068850  15.9801950 125.5891210 133.4022900  31.0960950 140.0739990
 133.3281600  31.9996090 140.3812360 132.5001740  30.7772850 140.0462060
 131.7859190  15.2738710 126.0779750 131.4381190  14.5962700 125.4982200
 131.9871960  14.8128220 126.8923140 133.9508230  30.2619460 127.6966350
 134.8459020  30.6004430 127.7185110 133.9825860  29.5398870 127.0690630
 127.5904390  25.6346510 125.9253350 128.0279260  26.1776180 126.5810930
 128.0752120  24.8093460 125.9349690 124.8050190  28.4235540 133.3773610
 125.1353200  27.5556600 133.1452250 125.2341190  28.6294060 134.2078570
 129.4012110  26.7544550 131.0375580 129.1007650  26.6309520 131.9379490
 129.2949600  25.8953140 130.6291310 125.2940400  29.2906130 136.1155240
 124.8571390  29.4706930 136.9479390 125.8618080  30.0480750 135.9736960
 140.9302580  28.7923130 140.4032550 140.3304570  28.8515690 139.6596470
 141.0596480  27.8528110 140.5329400 142.1704030  26.5340950 125.7402260
 141.3396990  26.6017600 126.2109490 142.3475860  27.4245070 125.4369120
 141.6260490  23.2788430 128.2436460 142.3879400  23.8485080 128.3496150
 141.6414860  22.7115630 129.0144770 125.1264830  21.8026360 132.4744120
 124.4713670  21.5338000 131.8303820 125.9642780  21.6930840 132.0246100
 142.6320460  24.1338530 133.0878390 143.0029290  23.3505850 132.6814360
 143.2722390  24.8227630 132.9095690 139.6154220  25.5175110 138.5008710
 138.8014060  25.9472270 138.7634500 140.0228420  26.1293520 137.8877760
 141.6779660  23.5722800 125.4008980 141.9528500  24.4801680 125.2728200
 141.4890400  23.5085330 126.3370970 138.0755270  16.5967650 126.6962610
 138.4940150  16.4098630 125.8559270 137.7691330  15.7446700 127.0065540
 141.5745000  21.5091790 130.3938410 141.1988600  20.7419720 129.9619700
 140.8448120  21.8914490 130.8813340 126.1640760  22.1878930 137.0147460
 126.5313800  22.1006330 137.8943480 125.5951580  21.4245480 136.9154320
 140.9644620  20.6563310 140.0277930 140.7330710  20.4276060 139.1275880
 141.2249170  21.5762860 139.9822820 125.7156760  19.0988020 140.9205880
 124.8212810  19.0654780 141.2599590 126.2554310  19.2974810 141.6857130
 139.4032690  15.8819740 142.8057630 140.2802870  15.8903140 143.1891630
 139.4153530  15.1450580 142.1949980 124.3402910  19.0125290 128.4169450
 123.4366990  19.2755490 128.2421110 124.8243530  19.2836460 127.6369410
 140.8495960  19.7349280 133.6945650 141.3733440  19.2411930 133.0635820
 141.4355380  19.8699640 134.4393220 141.0285680  19.8189150 137.2165200
 140.0788390  19.7852690 137.3310190 141.2098690  20.7289260 136.9814970
 126.8830120  18.0690830 126.3263830 127.5921820  17.6474050 125.8411110
 126.1670060  18.1366060 125.6947180 126.5304280  14.1230160 125.3666480
 127.2532410  14.6639100 125.6847700 126.8028800  13.8493580 124.4908020
 140.3395930  18.9922630 129.6338060 140.8355050  18.7593500 130.4186940
 140.1412000  18.1534470 129.2175700 126.2196470  13.3736350 135.2689100
 126.8672660  12.8233730 134.8284260 126.6398310  13.6279500 136.0904910
 141.7683090  17.6283580 132.1675740 141.6582370  17.4739620 133.1058010
 142.5290680  17.1004520 131.9251150 140.1148810  13.5677710 138.6258740
 140.7521030  14.1811850 138.9917930 140.2623700  13.6038370 137.6807970
 142.6573360  15.4591500 125.4081880 143.5822670  15.3272680 125.2000170
 142.6349150  15.5384320 126.3618330 142.7311850  16.2302160 128.0338590
 141.9363350  16.1647280 128.5631500 142.9355130  17.1652800 128.0223940
 139.6730270  30.2693710 132.0276980 140.2689340  29.9478280 131.3511400
 139.9308420  29.7965530 132.8190250 125.9728470  13.5292020 138.0114420
 125.6243290  13.9855840 138.7772600 125.6416170  12.6349150 138.0936850
 127.5792840  26.7011620 142.1767610 127.5362470  26.3304530 143.0582070
 127.7103850  27.6389190 142.3169430 131.2798870  28.2571210 137.7777330
 131.0390230  28.5245770 136.8907850 132.2201510  28.4276940 137.8328190
 133.4853290  14.7203900 141.5333840 133.4242180  15.3125730 142.2829250
 134.4253670  14.6129860 141.3884100 136.1227850  14.3773960 141.1726130
 136.7368260  14.6953250 140.5107210 136.6677410  13.8922550 141.7921990
 142.5403030  30.2765590 138.5787970 142.0461310  30.6734460 137.8615100
 141.9316320  29.6514800 138.9725250 126.6449110  13.0568220 141.2865190
 127.1932100  12.8756270 140.5231300 126.7104420  12.2662330 141.8221500
 127.4180870  29.6473870 139.2965390 126.8241190  29.5158570 140.0355430
 127.4104710  28.8112010 138.8307490 136.8635890  12.9406100 137.4995420
 135.9895730  13.2741210 137.2968350 136.7546640  12.4679280 138.3247290
 137.7707870  15.1476970 138.8837140 137.4421230  14.3328730 138.5038870
 138.7190170  15.1046780 138.7602830 140.2242480  30.9189010 135.8574710
 139.7645450  31.6704820 135.4832730 139.5954940  30.1995480 135.7989510
 127.0493100  27.0132250 138.2473430 126.3227160  26.3937540 138.1799380
 127.1102250  27.4072860 137.3771510 130.6538200  29.2277250 135.0322840
 131.1703220  28.6164610 134.5071100 131.3035580  29.7306030 135.5233850
 133.3933700  30.1185740 135.8591820 133.6811510  29.8640040 134.9824830
 133.9056920  29.5663100 136.4497390 134.6110710  13.8575940 136.4388330
 133.8282500  14.3321440 136.7185090 134.3173640  12.9530770 136.3301510
 139.1631780  14.5599040 134.4837420 139.6039870  14.5044140 133.6359020
 138.8939370  15.4757050 134.5547600 141.0270350  14.1914280 132.4946240
 140.9658750  13.2475500 132.3477260 141.8062380  14.2994370 133.0399700
 125.3323100  30.3306640 131.4570190 125.1645140  29.6977320 132.1552080
 124.4657610  30.5366040 131.1064380 125.9551120  14.1623420 128.9602050
 126.7130480  14.2752300 128.3866080 125.4928290  14.9992620 128.9145480
 132.4964930  16.2762690 131.9504360 131.6839440  15.9019580 131.6100240
 133.0006570  15.5207770 132.2525550 136.9989910  12.9405140 133.1887430
 137.6019280  13.5125350 133.6635950 136.2582900  13.5044580 132.9661330
 140.1424510  13.3426700 128.4627710 140.3375140  14.2410150 128.7295140
 139.3554380  13.1113780 128.9560660 126.9385800  29.0239870 128.9020330
 126.4133420  29.4047900 128.1982290 126.8630380  29.6490640 129.6230040
 128.3276270  14.6887470 127.5004020 128.8569030  13.9017270 127.3711970
 128.9604590  15.3678660 127.7339550 130.5214110  14.4262610 130.5549410
 129.8916850  13.7249920 130.7219540 129.9819250  15.1866740 130.3382570
 133.4606060  31.0401840 143.2260020 134.3873370  30.8046110 143.2695980
 133.4456490  31.8673840 142.7446050 141.6951120  30.5827410 130.2234270
 141.8703310  29.8965150 129.5795190 140.9972690  31.1074460 129.8310940
 130.6469670  13.7046590 142.9901900 130.3653940  14.2080190 142.2262720
 131.0289370  12.9068340 142.6244030 129.5378770  30.9722250 127.7769580
 130.2697590  30.6881530 127.2293470 129.7972440  30.7335530 128.6668960
 128.6993560  27.0886980 127.7815910 128.0702440  27.5572080 128.3301740
 128.8141390  26.2436200 128.2162100 137.2485130  13.1200170 143.5682370
 137.1350580  13.4394780 144.4633890 138.0654870  13.5212680 143.2719650
 140.0283620  30.2671700 143.0501060 140.8208940  29.7720930 142.8427020
 140.3216770  30.9461840 143.6576670 136.1543280  21.1392640 113.9317110
 136.0737330  20.2247250 113.6608820 135.7407700  21.6359710 113.2256820
 134.2861320  22.9171660 115.8126380 133.5103420  22.4372100 116.1024950
 134.9374250  22.2377310 115.6382540 128.3027150  23.2291470 116.6902140
 127.4712030  22.9740180 117.0898650 128.9108130  23.3002240 117.4260060
 138.3068750  27.3231850 114.5925510 137.8450280  26.5519090 114.9212680
 139.1194300  27.3497920 115.0977960 128.2828410  27.2631560 116.8860160
 128.5856450  26.3729300 116.7070380 129.0272000  27.8201780 116.6582410
 126.7119100  18.1893360 110.4744530 125.8235800  18.5309330 110.3724410
 126.9960290  17.9893680 109.5825360 124.6752110  20.7899010 116.3584230
 125.2468220  20.0221210 116.3587870 124.6753650  21.0887770 115.4490840
 134.5332060  29.6089860 114.2129500 133.9143500  30.0647360 113.6423940
 135.3883840  29.7641320 113.8119200 133.7270310  25.5928850 115.8196540
 133.6578590  24.6518790 115.6585670 134.4890170  25.6830260 116.3919110
 125.9176980  16.1983370 118.1453160 125.7379820  15.3009120 118.4255920
 125.5157060  16.7455240 118.8200110 134.7575480  18.3999230 116.0465470
 135.1340300  17.5271110 115.9339140 134.6594990  18.7357930 115.1555910
 128.8880490  16.7724860 111.5082910 128.9947240  17.6728590 111.8151670
 127.9772850  16.7242830 111.2177560 138.5399600  15.8949670 112.9793810
 139.3609220  15.4046240 113.0219290 138.5733680  16.4847330 113.7325650
 126.5363650  18.6943870 116.7535500 127.2173760  18.9582240 117.3722900
 126.2211700  17.8544740 117.0873510 130.7288220  19.7411230 115.8408090
 131.2366440  20.2392200 116.4813110 131.2601460  18.9646430 115.6647450
 142.8299150  17.9116420 119.5437440 142.1251320  18.2998130 119.0252550
 143.0957070  18.6066710 120.1458370 129.0124320  14.3809790 120.1071510
 129.0142760  14.8982180 119.3017410 128.1828630  13.9039970 120.0841440
 135.3995410  24.4929100 111.6061410 134.7812680  24.9578550 111.0424130
 135.9118660  25.1856580 112.0230920 130.2627170  24.0204970 118.2845010
 129.9296550  24.6473890 118.9266080 130.4393850  24.5466850 117.5046680
 138.7761080  17.8350050 115.7521350 138.0716650  18.1234940 116.3324460
 139.1373240  18.6450160 115.3920910 128.6939650  16.0919750 118.1141960
 129.0356460  16.9361800 117.8195830 127.7555460  16.2403490 118.2307300
 129.4746270  25.9885770 120.0994190 130.0920270  26.6636850 119.8178640
 128.6139390  26.3973750 120.0081690 124.7678610  25.1785630 108.9801040
 124.3906590  25.6672730 108.2485940 125.0251680  25.8510910 109.6107570
 140.3923860  27.4525180 118.0148830 139.7087380  28.1224290 118.0065500
 140.9318150  27.6505830 117.2493690 141.8448000  17.2804840 116.1430560
 140.8972910  17.3143820 116.2745990 142.1697990  18.0943790 116.5279920
 132.3767540  13.5802020 114.4386550 132.6842520  13.0248910 113.7222050
 131.4468240  13.7146480 114.2559540 137.9282600  29.2969310 116.7294010
 137.9409760  28.8931600 115.8616270 137.3757820  30.0716600 116.6255440
 139.2228020  26.0185530 111.8184180 139.1124350  25.0759860 111.9433600
 139.2196270  26.3801170 112.7046940 137.3268040  24.1999150 118.0576620
 137.7436830  23.9859260 117.2230080 138.0507860  24.4571940 118.6285240
 134.7648300  21.6450850 111.1746670 133.8377580  21.5788230 111.4035140
 134.9173120  22.5830980 111.0601910 134.7517380  17.9167850 108.1713830
 133.8121050  18.0781810 108.2566290 135.0700640  18.6353530 107.6249820
 141.2730140  22.5986370 118.1492860 140.4448770  22.6679460 117.6742990
 141.8680620  23.1840680 117.6808690 138.7945590  23.2071150 111.6781920
 138.1758010  22.8690700 111.0308220 138.7770040  22.5630910 112.3861110
 138.2372150  19.3855690 119.0947730 137.8243330  20.2109400 119.3487720
 137.5048100  18.8000730 118.9024090 130.3704940  22.1715590 113.9566400
 129.9661940  21.4592840 113.4612300 130.4568060  21.8268830 114.8454440
 130.8386640  25.8583150 116.1205610 130.5414930  25.2528620 115.4413390
 131.7886460  25.8960460 116.0094970 129.0833560  18.9458800 117.7365440
 129.6348150  19.0554140 116.9618690 129.5977070  19.3196400 118.4520670
 138.9272250  29.4315020 119.7828710 138.4502810  30.2387210 119.5901320
 138.2434040  28.7793350 119.9354920 129.9305070  25.5964840 122.7713410
 129.0333600  25.8204810 123.0186810 129.9557940  25.7199780 121.8224810
 136.9710290  22.4457960 108.6854670 137.4103570  21.6080390 108.5392490
 137.6838710  23.0787360 108.7718810 128.7576290  22.4678160 121.3470780
 128.6184060  23.3400960 121.7158180 127.8757650  22.1250970 121.2018720
 135.0805670  27.3854030 112.6535910 135.5201580  28.1278360 112.2391300
 135.0192560  27.6280600 113.5774870 130.5556640  28.4099860 123.5555930
 130.5272070  28.8142810 122.6884360 130.3921610  27.4810220 123.3927530
 140.5527430  13.7000770 106.9995710 140.2400090  13.7927600 107.8994780
 141.3139900  14.2781800 106.9493140 127.0709570  21.0660570 111.4573050
 126.9507170  21.7922660 110.8454320 126.7610460  20.2963480 110.9800960
 142.5071460  29.1926960 124.8520100 142.9831180  29.6709850 125.5309180
 143.1278620  29.1244450 124.1265600 124.7094940  24.2375710 117.2641690
 124.7875360  24.3724480 116.3197410 125.3236620  23.5291600 117.4569810
 125.9542570  25.9375900 113.6747870 125.5470650  26.0790490 112.8201470
 126.8455580  25.6536060 113.4719080 141.9104710  26.3839810 122.0120110
 142.0367770  26.1451690 121.0937290 141.9526090  25.5524350 122.4842190
 135.7721450  30.0867810 120.5814920 136.2866120  29.9975820 121.3837350
 134.9290530  30.4327510 120.8742830 137.7475850  30.3723150 110.0098920
 137.5876990  30.0826090 110.9080750 137.5822560  29.5963280 109.4744150
 130.2264230  30.1521680 111.7870540 130.0506710  29.2357220 111.5738340
 129.3719970  30.5108970 112.0268340 137.4501980  27.8810710 108.5696920
 136.7567140  27.8788000 107.9099200 138.1924840  27.4570030 108.1391090
 137.0151910  29.5073420 112.6445410 137.4708860  28.7262800 112.9584030
 137.3544430  30.2180240 113.1886590 141.7628720  18.4372270 122.9769850
 141.1472990  18.9451940 122.4485310 141.4425140  17.5370600 122.9195790
 124.7654460  25.2789880 119.8036150 124.9285500  24.8095240 118.9855520
 125.2306910  24.7713440 120.4684990 129.5373230  14.4095640 114.8396720
 129.0941380  15.1905180 114.5081240 130.0958220  14.7325530 115.5467660
 133.8243040  17.2764160 120.4432040 133.3622410  17.4847180 121.2551980
 133.4221150  16.4623510 120.1402710 138.8247550  18.4973110 121.5728700
 137.9741140  18.1978860 121.8937770 138.6649340  18.7415120 120.6612520
 135.9197260  19.9974860 123.6727490 136.2450670  19.1638610 123.3329720
 136.7077590  20.5203380 123.8205820 132.6532050  14.0306340 109.7202550
 132.0286230  14.0266210 110.4455860 132.5662170  13.1637300 109.3238520
 131.5749130  14.9542970 116.6986320 131.8721460  15.8605800 116.6178340
 132.1234690  14.4661750 116.0845890 129.3287450  19.5329210 112.5677970
 129.1028370  19.3166380 113.4724590 128.5479980  19.9657670 112.2223940
 136.5585210  19.5392580 111.1668620 135.9594100  20.2628380 110.9832240
 137.1064820  19.4769360 110.3845070 131.7686660  20.4314790 123.2338240
 131.6730260  19.4909520 123.0838640 132.6118640  20.6529860 122.8386310
 135.1650080  18.1756120 113.1971900 135.5579650  18.4928320 112.3840590
 135.5266930  17.2968000 113.3116420 126.8997200  16.8428460 121.3872020
 126.5060590  17.6903670 121.5944800 126.2115600  16.2054830 121.5780660
 133.4742250  16.9263430 124.4568760 132.7840570  16.7335630 125.0914850
 134.2174550  17.2098070 124.9893060 124.2014250  14.7656920 115.4202100
 123.9127300  15.3359780 116.1327080 124.9460010  14.2861370 115.7833330
 124.3884480  18.7077040 106.6304820 124.3059150  19.6507800 106.7719810
 124.0367540  18.5651950 105.7517170 135.7505220  20.7661870 117.2922680
 135.0186340  21.2748680 117.6412780 135.3529560  19.9491850 116.9911460
 132.1882610  17.4416070 115.6975170 132.1918670  17.0006020 114.8479710
 133.0833730  17.7633400 115.8046990 128.0384990  17.3242560 114.6569380
 127.6985040  17.8017790 115.4136430 127.2762310  16.8707680 114.2970480
 132.2502760  18.4428150 108.6881930 132.3715580  18.4014630 109.6367750
 131.8651270  19.3052300 108.5328660 136.2131130  16.2195550 116.7045620
 136.2303870  16.6704200 117.5487470 135.9646710  15.3201190 116.9179060
 131.2624260  20.7529290 108.0865230 130.6941160  20.3047540 107.4601140
 131.9713260  21.1122070 107.5530380 139.6401880  13.6327730 122.5432000
 139.9647650  12.9017390 123.0689980 139.6758390  13.3141370 121.6412990
 126.3393440  24.6541310 121.9631960 125.9548230  24.0134980 122.5614920
 126.6505630  25.3577430 122.5326690 132.4890580  21.5017850 117.4440580
 132.8560710  21.0276420 118.1901920 132.2995640  22.3759420 117.7848920
 125.3531070  16.2461540 113.5734050 125.0677990  15.8817210 114.4112670
 125.2909930  15.5142000 112.9597190 130.2789950  20.5426490 119.7624790
 129.9747020  21.4218470 119.9875150 131.2336410  20.6026280 119.7982230
 128.8071740  24.7487480 110.3591640 128.0334000  24.2085100 110.1990360
 129.5366370  24.2294090 110.0209400 139.5659720  23.7452840 116.1518030
 140.2858840  24.2408130 115.7614140 139.3641540  23.0670730 115.5071900
 135.0269660  15.1390800 110.2947420 134.2134270  14.6403970 110.2192730
 134.8331610  15.9789050 109.8783770 134.9478520  23.8161900 122.0387030
 134.8815830  22.8957570 121.7844620 134.3183660  23.9137340 122.7531670
 137.7418050  19.5110450 108.5909580 138.6297670  19.8227680 108.4160920
 137.7123140  18.6382700 108.1990160 128.8509140  24.4167860 113.9970450
 129.3687810  23.6136120 113.9427340 128.3993160  24.3547000 114.8387280
 133.7378640  25.6834140 109.2697750 134.0794340  26.4276370 108.7741070
 132.9091350  25.9965260 109.6322580 126.3353680  21.3829230 120.9096150
 125.9768620  22.0483080 121.4969490 126.0408240  20.5512780 121.2808770
 129.5366800  21.8413470 123.7935700 129.2366940  21.9870650 122.8963520
 130.3078040  21.2818760 123.7009090 134.8795250  26.6382470 121.7890830
 134.8939790  25.7063430 121.5709740 134.1720350  26.7242230 122.4280600
 140.0132320  20.8222290 108.0589440 139.9296040  21.2536510 107.2085880
 140.7326510  21.2820640 108.4916260 141.0906460  23.2789810 121.1359410
 140.3654650  23.8718590 120.9388800 141.6181920  23.2713350 120.3372780
 141.0419570  27.6764550 110.7871570 140.3995730  27.0220170 111.0615290
 140.6550230  28.0819640 110.0112240 136.6206050  25.0049980 114.6343260
 136.9729870  24.4078110 113.9744630 135.7368380  24.6794210 114.8051510
 132.7069330  25.7647670 112.0413670 133.3940460  26.3116880 112.4221260
 131.9201750  26.3088400 112.0763280 124.8461730  21.3820490 107.5330750
 125.7156580  21.6645290 107.8166670 124.3552050  22.1956360 107.4179560
 132.0096540  22.7693700 111.6539030 132.4659320  23.5798950 111.8799220
 131.6584750  22.4516840 112.4857520 134.3129150  28.2800040 118.8831330
 134.9571370  28.4859420 119.5604750 134.6758590  27.5188440 118.4302180
 127.9108320  13.1131350 112.1261550 127.7822950  13.1049250 113.0746470
 127.0870340  13.4514440 111.7752560 135.5861230  26.2832390 117.6008780
 136.2283460  25.5825550 117.7140950 136.1110580  27.0630830 117.4205670
 139.4316950  26.5681010 107.3247920 139.2054530  25.8511450 107.9172560
 139.0413150  26.3193450 106.4869670 137.3598850  27.0827290 120.8044840
 137.6955090  27.6693980 121.4822760 136.4399190  26.9520000 121.0342630
 125.2132980  30.5947870 108.0992380 125.5730620  31.1937210 107.4449650
 125.0725320  31.1407760 108.8727410 124.9102250  14.8722470 121.5868250
 124.1960770  15.0719390 122.1920860 125.3297290  14.0962040 121.9583050
 139.0133200  24.4852950 108.9862080 138.7254900  24.9465640 109.7739960
 139.8085370  24.0250720 109.2546300 125.1974840  28.8602730 122.5734780
 125.3065960  27.9197470 122.4330170 124.5455400  29.1257480 121.9248510
 133.1887430  27.1318620 123.9732900 132.8684300  26.4127860 124.5178590
 132.5145790  27.8073690 124.0468960 131.2301600  27.9779070 108.9166050
 131.2211700  28.7108760 108.3010560 130.3099960  27.7310650 109.0093010
 126.8308240  23.1993960 109.6612810 126.2236190  23.9392860 109.6708110
 127.3057590  23.2893320 108.8351010 136.4041030  17.3644780 119.3369700
 136.7721850  16.5439990 119.6649270 135.5439230  17.4246670 119.7525350
 139.7703060  16.3201720 110.1457260 139.1416220  16.4247390 109.4315490
 139.2754980  16.5398500 110.9351140 134.2161200  28.0407310 107.5791240
 134.3173180  27.8371300 106.6493220 133.3162940  27.7865590 107.7839020
 131.7387090  18.5987670 111.5615140 131.0303240  19.0674010 112.0028750
 132.0231570  17.9409680 112.1960330 133.3643020  20.0184370 119.5607670
 133.8628270  20.4930190 120.2259520 133.5065970  19.0947890 119.7677700
 135.7702520  15.3238330 113.0010930 135.6470300  15.3424460 112.0520440
 136.7187080  15.3717270 113.1209330 132.8579310  30.5593630 112.2738910
 133.1120810  30.5215020 111.3518280 131.9091790  30.4326960 112.2667160
 129.9422110  16.9072750 108.9365850 130.7912640  17.3442900 108.8706040
 129.5753380  17.2193010 109.7637910 140.5709880  16.2352330 120.4036060
 140.0683480  16.9757730 120.7429870 141.3866540  16.6236330 120.0872850
 138.8631890  21.4785510 113.8497420 137.9222030  21.4935740 114.0245110
 139.1775960  20.6921470 114.2957720 128.8413530  23.1605110 107.4101380
 129.6076800  23.0486470 107.9726810 128.9188220  22.4643080 106.7578150
 127.5360290  20.5930180 108.0934270 127.6163880  19.6457690 108.2051670
 128.4280040  20.9237060 108.1994930 140.8657470  28.6494360 115.5251680
 140.9904890  29.4725530 115.9975490 141.7323030  28.4385090 115.1775830
 128.3375000  30.7425570 115.1968810 129.0737480  30.1941030 115.4677380
 128.7215920  31.6081580 115.0574800 125.2220480  26.8099140 111.0710320
 124.2960260  27.0520280 111.0615730 125.6876910  27.6373400 110.9495070
 127.3433280  29.9271640 124.3854390 128.1446010  30.2483690 124.7989790
 126.8285100  29.5667220 125.1074300 131.4477310  29.9155880 107.0194380
 132.2405920  30.2044710 106.5676170 130.9281660  29.4848050 106.3406860
 136.1797910  26.0351510 124.3329800 135.5736070  26.0583110 123.5925550
 135.8752020  25.3034550 124.8697050 137.6098280  29.7631800 122.9439210
 138.5620030  29.6789820 122.8939450 137.4626500  30.4273510 123.6173000
 140.5007480  29.1426010 108.4431120 140.2148990  28.7291150 107.6285300
 140.3027030  30.0713720 108.3231640 125.0631090  22.4145100 123.3290440
 125.5670110  21.8352380 123.9006670 124.3238510  22.6985330 123.8666810
 131.9654710  25.1359290 106.8836730 131.8605350  24.5211640 107.6098110
 131.7978930  24.6125180 106.0999740 132.1169030  23.8216090 122.8625960
 131.3514700  24.3901090 122.7780630 132.2984990  23.5292300 121.9694190
 135.2057440  24.1979320 107.4878720 134.6567540  24.6448620 108.1321460
 135.8276700  23.6928570 108.0116390 139.2592380  25.5521420 123.4200980
 140.0001850  25.8897180 122.9168440 138.4965060  25.7213480 122.8670750
 127.0954170  20.5574690 124.2240510 127.1359510  20.2588560 125.1325740
 127.9499670  20.9582300 124.0648030 130.8732560  23.1570240 109.3844020
 131.2948980  22.9910110 110.2275410 130.9983400  22.3470470 108.8899160
 129.0359980  19.1366790 122.1915000 128.5056440  18.6457740 121.5638340
 129.7048050  19.5650990 121.6572930 133.3860200  22.1807850 106.6321120
 133.9065860  21.4656870 106.2662270 134.0328600  22.8193720 106.9321630
 137.9338040  23.6036250 121.9556190 138.3479060  23.7581330 122.8046610
 136.9989040  23.7291470 122.1181970 138.4060210  20.9432410 123.9595340
 138.9880980  20.1884730 123.8715820 138.5821980  21.4739850 123.1826820
 129.5232280  16.1029160 122.2712290 129.4289150  15.4849910 121.5463160
 128.9429670  16.8295450 122.0442200 132.2893720  14.6602400 119.3039680
 131.8411020  14.6826660 118.4585230 131.6558920  14.2621420 119.9009980
 132.6953270  23.5556730 119.9252120 133.1141380  24.3989460 119.7528360
 131.7761900  23.6928770 119.6958900 135.0317170  21.2872910 121.3089960
 135.1513380  20.6914050 122.0484800 135.8911170  21.3242600 120.8891260
 137.3705070  21.8410100 119.8852470 136.8440290  22.3652720 119.2817610
 137.7136410  22.4737490 120.5162200 129.7691460  19.2303470 106.3302180
 129.5680520  18.3670830 106.6915520 129.5983510  19.1436830 105.3923780
 130.5460690  29.8609740 121.0409850 130.0081780  30.5855800 120.7218550
 130.7994650  29.3840080 120.2507190 131.7985940  17.8294260 122.5665780
 132.3885630  17.5210110 123.2543600 130.9806180  17.3574010 122.7225680
 136.6179370  17.4460070 122.7998800 135.9294890  16.7841610 122.7348790
 137.3385390  16.9998340 123.2447260 137.2479770  14.0411700 108.8589060
 137.5282060  13.1979600 109.2148480 136.4745500  14.2734810 109.3727810
 128.5674260  16.3304090 106.3180060 128.8700160  16.3371520 105.4099210
 129.3068850  15.9801950 106.8147720 133.4022900  31.0960950 121.2996500
 133.3281600  31.9996090 121.6068870 132.5001740  30.7772850 121.2718570
 131.7859190  15.2738710 107.3036260 131.4381190  14.5962700 106.7238710
 131.9871960  14.8128220 108.1179650 133.9508230  30.2619460 108.9222860
 134.8459020  30.6004430 108.9441620 133.9825860  29.5398870 108.2947140
 127.5904390  25.6346510 107.1509860 128.0279260  26.1776180 107.8067440
 128.0752120  24.8093460 107.1606200 124.8050190  28.4235540 114.6030120
 125.1353200  27.5556600 114.3708760 125.2341190  28.6294060 115.4335080
 129.4012110  26.7544550 112.2632090 129.1007650  26.6309520 113.1636000
 129.2949600  25.8953140 111.8547820 125.2940400  29.2906130 117.3411750
 124.8571390  29.4706930 118.1735900 125.8618080  30.0480750 117.1993470
 140.9302580  28.7923130 121.6289060 140.3304570  28.8515690 120.8852980
 141.0596480  27.8528110 121.7585910 142.1704030  26.5340950 106.9658770
 141.3396990  26.6017600 107.4366000 142.3475860  27.4245070 106.6625630
 141.6260490  23.2788430 109.4692970 142.3879400  23.8485080 109.5752660
 141.6414860  22.7115630 110.2401280 125.1264830  21.8026360 113.7000630
 124.4713670  21.5338000 113.0560330 125.9642780  21.6930840 113.2502610
 142.6320460  24.1338530 114.3134900 143.0029290  23.3505850 113.9070870
 143.2722390  24.8227630 114.1352200 139.6154220  25.5175110 119.7265220
 138.8014060  25.9472270 119.9891010 140.0228420  26.1293520 119.1134270
 141.6779660  23.5722800 106.6265490 141.9528500  24.4801680 106.4984710
 141.4890400  23.5085330 107.5627480 138.0755270  16.5967650 107.9219120
 138.4940150  16.4098630 107.0815780 137.7691330  15.7446700 108.2322050
 141.5745000  21.5091790 111.6194920 141.1988600  20.7419720 111.1876210
 140.8448120  21.8914490 112.1069850 126.1640760  22.1878930 118.2403970
 126.5313800  22.1006330 119.1199990 125.5951580  21.4245480 118.1410830
 140.9644620  20.6563310 121.2534440 140.7330710  20.4276060 120.3532390
 141.2249170  21.5762860 121.2079330 125.7156760  19.0988020 122.1462390
 124.8212810  19.0654780 122.4856100 126.2554310  19.2974810 122.9113640
 139.4032690  15.8819740 124.0314140 140.2802870  15.8903140 124.4148140
 139.4153530  15.1450580 123.4206490 124.3402910  19.0125290 109.6425960
 123.4366990  19.2755490 109.4677620 124.8243530  19.2836460 108.8625920
 140.8495960  19.7349280 114.9202160 141.3733440  19.2411930 114.2892330
 141.4355380  19.8699640 115.6649730 141.0285680  19.8189150 118.4421710
 140.0788390  19.7852690 118.5566700 141.2098690  20.7289260 118.2071480
 126.8830120  18.0690830 107.5520340 127.5921820  17.6474050 107.0667620
 126.1670060  18.1366060 106.9203690 126.5304280  14.1230160 106.5922990
 127.2532410  14.6639100 106.9104210 126.8028800  13.8493580 105.7164530
 140.3395930  18.9922630 110.8594570 140.8355050  18.7593500 111.6443450
 140.1412000  18.1534470 110.4432210 126.2196470  13.3736350 116.4945610
 126.8672660  12.8233730 116.0540770 126.6398310  13.6279500 117.3161420
 141.7683090  17.6283580 113.3932250 141.6582370  17.4739620 114.3314520
 142.5290680  17.1004520 113.1507660 140.1148810  13.5677710 119.8515250
 140.7521030  14.1811850 120.2174440 140.2623700  13.6038370 118.9064480
 142.6573360  15.4591500 106.6338390 143.5822670  15.3272680 106.4256680
 142.6349150  15.5384320 107.5874840 142.7311850  16.2302160 109.2595100
 141.9363350  16.1647280 109.7888010 142.9355130  17.1652800 109.2480450
 139.6730270  30.2693710 113.2533490 140.2689340  29.9478280 112.5767910
 139.9308420  29.7965530 114.0446760 125.9728470  13.5292020 119.2370930
 125.6243290  13.9855840 120.0029110 125.6416170  12.6349150 119.3193360
 127.5792840  26.7011620 123.4024120 127.5362470  26.3304530 124.2838580
 127.7103850  27.6389190 123.5425940 131.2798870  28.2571210 119.0033840
 131.0390230  28.5245770 118.1164360 132.2201510  28.4276940 119.0584700
 133.4853290  14.7203900 122.7590350 133.4242180  15.3125730 123.5085760
 134.4253670  14.6129860 122.6140610 136.1227850  14.3773960 122.3982640
 136.7368260  14.6953250 121.7363720 136.6677410  13.8922550 123.0178500
 142.5403030  30.2765590 119.8044480 142.0461310  30.6734460 119.0871610
 141.9316320  29.6514800 120.1981760 126.6449110  13.0568220 122.5121700
 127.1932100  12.8756270 121.7487810 126.7104420  12.2662330 123.0478010
 127.4180870  29.6473870 120.5221900 126.8241190  29.5158570 121.2611940
 127.4104710  28.8112010 120.0564000 136.8635890  12.9406100 118.7251930
 135.9895730  13.2741210 118.5224860 136.7546640  12.4679280 119.5503800
 137.7707870  15.1476970 120.1093650 137.4421230  14.3328730 119.7295380
 138.7190170  15.1046780 119.9859340 140.2242480  30.9189010 117.0831220
 139.7645450  31.6704820 116.7089240 139.5954940  30.1995480 117.0246020
 127.0493100  27.0132250 119.4729940 126.3227160  26.3937540 119.4055890
 127.1102250  27.4072860 118.6028020 130.6538200  29.2277250 116.2579350
 131.1703220  28.6164610 115.7327610 131.3035580  29.7306030 116.7490360
 133.3933700  30.1185740 117.0848330 133.6811510  29.8640040 116.2081340
 133.9056920  29.5663100 117.6753900 134.6110710  13.8575940 117.6644840
 133.8282500  14.3321440 117.9441600 134.3173640  12.9530770 117.5558020
 139.1631780  14.5599040 115.7093930 139.6039870  14.5044140 114.8615530
 138.8939370  15.4757050 115.7804110 141.0270350  14.1914280 113.7202750
 140.9658750  13.2475500 113.5733770 141.8062380  14.2994370 114.2656210
 125.3323100  30.3306640 112.6826700 125.1645140  29.6977320 113.3808590
 124.4657610  30.5366040 112.3320890 125.9551120  14.1623420 110.1858560
 126.7130480  14.2752300 109.6122590 125.4928290  14.9992620 110.1401990
 132.4964930  16.2762690 113.1760870 131.6839440  15.9019580 112.8356750
 133.0006570  15.5207770 113.4782060 136.9989910  12.9405140 114.4143940
 137.6019280  13.5125350 114.8892460 136.2582900  13.5044580 114.1917840
 140.1424510  13.3426700 109.6884220 140.3375140  14.2410150 109.9551650
 139.3554380  13.1113780 110.1817170 126.9385800  29.0239870 110.1276840
 126.4133420  29.4047900 109.4238800 126.8630380  29.6490640 110.8486550
 128.3276270  14.6887470 108.7260530 128.8569030  13.9017270 108.5968480
 128.9604590  15.3678660 108.9596060 130.5214110  14.4262610 111.7805920
 129.8916850  13.7249920 111.9476050 129.9819250  15.1866740 111.5639080
 133.4606060  31.0401840 124.4516530 134.3873370  30.8046110 124.4952490
 133.4456490  31.8673840 123.9702560 141.6951120  30.5827410 111.4490780
 141.8703310  29.8965150 110.8051700 140.9972690  31.1074460 111.0567450
 130.6469670  13.7046590 124.2158410 130.3653940  14.2080190 123.4519230
 131.0289370  12.9068340 123.8500540 129.5378770  30.9722250 109.0026090
 130.2697590  30.6881530 108.4549980 129.7972440  30.7335530 109.8925470
 128.6993560  27.0886980 109.0072420 128.0702440  27.5572080 109.5558250
 128.8141390  26.2436200 109.4418610 137.2485130  13.1200170 124.7938880
 137.1350580  13.4394780 125.6890400 138.0654870  13.5212680 124.4976160
 140.0283620  30.2671700 124.2757570 140.8208940  29.7720930 124.0683530
 140.3216770  30.9461840 124.8833180 136.1543280  21.1392640  95.1573620
 136.0737330  20.2247250  94.8865330 135.7407700  21.6359710  94.4513330
 134.2861320  22.9171660  97.0382890 133.5103420  22.4372100  97.3281460
 134.9374250  22.2377310  96.8639050 128.3027150  23.2291470  97.9158650
 127.4712030  22.9740180  98.3155160 128.9108130  23.3002240  98.6516570
 138.3068750  27.3231850  95.8182020 137.8450280  26.5519090  96.1469190
 139.1194300  27.3497920  96.3234470 128.2828410  27.2631560  98.1116670
 128.5856450  26.3729300  97.9326890 129.0272000  27.8201780  97.8838920
 126.7119100  18.1893360  91.7001040 125.8235800  18.5309330  91.5980920
 126.9960290  17.9893680  90.8081870 124.6752110  20.7899010  97.5840740
 125.2468220  20.0221210  97.5844380 124.6753650  21.0887770  96.6747350
 134.5332060  29.6089860  95.4386010 133.9143500  30.0647360  94.8680450
 135.3883840  29.7641320  95.0375710 133.7270310  25.5928850  97.0453050
 133.6578590  24.6518790  96.8842180 134.4890170  25.6830260  97.6175620
 125.9176980  16.1983370  99.3709670 125.7379820  15.3009120  99.6512430
 125.5157060  16.7455240 100.0456620 134.7575480  18.3999230  97.2721980
 135.1340300  17.5271110  97.1595650 134.6594990  18.7357930  96.3812420
 128.8880490  16.7724860  92.7339420 128.9947240  17.6728590  93.0408180
 127.9772850  16.7242830  92.4434070 138.5399600  15.8949670  94.2050320
 139.3609220  15.4046240  94.2475800 138.5733680  16.4847330  94.9582160
 126.5363650  18.6943870  97.9792010 127.2173760  18.9582240  98.5979410
 126.2211700  17.8544740  98.3130020 130.7288220  19.7411230  97.0664600
 131.2366440  20.2392200  97.7069620 131.2601460  18.9646430  96.8903960
 142.8299150  17.9116420 100.7693950 142.1251320  18.2998130 100.2509060
 143.0957070  18.6066710 101.3714880 129.0124320  14.3809790 101.3328020
 129.0142760  14.8982180 100.5273920 128.1828630  13.9039970 101.3097950
 135.3995410  24.4929100  92.8317920 134.7812680  24.9578550  92.2680640
 135.9118660  25.1856580  93.2487430 130.2627170  24.0204970  99.5101520
 129.9296550  24.6473890 100.1522590 130.4393850  24.5466850  98.7303190
 138.7761080  17.8350050  96.9777860 138.0716650  18.1234940  97.5580970
 139.1373240  18.6450160  96.6177420 128.6939650  16.0919750  99.3398470
 129.0356460  16.9361800  99.0452340 127.7555460  16.2403490  99.4563810
 129.4746270  25.9885770 101.3250700 130.0920270  26.6636850 101.0435150
 128.6139390  26.3973750 101.2338200 124.7678610  25.1785630  90.2057550
 124.3906590  25.6672730  89.4742450 125.0251680  25.8510910  90.8364080
 140.3923860  27.4525180  99.2405340 139.7087380  28.1224290  99.2322010
 140.9318150  27.6505830  98.4750200 141.8448000  17.2804840  97.3687070
 140.8972910  17.3143820  97.5002500 142.1697990  18.0943790  97.7536430
 132.3767540  13.5802020  95.6643060 132.6842520  13.0248910  94.9478560
 131.4468240  13.7146480  95.4816050 137.9282600  29.2969310  97.9550520
 137.9409760  28.8931600  97.0872780 137.3757820  30.0716600  97.8511950
 139.2228020  26.0185530  93.0440690 139.1124350  25.0759860  93.1690110
 139.2196270  26.3801170  93.9303450 137.3268040  24.1999150  99.2833130
 137.7436830  23.9859260  98.4486590 138.0507860  24.4571940  99.8541750
 134.7648300  21.6450850  92.4003180 133.8377580  21.5788230  92.6291650
 134.9173120  22.5830980  92.2858420 134.7517380  17.9167850  89.3970340
 133.8121050  18.0781810  89.4822800 135.0700640  18.6353530  88.8506330
 141.2730140  22.5986370  99.3749370 140.4448770  22.6679460  98.8999500
 141.8680620  23.1840680  98.9065200 138.7945590  23.2071150  92.9038430
 138.1758010  22.8690700  92.2564730 138.7770040  22.5630910  93.6117620
 138.2372150  19.3855690 100.3204240 137.8243330  20.2109400 100.5744230
 137.5048100  18.8000730 100.1280600 130.3704940  22.1715590  95.1822910
 129.9661940  21.4592840  94.6868810 130.4568060  21.8268830  96.0710950
 130.8386640  25.8583150  97.3462120 130.5414930  25.2528620  96.6669900
 131.7886460  25.8960460  97.2351480 129.0833560  18.9458800  98.9621950
 129.6348150  19.0554140  98.1875200 129.5977070  19.3196400  99.6777180
 138.9272250  29.4315020 101.0085220 138.4502810  30.2387210 100.8157830
 138.2434040  28.7793350 101.1611430 129.9305070  25.5964840 103.9969920
 129.0333600  25.8204810 104.2443320 129.9557940  25.7199780 103.0481320
 136.9710290  22.4457960  89.9111180 137.4103570  21.6080390  89.7649000
 137.6838710  23.0787360  89.9975320 128.7576290  22.4678160 102.5727290
 128.6184060  23.3400960 102.9414690 127.8757650  22.1250970 102.4275230
 135.0805670  27.3854030  93.8792420 135.5201580  28.1278360  93.4647810
 135.0192560  27.6280600  94.8031380 130.5556640  28.4099860 104.7812440
 130.5272070  28.8142810 103.9140870 130.3921610  27.4810220 104.6184040
 140.5527430  13.7000770  88.2252220 140.2400090  13.7927600  89.1251290
 141.3139900  14.2781800  88.1749650 127.0709570  21.0660570  92.6829560
 126.9507170  21.7922660  92.0710830 126.7610460  20.2963480  92.2057470
 142.5071460  29.1926960 106.0776610 142.9831180  29.6709850 106.7565690
 143.1278620  29.1244450 105.3522110 124.7094940  24.2375710  98.4898200
 124.7875360  24.3724480  97.5453920 125.3236620  23.5291600  98.6826320
 125.9542570  25.9375900  94.9004380 125.5470650  26.0790490  94.0457980
 126.8455580  25.6536060  94.6975590 141.9104710  26.3839810 103.2376620
 142.0367770  26.1451690 102.3193800 141.9526090  25.5524350 103.7098700
 135.7721450  30.0867810 101.8071430 136.2866120  29.9975820 102.6093860
 134.9290530  30.4327510 102.0999340 137.7475850  30.3723150  91.2355430
 137.5876990  30.0826090  92.1337260 137.5822560  29.5963280  90.7000660
 130.2264230  30.1521680  93.0127050 130.0506710  29.2357220  92.7994850
 129.3719970  30.5108970  93.2524850 137.4501980  27.8810710  89.7953430
 136.7567140  27.8788000  89.1355710 138.1924840  27.4570030  89.3647600
 137.0151910  29.5073420  93.8701920 137.4708860  28.7262800  94.1840540
 137.3544430  30.2180240  94.4143100 141.7628720  18.4372270 104.2026360
 141.1472990  18.9451940 103.6741820 141.4425140  17.5370600 104.1452300
 124.7654460  25.2789880 101.0292660 124.9285500  24.8095240 100.2112030
 125.2306910  24.7713440 101.6941500 129.5373230  14.4095640  96.0653230
 129.0941380  15.1905180  95.7337750 130.0958220  14.7325530  96.7724170
 133.8243040  17.2764160 101.6688550 133.3622410  17.4847180 102.4808490
 133.4221150  16.4623510 101.3659220 138.8247550  18.4973110 102.7985210
 137.9741140  18.1978860 103.1194280 138.6649340  18.7415120 101.8869030
 135.9197260  19.9974860 104.8984000 136.2450670  19.1638610 104.5586230
 136.7077590  20.5203380 105.0462330 132.6532050  14.0306340  90.9459060
 132.0286230  14.0266210  91.6712370 132.5662170  13.1637300  90.5495030
 131.5749130  14.9542970  97.9242830 131.8721460  15.8605800  97.8434850
 132.1234690  14.4661750  97.3102400 129.3287450  19.5329210  93.7934480
 129.1028370  19.3166380  94.6981100 128.5479980  19.9657670  93.4480450
 136.5585210  19.5392580  92.3925130 135.9594100  20.2628380  92.2088750
 137.1064820  19.4769360  91.6101580 131.7686660  20.4314790 104.4594750
 131.6730260  19.4909520 104.3095150 132.6118640  20.6529860 104.0642820
 135.1650080  18.1756120  94.4228410 135.5579650  18.4928320  93.6097100
 135.5266930  17.2968000  94.5372930 126.8997200  16.8428460 102.6128530
 126.5060590  17.6903670 102.8201310 126.2115600  16.2054830 102.8037170
 133.4742250  16.9263430 105.6825270 132.7840570  16.7335630 106.3171360
 134.2174550  17.2098070 106.2149570 124.2014250  14.7656920  96.6458610
 123.9127300  15.3359780  97.3583590 124.9460010  14.2861370  97.0089840
 124.3884480  18.7077040  87.8561330 124.3059150  19.6507800  87.9976320
 124.0367540  18.5651950  86.9773680 135.7505220  20.7661870  98.5179190
 135.0186340  21.2748680  98.8669290 135.3529560  19.9491850  98.2167970
 132.1882610  17.4416070  96.9231680 132.1918670  17.0006020  96.0736220
 133.0833730  17.7633400  97.0303500 128.0384990  17.3242560  95.8825890
 127.6985040  17.8017790  96.6392940 127.2762310  16.8707680  95.5226990
 132.2502760  18.4428150  89.9138440 132.3715580  18.4014630  90.8624260
 131.8651270  19.3052300  89.7585170 136.2131130  16.2195550  97.9302130
 136.2303870  16.6704200  98.7743980 135.9646710  15.3201190  98.1435570
 131.2624260  20.7529290  89.3121740 130.6941160  20.3047540  88.6857650
 131.9713260  21.1122070  88.7786890 139.6401880  13.6327730 103.7688510
 139.9647650  12.9017390 104.2946490 139.6758390  13.3141370 102.8669500
 126.3393440  24.6541310 103.1888470 125.9548230  24.0134980 103.7871430
 126.6505630  25.3577430 103.7583200 132.4890580  21.5017850  98.6697090
 132.8560710  21.0276420  99.4158430 132.2995640  22.3759420  99.0105430
 125.3531070  16.2461540  94.7990560 125.0677990  15.8817210  95.6369180
 125.2909930  15.5142000  94.1853700 130.2789950  20.5426490 100.9881300
 129.9747020  21.4218470 101.2131660 131.2336410  20.6026280 101.0238740
 128.8071740  24.7487480  91.5848150 128.0334000  24.2085100  91.4246870
 129.5366370  24.2294090  91.2465910 139.5659720  23.7452840  97.3774540
 140.2858840  24.2408130  96.9870650 139.3641540  23.0670730  96.7328410
 135.0269660  15.1390800  91.5203930 134.2134270  14.6403970  91.4449240
 134.8331610  15.9789050  91.1040280 134.9478520  23.8161900 103.2643540
 134.8815830  22.8957570 103.0101130 134.3183660  23.9137340 103.9788180
 137.7418050  19.5110450  89.8166090 138.6297670  19.8227680  89.6417430
 137.7123140  18.6382700  89.4246670 128.8509140  24.4167860  95.2226960
 129.3687810  23.6136120  95.1683850 128.3993160  24.3547000  96.0643790
 133.7378640  25.6834140  90.4954260 134.0794340  26.4276370  89.9997580
 132.9091350  25.9965260  90.8579090 126.3353680  21.3829230 102.1352660
 125.9768620  22.0483080 102.7226000 126.0408240  20.5512780 102.5065280
 129.5366800  21.8413470 105.0192210 129.2366940  21.9870650 104.1220030
 130.3078040  21.2818760 104.9265600 134.8795250  26.6382470 103.0147340
 134.8939790  25.7063430 102.7966250 134.1720350  26.7242230 103.6537110
 140.0132320  20.8222290  89.2845950 139.9296040  21.2536510  88.4342390
 140.7326510  21.2820640  89.7172770 141.0906460  23.2789810 102.3615920
 140.3654650  23.8718590 102.1645310 141.6181920  23.2713350 101.5629290
 141.0419570  27.6764550  92.0128080 140.3995730  27.0220170  92.2871800
 140.6550230  28.0819640  91.2368750 136.6206050  25.0049980  95.8599770
 136.9729870  24.4078110  95.2001140 135.7368380  24.6794210  96.0308020
 132.7069330  25.7647670  93.2670180 133.3940460  26.3116880  93.6477770
 131.9201750  26.3088400  93.3019790 124.8461730  21.3820490  88.7587260
 125.7156580  21.6645290  89.0423180 124.3552050  22.1956360  88.6436070
 132.0096540  22.7693700  92.8795540 132.4659320  23.5798950  93.1055730
 131.6584750  22.4516840  93.7114030 134.3129150  28.2800040 100.1087840
 134.9571370  28.4859420 100.7861260 134.6758590  27.5188440  99.6558690
 127.9108320  13.1131350  93.3518060 127.7822950  13.1049250  94.3002980
 127.0870340  13.4514440  93.0009070 135.5861230  26.2832390  98.8265290
 136.2283460  25.5825550  98.9397460 136.1110580  27.0630830  98.6462180
 139.4316950  26.5681010  88.5504430 139.2054530  25.8511450  89.1429070
 139.0413150  26.3193450  87.7126180 137.3598850  27.0827290 102.0301350
 137.6955090  27.6693980 102.7079270 136.4399190  26.9520000 102.2599140
 124.9102250  14.8722470 102.8124760 124.1960770  15.0719390 103.4177370
 125.3297290  14.0962040 103.1839560 139.0133200  24.4852950  90.2118590
 138.7254900  24.9465640  90.9996470 139.8085370  24.0250720  90.4802810
 125.1974840  28.8602730 103.7991290 125.3065960  27.9197470 103.6586680
 124.5455400  29.1257480 103.1505020 133.1887430  27.1318620 105.1989410
 132.8684300  26.4127860 105.7435100 132.5145790  27.8073690 105.2725470
 131.2301600  27.9779070  90.1422560 131.2211700  28.7108760  89.5267070
 130.3099960  27.7310650  90.2349520 126.8308240  23.1993960  90.8869320
 126.2236190  23.9392860  90.8964620 127.3057590  23.2893320  90.0607520
 136.4041030  17.3644780 100.5626210 136.7721850  16.5439990 100.8905780
 135.5439230  17.4246670 100.9781860 139.7703060  16.3201720  91.3713770
 139.1416220  16.4247390  90.6572000 139.2754980  16.5398500  92.1607650
 134.2161200  28.0407310  88.8047750 134.3173180  27.8371300  87.8749730
 133.3162940  27.7865590  89.0095530 131.7387090  18.5987670  92.7871650
 131.0303240  19.0674010  93.2285260 132.0231570  17.9409680  93.4216840
 133.3643020  20.0184370 100.7864180 133.8628270  20.4930190 101.4516030
 133.5065970  19.0947890 100.9934210 135.7702520  15.3238330  94.2267440
 135.6470300  15.3424460  93.2776950 136.7187080  15.3717270  94.3465840
 132.8579310  30.5593630  93.4995420 133.1120810  30.5215020  92.5774790
 131.9091790  30.4326960  93.4923670 129.9422110  16.9072750  90.1622360
 130.7912640  17.3442900  90.0962550 129.5753380  17.2193010  90.9894420
 140.5709880  16.2352330 101.6292570 140.0683480  16.9757730 101.9686380
 141.3866540  16.6236330 101.3129360 138.8631890  21.4785510  95.0753930
 137.9222030  21.4935740  95.2501620 139.1775960  20.6921470  95.5214230
 128.8413530  23.1605110  88.6357890 129.6076800  23.0486470  89.1983320
 128.9188220  22.4643080  87.9834660 127.5360290  20.5930180  89.3190780
 127.6163880  19.6457690  89.4308180 128.4280040  20.9237060  89.4251440
 140.8657470  28.6494360  96.7508190 140.9904890  29.4725530  97.2232000
 141.7323030  28.4385090  96.4032340 128.3375000  30.7425570  96.4225320
 129.0737480  30.1941030  96.6933890 128.7215920  31.6081580  96.2831310
 125.2220480  26.8099140  92.2966830 124.2960260  27.0520280  92.2872240
 125.6876910  27.6373400  92.1751580 127.3433280  29.9271640 105.6110900
 128.1446010  30.2483690 106.0246300 126.8285100  29.5667220 106.3330810
 131.4477310  29.9155880  88.2450890 132.2405920  30.2044710  87.7932680
 130.9281660  29.4848050  87.5663370 136.1797910  26.0351510 105.5586310
 135.5736070  26.0583110 104.8182060 135.8752020  25.3034550 106.0953560
 137.6098280  29.7631800 104.1695720 138.5620030  29.6789820 104.1195960
 137.4626500  30.4273510 104.8429510 140.5007480  29.1426010  89.6687630
 140.2148990  28.7291150  88.8541810 140.3027030  30.0713720  89.5488150
 125.0631090  22.4145100 104.5546950 125.5670110  21.8352380 105.1263180
 124.3238510  22.6985330 105.0923320 131.9654710  25.1359290  88.1093240
 131.8605350  24.5211640  88.8354620 131.7978930  24.6125180  87.3256250
 132.1169030  23.8216090 104.0882470 131.3514700  24.3901090 104.0037140
 132.2984990  23.5292300 103.1950700 135.2057440  24.1979320  88.7135230
 134.6567540  24.6448620  89.3577970 135.8276700  23.6928570  89.2372900
 139.2592380  25.5521420 104.6457490 140.0001850  25.8897180 104.1424950
 138.4965060  25.7213480 104.0927260 127.0954170  20.5574690 105.4497020
 127.1359510  20.2588560 106.3582250 127.9499670  20.9582300 105.2904540
 130.8732560  23.1570240  90.6100530 131.2948980  22.9910110  91.4531920
 130.9983400  22.3470470  90.1155670 129.0359980  19.1366790 103.4171510
 128.5056440  18.6457740 102.7894850 129.7048050  19.5650990 102.8829440
 133.3860200  22.1807850  87.8577630 133.9065860  21.4656870  87.4918780
 134.0328600  22.8193720  88.1578140 137.9338040  23.6036250 103.1812700
 138.3479060  23.7581330 104.0303120 136.9989040  23.7291470 103.3438480
 138.4060210  20.9432410 105.1851850 138.9880980  20.1884730 105.0972330
 138.5821980  21.4739850 104.4083330 129.5232280  16.1029160 103.4968800
 129.4289150  15.4849910 102.7719670 128.9429670  16.8295450 103.2698710
 132.2893720  14.6602400 100.5296190 131.8411020  14.6826660  99.6841740
 131.6558920  14.2621420 101.1266490 132.6953270  23.5556730 101.1508630
 133.1141380  24.3989460 100.9784870 131.7761900  23.6928770 100.9215410
 135.0317170  21.2872910 102.5346470 135.1513380  20.6914050 103.2741310
 135.8911170  21.3242600 102.1147770 137.3705070  21.8410100 101.1108980
 136.8440290  22.3652720 100.5074120 137.7136410  22.4737490 101.7418710
 129.7691460  19.2303470  87.5558690 129.5680520  18.3670830  87.9172030
 129.5983510  19.1436830  86.6180290 130.5460690  29.8609740 102.2666360
 130.0081780  30.5855800 101.9475060 130.7994650  29.3840080 101.4763700
 131.7985940  17.8294260 103.7922290 132.3885630  17.5210110 104.4800110
 130.9806180  17.3574010 103.9482190 136.6179370  17.4460070 104.0255310
 135.9294890  16.7841610 103.9605300 137.3385390  16.9998340 104.4703770
 137.2479770  14.0411700  90.0845570 137.5282060  13.1979600  90.4404990
 136.4745500  14.2734810  90.5984320 128.5674260  16.3304090  87.5436570
 128.8700160  16.3371520  86.6355720 129.3068850  15.9801950  88.0404230
 133.4022900  31.0960950 102.5253010 133.3281600  31.9996090 102.8325380
 132.5001740  30.7772850 102.4975080 131.7859190  15.2738710  88.5292770
 131.4381190  14.5962700  87.9495220 131.9871960  14.8128220  89.3436160
 133.9508230  30.2619460  90.1479370 134.8459020  30.6004430  90.1698130
 133.9825860  29.5398870  89.5203650 127.5904390  25.6346510  88.3766370
 128.0279260  26.1776180  89.0323950 128.0752120  24.8093460  88.3862710
 124.8050190  28.4235540  95.8286630 125.1353200  27.5556600  95.5965270
 125.2341190  28.6294060  96.6591590 129.4012110  26.7544550  93.4888600
 129.1007650  26.6309520  94.3892510 129.2949600  25.8953140  93.0804330
 125.2940400  29.2906130  98.5668260 124.8571390  29.4706930  99.3992410
 125.8618080  30.0480750  98.4249980 140.9302580  28.7923130 102.8545570
 140.3304570  28.8515690 102.1109490 141.0596480  27.8528110 102.9842420
 142.1704030  26.5340950  88.1915280 141.3396990  26.6017600  88.6622510
 142.3475860  27.4245070  87.8882140 141.6260490  23.2788430  90.6949480
 142.3879400  23.8485080  90.8009170 141.6414860  22.7115630  91.4657790
 125.1264830  21.8026360  94.9257140 124.4713670  21.5338000  94.2816840
 125.9642780  21.6930840  94.4759120 142.6320460  24.1338530  95.5391410
 143.0029290  23.3505850  95.1327380 143.2722390  24.8227630  95.3608710
 139.6154220  25.5175110 100.9521730 138.8014060  25.9472270 101.2147520
 140.0228420  26.1293520 100.3390780 141.6779660  23.5722800  87.8522000
 141.9528500  24.4801680  87.7241220 141.4890400  23.5085330  88.7883990
 138.0755270  16.5967650  89.1475630 138.4940150  16.4098630  88.3072290
 137.7691330  15.7446700  89.4578560 141.5745000  21.5091790  92.8451430
 141.1988600  20.7419720  92.4132720 140.8448120  21.8914490  93.3326360
 126.1640760  22.1878930  99.4660480 126.5313800  22.1006330 100.3456500
 125.5951580  21.4245480  99.3667340 140.9644620  20.6563310 102.4790950
 140.7330710  20.4276060 101.5788900 141.2249170  21.5762860 102.4335840
 125.7156760  19.0988020 103.3718900 124.8212810  19.0654780 103.7112610
 126.2554310  19.2974810 104.1370150 139.4032690  15.8819740 105.2570650
 140.2802870  15.8903140 105.6404650 139.4153530  15.1450580 104.6463000
 124.3402910  19.0125290  90.8682470 123.4366990  19.2755490  90.6934130
 124.8243530  19.2836460  90.0882430 140.8495960  19.7349280  96.1458670
 141.3733440  19.2411930  95.5148840 141.4355380  19.8699640  96.8906240
 141.0285680  19.8189150  99.6678220 140.0788390  19.7852690  99.7823210
 141.2098690  20.7289260  99.4327990 126.8830120  18.0690830  88.7776850
 127.5921820  17.6474050  88.2924130 126.1670060  18.1366060  88.1460200
 126.5304280  14.1230160  87.8179500 127.2532410  14.6639100  88.1360720
 126.8028800  13.8493580  86.9421040 140.3395930  18.9922630  92.0851080
 140.8355050  18.7593500  92.8699960 140.1412000  18.1534470  91.6688720
 126.2196470  13.3736350  97.7202120 126.8672660  12.8233730  97.2797280
 126.6398310  13.6279500  98.5417930 141.7683090  17.6283580  94.6188760
 141.6582370  17.4739620  95.5571030 142.5290680  17.1004520  94.3764170
 140.1148810  13.5677710 101.0771760 140.7521030  14.1811850 101.4430950
 140.2623700  13.6038370 100.1320990 142.6573360  15.4591500  87.8594900
 143.5822670  15.3272680  87.6513190 142.6349150  15.5384320  88.8131350
 142.7311850  16.2302160  90.4851610 141.9363350  16.1647280  91.0144520
 142.9355130  17.1652800  90.4736960 139.6730270  30.2693710  94.4790000
 140.2689340  29.9478280  93.8024420 139.9308420  29.7965530  95.2703270
 125.9728470  13.5292020 100.4627440 125.6243290  13.9855840 101.2285620
 125.6416170  12.6349150 100.5449870 127.5792840  26.7011620 104.6280630
 127.5362470  26.3304530 105.5095090 127.7103850  27.6389190 104.7682450
 131.2798870  28.2571210 100.2290350 131.0390230  28.5245770  99.3420870
 132.2201510  28.4276940 100.2841210 133.4853290  14.7203900 103.9846860
 133.4242180  15.3125730 104.7342270 134.4253670  14.6129860 103.8397120
 136.1227850  14.3773960 103.6239150 136.7368260  14.6953250 102.9620230
 136.6677410  13.8922550 104.2435010 142.5403030  30.2765590 101.0300990
 142.0461310  30.6734460 100.3128120 141.9316320  29.6514800 101.4238270
 126.6449110  13.0568220 103.7378210 127.1932100  12.8756270 102.9744320
 126.7104420  12.2662330 104.2734520 127.4180870  29.6473870 101.7478410
 126.8241190  29.5158570 102.4868450 127.4104710  28.8112010 101.2820510
 136.8635890  12.9406100  99.9508440 135.9895730  13.2741210  99.7481370
 136.7546640  12.4679280 100.7760310 137.7707870  15.1476970 101.3350160
 137.4421230  14.3328730 100.9551890 138.7190170  15.1046780 101.2115850
 140.2242480  30.9189010  98.3087730 139.7645450  31.6704820  97.9345750
 139.5954940  30.1995480  98.2502530 127.0493100  27.0132250 100.6986450
 126.3227160  26.3937540 100.6312400 127.1102250  27.4072860  99.8284530
 130.6538200  29.2277250  97.4835860 131.1703220  28.6164610  96.9584120
 131.3035580  29.7306030  97.9746870 133.3933700  30.1185740  98.3104840
 133.6811510  29.8640040  97.4337850 133.9056920  29.5663100  98.9010410
 134.6110710  13.8575940  98.8901350 133.8282500  14.3321440  99.1698110
 134.3173640  12.9530770  98.7814530 139.1631780  14.5599040  96.9350440
 139.6039870  14.5044140  96.0872040 138.8939370  15.4757050  97.0060620
 141.0270350  14.1914280  94.9459260 140.9658750  13.2475500  94.7990280
 141.8062380  14.2994370  95.4912720 125.3323100  30.3306640  93.9083210
 125.1645140  29.6977320  94.6065100 124.4657610  30.5366040  93.5577400
 125.9551120  14.1623420  91.4115070 126.7130480  14.2752300  90.8379100
 125.4928290  14.9992620  91.3658500 132.4964930  16.2762690  94.4017380
 131.6839440  15.9019580  94.0613260 133.0006570  15.5207770  94.7038570
 136.9989910  12.9405140  95.6400450 137.6019280  13.5125350  96.1148970
 136.2582900  13.5044580  95.4174350 140.1424510  13.3426700  90.9140730
 140.3375140  14.2410150  91.1808160 139.3554380  13.1113780  91.4073680
 126.9385800  29.0239870  91.3533350 126.4133420  29.4047900  90.6495310
 126.8630380  29.6490640  92.0743060 128.3276270  14.6887470  89.9517040
 128.8569030  13.9017270  89.8224990 128.9604590  15.3678660  90.1852570
 130.5214110  14.4262610  93.0062430 129.8916850  13.7249920  93.1732560
 129.9819250  15.1866740  92.7895590 133.4606060  31.0401840 105.6773040
 134.3873370  30.8046110 105.7209000 133.4456490  31.8673840 105.1959070
 141.6951120  30.5827410  92.6747290 141.8703310  29.8965150  92.0308210
 140.9972690  31.1074460  92.2823960 130.6469670  13.7046590 105.4414920
 130.3653940  14.2080190 104.6775740 131.0289370  12.9068340 105.0757050
 129.5378770  30.9722250  90.2282600 130.2697590  30.6881530  89.6806490
 129.7972440  30.7335530  91.1181980 128.6993560  27.0886980  90.2328930
 128.0702440  27.5572080  90.7814760 128.8141390  26.2436200  90.6675120
 137.2485130  13.1200170 106.0195390 137.1350580  13.4394780 106.9146910
 138.0654870  13.5212680 105.7232670 140.0283620  30.2671700 105.5014080
 140.8208940  29.7720930 105.2940040 140.3216770  30.9461840 106.1089690
 136.1543280  21.1392640  76.3830130 136.0737330  20.2247250  76.1121840
 135.7407700  21.6359710  75.6769840 134.2861320  22.9171660  78.2639400
 133.5103420  22.4372100  78.5537970 134.9374250  22.2377310  78.0895560
 128.3027150  23.2291470  79.1415160 127.4712030  22.9740180  79.5411670
 128.9108130  23.3002240  79.8773080 138.3068750  27.3231850  77.0438530
 137.8450280  26.5519090  77.3725700 139.1194300  27.3497920  77.5490980
 128.2828410  27.2631560  79.3373180 128.5856450  26.3729300  79.1583400
 129.0272000  27.8201780  79.1095430 126.7119100  18.1893360  72.9257550
 125.8235800  18.5309330  72.8237430 126.9960290  17.9893680  72.0338380
 124.6752110  20.7899010  78.8097250 125.2468220  20.0221210  78.8100890
 124.6753650  21.0887770  77.9003860 134.5332060  29.6089860  76.6642520
 133.9143500  30.0647360  76.0936960 135.3883840  29.7641320  76.2632220
 133.7270310  25.5928850  78.2709560 133.6578590  24.6518790  78.1098690
 134.4890170  25.6830260  78.8432130 125.9176980  16.1983370  80.5966180
 125.7379820  15.3009120  80.8768940 125.5157060  16.7455240  81.2713130
 134.7575480  18.3999230  78.4978490 135.1340300  17.5271110  78.3852160
 134.6594990  18.7357930  77.6068930 128.8880490  16.7724860  73.9595930
 128.9947240  17.6728590  74.2664690 127.9772850  16.7242830  73.6690580
 138.5399600  15.8949670  75.4306830 139.3609220  15.4046240  75.4732310
 138.5733680  16.4847330  76.1838670 126.5363650  18.6943870  79.2048520
 127.2173760  18.9582240  79.8235920 126.2211700  17.8544740  79.5386530
 130.7288220  19.7411230  78.2921110 131.2366440  20.2392200  78.9326130
 131.2601460  18.9646430  78.1160470 142.8299150  17.9116420  81.9950460
 142.1251320  18.2998130  81.4765570 143.0957070  18.6066710  82.5971390
 129.0124320  14.3809790  82.5584530 129.0142760  14.8982180  81.7530430
 128.1828630  13.9039970  82.5354460 135.3995410  24.4929100  74.0574430
 134.7812680  24.9578550  73.4937150 135.9118660  25.1856580  74.4743940
 130.2627170  24.0204970  80.7358030 129.9296550  24.6473890  81.3779100
 130.4393850  24.5466850  79.9559700 138.7761080  17.8350050  78.2034370
 138.0716650  18.1234940  78.7837480 139.1373240  18.6450160  77.8433930
 128.6939650  16.0919750  80.5654980 129.0356460  16.9361800  80.2708850
 127.7555460  16.2403490  80.6820320 129.4746270  25.9885770  82.5507210
 130.0920270  26.6636850  82.2691660 128.6139390  26.3973750  82.4594710
 124.7678610  25.1785630  71.4314060 124.3906590  25.6672730  70.6998960
 125.0251680  25.8510910  72.0620590 140.3923860  27.4525180  80.4661850
 139.7087380  28.1224290  80.4578520 140.9318150  27.6505830  79.7006710
 141.8448000  17.2804840  78.5943580 140.8972910  17.3143820  78.7259010
 142.1697990  18.0943790  78.9792940 132.3767540  13.5802020  76.8899570
 132.6842520  13.0248910  76.1735070 131.4468240  13.7146480  76.7072560
 137.9282600  29.2969310  79.1807030 137.9409760  28.8931600  78.3129290
 137.3757820  30.0716600  79.0768460 139.2228020  26.0185530  74.2697200
 139.1124350  25.0759860  74.3946620 139.2196270  26.3801170  75.1559960
 137.3268040  24.1999150  80.5089640 137.7436830  23.9859260  79.6743100
 138.0507860  24.4571940  81.0798260 134.7648300  21.6450850  73.6259690
 133.8377580  21.5788230  73.8548160 134.9173120  22.5830980  73.5114930
 134.7517380  17.9167850  70.6226850 133.8121050  18.0781810  70.7079310
 135.0700640  18.6353530  70.0762840 141.2730140  22.5986370  80.6005880
 140.4448770  22.6679460  80.1256010 141.8680620  23.1840680  80.1321710
 138.7945590  23.2071150  74.1294940 138.1758010  22.8690700  73.4821240
 138.7770040  22.5630910  74.8374130 138.2372150  19.3855690  81.5460750
 137.8243330  20.2109400  81.8000740 137.5048100  18.8000730  81.3537110
 130.3704940  22.1715590  76.4079420 129.9661940  21.4592840  75.9125320
 130.4568060  21.8268830  77.2967460 130.8386640  25.8583150  78.5718630
 130.5414930  25.2528620  77.8926410 131.7886460  25.8960460  78.4607990
 129.0833560  18.9458800  80.1878460 129.6348150  19.0554140  79.4131710
 129.5977070  19.3196400  80.9033690 138.9272250  29.4315020  82.2341730
 138.4502810  30.2387210  82.0414340 138.2434040  28.7793350  82.3867940
 129.9305070  25.5964840  85.2226430 129.0333600  25.8204810  85.4699830
 129.9557940  25.7199780  84.2737830 136.9710290  22.4457960  71.1367690
 137.4103570  21.6080390  70.9905510 137.6838710  23.0787360  71.2231830
 128.7576290  22.4678160  83.7983800 128.6184060  23.3400960  84.1671200
 127.8757650  22.1250970  83.6531740 135.0805670  27.3854030  75.1048930
 135.5201580  28.1278360  74.6904320 135.0192560  27.6280600  76.0287890
 130.5556640  28.4099860  86.0068950 130.5272070  28.8142810  85.1397380
 130.3921610  27.4810220  85.8440550 140.5527430  13.7000770  69.4508730
 140.2400090  13.7927600  70.3507800 141.3139900  14.2781800  69.4006160
 127.0709570  21.0660570  73.9086070 126.9507170  21.7922660  73.2967340
 126.7610460  20.2963480  73.4313980 142.5071460  29.1926960  87.3033120
 142.9831180  29.6709850  87.9822200 143.1278620  29.1244450  86.5778620
 124.7094940  24.2375710  79.7154710 124.7875360  24.3724480  78.7710430
 125.3236620  23.5291600  79.9082830 125.9542570  25.9375900  76.1260890
 125.5470650  26.0790490  75.2714490 126.8455580  25.6536060  75.9232100
 141.9104710  26.3839810  84.4633130 142.0367770  26.1451690  83.5450310
 141.9526090  25.5524350  84.9355210 135.7721450  30.0867810  83.0327940
 136.2866120  29.9975820  83.8350370 134.9290530  30.4327510  83.3255850
 137.7475850  30.3723150  72.4611940 137.5876990  30.0826090  73.3593770
 137.5822560  29.5963280  71.9257170 130.2264230  30.1521680  74.2383560
 130.0506710  29.2357220  74.0251360 129.3719970  30.5108970  74.4781360
 137.4501980  27.8810710  71.0209940 136.7567140  27.8788000  70.3612220
 138.1924840  27.4570030  70.5904110 137.0151910  29.5073420  75.0958430
 137.4708860  28.7262800  75.4097050 137.3544430  30.2180240  75.6399610
 141.7628720  18.4372270  85.4282870 141.1472990  18.9451940  84.8998330
 141.4425140  17.5370600  85.3708810 124.7654460  25.2789880  82.2549170
 124.9285500  24.8095240  81.4368540 125.2306910  24.7713440  82.9198010
 129.5373230  14.4095640  77.2909740 129.0941380  15.1905180  76.9594260
 130.0958220  14.7325530  77.9980680 133.8243040  17.2764160  82.8945060
 133.3622410  17.4847180  83.7065000 133.4221150  16.4623510  82.5915730
 138.8247550  18.4973110  84.0241720 137.9741140  18.1978860  84.3450790
 138.6649340  18.7415120  83.1125540 135.9197260  19.9974860  86.1240510
 136.2450670  19.1638610  85.7842740 136.7077590  20.5203380  86.2718840
 132.6532050  14.0306340  72.1715570 132.0286230  14.0266210  72.8968880
 132.5662170  13.1637300  71.7751540 131.5749130  14.9542970  79.1499340
 131.8721460  15.8605800  79.0691360 132.1234690  14.4661750  78.5358910
 129.3287450  19.5329210  75.0190990 129.1028370  19.3166380  75.9237610
 128.5479980  19.9657670  74.6736960 136.5585210  19.5392580  73.6181640
 135.9594100  20.2628380  73.4345260 137.1064820  19.4769360  72.8358090
 131.7686660  20.4314790  85.6851260 131.6730260  19.4909520  85.5351660
 132.6118640  20.6529860  85.2899330 135.1650080  18.1756120  75.6484920
 135.5579650  18.4928320  74.8353610 135.5266930  17.2968000  75.7629440
 126.8997200  16.8428460  83.8385040 126.5060590  17.6903670  84.0457820
 126.2115600  16.2054830  84.0293680 133.4742250  16.9263430  86.9081780
 132.7840570  16.7335630  87.5427870 134.2174550  17.2098070  87.4406080
 124.2014250  14.7656920  77.8715120 123.9127300  15.3359780  78.5840100
 124.9460010  14.2861370  78.2346350 124.3884480  18.7077040  69.0817840
 124.3059150  19.6507800  69.2232830 124.0367540  18.5651950  68.2030190
 135.7505220  20.7661870  79.7435700 135.0186340  21.2748680  80.0925800
 135.3529560  19.9491850  79.4424480 132.1882610  17.4416070  78.1488190
 132.1918670  17.0006020  77.2992730 133.0833730  17.7633400  78.2560010
 128.0384990  17.3242560  77.1082400 127.6985040  17.8017790  77.8649450
 127.2762310  16.8707680  76.7483500 132.2502760  18.4428150  71.1394950
 132.3715580  18.4014630  72.0880770 131.8651270  19.3052300  70.9841680
 136.2131130  16.2195550  79.1558640 136.2303870  16.6704200  80.0000490
 135.9646710  15.3201190  79.3692080 131.2624260  20.7529290  70.5378250
 130.6941160  20.3047540  69.9114160 131.9713260  21.1122070  70.0043400
 139.6401880  13.6327730  84.9945020 139.9647650  12.9017390  85.5203000
 139.6758390  13.3141370  84.0926010 126.3393440  24.6541310  84.4144980
 125.9548230  24.0134980  85.0127940 126.6505630  25.3577430  84.9839710
 132.4890580  21.5017850  79.8953600 132.8560710  21.0276420  80.6414940
 132.2995640  22.3759420  80.2361940 125.3531070  16.2461540  76.0247070
 125.0677990  15.8817210  76.8625690 125.2909930  15.5142000  75.4110210
 130.2789950  20.5426490  82.2137810 129.9747020  21.4218470  82.4388170
 131.2336410  20.6026280  82.2495250 128.8071740  24.7487480  72.8104660
 128.0334000  24.2085100  72.6503380 129.5366370  24.2294090  72.4722420
 139.5659720  23.7452840  78.6031050 140.2858840  24.2408130  78.2127160
 139.3641540  23.0670730  77.9584920 135.0269660  15.1390800  72.7460440
 134.2134270  14.6403970  72.6705750 134.8331610  15.9789050  72.3296790
 134.9478520  23.8161900  84.4900050 134.8815830  22.8957570  84.2357640
 134.3183660  23.9137340  85.2044690 137.7418050  19.5110450  71.0422600
 138.6297670  19.8227680  70.8673940 137.7123140  18.6382700  70.6503180
 128.8509140  24.4167860  76.4483470 129.3687810  23.6136120  76.3940360
 128.3993160  24.3547000  77.2900300 133.7378640  25.6834140  71.7210770
 134.0794340  26.4276370  71.2254090 132.9091350  25.9965260  72.0835600
 126.3353680  21.3829230  83.3609170 125.9768620  22.0483080  83.9482510
 126.0408240  20.5512780  83.7321790 129.5366800  21.8413470  86.2448720
 129.2366940  21.9870650  85.3476540 130.3078040  21.2818760  86.1522110
 134.8795250  26.6382470  84.2403850 134.8939790  25.7063430  84.0222760
 134.1720350  26.7242230  84.8793620 140.0132320  20.8222290  70.5102460
 139.9296040  21.2536510  69.6598900 140.7326510  21.2820640  70.9429280
 141.0906460  23.2789810  83.5872430 140.3654650  23.8718590  83.3901820
 141.6181920  23.2713350  82.7885800 141.0419570  27.6764550  73.2384590
 140.3995730  27.0220170  73.5128310 140.6550230  28.0819640  72.4625260
 136.6206050  25.0049980  77.0856280 136.9729870  24.4078110  76.4257650
 135.7368380  24.6794210  77.2564530 132.7069330  25.7647670  74.4926690
 133.3940460  26.3116880  74.8734280 131.9201750  26.3088400  74.5276300
 124.8461730  21.3820490  69.9843770 125.7156580  21.6645290  70.2679690
 124.3552050  22.1956360  69.8692580 132.0096540  22.7693700  74.1052050
 132.4659320  23.5798950  74.3312240 131.6584750  22.4516840  74.9370540
 134.3129150  28.2800040  81.3344350 134.9571370  28.4859420  82.0117770
 134.6758590  27.5188440  80.8815200 127.9108320  13.1131350  74.5774570
 127.7822950  13.1049250  75.5259490 127.0870340  13.4514440  74.2265580
 135.5861230  26.2832390  80.0521800 136.2283460  25.5825550  80.1653970
 136.1110580  27.0630830  79.8718690 139.4316950  26.5681010  69.7760940
 139.2054530  25.8511450  70.3685580 139.0413150  26.3193450  68.9382690
 137.3598850  27.0827290  83.2557860 137.6955090  27.6693980  83.9335780
 136.4399190  26.9520000  83.4855650 125.2132980  30.5947870  70.5505400
 125.5730620  31.1937210  69.8962670 125.0725320  31.1407760  71.3240430
 124.9102250  14.8722470  84.0381270 124.1960770  15.0719390  84.6433880
 125.3297290  14.0962040  84.4096070 139.0133200  24.4852950  71.4375100
 138.7254900  24.9465640  72.2252980 139.8085370  24.0250720  71.7059320
 125.1974840  28.8602730  85.0247800 125.3065960  27.9197470  84.8843190
 124.5455400  29.1257480  84.3761530 133.1887430  27.1318620  86.4245920
 132.8684300  26.4127860  86.9691610 132.5145790  27.8073690  86.4981980
 131.2301600  27.9779070  71.3679070 131.2211700  28.7108760  70.7523580
 130.3099960  27.7310650  71.4606030 126.8308240  23.1993960  72.1125830
 126.2236190  23.9392860  72.1221130 127.3057590  23.2893320  71.2864030
 136.4041030  17.3644780  81.7882720 136.7721850  16.5439990  82.1162290
 135.5439230  17.4246670  82.2038370 139.7703060  16.3201720  72.5970280
 139.1416220  16.4247390  71.8828510 139.2754980  16.5398500  73.3864160
 134.2161200  28.0407310  70.0304260 134.3173180  27.8371300  69.1006240
 133.3162940  27.7865590  70.2352040 131.7387090  18.5987670  74.0128160
 131.0303240  19.0674010  74.4541770 132.0231570  17.9409680  74.6473350
 133.3643020  20.0184370  82.0120690 133.8628270  20.4930190  82.6772540
 133.5065970  19.0947890  82.2190720 135.7702520  15.3238330  75.4523950
 135.6470300  15.3424460  74.5033460 136.7187080  15.3717270  75.5722350
 132.8579310  30.5593630  74.7251930 133.1120810  30.5215020  73.8031300
 131.9091790  30.4326960  74.7180180 129.9422110  16.9072750  71.3878870
 130.7912640  17.3442900  71.3219060 129.5753380  17.2193010  72.2150930
 140.5709880  16.2352330  82.8549080 140.0683480  16.9757730  83.1942890
 141.3866540  16.6236330  82.5385870 138.8631890  21.4785510  76.3010440
 137.9222030  21.4935740  76.4758130 139.1775960  20.6921470  76.7470740
 128.8413530  23.1605110  69.8614400 129.6076800  23.0486470  70.4239830
 128.9188220  22.4643080  69.2091170 127.5360290  20.5930180  70.5447290
 127.6163880  19.6457690  70.6564690 128.4280040  20.9237060  70.6507950
 140.8657470  28.6494360  77.9764700 140.9904890  29.4725530  78.4488510
 141.7323030  28.4385090  77.6288850 128.3375000  30.7425570  77.6481830
 129.0737480  30.1941030  77.9190400 128.7215920  31.6081580  77.5087820
 125.2220480  26.8099140  73.5223340 124.2960260  27.0520280  73.5128750
 125.6876910  27.6373400  73.4008090 131.4477310  29.9155880  69.4707400
 132.2405920  30.2044710  69.0189190 130.9281660  29.4848050  68.7919880
 136.1797910  26.0351510  86.7842820 135.5736070  26.0583110  86.0438570
 135.8752020  25.3034550  87.3210070 137.6098280  29.7631800  85.3952230
 138.5620030  29.6789820  85.3452470 137.4626500  30.4273510  86.0686020
 140.5007480  29.1426010  70.8944140 140.2148990  28.7291150  70.0798320
 140.3027030  30.0713720  70.7744660 125.0631090  22.4145100  85.7803460
 125.5670110  21.8352380  86.3519690 124.3238510  22.6985330  86.3179830
 131.9654710  25.1359290  69.3349750 131.8605350  24.5211640  70.0611130
 131.7978930  24.6125180  68.5512760 132.1169030  23.8216090  85.3138980
 131.3514700  24.3901090  85.2293650 132.2984990  23.5292300  84.4207210
 135.2057440  24.1979320  69.9391740 134.6567540  24.6448620  70.5834480
 135.8276700  23.6928570  70.4629410 139.2592380  25.5521420  85.8714000
 140.0001850  25.8897180  85.3681460 138.4965060  25.7213480  85.3183770
 127.0954170  20.5574690  86.6753530 127.1359510  20.2588560  87.5838760
 127.9499670  20.9582300  86.5161050 130.8732560  23.1570240  71.8357040
 131.2948980  22.9910110  72.6788430 130.9983400  22.3470470  71.3412180
 129.0359980  19.1366790  84.6428020 128.5056440  18.6457740  84.0151360
 129.7048050  19.5650990  84.1085950 133.3860200  22.1807850  69.0834140
 133.9065860  21.4656870  68.7175290 134.0328600  22.8193720  69.3834650
 137.9338040  23.6036250  84.4069210 138.3479060  23.7581330  85.2559630
 136.9989040  23.7291470  84.5694990 138.4060210  20.9432410  86.4108360
 138.9880980  20.1884730  86.3228840 138.5821980  21.4739850  85.6339840
 129.5232280  16.1029160  84.7225310 129.4289150  15.4849910  83.9976180
 128.9429670  16.8295450  84.4955220 132.2893720  14.6602400  81.7552700
 131.8411020  14.6826660  80.9098250 131.6558920  14.2621420  82.3523000
 132.6953270  23.5556730  82.3765140 133.1141380  24.3989460  82.2041380
 131.7761900  23.6928770  82.1471920 135.0317170  21.2872910  83.7602980
 135.1513380  20.6914050  84.4997820 135.8911170  21.3242600  83.3404280
 137.3705070  21.8410100  82.3365490 136.8440290  22.3652720  81.7330630
 137.7136410  22.4737490  82.9675220 129.7691460  19.2303470  68.7815200
 129.5680520  18.3670830  69.1428540 129.5983510  19.1436830  67.8436800
 130.5460690  29.8609740  83.4922870 130.0081780  30.5855800  83.1731570
 130.7994650  29.3840080  82.7020210 131.7985940  17.8294260  85.0178800
 132.3885630  17.5210110  85.7056620 130.9806180  17.3574010  85.1738700
 136.6179370  17.4460070  85.2511820 135.9294890  16.7841610  85.1861810
 137.3385390  16.9998340  85.6960280 137.2479770  14.0411700  71.3102080
 137.5282060  13.1979600  71.6661500 136.4745500  14.2734810  71.8240830
 128.5674260  16.3304090  68.7693080 128.8700160  16.3371520  67.8612230
 129.3068850  15.9801950  69.2660740 133.4022900  31.0960950  83.7509520
 133.3281600  31.9996090  84.0581890 132.5001740  30.7772850  83.7231590
 131.7859190  15.2738710  69.7549280 131.4381190  14.5962700  69.1751730
 131.9871960  14.8128220  70.5692670 133.9508230  30.2619460  71.3735880
 134.8459020  30.6004430  71.3954640 133.9825860  29.5398870  70.7460160
 127.5904390  25.6346510  69.6022880 128.0279260  26.1776180  70.2580460
 128.0752120  24.8093460  69.6119220 124.8050190  28.4235540  77.0543140
 125.1353200  27.5556600  76.8221780 125.2341190  28.6294060  77.8848100
 129.4012110  26.7544550  74.7145110 129.1007650  26.6309520  75.6149020
 129.2949600  25.8953140  74.3060840 125.2940400  29.2906130  79.7924770
 124.8571390  29.4706930  80.6248920 125.8618080  30.0480750  79.6506490
 140.9302580  28.7923130  84.0802080 140.3304570  28.8515690  83.3366000
 141.0596480  27.8528110  84.2098930 142.1704030  26.5340950  69.4171790
 141.3396990  26.6017600  69.8879020 142.3475860  27.4245070  69.1138650
 141.6260490  23.2788430  71.9205990 142.3879400  23.8485080  72.0265680
 141.6414860  22.7115630  72.6914300 125.1264830  21.8026360  76.1513650
 124.4713670  21.5338000  75.5073350 125.9642780  21.6930840  75.7015630
 142.6320460  24.1338530  76.7647920 143.0029290  23.3505850  76.3583890
 143.2722390  24.8227630  76.5865220 139.6154220  25.5175110  82.1778240
 138.8014060  25.9472270  82.4404030 140.0228420  26.1293520  81.5647290
 141.6779660  23.5722800  69.0778510 141.9528500  24.4801680  68.9497730
 141.4890400  23.5085330  70.0140500 138.0755270  16.5967650  70.3732140
 138.4940150  16.4098630  69.5328800 137.7691330  15.7446700  70.6835070
 141.5745000  21.5091790  74.0707940 141.1988600  20.7419720  73.6389230
 140.8448120  21.8914490  74.5582870 126.1640760  22.1878930  80.6916990
 126.5313800  22.1006330  81.5713010 125.5951580  21.4245480  80.5923850
 140.9644620  20.6563310  83.7047460 140.7330710  20.4276060  82.8045410
 141.2249170  21.5762860  83.6592350 125.7156760  19.0988020  84.5975410
 124.8212810  19.0654780  84.9369120 126.2554310  19.2974810  85.3626660
 139.4032690  15.8819740  86.4827160 140.2802870  15.8903140  86.8661160
 139.4153530  15.1450580  85.8719510 124.3402910  19.0125290  72.0938980
 123.4366990  19.2755490  71.9190640 124.8243530  19.2836460  71.3138940
 140.8495960  19.7349280  77.3715180 141.3733440  19.2411930  76.7405350
 141.4355380  19.8699640  78.1162750 141.0285680  19.8189150  80.8934730
 140.0788390  19.7852690  81.0079720 141.2098690  20.7289260  80.6584500
 126.8830120  18.0690830  70.0033360 127.5921820  17.6474050  69.5180640
 126.1670060  18.1366060  69.3716710 126.5304280  14.1230160  69.0436010
 127.2532410  14.6639100  69.3617230 126.8028800  13.8493580  68.1677550
 140.3395930  18.9922630  73.3107590 140.8355050  18.7593500  74.0956470
 140.1412000  18.1534470  72.8945230 126.2196470  13.3736350  78.9458630
 126.8672660  12.8233730  78.5053790 126.6398310  13.6279500  79.7674440
 141.7683090  17.6283580  75.8445270 141.6582370  17.4739620  76.7827540
 142.5290680  17.1004520  75.6020680 140.1148810  13.5677710  82.3028270
 140.7521030  14.1811850  82.6687460 140.2623700  13.6038370  81.3577500
 142.6573360  15.4591500  69.0851410 143.5822670  15.3272680  68.8769700
 142.6349150  15.5384320  70.0387860 142.7311850  16.2302160  71.7108120
 141.9363350  16.1647280  72.2401030 142.9355130  17.1652800  71.6993470
 139.6730270  30.2693710  75.7046510 140.2689340  29.9478280  75.0280930
 139.9308420  29.7965530  76.4959780 125.9728470  13.5292020  81.6883950
 125.6243290  13.9855840  82.4542130 125.6416170  12.6349150  81.7706380
 127.5792840  26.7011620  85.8537140 127.5362470  26.3304530  86.7351600
 127.7103850  27.6389190  85.9938960 131.2798870  28.2571210  81.4546860
 131.0390230  28.5245770  80.5677380 132.2201510  28.4276940  81.5097720
 133.4853290  14.7203900  85.2103370 133.4242180  15.3125730  85.9598780
 134.4253670  14.6129860  85.0653630 136.1227850  14.3773960  84.8495660
 136.7368260  14.6953250  84.1876740 136.6677410  13.8922550  85.4691520
 142.5403030  30.2765590  82.2557500 142.0461310  30.6734460  81.5384630
 141.9316320  29.6514800  82.6494780 126.6449110  13.0568220  84.9634720
 127.1932100  12.8756270  84.2000830 126.7104420  12.2662330  85.4991030
 127.4180870  29.6473870  82.9734920 126.8241190  29.5158570  83.7124960
 127.4104710  28.8112010  82.5077020 136.8635890  12.9406100  81.1764950
 135.9895730  13.2741210  80.9737880 136.7546640  12.4679280  82.0016820
 137.7707870  15.1476970  82.5606670 137.4421230  14.3328730  82.1808400
 138.7190170  15.1046780  82.4372360 140.2242480  30.9189010  79.5344240
 139.7645450  31.6704820  79.1602260 139.5954940  30.1995480  79.4759040
 127.0493100  27.0132250  81.9242960 126.3227160  26.3937540  81.8568910
 127.1102250  27.4072860  81.0541040 130.6538200  29.2277250  78.7092370
 131.1703220  28.6164610  78.1840630 131.3035580  29.7306030  79.2003380
 133.3933700  30.1185740  79.5361350 133.6811510  29.8640040  78.6594360
 133.9056920  29.5663100  80.1266920 134.6110710  13.8575940  80.1157860
 133.8282500  14.3321440  80.3954620 134.3173640  12.9530770  80.0071040
 139.1631780  14.5599040  78.1606950 139.6039870  14.5044140  77.3128550
 138.8939370  15.4757050  78.2317130 141.0270350  14.1914280  76.1715770
 140.9658750  13.2475500  76.0246790 141.8062380  14.2994370  76.7169230
 125.3323100  30.3306640  75.1339720 125.1645140  29.6977320  75.8321610
 124.4657610  30.5366040  74.7833910 125.9551120  14.1623420  72.6371580
 126.7130480  14.2752300  72.0635610 125.4928290  14.9992620  72.5915010
 132.4964930  16.2762690  75.6273890 131.6839440  15.9019580  75.2869770
 133.0006570  15.5207770  75.9295080 136.9989910  12.9405140  76.8656960
 137.6019280  13.5125350  77.3405480 136.2582900  13.5044580  76.6430860
 140.1424510  13.3426700  72.1397240 140.3375140  14.2410150  72.4064670
 139.3554380  13.1113780  72.6330190 126.9385800  29.0239870  72.5789860
 126.4133420  29.4047900  71.8751820 126.8630380  29.6490640  73.2999570
 128.3276270  14.6887470  71.1773550 128.8569030  13.9017270  71.0481500
 128.9604590  15.3678660  71.4109080 130.5214110  14.4262610  74.2318940
 129.8916850  13.7249920  74.3989070 129.9819250  15.1866740  74.0152100
 133.4606060  31.0401840  86.9029550 134.3873370  30.8046110  86.9465510
 133.4456490  31.8673840  86.4215580 141.6951120  30.5827410  73.9003800
 141.8703310  29.8965150  73.2564720 140.9972690  31.1074460  73.5080470
 130.6469670  13.7046590  86.6671430 130.3653940  14.2080190  85.9032250
 131.0289370  12.9068340  86.3013560 129.5378770  30.9722250  71.4539110
 130.2697590  30.6881530  70.9063000 129.7972440  30.7335530  72.3438490
 128.6993560  27.0886980  71.4585440 128.0702440  27.5572080  72.0071270
 128.8141390  26.2436200  71.8931630 137.2485130  13.1200170  87.2451900
 137.1350580  13.4394780  88.1403420 138.0654870  13.5212680  86.9489180
 140.0283620  30.2671700  86.7270590 140.8208940  29.7720930  86.5196550
 140.3216770  30.9461840  87.3346200 136.1543280  21.1392640  57.6086640
 136.0737330  20.2247250  57.3378350 135.7407700  21.6359710  56.9026350
 134.2861320  22.9171660  59.4895910 133.5103420  22.4372100  59.7794480
 134.9374250  22.2377310  59.3152070 128.3027150  23.2291470  60.3671670
 127.4712030  22.9740180  60.7668180 128.9108130  23.3002240  61.1029590
 138.3068750  27.3231850  58.2695040 137.8450280  26.5519090  58.5982210
 139.1194300  27.3497920  58.7747490 128.2828410  27.2631560  60.5629690
 128.5856450  26.3729300  60.3839910 129.0272000  27.8201780  60.3351940
 126.7119100  18.1893360  54.1514060 125.8235800  18.5309330  54.0493940
 126.9960290  17.9893680  53.2594890 124.6752110  20.7899010  60.0353760
 125.2468220  20.0221210  60.0357400 124.6753650  21.0887770  59.1260370
 134.5332060  29.6089860  57.8899030 133.9143500  30.0647360  57.3193470
 135.3883840  29.7641320  57.4888730 133.7270310  25.5928850  59.4966070
 133.6578590  24.6518790  59.3355200 134.4890170  25.6830260  60.0688640
 125.9176980  16.1983370  61.8222690 125.7379820  15.3009120  62.1025450
 125.5157060  16.7455240  62.4969640 134.7575480  18.3999230  59.7235000
 135.1340300  17.5271110  59.6108670 134.6594990  18.7357930  58.8325440
 128.8880490  16.7724860  55.1852440 128.9947240  17.6728590  55.4921200
 127.9772850  16.7242830  54.8947090 138.5399600  15.8949670  56.6563340
 139.3609220  15.4046240  56.6988820 138.5733680  16.4847330  57.4095180
 126.5363650  18.6943870  60.4305030 127.2173760  18.9582240  61.0492430
 126.2211700  17.8544740  60.7643040 130.7288220  19.7411230  59.5177620
 131.2366440  20.2392200  60.1582640 131.2601460  18.9646430  59.3416980
 142.8299150  17.9116420  63.2206970 142.1251320  18.2998130  62.7022080
 143.0957070  18.6066710  63.8227900 129.0124320  14.3809790  63.7841040
 129.0142760  14.8982180  62.9786940 128.1828630  13.9039970  63.7610970
 135.3995410  24.4929100  55.2830940 134.7812680  24.9578550  54.7193660
 135.9118660  25.1856580  55.7000450 130.2627170  24.0204970  61.9614540
 129.9296550  24.6473890  62.6035610 130.4393850  24.5466850  61.1816210
 138.7761080  17.8350050  59.4290880 138.0716650  18.1234940  60.0093990
 139.1373240  18.6450160  59.0690440 128.6939650  16.0919750  61.7911490
 129.0356460  16.9361800  61.4965360 127.7555460  16.2403490  61.9076830
 129.4746270  25.9885770  63.7763720 130.0920270  26.6636850  63.4948170
 128.6139390  26.3973750  63.6851220 124.7678610  25.1785630  52.6570570
 124.3906590  25.6672730  51.9255470 125.0251680  25.8510910  53.2877100
 140.3923860  27.4525180  61.6918360 139.7087380  28.1224290  61.6835030
 140.9318150  27.6505830  60.9263220 141.8448000  17.2804840  59.8200090
 140.8972910  17.3143820  59.9515520 142.1697990  18.0943790  60.2049450
 132.3767540  13.5802020  58.1156080 132.6842520  13.0248910  57.3991580
 131.4468240  13.7146480  57.9329070 137.9282600  29.2969310  60.4063540
 137.9409760  28.8931600  59.5385800 137.3757820  30.0716600  60.3024970
 139.2228020  26.0185530  55.4953710 139.1124350  25.0759860  55.6203130
 139.2196270  26.3801170  56.3816470 137.3268040  24.1999150  61.7346150
 137.7436830  23.9859260  60.8999610 138.0507860  24.4571940  62.3054770
 134.7648300  21.6450850  54.8516200 133.8377580  21.5788230  55.0804670
 134.9173120  22.5830980  54.7371440 134.7517380  17.9167850  51.8483360
 133.8121050  18.0781810  51.9335820 135.0700640  18.6353530  51.3019350
 141.2730140  22.5986370  61.8262390 140.4448770  22.6679460  61.3512520
 141.8680620  23.1840680  61.3578220 138.7945590  23.2071150  55.3551450
 138.1758010  22.8690700  54.7077750 138.7770040  22.5630910  56.0630640
 138.2372150  19.3855690  62.7717260 137.8243330  20.2109400  63.0257250
 137.5048100  18.8000730  62.5793620 130.3704940  22.1715590  57.6335930
 129.9661940  21.4592840  57.1381830 130.4568060  21.8268830  58.5223970
 130.8386640  25.8583150  59.7975140 130.5414930  25.2528620  59.1182920
 131.7886460  25.8960460  59.6864500 129.0833560  18.9458800  61.4134970
 129.6348150  19.0554140  60.6388220 129.5977070  19.3196400  62.1290200
 138.9272250  29.4315020  63.4598240 138.4502810  30.2387210  63.2670850
 138.2434040  28.7793350  63.6124450 129.9305070  25.5964840  66.4482940
 129.0333600  25.8204810  66.6956340 129.9557940  25.7199780  65.4994340
 136.9710290  22.4457960  52.3624200 137.4103570  21.6080390  52.2162020
 137.6838710  23.0787360  52.4488340 128.7576290  22.4678160  65.0240310
 128.6184060  23.3400960  65.3927710 127.8757650  22.1250970  64.8788250
 135.0805670  27.3854030  56.3305440 135.5201580  28.1278360  55.9160830
 135.0192560  27.6280600  57.2544400 130.5556640  28.4099860  67.2325460
 130.5272070  28.8142810  66.3653890 130.3921610  27.4810220  67.0697060
 140.5527430  13.7000770  50.6765240 140.2400090  13.7927600  51.5764310
 141.3139900  14.2781800  50.6262670 127.0709570  21.0660570  55.1342580
 126.9507170  21.7922660  54.5223850 126.7610460  20.2963480  54.6570490
 142.5071460  29.1926960  68.5289630 142.9831180  29.6709850  69.2078710
 143.1278620  29.1244450  67.8035130 124.7094940  24.2375710  60.9411220
 124.7875360  24.3724480  59.9966940 125.3236620  23.5291600  61.1339340
 125.9542570  25.9375900  57.3517400 125.5470650  26.0790490  56.4971000
 126.8455580  25.6536060  57.1488610 141.9104710  26.3839810  65.6889640
 142.0367770  26.1451690  64.7706820 141.9526090  25.5524350  66.1611720
 135.7721450  30.0867810  64.2584450 136.2866120  29.9975820  65.0606880
 134.9290530  30.4327510  64.5512360 137.7475850  30.3723150  53.6868450
 137.5876990  30.0826090  54.5850280 137.5822560  29.5963280  53.1513680
 130.2264230  30.1521680  55.4640070 130.0506710  29.2357220  55.2507870
 129.3719970  30.5108970  55.7037870 137.4501980  27.8810710  52.2466450
 136.7567140  27.8788000  51.5868730 138.1924840  27.4570030  51.8160620
 137.0151910  29.5073420  56.3214940 137.4708860  28.7262800  56.6353560
 137.3544430  30.2180240  56.8656120 141.7628720  18.4372270  66.6539380
 141.1472990  18.9451940  66.1254840 141.4425140  17.5370600  66.5965320
 124.7654460  25.2789880  63.4805680 124.9285500  24.8095240  62.6625050
 125.2306910  24.7713440  64.1454520 129.5373230  14.4095640  58.5166250
 129.0941380  15.1905180  58.1850770 130.0958220  14.7325530  59.2237190
 133.8243040  17.2764160  64.1201570 133.3622410  17.4847180  64.9321510
 133.4221150  16.4623510  63.8172240 138.8247550  18.4973110  65.2498230
 137.9741140  18.1978860  65.5707300 138.6649340  18.7415120  64.3382050
 135.9197260  19.9974860  67.3497020 136.2450670  19.1638610  67.0099250
 136.7077590  20.5203380  67.4975350 132.6532050  14.0306340  53.3972080
 132.0286230  14.0266210  54.1225390 132.5662170  13.1637300  53.0008050
 131.5749130  14.9542970  60.3755850 131.8721460  15.8605800  60.2947870
 132.1234690  14.4661750  59.7615420 129.3287450  19.5329210  56.2447500
 129.1028370  19.3166380  57.1494120 128.5479980  19.9657670  55.8993470
 136.5585210  19.5392580  54.8438150 135.9594100  20.2628380  54.6601770
 137.1064820  19.4769360  54.0614600 131.7686660  20.4314790  66.9107770
 131.6730260  19.4909520  66.7608170 132.6118640  20.6529860  66.5155840
 135.1650080  18.1756120  56.8741430 135.5579650  18.4928320  56.0610120
 135.5266930  17.2968000  56.9885950 126.8997200  16.8428460  65.0641550
 126.5060590  17.6903670  65.2714330 126.2115600  16.2054830  65.2550190
 133.4742250  16.9263430  68.1338290 132.7840570  16.7335630  68.7684380
 134.2174550  17.2098070  68.6662590 124.2014250  14.7656920  59.0971630
 123.9127300  15.3359780  59.8096610 124.9460010  14.2861370  59.4602860
 124.3884480  18.7077040  50.3074350 124.3059150  19.6507800  50.4489340
 124.0367540  18.5651950  49.4286700 135.7505220  20.7661870  60.9692210
 135.0186340  21.2748680  61.3182310 135.3529560  19.9491850  60.6680990
 132.1882610  17.4416070  59.3744700 132.1918670  17.0006020  58.5249240
 133.0833730  17.7633400  59.4816520 128.0384990  17.3242560  58.3338910
 127.6985040  17.8017790  59.0905960 127.2762310  16.8707680  57.9740010
 132.2502760  18.4428150  52.3651460 132.3715580  18.4014630  53.3137280
 131.8651270  19.3052300  52.2098190 136.2131130  16.2195550  60.3815150
 136.2303870  16.6704200  61.2257000 135.9646710  15.3201190  60.5948590
 131.2624260  20.7529290  51.7634760 130.6941160  20.3047540  51.1370670
 131.9713260  21.1122070  51.2299910 139.6401880  13.6327730  66.2201530
 139.9647650  12.9017390  66.7459510 139.6758390  13.3141370  65.3182520
 126.3393440  24.6541310  65.6401490 125.9548230  24.0134980  66.2384450
 126.6505630  25.3577430  66.2096220 132.4890580  21.5017850  61.1210110
 132.8560710  21.0276420  61.8671450 132.2995640  22.3759420  61.4618450
 125.3531070  16.2461540  57.2503580 125.0677990  15.8817210  58.0882200
 125.2909930  15.5142000  56.6366720 130.2789950  20.5426490  63.4394320
 129.9747020  21.4218470  63.6644680 131.2336410  20.6026280  63.4751760
 128.8071740  24.7487480  54.0361170 128.0334000  24.2085100  53.8759890
 129.5366370  24.2294090  53.6978930 139.5659720  23.7452840  59.8287560
 140.2858840  24.2408130  59.4383670 139.3641540  23.0670730  59.1841430
 135.0269660  15.1390800  53.9716950 134.2134270  14.6403970  53.8962260
 134.8331610  15.9789050  53.5553300 134.9478520  23.8161900  65.7156560
 134.8815830  22.8957570  65.4614150 134.3183660  23.9137340  66.4301200
 137.7418050  19.5110450  52.2679110 138.6297670  19.8227680  52.0930450
 137.7123140  18.6382700  51.8759690 128.8509140  24.4167860  57.6739980
 129.3687810  23.6136120  57.6196870 128.3993160  24.3547000  58.5156810
 133.7378640  25.6834140  52.9467280 134.0794340  26.4276370  52.4510600
 132.9091350  25.9965260  53.3092110 126.3353680  21.3829230  64.5865680
 125.9768620  22.0483080  65.1739020 126.0408240  20.5512780  64.9578300
 129.5366800  21.8413470  67.4705230 129.2366940  21.9870650  66.5733050
 130.3078040  21.2818760  67.3778620 134.8795250  26.6382470  65.4660360
 134.8939790  25.7063430  65.2479270 134.1720350  26.7242230  66.1050130
 140.0132320  20.8222290  51.7358970 139.9296040  21.2536510  50.8855410
 140.7326510  21.2820640  52.1685790 141.0906460  23.2789810  64.8128940
 140.3654650  23.8718590  64.6158330 141.6181920  23.2713350  64.0142310
 141.0419570  27.6764550  54.4641100 140.3995730  27.0220170  54.7384820
 140.6550230  28.0819640  53.6881770 136.6206050  25.0049980  58.3112790
 136.9729870  24.4078110  57.6514160 135.7368380  24.6794210  58.4821040
 132.7069330  25.7647670  55.7183200 133.3940460  26.3116880  56.0990790
 131.9201750  26.3088400  55.7532810 124.8461730  21.3820490  51.2100280
 125.7156580  21.6645290  51.4936200 124.3552050  22.1956360  51.0949090
 132.0096540  22.7693700  55.3308560 132.4659320  23.5798950  55.5568750
 131.6584750  22.4516840  56.1627050 134.3129150  28.2800040  62.5600860
 134.9571370  28.4859420  63.2374280 134.6758590  27.5188440  62.1071710
 127.9108320  13.1131350  55.8031080 127.7822950  13.1049250  56.7516000
 127.0870340  13.4514440  55.4522090 135.5861230  26.2832390  61.2778310
 136.2283460  25.5825550  61.3910480 136.1110580  27.0630830  61.0975200
 139.4316950  26.5681010  51.0017450 139.2054530  25.8511450  51.5942090
 139.0413150  26.3193450  50.1639200 137.3598850  27.0827290  64.4814370
 137.6955090  27.6693980  65.1592290 136.4399190  26.9520000  64.7112160
 125.2132980  30.5947870  51.7761910 125.5730620  31.1937210  51.1219180
 125.0725320  31.1407760  52.5496940 124.9102250  14.8722470  65.2637780
 124.1960770  15.0719390  65.8690390 125.3297290  14.0962040  65.6352580
 139.0133200  24.4852950  52.6631610 138.7254900  24.9465640  53.4509490
 139.8085370  24.0250720  52.9315830 125.1974840  28.8602730  66.2504310
 125.3065960  27.9197470  66.1099700 124.5455400  29.1257480  65.6018040
 133.1887430  27.1318620  67.6502430 132.8684300  26.4127860  68.1948120
 132.5145790  27.8073690  67.7238490 131.2301600  27.9779070  52.5935580
 131.2211700  28.7108760  51.9780090 130.3099960  27.7310650  52.6862540
 126.8308240  23.1993960  53.3382340 126.2236190  23.9392860  53.3477640
 127.3057590  23.2893320  52.5120540 136.4041030  17.3644780  63.0139230
 136.7721850  16.5439990  63.3418800 135.5439230  17.4246670  63.4294880
 139.7703060  16.3201720  53.8226790 139.1416220  16.4247390  53.1085020
 139.2754980  16.5398500  54.6120670 134.2161200  28.0407310  51.2560770
 134.3173180  27.8371300  50.3262750 133.3162940  27.7865590  51.4608550
 131.7387090  18.5987670  55.2384670 131.0303240  19.0674010  55.6798280
 132.0231570  17.9409680  55.8729860 133.3643020  20.0184370  63.2377200
 133.8628270  20.4930190  63.9029050 133.5065970  19.0947890  63.4447230
 135.7702520  15.3238330  56.6780460 135.6470300  15.3424460  55.7289970
 136.7187080  15.3717270  56.7978860 132.8579310  30.5593630  55.9508440
 133.1120810  30.5215020  55.0287810 131.9091790  30.4326960  55.9436690
 129.9422110  16.9072750  52.6135380 130.7912640  17.3442900  52.5475570
 129.5753380  17.2193010  53.4407440 140.5709880  16.2352330  64.0805590
 140.0683480  16.9757730  64.4199400 141.3866540  16.6236330  63.7642380
 138.8631890  21.4785510  57.5266950 137.9222030  21.4935740  57.7014640
 139.1775960  20.6921470  57.9727250 128.8413530  23.1605110  51.0870910
 129.6076800  23.0486470  51.6496340 128.9188220  22.4643080  50.4347680
 127.5360290  20.5930180  51.7703800 127.6163880  19.6457690  51.8821200
 128.4280040  20.9237060  51.8764460 140.8657470  28.6494360  59.2021210
 140.9904890  29.4725530  59.6745020 141.7323030  28.4385090  58.8545360
 128.3375000  30.7425570  58.8738340 129.0737480  30.1941030  59.1446910
 128.7215920  31.6081580  58.7344330 125.2220480  26.8099140  54.7479850
 124.2960260  27.0520280  54.7385260 125.6876910  27.6373400  54.6264600
 127.3433280  29.9271640  68.0623920 128.1446010  30.2483690  68.4759320
 126.8285100  29.5667220  68.7843830 131.4477310  29.9155880  50.6963910
 132.2405920  30.2044710  50.2445700 130.9281660  29.4848050  50.0176390
 136.1797910  26.0351510  68.0099330 135.5736070  26.0583110  67.2695080
 135.8752020  25.3034550  68.5466580 137.6098280  29.7631800  66.6208740
 138.5620030  29.6789820  66.5708980 137.4626500  30.4273510  67.2942530
 140.5007480  29.1426010  52.1200650 140.2148990  28.7291150  51.3054830
 140.3027030  30.0713720  52.0001170 125.0631090  22.4145100  67.0059970
 125.5670110  21.8352380  67.5776200 124.3238510  22.6985330  67.5436340
 131.9654710  25.1359290  50.5606260 131.8605350  24.5211640  51.2867640
 131.7978930  24.6125180  49.7769270 132.1169030  23.8216090  66.5395490
 131.3514700  24.3901090  66.4550160 132.2984990  23.5292300  65.6463720
 135.2057440  24.1979320  51.1648250 134.6567540  24.6448620  51.8090990
 135.8276700  23.6928570  51.6885920 139.2592380  25.5521420  67.0970510
 140.0001850  25.8897180  66.5937970 138.4965060  25.7213480  66.5440280
 127.0954170  20.5574690  67.9010040 127.1359510  20.2588560  68.8095270
 127.9499670  20.9582300  67.7417560 130.8732560  23.1570240  53.0613550
 131.2948980  22.9910110  53.9044940 130.9983400  22.3470470  52.5668690
 129.0359980  19.1366790  65.8684530 128.5056440  18.6457740  65.2407870
 129.7048050  19.5650990  65.3342460 133.3860200  22.1807850  50.3090650
 133.9065860  21.4656870  49.9431800 134.0328600  22.8193720  50.6091160
 137.9338040  23.6036250  65.6325720 138.3479060  23.7581330  66.4816140
 136.9989040  23.7291470  65.7951500 138.4060210  20.9432410  67.6364870
 138.9880980  20.1884730  67.5485350 138.5821980  21.4739850  66.8596350
 129.5232280  16.1029160  65.9481820 129.4289150  15.4849910  65.2232690
 128.9429670  16.8295450  65.7211730 132.2893720  14.6602400  62.9809210
 131.8411020  14.6826660  62.1354760 131.6558920  14.2621420  63.5779510
 132.6953270  23.5556730  63.6021650 133.1141380  24.3989460  63.4297890
 131.7761900  23.6928770  63.3728430 135.0317170  21.2872910  64.9859490
 135.1513380  20.6914050  65.7254330 135.8911170  21.3242600  64.5660790
 137.3705070  21.8410100  63.5622000 136.8440290  22.3652720  62.9587140
 137.7136410  22.4737490  64.1931730 129.7691460  19.2303470  50.0071710
 129.5680520  18.3670830  50.3685050 129.5983510  19.1436830  49.0693310
 130.5460690  29.8609740  64.7179380 130.0081780  30.5855800  64.3988080
 130.7994650  29.3840080  63.9276720 131.7985940  17.8294260  66.2435310
 132.3885630  17.5210110  66.9313130 130.9806180  17.3574010  66.3995210
 136.6179370  17.4460070  66.4768330 135.9294890  16.7841610  66.4118320
 137.3385390  16.9998340  66.9216790 137.2479770  14.0411700  52.5358590
 137.5282060  13.1979600  52.8918010 136.4745500  14.2734810  53.0497340
 128.5674260  16.3304090  49.9949590 128.8700160  16.3371520  49.0868740
 129.3068850  15.9801950  50.4917250 133.4022900  31.0960950  64.9766030
 133.3281600  31.9996090  65.2838400 132.5001740  30.7772850  64.9488100
 131.7859190  15.2738710  50.9805790 131.4381190  14.5962700  50.4008240
 131.9871960  14.8128220  51.7949180 133.9508230  30.2619460  52.5992390
 134.8459020  30.6004430  52.6211150 133.9825860  29.5398870  51.9716670
 127.5904390  25.6346510  50.8279390 128.0279260  26.1776180  51.4836970
 128.0752120  24.8093460  50.8375730 124.8050190  28.4235540  58.2799650
 125.1353200  27.5556600  58.0478290 125.2341190  28.6294060  59.1104610
 129.4012110  26.7544550  55.9401620 129.1007650  26.6309520  56.8405530
 129.2949600  25.8953140  55.5317350 125.2940400  29.2906130  61.0181280
 124.8571390  29.4706930  61.8505430 125.8618080  30.0480750  60.8763000
 140.9302580  28.7923130  65.3058590 140.3304570  28.8515690  64.5622510
 141.0596480  27.8528110  65.4355440 142.1704030  26.5340950  50.6428300
 141.3396990  26.6017600  51.1135530 142.3475860  27.4245070  50.3395160
 141.6260490  23.2788430  53.1462500 142.3879400  23.8485080  53.2522190
 141.6414860  22.7115630  53.9170810 125.1264830  21.8026360  57.3770160
 124.4713670  21.5338000  56.7329860 125.9642780  21.6930840  56.9272140
 142.6320460  24.1338530  57.9904430 143.0029290  23.3505850  57.5840400
 143.2722390  24.8227630  57.8121730 139.6154220  25.5175110  63.4034750
 138.8014060  25.9472270  63.6660540 140.0228420  26.1293520  62.7903800
 141.6779660  23.5722800  50.3035020 141.9528500  24.4801680  50.1754240
 141.4890400  23.5085330  51.2397010 138.0755270  16.5967650  51.5988650
 138.4940150  16.4098630  50.7585310 137.7691330  15.7446700  51.9091580
 141.5745000  21.5091790  55.2964450 141.1988600  20.7419720  54.8645740
 140.8448120  21.8914490  55.7839380 126.1640760  22.1878930  61.9173500
 126.5313800  22.1006330  62.7969520 125.5951580  21.4245480  61.8180360
 140.9644620  20.6563310  64.9303970 140.7330710  20.4276060  64.0301920
 141.2249170  21.5762860  64.8848860 125.7156760  19.0988020  65.8231920
 124.8212810  19.0654780  66.1625630 126.2554310  19.2974810  66.5883170
 139.4032690  15.8819740  67.7083670 140.2802870  15.8903140  68.0917670
 139.4153530  15.1450580  67.0976020 124.3402910  19.0125290  53.3195490
 123.4366990  19.2755490  53.1447150 124.8243530  19.2836460  52.5395450
 140.8495960  19.7349280  58.5971690 141.3733440  19.2411930  57.9661860
 141.4355380  19.8699640  59.3419260 141.0285680  19.8189150  62.1191240
 140.0788390  19.7852690  62.2336230 141.2098690  20.7289260  61.8841010
 126.8830120  18.0690830  51.2289870 127.5921820  17.6474050  50.7437150
 126.1670060  18.1366060  50.5973220 126.5304280  14.1230160  50.2692520
 127.2532410  14.6639100  50.5873740 126.8028800  13.8493580  49.3934060
 140.3395930  18.9922630  54.5364100 140.8355050  18.7593500  55.3212980
 140.1412000  18.1534470  54.1201740 126.2196470  13.3736350  60.1715140
 126.8672660  12.8233730  59.7310300 126.6398310  13.6279500  60.9930950
 141.7683090  17.6283580  57.0701780 141.6582370  17.4739620  58.0084050
 142.5290680  17.1004520  56.8277190 140.1148810  13.5677710  63.5284780
 140.7521030  14.1811850  63.8943970 140.2623700  13.6038370  62.5834010
 142.6573360  15.4591500  50.3107920 143.5822670  15.3272680  50.1026210
 142.6349150  15.5384320  51.2644370 142.7311850  16.2302160  52.9364630
 141.9363350  16.1647280  53.4657540 142.9355130  17.1652800  52.9249980
 139.6730270  30.2693710  56.9303020 140.2689340  29.9478280  56.2537440
 139.9308420  29.7965530  57.7216290 125.9728470  13.5292020  62.9140460
 125.6243290  13.9855840  63.6798640 125.6416170  12.6349150  62.9962890
 127.5792840  26.7011620  67.0793650 127.5362470  26.3304530  67.9608110
 127.7103850  27.6389190  67.2195470 131.2798870  28.2571210  62.6803370
 131.0390230  28.5245770  61.7933890 132.2201510  28.4276940  62.7354230
 133.4853290  14.7203900  66.4359880 133.4242180  15.3125730  67.1855290
 134.4253670  14.6129860  66.2910140 136.1227850  14.3773960  66.0752170
 136.7368260  14.6953250  65.4133250 136.6677410  13.8922550  66.6948030
 142.5403030  30.2765590  63.4814010 142.0461310  30.6734460  62.7641140
 141.9316320  29.6514800  63.8751290 126.6449110  13.0568220  66.1891230
 127.1932100  12.8756270  65.4257340 126.7104420  12.2662330  66.7247540
 127.4180870  29.6473870  64.1991430 126.8241190  29.5158570  64.9381470
 127.4104710  28.8112010  63.7333530 136.8635890  12.9406100  62.4021460
 135.9895730  13.2741210  62.1994390 136.7546640  12.4679280  63.2273330
 137.7707870  15.1476970  63.7863180 137.4421230  14.3328730  63.4064910
 138.7190170  15.1046780  63.6628870 140.2242480  30.9189010  60.7600750
 139.7645450  31.6704820  60.3858770 139.5954940  30.1995480  60.7015550
 127.0493100  27.0132250  63.1499470 126.3227160  26.3937540  63.0825420
 127.1102250  27.4072860  62.2797550 130.6538200  29.2277250  59.9348880
 131.1703220  28.6164610  59.4097140 131.3035580  29.7306030  60.4259890
 133.3933700  30.1185740  60.7617860 133.6811510  29.8640040  59.8850870
 133.9056920  29.5663100  61.3523430 134.6110710  13.8575940  61.3414370
 133.8282500  14.3321440  61.6211130 134.3173640  12.9530770  61.2327550
 139.1631780  14.5599040  59.3863460 139.6039870  14.5044140  58.5385060
 138.8939370  15.4757050  59.4573640 141.0270350  14.1914280  57.3972280
 140.9658750  13.2475500  57.2503300 141.8062380  14.2994370  57.9425740
 125.3323100  30.3306640  56.3596230 125.1645140  29.6977320  57.0578120
 124.4657610  30.5366040  56.0090420 125.9551120  14.1623420  53.8628090
 126.7130480  14.2752300  53.2892120 125.4928290  14.9992620  53.8171520
 132.4964930  16.2762690  56.8530400 131.6839440  15.9019580  56.5126280
 133.0006570  15.5207770  57.1551590 136.9989910  12.9405140  58.0913470
 137.6019280  13.5125350  58.5661990 136.2582900  13.5044580  57.8687370
 140.1424510  13.3426700  53.3653750 140.3375140  14.2410150  53.6321180
 139.3554380  13.1113780  53.8586700 126.9385800  29.0239870  53.8046370
 126.4133420  29.4047900  53.1008330 126.8630380  29.6490640  54.5256080
 128.3276270  14.6887470  52.4030060 128.8569030  13.9017270  52.2738010
 128.9604590  15.3678660  52.6365590 130.5214110  14.4262610  55.4575450
 129.8916850  13.7249920  55.6245580 129.9819250  15.1866740  55.2408610
 133.4606060  31.0401840  68.1286060 134.3873370  30.8046110  68.1722020
 133.4456490  31.8673840  67.6472090 141.6951120  30.5827410  55.1260310
 141.8703310  29.8965150  54.4821230 140.9972690  31.1074460  54.7336980
 130.6469670  13.7046590  67.8927940 130.3653940  14.2080190  67.1288760
 131.0289370  12.9068340  67.5270070 129.5378770  30.9722250  52.6795620
 130.2697590  30.6881530  52.1319510 129.7972440  30.7335530  53.5695000
 128.6993560  27.0886980  52.6841950 128.0702440  27.5572080  53.2327780
 128.8141390  26.2436200  53.1188140 137.2485130  13.1200170  68.4708410
 137.1350580  13.4394780  69.3659930 138.0654870  13.5212680  68.1745690
 140.0283620  30.2671700  67.9527100 140.8208940  29.7720930  67.7453060
 140.3216770  30.9461840  68.5602710 136.1543280  21.1392640  38.8343150
 136.0737330  20.2247250  38.5634860 135.7407700  21.6359710  38.1282860
 134.2861320  22.9171660  40.7152420 133.5103420  22.4372100  41.0050990
 134.9374250  22.2377310  40.5408580 128.3027150  23.2291470  41.5928180
 127.4712030  22.9740180  41.9924690 128.9108130  23.3002240  42.3286100
 138.3068750  27.3231850  39.4951550 137.8450280  26.5519090  39.8238720
 139.1194300  27.3497920  40.0004000 128.2828410  27.2631560  41.7886200
 128.5856450  26.3729300  41.6096420 129.0272000  27.8201780  41.5608450
 126.7119100  18.1893360  35.3770570 125.8235800  18.5309330  35.2750450
 126.9960290  17.9893680  34.4851400 124.6752110  20.7899010  41.2610270
 125.2468220  20.0221210  41.2613910 124.6753650  21.0887770  40.3516880
 134.5332060  29.6089860  39.1155540 133.9143500  30.0647360  38.5449980
 135.3883840  29.7641320  38.7145240 133.7270310  25.5928850  40.7222580
 133.6578590  24.6518790  40.5611710 134.4890170  25.6830260  41.2945150
 125.9176980  16.1983370  43.0479200 125.7379820  15.3009120  43.3281960
 125.5157060  16.7455240  43.7226150 134.7575480  18.3999230  40.9491510
 135.1340300  17.5271110  40.8365180 134.6594990  18.7357930  40.0581950
 128.8880490  16.7724860  36.4108950 128.9947240  17.6728590  36.7177710
 127.9772850  16.7242830  36.1203600 138.5399600  15.8949670  37.8819850
 139.3609220  15.4046240  37.9245330 138.5733680  16.4847330  38.6351690
 126.5363650  18.6943870  41.6561540 127.2173760  18.9582240  42.2748940
 126.2211700  17.8544740  41.9899550 130.7288220  19.7411230  40.7434130
 131.2366440  20.2392200  41.3839150 131.2601460  18.9646430  40.5673490
 142.8299150  17.9116420  44.4463480 142.1251320  18.2998130  43.9278590
 143.0957070  18.6066710  45.0484410 129.0124320  14.3809790  45.0097550
 129.0142760  14.8982180  44.2043450 128.1828630  13.9039970  44.9867480
 135.3995410  24.4929100  36.5087450 134.7812680  24.9578550  35.9450170
 135.9118660  25.1856580  36.9256960 130.2627170  24.0204970  43.1871050
 129.9296550  24.6473890  43.8292120 130.4393850  24.5466850  42.4072720
 138.7761080  17.8350050  40.6547390 138.0716650  18.1234940  41.2350500
 139.1373240  18.6450160  40.2946950 128.6939650  16.0919750  43.0168000
 129.0356460  16.9361800  42.7221870 127.7555460  16.2403490  43.1333340
 129.4746270  25.9885770  45.0020230 130.0920270  26.6636850  44.7204680
 128.6139390  26.3973750  44.9107730 124.7678610  25.1785630  33.8827080
 124.3906590  25.6672730  33.1511980 125.0251680  25.8510910  34.5133610
 140.3923860  27.4525180  42.9174870 139.7087380  28.1224290  42.9091540
 140.9318150  27.6505830  42.1519730 141.8448000  17.2804840  41.0456600
 140.8972910  17.3143820  41.1772030 142.1697990  18.0943790  41.4305960
 132.3767540  13.5802020  39.3412590 132.6842520  13.0248910  38.6248090
 131.4468240  13.7146480  39.1585580 137.9282600  29.2969310  41.6320050
 137.9409760  28.8931600  40.7642310 137.3757820  30.0716600  41.5281480
 139.2228020  26.0185530  36.7210220 139.1124350  25.0759860  36.8459640
 139.2196270  26.3801170  37.6072980 137.3268040  24.1999150  42.9602660
 137.7436830  23.9859260  42.1256120 138.0507860  24.4571940  43.5311280
 134.7648300  21.6450850  36.0772710 133.8377580  21.5788230  36.3061180
 134.9173120  22.5830980  35.9627950 134.7517380  17.9167850  33.0739870
 133.8121050  18.0781810  33.1592330 135.0700640  18.6353530  32.5275860
 141.2730140  22.5986370  43.0518900 140.4448770  22.6679460  42.5769030
 141.8680620  23.1840680  42.5834730 138.7945590  23.2071150  36.5807960
 138.1758010  22.8690700  35.9334260 138.7770040  22.5630910  37.2887150
 138.2372150  19.3855690  43.9973770 137.8243330  20.2109400  44.2513760
 137.5048100  18.8000730  43.8050130 130.3704940  22.1715590  38.8592440
 129.9661940  21.4592840  38.3638340 130.4568060  21.8268830  39.7480480
 130.8386640  25.8583150  41.0231650 130.5414930  25.2528620  40.3439430
 131.7886460  25.8960460  40.9121010 129.0833560  18.9458800  42.6391480
 129.6348150  19.0554140  41.8644730 129.5977070  19.3196400  43.3546710
 138.9272250  29.4315020  44.6854750 138.4502810  30.2387210  44.4927360
 138.2434040  28.7793350  44.8380960 129.9305070  25.5964840  47.6739450
 129.0333600  25.8204810  47.9212850 129.9557940  25.7199780  46.7250850
 136.9710290  22.4457960  33.5880710 137.4103570  21.6080390  33.4418530
 137.6838710  23.0787360  33.6744850 128.7576290  22.4678160  46.2496820
 128.6184060  23.3400960  46.6184220 127.8757650  22.1250970  46.1044760
 135.0805670  27.3854030  37.5561950 135.5201580  28.1278360  37.1417340
 135.0192560  27.6280600  38.4800910 130.5556640  28.4099860  48.4581970
 130.5272070  28.8142810  47.5910400 130.3921610  27.4810220  48.2953570
 140.5527430  13.7000770  31.9021750 140.2400090  13.7927600  32.8020820
 141.3139900  14.2781800  31.8519180 127.0709570  21.0660570  36.3599090
 126.9507170  21.7922660  35.7480360 126.7610460  20.2963480  35.8827000
 142.5071460  29.1926960  49.7546140 142.9831180  29.6709850  50.4335220
 143.1278620  29.1244450  49.0291640 124.7094940  24.2375710  42.1667730
 124.7875360  24.3724480  41.2223450 125.3236620  23.5291600  42.3595850
 125.9542570  25.9375900  38.5773910 125.5470650  26.0790490  37.7227510
 126.8455580  25.6536060  38.3745120 141.9104710  26.3839810  46.9146150
 142.0367770  26.1451690  45.9963330 141.9526090  25.5524350  47.3868230
 135.7721450  30.0867810  45.4840960 136.2866120  29.9975820  46.2863390
 134.9290530  30.4327510  45.7768870 137.7475850  30.3723150  34.9124960
 137.5876990  30.0826090  35.8106790 137.5822560  29.5963280  34.3770190
 130.2264230  30.1521680  36.6896580 130.0506710  29.2357220  36.4764380
 129.3719970  30.5108970  36.9294380 137.4501980  27.8810710  33.4722960
 136.7567140  27.8788000  32.8125240 138.1924840  27.4570030  33.0417130
 137.0151910  29.5073420  37.5471450 137.4708860  28.7262800  37.8610070
 137.3544430  30.2180240  38.0912630 141.7628720  18.4372270  47.8795890
 141.1472990  18.9451940  47.3511350 141.4425140  17.5370600  47.8221830
 124.7654460  25.2789880  44.7062190 124.9285500  24.8095240  43.8881560
 125.2306910  24.7713440  45.3711030 129.5373230  14.4095640  39.7422760
 129.0941380  15.1905180  39.4107280 130.0958220  14.7325530  40.4493700
 133.8243040  17.2764160  45.3458080 133.3622410  17.4847180  46.1578020
 133.4221150  16.4623510  45.0428750 138.8247550  18.4973110  46.4754740
 137.9741140  18.1978860  46.7963810 138.6649340  18.7415120  45.5638560
 135.9197260  19.9974860  48.5753530 136.2450670  19.1638610  48.2355760
 136.7077590  20.5203380  48.7231860 132.6532050  14.0306340  34.6228590
 132.0286230  14.0266210  35.3481900 132.5662170  13.1637300  34.2264560
 131.5749130  14.9542970  41.6012360 131.8721460  15.8605800  41.5204380
 132.1234690  14.4661750  40.9871930 129.3287450  19.5329210  37.4704010
 129.1028370  19.3166380  38.3750630 128.5479980  19.9657670  37.1249980
 136.5585210  19.5392580  36.0694660 135.9594100  20.2628380  35.8858280
 137.1064820  19.4769360  35.2871110 131.7686660  20.4314790  48.1364280
 131.6730260  19.4909520  47.9864680 132.6118640  20.6529860  47.7412350
 135.1650080  18.1756120  38.0997940 135.5579650  18.4928320  37.2866630
 135.5266930  17.2968000  38.2142460 126.8997200  16.8428460  46.2898060
 126.5060590  17.6903670  46.4970840 126.2115600  16.2054830  46.4806700
 133.4742250  16.9263430  49.3594800 132.7840570  16.7335630  49.9940890
 134.2174550  17.2098070  49.8919100 124.2014250  14.7656920  40.3228140
 123.9127300  15.3359780  41.0353120 124.9460010  14.2861370  40.6859370
 124.3884480  18.7077040  31.5330860 124.3059150  19.6507800  31.6745850
 124.0367540  18.5651950  30.6543210 135.7505220  20.7661870  42.1948720
 135.0186340  21.2748680  42.5438820 135.3529560  19.9491850  41.8937500
 132.1882610  17.4416070  40.6001210 132.1918670  17.0006020  39.7505750
 133.0833730  17.7633400  40.7073030 128.0384990  17.3242560  39.5595420
 127.6985040  17.8017790  40.3162470 127.2762310  16.8707680  39.1996520
 132.2502760  18.4428150  33.5907970 132.3715580  18.4014630  34.5393790
 131.8651270  19.3052300  33.4354700 136.2131130  16.2195550  41.6071660
 136.2303870  16.6704200  42.4513510 135.9646710  15.3201190  41.8205100
 131.2624260  20.7529290  32.9891270 130.6941160  20.3047540  32.3627180
 131.9713260  21.1122070  32.4556420 139.6401880  13.6327730  47.4458040
 139.9647650  12.9017390  47.9716020 139.6758390  13.3141370  46.5439030
 126.3393440  24.6541310  46.8658000 125.9548230  24.0134980  47.4640960
 126.6505630  25.3577430  47.4352730 132.4890580  21.5017850  42.3466620
 132.8560710  21.0276420  43.0927960 132.2995640  22.3759420  42.6874960
 125.3531070  16.2461540  38.4760090 125.0677990  15.8817210  39.3138710
 125.2909930  15.5142000  37.8623230 130.2789950  20.5426490  44.6650830
 129.9747020  21.4218470  44.8901190 131.2336410  20.6026280  44.7008270
 128.8071740  24.7487480  35.2617680 128.0334000  24.2085100  35.1016400
 129.5366370  24.2294090  34.9235440 139.5659720  23.7452840  41.0544070
 140.2858840  24.2408130  40.6640180 139.3641540  23.0670730  40.4097940
 135.0269660  15.1390800  35.1973460 134.2134270  14.6403970  35.1218770
 134.8331610  15.9789050  34.7809810 134.9478520  23.8161900  46.9413070
 134.8815830  22.8957570  46.6870660 134.3183660  23.9137340  47.6557710
 137.7418050  19.5110450  33.4935620 138.6297670  19.8227680  33.3186960
 137.7123140  18.6382700  33.1016200 128.8509140  24.4167860  38.8996490
 129.3687810  23.6136120  38.8453380 128.3993160  24.3547000  39.7413320
 133.7378640  25.6834140  34.1723790 134.0794340  26.4276370  33.6767110
 132.9091350  25.9965260  34.5348620 126.3353680  21.3829230  45.8122190
 125.9768620  22.0483080  46.3995530 126.0408240  20.5512780  46.1834810
 129.5366800  21.8413470  48.6961740 129.2366940  21.9870650  47.7989560
 130.3078040  21.2818760  48.6035130 134.8795250  26.6382470  46.6916870
 134.8939790  25.7063430  46.4735780 134.1720350  26.7242230  47.3306640
 140.0132320  20.8222290  32.9615480 139.9296040  21.2536510  32.1111920
 140.7326510  21.2820640  33.3942300 141.0906460  23.2789810  46.0385450
 140.3654650  23.8718590  45.8414840 141.6181920  23.2713350  45.2398820
 141.0419570  27.6764550  35.6897610 140.3995730  27.0220170  35.9641330
 140.6550230  28.0819640  34.9138280 136.6206050  25.0049980  39.5369300
 136.9729870  24.4078110  38.8770670 135.7368380  24.6794210  39.7077550
 132.7069330  25.7647670  36.9439710 133.3940460  26.3116880  37.3247300
 131.9201750  26.3088400  36.9789320 124.8461730  21.3820490  32.4356790
 125.7156580  21.6645290  32.7192710 124.3552050  22.1956360  32.3205600
 132.0096540  22.7693700  36.5565070 132.4659320  23.5798950  36.7825260
 131.6584750  22.4516840  37.3883560 134.3129150  28.2800040  43.7857370
 134.9571370  28.4859420  44.4630790 134.6758590  27.5188440  43.3328220
 127.9108320  13.1131350  37.0287590 127.7822950  13.1049250  37.9772510
 127.0870340  13.4514440  36.6778600 135.5861230  26.2832390  42.5034820
 136.2283460  25.5825550  42.6166990 136.1110580  27.0630830  42.3231710
 139.4316950  26.5681010  32.2273960 139.2054530  25.8511450  32.8198600
 139.0413150  26.3193450  31.3895710 137.3598850  27.0827290  45.7070880
 137.6955090  27.6693980  46.3848800 136.4399190  26.9520000  45.9368670
 125.2132980  30.5947870  33.0018420 125.5730620  31.1937210  32.3475690
 125.0725320  31.1407760  33.7753450 124.9102250  14.8722470  46.4894290
 124.1960770  15.0719390  47.0946900 125.3297290  14.0962040  46.8609090
 139.0133200  24.4852950  33.8888120 138.7254900  24.9465640  34.6766000
 139.8085370  24.0250720  34.1572340 125.1974840  28.8602730  47.4760820
 125.3065960  27.9197470  47.3356210 124.5455400  29.1257480  46.8274550
 133.1887430  27.1318620  48.8758940 132.8684300  26.4127860  49.4204630
 132.5145790  27.8073690  48.9495000 131.2301600  27.9779070  33.8192090
 131.2211700  28.7108760  33.2036600 130.3099960  27.7310650  33.9119050
 126.8308240  23.1993960  34.5638850 126.2236190  23.9392860  34.5734150
 127.3057590  23.2893320  33.7377050 136.4041030  17.3644780  44.2395740
 136.7721850  16.5439990  44.5675310 135.5439230  17.4246670  44.6551390
 139.7703060  16.3201720  35.0483300 139.1416220  16.4247390  34.3341530
 139.2754980  16.5398500  35.8377180 134.2161200  28.0407310  32.4817280
 134.3173180  27.8371300  31.5519260 133.3162940  27.7865590  32.6865060
 131.7387090  18.5987670  36.4641180 131.0303240  19.0674010  36.9054790
 132.0231570  17.9409680  37.0986370 133.3643020  20.0184370  44.4633710
 133.8628270  20.4930190  45.1285560 133.5065970  19.0947890  44.6703740
 135.7702520  15.3238330  37.9036970 135.6470300  15.3424460  36.9546480
 136.7187080  15.3717270  38.0235370 132.8579310  30.5593630  37.1764950
 133.1120810  30.5215020  36.2544320 131.9091790  30.4326960  37.1693200
 129.9422110  16.9072750  33.8391890 130.7912640  17.3442900  33.7732080
 129.5753380  17.2193010  34.6663950 140.5709880  16.2352330  45.3062100
 140.0683480  16.9757730  45.6455910 141.3866540  16.6236330  44.9898890
 138.8631890  21.4785510  38.7523460 137.9222030  21.4935740  38.9271150
 139.1775960  20.6921470  39.1983760 128.8413530  23.1605110  32.3127420
 129.6076800  23.0486470  32.8752850 128.9188220  22.4643080  31.6604190
 127.5360290  20.5930180  32.9960310 127.6163880  19.6457690  33.1077710
 128.4280040  20.9237060  33.1020970 140.8657470  28.6494360  40.4277720
 140.9904890  29.4725530  40.9001530 141.7323030  28.4385090  40.0801870
 128.3375000  30.7425570  40.0994850 129.0737480  30.1941030  40.3703420
 128.7215920  31.6081580  39.9600840 125.2220480  26.8099140  35.9736360
 124.2960260  27.0520280  35.9641770 125.6876910  27.6373400  35.8521110
 127.3433280  29.9271640  49.2880430 128.1446010  30.2483690  49.7015830
 126.8285100  29.5667220  50.0100340 131.4477310  29.9155880  31.9220420
 132.2405920  30.2044710  31.4702210 130.9281660  29.4848050  31.2432900
 136.1797910  26.0351510  49.2355840 135.5736070  26.0583110  48.4951590
 135.8752020  25.3034550  49.7723090 137.6098280  29.7631800  47.8465250
 138.5620030  29.6789820  47.7965490 137.4626500  30.4273510  48.5199040
 140.5007480  29.1426010  33.3457160 140.2148990  28.7291150  32.5311340
 140.3027030  30.0713720  33.2257680 125.0631090  22.4145100  48.2316480
 125.5670110  21.8352380  48.8032710 124.3238510  22.6985330  48.7692850
 131.9654710  25.1359290  31.7862770 131.8605350  24.5211640  32.5124150
 131.7978930  24.6125180  31.0025780 132.1169030  23.8216090  47.7652000
 131.3514700  24.3901090  47.6806670 132.2984990  23.5292300  46.8720230
 135.2057440  24.1979320  32.3904760 134.6567540  24.6448620  33.0347500
 135.8276700  23.6928570  32.9142430 139.2592380  25.5521420  48.3227020
 140.0001850  25.8897180  47.8194480 138.4965060  25.7213480  47.7696790
 127.0954170  20.5574690  49.1266550 127.1359510  20.2588560  50.0351780
 127.9499670  20.9582300  48.9674070 130.8732560  23.1570240  34.2870060
 131.2948980  22.9910110  35.1301450 130.9983400  22.3470470  33.7925200
 129.0359980  19.1366790  47.0941040 128.5056440  18.6457740  46.4664380
 129.7048050  19.5650990  46.5598970 133.3860200  22.1807850  31.5347160
 133.9065860  21.4656870  31.1688310 134.0328600  22.8193720  31.8347670
 137.9338040  23.6036250  46.8582230 138.3479060  23.7581330  47.7072650
 136.9989040  23.7291470  47.0208010 138.4060210  20.9432410  48.8621380
 138.9880980  20.1884730  48.7741860 138.5821980  21.4739850  48.0852860
 129.5232280  16.1029160  47.1738330 129.4289150  15.4849910  46.4489200
 128.9429670  16.8295450  46.9468240 132.2893720  14.6602400  44.2065720
 131.8411020  14.6826660  43.3611270 131.6558920  14.2621420  44.8036020
 132.6953270  23.5556730  44.8278160 133.1141380  24.3989460  44.6554400
 131.7761900  23.6928770  44.5984940 135.0317170  21.2872910  46.2116000
 135.1513380  20.6914050  46.9510840 135.8911170  21.3242600  45.7917300
 137.3705070  21.8410100  44.7878510 136.8440290  22.3652720  44.1843650
 137.7136410  22.4737490  45.4188240 129.7691460  19.2303470  31.2328220
 129.5680520  18.3670830  31.5941560 129.5983510  19.1436830  30.2949820
 130.5460690  29.8609740  45.9435890 130.0081780  30.5855800  45.6244590
 130.7994650  29.3840080  45.1533230 131.7985940  17.8294260  47.4691820
 132.3885630  17.5210110  48.1569640 130.9806180  17.3574010  47.6251720
 136.6179370  17.4460070  47.7024840 135.9294890  16.7841610  47.6374830
 137.3385390  16.9998340  48.1473300 137.2479770  14.0411700  33.7615100
 137.5282060  13.1979600  34.1174520 136.4745500  14.2734810  34.2753850
 128.5674260  16.3304090  31.2206100 128.8700160  16.3371520  30.3125250
 129.3068850  15.9801950  31.7173760 133.4022900  31.0960950  46.2022540
 133.3281600  31.9996090  46.5094910 132.5001740  30.7772850  46.1744610
 131.7859190  15.2738710  32.2062300 131.4381190  14.5962700  31.6264750
 131.9871960  14.8128220  33.0205690 133.9508230  30.2619460  33.8248900
 134.8459020  30.6004430  33.8467660 133.9825860  29.5398870  33.1973180
 127.5904390  25.6346510  32.0535900 128.0279260  26.1776180  32.7093480
 128.0752120  24.8093460  32.0632240 124.8050190  28.4235540  39.5056160
 125.1353200  27.5556600  39.2734800 125.2341190  28.6294060  40.3361120
 129.4012110  26.7544550  37.1658130 129.1007650  26.6309520  38.0662040
 129.2949600  25.8953140  36.7573860 125.2940400  29.2906130  42.2437790
 124.8571390  29.4706930  43.0761940 125.8618080  30.0480750  42.1019510
 140.9302580  28.7923130  46.5315100 140.3304570  28.8515690  45.7879020
 141.0596480  27.8528110  46.6611950 142.1704030  26.5340950  31.8684810
 141.3396990  26.6017600  32.3392040 142.3475860  27.4245070  31.5651670
 141.6260490  23.2788430  34.3719010 142.3879400  23.8485080  34.4778700
 141.6414860  22.7115630  35.1427320 125.1264830  21.8026360  38.6026670
 124.4713670  21.5338000  37.9586370 125.9642780  21.6930840  38.1528650
 142.6320460  24.1338530  39.2160940 143.0029290  23.3505850  38.8096910
 143.2722390  24.8227630  39.0378240 139.6154220  25.5175110  44.6291260
 138.8014060  25.9472270  44.8917050 140.0228420  26.1293520  44.0160310
 141.6779660  23.5722800  31.5291530 141.9528500  24.4801680  31.4010750
 141.4890400  23.5085330  32.4653520 138.0755270  16.5967650  32.8245160
 138.4940150  16.4098630  31.9841820 137.7691330  15.7446700  33.1348090
 141.5745000  21.5091790  36.5220960 141.1988600  20.7419720  36.0902250
 140.8448120  21.8914490  37.0095890 126.1640760  22.1878930  43.1430010
 126.5313800  22.1006330  44.0226030 125.5951580  21.4245480  43.0436870
 140.9644620  20.6563310  46.1560480 140.7330710  20.4276060  45.2558430
 141.2249170  21.5762860  46.1105370 125.7156760  19.0988020  47.0488430
 124.8212810  19.0654780  47.3882140 126.2554310  19.2974810  47.8139680
 139.4032690  15.8819740  48.9340180 140.2802870  15.8903140  49.3174180
 139.4153530  15.1450580  48.3232530 124.3402910  19.0125290  34.5452000
 123.4366990  19.2755490  34.3703660 124.8243530  19.2836460  33.7651960
 140.8495960  19.7349280  39.8228200 141.3733440  19.2411930  39.1918370
 141.4355380  19.8699640  40.5675770 141.0285680  19.8189150  43.3447750
 140.0788390  19.7852690  43.4592740 141.2098690  20.7289260  43.1097520
 126.8830120  18.0690830  32.4546380 127.5921820  17.6474050  31.9693660
 126.1670060  18.1366060  31.8229730 126.5304280  14.1230160  31.4949030
 127.2532410  14.6639100  31.8130250 126.8028800  13.8493580  30.6190570
 140.3395930  18.9922630  35.7620610 140.8355050  18.7593500  36.5469490
 140.1412000  18.1534470  35.3458250 126.2196470  13.3736350  41.3971650
 126.8672660  12.8233730  40.9566810 126.6398310  13.6279500  42.2187460
 141.7683090  17.6283580  38.2958290 141.6582370  17.4739620  39.2340560
 142.5290680  17.1004520  38.0533700 140.1148810  13.5677710  44.7541290
 140.7521030  14.1811850  45.1200480 140.2623700  13.6038370  43.8090520
 142.6573360  15.4591500  31.5364430 143.5822670  15.3272680  31.3282720
 142.6349150  15.5384320  32.4900880 142.7311850  16.2302160  34.1621140
 141.9363350  16.1647280  34.6914050 142.9355130  17.1652800  34.1506490
 139.6730270  30.2693710  38.1559530 140.2689340  29.9478280  37.4793950
 139.9308420  29.7965530  38.9472800 125.9728470  13.5292020  44.1396970
 125.6243290  13.9855840  44.9055150 125.6416170  12.6349150  44.2219400
 127.5792840  26.7011620  48.3050160 127.5362470  26.3304530  49.1864620
 127.7103850  27.6389190  48.4451980 131.2798870  28.2571210  43.9059880
 131.0390230  28.5245770  43.0190400 132.2201510  28.4276940  43.9610740
 133.4853290  14.7203900  47.6616390 133.4242180  15.3125730  48.4111800
 134.4253670  14.6129860  47.5166650 136.1227850  14.3773960  47.3008680
 136.7368260  14.6953250  46.6389760 136.6677410  13.8922550  47.9204540
 142.5403030  30.2765590  44.7070520 142.0461310  30.6734460  43.9897650
 141.9316320  29.6514800  45.1007800 126.6449110  13.0568220  47.4147740
 127.1932100  12.8756270  46.6513850 126.7104420  12.2662330  47.9504050
 127.4180870  29.6473870  45.4247940 126.8241190  29.5158570  46.1637980
 127.4104710  28.8112010  44.9590040 136.8635890  12.9406100  43.6277970
 135.9895730  13.2741210  43.4250900 136.7546640  12.4679280  44.4529840
 137.7707870  15.1476970  45.0119690 137.4421230  14.3328730  44.6321420
 138.7190170  15.1046780  44.8885380 140.2242480  30.9189010  41.9857260
 139.7645450  31.6704820  41.6115280 139.5954940  30.1995480  41.9272060
 127.0493100  27.0132250  44.3755980 126.3227160  26.3937540  44.3081930
 127.1102250  27.4072860  43.5054060 130.6538200  29.2277250  41.1605390
 131.1703220  28.6164610  40.6353650 131.3035580  29.7306030  41.6516400
 133.3933700  30.1185740  41.9874370 133.6811510  29.8640040  41.1107380
 133.9056920  29.5663100  42.5779940 134.6110710  13.8575940  42.5670880
 133.8282500  14.3321440  42.8467640 134.3173640  12.9530770  42.4584060
 139.1631780  14.5599040  40.6119970 139.6039870  14.5044140  39.7641570
 138.8939370  15.4757050  40.6830150 141.0270350  14.1914280  38.6228790
 140.9658750  13.2475500  38.4759810 141.8062380  14.2994370  39.1682250
 125.3323100  30.3306640  37.5852740 125.1645140  29.6977320  38.2834630
 124.4657610  30.5366040  37.2346930 125.9551120  14.1623420  35.0884600
 126.7130480  14.2752300  34.5148630 125.4928290  14.9992620  35.0428030
 132.4964930  16.2762690  38.0786910 131.6839440  15.9019580  37.7382790
 133.0006570  15.5207770  38.3808100 136.9989910  12.9405140  39.3169980
 137.6019280  13.5125350  39.7918500 136.2582900  13.5044580  39.0943880
 140.1424510  13.3426700  34.5910260 140.3375140  14.2410150  34.8577690
 139.3554380  13.1113780  35.0843210 126.9385800  29.0239870  35.0302880
 126.4133420  29.4047900  34.3264840 126.8630380  29.6490640  35.7512590
 128.3276270  14.6887470  33.6286570 128.8569030  13.9017270  33.4994520
 128.9604590  15.3678660  33.8622100 130.5214110  14.4262610  36.6831960
 129.8916850  13.7249920  36.8502090 129.9819250  15.1866740  36.4665120
 133.4606060  31.0401840  49.3542570 134.3873370  30.8046110  49.3978530
 133.4456490  31.8673840  48.8728600 141.6951120  30.5827410  36.3516820
 141.8703310  29.8965150  35.7077740 140.9972690  31.1074460  35.9593490
 130.6469670  13.7046590  49.1184450 130.3653940  14.2080190  48.3545270
 131.0289370  12.9068340  48.7526580 129.5378770  30.9722250  33.9052130
 130.2697590  30.6881530  33.3576020 129.7972440  30.7335530  34.7951510
 128.6993560  27.0886980  33.9098460 128.0702440  27.5572080  34.4584290
 128.8141390  26.2436200  34.3444650 137.2485130  13.1200170  49.6964920
 137.1350580  13.4394780  50.5916440 138.0654870  13.5212680  49.4002200
 140.0283620  30.2671700  49.1783610 140.8208940  29.7720930  48.9709570
 140.3216770  30.9461840  49.7859220 136.1543280  21.1392640  20.0599660
 136.0737330  20.2247250  19.7891370 135.7407700  21.6359710  19.3539370
 134.2861320  22.9171660  21.9408930 133.5103420  22.4372100  22.2307500
 134.9374250  22.2377310  21.7665090 128.3027150  23.2291470  22.8184690
 127.4712030  22.9740180  23.2181200 128.9108130  23.3002240  23.5542610
 138.3068750  27.3231850  20.7208060 137.8450280  26.5519090  21.0495230
 139.1194300  27.3497920  21.2260510 128.2828410  27.2631560  23.0142710
 128.5856450  26.3729300  22.8352930 129.0272000  27.8201780  22.7864960
 126.7119100  18.1893360  16.6027080 125.8235800  18.5309330  16.5006960
 126.9960290  17.9893680  15.7107910 124.6752110  20.7899010  22.4866780
 125.2468220  20.0221210  22.4870420 124.6753650  21.0887770  21.5773390
 134.5332060  29.6089860  20.3412050 133.9143500  30.0647360  19.7706490
 135.3883840  29.7641320  19.9401750 133.7270310  25.5928850  21.9479090
 133.6578590  24.6518790  21.7868220 134.4890170  25.6830260  22.5201660
 125.9176980  16.1983370  24.2735710 125.7379820  15.3009120  24.5538470
 125.5157060  16.7455240  24.9482660 134.7575480  18.3999230  22.1748020
 135.1340300  17.5271110  22.0621690 134.6594990  18.7357930  21.2838460
 128.8880490  16.7724860  17.6365460 128.9947240  17.6728590  17.9434220
 127.9772850  16.7242830  17.3460110 138.5399600  15.8949670  19.1076360
 139.3609220  15.4046240  19.1501840 138.5733680  16.4847330  19.8608200
 126.5363650  18.6943870  22.8818050 127.2173760  18.9582240  23.5005450
 126.2211700  17.8544740  23.2156060 130.7288220  19.7411230  21.9690640
 131.2366440  20.2392200  22.6095660 131.2601460  18.9646430  21.7930000
 142.8299150  17.9116420  25.6719990 142.1251320  18.2998130  25.1535100
 143.0957070  18.6066710  26.2740920 129.0124320  14.3809790  26.2354060
 129.0142760  14.8982180  25.4299960 128.1828630  13.9039970  26.2123990
 135.3995410  24.4929100  17.7343960 134.7812680  24.9578550  17.1706680
 135.9118660  25.1856580  18.1513470 130.2627170  24.0204970  24.4127560
 129.9296550  24.6473890  25.0548630 130.4393850  24.5466850  23.6329230
 138.7761080  17.8350050  21.8803900 138.0716650  18.1234940  22.4607010
 139.1373240  18.6450160  21.5203460 128.6939650  16.0919750  24.2424510
 129.0356460  16.9361800  23.9478380 127.7555460  16.2403490  24.3589850
 129.4746270  25.9885770  26.2276740 130.0920270  26.6636850  25.9461190
 128.6139390  26.3973750  26.1364240 124.7678610  25.1785630  15.1083590
 124.3906590  25.6672730  14.3768490 125.0251680  25.8510910  15.7390120
 140.3923860  27.4525180  24.1431380 139.7087380  28.1224290  24.1348050
 140.9318150  27.6505830  23.3776240 141.8448000  17.2804840  22.2713110
 140.8972910  17.3143820  22.4028540 142.1697990  18.0943790  22.6562470
 132.3767540  13.5802020  20.5669100 132.6842520  13.0248910  19.8504600
 131.4468240  13.7146480  20.3842090 137.9282600  29.2969310  22.8576560
 137.9409760  28.8931600  21.9898820 137.3757820  30.0716600  22.7537990
 139.2228020  26.0185530  17.9466730 139.1124350  25.0759860  18.0716150
 139.2196270  26.3801170  18.8329490 137.3268040  24.1999150  24.1859170
 137.7436830  23.9859260  23.3512630 138.0507860  24.4571940  24.7567790
 134.7648300  21.6450850  17.3029220 133.8377580  21.5788230  17.5317690
 134.9173120  22.5830980  17.1884460 134.7517380  17.9167850  14.2996380
 133.8121050  18.0781810  14.3848840 135.0700640  18.6353530  13.7532370
 141.2730140  22.5986370  24.2775410 140.4448770  22.6679460  23.8025540
 141.8680620  23.1840680  23.8091240 138.7945590  23.2071150  17.8064470
 138.1758010  22.8690700  17.1590770 138.7770040  22.5630910  18.5143660
 138.2372150  19.3855690  25.2230280 137.8243330  20.2109400  25.4770270
 137.5048100  18.8000730  25.0306640 130.3704940  22.1715590  20.0848950
 129.9661940  21.4592840  19.5894850 130.4568060  21.8268830  20.9736990
 130.8386640  25.8583150  22.2488160 130.5414930  25.2528620  21.5695940
 131.7886460  25.8960460  22.1377520 129.0833560  18.9458800  23.8647990
 129.6348150  19.0554140  23.0901240 129.5977070  19.3196400  24.5803220
 138.9272250  29.4315020  25.9111260 138.4502810  30.2387210  25.7183870
 138.2434040  28.7793350  26.0637470 129.9305070  25.5964840  28.8995960
 129.0333600  25.8204810  29.1469360 129.9557940  25.7199780  27.9507360
 136.9710290  22.4457960  14.8137220 137.4103570  21.6080390  14.6675040
 137.6838710  23.0787360  14.9001360 128.7576290  22.4678160  27.4753330
 128.6184060  23.3400960  27.8440730 127.8757650  22.1250970  27.3301270
 135.0805670  27.3854030  18.7818460 135.5201580  28.1278360  18.3673850
 135.0192560  27.6280600  19.7057420 130.5556640  28.4099860  29.6838480
 130.5272070  28.8142810  28.8166910 130.3921610  27.4810220  29.5210080
 140.5527430  13.7000770  13.1278260 140.2400090  13.7927600  14.0277330
 141.3139900  14.2781800  13.0775690 127.0709570  21.0660570  17.5855600
 126.9507170  21.7922660  16.9736870 126.7610460  20.2963480  17.1083510
 142.5071460  29.1926960  30.9802650 142.9831180  29.6709850  31.6591730
 143.1278620  29.1244450  30.2548150 124.7094940  24.2375710  23.3924240
 124.7875360  24.3724480  22.4479960 125.3236620  23.5291600  23.5852360
 125.9542570  25.9375900  19.8030420 125.5470650  26.0790490  18.9484020
 126.8455580  25.6536060  19.6001630 141.9104710  26.3839810  28.1402660
 142.0367770  26.1451690  27.2219840 141.9526090  25.5524350  28.6124740
 135.7721450  30.0867810  26.7097470 136.2866120  29.9975820  27.5119900
 134.9290530  30.4327510  27.0025380 137.7475850  30.3723150  16.1381470
 137.5876990  30.0826090  17.0363300 137.5822560  29.5963280  15.6026700
 130.2264230  30.1521680  17.9153090 130.0506710  29.2357220  17.7020890
 129.3719970  30.5108970  18.1550890 137.4501980  27.8810710  14.6979470
 136.7567140  27.8788000  14.0381750 138.1924840  27.4570030  14.2673640
 137.0151910  29.5073420  18.7727960 137.4708860  28.7262800  19.0866580
 137.3544430  30.2180240  19.3169140 141.7628720  18.4372270  29.1052400
 141.1472990  18.9451940  28.5767860 141.4425140  17.5370600  29.0478340
 124.7654460  25.2789880  25.9318700 124.9285500  24.8095240  25.1138070
 125.2306910  24.7713440  26.5967540 129.5373230  14.4095640  20.9679270
 129.0941380  15.1905180  20.6363790 130.0958220  14.7325530  21.6750210
 133.8243040  17.2764160  26.5714590 133.3622410  17.4847180  27.3834530
 133.4221150  16.4623510  26.2685260 138.8247550  18.4973110  27.7011250
 137.9741140  18.1978860  28.0220320 138.6649340  18.7415120  26.7895070
 135.9197260  19.9974860  29.8010040 136.2450670  19.1638610  29.4612270
 136.7077590  20.5203380  29.9488370 132.6532050  14.0306340  15.8485100
 132.0286230  14.0266210  16.5738410 132.5662170  13.1637300  15.4521070
 131.5749130  14.9542970  22.8268870 131.8721460  15.8605800  22.7460890
 132.1234690  14.4661750  22.2128440 129.3287450  19.5329210  18.6960520
 129.1028370  19.3166380  19.6007140 128.5479980  19.9657670  18.3506490
 136.5585210  19.5392580  17.2951170 135.9594100  20.2628380  17.1114790
 137.1064820  19.4769360  16.5127620 131.7686660  20.4314790  29.3620790
 131.6730260  19.4909520  29.2121190 132.6118640  20.6529860  28.9668860
 135.1650080  18.1756120  19.3254450 135.5579650  18.4928320  18.5123140
 135.5266930  17.2968000  19.4398970 126.8997200  16.8428460  27.5154570
 126.5060590  17.6903670  27.7227350 126.2115600  16.2054830  27.7063210
 133.4742250  16.9263430  30.5851310 132.7840570  16.7335630  31.2197400
 134.2174550  17.2098070  31.1175610 124.2014250  14.7656920  21.5484650
 123.9127300  15.3359780  22.2609630 124.9460010  14.2861370  21.9115880
 124.3884480  18.7077040  12.7587370 124.3059150  19.6507800  12.9002360
 124.0367540  18.5651950  11.8799720 135.7505220  20.7661870  23.4205230
 135.0186340  21.2748680  23.7695330 135.3529560  19.9491850  23.1194010
 132.1882610  17.4416070  21.8257720 132.1918670  17.0006020  20.9762260
 133.0833730  17.7633400  21.9329540 128.0384990  17.3242560  20.7851930
 127.6985040  17.8017790  21.5418980 127.2762310  16.8707680  20.4253030
 132.2502760  18.4428150  14.8164480 132.3715580  18.4014630  15.7650300
 131.8651270  19.3052300  14.6611210 136.2131130  16.2195550  22.8328170
 136.2303870  16.6704200  23.6770020 135.9646710  15.3201190  23.0461610
 131.2624260  20.7529290  14.2147780 130.6941160  20.3047540  13.5883690
 131.9713260  21.1122070  13.6812930 139.6401880  13.6327730  28.6714550
 139.9647650  12.9017390  29.1972530 139.6758390  13.3141370  27.7695540
 126.3393440  24.6541310  28.0914510 125.9548230  24.0134980  28.6897470
 126.6505630  25.3577430  28.6609240 132.4890580  21.5017850  23.5723130
 132.8560710  21.0276420  24.3184470 132.2995640  22.3759420  23.9131470
 125.3531070  16.2461540  19.7016600 125.0677990  15.8817210  20.5395220
 125.2909930  15.5142000  19.0879740 130.2789950  20.5426490  25.8907340
 129.9747020  21.4218470  26.1157700 131.2336410  20.6026280  25.9264780
 128.8071740  24.7487480  16.4874190 128.0334000  24.2085100  16.3272910
 129.5366370  24.2294090  16.1491950 139.5659720  23.7452840  22.2800580
 140.2858840  24.2408130  21.8896690 139.3641540  23.0670730  21.6354450
 135.0269660  15.1390800  16.4229970 134.2134270  14.6403970  16.3475280
 134.8331610  15.9789050  16.0066320 134.9478520  23.8161900  28.1669580
 134.8815830  22.8957570  27.9127170 134.3183660  23.9137340  28.8814220
 137.7418050  19.5110450  14.7192130 138.6297670  19.8227680  14.5443470
 137.7123140  18.6382700  14.3272710 128.8509140  24.4167860  20.1253000
 129.3687810  23.6136120  20.0709890 128.3993160  24.3547000  20.9669830
 133.7378640  25.6834140  15.3980300 134.0794340  26.4276370  14.9023620
 132.9091350  25.9965260  15.7605130 126.3353680  21.3829230  27.0378700
 125.9768620  22.0483080  27.6252040 126.0408240  20.5512780  27.4091320
 129.5366800  21.8413470  29.9218250 129.2366940  21.9870650  29.0246070
 130.3078040  21.2818760  29.8291640 134.8795250  26.6382470  27.9173380
 134.8939790  25.7063430  27.6992290 134.1720350  26.7242230  28.5563150
 140.0132320  20.8222290  14.1871990 139.9296040  21.2536510  13.3368430
 140.7326510  21.2820640  14.6198810 141.0906460  23.2789810  27.2641960
 140.3654650  23.8718590  27.0671350 141.6181920  23.2713350  26.4655330
 141.0419570  27.6764550  16.9154120 140.3995730  27.0220170  17.1897840
 140.6550230  28.0819640  16.1394790 136.6206050  25.0049980  20.7625810
 136.9729870  24.4078110  20.1027180 135.7368380  24.6794210  20.9334060
 132.7069330  25.7647670  18.1696220 133.3940460  26.3116880  18.5503810
 131.9201750  26.3088400  18.2045830 124.8461730  21.3820490  13.6613300
 125.7156580  21.6645290  13.9449220 124.3552050  22.1956360  13.5462110
 132.0096540  22.7693700  17.7821580 132.4659320  23.5798950  18.0081770
 131.6584750  22.4516840  18.6140070 134.3129150  28.2800040  25.0113880
 134.9571370  28.4859420  25.6887300 134.6758590  27.5188440  24.5584730
 127.9108320  13.1131350  18.2544100 127.7822950  13.1049250  19.2029020
 127.0870340  13.4514440  17.9035110 135.5861230  26.2832390  23.7291330
 136.2283460  25.5825550  23.8423500 136.1110580  27.0630830  23.5488220
 139.4316950  26.5681010  13.4530470 139.2054530  25.8511450  14.0455110
 139.0413150  26.3193450  12.6152220 137.3598850  27.0827290  26.9327390
 137.6955090  27.6693980  27.6105310 136.4399190  26.9520000  27.1625180
 125.2132980  30.5947870  14.2274930 125.5730620  31.1937210  13.5732200
 125.0725320  31.1407760  15.0009960 124.9102250  14.8722470  27.7150800
 124.1960770  15.0719390  28.3203410 125.3297290  14.0962040  28.0865600
 139.0133200  24.4852950  15.1144630 138.7254900  24.9465640  15.9022510
 139.8085370  24.0250720  15.3828850 125.1974840  28.8602730  28.7017330
 125.3065960  27.9197470  28.5612720 124.5455400  29.1257480  28.0531060
 133.1887430  27.1318620  30.1015450 132.8684300  26.4127860  30.6461140
 132.5145790  27.8073690  30.1751510 131.2301600  27.9779070  15.0448600
 131.2211700  28.7108760  14.4293110 130.3099960  27.7310650  15.1375560
 126.8308240  23.1993960  15.7895360 126.2236190  23.9392860  15.7990660
 127.3057590  23.2893320  14.9633560 136.4041030  17.3644780  25.4652250
 136.7721850  16.5439990  25.7931820 135.5439230  17.4246670  25.8807900
 139.7703060  16.3201720  16.2739810 139.1416220  16.4247390  15.5598040
 139.2754980  16.5398500  17.0633690 134.2161200  28.0407310  13.7073790
 134.3173180  27.8371300  12.7775770 133.3162940  27.7865590  13.9121570
 131.7387090  18.5987670  17.6897690 131.0303240  19.0674010  18.1311300
 132.0231570  17.9409680  18.3242880 133.3643020  20.0184370  25.6890220
 133.8628270  20.4930190  26.3542070 133.5065970  19.0947890  25.8960250
 135.7702520  15.3238330  19.1293480 135.6470300  15.3424460  18.1802990
 136.7187080  15.3717270  19.2491880 132.8579310  30.5593630  18.4021460
 133.1120810  30.5215020  17.4800830 131.9091790  30.4326960  18.3949710
 129.9422110  16.9072750  15.0648400 130.7912640  17.3442900  14.9988590
 129.5753380  17.2193010  15.8920460 140.5709880  16.2352330  26.5318610
 140.0683480  16.9757730  26.8712420 141.3866540  16.6236330  26.2155400
 138.8631890  21.4785510  19.9779970 137.9222030  21.4935740  20.1527660
 139.1775960  20.6921470  20.4240270 128.8413530  23.1605110  13.5383930
 129.6076800  23.0486470  14.1009360 128.9188220  22.4643080  12.8860700
 127.5360290  20.5930180  14.2216820 127.6163880  19.6457690  14.3334220
 128.4280040  20.9237060  14.3277480 140.8657470  28.6494360  21.6534230
 140.9904890  29.4725530  22.1258040 141.7323030  28.4385090  21.3058380
 128.3375000  30.7425570  21.3251360 129.0737480  30.1941030  21.5959930
 128.7215920  31.6081580  21.1857350 125.2220480  26.8099140  17.1992870
 124.2960260  27.0520280  17.1898280 125.6876910  27.6373400  17.0777620
 127.3433280  29.9271640  30.5136940 128.1446010  30.2483690  30.9272340
 126.8285100  29.5667220  31.2356850 131.4477310  29.9155880  13.1476930
 132.2405920  30.2044710  12.6958720 130.9281660  29.4848050  12.4689410
 136.1797910  26.0351510  30.4612350 135.5736070  26.0583110  29.7208100
 135.8752020  25.3034550  30.9979600 137.6098280  29.7631800  29.0721760
 138.5620030  29.6789820  29.0222000 137.4626500  30.4273510  29.7455550
 140.5007480  29.1426010  14.5713670 140.2148990  28.7291150  13.7567850
 140.3027030  30.0713720  14.4514190 125.0631090  22.4145100  29.4572990
 125.5670110  21.8352380  30.0289220 124.3238510  22.6985330  29.9949360
 131.9654710  25.1359290  13.0119280 131.8605350  24.5211640  13.7380660
 131.7978930  24.6125180  12.2282290 132.1169030  23.8216090  28.9908510
 131.3514700  24.3901090  28.9063180 132.2984990  23.5292300  28.0976740
 135.2057440  24.1979320  13.6161270 134.6567540  24.6448620  14.2604010
 135.8276700  23.6928570  14.1398940 139.2592380  25.5521420  29.5483530
 140.0001850  25.8897180  29.0450990 138.4965060  25.7213480  28.9953300
 127.0954170  20.5574690  30.3523060 127.1359510  20.2588560  31.2608290
 127.9499670  20.9582300  30.1930580 130.8732560  23.1570240  15.5126570
 131.2948980  22.9910110  16.3557960 130.9983400  22.3470470  15.0181710
 129.0359980  19.1366790  28.3197550 128.5056440  18.6457740  27.6920890
 129.7048050  19.5650990  27.7855480 133.3860200  22.1807850  12.7603670
 133.9065860  21.4656870  12.3944820 134.0328600  22.8193720  13.0604180
 137.9338040  23.6036250  28.0838740 138.3479060  23.7581330  28.9329160
 136.9989040  23.7291470  28.2464520 138.4060210  20.9432410  30.0877890
 138.9880980  20.1884730  29.9998370 138.5821980  21.4739850  29.3109370
 129.5232280  16.1029160  28.3994840 129.4289150  15.4849910  27.6745710
 128.9429670  16.8295450  28.1724750 132.2893720  14.6602400  25.4322230
 131.8411020  14.6826660  24.5867780 131.6558920  14.2621420  26.0292530
 132.6953270  23.5556730  26.0534670 133.1141380  24.3989460  25.8810910
 131.7761900  23.6928770  25.8241450 135.0317170  21.2872910  27.4372510
 135.1513380  20.6914050  28.1767350 135.8911170  21.3242600  27.0173810
 137.3705070  21.8410100  26.0135020 136.8440290  22.3652720  25.4100160
 137.7136410  22.4737490  26.6444750 129.7691460  19.2303470  12.4584730
 129.5680520  18.3670830  12.8198070 129.5983510  19.1436830  11.5206330
 130.5460690  29.8609740  27.1692400 130.0081780  30.5855800  26.8501100
 130.7994650  29.3840080  26.3789740 131.7985940  17.8294260  28.6948330
 132.3885630  17.5210110  29.3826150 130.9806180  17.3574010  28.8508230
 136.6179370  17.4460070  28.9281350 135.9294890  16.7841610  28.8631340
 137.3385390  16.9998340  29.3729810 137.2479770  14.0411700  14.9871610
 137.5282060  13.1979600  15.3431030 136.4745500  14.2734810  15.5010360
 128.5674260  16.3304090  12.4462610 128.8700160  16.3371520  11.5381760
 129.3068850  15.9801950  12.9430270 133.4022900  31.0960950  27.4279050
 133.3281600  31.9996090  27.7351420 132.5001740  30.7772850  27.4001120
 131.7859190  15.2738710  13.4318810 131.4381190  14.5962700  12.8521260
 131.9871960  14.8128220  14.2462200 133.9508230  30.2619460  15.0505410
 134.8459020  30.6004430  15.0724170 133.9825860  29.5398870  14.4229690
 127.5904390  25.6346510  13.2792410 128.0279260  26.1776180  13.9349990
 128.0752120  24.8093460  13.2888750 124.8050190  28.4235540  20.7312670
 125.1353200  27.5556600  20.4991310 125.2341190  28.6294060  21.5617630
 129.4012110  26.7544550  18.3914640 129.1007650  26.6309520  19.2918550
 129.2949600  25.8953140  17.9830370 125.2940400  29.2906130  23.4694300
 124.8571390  29.4706930  24.3018450 125.8618080  30.0480750  23.3276020
 140.9302580  28.7923130  27.7571610 140.3304570  28.8515690  27.0135530
 141.0596480  27.8528110  27.8868460 142.1704030  26.5340950  13.0941320
 141.3396990  26.6017600  13.5648550 142.3475860  27.4245070  12.7908180
 141.6260490  23.2788430  15.5975520 142.3879400  23.8485080  15.7035210
 141.6414860  22.7115630  16.3683830 125.1264830  21.8026360  19.8283180
 124.4713670  21.5338000  19.1842880 125.9642780  21.6930840  19.3785160
 142.6320460  24.1338530  20.4417450 143.0029290  23.3505850  20.0353420
 143.2722390  24.8227630  20.2634750 139.6154220  25.5175110  25.8547770
 138.8014060  25.9472270  26.1173560 140.0228420  26.1293520  25.2416820
 141.6779660  23.5722800  12.7548040 141.9528500  24.4801680  12.6267260
 141.4890400  23.5085330  13.6910030 138.0755270  16.5967650  14.0501670
 138.4940150  16.4098630  13.2098330 137.7691330  15.7446700  14.3604600
 141.5745000  21.5091790  17.7477470 141.1988600  20.7419720  17.3158760
 140.8448120  21.8914490  18.2352400 126.1640760  22.1878930  24.3686520
 126.5313800  22.1006330  25.2482540 125.5951580  21.4245480  24.2693380
 140.9644620  20.6563310  27.3816990 140.7330710  20.4276060  26.4814940
 141.2249170  21.5762860  27.3361880 125.7156760  19.0988020  28.2744940
 124.8212810  19.0654780  28.6138650 126.2554310  19.2974810  29.0396190
 139.4032690  15.8819740  30.1596690 140.2802870  15.8903140  30.5430690
 139.4153530  15.1450580  29.5489040 124.3402910  19.0125290  15.7708510
 123.4366990  19.2755490  15.5960170 124.8243530  19.2836460  14.9908470
 140.8495960  19.7349280  21.0484710 141.3733440  19.2411930  20.4174880
 141.4355380  19.8699640  21.7932280 141.0285680  19.8189150  24.5704260
 140.0788390  19.7852690  24.6849250 141.2098690  20.7289260  24.3354030
 126.8830120  18.0690830  13.6802890 127.5921820  17.6474050  13.1950170
 126.1670060  18.1366060  13.0486240 126.5304280  14.1230160  12.7205540
 127.2532410  14.6639100  13.0386760 126.8028800  13.8493580  11.8447080
 140.3395930  18.9922630  16.9877120 140.8355050  18.7593500  17.7726000
 140.1412000  18.1534470  16.5714760 126.2196470  13.3736350  22.6228160
 126.8672660  12.8233730  22.1823320 126.6398310  13.6279500  23.4443970
 141.7683090  17.6283580  19.5214800 141.6582370  17.4739620  20.4597070
 142.5290680  17.1004520  19.2790210 140.1148810  13.5677710  25.9797800
 140.7521030  14.1811850  26.3456990 140.2623700  13.6038370  25.0347030
 142.6573360  15.4591500  12.7620940 143.5822670  15.3272680  12.5539230
 142.6349150  15.5384320  13.7157390 142.7311850  16.2302160  15.3877650
 141.9363350  16.1647280  15.9170560 142.9355130  17.1652800  15.3763000
 139.6730270  30.2693710  19.3816040 140.2689340  29.9478280  18.7050460
 139.9308420  29.7965530  20.1729310 125.9728470  13.5292020  25.3653480
 125.6243290  13.9855840  26.1311660 125.6416170  12.6349150  25.4475910
 127.5792840  26.7011620  29.5306670 127.5362470  26.3304530  30.4121130
 127.7103850  27.6389190  29.6708490 131.2798870  28.2571210  25.1316390
 131.0390230  28.5245770  24.2446910 132.2201510  28.4276940  25.1867250
 133.4853290  14.7203900  28.8872900 133.4242180  15.3125730  29.6368310
 134.4253670  14.6129860  28.7423160 136.1227850  14.3773960  28.5265190
 136.7368260  14.6953250  27.8646270 136.6677410  13.8922550  29.1461050
 142.5403030  30.2765590  25.9327030 142.0461310  30.6734460  25.2154160
 141.9316320  29.6514800  26.3264310 126.6449110  13.0568220  28.6404250
 127.1932100  12.8756270  27.8770360 126.7104420  12.2662330  29.1760560
 127.4180870  29.6473870  26.6504450 126.8241190  29.5158570  27.3894490
 127.4104710  28.8112010  26.1846550 136.8635890  12.9406100  24.8534480
 135.9895730  13.2741210  24.6507410 136.7546640  12.4679280  25.6786350
 137.7707870  15.1476970  26.2376200 137.4421230  14.3328730  25.8577930
 138.7190170  15.1046780  26.1141890 140.2242480  30.9189010  23.2113770
 139.7645450  31.6704820  22.8371790 139.5954940  30.1995480  23.1528570
 127.0493100  27.0132250  25.6012490 126.3227160  26.3937540  25.5338440
 127.1102250  27.4072860  24.7310570 130.6538200  29.2277250  22.3861900
 131.1703220  28.6164610  21.8610160 131.3035580  29.7306030  22.8772910
 133.3933700  30.1185740  23.2130880 133.6811510  29.8640040  22.3363890
 133.9056920  29.5663100  23.8036450 134.6110710  13.8575940  23.7927390
 133.8282500  14.3321440  24.0724150 134.3173640  12.9530770  23.6840570
 139.1631780  14.5599040  21.8376480 139.6039870  14.5044140  20.9898080
 138.8939370  15.4757050  21.9086660 141.0270350  14.1914280  19.8485300
 140.9658750  13.2475500  19.7016320 141.8062380  14.2994370  20.3938760
 125.3323100  30.3306640  18.8109250 125.1645140  29.6977320  19.5091140
 124.4657610  30.5366040  18.4603440 125.9551120  14.1623420  16.3141110
 126.7130480  14.2752300  15.7405140 125.4928290  14.9992620  16.2684540
 132.4964930  16.2762690  19.3043420 131.6839440  15.9019580  18.9639300
 133.0006570  15.5207770  19.6064610 136.9989910  12.9405140  20.5426490
 137.6019280  13.5125350  21.0175010 136.2582900  13.5044580  20.3200390
 140.1424510  13.3426700  15.8166770 140.3375140  14.2410150  16.0834200
 139.3554380  13.1113780  16.3099720 126.9385800  29.0239870  16.2559390
 126.4133420  29.4047900  15.5521350 126.8630380  29.6490640  16.9769100
 128.3276270  14.6887470  14.8543080 128.8569030  13.9017270  14.7251030
 128.9604590  15.3678660  15.0878610 130.5214110  14.4262610  17.9088470
 129.8916850  13.7249920  18.0758600 129.9819250  15.1866740  17.6921630
 133.4606060  31.0401840  30.5799080 134.3873370  30.8046110  30.6235040
 133.4456490  31.8673840  30.0985110 141.6951120  30.5827410  17.5773330
 141.8703310  29.8965150  16.9334250 140.9972690  31.1074460  17.1850000
 130.6469670  13.7046590  30.3440960 130.3653940  14.2080190  29.5801780
 131.0289370  12.9068340  29.9783090 129.5378770  30.9722250  15.1308640
 130.2697590  30.6881530  14.5832530 129.7972440  30.7335530  16.0208020
 128.6993560  27.0886980  15.1354970 128.0702440  27.5572080  15.6840800
 128.8141390  26.2436200  15.5701160 137.2485130  13.1200170  30.9221430
 137.1350580  13.4394780  31.8172950 138.0654870  13.5212680  30.6258710
 140.0283620  30.2671700  30.4040120 140.8208940  29.7720930  30.1966080
 140.3216770  30.9461840  31.0115730 134.2861320  22.9171660   3.1665440
 133.5103420  22.4372100   3.4564010 134.9374250  22.2377310   2.9921600
 128.3027150  23.2291470   4.0441200 127.4712030  22.9740180   4.4437710
 128.9108130  23.3002240   4.7799120 138.3068750  27.3231850   1.9464570
 137.8450280  26.5519090   2.2751740 139.1194300  27.3497920   2.4517020
 128.2828410  27.2631560   4.2399220 128.5856450  26.3729300   4.0609440
 129.0272000  27.8201780   4.0121470 124.6752110  20.7899010   3.7123290
 125.2468220  20.0221210   3.7126930 124.6753650  21.0887770   2.8029900
 133.7270310  25.5928850   3.1735600 133.6578590  24.6518790   3.0124730
 134.4890170  25.6830260   3.7458170 125.9176980  16.1983370   5.4992220
 125.7379820  15.3009120   5.7794980 125.5157060  16.7455240   6.1739170
 134.7575480  18.3999230   3.4004530 135.1340300  17.5271110   3.2878200
 134.6594990  18.7357930   2.5094970 126.5363650  18.6943870   4.1074560
 127.2173760  18.9582240   4.7261960 126.2211700  17.8544740   4.4412570
 130.7288220  19.7411230   3.1947150 131.2366440  20.2392200   3.8352170
 131.2601460  18.9646430   3.0186510 142.8299150  17.9116420   6.8976500
 142.1251320  18.2998130   6.3791610 143.0957070  18.6066710   7.4997430
 129.0124320  14.3809790   7.4610570 129.0142760  14.8982180   6.6556470
 128.1828630  13.9039970   7.4380500 130.2627170  24.0204970   5.6384070
 129.9296550  24.6473890   6.2805140 130.4393850  24.5466850   4.8585740
 138.7761080  17.8350050   3.1060410 138.0716650  18.1234940   3.6863520
 139.1373240  18.6450160   2.7459970 128.6939650  16.0919750   5.4681020
 129.0356460  16.9361800   5.1734890 127.7555460  16.2403490   5.5846360
 129.4746270  25.9885770   7.4533250 130.0920270  26.6636850   7.1717700
 128.6139390  26.3973750   7.3620750 140.3923860  27.4525180   5.3687890
 139.7087380  28.1224290   5.3604560 140.9318150  27.6505830   4.6032750
 141.8448000  17.2804840   3.4969620 140.8972910  17.3143820   3.6285050
 142.1697990  18.0943790   3.8818980 137.9282600  29.2969310   4.0833070
 137.9409760  28.8931600   3.2155330 137.3757820  30.0716600   3.9794500
 137.3268040  24.1999150   5.4115680 137.7436830  23.9859260   4.5769140
 138.0507860  24.4571940   5.9824300 141.2730140  22.5986370   5.5031920
 140.4448770  22.6679460   5.0282050 141.8680620  23.1840680   5.0347750
 138.2372150  19.3855690   6.4486790 137.8243330  20.2109400   6.7026780
 137.5048100  18.8000730   6.2563150 130.8386640  25.8583150   3.4744670
 130.5414930  25.2528620   2.7952450 131.7886460  25.8960460   3.3634030
 129.0833560  18.9458800   5.0904500 129.6348150  19.0554140   4.3157750
 129.5977070  19.3196400   5.8059730 138.9272250  29.4315020   7.1367770
 138.4502810  30.2387210   6.9440380 138.2434040  28.7793350   7.2893980
 129.9305070  25.5964840  10.1252470 129.0333600  25.8204810  10.3725870
 129.9557940  25.7199780   9.1763870 128.7576290  22.4678160   8.7009840
 128.6184060  23.3400960   9.0697240 127.8757650  22.1250970   8.5557780
 130.5556640  28.4099860  10.9094990 130.5272070  28.8142810  10.0423420
 130.3921610  27.4810220  10.7466590 142.5071460  29.1926960  12.2059160
 142.9831180  29.6709850  12.8848240 143.1278620  29.1244450  11.4804660
 124.7094940  24.2375710   4.6180750 124.7875360  24.3724480   3.6736470
 125.3236620  23.5291600   4.8108870 141.9104710  26.3839810   9.3659170
 142.0367770  26.1451690   8.4476350 141.9526090  25.5524350   9.8381250
 135.7721450  30.0867810   7.9353980 136.2866120  29.9975820   8.7376410
 134.9290530  30.4327510   8.2281890 141.7628720  18.4372270  10.3308910
 141.1472990  18.9451940   9.8024370 141.4425140  17.5370600  10.2734850
 124.7654460  25.2789880   7.1575210 124.9285500  24.8095240   6.3394580
 125.2306910  24.7713440   7.8224050 129.5373230  14.4095640   2.1935780
 129.0941380  15.1905180   1.8620300 130.0958220  14.7325530   2.9006720
 133.8243040  17.2764160   7.7971100 133.3622410  17.4847180   8.6091040
 133.4221150  16.4623510   7.4941770 138.8247550  18.4973110   8.9267760
 137.9741140  18.1978860   9.2476830 138.6649340  18.7415120   8.0151580
 135.9197260  19.9974860  11.0266550 136.2450670  19.1638610  10.6868780
 136.7077590  20.5203380  11.1744880 131.5749130  14.9542970   4.0525380
 131.8721460  15.8605800   3.9717400 132.1234690  14.4661750   3.4384950
 131.7686660  20.4314790  10.5877300 131.6730260  19.4909520  10.4377700
 132.6118640  20.6529860  10.1925370 126.8997200  16.8428460   8.7411080
 126.5060590  17.6903670   8.9483860 126.2115600  16.2054830   8.9319720
 133.4742250  16.9263430  11.8107820 132.7840570  16.7335630  12.4453910
 134.2174550  17.2098070  12.3432120 124.2014250  14.7656920   2.7741160
 123.9127300  15.3359780   3.4866140 124.9460010  14.2861370   3.1372390
 135.7505220  20.7661870   4.6461740 135.0186340  21.2748680   4.9951840
 135.3529560  19.9491850   4.3450520 132.1882610  17.4416070   3.0514230
 132.1918670  17.0006020   2.2018770 133.0833730  17.7633400   3.1586050
 128.0384990  17.3242560   2.0108440 127.6985040  17.8017790   2.7675490
 127.2762310  16.8707680   1.6509540 136.2131130  16.2195550   4.0584680
 136.2303870  16.6704200   4.9026530 135.9646710  15.3201190   4.2718120
 139.6401880  13.6327730   9.8971060 139.9647650  12.9017390  10.4229040
 139.6758390  13.3141370   8.9952050 126.3393440  24.6541310   9.3171020
 125.9548230  24.0134980   9.9153980 126.6505630  25.3577430   9.8865750
 132.4890580  21.5017850   4.7979640 132.8560710  21.0276420   5.5440980
 132.2995640  22.3759420   5.1387980 130.2789950  20.5426490   7.1163850
 129.9747020  21.4218470   7.3414210 131.2336410  20.6026280   7.1521290
 139.5659720  23.7452840   3.5057090 140.2858840  24.2408130   3.1153200
 139.3641540  23.0670730   2.8610960 134.9478520  23.8161900   9.3926090
 134.8815830  22.8957570   9.1383680 134.3183660  23.9137340  10.1070730
 126.3353680  21.3829230   8.2635210 125.9768620  22.0483080   8.8508550
 126.0408240  20.5512780   8.6347830 129.5366800  21.8413470  11.1474760
 129.2366940  21.9870650  10.2502580 130.3078040  21.2818760  11.0548150
 134.8795250  26.6382470   9.1429890 134.8939790  25.7063430   8.9248800
 134.1720350  26.7242230   9.7819660 141.0906460  23.2789810   8.4898470
 140.3654650  23.8718590   8.2927860 141.6181920  23.2713350   7.6911840
 134.3129150  28.2800040   6.2370390 134.9571370  28.4859420   6.9143810
 134.6758590  27.5188440   5.7841240 135.5861230  26.2832390   4.9547840
 136.2283460  25.5825550   5.0680010 136.1110580  27.0630830   4.7744730
 137.3598850  27.0827290   8.1583900 137.6955090  27.6693980   8.8361820
 136.4399190  26.9520000   8.3881690 124.9102250  14.8722470   8.9407310
 124.1960770  15.0719390   9.5459920 125.3297290  14.0962040   9.3122110
 125.1974840  28.8602730   9.9273840 125.3065960  27.9197470   9.7869230
 124.5455400  29.1257480   9.2787570 133.1887430  27.1318620  11.3271960
 132.8684300  26.4127860  11.8717650 132.5145790  27.8073690  11.4008020
 136.4041030  17.3644780   6.6908760 136.7721850  16.5439990   7.0188330
 135.5439230  17.4246670   7.1064410 133.3643020  20.0184370   6.9146730
 133.8628270  20.4930190   7.5798580 133.5065970  19.0947890   7.1216760
 140.5709880  16.2352330   7.7575120 140.0683480  16.9757730   8.0968930
 141.3866540  16.6236330   7.4411910 140.8657470  28.6494360   2.8790740
 140.9904890  29.4725530   3.3514550 141.7323030  28.4385090   2.5314890
 128.3375000  30.7425570   2.5507870 129.0737480  30.1941030   2.8216440
 128.7215920  31.6081580   2.4113860 127.3433280  29.9271640  11.7393450
 128.1446010  30.2483690  12.1528850 126.8285100  29.5667220  12.4613360
 136.1797910  26.0351510  11.6868860 135.5736070  26.0583110  10.9464610
 135.8752020  25.3034550  12.2236110 137.6098280  29.7631800  10.2978270
 138.5620030  29.6789820  10.2478510 137.4626500  30.4273510  10.9712060
 125.0631090  22.4145100  10.6829500 125.5670110  21.8352380  11.2545730
 124.3238510  22.6985330  11.2205870 132.1169030  23.8216090  10.2165020
 131.3514700  24.3901090  10.1319690 132.2984990  23.5292300   9.3233250
 139.2592380  25.5521420  10.7740040 140.0001850  25.8897180  10.2707500
 138.4965060  25.7213480  10.2209810 127.0954170  20.5574690  11.5779570
 127.1359510  20.2588560  12.4864800 127.9499670  20.9582300  11.4187090
 129.0359980  19.1366790   9.5454060 128.5056440  18.6457740   8.9177400
 129.7048050  19.5650990   9.0111990 137.9338040  23.6036250   9.3095250
 138.3479060  23.7581330  10.1585670 136.9989040  23.7291470   9.4721030
 138.4060210  20.9432410  11.3134400 138.9880980  20.1884730  11.2254880
 138.5821980  21.4739850  10.5365880 129.5232280  16.1029160   9.6251350
 129.4289150  15.4849910   8.9002220 128.9429670  16.8295450   9.3981260
 132.2893720  14.6602400   6.6578740 131.8411020  14.6826660   5.8124290
 131.6558920  14.2621420   7.2549040 132.6953270  23.5556730   7.2791180
 133.1141380  24.3989460   7.1067420 131.7761900  23.6928770   7.0497960
 135.0317170  21.2872910   8.6629020 135.1513380  20.6914050   9.4023860
 135.8911170  21.3242600   8.2430320 137.3705070  21.8410100   7.2391530
 136.8440290  22.3652720   6.6356670 137.7136410  22.4737490   7.8701260
 130.5460690  29.8609740   8.3948910 130.0081780  30.5855800   8.0757610
 130.7994650  29.3840080   7.6046250 131.7985940  17.8294260   9.9204840
 132.3885630  17.5210110  10.6082660 130.9806180  17.3574010  10.0764740
 136.6179370  17.4460070  10.1537860 135.9294890  16.7841610  10.0887850
 137.3385390  16.9998340  10.5986320 133.4022900  31.0960950   8.6535560
 133.3281600  31.9996090   8.9607930 132.5001740  30.7772850   8.6257630
 124.8050190  28.4235540   1.9569180 125.1353200  27.5556600   1.7247820
 125.2341190  28.6294060   2.7874140 125.2940400  29.2906130   4.6950810
 124.8571390  29.4706930   5.5274960 125.8618080  30.0480750   4.5532530
 140.9302580  28.7923130   8.9828120 140.3304570  28.8515690   8.2392040
 141.0596480  27.8528110   9.1124970 139.6154220  25.5175110   7.0804280
 138.8014060  25.9472270   7.3430070 140.0228420  26.1293520   6.4673330
 126.1640760  22.1878930   5.5943030 126.5313800  22.1006330   6.4739050
 125.5951580  21.4245480   5.4949890 140.9644620  20.6563310   8.6073500
 140.7330710  20.4276060   7.7071450 141.2249170  21.5762860   8.5618390
 125.7156760  19.0988020   9.5001450 124.8212810  19.0654780   9.8395160
 126.2554310  19.2974810  10.2652700 139.4032690  15.8819740  11.3853200
 140.2802870  15.8903140  11.7687200 139.4153530  15.1450580  10.7745550
 140.8495960  19.7349280   2.2741220 141.3733440  19.2411930   1.6431390
 141.4355380  19.8699640   3.0188790 141.0285680  19.8189150   5.7960770
 140.0788390  19.7852690   5.9105760 141.2098690  20.7289260   5.5610540
 126.2196470  13.3736350   3.8484670 126.8672660  12.8233730   3.4079830
 126.6398310  13.6279500   4.6700480 140.1148810  13.5677710   7.2054310
 140.7521030  14.1811850   7.5713500 140.2623700  13.6038370   6.2603540
 125.9728470  13.5292020   6.5909990 125.6243290  13.9855840   7.3568170
 125.6416170  12.6349150   6.6732420 127.5792840  26.7011620  10.7563180
 127.5362470  26.3304530  11.6377640 127.7103850  27.6389190  10.8965000
 131.2798870  28.2571210   6.3572900 131.0390230  28.5245770   5.4703420
 132.2201510  28.4276940   6.4123760 133.4853290  14.7203900  10.1129410
 133.4242180  15.3125730  10.8624820 134.4253670  14.6129860   9.9679670
 136.1227850  14.3773960   9.7521700 136.7368260  14.6953250   9.0902780
 136.6677410  13.8922550  10.3717560 142.5403030  30.2765590   7.1583540
 142.0461310  30.6734460   6.4410670 141.9316320  29.6514800   7.5520820
 126.6449110  13.0568220   9.8660760 127.1932100  12.8756270   9.1026870
 126.7104420  12.2662330  10.4017070 127.4180870  29.6473870   7.8760960
 126.8241190  29.5158570   8.6151000 127.4104710  28.8112010   7.4103060
 136.8635890  12.9406100   6.0790990 135.9895730  13.2741210   5.8763920
 136.7546640  12.4679280   6.9042860 137.7707870  15.1476970   7.4632710
 137.4421230  14.3328730   7.0834440 138.7190170  15.1046780   7.3398400
 140.2242480  30.9189010   4.4370280 139.7645450  31.6704820   4.0628300
 139.5954940  30.1995480   4.3785080 127.0493100  27.0132250   6.8269000
 126.3227160  26.3937540   6.7594950 127.1102250  27.4072860   5.9567080
 130.6538200  29.2277250   3.6118410 131.1703220  28.6164610   3.0866670
 131.3035580  29.7306030   4.1029420 133.3933700  30.1185740   4.4387390
 133.6811510  29.8640040   3.5620400 133.9056920  29.5663100   5.0292960
 134.6110710  13.8575940   5.0183900 133.8282500  14.3321440   5.2980660
 134.3173640  12.9530770   4.9097080 139.1631780  14.5599040   3.0632990
 139.6039870  14.5044140   2.2154590 138.8939370  15.4757050   3.1343170
 136.9989910  12.9405140   1.7683000 137.6019280  13.5125350   2.2431520
 136.2582900  13.5044580   1.5456900 133.4606060  31.0401840  11.8055590
 134.3873370  30.8046110  11.8491550 133.4456490  31.8673840  11.3241620
 130.6469670  13.7046590  11.5697470 130.3653940  14.2080190  10.8058290
 131.0289370  12.9068340  11.2039600 137.2485130  13.1200170  12.1477940
 137.1350580  13.4394780  13.0429460 138.0654870  13.5212680  11.8515220
 140.0283620  30.2671700  11.6296630 140.8208940  29.7720930  11.4222590
 140.3216770  30.9461840  12.2372240 134.2861320   4.1428170 153.3613360
 133.5103420   3.6628610 153.6511930 134.9374250   3.4633820 153.1869520
 138.3068750   8.5488360 152.1412490 137.8450280   7.7775600 152.4699660
 139.1194300   8.5754430 152.6464940 128.2828410   8.4888070 154.4347140
 128.5856450   7.5985810 154.2557360 129.0272000   9.0458290 154.2069390
 134.5332060  10.8346370 151.7616480 133.9143500  11.2903870 151.1910920
 135.3883840  10.9897830 151.3606180 133.7270310   6.8185360 153.3683520
 133.6578590   5.8775300 153.2072650 134.4890170   6.9086770 153.9406090
 135.3995410   5.7185610 149.1548390 134.7812680   6.1835060 148.5911110
 135.9118660   6.4113090 149.5717900 124.7678610   6.4042140 146.5288020
 124.3906590   6.8929240 145.7972920 125.0251680   7.0767420 147.1594550
 137.9282600  10.5225820 154.2780990 137.9409760  10.1188110 153.4103250
 137.3757820  11.2973110 154.1742420 139.2228020   7.2442040 149.3671160
 139.1124350   6.3016370 149.4920580 139.2196270   7.6057680 150.2533920
 134.7648300   2.8707360 148.7233650 133.8377580   2.8044740 148.9522120
 134.9173120   3.8087490 148.6088890 138.7945590   4.4327660 149.2268900
 138.1758010   4.0947210 148.5795200 138.7770040   3.7887420 149.9348090
 130.3704940   3.3972100 151.5053380 129.9661940   2.6849350 151.0099280
 130.4568060   3.0525340 152.3941420 130.8386640   7.0839660 153.6692590
 130.5414930   6.4785130 152.9900370 131.7886460   7.1216970 153.5581950
 136.9710290   3.6714470 146.2341650 137.4103570   2.8336900 146.0879470
 137.6838710   4.3043870 146.3205790 135.0805670   8.6110540 150.2022890
 135.5201580   9.3534870 149.7878280 135.0192560   8.8537110 151.1261850
 125.9542570   7.1632410 151.2234850 125.5470650   7.3047000 150.3688450
 126.8455580   6.8792570 151.0206060 137.7475850  11.5979660 147.5585900
 137.5876990  11.3082600 148.4567730 137.5822560  10.8219790 147.0231130
 130.2264230  11.3778190 149.3357520 130.0506710  10.4613730 149.1225320
 129.3719970  11.7365480 149.5755320 137.4501980   9.1067220 146.1183900
 136.7567140   9.1044510 145.4586180 138.1924840   8.6826540 145.6878070
 137.0151910  10.7329930 150.1932390 137.4708860   9.9519310 150.5071010
 137.3544430  11.4436750 150.7373570 128.8071740   5.9743990 147.9078620
 128.0334000   5.4341610 147.7477340 129.5366370   5.4550600 147.5696380
 139.5659720   4.9709350 153.7005010 140.2858840   5.4664640 153.3101120
 139.3641540   4.2927240 153.0558880 128.8509140   5.6424370 151.5457430
 129.3687810   4.8392630 151.4914320 128.3993160   5.5803510 152.3874260
 133.7378640   6.9090650 146.8184730 134.0794340   7.6532880 146.3228050
 132.9091350   7.2221770 147.1809560 140.0132320   2.0478800 145.6076420
 139.9296040   2.4793020 144.7572860 140.7326510   2.5077150 146.0403240
 141.0419570   8.9021060 148.3358550 140.3995730   8.2476680 148.6102270
 140.6550230   9.3076150 147.5599220 136.6206050   6.2306490 152.1830240
 136.9729870   5.6334620 151.5231610 135.7368380   5.9050720 152.3538490
 132.7069330   6.9904180 149.5900650 133.3940460   7.5373390 149.9708240
 131.9201750   7.5344910 149.6250260 124.8461730   2.6077000 145.0817730
 125.7156580   2.8901800 145.3653650 124.3552050   3.4212870 144.9666540
 132.0096540   3.9950210 149.2026010 132.4659320   4.8055460 149.4286200
 131.6584750   3.6773350 150.0344500 139.4316950   7.7937520 144.8734900
 139.2054530   7.0767960 145.4659540 139.0413150   7.5449960 144.0356650
 125.2132980  11.8204380 145.6479360 125.5730620  12.4193720 144.9936630
 125.0725320  12.3664270 146.4214390 139.0133200   5.7109460 146.5349060
 138.7254900   6.1722150 147.3226940 139.8085370   5.2507230 146.8033280
 131.2301600   9.2035580 146.4653030 131.2211700   9.9365270 145.8497540
 130.3099960   8.9567160 146.5579990 126.8308240   4.4250470 147.2099790
 126.2236190   5.1649370 147.2195090 127.3057590   4.5149830 146.3837990
 134.2161200   9.2663820 145.1278220 134.3173180   9.0627810 144.1980200
 133.3162940   9.0122100 145.3326000 132.8579310  11.7850140 149.8225890
 133.1120810  11.7471530 148.9005260 131.9091790  11.6583470 149.8154140
 138.8631890   2.7042020 151.3984400 137.9222030   2.7192250 151.5732090
 139.1775960   1.9177980 151.8444700 128.8413530   4.3861620 144.9588360
 129.6076800   4.2742980 145.5213790 128.9188220   3.6899590 144.3065130
 140.8657470   9.8750870 153.0738660 140.9904890  10.6982040 153.5462470
 141.7323030   9.6641600 152.7262810 128.3375000  11.9682080 152.7455790
 129.0737480  11.4197540 153.0164360 128.7215920  12.8338090 152.6061780
 125.2220480   8.0355650 148.6197300 124.2960260   8.2776790 148.6102710
 125.6876910   8.8629910 148.4982050 131.4477310  11.1412390 144.5681360
 132.2405920  11.4301220 144.1163150 130.9281660  10.7104560 143.8893840
 140.5007480  10.3682520 145.9918100 140.2148990   9.9547660 145.1772280
 140.3027030  11.2970230 145.8718620 131.9654710   6.3615800 144.4323710
 131.8605350   5.7468150 145.1585090 131.7978930   5.8381690 143.6486720
 135.2057440   5.4235830 145.0365700 134.6567540   5.8705130 145.6808440
 135.8276700   4.9185080 145.5603370 130.8732560   4.3826750 146.9331000
 131.2948980   4.2166620 147.7762390 130.9983400   3.5726980 146.4386140
 133.3860200   3.4064360 144.1808100 133.9065860   2.6913380 143.8149250
 134.0328600   4.0450230 144.4808610 133.9508230  11.4875970 146.4709840
 134.8459020  11.8260940 146.4928600 133.9825860  10.7655380 145.8434120
 127.5904390   6.8603020 144.6996840 128.0279260   7.4032690 145.3554420
 128.0752120   6.0349970 144.7093180 124.8050190   9.6492050 152.1517100
 125.1353200   8.7813110 151.9195740 125.2341190   9.8550570 152.9822060
 129.4012110   7.9801060 149.8119070 129.1007650   7.8566030 150.7122980
 129.2949600   7.1209650 149.4034800 142.1704030   7.7597460 144.5145750
 141.3396990   7.8274110 144.9852980 142.3475860   8.6501580 144.2112610
 141.6260490   4.5044940 147.0179950 142.3879400   5.0741590 147.1239640
 141.6414860   3.9372140 147.7888260 125.1264830   3.0282870 151.2487610
 124.4713670   2.7594510 150.6047310 125.9642780   2.9187350 150.7989590
 142.6320460   5.3595040 151.8621880 143.0029290   4.5762360 151.4557850
 143.2722390   6.0484140 151.6839180 141.6779660   4.7979310 144.1752470
 141.9528500   5.7058190 144.0471690 141.4890400   4.7341840 145.1114460
 141.5745000   2.7348300 149.1681900 141.1988600   1.9676230 148.7363190
 140.8448120   3.1171000 149.6556830 139.6730270  11.4950220 150.8020470
 140.2689340  11.1734790 150.1254890 139.9308420  11.0222040 151.5933740
 130.6538200  10.4533760 153.8066330 131.1703220   9.8421120 153.2814590
 131.3035580  10.9562540 154.2977340 125.3323100  11.5563150 150.2313680
 125.1645140  10.9233830 150.9295570 124.4657610  11.7622550 149.8807870
 126.9385800  10.2496380 147.6763820 126.4133420  10.6304410 146.9725780
 126.8630380  10.8747150 148.3973530 141.6951120  11.8083920 148.9977760
 141.8703310  11.1221660 148.3538680 140.9972690  12.3330970 148.6054430
 129.5378770  12.1978760 146.5513070 130.2697590  11.9138040 146.0036960
 129.7972440  11.9592040 147.4412450 128.6993560   8.3143490 146.5559400
 128.0702440   8.7828590 147.1045230 128.8141390   7.4692710 146.9905590
 134.2861320   4.1428170 134.5869870 133.5103420   3.6628610 134.8768440
 134.9374250   3.4633820 134.4126030 128.3027150   4.4547980 135.4645630
 127.4712030   4.1996690 135.8642140 128.9108130   4.5258750 136.2003550
 138.3068750   8.5488360 133.3669000 137.8450280   7.7775600 133.6956170
 139.1194300   8.5754430 133.8721450 128.2828410   8.4888070 135.6603650
 128.5856450   7.5985810 135.4813870 129.0272000   9.0458290 135.4325900
 134.5332060  10.8346370 132.9872990 133.9143500  11.2903870 132.4167430
 135.3883840  10.9897830 132.5862690 133.7270310   6.8185360 134.5940030
 133.6578590   5.8775300 134.4329160 134.4890170   6.9086770 135.1662600
 135.3995410   5.7185610 130.3804900 134.7812680   6.1835060 129.8167620
 135.9118660   6.4113090 130.7974410 130.2627170   5.2461480 137.0588500
 129.9296550   5.8730400 137.7009570 130.4393850   5.7723360 136.2790170
 129.4746270   7.2142280 138.8737680 130.0920270   7.8893360 138.5922130
 128.6139390   7.6230260 138.7825180 124.7678610   6.4042140 127.7544530
 124.3906590   6.8929240 127.0229430 125.0251680   7.0767420 128.3851060
 140.3923860   8.6781690 136.7892320 139.7087380   9.3480800 136.7808990
 140.9318150   8.8762340 136.0237180 137.9282600  10.5225820 135.5037500
 137.9409760  10.1188110 134.6359760 137.3757820  11.2973110 135.3998930
 139.2228020   7.2442040 130.5927670 139.1124350   6.3016370 130.7177090
 139.2196270   7.6057680 131.4790430 137.3268040   5.4255660 136.8320110
 137.7436830   5.2115770 135.9973570 138.0507860   5.6828450 137.4028730
 134.7648300   2.8707360 129.9490160 133.8377580   2.8044740 130.1778630
 134.9173120   3.8087490 129.8345400 141.2730140   3.8242880 136.9236350
 140.4448770   3.8935970 136.4486480 141.8680620   4.4097190 136.4552180
 138.7945590   4.4327660 130.4525410 138.1758010   4.0947210 129.8051710
 138.7770040   3.7887420 131.1604600 130.3704940   3.3972100 132.7309890
 129.9661940   2.6849350 132.2355790 130.4568060   3.0525340 133.6197930
 130.8386640   7.0839660 134.8949100 130.5414930   6.4785130 134.2156880
 131.7886460   7.1216970 134.7838460 138.9272250  10.6571530 138.5572200
 138.4502810  11.4643720 138.3644810 138.2434040  10.0049860 138.7098410
 129.9305070   6.8221350 141.5456900 129.0333600   7.0461320 141.7930300
 129.9557940   6.9456290 140.5968300 136.9710290   3.6714470 127.4598160
 137.4103570   2.8336900 127.3135980 137.6838710   4.3043870 127.5462300
 128.7576290   3.6934670 140.1214270 128.6184060   4.5657470 140.4901670
 127.8757650   3.3507480 139.9762210 135.0805670   8.6110540 131.4279400
 135.5201580   9.3534870 131.0134790 135.0192560   8.8537110 132.3518360
 130.5556640   9.6356370 142.3299420 130.5272070  10.0399320 141.4627850
 130.3921610   8.7066730 142.1671020 142.5071460  10.4183470 143.6263590
 142.9831180  10.8966360 144.3052670 143.1278620  10.3500960 142.9009090
 124.7094940   5.4632220 136.0385180 124.7875360   5.5980990 135.0940900
 125.3236620   4.7548110 136.2313300 125.9542570   7.1632410 132.4491360
 125.5470650   7.3047000 131.5944960 126.8455580   6.8792570 132.2462570
 141.9104710   7.6096320 140.7863600 142.0367770   7.3708200 139.8680780
 141.9526090   6.7780860 141.2585680 135.7721450  11.3124320 139.3558410
 136.2866120  11.2232330 140.1580840 134.9290530  11.6584020 139.6486320
 137.7475850  11.5979660 128.7842410 137.5876990  11.3082600 129.6824240
 137.5822560  10.8219790 128.2487640 130.2264230  11.3778190 130.5614030
 130.0506710  10.4613730 130.3481830 129.3719970  11.7365480 130.8011830
 137.4501980   9.1067220 127.3440410 136.7567140   9.1044510 126.6842690
 138.1924840   8.6826540 126.9134580 137.0151910  10.7329930 131.4188900
 137.4708860   9.9519310 131.7327520 137.3544430  11.4436750 131.9630080
 124.7654460   6.5046390 138.5779640 124.9285500   6.0351750 137.7599010
 125.2306910   5.9969950 139.2428480 126.3393440   5.8797820 140.7375450
 125.9548230   5.2391490 141.3358410 126.6505630   6.5833940 141.3070180
 132.4890580   2.7274360 136.2184070 132.8560710   2.2532930 136.9645410
 132.2995640   3.6015930 136.5592410 130.2789950   1.7683000 138.5368280
 129.9747020   2.6474980 138.7618640 131.2336410   1.8282790 138.5725720
 128.8071740   5.9743990 129.1335130 128.0334000   5.4341610 128.9733850
 129.5366370   5.4550600 128.7952890 139.5659720   4.9709350 134.9261520
 140.2858840   5.4664640 134.5357630 139.3641540   4.2927240 134.2815390
 134.9478520   5.0418410 140.8130520 134.8815830   4.1214080 140.5588110
 134.3183660   5.1393850 141.5275160 128.8509140   5.6424370 132.7713940
 129.3687810   4.8392630 132.7170830 128.3993160   5.5803510 133.6130770
 133.7378640   6.9090650 128.0441240 134.0794340   7.6532880 127.5484560
 132.9091350   7.2221770 128.4066070 126.3353680   2.6085740 139.6839640
 125.9768620   3.2739590 140.2712980 126.0408240   1.7769290 140.0552260
 129.5366800   3.0669980 142.5679190 129.2366940   3.2127160 141.6707010
 130.3078040   2.5075270 142.4752580 134.8795250   7.8638980 140.5634320
 134.8939790   6.9319940 140.3453230 134.1720350   7.9498740 141.2024090
 140.0132320   2.0478800 126.8332930 139.9296040   2.4793020 125.9829370
 140.7326510   2.5077150 127.2659750 141.0906460   4.5046320 139.9102900
 140.3654650   5.0975100 139.7132290 141.6181920   4.4969860 139.1116270
 141.0419570   8.9021060 129.5615060 140.3995730   8.2476680 129.8358780
 140.6550230   9.3076150 128.7855730 136.6206050   6.2306490 133.4086750
 136.9729870   5.6334620 132.7488120 135.7368380   5.9050720 133.5795000
 132.7069330   6.9904180 130.8157160 133.3940460   7.5373390 131.1964750
 131.9201750   7.5344910 130.8506770 124.8461730   2.6077000 126.3074240
 125.7156580   2.8901800 126.5910160 124.3552050   3.4212870 126.1923050
 132.0096540   3.9950210 130.4282520 132.4659320   4.8055460 130.6542710
 131.6584750   3.6773350 131.2601010 134.3129150   9.5056550 137.6574820
 134.9571370   9.7115930 138.3348240 134.6758590   8.7444950 137.2045670
 135.5861230   7.5088900 136.3752270 136.2283460   6.8082060 136.4884440
 136.1110580   8.2887340 136.1949160 139.4316950   7.7937520 126.0991410
 139.2054530   7.0767960 126.6916050 139.0413150   7.5449960 125.2613160
 137.3598850   8.3083800 139.5788330 137.6955090   8.8950490 140.2566250
 136.4399190   8.1776510 139.8086120 125.2132980  11.8204380 126.8735870
 125.5730620  12.4193720 126.2193140 125.0725320  12.3664270 127.6470900
 139.0133200   5.7109460 127.7605570 138.7254900   6.1722150 128.5483450
 139.8085370   5.2507230 128.0289790 125.1974840  10.0859240 141.3478270
 125.3065960   9.1453980 141.2073660 124.5455400  10.3513990 140.6992000
 133.1887430   8.3575130 142.7476390 132.8684300   7.6384370 143.2922080
 132.5145790   9.0330200 142.8212450 131.2301600   9.2035580 127.6909540
 131.2211700   9.9365270 127.0754050 130.3099960   8.9567160 127.7836500
 126.8308240   4.4250470 128.4356300 126.2236190   5.1649370 128.4451600
 127.3057590   4.5149830 127.6094500 134.2161200   9.2663820 126.3534730
 134.3173180   9.0627810 125.4236710 133.3162940   9.0122100 126.5582510
 132.8579310  11.7850140 131.0482400 133.1120810  11.7471530 130.1261770
 131.9091790  11.6583470 131.0410650 138.8631890   2.7042020 132.6240910
 137.9222030   2.7192250 132.7988600 139.1775960   1.9177980 133.0701210
 128.8413530   4.3861620 126.1844870 129.6076800   4.2742980 126.7470300
 128.9188220   3.6899590 125.5321640 140.8657470   9.8750870 134.2995170
 140.9904890  10.6982040 134.7718980 141.7323030   9.6641600 133.9519320
 128.3375000  11.9682080 133.9712300 129.0737480  11.4197540 134.2420870
 128.7215920  12.8338090 133.8318290 125.2220480   8.0355650 129.8453810
 124.2960260   8.2776790 129.8359220 125.6876910   8.8629910 129.7238560
 127.3433280  11.1528150 143.1597880 128.1446010  11.4740200 143.5733280
 126.8285100  10.7923730 143.8817790 131.4477310  11.1412390 125.7937870
 132.2405920  11.4301220 125.3419660 130.9281660  10.7104560 125.1150350
 136.1797910   7.2608020 143.1073290 135.5736070   7.2839620 142.3669040
 135.8752020   6.5291060 143.6440540 137.6098280  10.9888310 141.7182700
 138.5620030  10.9046330 141.6682940 137.4626500  11.6530020 142.3916490
 140.5007480  10.3682520 127.2174610 140.2148990   9.9547660 126.4028790
 140.3027030  11.2970230 127.0975130 125.0631090   3.6401610 142.1033930
 125.5670110   3.0608890 142.6750160 124.3238510   3.9241840 142.6410300
 131.9654710   6.3615800 125.6580220 131.8605350   5.7468150 126.3841600
 131.7978930   5.8381690 124.8743230 132.1169030   5.0472600 141.6369450
 131.3514700   5.6157600 141.5524120 132.2984990   4.7548810 140.7437680
 135.2057440   5.4235830 126.2622210 134.6567540   5.8705130 126.9064950
 135.8276700   4.9185080 126.7859880 139.2592380   6.7777930 142.1944470
 140.0001850   7.1153690 141.6911930 138.4965060   6.9469990 141.6414240
 130.8732560   4.3826750 128.1587510 131.2948980   4.2166620 129.0018900
 130.9983400   3.5726980 127.6642650 133.3860200   3.4064360 125.4064610
 133.9065860   2.6913380 125.0405760 134.0328600   4.0450230 125.7065120
 137.9338040   4.8292760 140.7299680 138.3479060   4.9837840 141.5790100
 136.9989040   4.9547980 140.8925460 132.6953270   4.7813240 138.6995610
 133.1141380   5.6245970 138.5271850 131.7761900   4.9185280 138.4702390
 135.0317170   2.5129420 140.0833450 135.1513380   1.9170560 140.8228290
 135.8911170   2.5499110 139.6634750 137.3705070   3.0666610 138.6595960
 136.8440290   3.5909230 138.0561100 137.7136410   3.6994000 139.2905690
 130.5460690  11.0866250 139.8153340 130.0081780  11.8112310 139.4962040
 130.7994650  10.6096590 139.0250680 133.4022900  12.3217460 140.0739990
 133.3281600  13.2252600 140.3812360 132.5001740  12.0029360 140.0462060
 133.9508230  11.4875970 127.6966350 134.8459020  11.8260940 127.7185110
 133.9825860  10.7655380 127.0690630 127.5904390   6.8603020 125.9253350
 128.0279260   7.4032690 126.5810930 128.0752120   6.0349970 125.9349690
 124.8050190   9.6492050 133.3773610 125.1353200   8.7813110 133.1452250
 125.2341190   9.8550570 134.2078570 129.4012110   7.9801060 131.0375580
 129.1007650   7.8566030 131.9379490 129.2949600   7.1209650 130.6291310
 125.2940400  10.5162640 136.1155240 124.8571390  10.6963440 136.9479390
 125.8618080  11.2737260 135.9736960 140.9302580  10.0179640 140.4032550
 140.3304570  10.0772200 139.6596470 141.0596480   9.0784620 140.5329400
 142.1704030   7.7597460 125.7402260 141.3396990   7.8274110 126.2109490
 142.3475860   8.6501580 125.4369120 141.6260490   4.5044940 128.2436460
 142.3879400   5.0741590 128.3496150 141.6414860   3.9372140 129.0144770
 125.1264830   3.0282870 132.4744120 124.4713670   2.7594510 131.8303820
 125.9642780   2.9187350 132.0246100 142.6320460   5.3595040 133.0878390
 143.0029290   4.5762360 132.6814360 143.2722390   6.0484140 132.9095690
 139.6154220   6.7431620 138.5008710 138.8014060   7.1728780 138.7634500
 140.0228420   7.3550030 137.8877760 141.6779660   4.7979310 125.4008980
 141.9528500   5.7058190 125.2728200 141.4890400   4.7341840 126.3370970
 141.5745000   2.7348300 130.3938410 141.1988600   1.9676230 129.9619700
 140.8448120   3.1171000 130.8813340 126.1640760   3.4135440 137.0147460
 126.5313800   3.3262840 137.8943480 125.5951580   2.6501990 136.9154320
 140.9644620   1.8819820 140.0277930 140.7330710   1.6532570 139.1275880
 141.2249170   2.8019370 139.9822820 139.6730270  11.4950220 132.0276980
 140.2689340  11.1734790 131.3511400 139.9308420  11.0222040 132.8190250
 127.5792840   7.9268130 142.1767610 127.5362470   7.5561040 143.0582070
 127.7103850   8.8645700 142.3169430 131.2798870   9.4827720 137.7777330
 131.0390230   9.7502280 136.8907850 132.2201510   9.6533450 137.8328190
 142.5403030  11.5022100 138.5787970 142.0461310  11.8990970 137.8615100
 141.9316320  10.8771310 138.9725250 127.4180870  10.8730380 139.2965390
 126.8241190  10.7415080 140.0355430 127.4104710  10.0368520 138.8307490
 140.2242480  12.1445520 135.8574710 139.7645450  12.8961330 135.4832730
 139.5954940  11.4251990 135.7989510 127.0493100   8.2388760 138.2473430
 126.3227160   7.6194050 138.1799380 127.1102250   8.6329370 137.3771510
 130.6538200  10.4533760 135.0322840 131.1703220   9.8421120 134.5071100
 131.3035580  10.9562540 135.5233850 133.3933700  11.3442250 135.8591820
 133.6811510  11.0896550 134.9824830 133.9056920  10.7919610 136.4497390
 125.3323100  11.5563150 131.4570190 125.1645140  10.9233830 132.1552080
 124.4657610  11.7622550 131.1064380 126.9385800  10.2496380 128.9020330
 126.4133420  10.6304410 128.1982290 126.8630380  10.8747150 129.6230040
 133.4606060  12.2658350 143.2260020 134.3873370  12.0302620 143.2695980
 133.4456490  13.0930350 142.7446050 141.6951120  11.8083920 130.2234270
 141.8703310  11.1221660 129.5795190 140.9972690  12.3330970 129.8310940
 129.5378770  12.1978760 127.7769580 130.2697590  11.9138040 127.2293470
 129.7972440  11.9592040 128.6668960 128.6993560   8.3143490 127.7815910
 128.0702440   8.7828590 128.3301740 128.8141390   7.4692710 128.2162100
 140.0283620  11.4928210 143.0501060 140.8208940  10.9977440 142.8427020
 140.3216770  12.1718350 143.6576670 134.2861320   4.1428170 115.8126380
 133.5103420   3.6628610 116.1024950 134.9374250   3.4633820 115.6382540
 128.3027150   4.4547980 116.6902140 127.4712030   4.1996690 117.0898650
 128.9108130   4.5258750 117.4260060 138.3068750   8.5488360 114.5925510
 137.8450280   7.7775600 114.9212680 139.1194300   8.5754430 115.0977960
 128.2828410   8.4888070 116.8860160 128.5856450   7.5985810 116.7070380
 129.0272000   9.0458290 116.6582410 134.5332060  10.8346370 114.2129500
 133.9143500  11.2903870 113.6423940 135.3883840  10.9897830 113.8119200
 133.7270310   6.8185360 115.8196540 133.6578590   5.8775300 115.6585670
 134.4890170   6.9086770 116.3919110 135.3995410   5.7185610 111.6061410
 134.7812680   6.1835060 111.0424130 135.9118660   6.4113090 112.0230920
 130.2627170   5.2461480 118.2845010 129.9296550   5.8730400 118.9266080
 130.4393850   5.7723360 117.5046680 129.4746270   7.2142280 120.0994190
 130.0920270   7.8893360 119.8178640 128.6139390   7.6230260 120.0081690
 124.7678610   6.4042140 108.9801040 124.3906590   6.8929240 108.2485940
 125.0251680   7.0767420 109.6107570 140.3923860   8.6781690 118.0148830
 139.7087380   9.3480800 118.0065500 140.9318150   8.8762340 117.2493690
 137.9282600  10.5225820 116.7294010 137.9409760  10.1188110 115.8616270
 137.3757820  11.2973110 116.6255440 139.2228020   7.2442040 111.8184180
 139.1124350   6.3016370 111.9433600 139.2196270   7.6057680 112.7046940
 137.3268040   5.4255660 118.0576620 137.7436830   5.2115770 117.2230080
 138.0507860   5.6828450 118.6285240 134.7648300   2.8707360 111.1746670
 133.8377580   2.8044740 111.4035140 134.9173120   3.8087490 111.0601910
 141.2730140   3.8242880 118.1492860 140.4448770   3.8935970 117.6742990
 141.8680620   4.4097190 117.6808690 138.7945590   4.4327660 111.6781920
 138.1758010   4.0947210 111.0308220 138.7770040   3.7887420 112.3861110
 130.3704940   3.3972100 113.9566400 129.9661940   2.6849350 113.4612300
 130.4568060   3.0525340 114.8454440 130.8386640   7.0839660 116.1205610
 130.5414930   6.4785130 115.4413390 131.7886460   7.1216970 116.0094970
 138.9272250  10.6571530 119.7828710 138.4502810  11.4643720 119.5901320
 138.2434040  10.0049860 119.9354920 129.9305070   6.8221350 122.7713410
 129.0333600   7.0461320 123.0186810 129.9557940   6.9456290 121.8224810
 136.9710290   3.6714470 108.6854670 137.4103570   2.8336900 108.5392490
 137.6838710   4.3043870 108.7718810 128.7576290   3.6934670 121.3470780
 128.6184060   4.5657470 121.7158180 127.8757650   3.3507480 121.2018720
 135.0805670   8.6110540 112.6535910 135.5201580   9.3534870 112.2391300
 135.0192560   8.8537110 113.5774870 130.5556640   9.6356370 123.5555930
 130.5272070  10.0399320 122.6884360 130.3921610   8.7066730 123.3927530
 142.5071460  10.4183470 124.8520100 142.9831180  10.8966360 125.5309180
 143.1278620  10.3500960 124.1265600 124.7094940   5.4632220 117.2641690
 124.7875360   5.5980990 116.3197410 125.3236620   4.7548110 117.4569810
 125.9542570   7.1632410 113.6747870 125.5470650   7.3047000 112.8201470
 126.8455580   6.8792570 113.4719080 141.9104710   7.6096320 122.0120110
 142.0367770   7.3708200 121.0937290 141.9526090   6.7780860 122.4842190
 135.7721450  11.3124320 120.5814920 136.2866120  11.2232330 121.3837350
 134.9290530  11.6584020 120.8742830 137.7475850  11.5979660 110.0098920
 137.5876990  11.3082600 110.9080750 137.5822560  10.8219790 109.4744150
 130.2264230  11.3778190 111.7870540 130.0506710  10.4613730 111.5738340
 129.3719970  11.7365480 112.0268340 137.4501980   9.1067220 108.5696920
 136.7567140   9.1044510 107.9099200 138.1924840   8.6826540 108.1391090
 137.0151910  10.7329930 112.6445410 137.4708860   9.9519310 112.9584030
 137.3544430  11.4436750 113.1886590 124.7654460   6.5046390 119.8036150
 124.9285500   6.0351750 118.9855520 125.2306910   5.9969950 120.4684990
 126.3393440   5.8797820 121.9631960 125.9548230   5.2391490 122.5614920
 126.6505630   6.5833940 122.5326690 132.4890580   2.7274360 117.4440580
 132.8560710   2.2532930 118.1901920 132.2995640   3.6015930 117.7848920
 130.2789950   1.7683000 119.7624790 129.9747020   2.6474980 119.9875150
 131.2336410   1.8282790 119.7982230 128.8071740   5.9743990 110.3591640
 128.0334000   5.4341610 110.1990360 129.5366370   5.4550600 110.0209400
 139.5659720   4.9709350 116.1518030 140.2858840   5.4664640 115.7614140
 139.3641540   4.2927240 115.5071900 134.9478520   5.0418410 122.0387030
 134.8815830   4.1214080 121.7844620 134.3183660   5.1393850 122.7531670
 128.8509140   5.6424370 113.9970450 129.3687810   4.8392630 113.9427340
 128.3993160   5.5803510 114.8387280 133.7378640   6.9090650 109.2697750
 134.0794340   7.6532880 108.7741070 132.9091350   7.2221770 109.6322580
 126.3353680   2.6085740 120.9096150 125.9768620   3.2739590 121.4969490
 126.0408240   1.7769290 121.2808770 129.5366800   3.0669980 123.7935700
 129.2366940   3.2127160 122.8963520 130.3078040   2.5075270 123.7009090
 134.8795250   7.8638980 121.7890830 134.8939790   6.9319940 121.5709740
 134.1720350   7.9498740 122.4280600 140.0132320   2.0478800 108.0589440
 139.9296040   2.4793020 107.2085880 140.7326510   2.5077150 108.4916260
 141.0906460   4.5046320 121.1359410 140.3654650   5.0975100 120.9388800
 141.6181920   4.4969860 120.3372780 141.0419570   8.9021060 110.7871570
 140.3995730   8.2476680 111.0615290 140.6550230   9.3076150 110.0112240
 136.6206050   6.2306490 114.6343260 136.9729870   5.6334620 113.9744630
 135.7368380   5.9050720 114.8051510 132.7069330   6.9904180 112.0413670
 133.3940460   7.5373390 112.4221260 131.9201750   7.5344910 112.0763280
 124.8461730   2.6077000 107.5330750 125.7156580   2.8901800 107.8166670
 124.3552050   3.4212870 107.4179560 132.0096540   3.9950210 111.6539030
 132.4659320   4.8055460 111.8799220 131.6584750   3.6773350 112.4857520
 134.3129150   9.5056550 118.8831330 134.9571370   9.7115930 119.5604750
 134.6758590   8.7444950 118.4302180 135.5861230   7.5088900 117.6008780
 136.2283460   6.8082060 117.7140950 136.1110580   8.2887340 117.4205670
 139.4316950   7.7937520 107.3247920 139.2054530   7.0767960 107.9172560
 139.0413150   7.5449960 106.4869670 137.3598850   8.3083800 120.8044840
 137.6955090   8.8950490 121.4822760 136.4399190   8.1776510 121.0342630
 125.2132980  11.8204380 108.0992380 125.5730620  12.4193720 107.4449650
 125.0725320  12.3664270 108.8727410 139.0133200   5.7109460 108.9862080
 138.7254900   6.1722150 109.7739960 139.8085370   5.2507230 109.2546300
 125.1974840  10.0859240 122.5734780 125.3065960   9.1453980 122.4330170
 124.5455400  10.3513990 121.9248510 133.1887430   8.3575130 123.9732900
 132.8684300   7.6384370 124.5178590 132.5145790   9.0330200 124.0468960
 131.2301600   9.2035580 108.9166050 131.2211700   9.9365270 108.3010560
 130.3099960   8.9567160 109.0093010 126.8308240   4.4250470 109.6612810
 126.2236190   5.1649370 109.6708110 127.3057590   4.5149830 108.8351010
 134.2161200   9.2663820 107.5791240 134.3173180   9.0627810 106.6493220
 133.3162940   9.0122100 107.7839020 132.8579310  11.7850140 112.2738910
 133.1120810  11.7471530 111.3518280 131.9091790  11.6583470 112.2667160
 138.8631890   2.7042020 113.8497420 137.9222030   2.7192250 114.0245110
 139.1775960   1.9177980 114.2957720 128.8413530   4.3861620 107.4101380
 129.6076800   4.2742980 107.9726810 128.9188220   3.6899590 106.7578150
 140.8657470   9.8750870 115.5251680 140.9904890  10.6982040 115.9975490
 141.7323030   9.6641600 115.1775830 128.3375000  11.9682080 115.1968810
 129.0737480  11.4197540 115.4677380 128.7215920  12.8338090 115.0574800
 125.2220480   8.0355650 111.0710320 124.2960260   8.2776790 111.0615730
 125.6876910   8.8629910 110.9495070 127.3433280  11.1528150 124.3854390
 128.1446010  11.4740200 124.7989790 126.8285100  10.7923730 125.1074300
 131.4477310  11.1412390 107.0194380 132.2405920  11.4301220 106.5676170
 130.9281660  10.7104560 106.3406860 136.1797910   7.2608020 124.3329800
 135.5736070   7.2839620 123.5925550 135.8752020   6.5291060 124.8697050
 137.6098280  10.9888310 122.9439210 138.5620030  10.9046330 122.8939450
 137.4626500  11.6530020 123.6173000 140.5007480  10.3682520 108.4431120
 140.2148990   9.9547660 107.6285300 140.3027030  11.2970230 108.3231640
 125.0631090   3.6401610 123.3290440 125.5670110   3.0608890 123.9006670
 124.3238510   3.9241840 123.8666810 131.9654710   6.3615800 106.8836730
 131.8605350   5.7468150 107.6098110 131.7978930   5.8381690 106.0999740
 132.1169030   5.0472600 122.8625960 131.3514700   5.6157600 122.7780630
 132.2984990   4.7548810 121.9694190 135.2057440   5.4235830 107.4878720
 134.6567540   5.8705130 108.1321460 135.8276700   4.9185080 108.0116390
 139.2592380   6.7777930 123.4200980 140.0001850   7.1153690 122.9168440
 138.4965060   6.9469990 122.8670750 130.8732560   4.3826750 109.3844020
 131.2948980   4.2166620 110.2275410 130.9983400   3.5726980 108.8899160
 133.3860200   3.4064360 106.6321120 133.9065860   2.6913380 106.2662270
 134.0328600   4.0450230 106.9321630 137.9338040   4.8292760 121.9556190
 138.3479060   4.9837840 122.8046610 136.9989040   4.9547980 122.1181970
 132.6953270   4.7813240 119.9252120 133.1141380   5.6245970 119.7528360
 131.7761900   4.9185280 119.6958900 135.0317170   2.5129420 121.3089960
 135.1513380   1.9170560 122.0484800 135.8911170   2.5499110 120.8891260
 137.3705070   3.0666610 119.8852470 136.8440290   3.5909230 119.2817610
 137.7136410   3.6994000 120.5162200 130.5460690  11.0866250 121.0409850
 130.0081780  11.8112310 120.7218550 130.7994650  10.6096590 120.2507190
 133.4022900  12.3217460 121.2996500 133.3281600  13.2252600 121.6068870
 132.5001740  12.0029360 121.2718570 133.9508230  11.4875970 108.9222860
 134.8459020  11.8260940 108.9441620 133.9825860  10.7655380 108.2947140
 127.5904390   6.8603020 107.1509860 128.0279260   7.4032690 107.8067440
 128.0752120   6.0349970 107.1606200 124.8050190   9.6492050 114.6030120
 125.1353200   8.7813110 114.3708760 125.2341190   9.8550570 115.4335080
 129.4012110   7.9801060 112.2632090 129.1007650   7.8566030 113.1636000
 129.2949600   7.1209650 111.8547820 125.2940400  10.5162640 117.3411750
 124.8571390  10.6963440 118.1735900 125.8618080  11.2737260 117.1993470
 140.9302580  10.0179640 121.6289060 140.3304570  10.0772200 120.8852980
 141.0596480   9.0784620 121.7585910 142.1704030   7.7597460 106.9658770
 141.3396990   7.8274110 107.4366000 142.3475860   8.6501580 106.6625630
 141.6260490   4.5044940 109.4692970 142.3879400   5.0741590 109.5752660
 141.6414860   3.9372140 110.2401280 125.1264830   3.0282870 113.7000630
 124.4713670   2.7594510 113.0560330 125.9642780   2.9187350 113.2502610
 142.6320460   5.3595040 114.3134900 143.0029290   4.5762360 113.9070870
 143.2722390   6.0484140 114.1352200 139.6154220   6.7431620 119.7265220
 138.8014060   7.1728780 119.9891010 140.0228420   7.3550030 119.1134270
 141.6779660   4.7979310 106.6265490 141.9528500   5.7058190 106.4984710
 141.4890400   4.7341840 107.5627480 141.5745000   2.7348300 111.6194920
 141.1988600   1.9676230 111.1876210 140.8448120   3.1171000 112.1069850
 126.1640760   3.4135440 118.2403970 126.5313800   3.3262840 119.1199990
 125.5951580   2.6501990 118.1410830 140.9644620   1.8819820 121.2534440
 140.7330710   1.6532570 120.3532390 141.2249170   2.8019370 121.2079330
 139.6730270  11.4950220 113.2533490 140.2689340  11.1734790 112.5767910
 139.9308420  11.0222040 114.0446760 127.5792840   7.9268130 123.4024120
 127.5362470   7.5561040 124.2838580 127.7103850   8.8645700 123.5425940
 131.2798870   9.4827720 119.0033840 131.0390230   9.7502280 118.1164360
 132.2201510   9.6533450 119.0584700 142.5403030  11.5022100 119.8044480
 142.0461310  11.8990970 119.0871610 141.9316320  10.8771310 120.1981760
 127.4180870  10.8730380 120.5221900 126.8241190  10.7415080 121.2611940
 127.4104710  10.0368520 120.0564000 140.2242480  12.1445520 117.0831220
 139.7645450  12.8961330 116.7089240 139.5954940  11.4251990 117.0246020
 127.0493100   8.2388760 119.4729940 126.3227160   7.6194050 119.4055890
 127.1102250   8.6329370 118.6028020 130.6538200  10.4533760 116.2579350
 131.1703220   9.8421120 115.7327610 131.3035580  10.9562540 116.7490360
 133.3933700  11.3442250 117.0848330 133.6811510  11.0896550 116.2081340
 133.9056920  10.7919610 117.6753900 125.3323100  11.5563150 112.6826700
 125.1645140  10.9233830 113.3808590 124.4657610  11.7622550 112.3320890
 126.9385800  10.2496380 110.1276840 126.4133420  10.6304410 109.4238800
 126.8630380  10.8747150 110.8486550 133.4606060  12.2658350 124.4516530
 134.3873370  12.0302620 124.4952490 133.4456490  13.0930350 123.9702560
 141.6951120  11.8083920 111.4490780 141.8703310  11.1221660 110.8051700
 140.9972690  12.3330970 111.0567450 129.5378770  12.1978760 109.0026090
 130.2697590  11.9138040 108.4549980 129.7972440  11.9592040 109.8925470
 128.6993560   8.3143490 109.0072420 128.0702440   8.7828590 109.5558250
 128.8141390   7.4692710 109.4418610 140.0283620  11.4928210 124.2757570
 140.8208940  10.9977440 124.0683530 140.3216770  12.1718350 124.8833180
 134.2861320   4.1428170  97.0382890 133.5103420   3.6628610  97.3281460
 134.9374250   3.4633820  96.8639050 128.3027150   4.4547980  97.9158650
 127.4712030   4.1996690  98.3155160 128.9108130   4.5258750  98.6516570
 138.3068750   8.5488360  95.8182020 137.8450280   7.7775600  96.1469190
 139.1194300   8.5754430  96.3234470 128.2828410   8.4888070  98.1116670
 128.5856450   7.5985810  97.9326890 129.0272000   9.0458290  97.8838920
 134.5332060  10.8346370  95.4386010 133.9143500  11.2903870  94.8680450
 135.3883840  10.9897830  95.0375710 133.7270310   6.8185360  97.0453050
 133.6578590   5.8775300  96.8842180 134.4890170   6.9086770  97.6175620
 135.3995410   5.7185610  92.8317920 134.7812680   6.1835060  92.2680640
 135.9118660   6.4113090  93.2487430 130.2627170   5.2461480  99.5101520
 129.9296550   5.8730400 100.1522590 130.4393850   5.7723360  98.7303190
 129.4746270   7.2142280 101.3250700 130.0920270   7.8893360 101.0435150
 128.6139390   7.6230260 101.2338200 124.7678610   6.4042140  90.2057550
 124.3906590   6.8929240  89.4742450 125.0251680   7.0767420  90.8364080
 140.3923860   8.6781690  99.2405340 139.7087380   9.3480800  99.2322010
 140.9318150   8.8762340  98.4750200 137.9282600  10.5225820  97.9550520
 137.9409760  10.1188110  97.0872780 137.3757820  11.2973110  97.8511950
 139.2228020   7.2442040  93.0440690 139.1124350   6.3016370  93.1690110
 139.2196270   7.6057680  93.9303450 137.3268040   5.4255660  99.2833130
 137.7436830   5.2115770  98.4486590 138.0507860   5.6828450  99.8541750
 134.7648300   2.8707360  92.4003180 133.8377580   2.8044740  92.6291650
 134.9173120   3.8087490  92.2858420 141.2730140   3.8242880  99.3749370
 140.4448770   3.8935970  98.8999500 141.8680620   4.4097190  98.9065200
 138.7945590   4.4327660  92.9038430 138.1758010   4.0947210  92.2564730
 138.7770040   3.7887420  93.6117620 130.3704940   3.3972100  95.1822910
 129.9661940   2.6849350  94.6868810 130.4568060   3.0525340  96.0710950
 130.8386640   7.0839660  97.3462120 130.5414930   6.4785130  96.6669900
 131.7886460   7.1216970  97.2351480 138.9272250  10.6571530 101.0085220
 138.4502810  11.4643720 100.8157830 138.2434040  10.0049860 101.1611430
 129.9305070   6.8221350 103.9969920 129.0333600   7.0461320 104.2443320
 129.9557940   6.9456290 103.0481320 136.9710290   3.6714470  89.9111180
 137.4103570   2.8336900  89.7649000 137.6838710   4.3043870  89.9975320
 128.7576290   3.6934670 102.5727290 128.6184060   4.5657470 102.9414690
 127.8757650   3.3507480 102.4275230 135.0805670   8.6110540  93.8792420
 135.5201580   9.3534870  93.4647810 135.0192560   8.8537110  94.8031380
 130.5556640   9.6356370 104.7812440 130.5272070  10.0399320 103.9140870
 130.3921610   8.7066730 104.6184040 142.5071460  10.4183470 106.0776610
 142.9831180  10.8966360 106.7565690 143.1278620  10.3500960 105.3522110
 124.7094940   5.4632220  98.4898200 124.7875360   5.5980990  97.5453920
 125.3236620   4.7548110  98.6826320 125.9542570   7.1632410  94.9004380
 125.5470650   7.3047000  94.0457980 126.8455580   6.8792570  94.6975590
 141.9104710   7.6096320 103.2376620 142.0367770   7.3708200 102.3193800
 141.9526090   6.7780860 103.7098700 135.7721450  11.3124320 101.8071430
 136.2866120  11.2232330 102.6093860 134.9290530  11.6584020 102.0999340
 137.7475850  11.5979660  91.2355430 137.5876990  11.3082600  92.1337260
 137.5822560  10.8219790  90.7000660 130.2264230  11.3778190  93.0127050
 130.0506710  10.4613730  92.7994850 129.3719970  11.7365480  93.2524850
 137.4501980   9.1067220  89.7953430 136.7567140   9.1044510  89.1355710
 138.1924840   8.6826540  89.3647600 137.0151910  10.7329930  93.8701920
 137.4708860   9.9519310  94.1840540 137.3544430  11.4436750  94.4143100
 124.7654460   6.5046390 101.0292660 124.9285500   6.0351750 100.2112030
 125.2306910   5.9969950 101.6941500 126.3393440   5.8797820 103.1888470
 125.9548230   5.2391490 103.7871430 126.6505630   6.5833940 103.7583200
 132.4890580   2.7274360  98.6697090 132.8560710   2.2532930  99.4158430
 132.2995640   3.6015930  99.0105430 130.2789950   1.7683000 100.9881300
 129.9747020   2.6474980 101.2131660 131.2336410   1.8282790 101.0238740
 128.8071740   5.9743990  91.5848150 128.0334000   5.4341610  91.4246870
 129.5366370   5.4550600  91.2465910 139.5659720   4.9709350  97.3774540
 140.2858840   5.4664640  96.9870650 139.3641540   4.2927240  96.7328410
 134.9478520   5.0418410 103.2643540 134.8815830   4.1214080 103.0101130
 134.3183660   5.1393850 103.9788180 128.8509140   5.6424370  95.2226960
 129.3687810   4.8392630  95.1683850 128.3993160   5.5803510  96.0643790
 133.7378640   6.9090650  90.4954260 134.0794340   7.6532880  89.9997580
 132.9091350   7.2221770  90.8579090 126.3353680   2.6085740 102.1352660
 125.9768620   3.2739590 102.7226000 126.0408240   1.7769290 102.5065280
 129.5366800   3.0669980 105.0192210 129.2366940   3.2127160 104.1220030
 130.3078040   2.5075270 104.9265600 134.8795250   7.8638980 103.0147340
 134.8939790   6.9319940 102.7966250 134.1720350   7.9498740 103.6537110
 140.0132320   2.0478800  89.2845950 139.9296040   2.4793020  88.4342390
 140.7326510   2.5077150  89.7172770 141.0906460   4.5046320 102.3615920
 140.3654650   5.0975100 102.1645310 141.6181920   4.4969860 101.5629290
 141.0419570   8.9021060  92.0128080 140.3995730   8.2476680  92.2871800
 140.6550230   9.3076150  91.2368750 136.6206050   6.2306490  95.8599770
 136.9729870   5.6334620  95.2001140 135.7368380   5.9050720  96.0308020
 132.7069330   6.9904180  93.2670180 133.3940460   7.5373390  93.6477770
 131.9201750   7.5344910  93.3019790 124.8461730   2.6077000  88.7587260
 125.7156580   2.8901800  89.0423180 124.3552050   3.4212870  88.6436070
 132.0096540   3.9950210  92.8795540 132.4659320   4.8055460  93.1055730
 131.6584750   3.6773350  93.7114030 134.3129150   9.5056550 100.1087840
 134.9571370   9.7115930 100.7861260 134.6758590   8.7444950  99.6558690
 135.5861230   7.5088900  98.8265290 136.2283460   6.8082060  98.9397460
 136.1110580   8.2887340  98.6462180 139.4316950   7.7937520  88.5504430
 139.2054530   7.0767960  89.1429070 139.0413150   7.5449960  87.7126180
 137.3598850   8.3083800 102.0301350 137.6955090   8.8950490 102.7079270
 136.4399190   8.1776510 102.2599140 125.2132980  11.8204380  89.3248890
 125.5730620  12.4193720  88.6706160 125.0725320  12.3664270  90.0983920
 139.0133200   5.7109460  90.2118590 138.7254900   6.1722150  90.9996470
 139.8085370   5.2507230  90.4802810 125.1974840  10.0859240 103.7991290
 125.3065960   9.1453980 103.6586680 124.5455400  10.3513990 103.1505020
 133.1887430   8.3575130 105.1989410 132.8684300   7.6384370 105.7435100
 132.5145790   9.0330200 105.2725470 131.2301600   9.2035580  90.1422560
 131.2211700   9.9365270  89.5267070 130.3099960   8.9567160  90.2349520
 126.8308240   4.4250470  90.8869320 126.2236190   5.1649370  90.8964620
 127.3057590   4.5149830  90.0607520 134.2161200   9.2663820  88.8047750
 134.3173180   9.0627810  87.8749730 133.3162940   9.0122100  89.0095530
 132.8579310  11.7850140  93.4995420 133.1120810  11.7471530  92.5774790
 131.9091790  11.6583470  93.4923670 138.8631890   2.7042020  95.0753930
 137.9222030   2.7192250  95.2501620 139.1775960   1.9177980  95.5214230
 128.8413530   4.3861620  88.6357890 129.6076800   4.2742980  89.1983320
 128.9188220   3.6899590  87.9834660 140.8657470   9.8750870  96.7508190
 140.9904890  10.6982040  97.2232000 141.7323030   9.6641600  96.4032340
 128.3375000  11.9682080  96.4225320 129.0737480  11.4197540  96.6933890
 128.7215920  12.8338090  96.2831310 125.2220480   8.0355650  92.2966830
 124.2960260   8.2776790  92.2872240 125.6876910   8.8629910  92.1751580
 127.3433280  11.1528150 105.6110900 128.1446010  11.4740200 106.0246300
 126.8285100  10.7923730 106.3330810 131.4477310  11.1412390  88.2450890
 132.2405920  11.4301220  87.7932680 130.9281660  10.7104560  87.5663370
 136.1797910   7.2608020 105.5586310 135.5736070   7.2839620 104.8182060
 135.8752020   6.5291060 106.0953560 137.6098280  10.9888310 104.1695720
 138.5620030  10.9046330 104.1195960 137.4626500  11.6530020 104.8429510
 140.5007480  10.3682520  89.6687630 140.2148990   9.9547660  88.8541810
 140.3027030  11.2970230  89.5488150 125.0631090   3.6401610 104.5546950
 125.5670110   3.0608890 105.1263180 124.3238510   3.9241840 105.0923320
 131.9654710   6.3615800  88.1093240 131.8605350   5.7468150  88.8354620
 131.7978930   5.8381690  87.3256250 132.1169030   5.0472600 104.0882470
 131.3514700   5.6157600 104.0037140 132.2984990   4.7548810 103.1950700
 135.2057440   5.4235830  88.7135230 134.6567540   5.8705130  89.3577970
 135.8276700   4.9185080  89.2372900 139.2592380   6.7777930 104.6457490
 140.0001850   7.1153690 104.1424950 138.4965060   6.9469990 104.0927260
 130.8732560   4.3826750  90.6100530 131.2948980   4.2166620  91.4531920
 130.9983400   3.5726980  90.1155670 133.3860200   3.4064360  87.8577630
 133.9065860   2.6913380  87.4918780 134.0328600   4.0450230  88.1578140
 137.9338040   4.8292760 103.1812700 138.3479060   4.9837840 104.0303120
 136.9989040   4.9547980 103.3438480 132.6953270   4.7813240 101.1508630
 133.1141380   5.6245970 100.9784870 131.7761900   4.9185280 100.9215410
 135.0317170   2.5129420 102.5346470 135.1513380   1.9170560 103.2741310
 135.8911170   2.5499110 102.1147770 137.3705070   3.0666610 101.1108980
 136.8440290   3.5909230 100.5074120 137.7136410   3.6994000 101.7418710
 130.5460690  11.0866250 102.2666360 130.0081780  11.8112310 101.9475060
 130.7994650  10.6096590 101.4763700 133.4022900  12.3217460 102.5253010
 133.3281600  13.2252600 102.8325380 132.5001740  12.0029360 102.4975080
 133.9508230  11.4875970  90.1479370 134.8459020  11.8260940  90.1698130
 133.9825860  10.7655380  89.5203650 127.5904390   6.8603020  88.3766370
 128.0279260   7.4032690  89.0323950 128.0752120   6.0349970  88.3862710
 124.8050190   9.6492050  95.8286630 125.1353200   8.7813110  95.5965270
 125.2341190   9.8550570  96.6591590 129.4012110   7.9801060  93.4888600
 129.1007650   7.8566030  94.3892510 129.2949600   7.1209650  93.0804330
 125.2940400  10.5162640  98.5668260 124.8571390  10.6963440  99.3992410
 125.8618080  11.2737260  98.4249980 140.9302580  10.0179640 102.8545570
 140.3304570  10.0772200 102.1109490 141.0596480   9.0784620 102.9842420
 142.1704030   7.7597460  88.1915280 141.3396990   7.8274110  88.6622510
 142.3475860   8.6501580  87.8882140 141.6260490   4.5044940  90.6949480
 142.3879400   5.0741590  90.8009170 141.6414860   3.9372140  91.4657790
 125.1264830   3.0282870  94.9257140 124.4713670   2.7594510  94.2816840
 125.9642780   2.9187350  94.4759120 142.6320460   5.3595040  95.5391410
 143.0029290   4.5762360  95.1327380 143.2722390   6.0484140  95.3608710
 139.6154220   6.7431620 100.9521730 138.8014060   7.1728780 101.2147520
 140.0228420   7.3550030 100.3390780 141.6779660   4.7979310  87.8522000
 141.9528500   5.7058190  87.7241220 141.4890400   4.7341840  88.7883990
 141.5745000   2.7348300  92.8451430 141.1988600   1.9676230  92.4132720
 140.8448120   3.1171000  93.3326360 126.1640760   3.4135440  99.4660480
 126.5313800   3.3262840 100.3456500 125.5951580   2.6501990  99.3667340
 140.9644620   1.8819820 102.4790950 140.7330710   1.6532570 101.5788900
 141.2249170   2.8019370 102.4335840 139.6730270  11.4950220  94.4790000
 140.2689340  11.1734790  93.8024420 139.9308420  11.0222040  95.2703270
 127.5792840   7.9268130 104.6280630 127.5362470   7.5561040 105.5095090
 127.7103850   8.8645700 104.7682450 131.2798870   9.4827720 100.2290350
 131.0390230   9.7502280  99.3420870 132.2201510   9.6533450 100.2841210
 142.5403030  11.5022100 101.0300990 142.0461310  11.8990970 100.3128120
 141.9316320  10.8771310 101.4238270 127.4180870  10.8730380 101.7478410
 126.8241190  10.7415080 102.4868450 127.4104710  10.0368520 101.2820510
 140.2242480  12.1445520  98.3087730 139.7645450  12.8961330  97.9345750
 139.5954940  11.4251990  98.2502530 127.0493100   8.2388760 100.6986450
 126.3227160   7.6194050 100.6312400 127.1102250   8.6329370  99.8284530
 130.6538200  10.4533760  97.4835860 131.1703220   9.8421120  96.9584120
 131.3035580  10.9562540  97.9746870 133.3933700  11.3442250  98.3104840
 133.6811510  11.0896550  97.4337850 133.9056920  10.7919610  98.9010410
 125.3323100  11.5563150  93.9083210 125.1645140  10.9233830  94.6065100
 124.4657610  11.7622550  93.5577400 126.9385800  10.2496380  91.3533350
 126.4133420  10.6304410  90.6495310 126.8630380  10.8747150  92.0743060
 133.4606060  12.2658350 105.6773040 134.3873370  12.0302620 105.7209000
 133.4456490  13.0930350 105.1959070 141.6951120  11.8083920  92.6747290
 141.8703310  11.1221660  92.0308210 140.9972690  12.3330970  92.2823960
 129.5378770  12.1978760  90.2282600 130.2697590  11.9138040  89.6806490
 129.7972440  11.9592040  91.1181980 128.6993560   8.3143490  90.2328930
 128.0702440   8.7828590  90.7814760 128.8141390   7.4692710  90.6675120
 140.0283620  11.4928210 105.5014080 140.8208940  10.9977440 105.2940040
 140.3216770  12.1718350 106.1089690 134.2861320   4.1428170  78.2639400
 133.5103420   3.6628610  78.5537970 134.9374250   3.4633820  78.0895560
 128.3027150   4.4547980  79.1415160 127.4712030   4.1996690  79.5411670
 128.9108130   4.5258750  79.8773080 138.3068750   8.5488360  77.0438530
 137.8450280   7.7775600  77.3725700 139.1194300   8.5754430  77.5490980
 128.2828410   8.4888070  79.3373180 128.5856450   7.5985810  79.1583400
 129.0272000   9.0458290  79.1095430 134.5332060  10.8346370  76.6642520
 133.9143500  11.2903870  76.0936960 135.3883840  10.9897830  76.2632220
 133.7270310   6.8185360  78.2709560 133.6578590   5.8775300  78.1098690
 134.4890170   6.9086770  78.8432130 135.3995410   5.7185610  74.0574430
 134.7812680   6.1835060  73.4937150 135.9118660   6.4113090  74.4743940
 130.2627170   5.2461480  80.7358030 129.9296550   5.8730400  81.3779100
 130.4393850   5.7723360  79.9559700 129.4746270   7.2142280  82.5507210
 130.0920270   7.8893360  82.2691660 128.6139390   7.6230260  82.4594710
 124.7678610   6.4042140  71.4314060 124.3906590   6.8929240  70.6998960
 125.0251680   7.0767420  72.0620590 140.3923860   8.6781690  80.4661850
 139.7087380   9.3480800  80.4578520 140.9318150   8.8762340  79.7006710
 137.9282600  10.5225820  79.1807030 137.9409760  10.1188110  78.3129290
 137.3757820  11.2973110  79.0768460 139.2228020   7.2442040  74.2697200
 139.1124350   6.3016370  74.3946620 139.2196270   7.6057680  75.1559960
 137.3268040   5.4255660  80.5089640 137.7436830   5.2115770  79.6743100
 138.0507860   5.6828450  81.0798260 134.7648300   2.8707360  73.6259690
 133.8377580   2.8044740  73.8548160 134.9173120   3.8087490  73.5114930
 141.2730140   3.8242880  80.6005880 140.4448770   3.8935970  80.1256010
 141.8680620   4.4097190  80.1321710 138.7945590   4.4327660  74.1294940
 138.1758010   4.0947210  73.4821240 138.7770040   3.7887420  74.8374130
 130.3704940   3.3972100  76.4079420 129.9661940   2.6849350  75.9125320
 130.4568060   3.0525340  77.2967460 130.8386640   7.0839660  78.5718630
 130.5414930   6.4785130  77.8926410 131.7886460   7.1216970  78.4607990
 138.9272250  10.6571530  82.2341730 138.4502810  11.4643720  82.0414340
 138.2434040  10.0049860  82.3867940 129.9305070   6.8221350  85.2226430
 129.0333600   7.0461320  85.4699830 129.9557940   6.9456290  84.2737830
 136.9710290   3.6714470  71.1367690 137.4103570   2.8336900  70.9905510
 137.6838710   4.3043870  71.2231830 128.7576290   3.6934670  83.7983800
 128.6184060   4.5657470  84.1671200 127.8757650   3.3507480  83.6531740
 135.0805670   8.6110540  75.1048930 135.5201580   9.3534870  74.6904320
 135.0192560   8.8537110  76.0287890 130.5556640   9.6356370  86.0068950
 130.5272070  10.0399320  85.1397380 130.3921610   8.7066730  85.8440550
 142.5071460  10.4183470  87.3033120 142.9831180  10.8966360  87.9822200
 143.1278620  10.3500960  86.5778620 124.7094940   5.4632220  79.7154710
 124.7875360   5.5980990  78.7710430 125.3236620   4.7548110  79.9082830
 125.9542570   7.1632410  76.1260890 125.5470650   7.3047000  75.2714490
 126.8455580   6.8792570  75.9232100 141.9104710   7.6096320  84.4633130
 142.0367770   7.3708200  83.5450310 141.9526090   6.7780860  84.9355210
 135.7721450  11.3124320  83.0327940 136.2866120  11.2232330  83.8350370
 134.9290530  11.6584020  83.3255850 137.7475850  11.5979660  72.4611940
 137.5876990  11.3082600  73.3593770 137.5822560  10.8219790  71.9257170
 130.2264230  11.3778190  74.2383560 130.0506710  10.4613730  74.0251360
 129.3719970  11.7365480  74.4781360 137.4501980   9.1067220  71.0209940
 136.7567140   9.1044510  70.3612220 138.1924840   8.6826540  70.5904110
 137.0151910  10.7329930  75.0958430 137.4708860   9.9519310  75.4097050
 137.3544430  11.4436750  75.6399610 124.7654460   6.5046390  82.2549170
 124.9285500   6.0351750  81.4368540 125.2306910   5.9969950  82.9198010
 126.3393440   5.8797820  84.4144980 125.9548230   5.2391490  85.0127940
 126.6505630   6.5833940  84.9839710 132.4890580   2.7274360  79.8953600
 132.8560710   2.2532930  80.6414940 132.2995640   3.6015930  80.2361940
 130.2789950   1.7683000  82.2137810 129.9747020   2.6474980  82.4388170
 131.2336410   1.8282790  82.2495250 128.8071740   5.9743990  72.8104660
 128.0334000   5.4341610  72.6503380 129.5366370   5.4550600  72.4722420
 139.5659720   4.9709350  78.6031050 140.2858840   5.4664640  78.2127160
 139.3641540   4.2927240  77.9584920 134.9478520   5.0418410  84.4900050
 134.8815830   4.1214080  84.2357640 134.3183660   5.1393850  85.2044690
 128.8509140   5.6424370  76.4483470 129.3687810   4.8392630  76.3940360
 128.3993160   5.5803510  77.2900300 133.7378640   6.9090650  71.7210770
 134.0794340   7.6532880  71.2254090 132.9091350   7.2221770  72.0835600
 126.3353680   2.6085740  83.3609170 125.9768620   3.2739590  83.9482510
 126.0408240   1.7769290  83.7321790 129.5366800   3.0669980  86.2448720
 129.2366940   3.2127160  85.3476540 130.3078040   2.5075270  86.1522110
 134.8795250   7.8638980  84.2403850 134.8939790   6.9319940  84.0222760
 134.1720350   7.9498740  84.8793620 140.0132320   2.0478800  70.5102460
 139.9296040   2.4793020  69.6598900 140.7326510   2.5077150  70.9429280
 141.0906460   4.5046320  83.5872430 140.3654650   5.0975100  83.3901820
 141.6181920   4.4969860  82.7885800 141.0419570   8.9021060  73.2384590
 140.3995730   8.2476680  73.5128310 140.6550230   9.3076150  72.4625260
 136.6206050   6.2306490  77.0856280 136.9729870   5.6334620  76.4257650
 135.7368380   5.9050720  77.2564530 132.7069330   6.9904180  74.4926690
 133.3940460   7.5373390  74.8734280 131.9201750   7.5344910  74.5276300
 124.8461730   2.6077000  69.9843770 125.7156580   2.8901800  70.2679690
 124.3552050   3.4212870  69.8692580 132.0096540   3.9950210  74.1052050
 132.4659320   4.8055460  74.3312240 131.6584750   3.6773350  74.9370540
 134.3129150   9.5056550  81.3344350 134.9571370   9.7115930  82.0117770
 134.6758590   8.7444950  80.8815200 135.5861230   7.5088900  80.0521800
 136.2283460   6.8082060  80.1653970 136.1110580   8.2887340  79.8718690
 139.4316950   7.7937520  69.7760940 139.2054530   7.0767960  70.3685580
 139.0413150   7.5449960  68.9382690 137.3598850   8.3083800  83.2557860
 137.6955090   8.8950490  83.9335780 136.4399190   8.1776510  83.4855650
 125.2132980  11.8204380  70.5505400 125.5730620  12.4193720  69.8962670
 125.0725320  12.3664270  71.3240430 139.0133200   5.7109460  71.4375100
 138.7254900   6.1722150  72.2252980 139.8085370   5.2507230  71.7059320
 125.1974840  10.0859240  85.0247800 125.3065960   9.1453980  84.8843190
 124.5455400  10.3513990  84.3761530 133.1887430   8.3575130  86.4245920
 132.8684300   7.6384370  86.9691610 132.5145790   9.0330200  86.4981980
 131.2301600   9.2035580  71.3679070 131.2211700   9.9365270  70.7523580
 130.3099960   8.9567160  71.4606030 126.8308240   4.4250470  72.1125830
 126.2236190   5.1649370  72.1221130 127.3057590   4.5149830  71.2864030
 134.2161200   9.2663820  70.0304260 134.3173180   9.0627810  69.1006240
 133.3162940   9.0122100  70.2352040 132.8579310  11.7850140  74.7251930
 133.1120810  11.7471530  73.8031300 131.9091790  11.6583470  74.7180180
 138.8631890   2.7042020  76.3010440 137.9222030   2.7192250  76.4758130
 139.1775960   1.9177980  76.7470740 128.8413530   4.3861620  69.8614400
 129.6076800   4.2742980  70.4239830 128.9188220   3.6899590  69.2091170
 140.8657470   9.8750870  77.9764700 140.9904890  10.6982040  78.4488510
 141.7323030   9.6641600  77.6288850 128.3375000  11.9682080  77.6481830
 129.0737480  11.4197540  77.9190400 128.7215920  12.8338090  77.5087820
 125.2220480   8.0355650  73.5223340 124.2960260   8.2776790  73.5128750
 125.6876910   8.8629910  73.4008090 127.3433280  11.1528150  86.8367410
 128.1446010  11.4740200  87.2502810 126.8285100  10.7923730  87.5587320
 131.4477310  11.1412390  69.4707400 132.2405920  11.4301220  69.0189190
 130.9281660  10.7104560  68.7919880 136.1797910   7.2608020  86.7842820
 135.5736070   7.2839620  86.0438570 135.8752020   6.5291060  87.3210070
 137.6098280  10.9888310  85.3952230 138.5620030  10.9046330  85.3452470
 137.4626500  11.6530020  86.0686020 140.5007480  10.3682520  70.8944140
 140.2148990   9.9547660  70.0798320 140.3027030  11.2970230  70.7744660
 125.0631090   3.6401610  85.7803460 125.5670110   3.0608890  86.3519690
 124.3238510   3.9241840  86.3179830 131.9654710   6.3615800  69.3349750
 131.8605350   5.7468150  70.0611130 131.7978930   5.8381690  68.5512760
 132.1169030   5.0472600  85.3138980 131.3514700   5.6157600  85.2293650
 132.2984990   4.7548810  84.4207210 135.2057440   5.4235830  69.9391740
 134.6567540   5.8705130  70.5834480 135.8276700   4.9185080  70.4629410
 139.2592380   6.7777930  85.8714000 140.0001850   7.1153690  85.3681460
 138.4965060   6.9469990  85.3183770 130.8732560   4.3826750  71.8357040
 131.2948980   4.2166620  72.6788430 130.9983400   3.5726980  71.3412180
 133.3860200   3.4064360  69.0834140 133.9065860   2.6913380  68.7175290
 134.0328600   4.0450230  69.3834650 137.9338040   4.8292760  84.4069210
 138.3479060   4.9837840  85.2559630 136.9989040   4.9547980  84.5694990
 132.6953270   4.7813240  82.3765140 133.1141380   5.6245970  82.2041380
 131.7761900   4.9185280  82.1471920 135.0317170   2.5129420  83.7602980
 135.1513380   1.9170560  84.4997820 135.8911170   2.5499110  83.3404280
 137.3705070   3.0666610  82.3365490 136.8440290   3.5909230  81.7330630
 137.7136410   3.6994000  82.9675220 130.5460690  11.0866250  83.4922870
 130.0081780  11.8112310  83.1731570 130.7994650  10.6096590  82.7020210
 133.4022900  12.3217460  83.7509520 133.3281600  13.2252600  84.0581890
 132.5001740  12.0029360  83.7231590 133.9508230  11.4875970  71.3735880
 134.8459020  11.8260940  71.3954640 133.9825860  10.7655380  70.7460160
 127.5904390   6.8603020  69.6022880 128.0279260   7.4032690  70.2580460
 128.0752120   6.0349970  69.6119220 124.8050190   9.6492050  77.0543140
 125.1353200   8.7813110  76.8221780 125.2341190   9.8550570  77.8848100
 129.4012110   7.9801060  74.7145110 129.1007650   7.8566030  75.6149020
 129.2949600   7.1209650  74.3060840 125.2940400  10.5162640  79.7924770
 124.8571390  10.6963440  80.6248920 125.8618080  11.2737260  79.6506490
 140.9302580  10.0179640  84.0802080 140.3304570  10.0772200  83.3366000
 141.0596480   9.0784620  84.2098930 142.1704030   7.7597460  69.4171790
 141.3396990   7.8274110  69.8879020 142.3475860   8.6501580  69.1138650
 141.6260490   4.5044940  71.9205990 142.3879400   5.0741590  72.0265680
 141.6414860   3.9372140  72.6914300 125.1264830   3.0282870  76.1513650
 124.4713670   2.7594510  75.5073350 125.9642780   2.9187350  75.7015630
 142.6320460   5.3595040  76.7647920 143.0029290   4.5762360  76.3583890
 143.2722390   6.0484140  76.5865220 139.6154220   6.7431620  82.1778240
 138.8014060   7.1728780  82.4404030 140.0228420   7.3550030  81.5647290
 141.6779660   4.7979310  69.0778510 141.9528500   5.7058190  68.9497730
 141.4890400   4.7341840  70.0140500 141.5745000   2.7348300  74.0707940
 141.1988600   1.9676230  73.6389230 140.8448120   3.1171000  74.5582870
 126.1640760   3.4135440  80.6916990 126.5313800   3.3262840  81.5713010
 125.5951580   2.6501990  80.5923850 140.9644620   1.8819820  83.7047460
 140.7330710   1.6532570  82.8045410 141.2249170   2.8019370  83.6592350
 139.6730270  11.4950220  75.7046510 140.2689340  11.1734790  75.0280930
 139.9308420  11.0222040  76.4959780 127.5792840   7.9268130  85.8537140
 127.5362470   7.5561040  86.7351600 127.7103850   8.8645700  85.9938960
 131.2798870   9.4827720  81.4546860 131.0390230   9.7502280  80.5677380
 132.2201510   9.6533450  81.5097720 142.5403030  11.5022100  82.2557500
 142.0461310  11.8990970  81.5384630 141.9316320  10.8771310  82.6494780
 127.4180870  10.8730380  82.9734920 126.8241190  10.7415080  83.7124960
 127.4104710  10.0368520  82.5077020 140.2242480  12.1445520  79.5344240
 139.7645450  12.8961330  79.1602260 139.5954940  11.4251990  79.4759040
 127.0493100   8.2388760  81.9242960 126.3227160   7.6194050  81.8568910
 127.1102250   8.6329370  81.0541040 130.6538200  10.4533760  78.7092370
 131.1703220   9.8421120  78.1840630 131.3035580  10.9562540  79.2003380
 133.3933700  11.3442250  79.5361350 133.6811510  11.0896550  78.6594360
 133.9056920  10.7919610  80.1266920 125.3323100  11.5563150  75.1339720
 125.1645140  10.9233830  75.8321610 124.4657610  11.7622550  74.7833910
 126.9385800  10.2496380  72.5789860 126.4133420  10.6304410  71.8751820
 126.8630380  10.8747150  73.2999570 133.4606060  12.2658350  86.9029550
 134.3873370  12.0302620  86.9465510 133.4456490  13.0930350  86.4215580
 141.6951120  11.8083920  73.9003800 141.8703310  11.1221660  73.2564720
 140.9972690  12.3330970  73.5080470 129.5378770  12.1978760  71.4539110
 130.2697590  11.9138040  70.9063000 129.7972440  11.9592040  72.3438490
 128.6993560   8.3143490  71.4585440 128.0702440   8.7828590  72.0071270
 128.8141390   7.4692710  71.8931630 140.0283620  11.4928210  86.7270590
 140.8208940  10.9977440  86.5196550 140.3216770  12.1718350  87.3346200
 134.2861320   4.1428170  59.4895910 133.5103420   3.6628610  59.7794480
 134.9374250   3.4633820  59.3152070 128.3027150   4.4547980  60.3671670
 127.4712030   4.1996690  60.7668180 128.9108130   4.5258750  61.1029590
 138.3068750   8.5488360  58.2695040 137.8450280   7.7775600  58.5982210
 139.1194300   8.5754430  58.7747490 128.2828410   8.4888070  60.5629690
 128.5856450   7.5985810  60.3839910 129.0272000   9.0458290  60.3351940
 134.5332060  10.8346370  57.8899030 133.9143500  11.2903870  57.3193470
 135.3883840  10.9897830  57.4888730 133.7270310   6.8185360  59.4966070
 133.6578590   5.8775300  59.3355200 134.4890170   6.9086770  60.0688640
 135.3995410   5.7185610  55.2830940 134.7812680   6.1835060  54.7193660
 135.9118660   6.4113090  55.7000450 130.2627170   5.2461480  61.9614540
 129.9296550   5.8730400  62.6035610 130.4393850   5.7723360  61.1816210
 129.4746270   7.2142280  63.7763720 130.0920270   7.8893360  63.4948170
 128.6139390   7.6230260  63.6851220 124.7678610   6.4042140  52.6570570
 124.3906590   6.8929240  51.9255470 125.0251680   7.0767420  53.2877100
 140.3923860   8.6781690  61.6918360 139.7087380   9.3480800  61.6835030
 140.9318150   8.8762340  60.9263220 137.9282600  10.5225820  60.4063540
 137.9409760  10.1188110  59.5385800 137.3757820  11.2973110  60.3024970
 139.2228020   7.2442040  55.4953710 139.1124350   6.3016370  55.6203130
 139.2196270   7.6057680  56.3816470 137.3268040   5.4255660  61.7346150
 137.7436830   5.2115770  60.8999610 138.0507860   5.6828450  62.3054770
 134.7648300   2.8707360  54.8516200 133.8377580   2.8044740  55.0804670
 134.9173120   3.8087490  54.7371440 141.2730140   3.8242880  61.8262390
 140.4448770   3.8935970  61.3512520 141.8680620   4.4097190  61.3578220
 138.7945590   4.4327660  55.3551450 138.1758010   4.0947210  54.7077750
 138.7770040   3.7887420  56.0630640 130.3704940   3.3972100  57.6335930
 129.9661940   2.6849350  57.1381830 130.4568060   3.0525340  58.5223970
 130.8386640   7.0839660  59.7975140 130.5414930   6.4785130  59.1182920
 131.7886460   7.1216970  59.6864500 138.9272250  10.6571530  63.4598240
 138.4502810  11.4643720  63.2670850 138.2434040  10.0049860  63.6124450
 129.9305070   6.8221350  66.4482940 129.0333600   7.0461320  66.6956340
 129.9557940   6.9456290  65.4994340 136.9710290   3.6714470  52.3624200
 137.4103570   2.8336900  52.2162020 137.6838710   4.3043870  52.4488340
 128.7576290   3.6934670  65.0240310 128.6184060   4.5657470  65.3927710
 127.8757650   3.3507480  64.8788250 135.0805670   8.6110540  56.3305440
 135.5201580   9.3534870  55.9160830 135.0192560   8.8537110  57.2544400
 130.5556640   9.6356370  67.2325460 130.5272070  10.0399320  66.3653890
 130.3921610   8.7066730  67.0697060 142.5071460  10.4183470  68.5289630
 142.9831180  10.8966360  69.2078710 143.1278620  10.3500960  67.8035130
 124.7094940   5.4632220  60.9411220 124.7875360   5.5980990  59.9966940
 125.3236620   4.7548110  61.1339340 125.9542570   7.1632410  57.3517400
 125.5470650   7.3047000  56.4971000 126.8455580   6.8792570  57.1488610
 141.9104710   7.6096320  65.6889640 142.0367770   7.3708200  64.7706820
 141.9526090   6.7780860  66.1611720 135.7721450  11.3124320  64.2584450
 136.2866120  11.2232330  65.0606880 134.9290530  11.6584020  64.5512360
 137.7475850  11.5979660  53.6868450 137.5876990  11.3082600  54.5850280
 137.5822560  10.8219790  53.1513680 130.2264230  11.3778190  55.4640070
 130.0506710  10.4613730  55.2507870 129.3719970  11.7365480  55.7037870
 137.4501980   9.1067220  52.2466450 136.7567140   9.1044510  51.5868730
 138.1924840   8.6826540  51.8160620 137.0151910  10.7329930  56.3214940
 137.4708860   9.9519310  56.6353560 137.3544430  11.4436750  56.8656120
 124.7654460   6.5046390  63.4805680 124.9285500   6.0351750  62.6625050
 125.2306910   5.9969950  64.1454520 126.3393440   5.8797820  65.6401490
 125.9548230   5.2391490  66.2384450 126.6505630   6.5833940  66.2096220
 132.4890580   2.7274360  61.1210110 132.8560710   2.2532930  61.8671450
 132.2995640   3.6015930  61.4618450 130.2789950   1.7683000  63.4394320
 129.9747020   2.6474980  63.6644680 131.2336410   1.8282790  63.4751760
 128.8071740   5.9743990  54.0361170 128.0334000   5.4341610  53.8759890
 129.5366370   5.4550600  53.6978930 139.5659720   4.9709350  59.8287560
 140.2858840   5.4664640  59.4383670 139.3641540   4.2927240  59.1841430
 134.9478520   5.0418410  65.7156560 134.8815830   4.1214080  65.4614150
 134.3183660   5.1393850  66.4301200 128.8509140   5.6424370  57.6739980
 129.3687810   4.8392630  57.6196870 128.3993160   5.5803510  58.5156810
 133.7378640   6.9090650  52.9467280 134.0794340   7.6532880  52.4510600
 132.9091350   7.2221770  53.3092110 126.3353680   2.6085740  64.5865680
 125.9768620   3.2739590  65.1739020 126.0408240   1.7769290  64.9578300
 129.5366800   3.0669980  67.4705230 129.2366940   3.2127160  66.5733050
 130.3078040   2.5075270  67.3778620 134.8795250   7.8638980  65.4660360
 134.8939790   6.9319940  65.2479270 134.1720350   7.9498740  66.1050130
 140.0132320   2.0478800  51.7358970 139.9296040   2.4793020  50.8855410
 140.7326510   2.5077150  52.1685790 141.0906460   4.5046320  64.8128940
 140.3654650   5.0975100  64.6158330 141.6181920   4.4969860  64.0142310
 141.0419570   8.9021060  54.4641100 140.3995730   8.2476680  54.7384820
 140.6550230   9.3076150  53.6881770 136.6206050   6.2306490  58.3112790
 136.9729870   5.6334620  57.6514160 135.7368380   5.9050720  58.4821040
 132.7069330   6.9904180  55.7183200 133.3940460   7.5373390  56.0990790
 131.9201750   7.5344910  55.7532810 124.8461730   2.6077000  51.2100280
 125.7156580   2.8901800  51.4936200 124.3552050   3.4212870  51.0949090
 132.0096540   3.9950210  55.3308560 132.4659320   4.8055460  55.5568750
 131.6584750   3.6773350  56.1627050 134.3129150   9.5056550  62.5600860
 134.9571370   9.7115930  63.2374280 134.6758590   8.7444950  62.1071710
 135.5861230   7.5088900  61.2778310 136.2283460   6.8082060  61.3910480
 136.1110580   8.2887340  61.0975200 139.4316950   7.7937520  51.0017450
 139.2054530   7.0767960  51.5942090 139.0413150   7.5449960  50.1639200
 137.3598850   8.3083800  64.4814370 137.6955090   8.8950490  65.1592290
 136.4399190   8.1776510  64.7112160 125.2132980  11.8204380  51.7761910
 125.5730620  12.4193720  51.1219180 125.0725320  12.3664270  52.5496940
 139.0133200   5.7109460  52.6631610 138.7254900   6.1722150  53.4509490
 139.8085370   5.2507230  52.9315830 125.1974840  10.0859240  66.2504310
 125.3065960   9.1453980  66.1099700 124.5455400  10.3513990  65.6018040
 133.1887430   8.3575130  67.6502430 132.8684300   7.6384370  68.1948120
 132.5145790   9.0330200  67.7238490 131.2301600   9.2035580  52.5935580
 131.2211700   9.9365270  51.9780090 130.3099960   8.9567160  52.6862540
 126.8308240   4.4250470  53.3382340 126.2236190   5.1649370  53.3477640
 127.3057590   4.5149830  52.5120540 134.2161200   9.2663820  51.2560770
 134.3173180   9.0627810  50.3262750 133.3162940   9.0122100  51.4608550
 132.8579310  11.7850140  55.9508440 133.1120810  11.7471530  55.0287810
 131.9091790  11.6583470  55.9436690 138.8631890   2.7042020  57.5266950
 137.9222030   2.7192250  57.7014640 139.1775960   1.9177980  57.9727250
 128.8413530   4.3861620  51.0870910 129.6076800   4.2742980  51.6496340
 128.9188220   3.6899590  50.4347680 140.8657470   9.8750870  59.2021210
 140.9904890  10.6982040  59.6745020 141.7323030   9.6641600  58.8545360
 128.3375000  11.9682080  58.8738340 129.0737480  11.4197540  59.1446910
 128.7215920  12.8338090  58.7344330 125.2220480   8.0355650  54.7479850
 124.2960260   8.2776790  54.7385260 125.6876910   8.8629910  54.6264600
 127.3433280  11.1528150  68.0623920 128.1446010  11.4740200  68.4759320
 126.8285100  10.7923730  68.7843830 131.4477310  11.1412390  50.6963910
 132.2405920  11.4301220  50.2445700 130.9281660  10.7104560  50.0176390
 136.1797910   7.2608020  68.0099330 135.5736070   7.2839620  67.2695080
 135.8752020   6.5291060  68.5466580 137.6098280  10.9888310  66.6208740
 138.5620030  10.9046330  66.5708980 137.4626500  11.6530020  67.2942530
 140.5007480  10.3682520  52.1200650 140.2148990   9.9547660  51.3054830
 140.3027030  11.2970230  52.0001170 125.0631090   3.6401610  67.0059970
 125.5670110   3.0608890  67.5776200 124.3238510   3.9241840  67.5436340
 131.9654710   6.3615800  50.5606260 131.8605350   5.7468150  51.2867640
 131.7978930   5.8381690  49.7769270 132.1169030   5.0472600  66.5395490
 131.3514700   5.6157600  66.4550160 132.2984990   4.7548810  65.6463720
 135.2057440   5.4235830  51.1648250 134.6567540   5.8705130  51.8090990
 135.8276700   4.9185080  51.6885920 139.2592380   6.7777930  67.0970510
 140.0001850   7.1153690  66.5937970 138.4965060   6.9469990  66.5440280
 130.8732560   4.3826750  53.0613550 131.2948980   4.2166620  53.9044940
 130.9983400   3.5726980  52.5668690 133.3860200   3.4064360  50.3090650
 133.9065860   2.6913380  49.9431800 134.0328600   4.0450230  50.6091160
 137.9338040   4.8292760  65.6325720 138.3479060   4.9837840  66.4816140
 136.9989040   4.9547980  65.7951500 132.6953270   4.7813240  63.6021650
 133.1141380   5.6245970  63.4297890 131.7761900   4.9185280  63.3728430
 135.0317170   2.5129420  64.9859490 135.1513380   1.9170560  65.7254330
 135.8911170   2.5499110  64.5660790 137.3705070   3.0666610  63.5622000
 136.8440290   3.5909230  62.9587140 137.7136410   3.6994000  64.1931730
 130.5460690  11.0866250  64.7179380 130.0081780  11.8112310  64.3988080
 130.7994650  10.6096590  63.9276720 133.4022900  12.3217460  64.9766030
 133.3281600  13.2252600  65.2838400 132.5001740  12.0029360  64.9488100
 133.9508230  11.4875970  52.5992390 134.8459020  11.8260940  52.6211150
 133.9825860  10.7655380  51.9716670 127.5904390   6.8603020  50.8279390
 128.0279260   7.4032690  51.4836970 128.0752120   6.0349970  50.8375730
 124.8050190   9.6492050  58.2799650 125.1353200   8.7813110  58.0478290
 125.2341190   9.8550570  59.1104610 129.4012110   7.9801060  55.9401620
 129.1007650   7.8566030  56.8405530 129.2949600   7.1209650  55.5317350
 125.2940400  10.5162640  61.0181280 124.8571390  10.6963440  61.8505430
 125.8618080  11.2737260  60.8763000 140.9302580  10.0179640  65.3058590
 140.3304570  10.0772200  64.5622510 141.0596480   9.0784620  65.4355440
 142.1704030   7.7597460  50.6428300 141.3396990   7.8274110  51.1135530
 142.3475860   8.6501580  50.3395160 141.6260490   4.5044940  53.1462500
 142.3879400   5.0741590  53.2522190 141.6414860   3.9372140  53.9170810
 125.1264830   3.0282870  57.3770160 124.4713670   2.7594510  56.7329860
 125.9642780   2.9187350  56.9272140 142.6320460   5.3595040  57.9904430
 143.0029290   4.5762360  57.5840400 143.2722390   6.0484140  57.8121730
 139.6154220   6.7431620  63.4034750 138.8014060   7.1728780  63.6660540
 140.0228420   7.3550030  62.7903800 141.6779660   4.7979310  50.3035020
 141.9528500   5.7058190  50.1754240 141.4890400   4.7341840  51.2397010
 141.5745000   2.7348300  55.2964450 141.1988600   1.9676230  54.8645740
 140.8448120   3.1171000  55.7839380 126.1640760   3.4135440  61.9173500
 126.5313800   3.3262840  62.7969520 125.5951580   2.6501990  61.8180360
 140.9644620   1.8819820  64.9303970 140.7330710   1.6532570  64.0301920
 141.2249170   2.8019370  64.8848860 139.6730270  11.4950220  56.9303020
 140.2689340  11.1734790  56.2537440 139.9308420  11.0222040  57.7216290
 127.5792840   7.9268130  67.0793650 127.5362470   7.5561040  67.9608110
 127.7103850   8.8645700  67.2195470 131.2798870   9.4827720  62.6803370
 131.0390230   9.7502280  61.7933890 132.2201510   9.6533450  62.7354230
 142.5403030  11.5022100  63.4814010 142.0461310  11.8990970  62.7641140
 141.9316320  10.8771310  63.8751290 127.4180870  10.8730380  64.1991430
 126.8241190  10.7415080  64.9381470 127.4104710  10.0368520  63.7333530
 140.2242480  12.1445520  60.7600750 139.7645450  12.8961330  60.3858770
 139.5954940  11.4251990  60.7015550 127.0493100   8.2388760  63.1499470
 126.3227160   7.6194050  63.0825420 127.1102250   8.6329370  62.2797550
 130.6538200  10.4533760  59.9348880 131.1703220   9.8421120  59.4097140
 131.3035580  10.9562540  60.4259890 133.3933700  11.3442250  60.7617860
 133.6811510  11.0896550  59.8850870 133.9056920  10.7919610  61.3523430
 125.3323100  11.5563150  56.3596230 125.1645140  10.9233830  57.0578120
 124.4657610  11.7622550  56.0090420 126.9385800  10.2496380  53.8046370
 126.4133420  10.6304410  53.1008330 126.8630380  10.8747150  54.5256080
 133.4606060  12.2658350  68.1286060 134.3873370  12.0302620  68.1722020
 133.4456490  13.0930350  67.6472090 141.6951120  11.8083920  55.1260310
 141.8703310  11.1221660  54.4821230 140.9972690  12.3330970  54.7336980
 129.5378770  12.1978760  52.6795620 130.2697590  11.9138040  52.1319510
 129.7972440  11.9592040  53.5695000 128.6993560   8.3143490  52.6841950
 128.0702440   8.7828590  53.2327780 128.8141390   7.4692710  53.1188140
 140.0283620  11.4928210  67.9527100 140.8208940  10.9977440  67.7453060
 140.3216770  12.1718350  68.5602710 134.2861320   4.1428170  40.7152420
 133.5103420   3.6628610  41.0050990 134.9374250   3.4633820  40.5408580
 128.3027150   4.4547980  41.5928180 127.4712030   4.1996690  41.9924690
 128.9108130   4.5258750  42.3286100 138.3068750   8.5488360  39.4951550
 137.8450280   7.7775600  39.8238720 139.1194300   8.5754430  40.0004000
 128.2828410   8.4888070  41.7886200 128.5856450   7.5985810  41.6096420
 129.0272000   9.0458290  41.5608450 134.5332060  10.8346370  39.1155540
 133.9143500  11.2903870  38.5449980 135.3883840  10.9897830  38.7145240
 133.7270310   6.8185360  40.7222580 133.6578590   5.8775300  40.5611710
 134.4890170   6.9086770  41.2945150 135.3995410   5.7185610  36.5087450
 134.7812680   6.1835060  35.9450170 135.9118660   6.4113090  36.9256960
 130.2627170   5.2461480  43.1871050 129.9296550   5.8730400  43.8292120
 130.4393850   5.7723360  42.4072720 129.4746270   7.2142280  45.0020230
 130.0920270   7.8893360  44.7204680 128.6139390   7.6230260  44.9107730
 124.7678610   6.4042140  33.8827080 124.3906590   6.8929240  33.1511980
 125.0251680   7.0767420  34.5133610 140.3923860   8.6781690  42.9174870
 139.7087380   9.3480800  42.9091540 140.9318150   8.8762340  42.1519730
 137.9282600  10.5225820  41.6320050 137.9409760  10.1188110  40.7642310
 137.3757820  11.2973110  41.5281480 139.2228020   7.2442040  36.7210220
 139.1124350   6.3016370  36.8459640 139.2196270   7.6057680  37.6072980
 137.3268040   5.4255660  42.9602660 137.7436830   5.2115770  42.1256120
 138.0507860   5.6828450  43.5311280 134.7648300   2.8707360  36.0772710
 133.8377580   2.8044740  36.3061180 134.9173120   3.8087490  35.9627950
 141.2730140   3.8242880  43.0518900 140.4448770   3.8935970  42.5769030
 141.8680620   4.4097190  42.5834730 138.7945590   4.4327660  36.5807960
 138.1758010   4.0947210  35.9334260 138.7770040   3.7887420  37.2887150
 130.3704940   3.3972100  38.8592440 129.9661940   2.6849350  38.3638340
 130.4568060   3.0525340  39.7480480 130.8386640   7.0839660  41.0231650
 130.5414930   6.4785130  40.3439430 131.7886460   7.1216970  40.9121010
 138.9272250  10.6571530  44.6854750 138.4502810  11.4643720  44.4927360
 138.2434040  10.0049860  44.8380960 129.9305070   6.8221350  47.6739450
 129.0333600   7.0461320  47.9212850 129.9557940   6.9456290  46.7250850
 136.9710290   3.6714470  33.5880710 137.4103570   2.8336900  33.4418530
 137.6838710   4.3043870  33.6744850 128.7576290   3.6934670  46.2496820
 128.6184060   4.5657470  46.6184220 127.8757650   3.3507480  46.1044760
 135.0805670   8.6110540  37.5561950 135.5201580   9.3534870  37.1417340
 135.0192560   8.8537110  38.4800910 130.5556640   9.6356370  48.4581970
 130.5272070  10.0399320  47.5910400 130.3921610   8.7066730  48.2953570
 142.5071460  10.4183470  49.7546140 142.9831180  10.8966360  50.4335220
 143.1278620  10.3500960  49.0291640 124.7094940   5.4632220  42.1667730
 124.7875360   5.5980990  41.2223450 125.3236620   4.7548110  42.3595850
 125.9542570   7.1632410  38.5773910 125.5470650   7.3047000  37.7227510
 126.8455580   6.8792570  38.3745120 141.9104710   7.6096320  46.9146150
 142.0367770   7.3708200  45.9963330 141.9526090   6.7780860  47.3868230
 135.7721450  11.3124320  45.4840960 136.2866120  11.2232330  46.2863390
 134.9290530  11.6584020  45.7768870 137.7475850  11.5979660  34.9124960
 137.5876990  11.3082600  35.8106790 137.5822560  10.8219790  34.3770190
 130.2264230  11.3778190  36.6896580 130.0506710  10.4613730  36.4764380
 129.3719970  11.7365480  36.9294380 137.4501980   9.1067220  33.4722960
 136.7567140   9.1044510  32.8125240 138.1924840   8.6826540  33.0417130
 137.0151910  10.7329930  37.5471450 137.4708860   9.9519310  37.8610070
 137.3544430  11.4436750  38.0912630 124.7654460   6.5046390  44.7062190
 124.9285500   6.0351750  43.8881560 125.2306910   5.9969950  45.3711030
 126.3393440   5.8797820  46.8658000 125.9548230   5.2391490  47.4640960
 126.6505630   6.5833940  47.4352730 132.4890580   2.7274360  42.3466620
 132.8560710   2.2532930  43.0927960 132.2995640   3.6015930  42.6874960
 130.2789950   1.7683000  44.6650830 129.9747020   2.6474980  44.8901190
 131.2336410   1.8282790  44.7008270 128.8071740   5.9743990  35.2617680
 128.0334000   5.4341610  35.1016400 129.5366370   5.4550600  34.9235440
 139.5659720   4.9709350  41.0544070 140.2858840   5.4664640  40.6640180
 139.3641540   4.2927240  40.4097940 134.9478520   5.0418410  46.9413070
 134.8815830   4.1214080  46.6870660 134.3183660   5.1393850  47.6557710
 128.8509140   5.6424370  38.8996490 129.3687810   4.8392630  38.8453380
 128.3993160   5.5803510  39.7413320 133.7378640   6.9090650  34.1723790
 134.0794340   7.6532880  33.6767110 132.9091350   7.2221770  34.5348620
 126.3353680   2.6085740  45.8122190 125.9768620   3.2739590  46.3995530
 126.0408240   1.7769290  46.1834810 129.5366800   3.0669980  48.6961740
 129.2366940   3.2127160  47.7989560 130.3078040   2.5075270  48.6035130
 134.8795250   7.8638980  46.6916870 134.8939790   6.9319940  46.4735780
 134.1720350   7.9498740  47.3306640 140.0132320   2.0478800  32.9615480
 139.9296040   2.4793020  32.1111920 140.7326510   2.5077150  33.3942300
 141.0906460   4.5046320  46.0385450 140.3654650   5.0975100  45.8414840
 141.6181920   4.4969860  45.2398820 141.0419570   8.9021060  35.6897610
 140.3995730   8.2476680  35.9641330 140.6550230   9.3076150  34.9138280
 136.6206050   6.2306490  39.5369300 136.9729870   5.6334620  38.8770670
 135.7368380   5.9050720  39.7077550 132.7069330   6.9904180  36.9439710
 133.3940460   7.5373390  37.3247300 131.9201750   7.5344910  36.9789320
 124.8461730   2.6077000  32.4356790 125.7156580   2.8901800  32.7192710
 124.3552050   3.4212870  32.3205600 132.0096540   3.9950210  36.5565070
 132.4659320   4.8055460  36.7825260 131.6584750   3.6773350  37.3883560
 134.3129150   9.5056550  43.7857370 134.9571370   9.7115930  44.4630790
 134.6758590   8.7444950  43.3328220 135.5861230   7.5088900  42.5034820
 136.2283460   6.8082060  42.6166990 136.1110580   8.2887340  42.3231710
 139.4316950   7.7937520  32.2273960 139.2054530   7.0767960  32.8198600
 139.0413150   7.5449960  31.3895710 137.3598850   8.3083800  45.7070880
 137.6955090   8.8950490  46.3848800 136.4399190   8.1776510  45.9368670
 125.2132980  11.8204380  33.0018420 125.5730620  12.4193720  32.3475690
 125.0725320  12.3664270  33.7753450 139.0133200   5.7109460  33.8888120
 138.7254900   6.1722150  34.6766000 139.8085370   5.2507230  34.1572340
 125.1974840  10.0859240  47.4760820 125.3065960   9.1453980  47.3356210
 124.5455400  10.3513990  46.8274550 133.1887430   8.3575130  48.8758940
 132.8684300   7.6384370  49.4204630 132.5145790   9.0330200  48.9495000
 131.2301600   9.2035580  33.8192090 131.2211700   9.9365270  33.2036600
 130.3099960   8.9567160  33.9119050 126.8308240   4.4250470  34.5638850
 126.2236190   5.1649370  34.5734150 127.3057590   4.5149830  33.7377050
 134.2161200   9.2663820  32.4817280 134.3173180   9.0627810  31.5519260
 133.3162940   9.0122100  32.6865060 132.8579310  11.7850140  37.1764950
 133.1120810  11.7471530  36.2544320 131.9091790  11.6583470  37.1693200
 138.8631890   2.7042020  38.7523460 137.9222030   2.7192250  38.9271150
 139.1775960   1.9177980  39.1983760 128.8413530   4.3861620  32.3127420
 129.6076800   4.2742980  32.8752850 128.9188220   3.6899590  31.6604190
 140.8657470   9.8750870  40.4277720 140.9904890  10.6982040  40.9001530
 141.7323030   9.6641600  40.0801870 128.3375000  11.9682080  40.0994850
 129.0737480  11.4197540  40.3703420 128.7215920  12.8338090  39.9600840
 125.2220480   8.0355650  35.9736360 124.2960260   8.2776790  35.9641770
 125.6876910   8.8629910  35.8521110 127.3433280  11.1528150  49.2880430
 128.1446010  11.4740200  49.7015830 126.8285100  10.7923730  50.0100340
 131.4477310  11.1412390  31.9220420 132.2405920  11.4301220  31.4702210
 130.9281660  10.7104560  31.2432900 136.1797910   7.2608020  49.2355840
 135.5736070   7.2839620  48.4951590 135.8752020   6.5291060  49.7723090
 137.6098280  10.9888310  47.8465250 138.5620030  10.9046330  47.7965490
 137.4626500  11.6530020  48.5199040 140.5007480  10.3682520  33.3457160
 140.2148990   9.9547660  32.5311340 140.3027030  11.2970230  33.2257680
 125.0631090   3.6401610  48.2316480 125.5670110   3.0608890  48.8032710
 124.3238510   3.9241840  48.7692850 131.9654710   6.3615800  31.7862770
 131.8605350   5.7468150  32.5124150 131.7978930   5.8381690  31.0025780
 132.1169030   5.0472600  47.7652000 131.3514700   5.6157600  47.6806670
 132.2984990   4.7548810  46.8720230 135.2057440   5.4235830  32.3904760
 134.6567540   5.8705130  33.0347500 135.8276700   4.9185080  32.9142430
 139.2592380   6.7777930  48.3227020 140.0001850   7.1153690  47.8194480
 138.4965060   6.9469990  47.7696790 130.8732560   4.3826750  34.2870060
 131.2948980   4.2166620  35.1301450 130.9983400   3.5726980  33.7925200
 133.3860200   3.4064360  31.5347160 133.9065860   2.6913380  31.1688310
 134.0328600   4.0450230  31.8347670 137.9338040   4.8292760  46.8582230
 138.3479060   4.9837840  47.7072650 136.9989040   4.9547980  47.0208010
 132.6953270   4.7813240  44.8278160 133.1141380   5.6245970  44.6554400
 131.7761900   4.9185280  44.5984940 135.0317170   2.5129420  46.2116000
 135.1513380   1.9170560  46.9510840 135.8911170   2.5499110  45.7917300
 137.3705070   3.0666610  44.7878510 136.8440290   3.5909230  44.1843650
 137.7136410   3.6994000  45.4188240 130.5460690  11.0866250  45.9435890
 130.0081780  11.8112310  45.6244590 130.7994650  10.6096590  45.1533230
 133.4022900  12.3217460  46.2022540 133.3281600  13.2252600  46.5094910
 132.5001740  12.0029360  46.1744610 133.9508230  11.4875970  33.8248900
 134.8459020  11.8260940  33.8467660 133.9825860  10.7655380  33.1973180
 127.5904390   6.8603020  32.0535900 128.0279260   7.4032690  32.7093480
 128.0752120   6.0349970  32.0632240 124.8050190   9.6492050  39.5056160
 125.1353200   8.7813110  39.2734800 125.2341190   9.8550570  40.3361120
 129.4012110   7.9801060  37.1658130 129.1007650   7.8566030  38.0662040
 129.2949600   7.1209650  36.7573860 125.2940400  10.5162640  42.2437790
 124.8571390  10.6963440  43.0761940 125.8618080  11.2737260  42.1019510
 140.9302580  10.0179640  46.5315100 140.3304570  10.0772200  45.7879020
 141.0596480   9.0784620  46.6611950 142.1704030   7.7597460  31.8684810
 141.3396990   7.8274110  32.3392040 142.3475860   8.6501580  31.5651670
 141.6260490   4.5044940  34.3719010 142.3879400   5.0741590  34.4778700
 141.6414860   3.9372140  35.1427320 125.1264830   3.0282870  38.6026670
 124.4713670   2.7594510  37.9586370 125.9642780   2.9187350  38.1528650
 142.6320460   5.3595040  39.2160940 143.0029290   4.5762360  38.8096910
 143.2722390   6.0484140  39.0378240 139.6154220   6.7431620  44.6291260
 138.8014060   7.1728780  44.8917050 140.0228420   7.3550030  44.0160310
 141.6779660   4.7979310  31.5291530 141.9528500   5.7058190  31.4010750
 141.4890400   4.7341840  32.4653520 141.5745000   2.7348300  36.5220960
 141.1988600   1.9676230  36.0902250 140.8448120   3.1171000  37.0095890
 126.1640760   3.4135440  43.1430010 126.5313800   3.3262840  44.0226030
 125.5951580   2.6501990  43.0436870 140.9644620   1.8819820  46.1560480
 140.7330710   1.6532570  45.2558430 141.2249170   2.8019370  46.1105370
 139.6730270  11.4950220  38.1559530 140.2689340  11.1734790  37.4793950
 139.9308420  11.0222040  38.9472800 127.5792840   7.9268130  48.3050160
 127.5362470   7.5561040  49.1864620 127.7103850   8.8645700  48.4451980
 131.2798870   9.4827720  43.9059880 131.0390230   9.7502280  43.0190400
 132.2201510   9.6533450  43.9610740 142.5403030  11.5022100  44.7070520
 142.0461310  11.8990970  43.9897650 141.9316320  10.8771310  45.1007800
 127.4180870  10.8730380  45.4247940 126.8241190  10.7415080  46.1637980
 127.4104710  10.0368520  44.9590040 140.2242480  12.1445520  41.9857260
 139.7645450  12.8961330  41.6115280 139.5954940  11.4251990  41.9272060
 127.0493100   8.2388760  44.3755980 126.3227160   7.6194050  44.3081930
 127.1102250   8.6329370  43.5054060 130.6538200  10.4533760  41.1605390
 131.1703220   9.8421120  40.6353650 131.3035580  10.9562540  41.6516400
 133.3933700  11.3442250  41.9874370 133.6811510  11.0896550  41.1107380
 133.9056920  10.7919610  42.5779940 125.3323100  11.5563150  37.5852740
 125.1645140  10.9233830  38.2834630 124.4657610  11.7622550  37.2346930
 126.9385800  10.2496380  35.0302880 126.4133420  10.6304410  34.3264840
 126.8630380  10.8747150  35.7512590 133.4606060  12.2658350  49.3542570
 134.3873370  12.0302620  49.3978530 133.4456490  13.0930350  48.8728600
 141.6951120  11.8083920  36.3516820 141.8703310  11.1221660  35.7077740
 140.9972690  12.3330970  35.9593490 129.5378770  12.1978760  33.9052130
 130.2697590  11.9138040  33.3576020 129.7972440  11.9592040  34.7951510
 128.6993560   8.3143490  33.9098460 128.0702440   8.7828590  34.4584290
 128.8141390   7.4692710  34.3444650 140.0283620  11.4928210  49.1783610
 140.8208940  10.9977440  48.9709570 140.3216770  12.1718350  49.7859220
 134.2861320   4.1428170  21.9408930 133.5103420   3.6628610  22.2307500
 134.9374250   3.4633820  21.7665090 128.3027150   4.4547980  22.8184690
 127.4712030   4.1996690  23.2181200 128.9108130   4.5258750  23.5542610
 138.3068750   8.5488360  20.7208060 137.8450280   7.7775600  21.0495230
 139.1194300   8.5754430  21.2260510 128.2828410   8.4888070  23.0142710
 128.5856450   7.5985810  22.8352930 129.0272000   9.0458290  22.7864960
 134.5332060  10.8346370  20.3412050 133.9143500  11.2903870  19.7706490
 135.3883840  10.9897830  19.9401750 133.7270310   6.8185360  21.9479090
 133.6578590   5.8775300  21.7868220 134.4890170   6.9086770  22.5201660
 135.3995410   5.7185610  17.7343960 134.7812680   6.1835060  17.1706680
 135.9118660   6.4113090  18.1513470 130.2627170   5.2461480  24.4127560
 129.9296550   5.8730400  25.0548630 130.4393850   5.7723360  23.6329230
 129.4746270   7.2142280  26.2276740 130.0920270   7.8893360  25.9461190
 128.6139390   7.6230260  26.1364240 124.7678610   6.4042140  15.1083590
 124.3906590   6.8929240  14.3768490 125.0251680   7.0767420  15.7390120
 140.3923860   8.6781690  24.1431380 139.7087380   9.3480800  24.1348050
 140.9318150   8.8762340  23.3776240 137.9282600  10.5225820  22.8576560
 137.9409760  10.1188110  21.9898820 137.3757820  11.2973110  22.7537990
 139.2228020   7.2442040  17.9466730 139.1124350   6.3016370  18.0716150
 139.2196270   7.6057680  18.8329490 137.3268040   5.4255660  24.1859170
 137.7436830   5.2115770  23.3512630 138.0507860   5.6828450  24.7567790
 134.7648300   2.8707360  17.3029220 133.8377580   2.8044740  17.5317690
 134.9173120   3.8087490  17.1884460 141.2730140   3.8242880  24.2775410
 140.4448770   3.8935970  23.8025540 141.8680620   4.4097190  23.8091240
 138.7945590   4.4327660  17.8064470 138.1758010   4.0947210  17.1590770
 138.7770040   3.7887420  18.5143660 130.3704940   3.3972100  20.0848950
 129.9661940   2.6849350  19.5894850 130.4568060   3.0525340  20.9736990
 130.8386640   7.0839660  22.2488160 130.5414930   6.4785130  21.5695940
 131.7886460   7.1216970  22.1377520 138.9272250  10.6571530  25.9111260
 138.4502810  11.4643720  25.7183870 138.2434040  10.0049860  26.0637470
 129.9305070   6.8221350  28.8995960 129.0333600   7.0461320  29.1469360
 129.9557940   6.9456290  27.9507360 136.9710290   3.6714470  14.8137220
 137.4103570   2.8336900  14.6675040 137.6838710   4.3043870  14.9001360
 128.7576290   3.6934670  27.4753330 128.6184060   4.5657470  27.8440730
 127.8757650   3.3507480  27.3301270 135.0805670   8.6110540  18.7818460
 135.5201580   9.3534870  18.3673850 135.0192560   8.8537110  19.7057420
 130.5556640   9.6356370  29.6838480 130.5272070  10.0399320  28.8166910
 130.3921610   8.7066730  29.5210080 142.5071460  10.4183470  30.9802650
 142.9831180  10.8966360  31.6591730 143.1278620  10.3500960  30.2548150
 124.7094940   5.4632220  23.3924240 124.7875360   5.5980990  22.4479960
 125.3236620   4.7548110  23.5852360 125.9542570   7.1632410  19.8030420
 125.5470650   7.3047000  18.9484020 126.8455580   6.8792570  19.6001630
 141.9104710   7.6096320  28.1402660 142.0367770   7.3708200  27.2219840
 141.9526090   6.7780860  28.6124740 135.7721450  11.3124320  26.7097470
 136.2866120  11.2232330  27.5119900 134.9290530  11.6584020  27.0025380
 137.7475850  11.5979660  16.1381470 137.5876990  11.3082600  17.0363300
 137.5822560  10.8219790  15.6026700 130.2264230  11.3778190  17.9153090
 130.0506710  10.4613730  17.7020890 129.3719970  11.7365480  18.1550890
 137.4501980   9.1067220  14.6979470 136.7567140   9.1044510  14.0381750
 138.1924840   8.6826540  14.2673640 137.0151910  10.7329930  18.7727960
 137.4708860   9.9519310  19.0866580 137.3544430  11.4436750  19.3169140
 124.7654460   6.5046390  25.9318700 124.9285500   6.0351750  25.1138070
 125.2306910   5.9969950  26.5967540 126.3393440   5.8797820  28.0914510
 125.9548230   5.2391490  28.6897470 126.6505630   6.5833940  28.6609240
 132.4890580   2.7274360  23.5723130 132.8560710   2.2532930  24.3184470
 132.2995640   3.6015930  23.9131470 130.2789950   1.7683000  25.8907340
 129.9747020   2.6474980  26.1157700 131.2336410   1.8282790  25.9264780
 128.8071740   5.9743990  16.4874190 128.0334000   5.4341610  16.3272910
 129.5366370   5.4550600  16.1491950 139.5659720   4.9709350  22.2800580
 140.2858840   5.4664640  21.8896690 139.3641540   4.2927240  21.6354450
 134.9478520   5.0418410  28.1669580 134.8815830   4.1214080  27.9127170
 134.3183660   5.1393850  28.8814220 128.8509140   5.6424370  20.1253000
 129.3687810   4.8392630  20.0709890 128.3993160   5.5803510  20.9669830
 133.7378640   6.9090650  15.3980300 134.0794340   7.6532880  14.9023620
 132.9091350   7.2221770  15.7605130 126.3353680   2.6085740  27.0378700
 125.9768620   3.2739590  27.6252040 126.0408240   1.7769290  27.4091320
 129.5366800   3.0669980  29.9218250 129.2366940   3.2127160  29.0246070
 130.3078040   2.5075270  29.8291640 134.8795250   7.8638980  27.9173380
 134.8939790   6.9319940  27.6992290 134.1720350   7.9498740  28.5563150
 140.0132320   2.0478800  14.1871990 139.9296040   2.4793020  13.3368430
 140.7326510   2.5077150  14.6198810 141.0906460   4.5046320  27.2641960
 140.3654650   5.0975100  27.0671350 141.6181920   4.4969860  26.4655330
 141.0419570   8.9021060  16.9154120 140.3995730   8.2476680  17.1897840
 140.6550230   9.3076150  16.1394790 136.6206050   6.2306490  20.7625810
 136.9729870   5.6334620  20.1027180 135.7368380   5.9050720  20.9334060
 132.7069330   6.9904180  18.1696220 133.3940460   7.5373390  18.5503810
 131.9201750   7.5344910  18.2045830 124.8461730   2.6077000  13.6613300
 125.7156580   2.8901800  13.9449220 124.3552050   3.4212870  13.5462110
 132.0096540   3.9950210  17.7821580 132.4659320   4.8055460  18.0081770
 131.6584750   3.6773350  18.6140070 134.3129150   9.5056550  25.0113880
 134.9571370   9.7115930  25.6887300 134.6758590   8.7444950  24.5584730
 135.5861230   7.5088900  23.7291330 136.2283460   6.8082060  23.8423500
 136.1110580   8.2887340  23.5488220 139.4316950   7.7937520  13.4530470
 139.2054530   7.0767960  14.0455110 139.0413150   7.5449960  12.6152220
 137.3598850   8.3083800  26.9327390 137.6955090   8.8950490  27.6105310
 136.4399190   8.1776510  27.1625180 125.2132980  11.8204380  14.2274930
 125.5730620  12.4193720  13.5732200 125.0725320  12.3664270  15.0009960
 139.0133200   5.7109460  15.1144630 138.7254900   6.1722150  15.9022510
 139.8085370   5.2507230  15.3828850 125.1974840  10.0859240  28.7017330
 125.3065960   9.1453980  28.5612720 124.5455400  10.3513990  28.0531060
 133.1887430   8.3575130  30.1015450 132.8684300   7.6384370  30.6461140
 132.5145790   9.0330200  30.1751510 131.2301600   9.2035580  15.0448600
 131.2211700   9.9365270  14.4293110 130.3099960   8.9567160  15.1375560
 126.8308240   4.4250470  15.7895360 126.2236190   5.1649370  15.7990660
 127.3057590   4.5149830  14.9633560 134.2161200   9.2663820  13.7073790
 134.3173180   9.0627810  12.7775770 133.3162940   9.0122100  13.9121570
 132.8579310  11.7850140  18.4021460 133.1120810  11.7471530  17.4800830
 131.9091790  11.6583470  18.3949710 138.8631890   2.7042020  19.9779970
 137.9222030   2.7192250  20.1527660 139.1775960   1.9177980  20.4240270
 128.8413530   4.3861620  13.5383930 129.6076800   4.2742980  14.1009360
 128.9188220   3.6899590  12.8860700 140.8657470   9.8750870  21.6534230
 140.9904890  10.6982040  22.1258040 141.7323030   9.6641600  21.3058380
 128.3375000  11.9682080  21.3251360 129.0737480  11.4197540  21.5959930
 128.7215920  12.8338090  21.1857350 125.2220480   8.0355650  17.1992870
 124.2960260   8.2776790  17.1898280 125.6876910   8.8629910  17.0777620
 127.3433280  11.1528150  30.5136940 128.1446010  11.4740200  30.9272340
 126.8285100  10.7923730  31.2356850 131.4477310  11.1412390  13.1476930
 132.2405920  11.4301220  12.6958720 130.9281660  10.7104560  12.4689410
 136.1797910   7.2608020  30.4612350 135.5736070   7.2839620  29.7208100
 135.8752020   6.5291060  30.9979600 137.6098280  10.9888310  29.0721760
 138.5620030  10.9046330  29.0222000 137.4626500  11.6530020  29.7455550
 140.5007480  10.3682520  14.5713670 140.2148990   9.9547660  13.7567850
 140.3027030  11.2970230  14.4514190 125.0631090   3.6401610  29.4572990
 125.5670110   3.0608890  30.0289220 124.3238510   3.9241840  29.9949360
 131.9654710   6.3615800  13.0119280 131.8605350   5.7468150  13.7380660
 131.7978930   5.8381690  12.2282290 132.1169030   5.0472600  28.9908510
 131.3514700   5.6157600  28.9063180 132.2984990   4.7548810  28.0976740
 135.2057440   5.4235830  13.6161270 134.6567540   5.8705130  14.2604010
 135.8276700   4.9185080  14.1398940 139.2592380   6.7777930  29.5483530
 140.0001850   7.1153690  29.0450990 138.4965060   6.9469990  28.9953300
 130.8732560   4.3826750  15.5126570 131.2948980   4.2166620  16.3557960
 130.9983400   3.5726980  15.0181710 133.3860200   3.4064360  12.7603670
 133.9065860   2.6913380  12.3944820 134.0328600   4.0450230  13.0604180
 137.9338040   4.8292760  28.0838740 138.3479060   4.9837840  28.9329160
 136.9989040   4.9547980  28.2464520 132.6953270   4.7813240  26.0534670
 133.1141380   5.6245970  25.8810910 131.7761900   4.9185280  25.8241450
 135.0317170   2.5129420  27.4372510 135.1513380   1.9170560  28.1767350
 135.8911170   2.5499110  27.0173810 137.3705070   3.0666610  26.0135020
 136.8440290   3.5909230  25.4100160 137.7136410   3.6994000  26.6444750
 130.5460690  11.0866250  27.1692400 130.0081780  11.8112310  26.8501100
 130.7994650  10.6096590  26.3789740 133.4022900  12.3217460  27.4279050
 133.3281600  13.2252600  27.7351420 132.5001740  12.0029360  27.4001120
 133.9508230  11.4875970  15.0505410 134.8459020  11.8260940  15.0724170
 133.9825860  10.7655380  14.4229690 127.5904390   6.8603020  13.2792410
 128.0279260   7.4032690  13.9349990 128.0752120   6.0349970  13.2888750
 124.8050190   9.6492050  20.7312670 125.1353200   8.7813110  20.4991310
 125.2341190   9.8550570  21.5617630 129.4012110   7.9801060  18.3914640
 129.1007650   7.8566030  19.2918550 129.2949600   7.1209650  17.9830370
 125.2940400  10.5162640  23.4694300 124.8571390  10.6963440  24.3018450
 125.8618080  11.2737260  23.3276020 140.9302580  10.0179640  27.7571610
 140.3304570  10.0772200  27.0135530 141.0596480   9.0784620  27.8868460
 142.1704030   7.7597460  13.0941320 141.3396990   7.8274110  13.5648550
 142.3475860   8.6501580  12.7908180 141.6260490   4.5044940  15.5975520
 142.3879400   5.0741590  15.7035210 141.6414860   3.9372140  16.3683830
 125.1264830   3.0282870  19.8283180 124.4713670   2.7594510  19.1842880
 125.9642780   2.9187350  19.3785160 142.6320460   5.3595040  20.4417450
 143.0029290   4.5762360  20.0353420 143.2722390   6.0484140  20.2634750
 139.6154220   6.7431620  25.8547770 138.8014060   7.1728780  26.1173560
 140.0228420   7.3550030  25.2416820 141.6779660   4.7979310  12.7548040
 141.9528500   5.7058190  12.6267260 141.4890400   4.7341840  13.6910030
 141.5745000   2.7348300  17.7477470 141.1988600   1.9676230  17.3158760
 140.8448120   3.1171000  18.2352400 126.1640760   3.4135440  24.3686520
 126.5313800   3.3262840  25.2482540 125.5951580   2.6501990  24.2693380
 140.9644620   1.8819820  27.3816990 140.7330710   1.6532570  26.4814940
 141.2249170   2.8019370  27.3361880 139.6730270  11.4950220  19.3816040
 140.2689340  11.1734790  18.7050460 139.9308420  11.0222040  20.1729310
 127.5792840   7.9268130  29.5306670 127.5362470   7.5561040  30.4121130
 127.7103850   8.8645700  29.6708490 131.2798870   9.4827720  25.1316390
 131.0390230   9.7502280  24.2446910 132.2201510   9.6533450  25.1867250
 142.5403030  11.5022100  25.9327030 142.0461310  11.8990970  25.2154160
 141.9316320  10.8771310  26.3264310 127.4180870  10.8730380  26.6504450
 126.8241190  10.7415080  27.3894490 127.4104710  10.0368520  26.1846550
 140.2242480  12.1445520  23.2113770 139.7645450  12.8961330  22.8371790
 139.5954940  11.4251990  23.1528570 127.0493100   8.2388760  25.6012490
 126.3227160   7.6194050  25.5338440 127.1102250   8.6329370  24.7310570
 130.6538200  10.4533760  22.3861900 131.1703220   9.8421120  21.8610160
 131.3035580  10.9562540  22.8772910 133.3933700  11.3442250  23.2130880
 133.6811510  11.0896550  22.3363890 133.9056920  10.7919610  23.8036450
 125.3323100  11.5563150  18.8109250 125.1645140  10.9233830  19.5091140
 124.4657610  11.7622550  18.4603440 126.9385800  10.2496380  16.2559390
 126.4133420  10.6304410  15.5521350 126.8630380  10.8747150  16.9769100
 133.4606060  12.2658350  30.5799080 134.3873370  12.0302620  30.6235040
 133.4456490  13.0930350  30.0985110 141.6951120  11.8083920  17.5773330
 141.8703310  11.1221660  16.9334250 140.9972690  12.3330970  17.1850000
 129.5378770  12.1978760  15.1308640 130.2697590  11.9138040  14.5832530
 129.7972440  11.9592040  16.0208020 128.6993560   8.3143490  15.1354970
 128.0702440   8.7828590  15.6840800 128.8141390   7.4692710  15.5701160
 140.0283620  11.4928210  30.4040120 140.8208940  10.9977440  30.1966080
 140.3216770  12.1718350  31.0115730 134.2861320   4.1428170   3.1665440
 133.5103420   3.6628610   3.4564010 134.9374250   3.4633820   2.9921600
 128.3027150   4.4547980   4.0441200 127.4712030   4.1996690   4.4437710
 128.9108130   4.5258750   4.7799120 138.3068750   8.5488360   1.9464570
 137.8450280   7.7775600   2.2751740 139.1194300   8.5754430   2.4517020
 128.2828410   8.4888070   4.2399220 128.5856450   7.5985810   4.0609440
 129.0272000   9.0458290   4.0121470 133.7270310   6.8185360   3.1735600
 133.6578590   5.8775300   3.0124730 134.4890170   6.9086770   3.7458170
 130.2627170   5.2461480   5.6384070 129.9296550   5.8730400   6.2805140
 130.4393850   5.7723360   4.8585740 129.4746270   7.2142280   7.4533250
 130.0920270   7.8893360   7.1717700 128.6139390   7.6230260   7.3620750
 140.3923860   8.6781690   5.3687890 139.7087380   9.3480800   5.3604560
 140.9318150   8.8762340   4.6032750 137.9282600  10.5225820   4.0833070
 137.9409760  10.1188110   3.2155330 137.3757820  11.2973110   3.9794500
 137.3268040   5.4255660   5.4115680 137.7436830   5.2115770   4.5769140
 138.0507860   5.6828450   5.9824300 141.2730140   3.8242880   5.5031920
 140.4448770   3.8935970   5.0282050 141.8680620   4.4097190   5.0347750
 130.8386640   7.0839660   3.4744670 130.5414930   6.4785130   2.7952450
 131.7886460   7.1216970   3.3634030 138.9272250  10.6571530   7.1367770
 138.4502810  11.4643720   6.9440380 138.2434040  10.0049860   7.2893980
 129.9305070   6.8221350  10.1252470 129.0333600   7.0461320  10.3725870
 129.9557940   6.9456290   9.1763870 128.7576290   3.6934670   8.7009840
 128.6184060   4.5657470   9.0697240 127.8757650   3.3507480   8.5557780
 130.5556640   9.6356370  10.9094990 130.5272070  10.0399320  10.0423420
 130.3921610   8.7066730  10.7466590 142.5071460  10.4183470  12.2059160
 142.9831180  10.8966360  12.8848240 143.1278620  10.3500960  11.4804660
 124.7094940   5.4632220   4.6180750 124.7875360   5.5980990   3.6736470
 125.3236620   4.7548110   4.8108870 141.9104710   7.6096320   9.3659170
 142.0367770   7.3708200   8.4476350 141.9526090   6.7780860   9.8381250
 135.7721450  11.3124320   7.9353980 136.2866120  11.2232330   8.7376410
 134.9290530  11.6584020   8.2281890 124.7654460   6.5046390   7.1575210
 124.9285500   6.0351750   6.3394580 125.2306910   5.9969950   7.8224050
 126.3393440   5.8797820   9.3171020 125.9548230   5.2391490   9.9153980
 126.6505630   6.5833940   9.8865750 132.4890580   2.7274360   4.7979640
 132.8560710   2.2532930   5.5440980 132.2995640   3.6015930   5.1387980
 130.2789950   1.7683000   7.1163850 129.9747020   2.6474980   7.3414210
 131.2336410   1.8282790   7.1521290 139.5659720   4.9709350   3.5057090
 140.2858840   5.4664640   3.1153200 139.3641540   4.2927240   2.8610960
 134.9478520   5.0418410   9.3926090 134.8815830   4.1214080   9.1383680
 134.3183660   5.1393850  10.1070730 126.3353680   2.6085740   8.2635210
 125.9768620   3.2739590   8.8508550 126.0408240   1.7769290   8.6347830
 129.5366800   3.0669980  11.1474760 129.2366940   3.2127160  10.2502580
 130.3078040   2.5075270  11.0548150 134.8795250   7.8638980   9.1429890
 134.8939790   6.9319940   8.9248800 134.1720350   7.9498740   9.7819660
 141.0906460   4.5046320   8.4898470 140.3654650   5.0975100   8.2927860
 141.6181920   4.4969860   7.6911840 134.3129150   9.5056550   6.2370390
 134.9571370   9.7115930   6.9143810 134.6758590   8.7444950   5.7841240
 135.5861230   7.5088900   4.9547840 136.2283460   6.8082060   5.0680010
 136.1110580   8.2887340   4.7744730 137.3598850   8.3083800   8.1583900
 137.6955090   8.8950490   8.8361820 136.4399190   8.1776510   8.3881690
 125.1974840  10.0859240   9.9273840 125.3065960   9.1453980   9.7869230
 124.5455400  10.3513990   9.2787570 133.1887430   8.3575130  11.3271960
 132.8684300   7.6384370  11.8717650 132.5145790   9.0330200  11.4008020
 140.8657470   9.8750870   2.8790740 140.9904890  10.6982040   3.3514550
 141.7323030   9.6641600   2.5314890 128.3375000  11.9682080   2.5507870
 129.0737480  11.4197540   2.8216440 128.7215920  12.8338090   2.4113860
 127.3433280  11.1528150  11.7393450 128.1446010  11.4740200  12.1528850
 126.8285100  10.7923730  12.4613360 136.1797910   7.2608020  11.6868860
 135.5736070   7.2839620  10.9464610 135.8752020   6.5291060  12.2236110
 137.6098280  10.9888310  10.2978270 138.5620030  10.9046330  10.2478510
 137.4626500  11.6530020  10.9712060 125.0631090   3.6401610  10.6829500
 125.5670110   3.0608890  11.2545730 124.3238510   3.9241840  11.2205870
 132.1169030   5.0472600  10.2165020 131.3514700   5.6157600  10.1319690
 132.2984990   4.7548810   9.3233250 139.2592380   6.7777930  10.7740040
 140.0001850   7.1153690  10.2707500 138.4965060   6.9469990  10.2209810
 137.9338040   4.8292760   9.3095250 138.3479060   4.9837840  10.1585670
 136.9989040   4.9547980   9.4721030 132.6953270   4.7813240   7.2791180
 133.1141380   5.6245970   7.1067420 131.7761900   4.9185280   7.0497960
 135.0317170   2.5129420   8.6629020 135.1513380   1.9170560   9.4023860
 135.8911170   2.5499110   8.2430320 137.3705070   3.0666610   7.2391530
 136.8440290   3.5909230   6.6356670 137.7136410   3.6994000   7.8701260
 130.5460690  11.0866250   8.3948910 130.0081780  11.8112310   8.0757610
 130.7994650  10.6096590   7.6046250 133.4022900  12.3217460   8.6535560
 133.3281600  13.2252600   8.9607930 132.5001740  12.0029360   8.6257630
 124.8050190   9.6492050   1.9569180 125.1353200   8.7813110   1.7247820
 125.2341190   9.8550570   2.7874140 125.2940400  10.5162640   4.6950810
 124.8571390  10.6963440   5.5274960 125.8618080  11.2737260   4.5532530
 140.9302580  10.0179640   8.9828120 140.3304570  10.0772200   8.2392040
 141.0596480   9.0784620   9.1124970 139.6154220   6.7431620   7.0804280
 138.8014060   7.1728780   7.3430070 140.0228420   7.3550030   6.4673330
 126.1640760   3.4135440   5.5943030 126.5313800   3.3262840   6.4739050
 125.5951580   2.6501990   5.4949890 140.9644620   1.8819820   8.6073500
 140.7330710   1.6532570   7.7071450 141.2249170   2.8019370   8.5618390
 127.5792840   7.9268130  10.7563180 127.5362470   7.5561040  11.6377640
 127.7103850   8.8645700  10.8965000 131.2798870   9.4827720   6.3572900
 131.0390230   9.7502280   5.4703420 132.2201510   9.6533450   6.4123760
 142.5403030  11.5022100   7.1583540 142.0461310  11.8990970   6.4410670
 141.9316320  10.8771310   7.5520820 127.4180870  10.8730380   7.8760960
 126.8241190  10.7415080   8.6151000 127.4104710  10.0368520   7.4103060
 140.2242480  12.1445520   4.4370280 139.7645450  12.8961330   4.0628300
 139.5954940  11.4251990   4.3785080 127.0493100   8.2388760   6.8269000
 126.3227160   7.6194050   6.7594950 127.1102250   8.6329370   5.9567080
 130.6538200  10.4533760   3.6118410 131.1703220   9.8421120   3.0866670
 131.3035580  10.9562540   4.1029420 133.3933700  11.3442250   4.4387390
 133.6811510  11.0896550   3.5620400 133.9056920  10.7919610   5.0292960
 133.4606060  12.2658350  11.8055590 134.3873370  12.0302620  11.8491550
 133.4456490  13.0930350  11.3241620 140.0283620  11.4928210  11.6296630
 140.8208940  10.9977440  11.4222590 140.3216770  12.1718350  12.2372240
 117.3799790 152.5597070 151.4804090 117.2993840 151.6451680 151.2095800
 116.9664210 153.0564140 150.7743800 115.5117830 154.3376090 153.3613360
 114.7359930 153.8576530 153.6511930 116.1630760 153.6581740 153.1869520
 107.9375610 149.6097790 148.0231510 107.0492310 149.9513760 147.9211390
 108.2216800 149.4098110 147.1312340 105.9008620 152.2103440 153.9071210
 106.4724730 151.4425640 153.9074850 105.9010160 152.5092200 152.9977820
 115.9831990 149.8203660 153.5952450 116.3596810 148.9475540 153.4826120
 115.8851500 150.1562360 152.7042890 110.1137000 148.1929290 149.0569890
 110.2203750 149.0933020 149.3638650 109.2029360 148.1447260 148.7664540
 119.7656110 147.3154100 150.5280790 120.5865730 146.8250670 150.5706270
 119.7990190 147.9051760 151.2812630 111.9544730 151.1615660 153.3895070
 112.4622950 151.6596630 154.0300090 112.4857970 150.3850860 153.2134430
 120.0017590 149.2554480 153.3008330 119.2973160 149.5439370 153.8811440
 120.3629750 150.0654590 152.9407890 123.0704510 148.7009270 153.6917540
 122.1229420 148.7348250 153.8232970 123.3954500 149.5148220 154.0766900
 113.6024050 145.0006450 151.9873530 113.9099030 144.4453340 151.2709030
 112.6724750 145.1350910 151.8046520 115.9904810 153.0655280 148.7233650
 115.0634090 152.9992660 148.9522120 116.1429630 154.0035410 148.6088890
 115.9773890 149.3372280 145.7200810 115.0377560 149.4986240 145.8053270
 116.2957150 150.0557960 145.1736800 120.0202100 154.6275580 149.2268900
 119.4014520 154.2895130 148.5795200 120.0026550 153.9835340 149.9348090
 111.5961450 153.5920020 151.5053380 111.1918450 152.8797270 151.0099280
 111.6824570 153.2473260 152.3941420 118.1966800 153.8662390 146.2341650
 118.6360080 153.0284820 146.0879470 118.9095220 154.4991790 146.3205790
 121.7783940 145.1205200 144.5482690 121.4656600 145.2132030 145.4481760
 122.5396410 145.6986230 144.4980120 108.2966080 152.4865000 149.0060030
 108.1763680 153.2127090 148.3941300 107.9866970 151.7167910 148.5287940
 110.7629740 145.8300070 152.3883700 110.3197890 146.6109610 152.0568220
 111.3214730 146.1529960 153.0954640 113.8788560 145.4510770 147.2689530
 113.2542740 145.4470640 147.9942840 113.7918680 144.5841730 146.8725500
 112.8005640 146.3747400 154.2473300 113.0977970 147.2810230 154.1665320
 113.3491200 145.8866180 153.6332870 110.5543960 150.9533640 150.1164950
 110.3284880 150.7370810 151.0211570 109.7736490 151.3862100 149.7710920
 117.7841720 150.9597010 148.7155600 117.1850610 151.6832810 148.5319220
 118.3321330 150.8973790 147.9332050 116.3906590 149.5960550 150.7458880
 116.7836160 149.9132750 149.9327570 116.7523440 148.7172430 150.8603400
 105.4270760 146.1861350 152.9689080 105.1383810 146.7564210 153.6814060
 106.1716520 145.7065800 153.3320310 105.6140990 150.1281470 144.1791800
 105.5315660 151.0712230 144.3206790 105.2624050 149.9856380 143.3004150
 113.4139120 148.8620500 153.2462150 113.4175180 148.4210450 152.3966690
 114.3090240 149.1837830 153.3533970 109.2641500 148.7446990 152.2056360
 108.9241550 149.2222220 152.9623410 108.5018820 148.2912110 151.8457460
 113.4759270 149.8632580 146.2368910 113.5972090 149.8219060 147.1854730
 113.0907780 150.7256730 146.0815640 112.4880770 152.1733720 145.6352210
 111.9197670 151.7251970 145.0088120 113.1969770 152.5326500 145.1017360
 106.5787580 147.6665970 151.1221030 106.2934500 147.3021640 151.9599650
 106.5166440 146.9346430 150.5084170 116.2526170 146.5595230 147.8434400
 115.4390780 146.0608400 147.7679710 116.0588120 147.3993480 147.4270750
 118.9674560 150.9314880 146.1396560 119.8554180 151.2432110 145.9647900
 118.9379650 150.0587130 145.7477140 121.2388830 152.2426720 145.6076420
 121.1552550 152.6740940 144.7572860 121.9583020 152.7025070 146.0403240
 106.0718240 152.8024920 145.0817730 106.9413090 153.0849720 145.3653650
 105.5808560 153.6160790 144.9666540 109.1364830 144.5335780 149.6748530
 109.0079460 144.5253680 150.6233450 108.3126850 144.8718870 149.3239540
 120.9959570 147.7406150 147.6944240 120.3672730 147.8451820 146.9802470
 120.5011490 147.9602930 148.4838120 112.9643600 150.0192100 149.1102120
 112.2559750 150.4878440 149.5515730 113.2488080 149.3614110 149.7447310
 116.9959030 146.7442760 150.5497910 116.8726810 146.7628890 149.6007420
 117.9443590 146.7921700 150.6696310 111.1678620 148.3277180 146.4852830
 112.0169150 148.7647330 146.4193020 110.8009890 148.6397440 147.3124890
 120.0888400 152.8989940 151.3984400 119.1478540 152.9140170 151.5732090
 120.4032470 152.1125900 151.8444700 110.0670040 154.5809540 144.9588360
 110.8333310 154.4690900 145.5213790 110.1444730 153.8847510 144.3065130
 108.7616800 152.0134610 145.6421250 108.8420390 151.0662120 145.7538650
 109.6536550 152.3441490 145.7481910 112.0989070 154.5774670 146.9331000
 112.5205490 154.4114540 147.7762390 112.2239910 153.7674900 146.4386140
 114.6116710 153.6012280 144.1808100 115.1322370 152.8861300 143.8149250
 115.2585110 154.2398150 144.4808610 110.9947970 150.6507900 143.8789160
 110.7937030 149.7875260 144.2402500 110.8240020 150.5641260 142.9410760
 118.4736280 145.4616130 146.4076040 118.7538570 144.6184030 146.7635460
 117.7002010 145.6939240 146.9214790 109.7930770 147.7508520 143.8667040
 110.0956670 147.7575950 142.9586190 110.5325360 147.4006380 144.3634700
 113.0115700 146.6943140 144.8523240 112.6637700 146.0167130 144.2725690
 113.2128470 146.2332650 145.6666630 106.3521340 153.2230790 151.2487610
 105.6970180 152.9542430 150.6047310 107.1899290 153.1135270 150.7989590
 119.3011780 148.0172080 145.4706100 119.7196660 147.8303060 144.6302760
 118.9947840 147.1651130 145.7809030 122.8001510 152.9296220 149.1681900
 122.4245110 152.1624150 148.7363190 122.0704630 153.3118920 149.6556830
 105.5659420 150.4329720 147.1912940 104.6623500 150.6959920 147.0164600
 106.0500040 150.7040890 146.4112900 122.0752470 151.1553710 152.4689140
 122.5989950 150.6616360 151.8379310 122.6611890 151.2904070 153.2136710
 108.1086630 149.4895260 145.1007320 108.8178330 149.0678480 144.6154600
 107.3926570 149.5570490 144.4690670 107.7560790 145.5434590 144.1409970
 108.4788920 146.0843530 144.4591190 108.0285310 145.2698010 143.2651510
 121.5652440 150.4127060 148.4081550 122.0611560 150.1797930 149.1930430
 121.3668510 149.5738900 147.9919190 122.9939600 149.0488010 150.9419230
 122.8838880 148.8944050 151.8801500 123.7547190 148.5208950 150.6994640
 123.8829870 146.8795930 144.1825370 124.8079180 146.7477110 143.9743660
 123.8605660 146.9588750 145.1361820 123.9568360 147.6506590 146.8082080
 123.1619860 147.5851710 147.3374990 124.1611640 148.5857230 146.7967430
 120.3888290 145.9803470 153.2580910 120.8296380 145.9248570 152.4102510
 120.1195880 146.8961480 153.3291090 122.2526860 145.6118710 151.2689730
 122.1915260 144.6679930 151.1220750 123.0318890 145.7198800 151.8143190
 107.1807630 145.5827850 147.7345540 107.9386990 145.6956730 147.1609570
 106.7184800 146.4197050 147.6888970 113.7221440 147.6967120 150.7247850
 112.9095950 147.3224010 150.3843730 114.2263080 146.9412200 151.0269040
 118.2246420 144.3609570 151.9630920 118.8275790 144.9329780 152.4379440
 117.4839410 144.9249010 151.7404820 121.3681020 144.7631130 147.2371200
 121.5631650 145.6614580 147.5038630 120.5810890 144.5318210 147.7304150
 109.5532780 146.1091900 146.2747510 110.0825540 145.3221700 146.1455460
 110.1861100 146.7883090 146.5083040 111.7470620 145.8467040 149.3292900
 111.1173360 145.1454350 149.4963030 111.2075760 146.6071170 149.1126060
 117.3799790 152.5597070 132.7060600 117.2993840 151.6451680 132.4352310
 116.9664210 153.0564140 132.0000310 115.5117830 154.3376090 134.5869870
 114.7359930 153.8576530 134.8768440 116.1630760 153.6581740 134.4126030
 109.5283660 154.6495900 135.4645630 108.6968540 154.3944610 135.8642140
 110.1364640 154.7206670 136.2003550 107.9375610 149.6097790 129.2488020
 107.0492310 149.9513760 129.1467900 108.2216800 149.4098110 128.3568850
 105.9008620 152.2103440 135.1327720 106.4724730 151.4425640 135.1331360
 105.9010160 152.5092200 134.2234330 107.1433490 147.6187800 136.9196650
 106.9636330 146.7213550 137.1999410 106.7413570 148.1659670 137.5943600
 115.9831990 149.8203660 134.8208960 116.3596810 148.9475540 134.7082630
 115.8851500 150.1562360 133.9299400 110.1137000 148.1929290 130.2826400
 110.2203750 149.0933020 130.5895160 109.2029360 148.1447260 129.9921050
 119.7656110 147.3154100 131.7537300 120.5865730 146.8250670 131.7962780
 119.7990190 147.9051760 132.5069140 107.7620160 150.1148300 135.5278990
 108.4430270 150.3786670 136.1466390 107.4468210 149.2749170 135.8617000
 111.9544730 151.1615660 134.6151580 112.4622950 151.6596630 135.2556600
 112.4857970 150.3850860 134.4390940 124.0555660 149.3320850 138.3180930
 123.3507830 149.7202560 137.7996040 124.3213580 150.0271140 138.9201860
 110.2380830 145.8014220 138.8815000 110.2399270 146.3186610 138.0760900
 109.4085140 145.3244400 138.8584930 120.0017590 149.2554480 134.5264840
 119.2973160 149.5439370 135.1067950 120.3629750 150.0654590 134.1664400
 109.9196160 147.5124180 136.8885450 110.2612970 148.3566230 136.5939320
 108.9811970 147.6607920 137.0050790 123.0704510 148.7009270 134.9174050
 122.1229420 148.7348250 135.0489480 123.3954500 149.5148220 135.3023410
 113.6024050 145.0006450 133.2130040 113.9099030 144.4453340 132.4965540
 112.6724750 145.1350910 133.0303030 115.9904810 153.0655280 129.9490160
 115.0634090 152.9992660 130.1778630 116.1429630 154.0035410 129.8345400
 115.9773890 149.3372280 126.9457320 115.0377560 149.4986240 127.0309780
 116.2957150 150.0557960 126.3993310 122.4986650 154.0190800 136.9236350
 121.6705280 154.0883890 136.4486480 123.0937130 154.6045110 136.4552180
 120.0202100 154.6275580 130.4525410 119.4014520 154.2895130 129.8051710
 120.0026550 153.9835340 131.1604600 119.4628660 150.8060120 137.8691220
 119.0499840 151.6313830 138.1231210 118.7304610 150.2205160 137.6767580
 111.5961450 153.5920020 132.7309890 111.1918450 152.8797270 132.2355790
 111.6824570 153.2473260 133.6197930 110.3090070 150.3663230 136.5108930
 110.8604660 150.4758570 135.7362180 110.8233580 150.7400830 137.2264160
 118.1966800 153.8662390 127.4598160 118.6360080 153.0284820 127.3135980
 118.9095220 154.4991790 127.5462300 109.9832800 153.8882590 140.1214270
 109.8440570 154.7605390 140.4901670 109.1014160 153.5455400 139.9762210
 121.7783940 145.1205200 125.7739200 121.4656600 145.2132030 126.6738270
 122.5396410 145.6986230 125.7236630 108.2966080 152.4865000 130.2316540
 108.1763680 153.2127090 129.6197810 107.9866970 151.7167910 129.7544450
 122.9885230 149.8576700 141.7513340 122.3729500 150.3656370 141.2228800
 122.6681650 148.9575030 141.6939280 110.7629740 145.8300070 133.6140210
 110.3197890 146.6109610 133.2824730 111.3214730 146.1529960 134.3211150
 115.0499550 148.6968590 139.2175530 114.5878920 148.9051610 140.0295470
 114.6477660 147.8827940 138.9146200 120.0504060 149.9177540 140.3472190
 119.1997650 149.6183290 140.6681260 119.8905850 150.1619550 139.4356010
 117.1453770 151.4179290 142.4470980 117.4707180 150.5843040 142.1073210
 117.9334100 151.9407810 142.5949310 113.8788560 145.4510770 128.4946040
 113.2542740 145.4470640 129.2199350 113.7918680 144.5841730 128.0982010
 112.8005640 146.3747400 135.4729810 113.0977970 147.2810230 135.3921830
 113.3491200 145.8866180 134.8589380 110.5543960 150.9533640 131.3421460
 110.3284880 150.7370810 132.2468080 109.7736490 151.3862100 130.9967430
 117.7841720 150.9597010 129.9412110 117.1850610 151.6832810 129.7575730
 118.3321330 150.8973790 129.1588560 112.9943170 151.8519220 142.0081730
 112.8986770 150.9113950 141.8582130 113.8375150 152.0734290 141.6129800
 116.3906590 149.5960550 131.9715390 116.7836160 149.9132750 131.1584080
 116.7523440 148.7172430 132.0859910 108.1253710 148.2632890 140.1615510
 107.7317100 149.1108100 140.3688290 107.4372110 147.6259260 140.3524150
 114.6998760 148.3467860 143.2312250 114.0097080 148.1540060 143.8658340
 115.4431060 148.6302500 143.7636550 105.4270760 146.1861350 134.1945590
 105.1383810 146.7564210 134.9070570 106.1716520 145.7065800 134.5576820
 105.6140990 150.1281470 125.4048310 105.5315660 151.0712230 125.5463300
 105.2624050 149.9856380 124.5260660 116.9761730 152.1866300 136.0666170
 116.2442850 152.6953110 136.4156270 116.5786070 151.3696280 135.7654950
 113.4139120 148.8620500 134.4718660 113.4175180 148.4210450 133.6223200
 114.3090240 149.1837830 134.5790480 109.2641500 148.7446990 133.4312870
 108.9241550 149.2222220 134.1879920 108.5018820 148.2912110 133.0713970
 113.4759270 149.8632580 127.4625420 113.5972090 149.8219060 128.4111240
 113.0907780 150.7256730 127.3072150 117.4387640 147.6399980 135.4789110
 117.4560380 148.0908630 136.3230960 117.1903220 146.7405620 135.6922550
 112.4880770 152.1733720 126.8608720 111.9197670 151.7251970 126.2344630
 113.1969770 152.5326500 126.3273870 120.8658390 145.0532160 141.3175490
 121.1904160 144.3221820 141.8433470 120.9014900 144.7345800 140.4156480
 113.7147090 152.9222280 136.2184070 114.0817220 152.4480850 136.9645410
 113.5252150 153.7963850 136.5592410 106.5787580 147.6665970 132.3477540
 106.2934500 147.3021640 133.1856160 106.5166440 146.9346430 131.7340680
 111.5046460 151.9630920 138.5368280 111.2003530 152.8422900 138.7618640
 112.4592920 152.0230710 138.5725720 116.2526170 146.5595230 129.0690910
 115.4390780 146.0608400 128.9936220 116.0588120 147.3993480 128.6527260
 118.9674560 150.9314880 127.3653070 119.8554180 151.2432110 127.1904410
 118.9379650 150.0587130 126.9733650 107.5610190 152.8033660 139.6839640
 107.2025130 153.4687510 140.2712980 107.2664750 151.9717210 140.0552260
 110.7623310 153.2617900 142.5679190 110.4623450 153.4075080 141.6707010
 111.5334550 152.7023190 142.4752580 121.2388830 152.2426720 126.8332930
 121.1552550 152.6740940 125.9829370 121.9583020 152.7025070 127.2659750
 106.0718240 152.8024920 126.3074240 106.9413090 153.0849720 126.5910160
 105.5808560 153.6160790 126.1923050 109.1364830 144.5335780 130.9005040
 109.0079460 144.5253680 131.8489960 108.3126850 144.8718870 130.5496050
 106.1358760 146.2926900 140.3611740 105.4217280 146.4923820 140.9664350
 106.5553800 145.5166470 140.7326540 117.6297540 148.7849210 138.1113190
 117.9978360 147.9644420 138.4392760 116.7695740 148.8451100 138.5268840
 120.9959570 147.7406150 128.9200750 120.3672730 147.8451820 128.2058980
 120.5011490 147.9602930 129.7094630 112.9643600 150.0192100 130.3358630
 112.2559750 150.4878440 130.7772240 113.2488080 149.3614110 130.9703820
 114.5899530 151.4388800 138.3351160 115.0884780 151.9134620 139.0003010
 114.7322480 150.5152320 138.5421190 116.9959030 146.7442760 131.7754420
 116.8726810 146.7628890 130.8263930 117.9443590 146.7921700 131.8952820
 111.1678620 148.3277180 127.7109340 112.0169150 148.7647330 127.6449530
 110.8009890 148.6397440 128.5381400 121.7966390 147.6556760 139.1779550
 121.2939990 148.3962160 139.5173360 122.6123050 148.0440760 138.8616340
 120.0888400 152.8989940 132.6240910 119.1478540 152.9140170 132.7988600
 120.4032470 152.1125900 133.0701210 110.0670040 154.5809540 126.1844870
 110.8333310 154.4690900 126.7470300 110.1444730 153.8847510 125.5321640
 108.7616800 152.0134610 126.8677760 108.8420390 151.0662120 126.9795160
 109.6536550 152.3441490 126.9738420 106.2887600 153.8349530 142.1033930
 106.7926620 153.2556810 142.6750160 105.5495020 154.1189760 142.6410300
 108.3210680 151.9779120 142.9984000 108.3616020 151.6792990 143.9069230
 109.1756180 152.3786730 142.8391520 112.0989070 154.5774670 128.1587510
 112.5205490 154.4114540 129.0018900 112.2239910 153.7674900 127.6642650
 110.2616490 150.5571220 140.9658490 109.7312950 150.0662170 140.3381830
 110.9304560 150.9855420 140.4316420 114.6116710 153.6012280 125.4064610
 115.1322370 152.8861300 125.0405760 115.2585110 154.2398150 125.7065120
 119.6316720 152.3636840 142.7338830 120.2137490 151.6089160 142.6459310
 119.8078490 152.8944280 141.9570310 110.7488790 147.5233590 141.0455780
 110.6545660 146.9054340 140.3206650 110.1686180 148.2499880 140.8185690
 113.5150230 146.0806830 138.0783170 113.0667530 146.1031090 137.2328720
 112.8815430 145.6825850 138.6753470 116.2573680 152.7077340 140.0833450
 116.3769890 152.1118480 140.8228290 117.1167680 152.7447030 139.6634750
 118.5961580 153.2614530 138.6595960 118.0696800 153.7857150 138.0561100
 118.9392920 153.8941920 139.2905690 110.9947970 150.6507900 125.1045670
 110.7937030 149.7875260 125.4659010 110.8240020 150.5641260 124.1667270
 113.0242450 149.2498690 141.3409270 113.6142140 148.9414540 142.0287090
 112.2062690 148.7778440 141.4969170 117.8435880 148.8664500 141.5742290
 117.1551400 148.2046040 141.5092280 118.5641900 148.4202770 142.0190750
 118.4736280 145.4616130 127.6332550 118.7538570 144.6184030 127.9891970
 117.7002010 145.6939240 128.1471300 109.7930770 147.7508520 125.0923550
 110.0956670 147.7575950 124.1842700 110.5325360 147.4006380 125.5891210
 113.0115700 146.6943140 126.0779750 112.6637700 146.0167130 125.4982200
 113.2128470 146.2332650 126.8923140 106.3521340 153.2230790 132.4744120
 105.6970180 152.9542430 131.8303820 107.1899290 153.1135270 132.0246100
 119.3011780 148.0172080 126.6962610 119.7196660 147.8303060 125.8559270
 118.9947840 147.1651130 127.0065540 122.8001510 152.9296220 130.3938410
 122.4245110 152.1624150 129.9619700 122.0704630 153.3118920 130.8813340
 107.3897270 153.6083360 137.0147460 107.7570310 153.5210760 137.8943480
 106.8208090 152.8449910 136.9154320 122.1901130 152.0767740 140.0277930
 121.9587220 151.8480490 139.1275880 122.4505680 152.9967290 139.9822820
 106.9413270 150.5192450 140.9205880 106.0469320 150.4859210 141.2599590
 107.4810820 150.7179240 141.6857130 120.6289200 147.3024170 142.8057630
 121.5059380 147.3107570 143.1891630 120.6410040 146.5655010 142.1949980
 105.5659420 150.4329720 128.4169450 104.6623500 150.6959920 128.2421110
 106.0500040 150.7040890 127.6369410 122.0752470 151.1553710 133.6945650
 122.5989950 150.6616360 133.0635820 122.6611890 151.2904070 134.4393220
 122.2542190 151.2393580 137.2165200 121.3044900 151.2057120 137.3310190
 122.4355200 152.1493690 136.9814970 108.1086630 149.4895260 126.3263830
 108.8178330 149.0678480 125.8411110 107.3926570 149.5570490 125.6947180
 107.7560790 145.5434590 125.3666480 108.4788920 146.0843530 125.6847700
 108.0285310 145.2698010 124.4908020 121.5652440 150.4127060 129.6338060
 122.0611560 150.1797930 130.4186940 121.3668510 149.5738900 129.2175700
 107.4452980 144.7940780 135.2689100 108.0929170 144.2438160 134.8284260
 107.8654820 145.0483930 136.0904910 122.9939600 149.0488010 132.1675740
 122.8838880 148.8944050 133.1058010 123.7547190 148.5208950 131.9251150
 121.3405320 144.9882140 138.6258740 121.9777540 145.6016280 138.9917930
 121.4880210 145.0242800 137.6807970 123.8829870 146.8795930 125.4081880
 124.8079180 146.7477110 125.2000170 123.8605660 146.9588750 126.3618330
 123.9568360 147.6506590 128.0338590 123.1619860 147.5851710 128.5631500
 124.1611640 148.5857230 128.0223940 107.1984980 144.9496450 138.0114420
 106.8499800 145.4060270 138.7772600 106.8672680 144.0553580 138.0936850
 114.7109800 146.1408330 141.5333840 114.6498690 146.7330160 142.2829250
 115.6510180 146.0334290 141.3884100 117.3484360 145.7978390 141.1726130
 117.9624770 146.1157680 140.5107210 117.8933920 145.3126980 141.7921990
 107.8705620 144.4772650 141.2865190 108.4188610 144.2960700 140.5231300
 107.9360930 143.6866760 141.8221500 118.0892400 144.3610530 137.4995420
 117.2152240 144.6945640 137.2968350 117.9803150 143.8883710 138.3247290
 118.9964380 146.5681400 138.8837140 118.6677740 145.7533160 138.5038870
 119.9446680 146.5251210 138.7602830 115.8367220 145.2780370 136.4388330
 115.0539010 145.7525870 136.7185090 115.5430150 144.3735200 136.3301510
 120.3888290 145.9803470 134.4837420 120.8296380 145.9248570 133.6359020
 120.1195880 146.8961480 134.5547600 122.2526860 145.6118710 132.4946240
 122.1915260 144.6679930 132.3477260 123.0318890 145.7198800 133.0399700
 107.1807630 145.5827850 128.9602050 107.9386990 145.6956730 128.3866080
 106.7184800 146.4197050 128.9145480 113.7221440 147.6967120 131.9504360
 112.9095950 147.3224010 131.6100240 114.2263080 146.9412200 132.2525550
 118.2246420 144.3609570 133.1887430 118.8275790 144.9329780 133.6635950
 117.4839410 144.9249010 132.9661330 121.3681020 144.7631130 128.4627710
 121.5631650 145.6614580 128.7295140 120.5810890 144.5318210 128.9560660
 109.5532780 146.1091900 127.5004020 110.0825540 145.3221700 127.3711970
 110.1861100 146.7883090 127.7339550 111.7470620 145.8467040 130.5549410
 111.1173360 145.1454350 130.7219540 111.2075760 146.6071170 130.3382570
 111.8726180 145.1251020 142.9901900 111.5910450 145.6284620 142.2262720
 112.2545880 144.3272770 142.6244030 118.4741640 144.5404600 143.5682370
 118.3607090 144.8599210 144.4633890 119.2911380 144.9417110 143.2719650
 117.3799790 152.5597070 113.9317110 117.2993840 151.6451680 113.6608820
 116.9664210 153.0564140 113.2256820 115.5117830 154.3376090 115.8126380
 114.7359930 153.8576530 116.1024950 116.1630760 153.6581740 115.6382540
 109.5283660 154.6495900 116.6902140 108.6968540 154.3944610 117.0898650
 110.1364640 154.7206670 117.4260060 107.9375610 149.6097790 110.4744530
 107.0492310 149.9513760 110.3724410 108.2216800 149.4098110 109.5825360
 105.9008620 152.2103440 116.3584230 106.4724730 151.4425640 116.3587870
 105.9010160 152.5092200 115.4490840 107.1433490 147.6187800 118.1453160
 106.9636330 146.7213550 118.4255920 106.7413570 148.1659670 118.8200110
 115.9831990 149.8203660 116.0465470 116.3596810 148.9475540 115.9339140
 115.8851500 150.1562360 115.1555910 110.1137000 148.1929290 111.5082910
 110.2203750 149.0933020 111.8151670 109.2029360 148.1447260 111.2177560
 119.7656110 147.3154100 112.9793810 120.5865730 146.8250670 113.0219290
 119.7990190 147.9051760 113.7325650 107.7620160 150.1148300 116.7535500
 108.4430270 150.3786670 117.3722900 107.4468210 149.2749170 117.0873510
 111.9544730 151.1615660 115.8408090 112.4622950 151.6596630 116.4813110
 112.4857970 150.3850860 115.6647450 124.0555660 149.3320850 119.5437440
 123.3507830 149.7202560 119.0252550 124.3213580 150.0271140 120.1458370
 110.2380830 145.8014220 120.1071510 110.2399270 146.3186610 119.3017410
 109.4085140 145.3244400 120.0841440 120.0017590 149.2554480 115.7521350
 119.2973160 149.5439370 116.3324460 120.3629750 150.0654590 115.3920910
 109.9196160 147.5124180 118.1141960 110.2612970 148.3566230 117.8195830
 108.9811970 147.6607920 118.2307300 123.0704510 148.7009270 116.1430560
 122.1229420 148.7348250 116.2745990 123.3954500 149.5148220 116.5279920
 113.6024050 145.0006450 114.4386550 113.9099030 144.4453340 113.7222050
 112.6724750 145.1350910 114.2559540 115.9904810 153.0655280 111.1746670
 115.0634090 152.9992660 111.4035140 116.1429630 154.0035410 111.0601910
 115.9773890 149.3372280 108.1713830 115.0377560 149.4986240 108.2566290
 116.2957150 150.0557960 107.6249820 122.4986650 154.0190800 118.1492860
 121.6705280 154.0883890 117.6742990 123.0937130 154.6045110 117.6808690
 120.0202100 154.6275580 111.6781920 119.4014520 154.2895130 111.0308220
 120.0026550 153.9835340 112.3861110 119.4628660 150.8060120 119.0947730
 119.0499840 151.6313830 119.3487720 118.7304610 150.2205160 118.9024090
 111.5961450 153.5920020 113.9566400 111.1918450 152.8797270 113.4612300
 111.6824570 153.2473260 114.8454440 110.3090070 150.3663230 117.7365440
 110.8604660 150.4758570 116.9618690 110.8233580 150.7400830 118.4520670
 118.1966800 153.8662390 108.6854670 118.6360080 153.0284820 108.5392490
 118.9095220 154.4991790 108.7718810 109.9832800 153.8882590 121.3470780
 109.8440570 154.7605390 121.7158180 109.1014160 153.5455400 121.2018720
 121.7783940 145.1205200 106.9995710 121.4656600 145.2132030 107.8994780
 122.5396410 145.6986230 106.9493140 108.2966080 152.4865000 111.4573050
 108.1763680 153.2127090 110.8454320 107.9866970 151.7167910 110.9800960
 122.9885230 149.8576700 122.9769850 122.3729500 150.3656370 122.4485310
 122.6681650 148.9575030 122.9195790 110.7629740 145.8300070 114.8396720
 110.3197890 146.6109610 114.5081240 111.3214730 146.1529960 115.5467660
 115.0499550 148.6968590 120.4432040 114.5878920 148.9051610 121.2551980
 114.6477660 147.8827940 120.1402710 120.0504060 149.9177540 121.5728700
 119.1997650 149.6183290 121.8937770 119.8905850 150.1619550 120.6612520
 117.1453770 151.4179290 123.6727490 117.4707180 150.5843040 123.3329720
 117.9334100 151.9407810 123.8205820 113.8788560 145.4510770 109.7202550
 113.2542740 145.4470640 110.4455860 113.7918680 144.5841730 109.3238520
 112.8005640 146.3747400 116.6986320 113.0977970 147.2810230 116.6178340
 113.3491200 145.8866180 116.0845890 110.5543960 150.9533640 112.5677970
 110.3284880 150.7370810 113.4724590 109.7736490 151.3862100 112.2223940
 117.7841720 150.9597010 111.1668620 117.1850610 151.6832810 110.9832240
 118.3321330 150.8973790 110.3845070 112.9943170 151.8519220 123.2338240
 112.8986770 150.9113950 123.0838640 113.8375150 152.0734290 122.8386310
 116.3906590 149.5960550 113.1971900 116.7836160 149.9132750 112.3840590
 116.7523440 148.7172430 113.3116420 108.1253710 148.2632890 121.3872020
 107.7317100 149.1108100 121.5944800 107.4372110 147.6259260 121.5780660
 114.6998760 148.3467860 124.4568760 114.0097080 148.1540060 125.0914850
 115.4431060 148.6302500 124.9893060 105.4270760 146.1861350 115.4202100
 105.1383810 146.7564210 116.1327080 106.1716520 145.7065800 115.7833330
 105.6140990 150.1281470 106.6304820 105.5315660 151.0712230 106.7719810
 105.2624050 149.9856380 105.7517170 116.9761730 152.1866300 117.2922680
 116.2442850 152.6953110 117.6412780 116.5786070 151.3696280 116.9911460
 113.4139120 148.8620500 115.6975170 113.4175180 148.4210450 114.8479710
 114.3090240 149.1837830 115.8046990 109.2641500 148.7446990 114.6569380
 108.9241550 149.2222220 115.4136430 108.5018820 148.2912110 114.2970480
 113.4759270 149.8632580 108.6881930 113.5972090 149.8219060 109.6367750
 113.0907780 150.7256730 108.5328660 117.4387640 147.6399980 116.7045620
 117.4560380 148.0908630 117.5487470 117.1903220 146.7405620 116.9179060
 112.4880770 152.1733720 108.0865230 111.9197670 151.7251970 107.4601140
 113.1969770 152.5326500 107.5530380 120.8658390 145.0532160 122.5432000
 121.1904160 144.3221820 123.0689980 120.9014900 144.7345800 121.6412990
 113.7147090 152.9222280 117.4440580 114.0817220 152.4480850 118.1901920
 113.5252150 153.7963850 117.7848920 106.5787580 147.6665970 113.5734050
 106.2934500 147.3021640 114.4112670 106.5166440 146.9346430 112.9597190
 111.5046460 151.9630920 119.7624790 111.2003530 152.8422900 119.9875150
 112.4592920 152.0230710 119.7982230 116.2526170 146.5595230 110.2947420
 115.4390780 146.0608400 110.2192730 116.0588120 147.3993480 109.8783770
 118.9674560 150.9314880 108.5909580 119.8554180 151.2432110 108.4160920
 118.9379650 150.0587130 108.1990160 107.5610190 152.8033660 120.9096150
 107.2025130 153.4687510 121.4969490 107.2664750 151.9717210 121.2808770
 110.7623310 153.2617900 123.7935700 110.4623450 153.4075080 122.8963520
 111.5334550 152.7023190 123.7009090 121.2388830 152.2426720 108.0589440
 121.1552550 152.6740940 107.2085880 121.9583020 152.7025070 108.4916260
 106.0718240 152.8024920 107.5330750 106.9413090 153.0849720 107.8166670
 105.5808560 153.6160790 107.4179560 109.1364830 144.5335780 112.1261550
 109.0079460 144.5253680 113.0746470 108.3126850 144.8718870 111.7752560
 106.1358760 146.2926900 121.5868250 105.4217280 146.4923820 122.1920860
 106.5553800 145.5166470 121.9583050 117.6297540 148.7849210 119.3369700
 117.9978360 147.9644420 119.6649270 116.7695740 148.8451100 119.7525350
 120.9959570 147.7406150 110.1457260 120.3672730 147.8451820 109.4315490
 120.5011490 147.9602930 110.9351140 112.9643600 150.0192100 111.5615140
 112.2559750 150.4878440 112.0028750 113.2488080 149.3614110 112.1960330
 114.5899530 151.4388800 119.5607670 115.0884780 151.9134620 120.2259520
 114.7322480 150.5152320 119.7677700 116.9959030 146.7442760 113.0010930
 116.8726810 146.7628890 112.0520440 117.9443590 146.7921700 113.1209330
 111.1678620 148.3277180 108.9365850 112.0169150 148.7647330 108.8706040
 110.8009890 148.6397440 109.7637910 121.7966390 147.6556760 120.4036060
 121.2939990 148.3962160 120.7429870 122.6123050 148.0440760 120.0872850
 120.0888400 152.8989940 113.8497420 119.1478540 152.9140170 114.0245110
 120.4032470 152.1125900 114.2957720 110.0670040 154.5809540 107.4101380
 110.8333310 154.4690900 107.9726810 110.1444730 153.8847510 106.7578150
 108.7616800 152.0134610 108.0934270 108.8420390 151.0662120 108.2051670
 109.6536550 152.3441490 108.1994930 106.2887600 153.8349530 123.3290440
 106.7926620 153.2556810 123.9006670 105.5495020 154.1189760 123.8666810
 108.3210680 151.9779120 124.2240510 108.3616020 151.6792990 125.1325740
 109.1756180 152.3786730 124.0648030 112.0989070 154.5774670 109.3844020
 112.5205490 154.4114540 110.2275410 112.2239910 153.7674900 108.8899160
 110.2616490 150.5571220 122.1915000 109.7312950 150.0662170 121.5638340
 110.9304560 150.9855420 121.6572930 114.6116710 153.6012280 106.6321120
 115.1322370 152.8861300 106.2662270 115.2585110 154.2398150 106.9321630
 119.6316720 152.3636840 123.9595340 120.2137490 151.6089160 123.8715820
 119.8078490 152.8944280 123.1826820 110.7488790 147.5233590 122.2712290
 110.6545660 146.9054340 121.5463160 110.1686180 148.2499880 122.0442200
 113.5150230 146.0806830 119.3039680 113.0667530 146.1031090 118.4585230
 112.8815430 145.6825850 119.9009980 116.2573680 152.7077340 121.3089960
 116.3769890 152.1118480 122.0484800 117.1167680 152.7447030 120.8891260
 118.5961580 153.2614530 119.8852470 118.0696800 153.7857150 119.2817610
 118.9392920 153.8941920 120.5162200 110.9947970 150.6507900 106.3302180
 110.7937030 149.7875260 106.6915520 110.8240020 150.5641260 105.3923780
 113.0242450 149.2498690 122.5665780 113.6142140 148.9414540 123.2543600
 112.2062690 148.7778440 122.7225680 117.8435880 148.8664500 122.7998800
 117.1551400 148.2046040 122.7348790 118.5641900 148.4202770 123.2447260
 118.4736280 145.4616130 108.8589060 118.7538570 144.6184030 109.2148480
 117.7002010 145.6939240 109.3727810 109.7930770 147.7508520 106.3180060
 110.0956670 147.7575950 105.4099210 110.5325360 147.4006380 106.8147720
 113.0115700 146.6943140 107.3036260 112.6637700 146.0167130 106.7238710
 113.2128470 146.2332650 108.1179650 106.3521340 153.2230790 113.7000630
 105.6970180 152.9542430 113.0560330 107.1899290 153.1135270 113.2502610
 119.3011780 148.0172080 107.9219120 119.7196660 147.8303060 107.0815780
 118.9947840 147.1651130 108.2322050 122.8001510 152.9296220 111.6194920
 122.4245110 152.1624150 111.1876210 122.0704630 153.3118920 112.1069850
 107.3897270 153.6083360 118.2403970 107.7570310 153.5210760 119.1199990
 106.8208090 152.8449910 118.1410830 122.1901130 152.0767740 121.2534440
 121.9587220 151.8480490 120.3532390 122.4505680 152.9967290 121.2079330
 106.9413270 150.5192450 122.1462390 106.0469320 150.4859210 122.4856100
 107.4810820 150.7179240 122.9113640 120.6289200 147.3024170 124.0314140
 121.5059380 147.3107570 124.4148140 120.6410040 146.5655010 123.4206490
 105.5659420 150.4329720 109.6425960 104.6623500 150.6959920 109.4677620
 106.0500040 150.7040890 108.8625920 122.0752470 151.1553710 114.9202160
 122.5989950 150.6616360 114.2892330 122.6611890 151.2904070 115.6649730
 122.2542190 151.2393580 118.4421710 121.3044900 151.2057120 118.5566700
 122.4355200 152.1493690 118.2071480 108.1086630 149.4895260 107.5520340
 108.8178330 149.0678480 107.0667620 107.3926570 149.5570490 106.9203690
 107.7560790 145.5434590 106.5922990 108.4788920 146.0843530 106.9104210
 108.0285310 145.2698010 105.7164530 121.5652440 150.4127060 110.8594570
 122.0611560 150.1797930 111.6443450 121.3668510 149.5738900 110.4432210
 107.4452980 144.7940780 116.4945610 108.0929170 144.2438160 116.0540770
 107.8654820 145.0483930 117.3161420 122.9939600 149.0488010 113.3932250
 122.8838880 148.8944050 114.3314520 123.7547190 148.5208950 113.1507660
 121.3405320 144.9882140 119.8515250 121.9777540 145.6016280 120.2174440
 121.4880210 145.0242800 118.9064480 123.8829870 146.8795930 106.6338390
 124.8079180 146.7477110 106.4256680 123.8605660 146.9588750 107.5874840
 123.9568360 147.6506590 109.2595100 123.1619860 147.5851710 109.7888010
 124.1611640 148.5857230 109.2480450 107.1984980 144.9496450 119.2370930
 106.8499800 145.4060270 120.0029110 106.8672680 144.0553580 119.3193360
 114.7109800 146.1408330 122.7590350 114.6498690 146.7330160 123.5085760
 115.6510180 146.0334290 122.6140610 117.3484360 145.7978390 122.3982640
 117.9624770 146.1157680 121.7363720 117.8933920 145.3126980 123.0178500
 107.8705620 144.4772650 122.5121700 108.4188610 144.2960700 121.7487810
 107.9360930 143.6866760 123.0478010 118.0892400 144.3610530 118.7251930
 117.2152240 144.6945640 118.5224860 117.9803150 143.8883710 119.5503800
 118.9964380 146.5681400 120.1093650 118.6677740 145.7533160 119.7295380
 119.9446680 146.5251210 119.9859340 115.8367220 145.2780370 117.6644840
 115.0539010 145.7525870 117.9441600 115.5430150 144.3735200 117.5558020
 120.3888290 145.9803470 115.7093930 120.8296380 145.9248570 114.8615530
 120.1195880 146.8961480 115.7804110 122.2526860 145.6118710 113.7202750
 122.1915260 144.6679930 113.5733770 123.0318890 145.7198800 114.2656210
 107.1807630 145.5827850 110.1858560 107.9386990 145.6956730 109.6122590
 106.7184800 146.4197050 110.1401990 113.7221440 147.6967120 113.1760870
 112.9095950 147.3224010 112.8356750 114.2263080 146.9412200 113.4782060
 118.2246420 144.3609570 114.4143940 118.8275790 144.9329780 114.8892460
 117.4839410 144.9249010 114.1917840 121.3681020 144.7631130 109.6884220
 121.5631650 145.6614580 109.9551650 120.5810890 144.5318210 110.1817170
 109.5532780 146.1091900 108.7260530 110.0825540 145.3221700 108.5968480
 110.1861100 146.7883090 108.9596060 111.7470620 145.8467040 111.7805920
 111.1173360 145.1454350 111.9476050 111.2075760 146.6071170 111.5639080
 111.8726180 145.1251020 124.2158410 111.5910450 145.6284620 123.4519230
 112.2545880 144.3272770 123.8500540 118.4741640 144.5404600 124.7938880
 118.3607090 144.8599210 125.6890400 119.2911380 144.9417110 124.4976160
 117.3799790 152.5597070  95.1573620 117.2993840 151.6451680  94.8865330
 116.9664210 153.0564140  94.4513330 115.5117830 154.3376090  97.0382890
 114.7359930 153.8576530  97.3281460 116.1630760 153.6581740  96.8639050
 109.5283660 154.6495900  97.9158650 108.6968540 154.3944610  98.3155160
 110.1364640 154.7206670  98.6516570 107.9375610 149.6097790  91.7001040
 107.0492310 149.9513760  91.5980920 108.2216800 149.4098110  90.8081870
 105.9008620 152.2103440  97.5840740 106.4724730 151.4425640  97.5844380
 105.9010160 152.5092200  96.6747350 107.1433490 147.6187800  99.3709670
 106.9636330 146.7213550  99.6512430 106.7413570 148.1659670 100.0456620
 115.9831990 149.8203660  97.2721980 116.3596810 148.9475540  97.1595650
 115.8851500 150.1562360  96.3812420 110.1137000 148.1929290  92.7339420
 110.2203750 149.0933020  93.0408180 109.2029360 148.1447260  92.4434070
 119.7656110 147.3154100  94.2050320 120.5865730 146.8250670  94.2475800
 119.7990190 147.9051760  94.9582160 107.7620160 150.1148300  97.9792010
 108.4430270 150.3786670  98.5979410 107.4468210 149.2749170  98.3130020
 111.9544730 151.1615660  97.0664600 112.4622950 151.6596630  97.7069620
 112.4857970 150.3850860  96.8903960 124.0555660 149.3320850 100.7693950
 123.3507830 149.7202560 100.2509060 124.3213580 150.0271140 101.3714880
 110.2380830 145.8014220 101.3328020 110.2399270 146.3186610 100.5273920
 109.4085140 145.3244400 101.3097950 120.0017590 149.2554480  96.9777860
 119.2973160 149.5439370  97.5580970 120.3629750 150.0654590  96.6177420
 109.9196160 147.5124180  99.3398470 110.2612970 148.3566230  99.0452340
 108.9811970 147.6607920  99.4563810 123.0704510 148.7009270  97.3687070
 122.1229420 148.7348250  97.5002500 123.3954500 149.5148220  97.7536430
 113.6024050 145.0006450  95.6643060 113.9099030 144.4453340  94.9478560
 112.6724750 145.1350910  95.4816050 115.9904810 153.0655280  92.4003180
 115.0634090 152.9992660  92.6291650 116.1429630 154.0035410  92.2858420
 115.9773890 149.3372280  89.3970340 115.0377560 149.4986240  89.4822800
 116.2957150 150.0557960  88.8506330 122.4986650 154.0190800  99.3749370
 121.6705280 154.0883890  98.8999500 123.0937130 154.6045110  98.9065200
 120.0202100 154.6275580  92.9038430 119.4014520 154.2895130  92.2564730
 120.0026550 153.9835340  93.6117620 119.4628660 150.8060120 100.3204240
 119.0499840 151.6313830 100.5744230 118.7304610 150.2205160 100.1280600
 111.5961450 153.5920020  95.1822910 111.1918450 152.8797270  94.6868810
 111.6824570 153.2473260  96.0710950 110.3090070 150.3663230  98.9621950
 110.8604660 150.4758570  98.1875200 110.8233580 150.7400830  99.6777180
 118.1966800 153.8662390  89.9111180 118.6360080 153.0284820  89.7649000
 118.9095220 154.4991790  89.9975320 109.9832800 153.8882590 102.5727290
 109.8440570 154.7605390 102.9414690 109.1014160 153.5455400 102.4275230
 121.7783940 145.1205200  88.2252220 121.4656600 145.2132030  89.1251290
 122.5396410 145.6986230  88.1749650 108.2966080 152.4865000  92.6829560
 108.1763680 153.2127090  92.0710830 107.9866970 151.7167910  92.2057470
 122.9885230 149.8576700 104.2026360 122.3729500 150.3656370 103.6741820
 122.6681650 148.9575030 104.1452300 110.7629740 145.8300070  96.0653230
 110.3197890 146.6109610  95.7337750 111.3214730 146.1529960  96.7724170
 115.0499550 148.6968590 101.6688550 114.5878920 148.9051610 102.4808490
 114.6477660 147.8827940 101.3659220 120.0504060 149.9177540 102.7985210
 119.1997650 149.6183290 103.1194280 119.8905850 150.1619550 101.8869030
 117.1453770 151.4179290 104.8984000 117.4707180 150.5843040 104.5586230
 117.9334100 151.9407810 105.0462330 113.8788560 145.4510770  90.9459060
 113.2542740 145.4470640  91.6712370 113.7918680 144.5841730  90.5495030
 112.8005640 146.3747400  97.9242830 113.0977970 147.2810230  97.8434850
 113.3491200 145.8866180  97.3102400 110.5543960 150.9533640  93.7934480
 110.3284880 150.7370810  94.6981100 109.7736490 151.3862100  93.4480450
 117.7841720 150.9597010  92.3925130 117.1850610 151.6832810  92.2088750
 118.3321330 150.8973790  91.6101580 112.9943170 151.8519220 104.4594750
 112.8986770 150.9113950 104.3095150 113.8375150 152.0734290 104.0642820
 116.3906590 149.5960550  94.4228410 116.7836160 149.9132750  93.6097100
 116.7523440 148.7172430  94.5372930 108.1253710 148.2632890 102.6128530
 107.7317100 149.1108100 102.8201310 107.4372110 147.6259260 102.8037170
 114.6998760 148.3467860 105.6825270 114.0097080 148.1540060 106.3171360
 115.4431060 148.6302500 106.2149570 105.4270760 146.1861350  96.6458610
 105.1383810 146.7564210  97.3583590 106.1716520 145.7065800  97.0089840
 105.6140990 150.1281470  87.8561330 105.5315660 151.0712230  87.9976320
 105.2624050 149.9856380  86.9773680 116.9761730 152.1866300  98.5179190
 116.2442850 152.6953110  98.8669290 116.5786070 151.3696280  98.2167970
 113.4139120 148.8620500  96.9231680 113.4175180 148.4210450  96.0736220
 114.3090240 149.1837830  97.0303500 109.2641500 148.7446990  95.8825890
 108.9241550 149.2222220  96.6392940 108.5018820 148.2912110  95.5226990
 113.4759270 149.8632580  89.9138440 113.5972090 149.8219060  90.8624260
 113.0907780 150.7256730  89.7585170 117.4387640 147.6399980  97.9302130
 117.4560380 148.0908630  98.7743980 117.1903220 146.7405620  98.1435570
 112.4880770 152.1733720  89.3121740 111.9197670 151.7251970  88.6857650
 113.1969770 152.5326500  88.7786890 120.8658390 145.0532160 103.7688510
 121.1904160 144.3221820 104.2946490 120.9014900 144.7345800 102.8669500
 113.7147090 152.9222280  98.6697090 114.0817220 152.4480850  99.4158430
 113.5252150 153.7963850  99.0105430 106.5787580 147.6665970  94.7990560
 106.2934500 147.3021640  95.6369180 106.5166440 146.9346430  94.1853700
 111.5046460 151.9630920 100.9881300 111.2003530 152.8422900 101.2131660
 112.4592920 152.0230710 101.0238740 116.2526170 146.5595230  91.5203930
 115.4390780 146.0608400  91.4449240 116.0588120 147.3993480  91.1040280
 118.9674560 150.9314880  89.8166090 119.8554180 151.2432110  89.6417430
 118.9379650 150.0587130  89.4246670 107.5610190 152.8033660 102.1352660
 107.2025130 153.4687510 102.7226000 107.2664750 151.9717210 102.5065280
 110.7623310 153.2617900 105.0192210 110.4623450 153.4075080 104.1220030
 111.5334550 152.7023190 104.9265600 121.2388830 152.2426720  89.2845950
 121.1552550 152.6740940  88.4342390 121.9583020 152.7025070  89.7172770
 106.0718240 152.8024920  88.7587260 106.9413090 153.0849720  89.0423180
 105.5808560 153.6160790  88.6436070 109.1364830 144.5335780  93.3518060
 109.0079460 144.5253680  94.3002980 108.3126850 144.8718870  93.0009070
 106.1358760 146.2926900 102.8124760 105.4217280 146.4923820 103.4177370
 106.5553800 145.5166470 103.1839560 117.6297540 148.7849210 100.5626210
 117.9978360 147.9644420 100.8905780 116.7695740 148.8451100 100.9781860
 120.9959570 147.7406150  91.3713770 120.3672730 147.8451820  90.6572000
 120.5011490 147.9602930  92.1607650 112.9643600 150.0192100  92.7871650
 112.2559750 150.4878440  93.2285260 113.2488080 149.3614110  93.4216840
 114.5899530 151.4388800 100.7864180 115.0884780 151.9134620 101.4516030
 114.7322480 150.5152320 100.9934210 116.9959030 146.7442760  94.2267440
 116.8726810 146.7628890  93.2776950 117.9443590 146.7921700  94.3465840
 111.1678620 148.3277180  90.1622360 112.0169150 148.7647330  90.0962550
 110.8009890 148.6397440  90.9894420 121.7966390 147.6556760 101.6292570
 121.2939990 148.3962160 101.9686380 122.6123050 148.0440760 101.3129360
 120.0888400 152.8989940  95.0753930 119.1478540 152.9140170  95.2501620
 120.4032470 152.1125900  95.5214230 110.0670040 154.5809540  88.6357890
 110.8333310 154.4690900  89.1983320 110.1444730 153.8847510  87.9834660
 108.7616800 152.0134610  89.3190780 108.8420390 151.0662120  89.4308180
 109.6536550 152.3441490  89.4251440 106.2887600 153.8349530 104.5546950
 106.7926620 153.2556810 105.1263180 105.5495020 154.1189760 105.0923320
 108.3210680 151.9779120 105.4497020 108.3616020 151.6792990 106.3582250
 109.1756180 152.3786730 105.2904540 112.0989070 154.5774670  90.6100530
 112.5205490 154.4114540  91.4531920 112.2239910 153.7674900  90.1155670
 110.2616490 150.5571220 103.4171510 109.7312950 150.0662170 102.7894850
 110.9304560 150.9855420 102.8829440 114.6116710 153.6012280  87.8577630
 115.1322370 152.8861300  87.4918780 115.2585110 154.2398150  88.1578140
 119.6316720 152.3636840 105.1851850 120.2137490 151.6089160 105.0972330
 119.8078490 152.8944280 104.4083330 110.7488790 147.5233590 103.4968800
 110.6545660 146.9054340 102.7719670 110.1686180 148.2499880 103.2698710
 113.5150230 146.0806830 100.5296190 113.0667530 146.1031090  99.6841740
 112.8815430 145.6825850 101.1266490 116.2573680 152.7077340 102.5346470
 116.3769890 152.1118480 103.2741310 117.1167680 152.7447030 102.1147770
 118.5961580 153.2614530 101.1108980 118.0696800 153.7857150 100.5074120
 118.9392920 153.8941920 101.7418710 110.9947970 150.6507900  87.5558690
 110.7937030 149.7875260  87.9172030 110.8240020 150.5641260  86.6180290
 113.0242450 149.2498690 103.7922290 113.6142140 148.9414540 104.4800110
 112.2062690 148.7778440 103.9482190 117.8435880 148.8664500 104.0255310
 117.1551400 148.2046040 103.9605300 118.5641900 148.4202770 104.4703770
 118.4736280 145.4616130  90.0845570 118.7538570 144.6184030  90.4404990
 117.7002010 145.6939240  90.5984320 109.7930770 147.7508520  87.5436570
 110.0956670 147.7575950  86.6355720 110.5325360 147.4006380  88.0404230
 113.0115700 146.6943140  88.5292770 112.6637700 146.0167130  87.9495220
 113.2128470 146.2332650  89.3436160 106.3521340 153.2230790  94.9257140
 105.6970180 152.9542430  94.2816840 107.1899290 153.1135270  94.4759120
 119.3011780 148.0172080  89.1475630 119.7196660 147.8303060  88.3072290
 118.9947840 147.1651130  89.4578560 122.8001510 152.9296220  92.8451430
 122.4245110 152.1624150  92.4132720 122.0704630 153.3118920  93.3326360
 107.3897270 153.6083360  99.4660480 107.7570310 153.5210760 100.3456500
 106.8208090 152.8449910  99.3667340 122.1901130 152.0767740 102.4790950
 121.9587220 151.8480490 101.5788900 122.4505680 152.9967290 102.4335840
 106.9413270 150.5192450 103.3718900 106.0469320 150.4859210 103.7112610
 107.4810820 150.7179240 104.1370150 120.6289200 147.3024170 105.2570650
 121.5059380 147.3107570 105.6404650 120.6410040 146.5655010 104.6463000
 105.5659420 150.4329720  90.8682470 104.6623500 150.6959920  90.6934130
 106.0500040 150.7040890  90.0882430 122.0752470 151.1553710  96.1458670
 122.5989950 150.6616360  95.5148840 122.6611890 151.2904070  96.8906240
 122.2542190 151.2393580  99.6678220 121.3044900 151.2057120  99.7823210
 122.4355200 152.1493690  99.4327990 108.1086630 149.4895260  88.7776850
 108.8178330 149.0678480  88.2924130 107.3926570 149.5570490  88.1460200
 107.7560790 145.5434590  87.8179500 108.4788920 146.0843530  88.1360720
 108.0285310 145.2698010  86.9421040 121.5652440 150.4127060  92.0851080
 122.0611560 150.1797930  92.8699960 121.3668510 149.5738900  91.6688720
 107.4452980 144.7940780  97.7202120 108.0929170 144.2438160  97.2797280
 107.8654820 145.0483930  98.5417930 122.9939600 149.0488010  94.6188760
 122.8838880 148.8944050  95.5571030 123.7547190 148.5208950  94.3764170
 121.3405320 144.9882140 101.0771760 121.9777540 145.6016280 101.4430950
 121.4880210 145.0242800 100.1320990 123.8829870 146.8795930  87.8594900
 124.8079180 146.7477110  87.6513190 123.8605660 146.9588750  88.8131350
 123.9568360 147.6506590  90.4851610 123.1619860 147.5851710  91.0144520
 124.1611640 148.5857230  90.4736960 107.1984980 144.9496450 100.4627440
 106.8499800 145.4060270 101.2285620 106.8672680 144.0553580 100.5449870
 114.7109800 146.1408330 103.9846860 114.6498690 146.7330160 104.7342270
 115.6510180 146.0334290 103.8397120 117.3484360 145.7978390 103.6239150
 117.9624770 146.1157680 102.9620230 117.8933920 145.3126980 104.2435010
 107.8705620 144.4772650 103.7378210 108.4188610 144.2960700 102.9744320
 107.9360930 143.6866760 104.2734520 118.0892400 144.3610530  99.9508440
 117.2152240 144.6945640  99.7481370 117.9803150 143.8883710 100.7760310
 118.9964380 146.5681400 101.3350160 118.6677740 145.7533160 100.9551890
 119.9446680 146.5251210 101.2115850 115.8367220 145.2780370  98.8901350
 115.0539010 145.7525870  99.1698110 115.5430150 144.3735200  98.7814530
 120.3888290 145.9803470  96.9350440 120.8296380 145.9248570  96.0872040
 120.1195880 146.8961480  97.0060620 122.2526860 145.6118710  94.9459260
 122.1915260 144.6679930  94.7990280 123.0318890 145.7198800  95.4912720
 107.1807630 145.5827850  91.4115070 107.9386990 145.6956730  90.8379100
 106.7184800 146.4197050  91.3658500 113.7221440 147.6967120  94.4017380
 112.9095950 147.3224010  94.0613260 114.2263080 146.9412200  94.7038570
 118.2246420 144.3609570  95.6400450 118.8275790 144.9329780  96.1148970
 117.4839410 144.9249010  95.4174350 121.3681020 144.7631130  90.9140730
 121.5631650 145.6614580  91.1808160 120.5810890 144.5318210  91.4073680
 109.5532780 146.1091900  89.9517040 110.0825540 145.3221700  89.8224990
 110.1861100 146.7883090  90.1852570 111.7470620 145.8467040  93.0062430
 111.1173360 145.1454350  93.1732560 111.2075760 146.6071170  92.7895590
 111.8726180 145.1251020 105.4414920 111.5910450 145.6284620 104.6775740
 112.2545880 144.3272770 105.0757050 118.4741640 144.5404600 106.0195390
 118.3607090 144.8599210 106.9146910 119.2911380 144.9417110 105.7232670
 117.3799790 152.5597070  76.3830130 117.2993840 151.6451680  76.1121840
 116.9664210 153.0564140  75.6769840 115.5117830 154.3376090  78.2639400
 114.7359930 153.8576530  78.5537970 116.1630760 153.6581740  78.0895560
 109.5283660 154.6495900  79.1415160 108.6968540 154.3944610  79.5411670
 110.1364640 154.7206670  79.8773080 107.9375610 149.6097790  72.9257550
 107.0492310 149.9513760  72.8237430 108.2216800 149.4098110  72.0338380
 105.9008620 152.2103440  78.8097250 106.4724730 151.4425640  78.8100890
 105.9010160 152.5092200  77.9003860 107.1433490 147.6187800  80.5966180
 106.9636330 146.7213550  80.8768940 106.7413570 148.1659670  81.2713130
 115.9831990 149.8203660  78.4978490 116.3596810 148.9475540  78.3852160
 115.8851500 150.1562360  77.6068930 110.1137000 148.1929290  73.9595930
 110.2203750 149.0933020  74.2664690 109.2029360 148.1447260  73.6690580
 119.7656110 147.3154100  75.4306830 120.5865730 146.8250670  75.4732310
 119.7990190 147.9051760  76.1838670 107.7620160 150.1148300  79.2048520
 108.4430270 150.3786670  79.8235920 107.4468210 149.2749170  79.5386530
 111.9544730 151.1615660  78.2921110 112.4622950 151.6596630  78.9326130
 112.4857970 150.3850860  78.1160470 124.0555660 149.3320850  81.9950460
 123.3507830 149.7202560  81.4765570 124.3213580 150.0271140  82.5971390
 110.2380830 145.8014220  82.5584530 110.2399270 146.3186610  81.7530430
 109.4085140 145.3244400  82.5354460 120.0017590 149.2554480  78.2034370
 119.2973160 149.5439370  78.7837480 120.3629750 150.0654590  77.8433930
 109.9196160 147.5124180  80.5654980 110.2612970 148.3566230  80.2708850
 108.9811970 147.6607920  80.6820320 123.0704510 148.7009270  78.5943580
 122.1229420 148.7348250  78.7259010 123.3954500 149.5148220  78.9792940
 113.6024050 145.0006450  76.8899570 113.9099030 144.4453340  76.1735070
 112.6724750 145.1350910  76.7072560 115.9904810 153.0655280  73.6259690
 115.0634090 152.9992660  73.8548160 116.1429630 154.0035410  73.5114930
 115.9773890 149.3372280  70.6226850 115.0377560 149.4986240  70.7079310
 116.2957150 150.0557960  70.0762840 122.4986650 154.0190800  80.6005880
 121.6705280 154.0883890  80.1256010 123.0937130 154.6045110  80.1321710
 120.0202100 154.6275580  74.1294940 119.4014520 154.2895130  73.4821240
 120.0026550 153.9835340  74.8374130 119.4628660 150.8060120  81.5460750
 119.0499840 151.6313830  81.8000740 118.7304610 150.2205160  81.3537110
 111.5961450 153.5920020  76.4079420 111.1918450 152.8797270  75.9125320
 111.6824570 153.2473260  77.2967460 110.3090070 150.3663230  80.1878460
 110.8604660 150.4758570  79.4131710 110.8233580 150.7400830  80.9033690
 118.1966800 153.8662390  71.1367690 118.6360080 153.0284820  70.9905510
 118.9095220 154.4991790  71.2231830 109.9832800 153.8882590  83.7983800
 109.8440570 154.7605390  84.1671200 109.1014160 153.5455400  83.6531740
 121.7783940 145.1205200  69.4508730 121.4656600 145.2132030  70.3507800
 122.5396410 145.6986230  69.4006160 108.2966080 152.4865000  73.9086070
 108.1763680 153.2127090  73.2967340 107.9866970 151.7167910  73.4313980
 122.9885230 149.8576700  85.4282870 122.3729500 150.3656370  84.8998330
 122.6681650 148.9575030  85.3708810 110.7629740 145.8300070  77.2909740
 110.3197890 146.6109610  76.9594260 111.3214730 146.1529960  77.9980680
 115.0499550 148.6968590  82.8945060 114.5878920 148.9051610  83.7065000
 114.6477660 147.8827940  82.5915730 120.0504060 149.9177540  84.0241720
 119.1997650 149.6183290  84.3450790 119.8905850 150.1619550  83.1125540
 117.1453770 151.4179290  86.1240510 117.4707180 150.5843040  85.7842740
 117.9334100 151.9407810  86.2718840 113.8788560 145.4510770  72.1715570
 113.2542740 145.4470640  72.8968880 113.7918680 144.5841730  71.7751540
 112.8005640 146.3747400  79.1499340 113.0977970 147.2810230  79.0691360
 113.3491200 145.8866180  78.5358910 110.5543960 150.9533640  75.0190990
 110.3284880 150.7370810  75.9237610 109.7736490 151.3862100  74.6736960
 117.7841720 150.9597010  73.6181640 117.1850610 151.6832810  73.4345260
 118.3321330 150.8973790  72.8358090 112.9943170 151.8519220  85.6851260
 112.8986770 150.9113950  85.5351660 113.8375150 152.0734290  85.2899330
 116.3906590 149.5960550  75.6484920 116.7836160 149.9132750  74.8353610
 116.7523440 148.7172430  75.7629440 108.1253710 148.2632890  83.8385040
 107.7317100 149.1108100  84.0457820 107.4372110 147.6259260  84.0293680
 114.6998760 148.3467860  86.9081780 114.0097080 148.1540060  87.5427870
 115.4431060 148.6302500  87.4406080 105.4270760 146.1861350  77.8715120
 105.1383810 146.7564210  78.5840100 106.1716520 145.7065800  78.2346350
 105.6140990 150.1281470  69.0817840 105.5315660 151.0712230  69.2232830
 105.2624050 149.9856380  68.2030190 116.9761730 152.1866300  79.7435700
 116.2442850 152.6953110  80.0925800 116.5786070 151.3696280  79.4424480
 113.4139120 148.8620500  78.1488190 113.4175180 148.4210450  77.2992730
 114.3090240 149.1837830  78.2560010 109.2641500 148.7446990  77.1082400
 108.9241550 149.2222220  77.8649450 108.5018820 148.2912110  76.7483500
 113.4759270 149.8632580  71.1394950 113.5972090 149.8219060  72.0880770
 113.0907780 150.7256730  70.9841680 117.4387640 147.6399980  79.1558640
 117.4560380 148.0908630  80.0000490 117.1903220 146.7405620  79.3692080
 112.4880770 152.1733720  70.5378250 111.9197670 151.7251970  69.9114160
 113.1969770 152.5326500  70.0043400 120.8658390 145.0532160  84.9945020
 121.1904160 144.3221820  85.5203000 120.9014900 144.7345800  84.0926010
 113.7147090 152.9222280  79.8953600 114.0817220 152.4480850  80.6414940
 113.5252150 153.7963850  80.2361940 106.5787580 147.6665970  76.0247070
 106.2934500 147.3021640  76.8625690 106.5166440 146.9346430  75.4110210
 111.5046460 151.9630920  82.2137810 111.2003530 152.8422900  82.4388170
 112.4592920 152.0230710  82.2495250 116.2526170 146.5595230  72.7460440
 115.4390780 146.0608400  72.6705750 116.0588120 147.3993480  72.3296790
 118.9674560 150.9314880  71.0422600 119.8554180 151.2432110  70.8673940
 118.9379650 150.0587130  70.6503180 107.5610190 152.8033660  83.3609170
 107.2025130 153.4687510  83.9482510 107.2664750 151.9717210  83.7321790
 110.7623310 153.2617900  86.2448720 110.4623450 153.4075080  85.3476540
 111.5334550 152.7023190  86.1522110 121.2388830 152.2426720  70.5102460
 121.1552550 152.6740940  69.6598900 121.9583020 152.7025070  70.9429280
 106.0718240 152.8024920  69.9843770 106.9413090 153.0849720  70.2679690
 105.5808560 153.6160790  69.8692580 109.1364830 144.5335780  74.5774570
 109.0079460 144.5253680  75.5259490 108.3126850 144.8718870  74.2265580
 106.1358760 146.2926900  84.0381270 105.4217280 146.4923820  84.6433880
 106.5553800 145.5166470  84.4096070 117.6297540 148.7849210  81.7882720
 117.9978360 147.9644420  82.1162290 116.7695740 148.8451100  82.2038370
 120.9959570 147.7406150  72.5970280 120.3672730 147.8451820  71.8828510
 120.5011490 147.9602930  73.3864160 112.9643600 150.0192100  74.0128160
 112.2559750 150.4878440  74.4541770 113.2488080 149.3614110  74.6473350
 114.5899530 151.4388800  82.0120690 115.0884780 151.9134620  82.6772540
 114.7322480 150.5152320  82.2190720 116.9959030 146.7442760  75.4523950
 116.8726810 146.7628890  74.5033460 117.9443590 146.7921700  75.5722350
 111.1678620 148.3277180  71.3878870 112.0169150 148.7647330  71.3219060
 110.8009890 148.6397440  72.2150930 121.7966390 147.6556760  82.8549080
 121.2939990 148.3962160  83.1942890 122.6123050 148.0440760  82.5385870
 120.0888400 152.8989940  76.3010440 119.1478540 152.9140170  76.4758130
 120.4032470 152.1125900  76.7470740 110.0670040 154.5809540  69.8614400
 110.8333310 154.4690900  70.4239830 110.1444730 153.8847510  69.2091170
 108.7616800 152.0134610  70.5447290 108.8420390 151.0662120  70.6564690
 109.6536550 152.3441490  70.6507950 106.2887600 153.8349530  85.7803460
 106.7926620 153.2556810  86.3519690 105.5495020 154.1189760  86.3179830
 108.3210680 151.9779120  86.6753530 108.3616020 151.6792990  87.5838760
 109.1756180 152.3786730  86.5161050 112.0989070 154.5774670  71.8357040
 112.5205490 154.4114540  72.6788430 112.2239910 153.7674900  71.3412180
 110.2616490 150.5571220  84.6428020 109.7312950 150.0662170  84.0151360
 110.9304560 150.9855420  84.1085950 114.6116710 153.6012280  69.0834140
 115.1322370 152.8861300  68.7175290 115.2585110 154.2398150  69.3834650
 119.6316720 152.3636840  86.4108360 120.2137490 151.6089160  86.3228840
 119.8078490 152.8944280  85.6339840 110.7488790 147.5233590  84.7225310
 110.6545660 146.9054340  83.9976180 110.1686180 148.2499880  84.4955220
 113.5150230 146.0806830  81.7552700 113.0667530 146.1031090  80.9098250
 112.8815430 145.6825850  82.3523000 116.2573680 152.7077340  83.7602980
 116.3769890 152.1118480  84.4997820 117.1167680 152.7447030  83.3404280
 118.5961580 153.2614530  82.3365490 118.0696800 153.7857150  81.7330630
 118.9392920 153.8941920  82.9675220 110.9947970 150.6507900  68.7815200
 110.7937030 149.7875260  69.1428540 110.8240020 150.5641260  67.8436800
 113.0242450 149.2498690  85.0178800 113.6142140 148.9414540  85.7056620
 112.2062690 148.7778440  85.1738700 117.8435880 148.8664500  85.2511820
 117.1551400 148.2046040  85.1861810 118.5641900 148.4202770  85.6960280
 118.4736280 145.4616130  71.3102080 118.7538570 144.6184030  71.6661500
 117.7002010 145.6939240  71.8240830 109.7930770 147.7508520  68.7693080
 110.0956670 147.7575950  67.8612230 110.5325360 147.4006380  69.2660740
 113.0115700 146.6943140  69.7549280 112.6637700 146.0167130  69.1751730
 113.2128470 146.2332650  70.5692670 106.3521340 153.2230790  76.1513650
 105.6970180 152.9542430  75.5073350 107.1899290 153.1135270  75.7015630
 119.3011780 148.0172080  70.3732140 119.7196660 147.8303060  69.5328800
 118.9947840 147.1651130  70.6835070 122.8001510 152.9296220  74.0707940
 122.4245110 152.1624150  73.6389230 122.0704630 153.3118920  74.5582870
 107.3897270 153.6083360  80.6916990 107.7570310 153.5210760  81.5713010
 106.8208090 152.8449910  80.5923850 122.1901130 152.0767740  83.7047460
 121.9587220 151.8480490  82.8045410 122.4505680 152.9967290  83.6592350
 106.9413270 150.5192450  84.5975410 106.0469320 150.4859210  84.9369120
 107.4810820 150.7179240  85.3626660 120.6289200 147.3024170  86.4827160
 121.5059380 147.3107570  86.8661160 120.6410040 146.5655010  85.8719510
 105.5659420 150.4329720  72.0938980 104.6623500 150.6959920  71.9190640
 106.0500040 150.7040890  71.3138940 122.0752470 151.1553710  77.3715180
 122.5989950 150.6616360  76.7405350 122.6611890 151.2904070  78.1162750
 122.2542190 151.2393580  80.8934730 121.3044900 151.2057120  81.0079720
 122.4355200 152.1493690  80.6584500 108.1086630 149.4895260  70.0033360
 108.8178330 149.0678480  69.5180640 107.3926570 149.5570490  69.3716710
 107.7560790 145.5434590  69.0436010 108.4788920 146.0843530  69.3617230
 108.0285310 145.2698010  68.1677550 121.5652440 150.4127060  73.3107590
 122.0611560 150.1797930  74.0956470 121.3668510 149.5738900  72.8945230
 107.4452980 144.7940780  78.9458630 108.0929170 144.2438160  78.5053790
 107.8654820 145.0483930  79.7674440 122.9939600 149.0488010  75.8445270
 122.8838880 148.8944050  76.7827540 123.7547190 148.5208950  75.6020680
 121.3405320 144.9882140  82.3028270 121.9777540 145.6016280  82.6687460
 121.4880210 145.0242800  81.3577500 123.8829870 146.8795930  69.0851410
 124.8079180 146.7477110  68.8769700 123.8605660 146.9588750  70.0387860
 123.9568360 147.6506590  71.7108120 123.1619860 147.5851710  72.2401030
 124.1611640 148.5857230  71.6993470 107.1984980 144.9496450  81.6883950
 106.8499800 145.4060270  82.4542130 106.8672680 144.0553580  81.7706380
 114.7109800 146.1408330  85.2103370 114.6498690 146.7330160  85.9598780
 115.6510180 146.0334290  85.0653630 117.3484360 145.7978390  84.8495660
 117.9624770 146.1157680  84.1876740 117.8933920 145.3126980  85.4691520
 107.8705620 144.4772650  84.9634720 108.4188610 144.2960700  84.2000830
 107.9360930 143.6866760  85.4991030 118.0892400 144.3610530  81.1764950
 117.2152240 144.6945640  80.9737880 117.9803150 143.8883710  82.0016820
 118.9964380 146.5681400  82.5606670 118.6677740 145.7533160  82.1808400
 119.9446680 146.5251210  82.4372360 115.8367220 145.2780370  80.1157860
 115.0539010 145.7525870  80.3954620 115.5430150 144.3735200  80.0071040
 120.3888290 145.9803470  78.1606950 120.8296380 145.9248570  77.3128550
 120.1195880 146.8961480  78.2317130 122.2526860 145.6118710  76.1715770
 122.1915260 144.6679930  76.0246790 123.0318890 145.7198800  76.7169230
 107.1807630 145.5827850  72.6371580 107.9386990 145.6956730  72.0635610
 106.7184800 146.4197050  72.5915010 113.7221440 147.6967120  75.6273890
 112.9095950 147.3224010  75.2869770 114.2263080 146.9412200  75.9295080
 118.2246420 144.3609570  76.8656960 118.8275790 144.9329780  77.3405480
 117.4839410 144.9249010  76.6430860 121.3681020 144.7631130  72.1397240
 121.5631650 145.6614580  72.4064670 120.5810890 144.5318210  72.6330190
 109.5532780 146.1091900  71.1773550 110.0825540 145.3221700  71.0481500
 110.1861100 146.7883090  71.4109080 111.7470620 145.8467040  74.2318940
 111.1173360 145.1454350  74.3989070 111.2075760 146.6071170  74.0152100
 111.8726180 145.1251020  86.6671430 111.5910450 145.6284620  85.9032250
 112.2545880 144.3272770  86.3013560 118.4741640 144.5404600  87.2451900
 118.3607090 144.8599210  88.1403420 119.2911380 144.9417110  86.9489180
 117.3799790 152.5597070  57.6086640 117.2993840 151.6451680  57.3378350
 116.9664210 153.0564140  56.9026350 115.5117830 154.3376090  59.4895910
 114.7359930 153.8576530  59.7794480 116.1630760 153.6581740  59.3152070
 109.5283660 154.6495900  60.3671670 108.6968540 154.3944610  60.7668180
 110.1364640 154.7206670  61.1029590 107.9375610 149.6097790  54.1514060
 107.0492310 149.9513760  54.0493940 108.2216800 149.4098110  53.2594890
 105.9008620 152.2103440  60.0353760 106.4724730 151.4425640  60.0357400
 105.9010160 152.5092200  59.1260370 107.1433490 147.6187800  61.8222690
 106.9636330 146.7213550  62.1025450 106.7413570 148.1659670  62.4969640
 115.9831990 149.8203660  59.7235000 116.3596810 148.9475540  59.6108670
 115.8851500 150.1562360  58.8325440 110.1137000 148.1929290  55.1852440
 110.2203750 149.0933020  55.4921200 109.2029360 148.1447260  54.8947090
 119.7656110 147.3154100  56.6563340 120.5865730 146.8250670  56.6988820
 119.7990190 147.9051760  57.4095180 107.7620160 150.1148300  60.4305030
 108.4430270 150.3786670  61.0492430 107.4468210 149.2749170  60.7643040
 111.9544730 151.1615660  59.5177620 112.4622950 151.6596630  60.1582640
 112.4857970 150.3850860  59.3416980 124.0555660 149.3320850  63.2206970
 123.3507830 149.7202560  62.7022080 124.3213580 150.0271140  63.8227900
 110.2380830 145.8014220  63.7841040 110.2399270 146.3186610  62.9786940
 109.4085140 145.3244400  63.7610970 120.0017590 149.2554480  59.4290880
 119.2973160 149.5439370  60.0093990 120.3629750 150.0654590  59.0690440
 109.9196160 147.5124180  61.7911490 110.2612970 148.3566230  61.4965360
 108.9811970 147.6607920  61.9076830 123.0704510 148.7009270  59.8200090
 122.1229420 148.7348250  59.9515520 123.3954500 149.5148220  60.2049450
 113.6024050 145.0006450  58.1156080 113.9099030 144.4453340  57.3991580
 112.6724750 145.1350910  57.9329070 115.9904810 153.0655280  54.8516200
 115.0634090 152.9992660  55.0804670 116.1429630 154.0035410  54.7371440
 115.9773890 149.3372280  51.8483360 115.0377560 149.4986240  51.9335820
 116.2957150 150.0557960  51.3019350 122.4986650 154.0190800  61.8262390
 121.6705280 154.0883890  61.3512520 123.0937130 154.6045110  61.3578220
 120.0202100 154.6275580  55.3551450 119.4014520 154.2895130  54.7077750
 120.0026550 153.9835340  56.0630640 119.4628660 150.8060120  62.7717260
 119.0499840 151.6313830  63.0257250 118.7304610 150.2205160  62.5793620
 111.5961450 153.5920020  57.6335930 111.1918450 152.8797270  57.1381830
 111.6824570 153.2473260  58.5223970 110.3090070 150.3663230  61.4134970
 110.8604660 150.4758570  60.6388220 110.8233580 150.7400830  62.1290200
 118.1966800 153.8662390  52.3624200 118.6360080 153.0284820  52.2162020
 118.9095220 154.4991790  52.4488340 109.9832800 153.8882590  65.0240310
 109.8440570 154.7605390  65.3927710 109.1014160 153.5455400  64.8788250
 121.7783940 145.1205200  50.6765240 121.4656600 145.2132030  51.5764310
 122.5396410 145.6986230  50.6262670 108.2966080 152.4865000  55.1342580
 108.1763680 153.2127090  54.5223850 107.9866970 151.7167910  54.6570490
 122.9885230 149.8576700  66.6539380 122.3729500 150.3656370  66.1254840
 122.6681650 148.9575030  66.5965320 110.7629740 145.8300070  58.5166250
 110.3197890 146.6109610  58.1850770 111.3214730 146.1529960  59.2237190
 115.0499550 148.6968590  64.1201570 114.5878920 148.9051610  64.9321510
 114.6477660 147.8827940  63.8172240 120.0504060 149.9177540  65.2498230
 119.1997650 149.6183290  65.5707300 119.8905850 150.1619550  64.3382050
 117.1453770 151.4179290  67.3497020 117.4707180 150.5843040  67.0099250
 117.9334100 151.9407810  67.4975350 113.8788560 145.4510770  53.3972080
 113.2542740 145.4470640  54.1225390 113.7918680 144.5841730  53.0008050
 112.8005640 146.3747400  60.3755850 113.0977970 147.2810230  60.2947870
 113.3491200 145.8866180  59.7615420 110.5543960 150.9533640  56.2447500
 110.3284880 150.7370810  57.1494120 109.7736490 151.3862100  55.8993470
 117.7841720 150.9597010  54.8438150 117.1850610 151.6832810  54.6601770
 118.3321330 150.8973790  54.0614600 112.9943170 151.8519220  66.9107770
 112.8986770 150.9113950  66.7608170 113.8375150 152.0734290  66.5155840
 116.3906590 149.5960550  56.8741430 116.7836160 149.9132750  56.0610120
 116.7523440 148.7172430  56.9885950 108.1253710 148.2632890  65.0641550
 107.7317100 149.1108100  65.2714330 107.4372110 147.6259260  65.2550190
 114.6998760 148.3467860  68.1338290 114.0097080 148.1540060  68.7684380
 115.4431060 148.6302500  68.6662590 105.4270760 146.1861350  59.0971630
 105.1383810 146.7564210  59.8096610 106.1716520 145.7065800  59.4602860
 105.6140990 150.1281470  50.3074350 105.5315660 151.0712230  50.4489340
 105.2624050 149.9856380  49.4286700 116.9761730 152.1866300  60.9692210
 116.2442850 152.6953110  61.3182310 116.5786070 151.3696280  60.6680990
 113.4139120 148.8620500  59.3744700 113.4175180 148.4210450  58.5249240
 114.3090240 149.1837830  59.4816520 109.2641500 148.7446990  58.3338910
 108.9241550 149.2222220  59.0905960 108.5018820 148.2912110  57.9740010
 113.4759270 149.8632580  52.3651460 113.5972090 149.8219060  53.3137280
 113.0907780 150.7256730  52.2098190 117.4387640 147.6399980  60.3815150
 117.4560380 148.0908630  61.2257000 117.1903220 146.7405620  60.5948590
 112.4880770 152.1733720  51.7634760 111.9197670 151.7251970  51.1370670
 113.1969770 152.5326500  51.2299910 120.8658390 145.0532160  66.2201530
 121.1904160 144.3221820  66.7459510 120.9014900 144.7345800  65.3182520
 113.7147090 152.9222280  61.1210110 114.0817220 152.4480850  61.8671450
 113.5252150 153.7963850  61.4618450 106.5787580 147.6665970  57.2503580
 106.2934500 147.3021640  58.0882200 106.5166440 146.9346430  56.6366720
 111.5046460 151.9630920  63.4394320 111.2003530 152.8422900  63.6644680
 112.4592920 152.0230710  63.4751760 116.2526170 146.5595230  53.9716950
 115.4390780 146.0608400  53.8962260 116.0588120 147.3993480  53.5553300
 118.9674560 150.9314880  52.2679110 119.8554180 151.2432110  52.0930450
 118.9379650 150.0587130  51.8759690 107.5610190 152.8033660  64.5865680
 107.2025130 153.4687510  65.1739020 107.2664750 151.9717210  64.9578300
 110.7623310 153.2617900  67.4705230 110.4623450 153.4075080  66.5733050
 111.5334550 152.7023190  67.3778620 121.2388830 152.2426720  51.7358970
 121.1552550 152.6740940  50.8855410 121.9583020 152.7025070  52.1685790
 106.0718240 152.8024920  51.2100280 106.9413090 153.0849720  51.4936200
 105.5808560 153.6160790  51.0949090 109.1364830 144.5335780  55.8031080
 109.0079460 144.5253680  56.7516000 108.3126850 144.8718870  55.4522090
 106.1358760 146.2926900  65.2637780 105.4217280 146.4923820  65.8690390
 106.5553800 145.5166470  65.6352580 117.6297540 148.7849210  63.0139230
 117.9978360 147.9644420  63.3418800 116.7695740 148.8451100  63.4294880
 120.9959570 147.7406150  53.8226790 120.3672730 147.8451820  53.1085020
 120.5011490 147.9602930  54.6120670 112.9643600 150.0192100  55.2384670
 112.2559750 150.4878440  55.6798280 113.2488080 149.3614110  55.8729860
 114.5899530 151.4388800  63.2377200 115.0884780 151.9134620  63.9029050
 114.7322480 150.5152320  63.4447230 116.9959030 146.7442760  56.6780460
 116.8726810 146.7628890  55.7289970 117.9443590 146.7921700  56.7978860
 111.1678620 148.3277180  52.6135380 112.0169150 148.7647330  52.5475570
 110.8009890 148.6397440  53.4407440 121.7966390 147.6556760  64.0805590
 121.2939990 148.3962160  64.4199400 122.6123050 148.0440760  63.7642380
 120.0888400 152.8989940  57.5266950 119.1478540 152.9140170  57.7014640
 120.4032470 152.1125900  57.9727250 110.0670040 154.5809540  51.0870910
 110.8333310 154.4690900  51.6496340 110.1444730 153.8847510  50.4347680
 108.7616800 152.0134610  51.7703800 108.8420390 151.0662120  51.8821200
 109.6536550 152.3441490  51.8764460 106.2887600 153.8349530  67.0059970
 106.7926620 153.2556810  67.5776200 105.5495020 154.1189760  67.5436340
 108.3210680 151.9779120  67.9010040 108.3616020 151.6792990  68.8095270
 109.1756180 152.3786730  67.7417560 112.0989070 154.5774670  53.0613550
 112.5205490 154.4114540  53.9044940 112.2239910 153.7674900  52.5668690
 110.2616490 150.5571220  65.8684530 109.7312950 150.0662170  65.2407870
 110.9304560 150.9855420  65.3342460 114.6116710 153.6012280  50.3090650
 115.1322370 152.8861300  49.9431800 115.2585110 154.2398150  50.6091160
 119.6316720 152.3636840  67.6364870 120.2137490 151.6089160  67.5485350
 119.8078490 152.8944280  66.8596350 110.7488790 147.5233590  65.9481820
 110.6545660 146.9054340  65.2232690 110.1686180 148.2499880  65.7211730
 113.5150230 146.0806830  62.9809210 113.0667530 146.1031090  62.1354760
 112.8815430 145.6825850  63.5779510 116.2573680 152.7077340  64.9859490
 116.3769890 152.1118480  65.7254330 117.1167680 152.7447030  64.5660790
 118.5961580 153.2614530  63.5622000 118.0696800 153.7857150  62.9587140
 118.9392920 153.8941920  64.1931730 110.9947970 150.6507900  50.0071710
 110.7937030 149.7875260  50.3685050 110.8240020 150.5641260  49.0693310
 113.0242450 149.2498690  66.2435310 113.6142140 148.9414540  66.9313130
 112.2062690 148.7778440  66.3995210 117.8435880 148.8664500  66.4768330
 117.1551400 148.2046040  66.4118320 118.5641900 148.4202770  66.9216790
 118.4736280 145.4616130  52.5358590 118.7538570 144.6184030  52.8918010
 117.7002010 145.6939240  53.0497340 109.7930770 147.7508520  49.9949590
 110.0956670 147.7575950  49.0868740 110.5325360 147.4006380  50.4917250
 113.0115700 146.6943140  50.9805790 112.6637700 146.0167130  50.4008240
 113.2128470 146.2332650  51.7949180 106.3521340 153.2230790  57.3770160
 105.6970180 152.9542430  56.7329860 107.1899290 153.1135270  56.9272140
 119.3011780 148.0172080  51.5988650 119.7196660 147.8303060  50.7585310
 118.9947840 147.1651130  51.9091580 122.8001510 152.9296220  55.2964450
 122.4245110 152.1624150  54.8645740 122.0704630 153.3118920  55.7839380
 107.3897270 153.6083360  61.9173500 107.7570310 153.5210760  62.7969520
 106.8208090 152.8449910  61.8180360 122.1901130 152.0767740  64.9303970
 121.9587220 151.8480490  64.0301920 122.4505680 152.9967290  64.8848860
 106.9413270 150.5192450  65.8231920 106.0469320 150.4859210  66.1625630
 107.4810820 150.7179240  66.5883170 120.6289200 147.3024170  67.7083670
 121.5059380 147.3107570  68.0917670 120.6410040 146.5655010  67.0976020
 105.5659420 150.4329720  53.3195490 104.6623500 150.6959920  53.1447150
 106.0500040 150.7040890  52.5395450 122.0752470 151.1553710  58.5971690
 122.5989950 150.6616360  57.9661860 122.6611890 151.2904070  59.3419260
 122.2542190 151.2393580  62.1191240 121.3044900 151.2057120  62.2336230
 122.4355200 152.1493690  61.8841010 108.1086630 149.4895260  51.2289870
 108.8178330 149.0678480  50.7437150 107.3926570 149.5570490  50.5973220
 107.7560790 145.5434590  50.2692520 108.4788920 146.0843530  50.5873740
 108.0285310 145.2698010  49.3934060 121.5652440 150.4127060  54.5364100
 122.0611560 150.1797930  55.3212980 121.3668510 149.5738900  54.1201740
 107.4452980 144.7940780  60.1715140 108.0929170 144.2438160  59.7310300
 107.8654820 145.0483930  60.9930950 122.9939600 149.0488010  57.0701780
 122.8838880 148.8944050  58.0084050 123.7547190 148.5208950  56.8277190
 121.3405320 144.9882140  63.5284780 121.9777540 145.6016280  63.8943970
 121.4880210 145.0242800  62.5834010 123.8829870 146.8795930  50.3107920
 124.8079180 146.7477110  50.1026210 123.8605660 146.9588750  51.2644370
 123.9568360 147.6506590  52.9364630 123.1619860 147.5851710  53.4657540
 124.1611640 148.5857230  52.9249980 107.1984980 144.9496450  62.9140460
 106.8499800 145.4060270  63.6798640 106.8672680 144.0553580  62.9962890
 114.7109800 146.1408330  66.4359880 114.6498690 146.7330160  67.1855290
 115.6510180 146.0334290  66.2910140 117.3484360 145.7978390  66.0752170
 117.9624770 146.1157680  65.4133250 117.8933920 145.3126980  66.6948030
 107.8705620 144.4772650  66.1891230 108.4188610 144.2960700  65.4257340
 107.9360930 143.6866760  66.7247540 118.0892400 144.3610530  62.4021460
 117.2152240 144.6945640  62.1994390 117.9803150 143.8883710  63.2273330
 118.9964380 146.5681400  63.7863180 118.6677740 145.7533160  63.4064910
 119.9446680 146.5251210  63.6628870 115.8367220 145.2780370  61.3414370
 115.0539010 145.7525870  61.6211130 115.5430150 144.3735200  61.2327550
 120.3888290 145.9803470  59.3863460 120.8296380 145.9248570  58.5385060
 120.1195880 146.8961480  59.4573640 122.2526860 145.6118710  57.3972280
 122.1915260 144.6679930  57.2503300 123.0318890 145.7198800  57.9425740
 107.1807630 145.5827850  53.8628090 107.9386990 145.6956730  53.2892120
 106.7184800 146.4197050  53.8171520 113.7221440 147.6967120  56.8530400
 112.9095950 147.3224010  56.5126280 114.2263080 146.9412200  57.1551590
 118.2246420 144.3609570  58.0913470 118.8275790 144.9329780  58.5661990
 117.4839410 144.9249010  57.8687370 121.3681020 144.7631130  53.3653750
 121.5631650 145.6614580  53.6321180 120.5810890 144.5318210  53.8586700
 109.5532780 146.1091900  52.4030060 110.0825540 145.3221700  52.2738010
 110.1861100 146.7883090  52.6365590 111.7470620 145.8467040  55.4575450
 111.1173360 145.1454350  55.6245580 111.2075760 146.6071170  55.2408610
 111.8726180 145.1251020  67.8927940 111.5910450 145.6284620  67.1288760
 112.2545880 144.3272770  67.5270070 118.4741640 144.5404600  68.4708410
 118.3607090 144.8599210  69.3659930 119.2911380 144.9417110  68.1745690
 117.3799790 152.5597070  38.8343150 117.2993840 151.6451680  38.5634860
 116.9664210 153.0564140  38.1282860 115.5117830 154.3376090  40.7152420
 114.7359930 153.8576530  41.0050990 116.1630760 153.6581740  40.5408580
 109.5283660 154.6495900  41.5928180 108.6968540 154.3944610  41.9924690
 110.1364640 154.7206670  42.3286100 107.9375610 149.6097790  35.3770570
 107.0492310 149.9513760  35.2750450 108.2216800 149.4098110  34.4851400
 105.9008620 152.2103440  41.2610270 106.4724730 151.4425640  41.2613910
 105.9010160 152.5092200  40.3516880 107.1433490 147.6187800  43.0479200
 106.9636330 146.7213550  43.3281960 106.7413570 148.1659670  43.7226150
 115.9831990 149.8203660  40.9491510 116.3596810 148.9475540  40.8365180
 115.8851500 150.1562360  40.0581950 110.1137000 148.1929290  36.4108950
 110.2203750 149.0933020  36.7177710 109.2029360 148.1447260  36.1203600
 119.7656110 147.3154100  37.8819850 120.5865730 146.8250670  37.9245330
 119.7990190 147.9051760  38.6351690 107.7620160 150.1148300  41.6561540
 108.4430270 150.3786670  42.2748940 107.4468210 149.2749170  41.9899550
 111.9544730 151.1615660  40.7434130 112.4622950 151.6596630  41.3839150
 112.4857970 150.3850860  40.5673490 124.0555660 149.3320850  44.4463480
 123.3507830 149.7202560  43.9278590 124.3213580 150.0271140  45.0484410
 110.2380830 145.8014220  45.0097550 110.2399270 146.3186610  44.2043450
 109.4085140 145.3244400  44.9867480 120.0017590 149.2554480  40.6547390
 119.2973160 149.5439370  41.2350500 120.3629750 150.0654590  40.2946950
 109.9196160 147.5124180  43.0168000 110.2612970 148.3566230  42.7221870
 108.9811970 147.6607920  43.1333340 123.0704510 148.7009270  41.0456600
 122.1229420 148.7348250  41.1772030 123.3954500 149.5148220  41.4305960
 113.6024050 145.0006450  39.3412590 113.9099030 144.4453340  38.6248090
 112.6724750 145.1350910  39.1585580 115.9904810 153.0655280  36.0772710
 115.0634090 152.9992660  36.3061180 116.1429630 154.0035410  35.9627950
 115.9773890 149.3372280  33.0739870 115.0377560 149.4986240  33.1592330
 116.2957150 150.0557960  32.5275860 122.4986650 154.0190800  43.0518900
 121.6705280 154.0883890  42.5769030 123.0937130 154.6045110  42.5834730
 120.0202100 154.6275580  36.5807960 119.4014520 154.2895130  35.9334260
 120.0026550 153.9835340  37.2887150 119.4628660 150.8060120  43.9973770
 119.0499840 151.6313830  44.2513760 118.7304610 150.2205160  43.8050130
 111.5961450 153.5920020  38.8592440 111.1918450 152.8797270  38.3638340
 111.6824570 153.2473260  39.7480480 110.3090070 150.3663230  42.6391480
 110.8604660 150.4758570  41.8644730 110.8233580 150.7400830  43.3546710
 118.1966800 153.8662390  33.5880710 118.6360080 153.0284820  33.4418530
 118.9095220 154.4991790  33.6744850 109.9832800 153.8882590  46.2496820
 109.8440570 154.7605390  46.6184220 109.1014160 153.5455400  46.1044760
 121.7783940 145.1205200  31.9021750 121.4656600 145.2132030  32.8020820
 122.5396410 145.6986230  31.8519180 108.2966080 152.4865000  36.3599090
 108.1763680 153.2127090  35.7480360 107.9866970 151.7167910  35.8827000
 122.9885230 149.8576700  47.8795890 122.3729500 150.3656370  47.3511350
 122.6681650 148.9575030  47.8221830 110.7629740 145.8300070  39.7422760
 110.3197890 146.6109610  39.4107280 111.3214730 146.1529960  40.4493700
 115.0499550 148.6968590  45.3458080 114.5878920 148.9051610  46.1578020
 114.6477660 147.8827940  45.0428750 120.0504060 149.9177540  46.4754740
 119.1997650 149.6183290  46.7963810 119.8905850 150.1619550  45.5638560
 117.1453770 151.4179290  48.5753530 117.4707180 150.5843040  48.2355760
 117.9334100 151.9407810  48.7231860 113.8788560 145.4510770  34.6228590
 113.2542740 145.4470640  35.3481900 113.7918680 144.5841730  34.2264560
 112.8005640 146.3747400  41.6012360 113.0977970 147.2810230  41.5204380
 113.3491200 145.8866180  40.9871930 110.5543960 150.9533640  37.4704010
 110.3284880 150.7370810  38.3750630 109.7736490 151.3862100  37.1249980
 117.7841720 150.9597010  36.0694660 117.1850610 151.6832810  35.8858280
 118.3321330 150.8973790  35.2871110 112.9943170 151.8519220  48.1364280
 112.8986770 150.9113950  47.9864680 113.8375150 152.0734290  47.7412350
 116.3906590 149.5960550  38.0997940 116.7836160 149.9132750  37.2866630
 116.7523440 148.7172430  38.2142460 108.1253710 148.2632890  46.2898060
 107.7317100 149.1108100  46.4970840 107.4372110 147.6259260  46.4806700
 114.6998760 148.3467860  49.3594800 114.0097080 148.1540060  49.9940890
 115.4431060 148.6302500  49.8919100 105.4270760 146.1861350  40.3228140
 105.1383810 146.7564210  41.0353120 106.1716520 145.7065800  40.6859370
 105.6140990 150.1281470  31.5330860 105.5315660 151.0712230  31.6745850
 105.2624050 149.9856380  30.6543210 116.9761730 152.1866300  42.1948720
 116.2442850 152.6953110  42.5438820 116.5786070 151.3696280  41.8937500
 113.4139120 148.8620500  40.6001210 113.4175180 148.4210450  39.7505750
 114.3090240 149.1837830  40.7073030 109.2641500 148.7446990  39.5595420
 108.9241550 149.2222220  40.3162470 108.5018820 148.2912110  39.1996520
 113.4759270 149.8632580  33.5907970 113.5972090 149.8219060  34.5393790
 113.0907780 150.7256730  33.4354700 117.4387640 147.6399980  41.6071660
 117.4560380 148.0908630  42.4513510 117.1903220 146.7405620  41.8205100
 112.4880770 152.1733720  32.9891270 111.9197670 151.7251970  32.3627180
 113.1969770 152.5326500  32.4556420 120.8658390 145.0532160  47.4458040
 121.1904160 144.3221820  47.9716020 120.9014900 144.7345800  46.5439030
 113.7147090 152.9222280  42.3466620 114.0817220 152.4480850  43.0927960
 113.5252150 153.7963850  42.6874960 106.5787580 147.6665970  38.4760090
 106.2934500 147.3021640  39.3138710 106.5166440 146.9346430  37.8623230
 111.5046460 151.9630920  44.6650830 111.2003530 152.8422900  44.8901190
 112.4592920 152.0230710  44.7008270 116.2526170 146.5595230  35.1973460
 115.4390780 146.0608400  35.1218770 116.0588120 147.3993480  34.7809810
 118.9674560 150.9314880  33.4935620 119.8554180 151.2432110  33.3186960
 118.9379650 150.0587130  33.1016200 107.5610190 152.8033660  45.8122190
 107.2025130 153.4687510  46.3995530 107.2664750 151.9717210  46.1834810
 110.7623310 153.2617900  48.6961740 110.4623450 153.4075080  47.7989560
 111.5334550 152.7023190  48.6035130 121.2388830 152.2426720  32.9615480
 121.1552550 152.6740940  32.1111920 121.9583020 152.7025070  33.3942300
 106.0718240 152.8024920  32.4356790 106.9413090 153.0849720  32.7192710
 105.5808560 153.6160790  32.3205600 109.1364830 144.5335780  37.0287590
 109.0079460 144.5253680  37.9772510 108.3126850 144.8718870  36.6778600
 106.1358760 146.2926900  46.4894290 105.4217280 146.4923820  47.0946900
 106.5553800 145.5166470  46.8609090 117.6297540 148.7849210  44.2395740
 117.9978360 147.9644420  44.5675310 116.7695740 148.8451100  44.6551390
 120.9959570 147.7406150  35.0483300 120.3672730 147.8451820  34.3341530
 120.5011490 147.9602930  35.8377180 112.9643600 150.0192100  36.4641180
 112.2559750 150.4878440  36.9054790 113.2488080 149.3614110  37.0986370
 114.5899530 151.4388800  44.4633710 115.0884780 151.9134620  45.1285560
 114.7322480 150.5152320  44.6703740 116.9959030 146.7442760  37.9036970
 116.8726810 146.7628890  36.9546480 117.9443590 146.7921700  38.0235370
 111.1678620 148.3277180  33.8391890 112.0169150 148.7647330  33.7732080
 110.8009890 148.6397440  34.6663950 121.7966390 147.6556760  45.3062100
 121.2939990 148.3962160  45.6455910 122.6123050 148.0440760  44.9898890
 120.0888400 152.8989940  38.7523460 119.1478540 152.9140170  38.9271150
 120.4032470 152.1125900  39.1983760 110.0670040 154.5809540  32.3127420
 110.8333310 154.4690900  32.8752850 110.1444730 153.8847510  31.6604190
 108.7616800 152.0134610  32.9960310 108.8420390 151.0662120  33.1077710
 109.6536550 152.3441490  33.1020970 106.2887600 153.8349530  48.2316480
 106.7926620 153.2556810  48.8032710 105.5495020 154.1189760  48.7692850
 108.3210680 151.9779120  49.1266550 108.3616020 151.6792990  50.0351780
 109.1756180 152.3786730  48.9674070 112.0989070 154.5774670  34.2870060
 112.5205490 154.4114540  35.1301450 112.2239910 153.7674900  33.7925200
 110.2616490 150.5571220  47.0941040 109.7312950 150.0662170  46.4664380
 110.9304560 150.9855420  46.5598970 114.6116710 153.6012280  31.5347160
 115.1322370 152.8861300  31.1688310 115.2585110 154.2398150  31.8347670
 119.6316720 152.3636840  48.8621380 120.2137490 151.6089160  48.7741860
 119.8078490 152.8944280  48.0852860 110.7488790 147.5233590  47.1738330
 110.6545660 146.9054340  46.4489200 110.1686180 148.2499880  46.9468240
 113.5150230 146.0806830  44.2065720 113.0667530 146.1031090  43.3611270
 112.8815430 145.6825850  44.8036020 116.2573680 152.7077340  46.2116000
 116.3769890 152.1118480  46.9510840 117.1167680 152.7447030  45.7917300
 118.5961580 153.2614530  44.7878510 118.0696800 153.7857150  44.1843650
 118.9392920 153.8941920  45.4188240 110.9947970 150.6507900  31.2328220
 110.7937030 149.7875260  31.5941560 110.8240020 150.5641260  30.2949820
 113.0242450 149.2498690  47.4691820 113.6142140 148.9414540  48.1569640
 112.2062690 148.7778440  47.6251720 117.8435880 148.8664500  47.7024840
 117.1551400 148.2046040  47.6374830 118.5641900 148.4202770  48.1473300
 118.4736280 145.4616130  33.7615100 118.7538570 144.6184030  34.1174520
 117.7002010 145.6939240  34.2753850 109.7930770 147.7508520  31.2206100
 110.0956670 147.7575950  30.3125250 110.5325360 147.4006380  31.7173760
 113.0115700 146.6943140  32.2062300 112.6637700 146.0167130  31.6264750
 113.2128470 146.2332650  33.0205690 106.3521340 153.2230790  38.6026670
 105.6970180 152.9542430  37.9586370 107.1899290 153.1135270  38.1528650
 119.3011780 148.0172080  32.8245160 119.7196660 147.8303060  31.9841820
 118.9947840 147.1651130  33.1348090 122.8001510 152.9296220  36.5220960
 122.4245110 152.1624150  36.0902250 122.0704630 153.3118920  37.0095890
 107.3897270 153.6083360  43.1430010 107.7570310 153.5210760  44.0226030
 106.8208090 152.8449910  43.0436870 122.1901130 152.0767740  46.1560480
 121.9587220 151.8480490  45.2558430 122.4505680 152.9967290  46.1105370
 106.9413270 150.5192450  47.0488430 106.0469320 150.4859210  47.3882140
 107.4810820 150.7179240  47.8139680 120.6289200 147.3024170  48.9340180
 121.5059380 147.3107570  49.3174180 120.6410040 146.5655010  48.3232530
 105.5659420 150.4329720  34.5452000 104.6623500 150.6959920  34.3703660
 106.0500040 150.7040890  33.7651960 122.0752470 151.1553710  39.8228200
 122.5989950 150.6616360  39.1918370 122.6611890 151.2904070  40.5675770
 122.2542190 151.2393580  43.3447750 121.3044900 151.2057120  43.4592740
 122.4355200 152.1493690  43.1097520 108.1086630 149.4895260  32.4546380
 108.8178330 149.0678480  31.9693660 107.3926570 149.5570490  31.8229730
 107.7560790 145.5434590  31.4949030 108.4788920 146.0843530  31.8130250
 108.0285310 145.2698010  30.6190570 121.5652440 150.4127060  35.7620610
 122.0611560 150.1797930  36.5469490 121.3668510 149.5738900  35.3458250
 107.4452980 144.7940780  41.3971650 108.0929170 144.2438160  40.9566810
 107.8654820 145.0483930  42.2187460 122.9939600 149.0488010  38.2958290
 122.8838880 148.8944050  39.2340560 123.7547190 148.5208950  38.0533700
 121.3405320 144.9882140  44.7541290 121.9777540 145.6016280  45.1200480
 121.4880210 145.0242800  43.8090520 123.8829870 146.8795930  31.5364430
 124.8079180 146.7477110  31.3282720 123.8605660 146.9588750  32.4900880
 123.9568360 147.6506590  34.1621140 123.1619860 147.5851710  34.6914050
 124.1611640 148.5857230  34.1506490 107.1984980 144.9496450  44.1396970
 106.8499800 145.4060270  44.9055150 106.8672680 144.0553580  44.2219400
 114.7109800 146.1408330  47.6616390 114.6498690 146.7330160  48.4111800
 115.6510180 146.0334290  47.5166650 117.3484360 145.7978390  47.3008680
 117.9624770 146.1157680  46.6389760 117.8933920 145.3126980  47.9204540
 107.8705620 144.4772650  47.4147740 108.4188610 144.2960700  46.6513850
 107.9360930 143.6866760  47.9504050 118.0892400 144.3610530  43.6277970
 117.2152240 144.6945640  43.4250900 117.9803150 143.8883710  44.4529840
 118.9964380 146.5681400  45.0119690 118.6677740 145.7533160  44.6321420
 119.9446680 146.5251210  44.8885380 115.8367220 145.2780370  42.5670880
 115.0539010 145.7525870  42.8467640 115.5430150 144.3735200  42.4584060
 120.3888290 145.9803470  40.6119970 120.8296380 145.9248570  39.7641570
 120.1195880 146.8961480  40.6830150 122.2526860 145.6118710  38.6228790
 122.1915260 144.6679930  38.4759810 123.0318890 145.7198800  39.1682250
 107.1807630 145.5827850  35.0884600 107.9386990 145.6956730  34.5148630
 106.7184800 146.4197050  35.0428030 113.7221440 147.6967120  38.0786910
 112.9095950 147.3224010  37.7382790 114.2263080 146.9412200  38.3808100
 118.2246420 144.3609570  39.3169980 118.8275790 144.9329780  39.7918500
 117.4839410 144.9249010  39.0943880 121.3681020 144.7631130  34.5910260
 121.5631650 145.6614580  34.8577690 120.5810890 144.5318210  35.0843210
 109.5532780 146.1091900  33.6286570 110.0825540 145.3221700  33.4994520
 110.1861100 146.7883090  33.8622100 111.7470620 145.8467040  36.6831960
 111.1173360 145.1454350  36.8502090 111.2075760 146.6071170  36.4665120
 111.8726180 145.1251020  49.1184450 111.5910450 145.6284620  48.3545270
 112.2545880 144.3272770  48.7526580 118.4741640 144.5404600  49.6964920
 118.3607090 144.8599210  50.5916440 119.2911380 144.9417110  49.4002200
 117.3799790 152.5597070  20.0599660 117.2993840 151.6451680  19.7891370
 116.9664210 153.0564140  19.3539370 115.5117830 154.3376090  21.9408930
 114.7359930 153.8576530  22.2307500 116.1630760 153.6581740  21.7665090
 109.5283660 154.6495900  22.8184690 108.6968540 154.3944610  23.2181200
 110.1364640 154.7206670  23.5542610 107.9375610 149.6097790  16.6027080
 107.0492310 149.9513760  16.5006960 108.2216800 149.4098110  15.7107910
 105.9008620 152.2103440  22.4866780 106.4724730 151.4425640  22.4870420
 105.9010160 152.5092200  21.5773390 107.1433490 147.6187800  24.2735710
 106.9636330 146.7213550  24.5538470 106.7413570 148.1659670  24.9482660
 115.9831990 149.8203660  22.1748020 116.3596810 148.9475540  22.0621690
 115.8851500 150.1562360  21.2838460 110.1137000 148.1929290  17.6365460
 110.2203750 149.0933020  17.9434220 109.2029360 148.1447260  17.3460110
 119.7656110 147.3154100  19.1076360 120.5865730 146.8250670  19.1501840
 119.7990190 147.9051760  19.8608200 107.7620160 150.1148300  22.8818050
 108.4430270 150.3786670  23.5005450 107.4468210 149.2749170  23.2156060
 111.9544730 151.1615660  21.9690640 112.4622950 151.6596630  22.6095660
 112.4857970 150.3850860  21.7930000 124.0555660 149.3320850  25.6719990
 123.3507830 149.7202560  25.1535100 124.3213580 150.0271140  26.2740920
 110.2380830 145.8014220  26.2354060 110.2399270 146.3186610  25.4299960
 109.4085140 145.3244400  26.2123990 120.0017590 149.2554480  21.8803900
 119.2973160 149.5439370  22.4607010 120.3629750 150.0654590  21.5203460
 109.9196160 147.5124180  24.2424510 110.2612970 148.3566230  23.9478380
 108.9811970 147.6607920  24.3589850 123.0704510 148.7009270  22.2713110
 122.1229420 148.7348250  22.4028540 123.3954500 149.5148220  22.6562470
 113.6024050 145.0006450  20.5669100 113.9099030 144.4453340  19.8504600
 112.6724750 145.1350910  20.3842090 115.9904810 153.0655280  17.3029220
 115.0634090 152.9992660  17.5317690 116.1429630 154.0035410  17.1884460
 115.9773890 149.3372280  14.2996380 115.0377560 149.4986240  14.3848840
 116.2957150 150.0557960  13.7532370 122.4986650 154.0190800  24.2775410
 121.6705280 154.0883890  23.8025540 123.0937130 154.6045110  23.8091240
 120.0202100 154.6275580  17.8064470 119.4014520 154.2895130  17.1590770
 120.0026550 153.9835340  18.5143660 119.4628660 150.8060120  25.2230280
 119.0499840 151.6313830  25.4770270 118.7304610 150.2205160  25.0306640
 111.5961450 153.5920020  20.0848950 111.1918450 152.8797270  19.5894850
 111.6824570 153.2473260  20.9736990 110.3090070 150.3663230  23.8647990
 110.8604660 150.4758570  23.0901240 110.8233580 150.7400830  24.5803220
 118.1966800 153.8662390  14.8137220 118.6360080 153.0284820  14.6675040
 118.9095220 154.4991790  14.9001360 109.9832800 153.8882590  27.4753330
 109.8440570 154.7605390  27.8440730 109.1014160 153.5455400  27.3301270
 121.7783940 145.1205200  13.1278260 121.4656600 145.2132030  14.0277330
 122.5396410 145.6986230  13.0775690 108.2966080 152.4865000  17.5855600
 108.1763680 153.2127090  16.9736870 107.9866970 151.7167910  17.1083510
 122.9885230 149.8576700  29.1052400 122.3729500 150.3656370  28.5767860
 122.6681650 148.9575030  29.0478340 110.7629740 145.8300070  20.9679270
 110.3197890 146.6109610  20.6363790 111.3214730 146.1529960  21.6750210
 115.0499550 148.6968590  26.5714590 114.5878920 148.9051610  27.3834530
 114.6477660 147.8827940  26.2685260 120.0504060 149.9177540  27.7011250
 119.1997650 149.6183290  28.0220320 119.8905850 150.1619550  26.7895070
 117.1453770 151.4179290  29.8010040 117.4707180 150.5843040  29.4612270
 117.9334100 151.9407810  29.9488370 113.8788560 145.4510770  15.8485100
 113.2542740 145.4470640  16.5738410 113.7918680 144.5841730  15.4521070
 112.8005640 146.3747400  22.8268870 113.0977970 147.2810230  22.7460890
 113.3491200 145.8866180  22.2128440 110.5543960 150.9533640  18.6960520
 110.3284880 150.7370810  19.6007140 109.7736490 151.3862100  18.3506490
 117.7841720 150.9597010  17.2951170 117.1850610 151.6832810  17.1114790
 118.3321330 150.8973790  16.5127620 112.9943170 151.8519220  29.3620790
 112.8986770 150.9113950  29.2121190 113.8375150 152.0734290  28.9668860
 116.3906590 149.5960550  19.3254450 116.7836160 149.9132750  18.5123140
 116.7523440 148.7172430  19.4398970 108.1253710 148.2632890  27.5154570
 107.7317100 149.1108100  27.7227350 107.4372110 147.6259260  27.7063210
 114.6998760 148.3467860  30.5851310 114.0097080 148.1540060  31.2197400
 115.4431060 148.6302500  31.1175610 105.4270760 146.1861350  21.5484650
 105.1383810 146.7564210  22.2609630 106.1716520 145.7065800  21.9115880
 105.6140990 150.1281470  12.7587370 105.5315660 151.0712230  12.9002360
 105.2624050 149.9856380  11.8799720 116.9761730 152.1866300  23.4205230
 116.2442850 152.6953110  23.7695330 116.5786070 151.3696280  23.1194010
 113.4139120 148.8620500  21.8257720 113.4175180 148.4210450  20.9762260
 114.3090240 149.1837830  21.9329540 109.2641500 148.7446990  20.7851930
 108.9241550 149.2222220  21.5418980 108.5018820 148.2912110  20.4253030
 113.4759270 149.8632580  14.8164480 113.5972090 149.8219060  15.7650300
 113.0907780 150.7256730  14.6611210 117.4387640 147.6399980  22.8328170
 117.4560380 148.0908630  23.6770020 117.1903220 146.7405620  23.0461610
 112.4880770 152.1733720  14.2147780 111.9197670 151.7251970  13.5883690
 113.1969770 152.5326500  13.6812930 120.8658390 145.0532160  28.6714550
 121.1904160 144.3221820  29.1972530 120.9014900 144.7345800  27.7695540
 113.7147090 152.9222280  23.5723130 114.0817220 152.4480850  24.3184470
 113.5252150 153.7963850  23.9131470 106.5787580 147.6665970  19.7016600
 106.2934500 147.3021640  20.5395220 106.5166440 146.9346430  19.0879740
 111.5046460 151.9630920  25.8907340 111.2003530 152.8422900  26.1157700
 112.4592920 152.0230710  25.9264780 116.2526170 146.5595230  16.4229970
 115.4390780 146.0608400  16.3475280 116.0588120 147.3993480  16.0066320
 118.9674560 150.9314880  14.7192130 119.8554180 151.2432110  14.5443470
 118.9379650 150.0587130  14.3272710 107.5610190 152.8033660  27.0378700
 107.2025130 153.4687510  27.6252040 107.2664750 151.9717210  27.4091320
 110.7623310 153.2617900  29.9218250 110.4623450 153.4075080  29.0246070
 111.5334550 152.7023190  29.8291640 121.2388830 152.2426720  14.1871990
 121.1552550 152.6740940  13.3368430 121.9583020 152.7025070  14.6198810
 106.0718240 152.8024920  13.6613300 106.9413090 153.0849720  13.9449220
 105.5808560 153.6160790  13.5462110 109.1364830 144.5335780  18.2544100
 109.0079460 144.5253680  19.2029020 108.3126850 144.8718870  17.9035110
 106.1358760 146.2926900  27.7150800 105.4217280 146.4923820  28.3203410
 106.5553800 145.5166470  28.0865600 117.6297540 148.7849210  25.4652250
 117.9978360 147.9644420  25.7931820 116.7695740 148.8451100  25.8807900
 120.9959570 147.7406150  16.2739810 120.3672730 147.8451820  15.5598040
 120.5011490 147.9602930  17.0633690 112.9643600 150.0192100  17.6897690
 112.2559750 150.4878440  18.1311300 113.2488080 149.3614110  18.3242880
 114.5899530 151.4388800  25.6890220 115.0884780 151.9134620  26.3542070
 114.7322480 150.5152320  25.8960250 116.9959030 146.7442760  19.1293480
 116.8726810 146.7628890  18.1802990 117.9443590 146.7921700  19.2491880
 111.1678620 148.3277180  15.0648400 112.0169150 148.7647330  14.9988590
 110.8009890 148.6397440  15.8920460 121.7966390 147.6556760  26.5318610
 121.2939990 148.3962160  26.8712420 122.6123050 148.0440760  26.2155400
 120.0888400 152.8989940  19.9779970 119.1478540 152.9140170  20.1527660
 120.4032470 152.1125900  20.4240270 110.0670040 154.5809540  13.5383930
 110.8333310 154.4690900  14.1009360 110.1444730 153.8847510  12.8860700
 108.7616800 152.0134610  14.2216820 108.8420390 151.0662120  14.3334220
 109.6536550 152.3441490  14.3277480 106.2887600 153.8349530  29.4572990
 106.7926620 153.2556810  30.0289220 105.5495020 154.1189760  29.9949360
 108.3210680 151.9779120  30.3523060 108.3616020 151.6792990  31.2608290
 109.1756180 152.3786730  30.1930580 112.0989070 154.5774670  15.5126570
 112.5205490 154.4114540  16.3557960 112.2239910 153.7674900  15.0181710
 110.2616490 150.5571220  28.3197550 109.7312950 150.0662170  27.6920890
 110.9304560 150.9855420  27.7855480 114.6116710 153.6012280  12.7603670
 115.1322370 152.8861300  12.3944820 115.2585110 154.2398150  13.0604180
 119.6316720 152.3636840  30.0877890 120.2137490 151.6089160  29.9998370
 119.8078490 152.8944280  29.3109370 110.7488790 147.5233590  28.3994840
 110.6545660 146.9054340  27.6745710 110.1686180 148.2499880  28.1724750
 113.5150230 146.0806830  25.4322230 113.0667530 146.1031090  24.5867780
 112.8815430 145.6825850  26.0292530 116.2573680 152.7077340  27.4372510
 116.3769890 152.1118480  28.1767350 117.1167680 152.7447030  27.0173810
 118.5961580 153.2614530  26.0135020 118.0696800 153.7857150  25.4100160
 118.9392920 153.8941920  26.6444750 110.9947970 150.6507900  12.4584730
 110.7937030 149.7875260  12.8198070 110.8240020 150.5641260  11.5206330
 113.0242450 149.2498690  28.6948330 113.6142140 148.9414540  29.3826150
 112.2062690 148.7778440  28.8508230 117.8435880 148.8664500  28.9281350
 117.1551400 148.2046040  28.8631340 118.5641900 148.4202770  29.3729810
 118.4736280 145.4616130  14.9871610 118.7538570 144.6184030  15.3431030
 117.7002010 145.6939240  15.5010360 109.7930770 147.7508520  12.4462610
 110.0956670 147.7575950  11.5381760 110.5325360 147.4006380  12.9430270
 113.0115700 146.6943140  13.4318810 112.6637700 146.0167130  12.8521260
 113.2128470 146.2332650  14.2462200 106.3521340 153.2230790  19.8283180
 105.6970180 152.9542430  19.1842880 107.1899290 153.1135270  19.3785160
 119.3011780 148.0172080  14.0501670 119.7196660 147.8303060  13.2098330
 118.9947840 147.1651130  14.3604600 122.8001510 152.9296220  17.7477470
 122.4245110 152.1624150  17.3158760 122.0704630 153.3118920  18.2352400
 107.3897270 153.6083360  24.3686520 107.7570310 153.5210760  25.2482540
 106.8208090 152.8449910  24.2693380 122.1901130 152.0767740  27.3816990
 121.9587220 151.8480490  26.4814940 122.4505680 152.9967290  27.3361880
 106.9413270 150.5192450  28.2744940 106.0469320 150.4859210  28.6138650
 107.4810820 150.7179240  29.0396190 120.6289200 147.3024170  30.1596690
 121.5059380 147.3107570  30.5430690 120.6410040 146.5655010  29.5489040
 105.5659420 150.4329720  15.7708510 104.6623500 150.6959920  15.5960170
 106.0500040 150.7040890  14.9908470 122.0752470 151.1553710  21.0484710
 122.5989950 150.6616360  20.4174880 122.6611890 151.2904070  21.7932280
 122.2542190 151.2393580  24.5704260 121.3044900 151.2057120  24.6849250
 122.4355200 152.1493690  24.3354030 108.1086630 149.4895260  13.6802890
 108.8178330 149.0678480  13.1950170 107.3926570 149.5570490  13.0486240
 107.7560790 145.5434590  12.7205540 108.4788920 146.0843530  13.0386760
 108.0285310 145.2698010  11.8447080 121.5652440 150.4127060  16.9877120
 122.0611560 150.1797930  17.7726000 121.3668510 149.5738900  16.5714760
 107.4452980 144.7940780  22.6228160 108.0929170 144.2438160  22.1823320
 107.8654820 145.0483930  23.4443970 122.9939600 149.0488010  19.5214800
 122.8838880 148.8944050  20.4597070 123.7547190 148.5208950  19.2790210
 121.3405320 144.9882140  25.9797800 121.9777540 145.6016280  26.3456990
 121.4880210 145.0242800  25.0347030 123.8829870 146.8795930  12.7620940
 124.8079180 146.7477110  12.5539230 123.8605660 146.9588750  13.7157390
 123.9568360 147.6506590  15.3877650 123.1619860 147.5851710  15.9170560
 124.1611640 148.5857230  15.3763000 107.1984980 144.9496450  25.3653480
 106.8499800 145.4060270  26.1311660 106.8672680 144.0553580  25.4475910
 114.7109800 146.1408330  28.8872900 114.6498690 146.7330160  29.6368310
 115.6510180 146.0334290  28.7423160 117.3484360 145.7978390  28.5265190
 117.9624770 146.1157680  27.8646270 117.8933920 145.3126980  29.1461050
 107.8705620 144.4772650  28.6404250 108.4188610 144.2960700  27.8770360
 107.9360930 143.6866760  29.1760560 118.0892400 144.3610530  24.8534480
 117.2152240 144.6945640  24.6507410 117.9803150 143.8883710  25.6786350
 118.9964380 146.5681400  26.2376200 118.6677740 145.7533160  25.8577930
 119.9446680 146.5251210  26.1141890 115.8367220 145.2780370  23.7927390
 115.0539010 145.7525870  24.0724150 115.5430150 144.3735200  23.6840570
 120.3888290 145.9803470  21.8376480 120.8296380 145.9248570  20.9898080
 120.1195880 146.8961480  21.9086660 122.2526860 145.6118710  19.8485300
 122.1915260 144.6679930  19.7016320 123.0318890 145.7198800  20.3938760
 107.1807630 145.5827850  16.3141110 107.9386990 145.6956730  15.7405140
 106.7184800 146.4197050  16.2684540 113.7221440 147.6967120  19.3043420
 112.9095950 147.3224010  18.9639300 114.2263080 146.9412200  19.6064610
 118.2246420 144.3609570  20.5426490 118.8275790 144.9329780  21.0175010
 117.4839410 144.9249010  20.3200390 121.3681020 144.7631130  15.8166770
 121.5631650 145.6614580  16.0834200 120.5810890 144.5318210  16.3099720
 109.5532780 146.1091900  14.8543080 110.0825540 145.3221700  14.7251030
 110.1861100 146.7883090  15.0878610 111.7470620 145.8467040  17.9088470
 111.1173360 145.1454350  18.0758600 111.2075760 146.6071170  17.6921630
 111.8726180 145.1251020  30.3440960 111.5910450 145.6284620  29.5801780
 112.2545880 144.3272770  29.9783090 118.4741640 144.5404600  30.9221430
 118.3607090 144.8599210  31.8172950 119.2911380 144.9417110  30.6258710
 115.5117830 154.3376090   3.1665440 114.7359930 153.8576530   3.4564010
 116.1630760 153.6581740   2.9921600 109.5283660 154.6495900   4.0441200
 108.6968540 154.3944610   4.4437710 110.1364640 154.7206670   4.7799120
 105.9008620 152.2103440   3.7123290 106.4724730 151.4425640   3.7126930
 105.9010160 152.5092200   2.8029900 107.1433490 147.6187800   5.4992220
 106.9636330 146.7213550   5.7794980 106.7413570 148.1659670   6.1739170
 115.9831990 149.8203660   3.4004530 116.3596810 148.9475540   3.2878200
 115.8851500 150.1562360   2.5094970 107.7620160 150.1148300   4.1074560
 108.4430270 150.3786670   4.7261960 107.4468210 149.2749170   4.4412570
 111.9544730 151.1615660   3.1947150 112.4622950 151.6596630   3.8352170
 112.4857970 150.3850860   3.0186510 124.0555660 149.3320850   6.8976500
 123.3507830 149.7202560   6.3791610 124.3213580 150.0271140   7.4997430
 110.2380830 145.8014220   7.4610570 110.2399270 146.3186610   6.6556470
 109.4085140 145.3244400   7.4380500 120.0017590 149.2554480   3.1060410
 119.2973160 149.5439370   3.6863520 120.3629750 150.0654590   2.7459970
 109.9196160 147.5124180   5.4681020 110.2612970 148.3566230   5.1734890
 108.9811970 147.6607920   5.5846360 123.0704510 148.7009270   3.4969620
 122.1229420 148.7348250   3.6285050 123.3954500 149.5148220   3.8818980
 122.4986650 154.0190800   5.5031920 121.6705280 154.0883890   5.0282050
 123.0937130 154.6045110   5.0347750 119.4628660 150.8060120   6.4486790
 119.0499840 151.6313830   6.7026780 118.7304610 150.2205160   6.2563150
 110.3090070 150.3663230   5.0904500 110.8604660 150.4758570   4.3157750
 110.8233580 150.7400830   5.8059730 109.9832800 153.8882590   8.7009840
 109.8440570 154.7605390   9.0697240 109.1014160 153.5455400   8.5557780
 122.9885230 149.8576700  10.3308910 122.3729500 150.3656370   9.8024370
 122.6681650 148.9575030  10.2734850 110.7629740 145.8300070   2.1935780
 110.3197890 146.6109610   1.8620300 111.3214730 146.1529960   2.9006720
 115.0499550 148.6968590   7.7971100 114.5878920 148.9051610   8.6091040
 114.6477660 147.8827940   7.4941770 120.0504060 149.9177540   8.9267760
 119.1997650 149.6183290   9.2476830 119.8905850 150.1619550   8.0151580
 117.1453770 151.4179290  11.0266550 117.4707180 150.5843040  10.6868780
 117.9334100 151.9407810  11.1744880 112.8005640 146.3747400   4.0525380
 113.0977970 147.2810230   3.9717400 113.3491200 145.8866180   3.4384950
 112.9943170 151.8519220  10.5877300 112.8986770 150.9113950  10.4377700
 113.8375150 152.0734290  10.1925370 108.1253710 148.2632890   8.7411080
 107.7317100 149.1108100   8.9483860 107.4372110 147.6259260   8.9319720
 114.6998760 148.3467860  11.8107820 114.0097080 148.1540060  12.4453910
 115.4431060 148.6302500  12.3432120 105.4270760 146.1861350   2.7741160
 105.1383810 146.7564210   3.4866140 106.1716520 145.7065800   3.1372390
 116.9761730 152.1866300   4.6461740 116.2442850 152.6953110   4.9951840
 116.5786070 151.3696280   4.3450520 113.4139120 148.8620500   3.0514230
 113.4175180 148.4210450   2.2018770 114.3090240 149.1837830   3.1586050
 109.2641500 148.7446990   2.0108440 108.9241550 149.2222220   2.7675490
 108.5018820 148.2912110   1.6509540 117.4387640 147.6399980   4.0584680
 117.4560380 148.0908630   4.9026530 117.1903220 146.7405620   4.2718120
 120.8658390 145.0532160   9.8971060 121.1904160 144.3221820  10.4229040
 120.9014900 144.7345800   8.9952050 113.7147090 152.9222280   4.7979640
 114.0817220 152.4480850   5.5440980 113.5252150 153.7963850   5.1387980
 111.5046460 151.9630920   7.1163850 111.2003530 152.8422900   7.3414210
 112.4592920 152.0230710   7.1521290 107.5610190 152.8033660   8.2635210
 107.2025130 153.4687510   8.8508550 107.2664750 151.9717210   8.6347830
 110.7623310 153.2617900  11.1474760 110.4623450 153.4075080  10.2502580
 111.5334550 152.7023190  11.0548150 106.1358760 146.2926900   8.9407310
 105.4217280 146.4923820   9.5459920 106.5553800 145.5166470   9.3122110
 117.6297540 148.7849210   6.6908760 117.9978360 147.9644420   7.0188330
 116.7695740 148.8451100   7.1064410 114.5899530 151.4388800   6.9146730
 115.0884780 151.9134620   7.5798580 114.7322480 150.5152320   7.1216760
 121.7966390 147.6556760   7.7575120 121.2939990 148.3962160   8.0968930
 122.6123050 148.0440760   7.4411910 106.2887600 153.8349530  10.6829500
 106.7926620 153.2556810  11.2545730 105.5495020 154.1189760  11.2205870
 108.3210680 151.9779120  11.5779570 108.3616020 151.6792990  12.4864800
 109.1756180 152.3786730  11.4187090 110.2616490 150.5571220   9.5454060
 109.7312950 150.0662170   8.9177400 110.9304560 150.9855420   9.0111990
 119.6316720 152.3636840  11.3134400 120.2137490 151.6089160  11.2254880
 119.8078490 152.8944280  10.5365880 110.7488790 147.5233590   9.6251350
 110.6545660 146.9054340   8.9002220 110.1686180 148.2499880   9.3981260
 113.5150230 146.0806830   6.6578740 113.0667530 146.1031090   5.8124290
 112.8815430 145.6825850   7.2549040 116.2573680 152.7077340   8.6629020
 116.3769890 152.1118480   9.4023860 117.1167680 152.7447030   8.2430320
 118.5961580 153.2614530   7.2391530 118.0696800 153.7857150   6.6356670
 118.9392920 153.8941920   7.8701260 113.0242450 149.2498690   9.9204840
 113.6142140 148.9414540  10.6082660 112.2062690 148.7778440  10.0764740
 117.8435880 148.8664500  10.1537860 117.1551400 148.2046040  10.0887850
 118.5641900 148.4202770  10.5986320 107.3897270 153.6083360   5.5943030
 107.7570310 153.5210760   6.4739050 106.8208090 152.8449910   5.4949890
 122.1901130 152.0767740   8.6073500 121.9587220 151.8480490   7.7071450
 122.4505680 152.9967290   8.5618390 106.9413270 150.5192450   9.5001450
 106.0469320 150.4859210   9.8395160 107.4810820 150.7179240  10.2652700
 120.6289200 147.3024170  11.3853200 121.5059380 147.3107570  11.7687200
 120.6410040 146.5655010  10.7745550 122.0752470 151.1553710   2.2741220
 122.5989950 150.6616360   1.6431390 122.6611890 151.2904070   3.0188790
 122.2542190 151.2393580   5.7960770 121.3044900 151.2057120   5.9105760
 122.4355200 152.1493690   5.5610540 107.4452980 144.7940780   3.8484670
 108.0929170 144.2438160   3.4079830 107.8654820 145.0483930   4.6700480
 121.3405320 144.9882140   7.2054310 121.9777540 145.6016280   7.5713500
 121.4880210 145.0242800   6.2603540 107.1984980 144.9496450   6.5909990
 106.8499800 145.4060270   7.3568170 106.8672680 144.0553580   6.6732420
 114.7109800 146.1408330  10.1129410 114.6498690 146.7330160  10.8624820
 115.6510180 146.0334290   9.9679670 117.3484360 145.7978390   9.7521700
 117.9624770 146.1157680   9.0902780 117.8933920 145.3126980  10.3717560
 107.8705620 144.4772650   9.8660760 108.4188610 144.2960700   9.1026870
 107.9360930 143.6866760  10.4017070 118.0892400 144.3610530   6.0790990
 117.2152240 144.6945640   5.8763920 117.9803150 143.8883710   6.9042860
 118.9964380 146.5681400   7.4632710 118.6677740 145.7533160   7.0834440
 119.9446680 146.5251210   7.3398400 115.8367220 145.2780370   5.0183900
 115.0539010 145.7525870   5.2980660 115.5430150 144.3735200   4.9097080
 120.3888290 145.9803470   3.0632990 120.8296380 145.9248570   2.2154590
 120.1195880 146.8961480   3.1343170 118.2246420 144.3609570   1.7683000
 118.8275790 144.9329780   2.2431520 117.4839410 144.9249010   1.5456900
 111.8726180 145.1251020  11.5697470 111.5910450 145.6284620  10.8058290
 112.2545880 144.3272770  11.2039600 118.4741640 144.5404600  12.1477940
 118.3607090 144.8599210  13.0429460 119.2911380 144.9417110  11.8515220
 117.3799790 133.7853580 151.4804090 117.2993840 132.8708190 151.2095800
 116.9664210 134.2820650 150.7743800 115.5117830 135.5632600 153.3613360
 114.7359930 135.0833040 153.6511930 116.1630760 134.8838250 153.1869520
 119.5325260 139.9692790 152.1412490 119.0706790 139.1980030 152.4699660
 120.3450810 139.9958860 152.6464940 109.5084920 139.9092500 154.4347140
 109.8112960 139.0190240 154.2557360 110.2528510 140.4662720 154.2069390
 107.9375610 130.8354300 148.0231510 107.0492310 131.1770270 147.9211390
 108.2216800 130.6354620 147.1312340 105.9008620 133.4359950 153.9071210
 106.4724730 132.6682150 153.9074850 105.9010160 133.7348710 152.9977820
 115.7588570 142.2550800 151.7616480 115.1400010 142.7108300 151.1910920
 116.6140350 142.4102260 151.3606180 114.9526820 138.2389790 153.3683520
 114.8835100 137.2979730 153.2072650 115.7146680 138.3291200 153.9406090
 115.9831990 131.0460170 153.5952450 116.3596810 130.1732050 153.4826120
 115.8851500 131.3818870 152.7042890 110.1137000 129.4185800 149.0569890
 110.2203750 130.3189530 149.3638650 109.2029360 129.3703770 148.7664540
 119.7656110 128.5410610 150.5280790 120.5865730 128.0507180 150.5706270
 119.7990190 129.1308270 151.2812630 111.9544730 132.3872170 153.3895070
 112.4622950 132.8853140 154.0300090 112.4857970 131.6107370 153.2134430
 116.6251920 137.1390040 149.1548390 116.0069190 137.6039490 148.5911110
 117.1375170 137.8317520 149.5717900 120.0017590 130.4810990 153.3008330
 119.2973160 130.7695880 153.8811440 120.3629750 131.2911100 152.9407890
 105.9935120 137.8246570 146.5288020 105.6163100 138.3133670 145.7972920
 106.2508190 138.4971850 147.1594550 123.0704510 129.9265780 153.6917540
 122.1229420 129.9604760 153.8232970 123.3954500 130.7404730 154.0766900
 113.6024050 126.2262960 151.9873530 113.9099030 125.6709850 151.2709030
 112.6724750 126.3607420 151.8046520 119.1539110 141.9430250 154.2780990
 119.1666270 141.5392540 153.4103250 118.6014330 142.7177540 154.1742420
 120.4484530 138.6646470 149.3671160 120.3380860 137.7220800 149.4920580
 120.4452780 139.0262110 150.2533920 115.9904810 134.2911790 148.7233650
 115.0634090 134.2249170 148.9522120 116.1429630 135.2291920 148.6088890
 115.9773890 130.5628790 145.7200810 115.0377560 130.7242750 145.8053270
 116.2957150 131.2814470 145.1736800 120.0202100 135.8532090 149.2268900
 119.4014520 135.5151640 148.5795200 120.0026550 135.2091850 149.9348090
 111.5961450 134.8176530 151.5053380 111.1918450 134.1053780 151.0099280
 111.6824570 134.4729770 152.3941420 112.0643150 138.5044090 153.6692590
 111.7671440 137.8989560 152.9900370 113.0142970 138.5421400 153.5581950
 118.1966800 135.0918900 146.2341650 118.6360080 134.2541330 146.0879470
 118.9095220 135.7248300 146.3205790 116.3062180 140.0314970 150.2022890
 116.7458090 140.7739300 149.7878280 116.2449070 140.2741540 151.1261850
 121.7783940 126.3461710 144.5482690 121.4656600 126.4388540 145.4481760
 122.5396410 126.9242740 144.4980120 108.2966080 133.7121510 149.0060030
 108.1763680 134.4383600 148.3941300 107.9866970 132.9424420 148.5287940
 107.1799080 138.5836840 151.2234850 106.7727160 138.7251430 150.3688450
 108.0712090 138.2997000 151.0206060 118.9732360 143.0184090 147.5585900
 118.8133500 142.7287030 148.4567730 118.8079070 142.2424220 147.0231130
 111.4520740 142.7982620 149.3357520 111.2763220 141.8818160 149.1225320
 110.5976480 143.1569910 149.5755320 118.6758490 140.5271650 146.1183900
 117.9823650 140.5248940 145.4586180 119.4181350 140.1030970 145.6878070
 118.2408420 142.1534360 150.1932390 118.6965370 141.3723740 150.5071010
 118.5800940 142.8641180 150.7373570 110.7629740 127.0556580 152.3883700
 110.3197890 127.8366120 152.0568220 111.3214730 127.3786470 153.0954640
 113.8788560 126.6767280 147.2689530 113.2542740 126.6727150 147.9942840
 113.7918680 125.8098240 146.8725500 112.8005640 127.6003910 154.2473300
 113.0977970 128.5066740 154.1665320 113.3491200 127.1122690 153.6332870
 110.5543960 132.1790150 150.1164950 110.3284880 131.9627320 151.0211570
 109.7736490 132.6118610 149.7710920 117.7841720 132.1853520 148.7155600
 117.1850610 132.9089320 148.5319220 118.3321330 132.1230300 147.9332050
 116.3906590 130.8217060 150.7458880 116.7836160 131.1389260 149.9327570
 116.7523440 129.9428940 150.8603400 105.4270760 127.4117860 152.9689080
 105.1383810 127.9820720 153.6814060 106.1716520 126.9322310 153.3320310
 105.6140990 131.3537980 144.1791800 105.5315660 132.2968740 144.3206790
 105.2624050 131.2112890 143.3004150 113.4139120 130.0877010 153.2462150
 113.4175180 129.6466960 152.3966690 114.3090240 130.4094340 153.3533970
 109.2641500 129.9703500 152.2056360 108.9241550 130.4478730 152.9623410
 108.5018820 129.5168620 151.8457460 113.4759270 131.0889090 146.2368910
 113.5972090 131.0475570 147.1854730 113.0907780 131.9513240 146.0815640
 112.4880770 133.3990230 145.6352210 111.9197670 132.9508480 145.0088120
 113.1969770 133.7583010 145.1017360 106.5787580 128.8922480 151.1221030
 106.2934500 128.5278150 151.9599650 106.5166440 128.1602940 150.5084170
 110.0328250 137.3948420 147.9078620 109.2590510 136.8546040 147.7477340
 110.7622880 136.8755030 147.5696380 120.7916230 136.3913780 153.7005010
 121.5115350 136.8869070 153.3101120 120.5898050 135.7131670 153.0558880
 116.2526170 127.7851740 147.8434400 115.4390780 127.2864910 147.7679710
 116.0588120 128.6249990 147.4270750 118.9674560 132.1571390 146.1396560
 119.8554180 132.4688620 145.9647900 118.9379650 131.2843640 145.7477140
 110.0765650 137.0628800 151.5457430 110.5944320 136.2597060 151.4914320
 109.6249670 137.0007940 152.3874260 114.9635150 138.3295080 146.8184730
 115.3050850 139.0737310 146.3228050 114.1347860 138.6426200 147.1809560
 121.2388830 133.4683230 145.6076420 121.1552550 133.8997450 144.7572860
 121.9583020 133.9281580 146.0403240 122.2676080 140.3225490 148.3358550
 121.6252240 139.6681110 148.6102270 121.8806740 140.7280580 147.5599220
 117.8462560 137.6510920 152.1830240 118.1986380 137.0539050 151.5231610
 116.9624890 137.3255150 152.3538490 113.9325840 138.4108610 149.5900650
 114.6196970 138.9577820 149.9708240 113.1458260 138.9549340 149.6250260
 106.0718240 134.0281430 145.0817730 106.9413090 134.3106230 145.3653650
 105.5808560 134.8417300 144.9666540 113.2353050 135.4154640 149.2026010
 113.6915830 136.2259890 149.4286200 112.8841260 135.0977780 150.0344500
 109.1364830 125.7592290 149.6748530 109.0079460 125.7510190 150.6233450
 108.3126850 126.0975380 149.3239540 120.6573460 139.2141950 144.8734900
 120.4311040 138.4972390 145.4659540 120.2669660 138.9654390 144.0356650
 106.4389490 143.2408810 145.6479360 106.7987130 143.8398150 144.9936630
 106.2981830 143.7868700 146.4214390 120.2389710 137.1313890 146.5349060
 119.9511410 137.5926580 147.3226940 121.0341880 136.6711660 146.8033280
 112.4558110 140.6240010 146.4653030 112.4468210 141.3569700 145.8497540
 111.5356470 140.3771590 146.5579990 108.0564750 135.8454900 147.2099790
 107.4492700 136.5853800 147.2195090 108.5314100 135.9354260 146.3837990
 120.9959570 128.9662660 147.6944240 120.3672730 129.0708330 146.9802470
 120.5011490 129.1859440 148.4838120 115.4417710 140.6868250 145.1278220
 115.5429690 140.4832240 144.1980200 114.5419450 140.4326530 145.3326000
 112.9643600 131.2448610 149.1102120 112.2559750 131.7134950 149.5515730
 113.2488080 130.5870620 149.7447310 116.9959030 127.9699270 150.5497910
 116.8726810 127.9885400 149.6007420 117.9443590 128.0178210 150.6696310
 114.0835820 143.2054570 149.8225890 114.3377320 143.1675960 148.9005260
 113.1348300 143.0787900 149.8154140 111.1678620 129.5533690 146.4852830
 112.0169150 129.9903840 146.4193020 110.8009890 129.8653950 147.3124890
 120.0888400 134.1246450 151.3984400 119.1478540 134.1396680 151.5732090
 120.4032470 133.3382410 151.8444700 110.0670040 135.8066050 144.9588360
 110.8333310 135.6947410 145.5213790 110.1444730 135.1104020 144.3065130
 108.7616800 133.2391120 145.6421250 108.8420390 132.2918630 145.7538650
 109.6536550 133.5698000 145.7481910 122.0913980 141.2955300 153.0738660
 122.2161400 142.1186470 153.5462470 122.9579540 141.0846030 152.7262810
 109.5631510 143.3886510 152.7455790 110.2993990 142.8401970 153.0164360
 109.9472430 144.2542520 152.6061780 106.4476990 139.4560080 148.6197300
 105.5216770 139.6981220 148.6102710 106.9133420 140.2834340 148.4982050
 112.6733820 142.5616820 144.5681360 113.4662430 142.8505650 144.1163150
 112.1538170 142.1308990 143.8893840 121.7263990 141.7886950 145.9918100
 121.4405500 141.3752090 145.1772280 121.5283540 142.7174660 145.8718620
 113.1911220 137.7820230 144.4323710 113.0861860 137.1672580 145.1585090
 113.0235440 137.2586120 143.6486720 116.4313950 136.8440260 145.0365700
 115.8824050 137.2909560 145.6808440 117.0533210 136.3389510 145.5603370
 112.0989070 135.8031180 146.9331000 112.5205490 135.6371050 147.7762390
 112.2239910 134.9931410 146.4386140 114.6116710 134.8268790 144.1808100
 115.1322370 134.1117810 143.8149250 115.2585110 135.4654660 144.4808610
 110.9947970 131.8764410 143.8789160 110.7937030 131.0131770 144.2402500
 110.8240020 131.7897770 142.9410760 118.4736280 126.6872640 146.4076040
 118.7538570 125.8440540 146.7635460 117.7002010 126.9195750 146.9214790
 109.7930770 128.9765030 143.8667040 110.0956670 128.9832460 142.9586190
 110.5325360 128.6262890 144.3634700 113.0115700 127.9199650 144.8523240
 112.6637700 127.2423640 144.2725690 113.2128470 127.4589160 145.6666630
 115.1764740 142.9080400 146.4709840 116.0715530 143.2465370 146.4928600
 115.2082370 142.1859810 145.8434120 108.8160900 138.2807450 144.6996840
 109.2535770 138.8237120 145.3554420 109.3008630 137.4554400 144.7093180
 106.0306700 141.0696480 152.1517100 106.3609710 140.2017540 151.9195740
 106.4597700 141.2755000 152.9822060 110.6268620 139.4005490 149.8119070
 110.3264160 139.2770460 150.7122980 110.5206110 138.5414080 149.4034800
 123.3960540 139.1801890 144.5145750 122.5653500 139.2478540 144.9852980
 123.5732370 140.0706010 144.2112610 122.8517000 135.9249370 147.0179950
 123.6135910 136.4946020 147.1239640 122.8671370 135.3576570 147.7888260
 106.3521340 134.4487300 151.2487610 105.6970180 134.1798940 150.6047310
 107.1899290 134.3391780 150.7989590 123.8576970 136.7799470 151.8621880
 124.2285800 135.9966790 151.4557850 124.4978900 137.4688570 151.6839180
 122.9036170 136.2183740 144.1752470 123.1785010 137.1262620 144.0471690
 122.7146910 136.1546270 145.1114460 119.3011780 129.2428590 145.4706100
 119.7196660 129.0559570 144.6302760 118.9947840 128.3907640 145.7809030
 122.8001510 134.1552730 149.1681900 122.4245110 133.3880660 148.7363190
 122.0704630 134.5375430 149.6556830 105.5659420 131.6586230 147.1912940
 104.6623500 131.9216430 147.0164600 106.0500040 131.9297400 146.4112900
 122.0752470 132.3810220 152.4689140 122.5989950 131.8872870 151.8379310
 122.6611890 132.5160580 153.2136710 108.1086630 130.7151770 145.1007320
 108.8178330 130.2934990 144.6154600 107.3926570 130.7827000 144.4690670
 107.7560790 126.7691100 144.1409970 108.4788920 127.3100040 144.4591190
 108.0285310 126.4954520 143.2651510 121.5652440 131.6383570 148.4081550
 122.0611560 131.4054440 149.1930430 121.3668510 130.7995410 147.9919190
 122.9939600 130.2744520 150.9419230 122.8838880 130.1200560 151.8801500
 123.7547190 129.7465460 150.6994640 123.8829870 128.1052440 144.1825370
 124.8079180 127.9733620 143.9743660 123.8605660 128.1845260 145.1361820
 123.9568360 128.8763100 146.8082080 123.1619860 128.8108220 147.3374990
 124.1611640 129.8113740 146.7967430 120.8986780 142.9154650 150.8020470
 121.4945850 142.5939220 150.1254890 121.1564930 142.4426470 151.5933740
 111.8794710 141.8738190 153.8066330 112.3959730 141.2625550 153.2814590
 112.5292090 142.3766970 154.2977340 120.3888290 127.2059980 153.2580910
 120.8296380 127.1505080 152.4102510 120.1195880 128.1217990 153.3291090
 122.2526860 126.8375220 151.2689730 122.1915260 125.8936440 151.1220750
 123.0318890 126.9455310 151.8143190 106.5579610 142.9767580 150.2313680
 106.3901650 142.3438260 150.9295570 105.6914120 143.1826980 149.8807870
 107.1807630 126.8084360 147.7345540 107.9386990 126.9213240 147.1609570
 106.7184800 127.6453560 147.6888970 113.7221440 128.9223630 150.7247850
 112.9095950 128.5480520 150.3843730 114.2263080 128.1668710 151.0269040
 118.2246420 125.5866080 151.9630920 118.8275790 126.1586290 152.4379440
 117.4839410 126.1505520 151.7404820 121.3681020 125.9887640 147.2371200
 121.5631650 126.8871090 147.5038630 120.5810890 125.7574720 147.7304150
 108.1642310 141.6700810 147.6763820 107.6389930 142.0508840 146.9725780
 108.0886890 142.2951580 148.3973530 109.5532780 127.3348410 146.2747510
 110.0825540 126.5478210 146.1455460 110.1861100 128.0139600 146.5083040
 111.7470620 127.0723550 149.3292900 111.1173360 126.3710860 149.4963030
 111.2075760 127.8327680 149.1126060 122.9207630 143.2288350 148.9977760
 123.0959820 142.5426090 148.3538680 122.2229200 143.7535400 148.6054430
 110.7635280 143.6183190 146.5513070 111.4954100 143.3342470 146.0036960
 111.0228950 143.3796470 147.4412450 109.9250070 139.7347920 146.5559400
 109.2958950 140.2033020 147.1045230 110.0397900 138.8897140 146.9905590
 117.3799790 133.7853580 132.7060600 117.2993840 132.8708190 132.4352310
 116.9664210 134.2820650 132.0000310 115.5117830 135.5632600 134.5869870
 114.7359930 135.0833040 134.8768440 116.1630760 134.8838250 134.4126030
 109.5283660 135.8752410 135.4645630 108.6968540 135.6201120 135.8642140
 110.1364640 135.9463180 136.2003550 119.5325260 139.9692790 133.3669000
 119.0706790 139.1980030 133.6956170 120.3450810 139.9958860 133.8721450
 109.5084920 139.9092500 135.6603650 109.8112960 139.0190240 135.4813870
 110.2528510 140.4662720 135.4325900 107.9375610 130.8354300 129.2488020
 107.0492310 131.1770270 129.1467900 108.2216800 130.6354620 128.3568850
 105.9008620 133.4359950 135.1327720 106.4724730 132.6682150 135.1331360
 105.9010160 133.7348710 134.2234330 115.7588570 142.2550800 132.9872990
 115.1400010 142.7108300 132.4167430 116.6140350 142.4102260 132.5862690
 114.9526820 138.2389790 134.5940030 114.8835100 137.2979730 134.4329160
 115.7146680 138.3291200 135.1662600 107.1433490 128.8444310 136.9196650
 106.9636330 127.9470060 137.1999410 106.7413570 129.3916180 137.5943600
 115.9831990 131.0460170 134.8208960 116.3596810 130.1732050 134.7082630
 115.8851500 131.3818870 133.9299400 110.1137000 129.4185800 130.2826400
 110.2203750 130.3189530 130.5895160 109.2029360 129.3703770 129.9921050
 119.7656110 128.5410610 131.7537300 120.5865730 128.0507180 131.7962780
 119.7990190 129.1308270 132.5069140 107.7620160 131.3404810 135.5278990
 108.4430270 131.6043180 136.1466390 107.4468210 130.5005680 135.8617000
 111.9544730 132.3872170 134.6151580 112.4622950 132.8853140 135.2556600
 112.4857970 131.6107370 134.4390940 124.0555660 130.5577360 138.3180930
 123.3507830 130.9459070 137.7996040 124.3213580 131.2527650 138.9201860
 110.2380830 127.0270730 138.8815000 110.2399270 127.5443120 138.0760900
 109.4085140 126.5500910 138.8584930 116.6251920 137.1390040 130.3804900
 116.0069190 137.6039490 129.8167620 117.1375170 137.8317520 130.7974410
 111.4883680 136.6665910 137.0588500 111.1553060 137.2934830 137.7009570
 111.6650360 137.1927790 136.2790170 120.0017590 130.4810990 134.5264840
 119.2973160 130.7695880 135.1067950 120.3629750 131.2911100 134.1664400
 109.9196160 128.7380690 136.8885450 110.2612970 129.5822740 136.5939320
 108.9811970 128.8864430 137.0050790 110.7002780 138.6346710 138.8737680
 111.3176780 139.3097790 138.5922130 109.8395900 139.0434690 138.7825180
 105.9935120 137.8246570 127.7544530 105.6163100 138.3133670 127.0229430
 106.2508190 138.4971850 128.3851060 121.6180370 140.0986120 136.7892320
 120.9343890 140.7685230 136.7808990 122.1574660 140.2966770 136.0237180
 123.0704510 129.9265780 134.9174050 122.1229420 129.9604760 135.0489480
 123.3954500 130.7404730 135.3023410 113.6024050 126.2262960 133.2130040
 113.9099030 125.6709850 132.4965540 112.6724750 126.3607420 133.0303030
 119.1539110 141.9430250 135.5037500 119.1666270 141.5392540 134.6359760
 118.6014330 142.7177540 135.3998930 120.4484530 138.6646470 130.5927670
 120.3380860 137.7220800 130.7177090 120.4452780 139.0262110 131.4790430
 118.5524550 136.8460090 136.8320110 118.9693340 136.6320200 135.9973570
 119.2764370 137.1032880 137.4028730 115.9904810 134.2911790 129.9490160
 115.0634090 134.2249170 130.1778630 116.1429630 135.2291920 129.8345400
 115.9773890 130.5628790 126.9457320 115.0377560 130.7242750 127.0309780
 116.2957150 131.2814470 126.3993310 122.4986650 135.2447310 136.9236350
 121.6705280 135.3140400 136.4486480 123.0937130 135.8301620 136.4552180
 120.0202100 135.8532090 130.4525410 119.4014520 135.5151640 129.8051710
 120.0026550 135.2091850 131.1604600 119.4628660 132.0316630 137.8691220
 119.0499840 132.8570340 138.1231210 118.7304610 131.4461670 137.6767580
 111.5961450 134.8176530 132.7309890 111.1918450 134.1053780 132.2355790
 111.6824570 134.4729770 133.6197930 112.0643150 138.5044090 134.8949100
 111.7671440 137.8989560 134.2156880 113.0142970 138.5421400 134.7838460
 110.3090070 131.5919740 136.5108930 110.8604660 131.7015080 135.7362180
 110.8233580 131.9657340 137.2264160 120.1528760 142.0775960 138.5572200
 119.6759320 142.8848150 138.3644810 119.4690550 141.4254290 138.7098410
 111.1561580 138.2425780 141.5456900 110.2590110 138.4665750 141.7930300
 111.1814450 138.3660720 140.5968300 118.1966800 135.0918900 127.4598160
 118.6360080 134.2541330 127.3135980 118.9095220 135.7248300 127.5462300
 109.9832800 135.1139100 140.1214270 109.8440570 135.9861900 140.4901670
 109.1014160 134.7711910 139.9762210 116.3062180 140.0314970 131.4279400
 116.7458090 140.7739300 131.0134790 116.2449070 140.2741540 132.3518360
 111.7813150 141.0560800 142.3299420 111.7528580 141.4603750 141.4627850
 111.6178120 140.1271160 142.1671020 121.7783940 126.3461710 125.7739200
 121.4656600 126.4388540 126.6738270 122.5396410 126.9242740 125.7236630
 108.2966080 133.7121510 130.2316540 108.1763680 134.4383600 129.6197810
 107.9866970 132.9424420 129.7544450 123.7327970 141.8387900 143.6263590
 124.2087690 142.3170790 144.3052670 124.3535130 141.7705390 142.9009090
 105.9351450 136.8836650 136.0385180 106.0131870 137.0185420 135.0940900
 106.5493130 136.1752540 136.2313300 107.1799080 138.5836840 132.4491360
 106.7727160 138.7251430 131.5944960 108.0712090 138.2997000 132.2462570
 123.1361220 139.0300750 140.7863600 123.2624280 138.7912630 139.8680780
 123.1782600 138.1985290 141.2585680 116.9977960 142.7328750 139.3558410
 117.5122630 142.6436760 140.1580840 116.1547040 143.0788450 139.6486320
 118.9732360 143.0184090 128.7842410 118.8133500 142.7287030 129.6824240
 118.8079070 142.2424220 128.2487640 111.4520740 142.7982620 130.5614030
 111.2763220 141.8818160 130.3481830 110.5976480 143.1569910 130.8011830
 118.6758490 140.5271650 127.3440410 117.9823650 140.5248940 126.6842690
 119.4181350 140.1030970 126.9134580 118.2408420 142.1534360 131.4188900
 118.6965370 141.3723740 131.7327520 118.5800940 142.8641180 131.9630080
 122.9885230 131.0833210 141.7513340 122.3729500 131.5912880 141.2228800
 122.6681650 130.1831540 141.6939280 105.9910970 137.9250820 138.5779640
 106.1542010 137.4556180 137.7599010 106.4563420 137.4174380 139.2428480
 110.7629740 127.0556580 133.6140210 110.3197890 127.8366120 133.2824730
 111.3214730 127.3786470 134.3211150 115.0499550 129.9225100 139.2175530
 114.5878920 130.1308120 140.0295470 114.6477660 129.1084450 138.9146200
 120.0504060 131.1434050 140.3472190 119.1997650 130.8439800 140.6681260
 119.8905850 131.3876060 139.4356010 117.1453770 132.6435800 142.4470980
 117.4707180 131.8099550 142.1073210 117.9334100 133.1664320 142.5949310
 113.8788560 126.6767280 128.4946040 113.2542740 126.6727150 129.2199350
 113.7918680 125.8098240 128.0982010 112.8005640 127.6003910 135.4729810
 113.0977970 128.5066740 135.3921830 113.3491200 127.1122690 134.8589380
 110.5543960 132.1790150 131.3421460 110.3284880 131.9627320 132.2468080
 109.7736490 132.6118610 130.9967430 117.7841720 132.1853520 129.9412110
 117.1850610 132.9089320 129.7575730 118.3321330 132.1230300 129.1588560
 112.9943170 133.0775730 142.0081730 112.8986770 132.1370460 141.8582130
 113.8375150 133.2990800 141.6129800 116.3906590 130.8217060 131.9715390
 116.7836160 131.1389260 131.1584080 116.7523440 129.9428940 132.0859910
 108.1253710 129.4889400 140.1615510 107.7317100 130.3364610 140.3688290
 107.4372110 128.8515770 140.3524150 114.6998760 129.5724370 143.2312250
 114.0097080 129.3796570 143.8658340 115.4431060 129.8559010 143.7636550
 105.4270760 127.4117860 134.1945590 105.1383810 127.9820720 134.9070570
 106.1716520 126.9322310 134.5576820 105.6140990 131.3537980 125.4048310
 105.5315660 132.2968740 125.5463300 105.2624050 131.2112890 124.5260660
 116.9761730 133.4122810 136.0666170 116.2442850 133.9209620 136.4156270
 116.5786070 132.5952790 135.7654950 113.4139120 130.0877010 134.4718660
 113.4175180 129.6466960 133.6223200 114.3090240 130.4094340 134.5790480
 109.2641500 129.9703500 133.4312870 108.9241550 130.4478730 134.1879920
 108.5018820 129.5168620 133.0713970 113.4759270 131.0889090 127.4625420
 113.5972090 131.0475570 128.4111240 113.0907780 131.9513240 127.3072150
 117.4387640 128.8656490 135.4789110 117.4560380 129.3165140 136.3230960
 117.1903220 127.9662130 135.6922550 112.4880770 133.3990230 126.8608720
 111.9197670 132.9508480 126.2344630 113.1969770 133.7583010 126.3273870
 120.8658390 126.2788670 141.3175490 121.1904160 125.5478330 141.8433470
 120.9014900 125.9602310 140.4156480 107.5649950 137.3002250 140.7375450
 107.1804740 136.6595920 141.3358410 107.8762140 138.0038370 141.3070180
 113.7147090 134.1478790 136.2184070 114.0817220 133.6737360 136.9645410
 113.5252150 135.0220360 136.5592410 106.5787580 128.8922480 132.3477540
 106.2934500 128.5278150 133.1856160 106.5166440 128.1602940 131.7340680
 111.5046460 133.1887430 138.5368280 111.2003530 134.0679410 138.7618640
 112.4592920 133.2487220 138.5725720 110.0328250 137.3948420 129.1335130
 109.2590510 136.8546040 128.9733850 110.7622880 136.8755030 128.7952890
 120.7916230 136.3913780 134.9261520 121.5115350 136.8869070 134.5357630
 120.5898050 135.7131670 134.2815390 116.2526170 127.7851740 129.0690910
 115.4390780 127.2864910 128.9936220 116.0588120 128.6249990 128.6527260
 116.1735030 136.4622840 140.8130520 116.1072340 135.5418510 140.5588110
 115.5440170 136.5598280 141.5275160 118.9674560 132.1571390 127.3653070
 119.8554180 132.4688620 127.1904410 118.9379650 131.2843640 126.9733650
 110.0765650 137.0628800 132.7713940 110.5944320 136.2597060 132.7170830
 109.6249670 137.0007940 133.6130770 114.9635150 138.3295080 128.0441240
 115.3050850 139.0737310 127.5484560 114.1347860 138.6426200 128.4066070
 107.5610190 134.0290170 139.6839640 107.2025130 134.6944020 140.2712980
 107.2664750 133.1973720 140.0552260 110.7623310 134.4874410 142.5679190
 110.4623450 134.6331590 141.6707010 111.5334550 133.9279700 142.4752580
 116.1051760 139.2843410 140.5634320 116.1196300 138.3524370 140.3453230
 115.3976860 139.3703170 141.2024090 121.2388830 133.4683230 126.8332930
 121.1552550 133.8997450 125.9829370 121.9583020 133.9281580 127.2659750
 122.3162970 135.9250750 139.9102900 121.5911160 136.5179530 139.7132290
 122.8438430 135.9174290 139.1116270 122.2676080 140.3225490 129.5615060
 121.6252240 139.6681110 129.8358780 121.8806740 140.7280580 128.7855730
 117.8462560 137.6510920 133.4086750 118.1986380 137.0539050 132.7488120
 116.9624890 137.3255150 133.5795000 113.9325840 138.4108610 130.8157160
 114.6196970 138.9577820 131.1964750 113.1458260 138.9549340 130.8506770
 106.0718240 134.0281430 126.3074240 106.9413090 134.3106230 126.5910160
 105.5808560 134.8417300 126.1923050 113.2353050 135.4154640 130.4282520
 113.6915830 136.2259890 130.6542710 112.8841260 135.0977780 131.2601010
 115.5385660 140.9260980 137.6574820 116.1827880 141.1320360 138.3348240
 115.9015100 140.1649380 137.2045670 109.1364830 125.7592290 130.9005040
 109.0079460 125.7510190 131.8489960 108.3126850 126.0975380 130.5496050
 116.8117740 138.9293330 136.3752270 117.4539970 138.2286490 136.4884440
 117.3367090 139.7091770 136.1949160 120.6573460 139.2141950 126.0991410
 120.4311040 138.4972390 126.6916050 120.2669660 138.9654390 125.2613160
 118.5855360 139.7288230 139.5788330 118.9211600 140.3154920 140.2566250
 117.6655700 139.5980940 139.8086120 106.4389490 143.2408810 126.8735870
 106.7987130 143.8398150 126.2193140 106.2981830 143.7868700 127.6470900
 106.1358760 127.5183410 140.3611740 105.4217280 127.7180330 140.9664350
 106.5553800 126.7422980 140.7326540 120.2389710 137.1313890 127.7605570
 119.9511410 137.5926580 128.5483450 121.0341880 136.6711660 128.0289790
 106.4231350 141.5063670 141.3478270 106.5322470 140.5658410 141.2073660
 105.7711910 141.7718420 140.6992000 114.4143940 139.7779560 142.7476390
 114.0940810 139.0588800 143.2922080 113.7402300 140.4534630 142.8212450
 112.4558110 140.6240010 127.6909540 112.4468210 141.3569700 127.0754050
 111.5356470 140.3771590 127.7836500 108.0564750 135.8454900 128.4356300
 107.4492700 136.5853800 128.4451600 108.5314100 135.9354260 127.6094500
 117.6297540 130.0105720 138.1113190 117.9978360 129.1900930 138.4392760
 116.7695740 130.0707610 138.5268840 120.9959570 128.9662660 128.9200750
 120.3672730 129.0708330 128.2058980 120.5011490 129.1859440 129.7094630
 115.4417710 140.6868250 126.3534730 115.5429690 140.4832240 125.4236710
 114.5419450 140.4326530 126.5582510 112.9643600 131.2448610 130.3358630
 112.2559750 131.7134950 130.7772240 113.2488080 130.5870620 130.9703820
 114.5899530 132.6645310 138.3351160 115.0884780 133.1391130 139.0003010
 114.7322480 131.7408830 138.5421190 116.9959030 127.9699270 131.7754420
 116.8726810 127.9885400 130.8263930 117.9443590 128.0178210 131.8952820
 114.0835820 143.2054570 131.0482400 114.3377320 143.1675960 130.1261770
 113.1348300 143.0787900 131.0410650 111.1678620 129.5533690 127.7109340
 112.0169150 129.9903840 127.6449530 110.8009890 129.8653950 128.5381400
 121.7966390 128.8813270 139.1779550 121.2939990 129.6218670 139.5173360
 122.6123050 129.2697270 138.8616340 120.0888400 134.1246450 132.6240910
 119.1478540 134.1396680 132.7988600 120.4032470 133.3382410 133.0701210
 110.0670040 135.8066050 126.1844870 110.8333310 135.6947410 126.7470300
 110.1444730 135.1104020 125.5321640 108.7616800 133.2391120 126.8677760
 108.8420390 132.2918630 126.9795160 109.6536550 133.5698000 126.9738420
 122.0913980 141.2955300 134.2995170 122.2161400 142.1186470 134.7718980
 122.9579540 141.0846030 133.9519320 109.5631510 143.3886510 133.9712300
 110.2993990 142.8401970 134.2420870 109.9472430 144.2542520 133.8318290
 106.4476990 139.4560080 129.8453810 105.5216770 139.6981220 129.8359220
 106.9133420 140.2834340 129.7238560 108.5689790 142.5732580 143.1597880
 109.3702520 142.8944630 143.5733280 108.0541610 142.2128160 143.8817790
 112.6733820 142.5616820 125.7937870 113.4662430 142.8505650 125.3419660
 112.1538170 142.1308990 125.1150350 117.4054420 138.6812450 143.1073290
 116.7992580 138.7044050 142.3669040 117.1008530 137.9495490 143.6440540
 118.8354790 142.4092740 141.7182700 119.7876540 142.3250760 141.6682940
 118.6883010 143.0734450 142.3916490 121.7263990 141.7886950 127.2174610
 121.4405500 141.3752090 126.4028790 121.5283540 142.7174660 127.0975130
 106.2887600 135.0606040 142.1033930 106.7926620 134.4813320 142.6750160
 105.5495020 135.3446270 142.6410300 113.1911220 137.7820230 125.6580220
 113.0861860 137.1672580 126.3841600 113.0235440 137.2586120 124.8743230
 113.3425540 136.4677030 141.6369450 112.5771210 137.0362030 141.5524120
 113.5241500 136.1753240 140.7437680 116.4313950 136.8440260 126.2622210
 115.8824050 137.2909560 126.9064950 117.0533210 136.3389510 126.7859880
 120.4848890 138.1982360 142.1944470 121.2258360 138.5358120 141.6911930
 119.7221570 138.3674420 141.6414240 108.3210680 133.2035630 142.9984000
 108.3616020 132.9049500 143.9069230 109.1756180 133.6043240 142.8391520
 112.0989070 135.8031180 128.1587510 112.5205490 135.6371050 129.0018900
 112.2239910 134.9931410 127.6642650 110.2616490 131.7827730 140.9658490
 109.7312950 131.2918680 140.3381830 110.9304560 132.2111930 140.4316420
 114.6116710 134.8268790 125.4064610 115.1322370 134.1117810 125.0405760
 115.2585110 135.4654660 125.7065120 119.1594550 136.2497190 140.7299680
 119.5735570 136.4042270 141.5790100 118.2245550 136.3752410 140.8925460
 119.6316720 133.5893350 142.7338830 120.2137490 132.8345670 142.6459310
 119.8078490 134.1200790 141.9570310 110.7488790 128.7490100 141.0455780
 110.6545660 128.1310850 140.3206650 110.1686180 129.4756390 140.8185690
 113.5150230 127.3063340 138.0783170 113.0667530 127.3287600 137.2328720
 112.8815430 126.9082360 138.6753470 113.9209780 136.2017670 138.6995610
 114.3397890 137.0450400 138.5271850 113.0018410 136.3389710 138.4702390
 116.2573680 133.9333850 140.0833450 116.3769890 133.3374990 140.8228290
 117.1167680 133.9703540 139.6634750 118.5961580 134.4871040 138.6595960
 118.0696800 135.0113660 138.0561100 118.9392920 135.1198430 139.2905690
 110.9947970 131.8764410 125.1045670 110.7937030 131.0131770 125.4659010
 110.8240020 131.7897770 124.1667270 111.7717200 142.5070680 139.8153340
 111.2338290 143.2316740 139.4962040 112.0251160 142.0301020 139.0250680
 113.0242450 130.4755200 141.3409270 113.6142140 130.1671050 142.0287090
 112.2062690 130.0034950 141.4969170 117.8435880 130.0921010 141.5742290
 117.1551400 129.4302550 141.5092280 118.5641900 129.6459280 142.0190750
 118.4736280 126.6872640 127.6332550 118.7538570 125.8440540 127.9891970
 117.7002010 126.9195750 128.1471300 109.7930770 128.9765030 125.0923550
 110.0956670 128.9832460 124.1842700 110.5325360 128.6262890 125.5891210
 114.6279410 143.7421890 140.0739990 114.5538110 144.6457030 140.3812360
 113.7258250 143.4233790 140.0462060 113.0115700 127.9199650 126.0779750
 112.6637700 127.2423640 125.4982200 113.2128470 127.4589160 126.8923140
 115.1764740 142.9080400 127.6966350 116.0715530 143.2465370 127.7185110
 115.2082370 142.1859810 127.0690630 108.8160900 138.2807450 125.9253350
 109.2535770 138.8237120 126.5810930 109.3008630 137.4554400 125.9349690
 106.0306700 141.0696480 133.3773610 106.3609710 140.2017540 133.1452250
 106.4597700 141.2755000 134.2078570 110.6268620 139.4005490 131.0375580
 110.3264160 139.2770460 131.9379490 110.5206110 138.5414080 130.6291310
 106.5196910 141.9367070 136.1155240 106.0827900 142.1167870 136.9479390
 107.0874590 142.6941690 135.9736960 122.1559090 141.4384070 140.4032550
 121.5561080 141.4976630 139.6596470 122.2852990 140.4989050 140.5329400
 123.3960540 139.1801890 125.7402260 122.5653500 139.2478540 126.2109490
 123.5732370 140.0706010 125.4369120 122.8517000 135.9249370 128.2436460
 123.6135910 136.4946020 128.3496150 122.8671370 135.3576570 129.0144770
 106.3521340 134.4487300 132.4744120 105.6970180 134.1798940 131.8303820
 107.1899290 134.3391780 132.0246100 123.8576970 136.7799470 133.0878390
 124.2285800 135.9966790 132.6814360 124.4978900 137.4688570 132.9095690
 120.8410730 138.1636050 138.5008710 120.0270570 138.5933210 138.7634500
 121.2484930 138.7754460 137.8877760 122.9036170 136.2183740 125.4008980
 123.1785010 137.1262620 125.2728200 122.7146910 136.1546270 126.3370970
 119.3011780 129.2428590 126.6962610 119.7196660 129.0559570 125.8559270
 118.9947840 128.3907640 127.0065540 122.8001510 134.1552730 130.3938410
 122.4245110 133.3880660 129.9619700 122.0704630 134.5375430 130.8813340
 107.3897270 134.8339870 137.0147460 107.7570310 134.7467270 137.8943480
 106.8208090 134.0706420 136.9154320 122.1901130 133.3024250 140.0277930
 121.9587220 133.0737000 139.1275880 122.4505680 134.2223800 139.9822820
 106.9413270 131.7448960 140.9205880 106.0469320 131.7115720 141.2599590
 107.4810820 131.9435750 141.6857130 120.6289200 128.5280680 142.8057630
 121.5059380 128.5364080 143.1891630 120.6410040 127.7911520 142.1949980
 105.5659420 131.6586230 128.4169450 104.6623500 131.9216430 128.2421110
 106.0500040 131.9297400 127.6369410 122.0752470 132.3810220 133.6945650
 122.5989950 131.8872870 133.0635820 122.6611890 132.5160580 134.4393220
 122.2542190 132.4650090 137.2165200 121.3044900 132.4313630 137.3310190
 122.4355200 133.3750200 136.9814970 108.1086630 130.7151770 126.3263830
 108.8178330 130.2934990 125.8411110 107.3926570 130.7827000 125.6947180
 107.7560790 126.7691100 125.3666480 108.4788920 127.3100040 125.6847700
 108.0285310 126.4954520 124.4908020 121.5652440 131.6383570 129.6338060
 122.0611560 131.4054440 130.4186940 121.3668510 130.7995410 129.2175700
 107.4452980 126.0197290 135.2689100 108.0929170 125.4694670 134.8284260
 107.8654820 126.2740440 136.0904910 122.9939600 130.2744520 132.1675740
 122.8838880 130.1200560 133.1058010 123.7547190 129.7465460 131.9251150
 121.3405320 126.2138650 138.6258740 121.9777540 126.8272790 138.9917930
 121.4880210 126.2499310 137.6807970 123.8829870 128.1052440 125.4081880
 124.8079180 127.9733620 125.2000170 123.8605660 128.1845260 126.3618330
 123.9568360 128.8763100 128.0338590 123.1619860 128.8108220 128.5631500
 124.1611640 129.8113740 128.0223940 120.8986780 142.9154650 132.0276980
 121.4945850 142.5939220 131.3511400 121.1564930 142.4426470 132.8190250
 107.1984980 126.1752960 138.0114420 106.8499800 126.6316780 138.7772600
 106.8672680 125.2810090 138.0936850 108.8049350 139.3472560 142.1767610
 108.7618980 138.9765470 143.0582070 108.9360360 140.2850130 142.3169430
 112.5055380 140.9032150 137.7777330 112.2646740 141.1706710 136.8907850
 113.4458020 141.0737880 137.8328190 114.7109800 127.3664840 141.5333840
 114.6498690 127.9586670 142.2829250 115.6510180 127.2590800 141.3884100
 117.3484360 127.0234900 141.1726130 117.9624770 127.3414190 140.5107210
 117.8933920 126.5383490 141.7921990 123.7659540 142.9226530 138.5787970
 123.2717820 143.3195400 137.8615100 123.1572830 142.2975740 138.9725250
 107.8705620 125.7029160 141.2865190 108.4188610 125.5217210 140.5231300
 107.9360930 124.9123270 141.8221500 108.6437380 142.2934810 139.2965390
 108.0497700 142.1619510 140.0355430 108.6361220 141.4572950 138.8307490
 118.0892400 125.5867040 137.4995420 117.2152240 125.9202150 137.2968350
 117.9803150 125.1140220 138.3247290 118.9964380 127.7937910 138.8837140
 118.6677740 126.9789670 138.5038870 119.9446680 127.7507720 138.7602830
 121.4498990 143.5649950 135.8574710 120.9901960 144.3165760 135.4832730
 120.8211450 142.8456420 135.7989510 108.2749610 139.6593190 138.2473430
 107.5483670 139.0398480 138.1799380 108.3358760 140.0533800 137.3771510
 111.8794710 141.8738190 135.0322840 112.3959730 141.2625550 134.5071100
 112.5292090 142.3766970 135.5233850 114.6190210 142.7646680 135.8591820
 114.9068020 142.5100980 134.9824830 115.1313430 142.2124040 136.4497390
 115.8367220 126.5036880 136.4388330 115.0539010 126.9782380 136.7185090
 115.5430150 125.5991710 136.3301510 120.3888290 127.2059980 134.4837420
 120.8296380 127.1505080 133.6359020 120.1195880 128.1217990 134.5547600
 122.2526860 126.8375220 132.4946240 122.1915260 125.8936440 132.3477260
 123.0318890 126.9455310 133.0399700 106.5579610 142.9767580 131.4570190
 106.3901650 142.3438260 132.1552080 105.6914120 143.1826980 131.1064380
 107.1807630 126.8084360 128.9602050 107.9386990 126.9213240 128.3866080
 106.7184800 127.6453560 128.9145480 113.7221440 128.9223630 131.9504360
 112.9095950 128.5480520 131.6100240 114.2263080 128.1668710 132.2525550
 118.2246420 125.5866080 133.1887430 118.8275790 126.1586290 133.6635950
 117.4839410 126.1505520 132.9661330 121.3681020 125.9887640 128.4627710
 121.5631650 126.8871090 128.7295140 120.5810890 125.7574720 128.9560660
 108.1642310 141.6700810 128.9020330 107.6389930 142.0508840 128.1982290
 108.0886890 142.2951580 129.6230040 109.5532780 127.3348410 127.5004020
 110.0825540 126.5478210 127.3711970 110.1861100 128.0139600 127.7339550
 111.7470620 127.0723550 130.5549410 111.1173360 126.3710860 130.7219540
 111.2075760 127.8327680 130.3382570 114.6862570 143.6862780 143.2260020
 115.6129880 143.4507050 143.2695980 114.6713000 144.5134780 142.7446050
 122.9207630 143.2288350 130.2234270 123.0959820 142.5426090 129.5795190
 122.2229200 143.7535400 129.8310940 111.8726180 126.3507530 142.9901900
 111.5910450 126.8541130 142.2262720 112.2545880 125.5529280 142.6244030
 110.7635280 143.6183190 127.7769580 111.4954100 143.3342470 127.2293470
 111.0228950 143.3796470 128.6668960 109.9250070 139.7347920 127.7815910
 109.2958950 140.2033020 128.3301740 110.0397900 138.8897140 128.2162100
 118.4741640 125.7661110 143.5682370 118.3607090 126.0855720 144.4633890
 119.2911380 126.1673620 143.2719650 121.2540130 142.9132640 143.0501060
 122.0465450 142.4181870 142.8427020 121.5473280 143.5922780 143.6576670
 117.3799790 133.7853580 113.9317110 117.2993840 132.8708190 113.6608820
 116.9664210 134.2820650 113.2256820 115.5117830 135.5632600 115.8126380
 114.7359930 135.0833040 116.1024950 116.1630760 134.8838250 115.6382540
 109.5283660 135.8752410 116.6902140 108.6968540 135.6201120 117.0898650
 110.1364640 135.9463180 117.4260060 119.5325260 139.9692790 114.5925510
 119.0706790 139.1980030 114.9212680 120.3450810 139.9958860 115.0977960
 109.5084920 139.9092500 116.8860160 109.8112960 139.0190240 116.7070380
 110.2528510 140.4662720 116.6582410 107.9375610 130.8354300 110.4744530
 107.0492310 131.1770270 110.3724410 108.2216800 130.6354620 109.5825360
 105.9008620 133.4359950 116.3584230 106.4724730 132.6682150 116.3587870
 105.9010160 133.7348710 115.4490840 115.7588570 142.2550800 114.2129500
 115.1400010 142.7108300 113.6423940 116.6140350 142.4102260 113.8119200
 114.9526820 138.2389790 115.8196540 114.8835100 137.2979730 115.6585670
 115.7146680 138.3291200 116.3919110 107.1433490 128.8444310 118.1453160
 106.9636330 127.9470060 118.4255920 106.7413570 129.3916180 118.8200110
 115.9831990 131.0460170 116.0465470 116.3596810 130.1732050 115.9339140
 115.8851500 131.3818870 115.1555910 110.1137000 129.4185800 111.5082910
 110.2203750 130.3189530 111.8151670 109.2029360 129.3703770 111.2177560
 119.7656110 128.5410610 112.9793810 120.5865730 128.0507180 113.0219290
 119.7990190 129.1308270 113.7325650 107.7620160 131.3404810 116.7535500
 108.4430270 131.6043180 117.3722900 107.4468210 130.5005680 117.0873510
 111.9544730 132.3872170 115.8408090 112.4622950 132.8853140 116.4813110
 112.4857970 131.6107370 115.6647450 124.0555660 130.5577360 119.5437440
 123.3507830 130.9459070 119.0252550 124.3213580 131.2527650 120.1458370
 110.2380830 127.0270730 120.1071510 110.2399270 127.5443120 119.3017410
 109.4085140 126.5500910 120.0841440 116.6251920 137.1390040 111.6061410
 116.0069190 137.6039490 111.0424130 117.1375170 137.8317520 112.0230920
 111.4883680 136.6665910 118.2845010 111.1553060 137.2934830 118.9266080
 111.6650360 137.1927790 117.5046680 120.0017590 130.4810990 115.7521350
 119.2973160 130.7695880 116.3324460 120.3629750 131.2911100 115.3920910
 109.9196160 128.7380690 118.1141960 110.2612970 129.5822740 117.8195830
 108.9811970 128.8864430 118.2307300 110.7002780 138.6346710 120.0994190
 111.3176780 139.3097790 119.8178640 109.8395900 139.0434690 120.0081690
 105.9935120 137.8246570 108.9801040 105.6163100 138.3133670 108.2485940
 106.2508190 138.4971850 109.6107570 121.6180370 140.0986120 118.0148830
 120.9343890 140.7685230 118.0065500 122.1574660 140.2966770 117.2493690
 123.0704510 129.9265780 116.1430560 122.1229420 129.9604760 116.2745990
 123.3954500 130.7404730 116.5279920 113.6024050 126.2262960 114.4386550
 113.9099030 125.6709850 113.7222050 112.6724750 126.3607420 114.2559540
 119.1539110 141.9430250 116.7294010 119.1666270 141.5392540 115.8616270
 118.6014330 142.7177540 116.6255440 120.4484530 138.6646470 111.8184180
 120.3380860 137.7220800 111.9433600 120.4452780 139.0262110 112.7046940
 118.5524550 136.8460090 118.0576620 118.9693340 136.6320200 117.2230080
 119.2764370 137.1032880 118.6285240 115.9904810 134.2911790 111.1746670
 115.0634090 134.2249170 111.4035140 116.1429630 135.2291920 111.0601910
 115.9773890 130.5628790 108.1713830 115.0377560 130.7242750 108.2566290
 116.2957150 131.2814470 107.6249820 122.4986650 135.2447310 118.1492860
 121.6705280 135.3140400 117.6742990 123.0937130 135.8301620 117.6808690
 120.0202100 135.8532090 111.6781920 119.4014520 135.5151640 111.0308220
 120.0026550 135.2091850 112.3861110 119.4628660 132.0316630 119.0947730
 119.0499840 132.8570340 119.3487720 118.7304610 131.4461670 118.9024090
 111.5961450 134.8176530 113.9566400 111.1918450 134.1053780 113.4612300
 111.6824570 134.4729770 114.8454440 112.0643150 138.5044090 116.1205610
 111.7671440 137.8989560 115.4413390 113.0142970 138.5421400 116.0094970
 110.3090070 131.5919740 117.7365440 110.8604660 131.7015080 116.9618690
 110.8233580 131.9657340 118.4520670 120.1528760 142.0775960 119.7828710
 119.6759320 142.8848150 119.5901320 119.4690550 141.4254290 119.9354920
 111.1561580 138.2425780 122.7713410 110.2590110 138.4665750 123.0186810
 111.1814450 138.3660720 121.8224810 118.1966800 135.0918900 108.6854670
 118.6360080 134.2541330 108.5392490 118.9095220 135.7248300 108.7718810
 109.9832800 135.1139100 121.3470780 109.8440570 135.9861900 121.7158180
 109.1014160 134.7711910 121.2018720 116.3062180 140.0314970 112.6535910
 116.7458090 140.7739300 112.2391300 116.2449070 140.2741540 113.5774870
 111.7813150 141.0560800 123.5555930 111.7528580 141.4603750 122.6884360
 111.6178120 140.1271160 123.3927530 121.7783940 126.3461710 106.9995710
 121.4656600 126.4388540 107.8994780 122.5396410 126.9242740 106.9493140
 108.2966080 133.7121510 111.4573050 108.1763680 134.4383600 110.8454320
 107.9866970 132.9424420 110.9800960 123.7327970 141.8387900 124.8520100
 124.2087690 142.3170790 125.5309180 124.3535130 141.7705390 124.1265600
 105.9351450 136.8836650 117.2641690 106.0131870 137.0185420 116.3197410
 106.5493130 136.1752540 117.4569810 107.1799080 138.5836840 113.6747870
 106.7727160 138.7251430 112.8201470 108.0712090 138.2997000 113.4719080
 123.1361220 139.0300750 122.0120110 123.2624280 138.7912630 121.0937290
 123.1782600 138.1985290 122.4842190 116.9977960 142.7328750 120.5814920
 117.5122630 142.6436760 121.3837350 116.1547040 143.0788450 120.8742830
 118.9732360 143.0184090 110.0098920 118.8133500 142.7287030 110.9080750
 118.8079070 142.2424220 109.4744150 111.4520740 142.7982620 111.7870540
 111.2763220 141.8818160 111.5738340 110.5976480 143.1569910 112.0268340
 118.6758490 140.5271650 108.5696920 117.9823650 140.5248940 107.9099200
 119.4181350 140.1030970 108.1391090 118.2408420 142.1534360 112.6445410
 118.6965370 141.3723740 112.9584030 118.5800940 142.8641180 113.1886590
 122.9885230 131.0833210 122.9769850 122.3729500 131.5912880 122.4485310
 122.6681650 130.1831540 122.9195790 105.9910970 137.9250820 119.8036150
 106.1542010 137.4556180 118.9855520 106.4563420 137.4174380 120.4684990
 110.7629740 127.0556580 114.8396720 110.3197890 127.8366120 114.5081240
 111.3214730 127.3786470 115.5467660 115.0499550 129.9225100 120.4432040
 114.5878920 130.1308120 121.2551980 114.6477660 129.1084450 120.1402710
 120.0504060 131.1434050 121.5728700 119.1997650 130.8439800 121.8937770
 119.8905850 131.3876060 120.6612520 117.1453770 132.6435800 123.6727490
 117.4707180 131.8099550 123.3329720 117.9334100 133.1664320 123.8205820
 113.8788560 126.6767280 109.7202550 113.2542740 126.6727150 110.4455860
 113.7918680 125.8098240 109.3238520 112.8005640 127.6003910 116.6986320
 113.0977970 128.5066740 116.6178340 113.3491200 127.1122690 116.0845890
 110.5543960 132.1790150 112.5677970 110.3284880 131.9627320 113.4724590
 109.7736490 132.6118610 112.2223940 117.7841720 132.1853520 111.1668620
 117.1850610 132.9089320 110.9832240 118.3321330 132.1230300 110.3845070
 112.9943170 133.0775730 123.2338240 112.8986770 132.1370460 123.0838640
 113.8375150 133.2990800 122.8386310 116.3906590 130.8217060 113.1971900
 116.7836160 131.1389260 112.3840590 116.7523440 129.9428940 113.3116420
 108.1253710 129.4889400 121.3872020 107.7317100 130.3364610 121.5944800
 107.4372110 128.8515770 121.5780660 114.6998760 129.5724370 124.4568760
 114.0097080 129.3796570 125.0914850 115.4431060 129.8559010 124.9893060
 116.9761730 133.4122810 117.2922680 116.2442850 133.9209620 117.6412780
 116.5786070 132.5952790 116.9911460 113.4139120 130.0877010 115.6975170
 113.4175180 129.6466960 114.8479710 114.3090240 130.4094340 115.8046990
 109.2641500 129.9703500 114.6569380 108.9241550 130.4478730 115.4136430
 108.5018820 129.5168620 114.2970480 113.4759270 131.0889090 108.6881930
 113.5972090 131.0475570 109.6367750 113.0907780 131.9513240 108.5328660
 117.4387640 128.8656490 116.7045620 117.4560380 129.3165140 117.5487470
 117.1903220 127.9662130 116.9179060 112.4880770 133.3990230 108.0865230
 111.9197670 132.9508480 107.4601140 113.1969770 133.7583010 107.5530380
 120.8658390 126.2788670 122.5432000 121.1904160 125.5478330 123.0689980
 120.9014900 125.9602310 121.6412990 107.5649950 137.3002250 121.9631960
 107.1804740 136.6595920 122.5614920 107.8762140 138.0038370 122.5326690
 113.7147090 134.1478790 117.4440580 114.0817220 133.6737360 118.1901920
 113.5252150 135.0220360 117.7848920 106.5787580 128.8922480 113.5734050
 106.2934500 128.5278150 114.4112670 106.5166440 128.1602940 112.9597190
 111.5046460 133.1887430 119.7624790 111.2003530 134.0679410 119.9875150
 112.4592920 133.2487220 119.7982230 110.0328250 137.3948420 110.3591640
 109.2590510 136.8546040 110.1990360 110.7622880 136.8755030 110.0209400
 120.7916230 136.3913780 116.1518030 121.5115350 136.8869070 115.7614140
 120.5898050 135.7131670 115.5071900 116.2526170 127.7851740 110.2947420
 115.4390780 127.2864910 110.2192730 116.0588120 128.6249990 109.8783770
 116.1735030 136.4622840 122.0387030 116.1072340 135.5418510 121.7844620
 115.5440170 136.5598280 122.7531670 118.9674560 132.1571390 108.5909580
 119.8554180 132.4688620 108.4160920 118.9379650 131.2843640 108.1990160
 110.0765650 137.0628800 113.9970450 110.5944320 136.2597060 113.9427340
 109.6249670 137.0007940 114.8387280 114.9635150 138.3295080 109.2697750
 115.3050850 139.0737310 108.7741070 114.1347860 138.6426200 109.6322580
 107.5610190 134.0290170 120.9096150 107.2025130 134.6944020 121.4969490
 107.2664750 133.1973720 121.2808770 110.7623310 134.4874410 123.7935700
 110.4623450 134.6331590 122.8963520 111.5334550 133.9279700 123.7009090
 116.1051760 139.2843410 121.7890830 116.1196300 138.3524370 121.5709740
 115.3976860 139.3703170 122.4280600 121.2388830 133.4683230 108.0589440
 121.1552550 133.8997450 107.2085880 121.9583020 133.9281580 108.4916260
 122.3162970 135.9250750 121.1359410 121.5911160 136.5179530 120.9388800
 122.8438430 135.9174290 120.3372780 122.2676080 140.3225490 110.7871570
 121.6252240 139.6681110 111.0615290 121.8806740 140.7280580 110.0112240
 117.8462560 137.6510920 114.6343260 118.1986380 137.0539050 113.9744630
 116.9624890 137.3255150 114.8051510 113.9325840 138.4108610 112.0413670
 114.6196970 138.9577820 112.4221260 113.1458260 138.9549340 112.0763280
 106.0718240 134.0281430 107.5330750 106.9413090 134.3106230 107.8166670
 105.5808560 134.8417300 107.4179560 113.2353050 135.4154640 111.6539030
 113.6915830 136.2259890 111.8799220 112.8841260 135.0977780 112.4857520
 115.5385660 140.9260980 118.8831330 116.1827880 141.1320360 119.5604750
 115.9015100 140.1649380 118.4302180 109.1364830 125.7592290 112.1261550
 109.0079460 125.7510190 113.0746470 108.3126850 126.0975380 111.7752560
 116.8117740 138.9293330 117.6008780 117.4539970 138.2286490 117.7140950
 117.3367090 139.7091770 117.4205670 120.6573460 139.2141950 107.3247920
 120.4311040 138.4972390 107.9172560 120.2669660 138.9654390 106.4869670
 118.5855360 139.7288230 120.8044840 118.9211600 140.3154920 121.4822760
 117.6655700 139.5980940 121.0342630 106.4389490 143.2408810 108.0992380
 106.7987130 143.8398150 107.4449650 106.2981830 143.7868700 108.8727410
 106.1358760 127.5183410 121.5868250 105.4217280 127.7180330 122.1920860
 106.5553800 126.7422980 121.9583050 120.2389710 137.1313890 108.9862080
 119.9511410 137.5926580 109.7739960 121.0341880 136.6711660 109.2546300
 106.4231350 141.5063670 122.5734780 106.5322470 140.5658410 122.4330170
 105.7711910 141.7718420 121.9248510 114.4143940 139.7779560 123.9732900
 114.0940810 139.0588800 124.5178590 113.7402300 140.4534630 124.0468960
 112.4558110 140.6240010 108.9166050 112.4468210 141.3569700 108.3010560
 111.5356470 140.3771590 109.0093010 108.0564750 135.8454900 109.6612810
 107.4492700 136.5853800 109.6708110 108.5314100 135.9354260 108.8351010
 117.6297540 130.0105720 119.3369700 117.9978360 129.1900930 119.6649270
 116.7695740 130.0707610 119.7525350 120.9959570 128.9662660 110.1457260
 120.3672730 129.0708330 109.4315490 120.5011490 129.1859440 110.9351140
 115.4417710 140.6868250 107.5791240 115.5429690 140.4832240 106.6493220
 114.5419450 140.4326530 107.7839020 112.9643600 131.2448610 111.5615140
 112.2559750 131.7134950 112.0028750 113.2488080 130.5870620 112.1960330
 114.5899530 132.6645310 119.5607670 115.0884780 133.1391130 120.2259520
 114.7322480 131.7408830 119.7677700 116.9959030 127.9699270 113.0010930
 116.8726810 127.9885400 112.0520440 117.9443590 128.0178210 113.1209330
 114.0835820 143.2054570 112.2738910 114.3377320 143.1675960 111.3518280
 113.1348300 143.0787900 112.2667160 111.1678620 129.5533690 108.9365850
 112.0169150 129.9903840 108.8706040 110.8009890 129.8653950 109.7637910
 121.7966390 128.8813270 120.4036060 121.2939990 129.6218670 120.7429870
 122.6123050 129.2697270 120.0872850 120.0888400 134.1246450 113.8497420
 119.1478540 134.1396680 114.0245110 120.4032470 133.3382410 114.2957720
 110.0670040 135.8066050 107.4101380 110.8333310 135.6947410 107.9726810
 110.1444730 135.1104020 106.7578150 108.7616800 133.2391120 108.0934270
 108.8420390 132.2918630 108.2051670 109.6536550 133.5698000 108.1994930
 122.0913980 141.2955300 115.5251680 122.2161400 142.1186470 115.9975490
 122.9579540 141.0846030 115.1775830 109.5631510 143.3886510 115.1968810
 110.2993990 142.8401970 115.4677380 109.9472430 144.2542520 115.0574800
 106.4476990 139.4560080 111.0710320 105.5216770 139.6981220 111.0615730
 106.9133420 140.2834340 110.9495070 108.5689790 142.5732580 124.3854390
 109.3702520 142.8944630 124.7989790 108.0541610 142.2128160 125.1074300
 112.6733820 142.5616820 107.0194380 113.4662430 142.8505650 106.5676170
 112.1538170 142.1308990 106.3406860 117.4054420 138.6812450 124.3329800
 116.7992580 138.7044050 123.5925550 117.1008530 137.9495490 124.8697050
 118.8354790 142.4092740 122.9439210 119.7876540 142.3250760 122.8939450
 118.6883010 143.0734450 123.6173000 121.7263990 141.7886950 108.4431120
 121.4405500 141.3752090 107.6285300 121.5283540 142.7174660 108.3231640
 106.2887600 135.0606040 123.3290440 106.7926620 134.4813320 123.9006670
 105.5495020 135.3446270 123.8666810 113.1911220 137.7820230 106.8836730
 113.0861860 137.1672580 107.6098110 113.0235440 137.2586120 106.0999740
 113.3425540 136.4677030 122.8625960 112.5771210 137.0362030 122.7780630
 113.5241500 136.1753240 121.9694190 116.4313950 136.8440260 107.4878720
 115.8824050 137.2909560 108.1321460 117.0533210 136.3389510 108.0116390
 120.4848890 138.1982360 123.4200980 121.2258360 138.5358120 122.9168440
 119.7221570 138.3674420 122.8670750 108.3210680 133.2035630 124.2240510
 108.3616020 132.9049500 125.1325740 109.1756180 133.6043240 124.0648030
 112.0989070 135.8031180 109.3844020 112.5205490 135.6371050 110.2275410
 112.2239910 134.9931410 108.8899160 110.2616490 131.7827730 122.1915000
 109.7312950 131.2918680 121.5638340 110.9304560 132.2111930 121.6572930
 114.6116710 134.8268790 106.6321120 115.1322370 134.1117810 106.2662270
 115.2585110 135.4654660 106.9321630 119.1594550 136.2497190 121.9556190
 119.5735570 136.4042270 122.8046610 118.2245550 136.3752410 122.1181970
 119.6316720 133.5893350 123.9595340 120.2137490 132.8345670 123.8715820
 119.8078490 134.1200790 123.1826820 110.7488790 128.7490100 122.2712290
 110.6545660 128.1310850 121.5463160 110.1686180 129.4756390 122.0442200
 113.5150230 127.3063340 119.3039680 113.0667530 127.3287600 118.4585230
 112.8815430 126.9082360 119.9009980 113.9209780 136.2017670 119.9252120
 114.3397890 137.0450400 119.7528360 113.0018410 136.3389710 119.6958900
 116.2573680 133.9333850 121.3089960 116.3769890 133.3374990 122.0484800
 117.1167680 133.9703540 120.8891260 118.5961580 134.4871040 119.8852470
 118.0696800 135.0113660 119.2817610 118.9392920 135.1198430 120.5162200
 110.9947970 131.8764410 106.3302180 110.7937030 131.0131770 106.6915520
 110.8240020 131.7897770 105.3923780 111.7717200 142.5070680 121.0409850
 111.2338290 143.2316740 120.7218550 112.0251160 142.0301020 120.2507190
 113.0242450 130.4755200 122.5665780 113.6142140 130.1671050 123.2543600
 112.2062690 130.0034950 122.7225680 117.8435880 130.0921010 122.7998800
 117.1551400 129.4302550 122.7348790 118.5641900 129.6459280 123.2447260
 118.4736280 126.6872640 108.8589060 118.7538570 125.8440540 109.2148480
 117.7002010 126.9195750 109.3727810 109.7930770 128.9765030 106.3180060
 110.0956670 128.9832460 105.4099210 110.5325360 128.6262890 106.8147720
 114.6279410 143.7421890 121.2996500 114.5538110 144.6457030 121.6068870
 113.7258250 143.4233790 121.2718570 113.0115700 127.9199650 107.3036260
 112.6637700 127.2423640 106.7238710 113.2128470 127.4589160 108.1179650
 115.1764740 142.9080400 108.9222860 116.0715530 143.2465370 108.9441620
 115.2082370 142.1859810 108.2947140 108.8160900 138.2807450 107.1509860
 109.2535770 138.8237120 107.8067440 109.3008630 137.4554400 107.1606200
 106.0306700 141.0696480 114.6030120 106.3609710 140.2017540 114.3708760
 106.4597700 141.2755000 115.4335080 110.6268620 139.4005490 112.2632090
 110.3264160 139.2770460 113.1636000 110.5206110 138.5414080 111.8547820
 106.5196910 141.9367070 117.3411750 106.0827900 142.1167870 118.1735900
 107.0874590 142.6941690 117.1993470 122.1559090 141.4384070 121.6289060
 121.5561080 141.4976630 120.8852980 122.2852990 140.4989050 121.7585910
 123.3960540 139.1801890 106.9658770 122.5653500 139.2478540 107.4366000
 123.5732370 140.0706010 106.6625630 122.8517000 135.9249370 109.4692970
 123.6135910 136.4946020 109.5752660 122.8671370 135.3576570 110.2401280
 106.3521340 134.4487300 113.7000630 105.6970180 134.1798940 113.0560330
 107.1899290 134.3391780 113.2502610 123.8576970 136.7799470 114.3134900
 124.2285800 135.9966790 113.9070870 124.4978900 137.4688570 114.1352200
 120.8410730 138.1636050 119.7265220 120.0270570 138.5933210 119.9891010
 121.2484930 138.7754460 119.1134270 122.9036170 136.2183740 106.6265490
 123.1785010 137.1262620 106.4984710 122.7146910 136.1546270 107.5627480
 119.3011780 129.2428590 107.9219120 119.7196660 129.0559570 107.0815780
 118.9947840 128.3907640 108.2322050 122.8001510 134.1552730 111.6194920
 122.4245110 133.3880660 111.1876210 122.0704630 134.5375430 112.1069850
 107.3897270 134.8339870 118.2403970 107.7570310 134.7467270 119.1199990
 106.8208090 134.0706420 118.1410830 122.1901130 133.3024250 121.2534440
 121.9587220 133.0737000 120.3532390 122.4505680 134.2223800 121.2079330
 106.9413270 131.7448960 122.1462390 106.0469320 131.7115720 122.4856100
 107.4810820 131.9435750 122.9113640 120.6289200 128.5280680 124.0314140
 121.5059380 128.5364080 124.4148140 120.6410040 127.7911520 123.4206490
 122.0752470 132.3810220 114.9202160 122.5989950 131.8872870 114.2892330
 122.6611890 132.5160580 115.6649730 122.2542190 132.4650090 118.4421710
 121.3044900 132.4313630 118.5566700 122.4355200 133.3750200 118.2071480
 108.1086630 130.7151770 107.5520340 108.8178330 130.2934990 107.0667620
 107.3926570 130.7827000 106.9203690 121.5652440 131.6383570 110.8594570
 122.0611560 131.4054440 111.6443450 121.3668510 130.7995410 110.4432210
 107.4452980 126.0197290 116.4945610 108.0929170 125.4694670 116.0540770
 107.8654820 126.2740440 117.3161420 122.9939600 130.2744520 113.3932250
 122.8838880 130.1200560 114.3314520 123.7547190 129.7465460 113.1507660
 121.3405320 126.2138650 119.8515250 121.9777540 126.8272790 120.2174440
 121.4880210 126.2499310 118.9064480 123.8829870 128.1052440 106.6338390
 124.8079180 127.9733620 106.4256680 123.8605660 128.1845260 107.5874840
 123.9568360 128.8763100 109.2595100 123.1619860 128.8108220 109.7888010
 124.1611640 129.8113740 109.2480450 120.8986780 142.9154650 113.2533490
 121.4945850 142.5939220 112.5767910 121.1564930 142.4426470 114.0446760
 107.1984980 126.1752960 119.2370930 106.8499800 126.6316780 120.0029110
 106.8672680 125.2810090 119.3193360 108.8049350 139.3472560 123.4024120
 108.7618980 138.9765470 124.2838580 108.9360360 140.2850130 123.5425940
 112.5055380 140.9032150 119.0033840 112.2646740 141.1706710 118.1164360
 113.4458020 141.0737880 119.0584700 114.7109800 127.3664840 122.7590350
 114.6498690 127.9586670 123.5085760 115.6510180 127.2590800 122.6140610
 117.3484360 127.0234900 122.3982640 117.9624770 127.3414190 121.7363720
 117.8933920 126.5383490 123.0178500 123.7659540 142.9226530 119.8044480
 123.2717820 143.3195400 119.0871610 123.1572830 142.2975740 120.1981760
 107.8705620 125.7029160 122.5121700 108.4188610 125.5217210 121.7487810
 107.9360930 124.9123270 123.0478010 108.6437380 142.2934810 120.5221900
 108.0497700 142.1619510 121.2611940 108.6361220 141.4572950 120.0564000
 118.0892400 125.5867040 118.7251930 117.2152240 125.9202150 118.5224860
 117.9803150 125.1140220 119.5503800 118.9964380 127.7937910 120.1093650
 118.6677740 126.9789670 119.7295380 119.9446680 127.7507720 119.9859340
 121.4498990 143.5649950 117.0831220 120.9901960 144.3165760 116.7089240
 120.8211450 142.8456420 117.0246020 108.2749610 139.6593190 119.4729940
 107.5483670 139.0398480 119.4055890 108.3358760 140.0533800 118.6028020
 111.8794710 141.8738190 116.2579350 112.3959730 141.2625550 115.7327610
 112.5292090 142.3766970 116.7490360 114.6190210 142.7646680 117.0848330
 114.9068020 142.5100980 116.2081340 115.1313430 142.2124040 117.6753900
 115.8367220 126.5036880 117.6644840 115.0539010 126.9782380 117.9441600
 115.5430150 125.5991710 117.5558020 120.3888290 127.2059980 115.7093930
 120.8296380 127.1505080 114.8615530 120.1195880 128.1217990 115.7804110
 122.2526860 126.8375220 113.7202750 122.1915260 125.8936440 113.5733770
 123.0318890 126.9455310 114.2656210 106.5579610 142.9767580 112.6826700
 106.3901650 142.3438260 113.3808590 105.6914120 143.1826980 112.3320890
 107.1807630 126.8084360 110.1858560 107.9386990 126.9213240 109.6122590
 106.7184800 127.6453560 110.1401990 113.7221440 128.9223630 113.1760870
 112.9095950 128.5480520 112.8356750 114.2263080 128.1668710 113.4782060
 118.2246420 125.5866080 114.4143940 118.8275790 126.1586290 114.8892460
 117.4839410 126.1505520 114.1917840 121.3681020 125.9887640 109.6884220
 121.5631650 126.8871090 109.9551650 120.5810890 125.7574720 110.1817170
 108.1642310 141.6700810 110.1276840 107.6389930 142.0508840 109.4238800
 108.0886890 142.2951580 110.8486550 109.5532780 127.3348410 108.7260530
 110.0825540 126.5478210 108.5968480 110.1861100 128.0139600 108.9596060
 111.7470620 127.0723550 111.7805920 111.1173360 126.3710860 111.9476050
 111.2075760 127.8327680 111.5639080 114.6862570 143.6862780 124.4516530
 115.6129880 143.4507050 124.4952490 114.6713000 144.5134780 123.9702560
 122.9207630 143.2288350 111.4490780 123.0959820 142.5426090 110.8051700
 122.2229200 143.7535400 111.0567450 111.8726180 126.3507530 124.2158410
 111.5910450 126.8541130 123.4519230 112.2545880 125.5529280 123.8500540
 110.7635280 143.6183190 109.0026090 111.4954100 143.3342470 108.4549980
 111.0228950 143.3796470 109.8925470 109.9250070 139.7347920 109.0072420
 109.2958950 140.2033020 109.5558250 110.0397900 138.8897140 109.4418610
 118.4741640 125.7661110 124.7938880 118.3607090 126.0855720 125.6890400
 119.2911380 126.1673620 124.4976160 121.2540130 142.9132640 124.2757570
 122.0465450 142.4181870 124.0683530 121.5473280 143.5922780 124.8833180
 117.3799790 133.7853580  95.1573620 117.2993840 132.8708190  94.8865330
 116.9664210 134.2820650  94.4513330 115.5117830 135.5632600  97.0382890
 114.7359930 135.0833040  97.3281460 116.1630760 134.8838250  96.8639050
 109.5283660 135.8752410  97.9158650 108.6968540 135.6201120  98.3155160
 110.1364640 135.9463180  98.6516570 119.5325260 139.9692790  95.8182020
 119.0706790 139.1980030  96.1469190 120.3450810 139.9958860  96.3234470
 109.5084920 139.9092500  98.1116670 109.8112960 139.0190240  97.9326890
 110.2528510 140.4662720  97.8838920 107.9375610 130.8354300  91.7001040
 107.0492310 131.1770270  91.5980920 108.2216800 130.6354620  90.8081870
 105.9008620 133.4359950  97.5840740 106.4724730 132.6682150  97.5844380
 105.9010160 133.7348710  96.6747350 115.7588570 142.2550800  95.4386010
 115.1400010 142.7108300  94.8680450 116.6140350 142.4102260  95.0375710
 114.9526820 138.2389790  97.0453050 114.8835100 137.2979730  96.8842180
 115.7146680 138.3291200  97.6175620 115.9831990 131.0460170  97.2721980
 116.3596810 130.1732050  97.1595650 115.8851500 131.3818870  96.3812420
 110.1137000 129.4185800  92.7339420 110.2203750 130.3189530  93.0408180
 109.2029360 129.3703770  92.4434070 119.7656110 128.5410610  94.2050320
 120.5865730 128.0507180  94.2475800 119.7990190 129.1308270  94.9582160
 107.7620160 131.3404810  97.9792010 108.4430270 131.6043180  98.5979410
 107.4468210 130.5005680  98.3130020 111.9544730 132.3872170  97.0664600
 112.4622950 132.8853140  97.7069620 112.4857970 131.6107370  96.8903960
 124.0555660 130.5577360 100.7693950 123.3507830 130.9459070 100.2509060
 124.3213580 131.2527650 101.3714880 110.2380830 127.0270730 101.3328020
 110.2399270 127.5443120 100.5273920 109.4085140 126.5500910 101.3097950
 116.6251920 137.1390040  92.8317920 116.0069190 137.6039490  92.2680640
 117.1375170 137.8317520  93.2487430 111.4883680 136.6665910  99.5101520
 111.1553060 137.2934830 100.1522590 111.6650360 137.1927790  98.7303190
 120.0017590 130.4810990  96.9777860 119.2973160 130.7695880  97.5580970
 120.3629750 131.2911100  96.6177420 109.9196160 128.7380690  99.3398470
 110.2612970 129.5822740  99.0452340 108.9811970 128.8864430  99.4563810
 110.7002780 138.6346710 101.3250700 111.3176780 139.3097790 101.0435150
 109.8395900 139.0434690 101.2338200 105.9935120 137.8246570  90.2057550
 105.6163100 138.3133670  89.4742450 106.2508190 138.4971850  90.8364080
 121.6180370 140.0986120  99.2405340 120.9343890 140.7685230  99.2322010
 122.1574660 140.2966770  98.4750200 123.0704510 129.9265780  97.3687070
 122.1229420 129.9604760  97.5002500 123.3954500 130.7404730  97.7536430
 119.1539110 141.9430250  97.9550520 119.1666270 141.5392540  97.0872780
 118.6014330 142.7177540  97.8511950 120.4484530 138.6646470  93.0440690
 120.3380860 137.7220800  93.1690110 120.4452780 139.0262110  93.9303450
 118.5524550 136.8460090  99.2833130 118.9693340 136.6320200  98.4486590
 119.2764370 137.1032880  99.8541750 115.9904810 134.2911790  92.4003180
 115.0634090 134.2249170  92.6291650 116.1429630 135.2291920  92.2858420
 115.9773890 130.5628790  89.3970340 115.0377560 130.7242750  89.4822800
 116.2957150 131.2814470  88.8506330 122.4986650 135.2447310  99.3749370
 121.6705280 135.3140400  98.8999500 123.0937130 135.8301620  98.9065200
 120.0202100 135.8532090  92.9038430 119.4014520 135.5151640  92.2564730
 120.0026550 135.2091850  93.6117620 119.4628660 132.0316630 100.3204240
 119.0499840 132.8570340 100.5744230 118.7304610 131.4461670 100.1280600
 111.5961450 134.8176530  95.1822910 111.1918450 134.1053780  94.6868810
 111.6824570 134.4729770  96.0710950 112.0643150 138.5044090  97.3462120
 111.7671440 137.8989560  96.6669900 113.0142970 138.5421400  97.2351480
 110.3090070 131.5919740  98.9621950 110.8604660 131.7015080  98.1875200
 110.8233580 131.9657340  99.6777180 120.1528760 142.0775960 101.0085220
 119.6759320 142.8848150 100.8157830 119.4690550 141.4254290 101.1611430
 111.1561580 138.2425780 103.9969920 110.2590110 138.4665750 104.2443320
 111.1814450 138.3660720 103.0481320 118.1966800 135.0918900  89.9111180
 118.6360080 134.2541330  89.7649000 118.9095220 135.7248300  89.9975320
 109.9832800 135.1139100 102.5727290 109.8440570 135.9861900 102.9414690
 109.1014160 134.7711910 102.4275230 116.3062180 140.0314970  93.8792420
 116.7458090 140.7739300  93.4647810 116.2449070 140.2741540  94.8031380
 111.7813150 141.0560800 104.7812440 111.7528580 141.4603750 103.9140870
 111.6178120 140.1271160 104.6184040 121.7783940 126.3461710  88.2252220
 121.4656600 126.4388540  89.1251290 122.5396410 126.9242740  88.1749650
 108.2966080 133.7121510  92.6829560 108.1763680 134.4383600  92.0710830
 107.9866970 132.9424420  92.2057470 123.7327970 141.8387900 106.0776610
 124.2087690 142.3170790 106.7565690 124.3535130 141.7705390 105.3522110
 105.9351450 136.8836650  98.4898200 106.0131870 137.0185420  97.5453920
 106.5493130 136.1752540  98.6826320 107.1799080 138.5836840  94.9004380
 106.7727160 138.7251430  94.0457980 108.0712090 138.2997000  94.6975590
 123.1361220 139.0300750 103.2376620 123.2624280 138.7912630 102.3193800
 123.1782600 138.1985290 103.7098700 116.9977960 142.7328750 101.8071430
 117.5122630 142.6436760 102.6093860 116.1547040 143.0788450 102.0999340
 118.9732360 143.0184090  91.2355430 118.8133500 142.7287030  92.1337260
 118.8079070 142.2424220  90.7000660 111.4520740 142.7982620  93.0127050
 111.2763220 141.8818160  92.7994850 110.5976480 143.1569910  93.2524850
 118.6758490 140.5271650  89.7953430 117.9823650 140.5248940  89.1355710
 119.4181350 140.1030970  89.3647600 118.2408420 142.1534360  93.8701920
 118.6965370 141.3723740  94.1840540 118.5800940 142.8641180  94.4143100
 122.9885230 131.0833210 104.2026360 122.3729500 131.5912880 103.6741820
 122.6681650 130.1831540 104.1452300 105.9910970 137.9250820 101.0292660
 106.1542010 137.4556180 100.2112030 106.4563420 137.4174380 101.6941500
 110.7629740 127.0556580  96.0653230 110.3197890 127.8366120  95.7337750
 111.3214730 127.3786470  96.7724170 115.0499550 129.9225100 101.6688550
 114.5878920 130.1308120 102.4808490 114.6477660 129.1084450 101.3659220
 120.0504060 131.1434050 102.7985210 119.1997650 130.8439800 103.1194280
 119.8905850 131.3876060 101.8869030 117.1453770 132.6435800 104.8984000
 117.4707180 131.8099550 104.5586230 117.9334100 133.1664320 105.0462330
 113.8788560 126.6767280  90.9459060 113.2542740 126.6727150  91.6712370
 113.7918680 125.8098240  90.5495030 112.8005640 127.6003910  97.9242830
 113.0977970 128.5066740  97.8434850 113.3491200 127.1122690  97.3102400
 110.5543960 132.1790150  93.7934480 110.3284880 131.9627320  94.6981100
 109.7736490 132.6118610  93.4480450 117.7841720 132.1853520  92.3925130
 117.1850610 132.9089320  92.2088750 118.3321330 132.1230300  91.6101580
 112.9943170 133.0775730 104.4594750 112.8986770 132.1370460 104.3095150
 113.8375150 133.2990800 104.0642820 116.3906590 130.8217060  94.4228410
 116.7836160 131.1389260  93.6097100 116.7523440 129.9428940  94.5372930
 114.6998760 129.5724370 105.6825270 114.0097080 129.3796570 106.3171360
 115.4431060 129.8559010 106.2149570 105.4270760 127.4117860  96.6458610
 105.1383810 127.9820720  97.3583590 106.1716520 126.9322310  97.0089840
 105.6140990 131.3537980  87.8561330 105.5315660 132.2968740  87.9976320
 105.2624050 131.2112890  86.9773680 116.9761730 133.4122810  98.5179190
 116.2442850 133.9209620  98.8669290 116.5786070 132.5952790  98.2167970
 113.4139120 130.0877010  96.9231680 113.4175180 129.6466960  96.0736220
 114.3090240 130.4094340  97.0303500 109.2641500 129.9703500  95.8825890
 108.9241550 130.4478730  96.6392940 108.5018820 129.5168620  95.5226990
 113.4759270 131.0889090  89.9138440 113.5972090 131.0475570  90.8624260
 113.0907780 131.9513240  89.7585170 117.4387640 128.8656490  97.9302130
 117.4560380 129.3165140  98.7743980 117.1903220 127.9662130  98.1435570
 112.4880770 133.3990230  89.3121740 111.9197670 132.9508480  88.6857650
 113.1969770 133.7583010  88.7786890 120.8658390 126.2788670 103.7688510
 121.1904160 125.5478330 104.2946490 120.9014900 125.9602310 102.8669500
 107.5649950 137.3002250 103.1888470 107.1804740 136.6595920 103.7871430
 107.8762140 138.0038370 103.7583200 113.7147090 134.1478790  98.6697090
 114.0817220 133.6737360  99.4158430 113.5252150 135.0220360  99.0105430
 106.5787580 128.8922480  94.7990560 106.2934500 128.5278150  95.6369180
 106.5166440 128.1602940  94.1853700 111.5046460 133.1887430 100.9881300
 111.2003530 134.0679410 101.2131660 112.4592920 133.2487220 101.0238740
 110.0328250 137.3948420  91.5848150 109.2590510 136.8546040  91.4246870
 110.7622880 136.8755030  91.2465910 120.7916230 136.3913780  97.3774540
 121.5115350 136.8869070  96.9870650 120.5898050 135.7131670  96.7328410
 116.2526170 127.7851740  91.5203930 115.4390780 127.2864910  91.4449240
 116.0588120 128.6249990  91.1040280 116.1735030 136.4622840 103.2643540
 116.1072340 135.5418510 103.0101130 115.5440170 136.5598280 103.9788180
 118.9674560 132.1571390  89.8166090 119.8554180 132.4688620  89.6417430
 118.9379650 131.2843640  89.4246670 110.0765650 137.0628800  95.2226960
 110.5944320 136.2597060  95.1683850 109.6249670 137.0007940  96.0643790
 114.9635150 138.3295080  90.4954260 115.3050850 139.0737310  89.9997580
 114.1347860 138.6426200  90.8579090 107.5610190 134.0290170 102.1352660
 107.2025130 134.6944020 102.7226000 107.2664750 133.1973720 102.5065280
 110.7623310 134.4874410 105.0192210 110.4623450 134.6331590 104.1220030
 111.5334550 133.9279700 104.9265600 116.1051760 139.2843410 103.0147340
 116.1196300 138.3524370 102.7966250 115.3976860 139.3703170 103.6537110
 121.2388830 133.4683230  89.2845950 121.1552550 133.8997450  88.4342390
 121.9583020 133.9281580  89.7172770 122.3162970 135.9250750 102.3615920
 121.5911160 136.5179530 102.1645310 122.8438430 135.9174290 101.5629290
 122.2676080 140.3225490  92.0128080 121.6252240 139.6681110  92.2871800
 121.8806740 140.7280580  91.2368750 117.8462560 137.6510920  95.8599770
 118.1986380 137.0539050  95.2001140 116.9624890 137.3255150  96.0308020
 113.9325840 138.4108610  93.2670180 114.6196970 138.9577820  93.6477770
 113.1458260 138.9549340  93.3019790 106.0718240 134.0281430  88.7587260
 106.9413090 134.3106230  89.0423180 105.5808560 134.8417300  88.6436070
 113.2353050 135.4154640  92.8795540 113.6915830 136.2259890  93.1055730
 112.8841260 135.0977780  93.7114030 115.5385660 140.9260980 100.1087840
 116.1827880 141.1320360 100.7861260 115.9015100 140.1649380  99.6558690
 109.1364830 125.7592290  93.3518060 109.0079460 125.7510190  94.3002980
 108.3126850 126.0975380  93.0009070 116.8117740 138.9293330  98.8265290
 117.4539970 138.2286490  98.9397460 117.3367090 139.7091770  98.6462180
 120.6573460 139.2141950  88.5504430 120.4311040 138.4972390  89.1429070
 120.2669660 138.9654390  87.7126180 118.5855360 139.7288230 102.0301350
 118.9211600 140.3154920 102.7079270 117.6655700 139.5980940 102.2599140
 106.4389490 143.2408810  89.3248890 106.7987130 143.8398150  88.6706160
 106.2981830 143.7868700  90.0983920 120.2389710 137.1313890  90.2118590
 119.9511410 137.5926580  90.9996470 121.0341880 136.6711660  90.4802810
 106.4231350 141.5063670 103.7991290 106.5322470 140.5658410 103.6586680
 105.7711910 141.7718420 103.1505020 114.4143940 139.7779560 105.1989410
 114.0940810 139.0588800 105.7435100 113.7402300 140.4534630 105.2725470
 112.4558110 140.6240010  90.1422560 112.4468210 141.3569700  89.5267070
 111.5356470 140.3771590  90.2349520 108.0564750 135.8454900  90.8869320
 107.4492700 136.5853800  90.8964620 108.5314100 135.9354260  90.0607520
 117.6297540 130.0105720 100.5626210 117.9978360 129.1900930 100.8905780
 116.7695740 130.0707610 100.9781860 120.9959570 128.9662660  91.3713770
 120.3672730 129.0708330  90.6572000 120.5011490 129.1859440  92.1607650
 115.4417710 140.6868250  88.8047750 115.5429690 140.4832240  87.8749730
 114.5419450 140.4326530  89.0095530 112.9643600 131.2448610  92.7871650
 112.2559750 131.7134950  93.2285260 113.2488080 130.5870620  93.4216840
 114.5899530 132.6645310 100.7864180 115.0884780 133.1391130 101.4516030
 114.7322480 131.7408830 100.9934210 116.9959030 127.9699270  94.2267440
 116.8726810 127.9885400  93.2776950 117.9443590 128.0178210  94.3465840
 114.0835820 143.2054570  93.4995420 114.3377320 143.1675960  92.5774790
 113.1348300 143.0787900  93.4923670 111.1678620 129.5533690  90.1622360
 112.0169150 129.9903840  90.0962550 110.8009890 129.8653950  90.9894420
 121.7966390 128.8813270 101.6292570 121.2939990 129.6218670 101.9686380
 122.6123050 129.2697270 101.3129360 120.0888400 134.1246450  95.0753930
 119.1478540 134.1396680  95.2501620 120.4032470 133.3382410  95.5214230
 110.0670040 135.8066050  88.6357890 110.8333310 135.6947410  89.1983320
 110.1444730 135.1104020  87.9834660 108.7616800 133.2391120  89.3190780
 108.8420390 132.2918630  89.4308180 109.6536550 133.5698000  89.4251440
 122.0913980 141.2955300  96.7508190 122.2161400 142.1186470  97.2232000
 122.9579540 141.0846030  96.4032340 109.5631510 143.3886510  96.4225320
 110.2993990 142.8401970  96.6933890 109.9472430 144.2542520  96.2831310
 106.4476990 139.4560080  92.2966830 105.5216770 139.6981220  92.2872240
 106.9133420 140.2834340  92.1751580 108.5689790 142.5732580 105.6110900
 109.3702520 142.8944630 106.0246300 108.0541610 142.2128160 106.3330810
 112.6733820 142.5616820  88.2450890 113.4662430 142.8505650  87.7932680
 112.1538170 142.1308990  87.5663370 117.4054420 138.6812450 105.5586310
 116.7992580 138.7044050 104.8182060 117.1008530 137.9495490 106.0953560
 118.8354790 142.4092740 104.1695720 119.7876540 142.3250760 104.1195960
 118.6883010 143.0734450 104.8429510 121.7263990 141.7886950  89.6687630
 121.4405500 141.3752090  88.8541810 121.5283540 142.7174660  89.5488150
 106.2887600 135.0606040 104.5546950 106.7926620 134.4813320 105.1263180
 105.5495020 135.3446270 105.0923320 113.1911220 137.7820230  88.1093240
 113.0861860 137.1672580  88.8354620 113.0235440 137.2586120  87.3256250
 113.3425540 136.4677030 104.0882470 112.5771210 137.0362030 104.0037140
 113.5241500 136.1753240 103.1950700 116.4313950 136.8440260  88.7135230
 115.8824050 137.2909560  89.3577970 117.0533210 136.3389510  89.2372900
 120.4848890 138.1982360 104.6457490 121.2258360 138.5358120 104.1424950
 119.7221570 138.3674420 104.0927260 108.3210680 133.2035630 105.4497020
 108.3616020 132.9049500 106.3582250 109.1756180 133.6043240 105.2904540
 112.0989070 135.8031180  90.6100530 112.5205490 135.6371050  91.4531920
 112.2239910 134.9931410  90.1155670 110.2616490 131.7827730 103.4171510
 109.7312950 131.2918680 102.7894850 110.9304560 132.2111930 102.8829440
 114.6116710 134.8268790  87.8577630 115.1322370 134.1117810  87.4918780
 115.2585110 135.4654660  88.1578140 119.1594550 136.2497190 103.1812700
 119.5735570 136.4042270 104.0303120 118.2245550 136.3752410 103.3438480
 119.6316720 133.5893350 105.1851850 120.2137490 132.8345670 105.0972330
 119.8078490 134.1200790 104.4083330 110.7488790 128.7490100 103.4968800
 110.6545660 128.1310850 102.7719670 110.1686180 129.4756390 103.2698710
 113.5150230 127.3063340 100.5296190 113.0667530 127.3287600  99.6841740
 112.8815430 126.9082360 101.1266490 113.9209780 136.2017670 101.1508630
 114.3397890 137.0450400 100.9784870 113.0018410 136.3389710 100.9215410
 116.2573680 133.9333850 102.5346470 116.3769890 133.3374990 103.2741310
 117.1167680 133.9703540 102.1147770 118.5961580 134.4871040 101.1108980
 118.0696800 135.0113660 100.5074120 118.9392920 135.1198430 101.7418710
 110.9947970 131.8764410  87.5558690 110.7937030 131.0131770  87.9172030
 110.8240020 131.7897770  86.6180290 111.7717200 142.5070680 102.2666360
 111.2338290 143.2316740 101.9475060 112.0251160 142.0301020 101.4763700
 113.0242450 130.4755200 103.7922290 113.6142140 130.1671050 104.4800110
 112.2062690 130.0034950 103.9482190 117.8435880 130.0921010 104.0255310
 117.1551400 129.4302550 103.9605300 118.5641900 129.6459280 104.4703770
 118.4736280 126.6872640  90.0845570 118.7538570 125.8440540  90.4404990
 117.7002010 126.9195750  90.5984320 114.6279410 143.7421890 102.5253010
 114.5538110 144.6457030 102.8325380 113.7258250 143.4233790 102.4975080
 113.0115700 127.9199650  88.5292770 112.6637700 127.2423640  87.9495220
 113.2128470 127.4589160  89.3436160 115.1764740 142.9080400  90.1479370
 116.0715530 143.2465370  90.1698130 115.2082370 142.1859810  89.5203650
 108.8160900 138.2807450  88.3766370 109.2535770 138.8237120  89.0323950
 109.3008630 137.4554400  88.3862710 106.0306700 141.0696480  95.8286630
 106.3609710 140.2017540  95.5965270 106.4597700 141.2755000  96.6591590
 110.6268620 139.4005490  93.4888600 110.3264160 139.2770460  94.3892510
 110.5206110 138.5414080  93.0804330 106.5196910 141.9367070  98.5668260
 106.0827900 142.1167870  99.3992410 107.0874590 142.6941690  98.4249980
 122.1559090 141.4384070 102.8545570 121.5561080 141.4976630 102.1109490
 122.2852990 140.4989050 102.9842420 123.3960540 139.1801890  88.1915280
 122.5653500 139.2478540  88.6622510 123.5732370 140.0706010  87.8882140
 122.8517000 135.9249370  90.6949480 123.6135910 136.4946020  90.8009170
 122.8671370 135.3576570  91.4657790 106.3521340 134.4487300  94.9257140
 105.6970180 134.1798940  94.2816840 107.1899290 134.3391780  94.4759120
 123.8576970 136.7799470  95.5391410 124.2285800 135.9966790  95.1327380
 124.4978900 137.4688570  95.3608710 120.8410730 138.1636050 100.9521730
 120.0270570 138.5933210 101.2147520 121.2484930 138.7754460 100.3390780
 122.9036170 136.2183740  87.8522000 123.1785010 137.1262620  87.7241220
 122.7146910 136.1546270  88.7883990 119.3011780 129.2428590  89.1475630
 119.7196660 129.0559570  88.3072290 118.9947840 128.3907640  89.4578560
 122.8001510 134.1552730  92.8451430 122.4245110 133.3880660  92.4132720
 122.0704630 134.5375430  93.3326360 107.3897270 134.8339870  99.4660480
 107.7570310 134.7467270 100.3456500 106.8208090 134.0706420  99.3667340
 122.1901130 133.3024250 102.4790950 121.9587220 133.0737000 101.5788900
 122.4505680 134.2223800 102.4335840 120.6289200 128.5280680 105.2570650
 121.5059380 128.5364080 105.6404650 120.6410040 127.7911520 104.6463000
 105.5659420 131.6586230  90.8682470 104.6623500 131.9216430  90.6934130
 106.0500040 131.9297400  90.0882430 122.0752470 132.3810220  96.1458670
 122.5989950 131.8872870  95.5148840 122.6611890 132.5160580  96.8906240
 122.2542190 132.4650090  99.6678220 121.3044900 132.4313630  99.7823210
 122.4355200 133.3750200  99.4327990 108.1086630 130.7151770  88.7776850
 108.8178330 130.2934990  88.2924130 107.3926570 130.7827000  88.1460200
 107.7560790 126.7691100  87.8179500 108.4788920 127.3100040  88.1360720
 108.0285310 126.4954520  86.9421040 121.5652440 131.6383570  92.0851080
 122.0611560 131.4054440  92.8699960 121.3668510 130.7995410  91.6688720
 107.4452980 126.0197290  97.7202120 108.0929170 125.4694670  97.2797280
 107.8654820 126.2740440  98.5417930 122.9939600 130.2744520  94.6188760
 122.8838880 130.1200560  95.5571030 123.7547190 129.7465460  94.3764170
 121.3405320 126.2138650 101.0771760 121.9777540 126.8272790 101.4430950
 121.4880210 126.2499310 100.1320990 123.8829870 128.1052440  87.8594900
 124.8079180 127.9733620  87.6513190 123.8605660 128.1845260  88.8131350
 123.9568360 128.8763100  90.4851610 123.1619860 128.8108220  91.0144520
 124.1611640 129.8113740  90.4736960 120.8986780 142.9154650  94.4790000
 121.4945850 142.5939220  93.8024420 121.1564930 142.4426470  95.2703270
 108.8049350 139.3472560 104.6280630 108.7618980 138.9765470 105.5095090
 108.9360360 140.2850130 104.7682450 112.5055380 140.9032150 100.2290350
 112.2646740 141.1706710  99.3420870 113.4458020 141.0737880 100.2841210
 114.7109800 127.3664840 103.9846860 114.6498690 127.9586670 104.7342270
 115.6510180 127.2590800 103.8397120 117.3484360 127.0234900 103.6239150
 117.9624770 127.3414190 102.9620230 117.8933920 126.5383490 104.2435010
 123.7659540 142.9226530 101.0300990 123.2717820 143.3195400 100.3128120
 123.1572830 142.2975740 101.4238270 108.6437380 142.2934810 101.7478410
 108.0497700 142.1619510 102.4868450 108.6361220 141.4572950 101.2820510
 118.0892400 125.5867040  99.9508440 117.2152240 125.9202150  99.7481370
 117.9803150 125.1140220 100.7760310 118.9964380 127.7937910 101.3350160
 118.6677740 126.9789670 100.9551890 119.9446680 127.7507720 101.2115850
 121.4498990 143.5649950  98.3087730 120.9901960 144.3165760  97.9345750
 120.8211450 142.8456420  98.2502530 108.2749610 139.6593190 100.6986450
 107.5483670 139.0398480 100.6312400 108.3358760 140.0533800  99.8284530
 111.8794710 141.8738190  97.4835860 112.3959730 141.2625550  96.9584120
 112.5292090 142.3766970  97.9746870 114.6190210 142.7646680  98.3104840
 114.9068020 142.5100980  97.4337850 115.1313430 142.2124040  98.9010410
 115.8367220 126.5036880  98.8901350 115.0539010 126.9782380  99.1698110
 115.5430150 125.5991710  98.7814530 120.3888290 127.2059980  96.9350440
 120.8296380 127.1505080  96.0872040 120.1195880 128.1217990  97.0060620
 122.2526860 126.8375220  94.9459260 122.1915260 125.8936440  94.7990280
 123.0318890 126.9455310  95.4912720 106.5579610 142.9767580  93.9083210
 106.3901650 142.3438260  94.6065100 105.6914120 143.1826980  93.5577400
 107.1807630 126.8084360  91.4115070 107.9386990 126.9213240  90.8379100
 106.7184800 127.6453560  91.3658500 113.7221440 128.9223630  94.4017380
 112.9095950 128.5480520  94.0613260 114.2263080 128.1668710  94.7038570
 118.2246420 125.5866080  95.6400450 118.8275790 126.1586290  96.1148970
 117.4839410 126.1505520  95.4174350 121.3681020 125.9887640  90.9140730
 121.5631650 126.8871090  91.1808160 120.5810890 125.7574720  91.4073680
 108.1642310 141.6700810  91.3533350 107.6389930 142.0508840  90.6495310
 108.0886890 142.2951580  92.0743060 109.5532780 127.3348410  89.9517040
 110.0825540 126.5478210  89.8224990 110.1861100 128.0139600  90.1852570
 111.7470620 127.0723550  93.0062430 111.1173360 126.3710860  93.1732560
 111.2075760 127.8327680  92.7895590 114.6862570 143.6862780 105.6773040
 115.6129880 143.4507050 105.7209000 114.6713000 144.5134780 105.1959070
 122.9207630 143.2288350  92.6747290 123.0959820 142.5426090  92.0308210
 122.2229200 143.7535400  92.2823960 111.8726180 126.3507530 105.4414920
 111.5910450 126.8541130 104.6775740 112.2545880 125.5529280 105.0757050
 110.7635280 143.6183190  90.2282600 111.4954100 143.3342470  89.6806490
 111.0228950 143.3796470  91.1181980 109.9250070 139.7347920  90.2328930
 109.2958950 140.2033020  90.7814760 110.0397900 138.8897140  90.6675120
 118.4741640 125.7661110 106.0195390 118.3607090 126.0855720 106.9146910
 119.2911380 126.1673620 105.7232670 121.2540130 142.9132640 105.5014080
 122.0465450 142.4181870 105.2940040 121.5473280 143.5922780 106.1089690
 117.3799790 133.7853580  76.3830130 117.2993840 132.8708190  76.1121840
 116.9664210 134.2820650  75.6769840 115.5117830 135.5632600  78.2639400
 114.7359930 135.0833040  78.5537970 116.1630760 134.8838250  78.0895560
 109.5283660 135.8752410  79.1415160 108.6968540 135.6201120  79.5411670
 110.1364640 135.9463180  79.8773080 119.5325260 139.9692790  77.0438530
 119.0706790 139.1980030  77.3725700 120.3450810 139.9958860  77.5490980
 109.5084920 139.9092500  79.3373180 109.8112960 139.0190240  79.1583400
 110.2528510 140.4662720  79.1095430 105.9008620 133.4359950  78.8097250
 106.4724730 132.6682150  78.8100890 105.9010160 133.7348710  77.9003860
 115.7588570 142.2550800  76.6642520 115.1400010 142.7108300  76.0936960
 116.6140350 142.4102260  76.2632220 114.9526820 138.2389790  78.2709560
 114.8835100 137.2979730  78.1098690 115.7146680 138.3291200  78.8432130
 107.1433490 128.8444310  80.5966180 106.9636330 127.9470060  80.8768940
 106.7413570 129.3916180  81.2713130 115.9831990 131.0460170  78.4978490
 116.3596810 130.1732050  78.3852160 115.8851500 131.3818870  77.6068930
 110.1137000 129.4185800  73.9595930 110.2203750 130.3189530  74.2664690
 109.2029360 129.3703770  73.6690580 119.7656110 128.5410610  75.4306830
 120.5865730 128.0507180  75.4732310 119.7990190 129.1308270  76.1838670
 107.7620160 131.3404810  79.2048520 108.4430270 131.6043180  79.8235920
 107.4468210 130.5005680  79.5386530 111.9544730 132.3872170  78.2921110
 112.4622950 132.8853140  78.9326130 112.4857970 131.6107370  78.1160470
 124.0555660 130.5577360  81.9950460 123.3507830 130.9459070  81.4765570
 124.3213580 131.2527650  82.5971390 116.6251920 137.1390040  74.0574430
 116.0069190 137.6039490  73.4937150 117.1375170 137.8317520  74.4743940
 111.4883680 136.6665910  80.7358030 111.1553060 137.2934830  81.3779100
 111.6650360 137.1927790  79.9559700 120.0017590 130.4810990  78.2034370
 119.2973160 130.7695880  78.7837480 120.3629750 131.2911100  77.8433930
 110.7002780 138.6346710  82.5507210 111.3176780 139.3097790  82.2691660
 109.8395900 139.0434690  82.4594710 105.9935120 137.8246570  71.4314060
 105.6163100 138.3133670  70.6998960 106.2508190 138.4971850  72.0620590
 121.6180370 140.0986120  80.4661850 120.9343890 140.7685230  80.4578520
 122.1574660 140.2966770  79.7006710 123.0704510 129.9265780  78.5943580
 122.1229420 129.9604760  78.7259010 123.3954500 130.7404730  78.9792940
 113.6024050 126.2262960  76.8899570 113.9099030 125.6709850  76.1735070
 112.6724750 126.3607420  76.7072560 119.1539110 141.9430250  79.1807030
 119.1666270 141.5392540  78.3129290 118.6014330 142.7177540  79.0768460
 120.4484530 138.6646470  74.2697200 120.3380860 137.7220800  74.3946620
 120.4452780 139.0262110  75.1559960 118.5524550 136.8460090  80.5089640
 118.9693340 136.6320200  79.6743100 119.2764370 137.1032880  81.0798260
 115.9904810 134.2911790  73.6259690 115.0634090 134.2249170  73.8548160
 116.1429630 135.2291920  73.5114930 115.9773890 130.5628790  70.6226850
 115.0377560 130.7242750  70.7079310 116.2957150 131.2814470  70.0762840
 122.4986650 135.2447310  80.6005880 121.6705280 135.3140400  80.1256010
 123.0937130 135.8301620  80.1321710 120.0202100 135.8532090  74.1294940
 119.4014520 135.5151640  73.4821240 120.0026550 135.2091850  74.8374130
 119.4628660 132.0316630  81.5460750 119.0499840 132.8570340  81.8000740
 118.7304610 131.4461670  81.3537110 111.5961450 134.8176530  76.4079420
 111.1918450 134.1053780  75.9125320 111.6824570 134.4729770  77.2967460
 112.0643150 138.5044090  78.5718630 111.7671440 137.8989560  77.8926410
 113.0142970 138.5421400  78.4607990 110.3090070 131.5919740  80.1878460
 110.8604660 131.7015080  79.4131710 110.8233580 131.9657340  80.9033690
 120.1528760 142.0775960  82.2341730 119.6759320 142.8848150  82.0414340
 119.4690550 141.4254290  82.3867940 111.1561580 138.2425780  85.2226430
 110.2590110 138.4665750  85.4699830 111.1814450 138.3660720  84.2737830
 118.1966800 135.0918900  71.1367690 118.6360080 134.2541330  70.9905510
 118.9095220 135.7248300  71.2231830 109.9832800 135.1139100  83.7983800
 109.8440570 135.9861900  84.1671200 109.1014160 134.7711910  83.6531740
 116.3062180 140.0314970  75.1048930 116.7458090 140.7739300  74.6904320
 116.2449070 140.2741540  76.0287890 111.7813150 141.0560800  86.0068950
 111.7528580 141.4603750  85.1397380 111.6178120 140.1271160  85.8440550
 121.7783940 126.3461710  69.4508730 121.4656600 126.4388540  70.3507800
 122.5396410 126.9242740  69.4006160 123.7327970 141.8387900  87.3033120
 124.2087690 142.3170790  87.9822200 124.3535130 141.7705390  86.5778620
 105.9351450 136.8836650  79.7154710 106.0131870 137.0185420  78.7710430
 106.5493130 136.1752540  79.9082830 107.1799080 138.5836840  76.1260890
 106.7727160 138.7251430  75.2714490 108.0712090 138.2997000  75.9232100
 123.1361220 139.0300750  84.4633130 123.2624280 138.7912630  83.5450310
 123.1782600 138.1985290  84.9355210 116.9977960 142.7328750  83.0327940
 117.5122630 142.6436760  83.8350370 116.1547040 143.0788450  83.3255850
 118.9732360 143.0184090  72.4611940 118.8133500 142.7287030  73.3593770
 118.8079070 142.2424220  71.9257170 111.4520740 142.7982620  74.2383560
 111.2763220 141.8818160  74.0251360 110.5976480 143.1569910  74.4781360
 118.6758490 140.5271650  71.0209940 117.9823650 140.5248940  70.3612220
 119.4181350 140.1030970  70.5904110 118.2408420 142.1534360  75.0958430
 118.6965370 141.3723740  75.4097050 118.5800940 142.8641180  75.6399610
 122.9885230 131.0833210  85.4282870 122.3729500 131.5912880  84.8998330
 122.6681650 130.1831540  85.3708810 105.9910970 137.9250820  82.2549170
 106.1542010 137.4556180  81.4368540 106.4563420 137.4174380  82.9198010
 110.7629740 127.0556580  77.2909740 110.3197890 127.8366120  76.9594260
 111.3214730 127.3786470  77.9980680 115.0499550 129.9225100  82.8945060
 114.5878920 130.1308120  83.7065000 114.6477660 129.1084450  82.5915730
 120.0504060 131.1434050  84.0241720 119.1997650 130.8439800  84.3450790
 119.8905850 131.3876060  83.1125540 117.1453770 132.6435800  86.1240510
 117.4707180 131.8099550  85.7842740 117.9334100 133.1664320  86.2718840
 113.8788560 126.6767280  72.1715570 113.2542740 126.6727150  72.8968880
 113.7918680 125.8098240  71.7751540 112.8005640 127.6003910  79.1499340
 113.0977970 128.5066740  79.0691360 113.3491200 127.1122690  78.5358910
 110.5543960 132.1790150  75.0190990 110.3284880 131.9627320  75.9237610
 109.7736490 132.6118610  74.6736960 117.7841720 132.1853520  73.6181640
 117.1850610 132.9089320  73.4345260 118.3321330 132.1230300  72.8358090
 112.9943170 133.0775730  85.6851260 112.8986770 132.1370460  85.5351660
 113.8375150 133.2990800  85.2899330 116.3906590 130.8217060  75.6484920
 116.7836160 131.1389260  74.8353610 116.7523440 129.9428940  75.7629440
 114.6998760 129.5724370  86.9081780 114.0097080 129.3796570  87.5427870
 115.4431060 129.8559010  87.4406080 105.4270760 127.4117860  77.8715120
 105.1383810 127.9820720  78.5840100 106.1716520 126.9322310  78.2346350
 116.9761730 133.4122810  79.7435700 116.2442850 133.9209620  80.0925800
 116.5786070 132.5952790  79.4424480 113.4139120 130.0877010  78.1488190
 113.4175180 129.6466960  77.2992730 114.3090240 130.4094340  78.2560010
 109.2641500 129.9703500  77.1082400 108.9241550 130.4478730  77.8649450
 108.5018820 129.5168620  76.7483500 113.4759270 131.0889090  71.1394950
 113.5972090 131.0475570  72.0880770 113.0907780 131.9513240  70.9841680
 117.4387640 128.8656490  79.1558640 117.4560380 129.3165140  80.0000490
 117.1903220 127.9662130  79.3692080 107.5649950 137.3002250  84.4144980
 107.1804740 136.6595920  85.0127940 107.8762140 138.0038370  84.9839710
 113.7147090 134.1478790  79.8953600 114.0817220 133.6737360  80.6414940
 113.5252150 135.0220360  80.2361940 106.5787580 128.8922480  76.0247070
 106.2934500 128.5278150  76.8625690 106.5166440 128.1602940  75.4110210
 111.5046460 133.1887430  82.2137810 111.2003530 134.0679410  82.4388170
 112.4592920 133.2487220  82.2495250 110.0328250 137.3948420  72.8104660
 109.2590510 136.8546040  72.6503380 110.7622880 136.8755030  72.4722420
 120.7916230 136.3913780  78.6031050 121.5115350 136.8869070  78.2127160
 120.5898050 135.7131670  77.9584920 116.2526170 127.7851740  72.7460440
 115.4390780 127.2864910  72.6705750 116.0588120 128.6249990  72.3296790
 116.1735030 136.4622840  84.4900050 116.1072340 135.5418510  84.2357640
 115.5440170 136.5598280  85.2044690 118.9674560 132.1571390  71.0422600
 119.8554180 132.4688620  70.8673940 118.9379650 131.2843640  70.6503180
 110.0765650 137.0628800  76.4483470 110.5944320 136.2597060  76.3940360
 109.6249670 137.0007940  77.2900300 114.9635150 138.3295080  71.7210770
 115.3050850 139.0737310  71.2254090 114.1347860 138.6426200  72.0835600
 107.5610190 134.0290170  83.3609170 107.2025130 134.6944020  83.9482510
 107.2664750 133.1973720  83.7321790 110.7623310 134.4874410  86.2448720
 110.4623450 134.6331590  85.3476540 111.5334550 133.9279700  86.1522110
 116.1051760 139.2843410  84.2403850 116.1196300 138.3524370  84.0222760
 115.3976860 139.3703170  84.8793620 121.2388830 133.4683230  70.5102460
 121.1552550 133.8997450  69.6598900 121.9583020 133.9281580  70.9429280
 122.3162970 135.9250750  83.5872430 121.5911160 136.5179530  83.3901820
 122.8438430 135.9174290  82.7885800 122.2676080 140.3225490  73.2384590
 121.6252240 139.6681110  73.5128310 121.8806740 140.7280580  72.4625260
 117.8462560 137.6510920  77.0856280 118.1986380 137.0539050  76.4257650
 116.9624890 137.3255150  77.2564530 113.9325840 138.4108610  74.4926690
 114.6196970 138.9577820  74.8734280 113.1458260 138.9549340  74.5276300
 113.2353050 135.4154640  74.1052050 113.6915830 136.2259890  74.3312240
 112.8841260 135.0977780  74.9370540 115.5385660 140.9260980  81.3344350
 116.1827880 141.1320360  82.0117770 115.9015100 140.1649380  80.8815200
 116.8117740 138.9293330  80.0521800 117.4539970 138.2286490  80.1653970
 117.3367090 139.7091770  79.8718690 120.6573460 139.2141950  69.7760940
 120.4311040 138.4972390  70.3685580 120.2669660 138.9654390  68.9382690
 118.5855360 139.7288230  83.2557860 118.9211600 140.3154920  83.9335780
 117.6655700 139.5980940  83.4855650 106.4389490 143.2408810  70.5505400
 106.7987130 143.8398150  69.8962670 106.2981830 143.7868700  71.3240430
 106.1358760 127.5183410  84.0381270 105.4217280 127.7180330  84.6433880
 106.5553800 126.7422980  84.4096070 120.2389710 137.1313890  71.4375100
 119.9511410 137.5926580  72.2252980 121.0341880 136.6711660  71.7059320
 106.4231350 141.5063670  85.0247800 106.5322470 140.5658410  84.8843190
 105.7711910 141.7718420  84.3761530 114.4143940 139.7779560  86.4245920
 114.0940810 139.0588800  86.9691610 113.7402300 140.4534630  86.4981980
 112.4558110 140.6240010  71.3679070 112.4468210 141.3569700  70.7523580
 111.5356470 140.3771590  71.4606030 117.6297540 130.0105720  81.7882720
 117.9978360 129.1900930  82.1162290 116.7695740 130.0707610  82.2038370
 120.9959570 128.9662660  72.5970280 120.3672730 129.0708330  71.8828510
 120.5011490 129.1859440  73.3864160 115.4417710 140.6868250  70.0304260
 115.5429690 140.4832240  69.1006240 114.5419450 140.4326530  70.2352040
 112.9643600 131.2448610  74.0128160 112.2559750 131.7134950  74.4541770
 113.2488080 130.5870620  74.6473350 114.5899530 132.6645310  82.0120690
 115.0884780 133.1391130  82.6772540 114.7322480 131.7408830  82.2190720
 116.9959030 127.9699270  75.4523950 116.8726810 127.9885400  74.5033460
 117.9443590 128.0178210  75.5722350 114.0835820 143.2054570  74.7251930
 114.3377320 143.1675960  73.8031300 113.1348300 143.0787900  74.7180180
 121.7966390 128.8813270  82.8549080 121.2939990 129.6218670  83.1942890
 122.6123050 129.2697270  82.5385870 120.0888400 134.1246450  76.3010440
 119.1478540 134.1396680  76.4758130 120.4032470 133.3382410  76.7470740
 122.0913980 141.2955300  77.9764700 122.2161400 142.1186470  78.4488510
 122.9579540 141.0846030  77.6288850 109.5631510 143.3886510  77.6481830
 110.2993990 142.8401970  77.9190400 109.9472430 144.2542520  77.5087820
 106.4476990 139.4560080  73.5223340 105.5216770 139.6981220  73.5128750
 106.9133420 140.2834340  73.4008090 108.5689790 142.5732580  86.8367410
 109.3702520 142.8944630  87.2502810 108.0541610 142.2128160  87.5587320
 112.6733820 142.5616820  69.4707400 113.4662430 142.8505650  69.0189190
 112.1538170 142.1308990  68.7919880 117.4054420 138.6812450  86.7842820
 116.7992580 138.7044050  86.0438570 117.1008530 137.9495490  87.3210070
 118.8354790 142.4092740  85.3952230 119.7876540 142.3250760  85.3452470
 118.6883010 143.0734450  86.0686020 121.7263990 141.7886950  70.8944140
 121.4405500 141.3752090  70.0798320 121.5283540 142.7174660  70.7744660
 106.2887600 135.0606040  85.7803460 106.7926620 134.4813320  86.3519690
 105.5495020 135.3446270  86.3179830 113.1911220 137.7820230  69.3349750
 113.0861860 137.1672580  70.0611130 113.0235440 137.2586120  68.5512760
 113.3425540 136.4677030  85.3138980 112.5771210 137.0362030  85.2293650
 113.5241500 136.1753240  84.4207210 116.4313950 136.8440260  69.9391740
 115.8824050 137.2909560  70.5834480 117.0533210 136.3389510  70.4629410
 120.4848890 138.1982360  85.8714000 121.2258360 138.5358120  85.3681460
 119.7221570 138.3674420  85.3183770 108.3210680 133.2035630  86.6753530
 108.3616020 132.9049500  87.5838760 109.1756180 133.6043240  86.5161050
 112.0989070 135.8031180  71.8357040 112.5205490 135.6371050  72.6788430
 112.2239910 134.9931410  71.3412180 114.6116710 134.8268790  69.0834140
 115.1322370 134.1117810  68.7175290 115.2585110 135.4654660  69.3834650
 119.1594550 136.2497190  84.4069210 119.5735570 136.4042270  85.2559630
 118.2245550 136.3752410  84.5694990 119.6316720 133.5893350  86.4108360
 120.2137490 132.8345670  86.3228840 119.8078490 134.1200790  85.6339840
 113.9209780 136.2017670  82.3765140 114.3397890 137.0450400  82.2041380
 113.0018410 136.3389710  82.1471920 116.2573680 133.9333850  83.7602980
 116.3769890 133.3374990  84.4997820 117.1167680 133.9703540  83.3404280
 118.5961580 134.4871040  82.3365490 118.0696800 135.0113660  81.7330630
 118.9392920 135.1198430  82.9675220 111.7717200 142.5070680  83.4922870
 111.2338290 143.2316740  83.1731570 112.0251160 142.0301020  82.7020210
 117.8435880 130.0921010  85.2511820 117.1551400 129.4302550  85.1861810
 118.5641900 129.6459280  85.6960280 118.4736280 126.6872640  71.3102080
 118.7538570 125.8440540  71.6661500 117.7002010 126.9195750  71.8240830
 114.6279410 143.7421890  83.7509520 114.5538110 144.6457030  84.0581890
 113.7258250 143.4233790  83.7231590 115.1764740 142.9080400  71.3735880
 116.0715530 143.2465370  71.3954640 115.2082370 142.1859810  70.7460160
 108.8160900 138.2807450  69.6022880 109.2535770 138.8237120  70.2580460
 109.3008630 137.4554400  69.6119220 106.0306700 141.0696480  77.0543140
 106.3609710 140.2017540  76.8221780 106.4597700 141.2755000  77.8848100
 110.6268620 139.4005490  74.7145110 110.3264160 139.2770460  75.6149020
 110.5206110 138.5414080  74.3060840 106.5196910 141.9367070  79.7924770
 106.0827900 142.1167870  80.6248920 107.0874590 142.6941690  79.6506490
 122.1559090 141.4384070  84.0802080 121.5561080 141.4976630  83.3366000
 122.2852990 140.4989050  84.2098930 123.3960540 139.1801890  69.4171790
 122.5653500 139.2478540  69.8879020 123.5732370 140.0706010  69.1138650
 122.8517000 135.9249370  71.9205990 123.6135910 136.4946020  72.0265680
 122.8671370 135.3576570  72.6914300 106.3521340 134.4487300  76.1513650
 105.6970180 134.1798940  75.5073350 107.1899290 134.3391780  75.7015630
 123.8576970 136.7799470  76.7647920 124.2285800 135.9966790  76.3583890
 124.4978900 137.4688570  76.5865220 120.8410730 138.1636050  82.1778240
 120.0270570 138.5933210  82.4404030 121.2484930 138.7754460  81.5647290
 122.9036170 136.2183740  69.0778510 123.1785010 137.1262620  68.9497730
 122.7146910 136.1546270  70.0140500 119.3011780 129.2428590  70.3732140
 119.7196660 129.0559570  69.5328800 118.9947840 128.3907640  70.6835070
 122.8001510 134.1552730  74.0707940 122.4245110 133.3880660  73.6389230
 122.0704630 134.5375430  74.5582870 107.3897270 134.8339870  80.6916990
 107.7570310 134.7467270  81.5713010 106.8208090 134.0706420  80.5923850
 122.1901130 133.3024250  83.7047460 121.9587220 133.0737000  82.8045410
 122.4505680 134.2223800  83.6592350 106.9413270 131.7448960  84.5975410
 106.0469320 131.7115720  84.9369120 107.4810820 131.9435750  85.3626660
 120.6289200 128.5280680  86.4827160 121.5059380 128.5364080  86.8661160
 120.6410040 127.7911520  85.8719510 122.0752470 132.3810220  77.3715180
 122.5989950 131.8872870  76.7405350 122.6611890 132.5160580  78.1162750
 122.2542190 132.4650090  80.8934730 121.3044900 132.4313630  81.0079720
 122.4355200 133.3750200  80.6584500 121.5652440 131.6383570  73.3107590
 122.0611560 131.4054440  74.0956470 121.3668510 130.7995410  72.8945230
 107.4452980 126.0197290  78.9458630 108.0929170 125.4694670  78.5053790
 107.8654820 126.2740440  79.7674440 122.9939600 130.2744520  75.8445270
 122.8838880 130.1200560  76.7827540 123.7547190 129.7465460  75.6020680
 123.8829870 128.1052440  69.0851410 124.8079180 127.9733620  68.8769700
 123.8605660 128.1845260  70.0387860 123.9568360 128.8763100  71.7108120
 123.1619860 128.8108220  72.2401030 124.1611640 129.8113740  71.6993470
 120.8986780 142.9154650  75.7046510 121.4945850 142.5939220  75.0280930
 121.1564930 142.4426470  76.4959780 107.1984980 126.1752960  81.6883950
 106.8499800 126.6316780  82.4542130 106.8672680 125.2810090  81.7706380
 108.8049350 139.3472560  85.8537140 108.7618980 138.9765470  86.7351600
 108.9360360 140.2850130  85.9938960 112.5055380 140.9032150  81.4546860
 112.2646740 141.1706710  80.5677380 113.4458020 141.0737880  81.5097720
 114.7109800 127.3664840  85.2103370 114.6498690 127.9586670  85.9598780
 115.6510180 127.2590800  85.0653630 117.3484360 127.0234900  84.8495660
 117.9624770 127.3414190  84.1876740 117.8933920 126.5383490  85.4691520
 123.7659540 142.9226530  82.2557500 123.2717820 143.3195400  81.5384630
 123.1572830 142.2975740  82.6494780 108.6437380 142.2934810  82.9734920
 108.0497700 142.1619510  83.7124960 108.6361220 141.4572950  82.5077020
 118.9964380 127.7937910  82.5606670 118.6677740 126.9789670  82.1808400
 119.9446680 127.7507720  82.4372360 121.4498990 143.5649950  79.5344240
 120.9901960 144.3165760  79.1602260 120.8211450 142.8456420  79.4759040
 108.2749610 139.6593190  81.9242960 107.5483670 139.0398480  81.8568910
 108.3358760 140.0533800  81.0541040 111.8794710 141.8738190  78.7092370
 112.3959730 141.2625550  78.1840630 112.5292090 142.3766970  79.2003380
 114.6190210 142.7646680  79.5361350 114.9068020 142.5100980  78.6594360
 115.1313430 142.2124040  80.1266920 115.8367220 126.5036880  80.1157860
 115.0539010 126.9782380  80.3954620 115.5430150 125.5991710  80.0071040
 120.3888290 127.2059980  78.1606950 120.8296380 127.1505080  77.3128550
 120.1195880 128.1217990  78.2317130 122.2526860 126.8375220  76.1715770
 122.1915260 125.8936440  76.0246790 123.0318890 126.9455310  76.7169230
 106.5579610 142.9767580  75.1339720 106.3901650 142.3438260  75.8321610
 105.6914120 143.1826980  74.7833910 113.7221440 128.9223630  75.6273890
 112.9095950 128.5480520  75.2869770 114.2263080 128.1668710  75.9295080
 118.2246420 125.5866080  76.8656960 118.8275790 126.1586290  77.3405480
 117.4839410 126.1505520  76.6430860 121.3681020 125.9887640  72.1397240
 121.5631650 126.8871090  72.4064670 120.5810890 125.7574720  72.6330190
 108.1642310 141.6700810  72.5789860 107.6389930 142.0508840  71.8751820
 108.0886890 142.2951580  73.2999570 111.7470620 127.0723550  74.2318940
 111.1173360 126.3710860  74.3989070 111.2075760 127.8327680  74.0152100
 114.6862570 143.6862780  86.9029550 115.6129880 143.4507050  86.9465510
 114.6713000 144.5134780  86.4215580 122.9207630 143.2288350  73.9003800
 123.0959820 142.5426090  73.2564720 122.2229200 143.7535400  73.5080470
 110.7635280 143.6183190  71.4539110 111.4954100 143.3342470  70.9063000
 111.0228950 143.3796470  72.3438490 109.9250070 139.7347920  71.4585440
 109.2958950 140.2033020  72.0071270 110.0397900 138.8897140  71.8931630
 118.4741640 125.7661110  87.2451900 118.3607090 126.0855720  88.1403420
 119.2911380 126.1673620  86.9489180 121.2540130 142.9132640  86.7270590
 122.0465450 142.4181870  86.5196550 121.5473280 143.5922780  87.3346200
 117.3799790 133.7853580  57.6086640 117.2993840 132.8708190  57.3378350
 116.9664210 134.2820650  56.9026350 115.5117830 135.5632600  59.4895910
 114.7359930 135.0833040  59.7794480 116.1630760 134.8838250  59.3152070
 109.5283660 135.8752410  60.3671670 108.6968540 135.6201120  60.7668180
 110.1364640 135.9463180  61.1029590 119.5325260 139.9692790  58.2695040
 119.0706790 139.1980030  58.5982210 120.3450810 139.9958860  58.7747490
 109.5084920 139.9092500  60.5629690 109.8112960 139.0190240  60.3839910
 110.2528510 140.4662720  60.3351940 107.9375610 130.8354300  54.1514060
 107.0492310 131.1770270  54.0493940 108.2216800 130.6354620  53.2594890
 115.7588570 142.2550800  57.8899030 115.1400010 142.7108300  57.3193470
 116.6140350 142.4102260  57.4888730 114.9526820 138.2389790  59.4966070
 114.8835100 137.2979730  59.3355200 115.7146680 138.3291200  60.0688640
 115.9831990 131.0460170  59.7235000 116.3596810 130.1732050  59.6108670
 115.8851500 131.3818870  58.8325440 110.1137000 129.4185800  55.1852440
 110.2203750 130.3189530  55.4921200 109.2029360 129.3703770  54.8947090
 119.7656110 128.5410610  56.6563340 120.5865730 128.0507180  56.6988820
 119.7990190 129.1308270  57.4095180 124.0555660 130.5577360  63.2206970
 123.3507830 130.9459070  62.7022080 124.3213580 131.2527650  63.8227900
 116.6251920 137.1390040  55.2830940 116.0069190 137.6039490  54.7193660
 117.1375170 137.8317520  55.7000450 111.4883680 136.6665910  61.9614540
 111.1553060 137.2934830  62.6035610 111.6650360 137.1927790  61.1816210
 120.0017590 130.4810990  59.4290880 119.2973160 130.7695880  60.0093990
 120.3629750 131.2911100  59.0690440 110.7002780 138.6346710  63.7763720
 111.3176780 139.3097790  63.4948170 109.8395900 139.0434690  63.6851220
 105.9935120 137.8246570  52.6570570 105.6163100 138.3133670  51.9255470
 106.2508190 138.4971850  53.2877100 121.6180370 140.0986120  61.6918360
 120.9343890 140.7685230  61.6835030 122.1574660 140.2966770  60.9263220
 123.0704510 129.9265780  59.8200090 122.1229420 129.9604760  59.9515520
 123.3954500 130.7404730  60.2049450 113.6024050 126.2262960  58.1156080
 113.9099030 125.6709850  57.3991580 112.6724750 126.3607420  57.9329070
 119.1539110 141.9430250  60.4063540 119.1666270 141.5392540  59.5385800
 118.6014330 142.7177540  60.3024970 120.4484530 138.6646470  55.4953710
 120.3380860 137.7220800  55.6203130 120.4452780 139.0262110  56.3816470
 118.5524550 136.8460090  61.7346150 118.9693340 136.6320200  60.8999610
 119.2764370 137.1032880  62.3054770 115.9904810 134.2911790  54.8516200
 115.0634090 134.2249170  55.0804670 116.1429630 135.2291920  54.7371440
 115.9773890 130.5628790  51.8483360 115.0377560 130.7242750  51.9335820
 116.2957150 131.2814470  51.3019350 122.4986650 135.2447310  61.8262390
 121.6705280 135.3140400  61.3512520 123.0937130 135.8301620  61.3578220
 120.0202100 135.8532090  55.3551450 119.4014520 135.5151640  54.7077750
 120.0026550 135.2091850  56.0630640 119.4628660 132.0316630  62.7717260
 119.0499840 132.8570340  63.0257250 118.7304610 131.4461670  62.5793620
 111.5961450 134.8176530  57.6335930 111.1918450 134.1053780  57.1381830
 111.6824570 134.4729770  58.5223970 112.0643150 138.5044090  59.7975140
 111.7671440 137.8989560  59.1182920 113.0142970 138.5421400  59.6864500
 120.1528760 142.0775960  63.4598240 119.6759320 142.8848150  63.2670850
 119.4690550 141.4254290  63.6124450 111.1561580 138.2425780  66.4482940
 110.2590110 138.4665750  66.6956340 111.1814450 138.3660720  65.4994340
 118.1966800 135.0918900  52.3624200 118.6360080 134.2541330  52.2162020
 118.9095220 135.7248300  52.4488340 109.9832800 135.1139100  65.0240310
 109.8440570 135.9861900  65.3927710 109.1014160 134.7711910  64.8788250
 116.3062180 140.0314970  56.3305440 116.7458090 140.7739300  55.9160830
 116.2449070 140.2741540  57.2544400 111.7813150 141.0560800  67.2325460
 111.7528580 141.4603750  66.3653890 111.6178120 140.1271160  67.0697060
 121.7783940 126.3461710  50.6765240 121.4656600 126.4388540  51.5764310
 122.5396410 126.9242740  50.6262670 108.2966080 133.7121510  55.1342580
 108.1763680 134.4383600  54.5223850 107.9866970 132.9424420  54.6570490
 123.7327970 141.8387900  68.5289630 124.2087690 142.3170790  69.2078710
 124.3535130 141.7705390  67.8035130 105.9351450 136.8836650  60.9411220
 106.0131870 137.0185420  59.9966940 106.5493130 136.1752540  61.1339340
 107.1799080 138.5836840  57.3517400 106.7727160 138.7251430  56.4971000
 108.0712090 138.2997000  57.1488610 123.1361220 139.0300750  65.6889640
 123.2624280 138.7912630  64.7706820 123.1782600 138.1985290  66.1611720
 116.9977960 142.7328750  64.2584450 117.5122630 142.6436760  65.0606880
 116.1547040 143.0788450  64.5512360 118.9732360 143.0184090  53.6868450
 118.8133500 142.7287030  54.5850280 118.8079070 142.2424220  53.1513680
 111.4520740 142.7982620  55.4640070 111.2763220 141.8818160  55.2507870
 110.5976480 143.1569910  55.7037870 118.6758490 140.5271650  52.2466450
 117.9823650 140.5248940  51.5868730 119.4181350 140.1030970  51.8160620
 118.2408420 142.1534360  56.3214940 118.6965370 141.3723740  56.6353560
 118.5800940 142.8641180  56.8656120 122.9885230 131.0833210  66.6539380
 122.3729500 131.5912880  66.1254840 122.6681650 130.1831540  66.5965320
 105.9910970 137.9250820  63.4805680 106.1542010 137.4556180  62.6625050
 106.4563420 137.4174380  64.1454520 120.0504060 131.1434050  65.2498230
 119.1997650 130.8439800  65.5707300 119.8905850 131.3876060  64.3382050
 117.1453770 132.6435800  67.3497020 117.4707180 131.8099550  67.0099250
 117.9334100 133.1664320  67.4975350 113.8788560 126.6767280  53.3972080
 113.2542740 126.6727150  54.1225390 113.7918680 125.8098240  53.0008050
 112.8005640 127.6003910  60.3755850 113.0977970 128.5066740  60.2947870
 113.3491200 127.1122690  59.7615420 110.5543960 132.1790150  56.2447500
 110.3284880 131.9627320  57.1494120 109.7736490 132.6118610  55.8993470
 117.7841720 132.1853520  54.8438150 117.1850610 132.9089320  54.6601770
 118.3321330 132.1230300  54.0614600 112.9943170 133.0775730  66.9107770
 112.8986770 132.1370460  66.7608170 113.8375150 133.2990800  66.5155840
 116.3906590 130.8217060  56.8741430 116.7836160 131.1389260  56.0610120
 116.7523440 129.9428940  56.9885950 105.6140990 131.3537980  50.3074350
 105.5315660 132.2968740  50.4489340 105.2624050 131.2112890  49.4286700
 116.9761730 133.4122810  60.9692210 116.2442850 133.9209620  61.3182310
 116.5786070 132.5952790  60.6680990 113.4139120 130.0877010  59.3744700
 113.4175180 129.6466960  58.5249240 114.3090240 130.4094340  59.4816520
 113.4759270 131.0889090  52.3651460 113.5972090 131.0475570  53.3137280
 113.0907780 131.9513240  52.2098190 117.4387640 128.8656490  60.3815150
 117.4560380 129.3165140  61.2257000 117.1903220 127.9662130  60.5948590
 112.4880770 133.3990230  51.7634760 111.9197670 132.9508480  51.1370670
 113.1969770 133.7583010  51.2299910 120.8658390 126.2788670  66.2201530
 121.1904160 125.5478330  66.7459510 120.9014900 125.9602310  65.3182520
 107.5649950 137.3002250  65.6401490 107.1804740 136.6595920  66.2384450
 107.8762140 138.0038370  66.2096220 113.7147090 134.1478790  61.1210110
 114.0817220 133.6737360  61.8671450 113.5252150 135.0220360  61.4618450
 111.5046460 133.1887430  63.4394320 111.2003530 134.0679410  63.6644680
 112.4592920 133.2487220  63.4751760 110.0328250 137.3948420  54.0361170
 109.2590510 136.8546040  53.8759890 110.7622880 136.8755030  53.6978930
 120.7916230 136.3913780  59.8287560 121.5115350 136.8869070  59.4383670
 120.5898050 135.7131670  59.1841430 116.2526170 127.7851740  53.9716950
 115.4390780 127.2864910  53.8962260 116.0588120 128.6249990  53.5553300
 116.1735030 136.4622840  65.7156560 116.1072340 135.5418510  65.4614150
 115.5440170 136.5598280  66.4301200 118.9674560 132.1571390  52.2679110
 119.8554180 132.4688620  52.0930450 118.9379650 131.2843640  51.8759690
 110.0765650 137.0628800  57.6739980 110.5944320 136.2597060  57.6196870
 109.6249670 137.0007940  58.5156810 114.9635150 138.3295080  52.9467280
 115.3050850 139.0737310  52.4510600 114.1347860 138.6426200  53.3092110
 107.5610190 134.0290170  64.5865680 107.2025130 134.6944020  65.1739020
 107.2664750 133.1973720  64.9578300 110.7623310 134.4874410  67.4705230
 110.4623450 134.6331590  66.5733050 111.5334550 133.9279700  67.3778620
 116.1051760 139.2843410  65.4660360 116.1196300 138.3524370  65.2479270
 115.3976860 139.3703170  66.1050130 121.2388830 133.4683230  51.7358970
 121.1552550 133.8997450  50.8855410 121.9583020 133.9281580  52.1685790
 122.3162970 135.9250750  64.8128940 121.5911160 136.5179530  64.6158330
 122.8438430 135.9174290  64.0142310 122.2676080 140.3225490  54.4641100
 121.6252240 139.6681110  54.7384820 121.8806740 140.7280580  53.6881770
 117.8462560 137.6510920  58.3112790 118.1986380 137.0539050  57.6514160
 116.9624890 137.3255150  58.4821040 113.9325840 138.4108610  55.7183200
 114.6196970 138.9577820  56.0990790 113.1458260 138.9549340  55.7532810
 106.0718240 134.0281430  51.2100280 106.9413090 134.3106230  51.4936200
 105.5808560 134.8417300  51.0949090 113.2353050 135.4154640  55.3308560
 113.6915830 136.2259890  55.5568750 112.8841260 135.0977780  56.1627050
 115.5385660 140.9260980  62.5600860 116.1827880 141.1320360  63.2374280
 115.9015100 140.1649380  62.1071710 116.8117740 138.9293330  61.2778310
 117.4539970 138.2286490  61.3910480 117.3367090 139.7091770  61.0975200
 120.6573460 139.2141950  51.0017450 120.4311040 138.4972390  51.5942090
 120.2669660 138.9654390  50.1639200 118.5855360 139.7288230  64.4814370
 118.9211600 140.3154920  65.1592290 117.6655700 139.5980940  64.7112160
 106.4389490 143.2408810  51.7761910 106.7987130 143.8398150  51.1219180
 106.2981830 143.7868700  52.5496940 120.2389710 137.1313890  52.6631610
 119.9511410 137.5926580  53.4509490 121.0341880 136.6711660  52.9315830
 106.4231350 141.5063670  66.2504310 106.5322470 140.5658410  66.1099700
 105.7711910 141.7718420  65.6018040 114.4143940 139.7779560  67.6502430
 114.0940810 139.0588800  68.1948120 113.7402300 140.4534630  67.7238490
 112.4558110 140.6240010  52.5935580 112.4468210 141.3569700  51.9780090
 111.5356470 140.3771590  52.6862540 108.0564750 135.8454900  53.3382340
 107.4492700 136.5853800  53.3477640 108.5314100 135.9354260  52.5120540
 117.6297540 130.0105720  63.0139230 117.9978360 129.1900930  63.3418800
 116.7695740 130.0707610  63.4294880 120.9959570 128.9662660  53.8226790
 120.3672730 129.0708330  53.1085020 120.5011490 129.1859440  54.6120670
 115.4417710 140.6868250  51.2560770 115.5429690 140.4832240  50.3262750
 114.5419450 140.4326530  51.4608550 112.9643600 131.2448610  55.2384670
 112.2559750 131.7134950  55.6798280 113.2488080 130.5870620  55.8729860
 114.5899530 132.6645310  63.2377200 115.0884780 133.1391130  63.9029050
 114.7322480 131.7408830  63.4447230 116.9959030 127.9699270  56.6780460
 116.8726810 127.9885400  55.7289970 117.9443590 128.0178210  56.7978860
 114.0835820 143.2054570  55.9508440 114.3377320 143.1675960  55.0287810
 113.1348300 143.0787900  55.9436690 121.7966390 128.8813270  64.0805590
 121.2939990 129.6218670  64.4199400 122.6123050 129.2697270  63.7642380
 120.0888400 134.1246450  57.5266950 119.1478540 134.1396680  57.7014640
 120.4032470 133.3382410  57.9727250 110.0670040 135.8066050  51.0870910
 110.8333310 135.6947410  51.6496340 110.1444730 135.1104020  50.4347680
 108.7616800 133.2391120  51.7703800 108.8420390 132.2918630  51.8821200
 109.6536550 133.5698000  51.8764460 122.0913980 141.2955300  59.2021210
 122.2161400 142.1186470  59.6745020 122.9579540 141.0846030  58.8545360
 109.5631510 143.3886510  58.8738340 110.2993990 142.8401970  59.1446910
 109.9472430 144.2542520  58.7344330 106.4476990 139.4560080  54.7479850
 105.5216770 139.6981220  54.7385260 106.9133420 140.2834340  54.6264600
 108.5689790 142.5732580  68.0623920 109.3702520 142.8944630  68.4759320
 108.0541610 142.2128160  68.7843830 112.6733820 142.5616820  50.6963910
 113.4662430 142.8505650  50.2445700 112.1538170 142.1308990  50.0176390
 117.4054420 138.6812450  68.0099330 116.7992580 138.7044050  67.2695080
 117.1008530 137.9495490  68.5466580 118.8354790 142.4092740  66.6208740
 119.7876540 142.3250760  66.5708980 118.6883010 143.0734450  67.2942530
 121.7263990 141.7886950  52.1200650 121.4405500 141.3752090  51.3054830
 121.5283540 142.7174660  52.0001170 106.2887600 135.0606040  67.0059970
 106.7926620 134.4813320  67.5776200 105.5495020 135.3446270  67.5436340
 113.1911220 137.7820230  50.5606260 113.0861860 137.1672580  51.2867640
 113.0235440 137.2586120  49.7769270 113.3425540 136.4677030  66.5395490
 112.5771210 137.0362030  66.4550160 113.5241500 136.1753240  65.6463720
 116.4313950 136.8440260  51.1648250 115.8824050 137.2909560  51.8090990
 117.0533210 136.3389510  51.6885920 120.4848890 138.1982360  67.0970510
 121.2258360 138.5358120  66.5937970 119.7221570 138.3674420  66.5440280
 112.0989070 135.8031180  53.0613550 112.5205490 135.6371050  53.9044940
 112.2239910 134.9931410  52.5668690 110.2616490 131.7827730  65.8684530
 109.7312950 131.2918680  65.2407870 110.9304560 132.2111930  65.3342460
 114.6116710 134.8268790  50.3090650 115.1322370 134.1117810  49.9431800
 115.2585110 135.4654660  50.6091160 119.1594550 136.2497190  65.6325720
 119.5735570 136.4042270  66.4816140 118.2245550 136.3752410  65.7951500
 119.6316720 133.5893350  67.6364870 120.2137490 132.8345670  67.5485350
 119.8078490 134.1200790  66.8596350 113.9209780 136.2017670  63.6021650
 114.3397890 137.0450400  63.4297890 113.0018410 136.3389710  63.3728430
 116.2573680 133.9333850  64.9859490 116.3769890 133.3374990  65.7254330
 117.1167680 133.9703540  64.5660790 118.5961580 134.4871040  63.5622000
 118.0696800 135.0113660  62.9587140 118.9392920 135.1198430  64.1931730
 111.7717200 142.5070680  64.7179380 111.2338290 143.2316740  64.3988080
 112.0251160 142.0301020  63.9276720 117.8435880 130.0921010  66.4768330
 117.1551400 129.4302550  66.4118320 118.5641900 129.6459280  66.9216790
 118.4736280 126.6872640  52.5358590 118.7538570 125.8440540  52.8918010
 117.7002010 126.9195750  53.0497340 114.6279410 143.7421890  64.9766030
 114.5538110 144.6457030  65.2838400 113.7258250 143.4233790  64.9488100
 115.1764740 142.9080400  52.5992390 116.0715530 143.2465370  52.6211150
 115.2082370 142.1859810  51.9716670 108.8160900 138.2807450  50.8279390
 109.2535770 138.8237120  51.4836970 109.3008630 137.4554400  50.8375730
 106.0306700 141.0696480  58.2799650 106.3609710 140.2017540  58.0478290
 106.4597700 141.2755000  59.1104610 110.6268620 139.4005490  55.9401620
 110.3264160 139.2770460  56.8405530 110.5206110 138.5414080  55.5317350
 106.5196910 141.9367070  61.0181280 106.0827900 142.1167870  61.8505430
 107.0874590 142.6941690  60.8763000 122.1559090 141.4384070  65.3058590
 121.5561080 141.4976630  64.5622510 122.2852990 140.4989050  65.4355440
 123.3960540 139.1801890  50.6428300 122.5653500 139.2478540  51.1135530
 123.5732370 140.0706010  50.3395160 122.8517000 135.9249370  53.1462500
 123.6135910 136.4946020  53.2522190 122.8671370 135.3576570  53.9170810
 123.8576970 136.7799470  57.9904430 124.2285800 135.9966790  57.5840400
 124.4978900 137.4688570  57.8121730 120.8410730 138.1636050  63.4034750
 120.0270570 138.5933210  63.6660540 121.2484930 138.7754460  62.7903800
 122.9036170 136.2183740  50.3035020 123.1785010 137.1262620  50.1754240
 122.7146910 136.1546270  51.2397010 119.3011780 129.2428590  51.5988650
 119.7196660 129.0559570  50.7585310 118.9947840 128.3907640  51.9091580
 122.8001510 134.1552730  55.2964450 122.4245110 133.3880660  54.8645740
 122.0704630 134.5375430  55.7839380 122.1901130 133.3024250  64.9303970
 121.9587220 133.0737000  64.0301920 122.4505680 134.2223800  64.8848860
 106.9413270 131.7448960  65.8231920 106.0469320 131.7115720  66.1625630
 107.4810820 131.9435750  66.5883170 120.6289200 128.5280680  67.7083670
 121.5059380 128.5364080  68.0917670 120.6410040 127.7911520  67.0976020
 105.5659420 131.6586230  53.3195490 104.6623500 131.9216430  53.1447150
 106.0500040 131.9297400  52.5395450 122.0752470 132.3810220  58.5971690
 122.5989950 131.8872870  57.9661860 122.6611890 132.5160580  59.3419260
 122.2542190 132.4650090  62.1191240 121.3044900 132.4313630  62.2336230
 122.4355200 133.3750200  61.8841010 121.5652440 131.6383570  54.5364100
 122.0611560 131.4054440  55.3212980 121.3668510 130.7995410  54.1201740
 122.9939600 130.2744520  57.0701780 122.8838880 130.1200560  58.0084050
 123.7547190 129.7465460  56.8277190 121.3405320 126.2138650  63.5284780
 121.9777540 126.8272790  63.8943970 121.4880210 126.2499310  62.5834010
 123.8829870 128.1052440  50.3107920 124.8079180 127.9733620  50.1026210
 123.8605660 128.1845260  51.2644370 123.9568360 128.8763100  52.9364630
 123.1619860 128.8108220  53.4657540 124.1611640 129.8113740  52.9249980
 120.8986780 142.9154650  56.9303020 121.4945850 142.5939220  56.2537440
 121.1564930 142.4426470  57.7216290 108.8049350 139.3472560  67.0793650
 108.7618980 138.9765470  67.9608110 108.9360360 140.2850130  67.2195470
 112.5055380 140.9032150  62.6803370 112.2646740 141.1706710  61.7933890
 113.4458020 141.0737880  62.7354230 123.7659540 142.9226530  63.4814010
 123.2717820 143.3195400  62.7641140 123.1572830 142.2975740  63.8751290
 108.6437380 142.2934810  64.1991430 108.0497700 142.1619510  64.9381470
 108.6361220 141.4572950  63.7333530 118.9964380 127.7937910  63.7863180
 118.6677740 126.9789670  63.4064910 119.9446680 127.7507720  63.6628870
 121.4498990 143.5649950  60.7600750 120.9901960 144.3165760  60.3858770
 120.8211450 142.8456420  60.7015550 108.2749610 139.6593190  63.1499470
 107.5483670 139.0398480  63.0825420 108.3358760 140.0533800  62.2797550
 111.8794710 141.8738190  59.9348880 112.3959730 141.2625550  59.4097140
 112.5292090 142.3766970  60.4259890 114.6190210 142.7646680  60.7617860
 114.9068020 142.5100980  59.8850870 115.1313430 142.2124040  61.3523430
 115.8367220 126.5036880  61.3414370 115.0539010 126.9782380  61.6211130
 115.5430150 125.5991710  61.2327550 122.2526860 126.8375220  57.3972280
 122.1915260 125.8936440  57.2503300 123.0318890 126.9455310  57.9425740
 106.5579610 142.9767580  56.3596230 106.3901650 142.3438260  57.0578120
 105.6914120 143.1826980  56.0090420 113.7221440 128.9223630  56.8530400
 112.9095950 128.5480520  56.5126280 114.2263080 128.1668710  57.1551590
 121.3681020 125.9887640  53.3653750 121.5631650 126.8871090  53.6321180
 120.5810890 125.7574720  53.8586700 108.1642310 141.6700810  53.8046370
 107.6389930 142.0508840  53.1008330 108.0886890 142.2951580  54.5256080
 111.7470620 127.0723550  55.4575450 111.1173360 126.3710860  55.6245580
 111.2075760 127.8327680  55.2408610 114.6862570 143.6862780  68.1286060
 115.6129880 143.4507050  68.1722020 114.6713000 144.5134780  67.6472090
 122.9207630 143.2288350  55.1260310 123.0959820 142.5426090  54.4821230
 122.2229200 143.7535400  54.7336980 110.7635280 143.6183190  52.6795620
 111.4954100 143.3342470  52.1319510 111.0228950 143.3796470  53.5695000
 109.9250070 139.7347920  52.6841950 109.2958950 140.2033020  53.2327780
 110.0397900 138.8897140  53.1188140 118.4741640 125.7661110  68.4708410
 118.3607090 126.0855720  69.3659930 119.2911380 126.1673620  68.1745690
 121.2540130 142.9132640  67.9527100 122.0465450 142.4181870  67.7453060
 121.5473280 143.5922780  68.5602710 117.3799790 133.7853580  38.8343150
 117.2993840 132.8708190  38.5634860 116.9664210 134.2820650  38.1282860
 115.5117830 135.5632600  40.7152420 114.7359930 135.0833040  41.0050990
 116.1630760 134.8838250  40.5408580 109.5283660 135.8752410  41.5928180
 108.6968540 135.6201120  41.9924690 110.1364640 135.9463180  42.3286100
 119.5325260 139.9692790  39.4951550 119.0706790 139.1980030  39.8238720
 120.3450810 139.9958860  40.0004000 109.5084920 139.9092500  41.7886200
 109.8112960 139.0190240  41.6096420 110.2528510 140.4662720  41.5608450
 107.9375610 130.8354300  35.3770570 107.0492310 131.1770270  35.2750450
 108.2216800 130.6354620  34.4851400 105.9008620 133.4359950  41.2610270
 106.4724730 132.6682150  41.2613910 105.9010160 133.7348710  40.3516880
 115.7588570 142.2550800  39.1155540 115.1400010 142.7108300  38.5449980
 116.6140350 142.4102260  38.7145240 114.9526820 138.2389790  40.7222580
 114.8835100 137.2979730  40.5611710 115.7146680 138.3291200  41.2945150
 107.1433490 128.8444310  43.0479200 106.9636330 127.9470060  43.3281960
 106.7413570 129.3916180  43.7226150 115.9831990 131.0460170  40.9491510
 116.3596810 130.1732050  40.8365180 115.8851500 131.3818870  40.0581950
 110.1137000 129.4185800  36.4108950 110.2203750 130.3189530  36.7177710
 109.2029360 129.3703770  36.1203600 119.7656110 128.5410610  37.8819850
 120.5865730 128.0507180  37.9245330 119.7990190 129.1308270  38.6351690
 107.7620160 131.3404810  41.6561540 108.4430270 131.6043180  42.2748940
 107.4468210 130.5005680  41.9899550 111.9544730 132.3872170  40.7434130
 112.4622950 132.8853140  41.3839150 112.4857970 131.6107370  40.5673490
 124.0555660 130.5577360  44.4463480 123.3507830 130.9459070  43.9278590
 124.3213580 131.2527650  45.0484410 110.2380830 127.0270730  45.0097550
 110.2399270 127.5443120  44.2043450 109.4085140 126.5500910  44.9867480
 116.6251920 137.1390040  36.5087450 116.0069190 137.6039490  35.9450170
 117.1375170 137.8317520  36.9256960 111.4883680 136.6665910  43.1871050
 111.1553060 137.2934830  43.8292120 111.6650360 137.1927790  42.4072720
 120.0017590 130.4810990  40.6547390 119.2973160 130.7695880  41.2350500
 120.3629750 131.2911100  40.2946950 109.9196160 128.7380690  43.0168000
 110.2612970 129.5822740  42.7221870 108.9811970 128.8864430  43.1333340
 110.7002780 138.6346710  45.0020230 111.3176780 139.3097790  44.7204680
 109.8395900 139.0434690  44.9107730 105.9935120 137.8246570  33.8827080
 105.6163100 138.3133670  33.1511980 106.2508190 138.4971850  34.5133610
 121.6180370 140.0986120  42.9174870 120.9343890 140.7685230  42.9091540
 122.1574660 140.2966770  42.1519730 123.0704510 129.9265780  41.0456600
 122.1229420 129.9604760  41.1772030 123.3954500 130.7404730  41.4305960
 113.6024050 126.2262960  39.3412590 113.9099030 125.6709850  38.6248090
 112.6724750 126.3607420  39.1585580 119.1539110 141.9430250  41.6320050
 119.1666270 141.5392540  40.7642310 118.6014330 142.7177540  41.5281480
 120.4484530 138.6646470  36.7210220 120.3380860 137.7220800  36.8459640
 120.4452780 139.0262110  37.6072980 118.5524550 136.8460090  42.9602660
 118.9693340 136.6320200  42.1256120 119.2764370 137.1032880  43.5311280
 115.9904810 134.2911790  36.0772710 115.0634090 134.2249170  36.3061180
 116.1429630 135.2291920  35.9627950 115.9773890 130.5628790  33.0739870
 115.0377560 130.7242750  33.1592330 116.2957150 131.2814470  32.5275860
 122.4986650 135.2447310  43.0518900 121.6705280 135.3140400  42.5769030
 123.0937130 135.8301620  42.5834730 120.0202100 135.8532090  36.5807960
 119.4014520 135.5151640  35.9334260 120.0026550 135.2091850  37.2887150
 119.4628660 132.0316630  43.9973770 119.0499840 132.8570340  44.2513760
 118.7304610 131.4461670  43.8050130 111.5961450 134.8176530  38.8592440
 111.1918450 134.1053780  38.3638340 111.6824570 134.4729770  39.7480480
 112.0643150 138.5044090  41.0231650 111.7671440 137.8989560  40.3439430
 113.0142970 138.5421400  40.9121010 110.3090070 131.5919740  42.6391480
 110.8604660 131.7015080  41.8644730 110.8233580 131.9657340  43.3546710
 120.1528760 142.0775960  44.6854750 119.6759320 142.8848150  44.4927360
 119.4690550 141.4254290  44.8380960 111.1561580 138.2425780  47.6739450
 110.2590110 138.4665750  47.9212850 111.1814450 138.3660720  46.7250850
 118.1966800 135.0918900  33.5880710 118.6360080 134.2541330  33.4418530
 118.9095220 135.7248300  33.6744850 109.9832800 135.1139100  46.2496820
 109.8440570 135.9861900  46.6184220 109.1014160 134.7711910  46.1044760
 116.3062180 140.0314970  37.5561950 116.7458090 140.7739300  37.1417340
 116.2449070 140.2741540  38.4800910 111.7813150 141.0560800  48.4581970
 111.7528580 141.4603750  47.5910400 111.6178120 140.1271160  48.2953570
 121.7783940 126.3461710  31.9021750 121.4656600 126.4388540  32.8020820
 122.5396410 126.9242740  31.8519180 108.2966080 133.7121510  36.3599090
 108.1763680 134.4383600  35.7480360 107.9866970 132.9424420  35.8827000
 123.7327970 141.8387900  49.7546140 124.2087690 142.3170790  50.4335220
 124.3535130 141.7705390  49.0291640 105.9351450 136.8836650  42.1667730
 106.0131870 137.0185420  41.2223450 106.5493130 136.1752540  42.3595850
 107.1799080 138.5836840  38.5773910 106.7727160 138.7251430  37.7227510
 108.0712090 138.2997000  38.3745120 123.1361220 139.0300750  46.9146150
 123.2624280 138.7912630  45.9963330 123.1782600 138.1985290  47.3868230
 116.9977960 142.7328750  45.4840960 117.5122630 142.6436760  46.2863390
 116.1547040 143.0788450  45.7768870 118.9732360 143.0184090  34.9124960
 118.8133500 142.7287030  35.8106790 118.8079070 142.2424220  34.3770190
 111.4520740 142.7982620  36.6896580 111.2763220 141.8818160  36.4764380
 110.5976480 143.1569910  36.9294380 118.6758490 140.5271650  33.4722960
 117.9823650 140.5248940  32.8125240 119.4181350 140.1030970  33.0417130
 118.2408420 142.1534360  37.5471450 118.6965370 141.3723740  37.8610070
 118.5800940 142.8641180  38.0912630 122.9885230 131.0833210  47.8795890
 122.3729500 131.5912880  47.3511350 122.6681650 130.1831540  47.8221830
 105.9910970 137.9250820  44.7062190 106.1542010 137.4556180  43.8881560
 106.4563420 137.4174380  45.3711030 110.7629740 127.0556580  39.7422760
 110.3197890 127.8366120  39.4107280 111.3214730 127.3786470  40.4493700
 115.0499550 129.9225100  45.3458080 114.5878920 130.1308120  46.1578020
 114.6477660 129.1084450  45.0428750 120.0504060 131.1434050  46.4754740
 119.1997650 130.8439800  46.7963810 119.8905850 131.3876060  45.5638560
 117.1453770 132.6435800  48.5753530 117.4707180 131.8099550  48.2355760
 117.9334100 133.1664320  48.7231860 113.8788560 126.6767280  34.6228590
 113.2542740 126.6727150  35.3481900 113.7918680 125.8098240  34.2264560
 112.8005640 127.6003910  41.6012360 113.0977970 128.5066740  41.5204380
 113.3491200 127.1122690  40.9871930 110.5543960 132.1790150  37.4704010
 110.3284880 131.9627320  38.3750630 109.7736490 132.6118610  37.1249980
 117.7841720 132.1853520  36.0694660 117.1850610 132.9089320  35.8858280
 118.3321330 132.1230300  35.2871110 112.9943170 133.0775730  48.1364280
 112.8986770 132.1370460  47.9864680 113.8375150 133.2990800  47.7412350
 116.3906590 130.8217060  38.0997940 116.7836160 131.1389260  37.2866630
 116.7523440 129.9428940  38.2142460 108.1253710 129.4889400  46.2898060
 107.7317100 130.3364610  46.4970840 107.4372110 128.8515770  46.4806700
 114.6998760 129.5724370  49.3594800 114.0097080 129.3796570  49.9940890
 115.4431060 129.8559010  49.8919100 105.4270760 127.4117860  40.3228140
 105.1383810 127.9820720  41.0353120 106.1716520 126.9322310  40.6859370
 105.6140990 131.3537980  31.5330860 105.5315660 132.2968740  31.6745850
 105.2624050 131.2112890  30.6543210 116.9761730 133.4122810  42.1948720
 116.2442850 133.9209620  42.5438820 116.5786070 132.5952790  41.8937500
 113.4139120 130.0877010  40.6001210 113.4175180 129.6466960  39.7505750
 114.3090240 130.4094340  40.7073030 109.2641500 129.9703500  39.5595420
 108.9241550 130.4478730  40.3162470 108.5018820 129.5168620  39.1996520
 113.4759270 131.0889090  33.5907970 113.5972090 131.0475570  34.5393790
 113.0907780 131.9513240  33.4354700 117.4387640 128.8656490  41.6071660
 117.4560380 129.3165140  42.4513510 117.1903220 127.9662130  41.8205100
 112.4880770 133.3990230  32.9891270 111.9197670 132.9508480  32.3627180
 113.1969770 133.7583010  32.4556420 120.8658390 126.2788670  47.4458040
 121.1904160 125.5478330  47.9716020 120.9014900 125.9602310  46.5439030
 107.5649950 137.3002250  46.8658000 107.1804740 136.6595920  47.4640960
 107.8762140 138.0038370  47.4352730 113.7147090 134.1478790  42.3466620
 114.0817220 133.6737360  43.0927960 113.5252150 135.0220360  42.6874960
 106.5787580 128.8922480  38.4760090 106.2934500 128.5278150  39.3138710
 106.5166440 128.1602940  37.8623230 111.5046460 133.1887430  44.6650830
 111.2003530 134.0679410  44.8901190 112.4592920 133.2487220  44.7008270
 110.0328250 137.3948420  35.2617680 109.2590510 136.8546040  35.1016400
 110.7622880 136.8755030  34.9235440 120.7916230 136.3913780  41.0544070
 121.5115350 136.8869070  40.6640180 120.5898050 135.7131670  40.4097940
 116.2526170 127.7851740  35.1973460 115.4390780 127.2864910  35.1218770
 116.0588120 128.6249990  34.7809810 116.1735030 136.4622840  46.9413070
 116.1072340 135.5418510  46.6870660 115.5440170 136.5598280  47.6557710
 118.9674560 132.1571390  33.4935620 119.8554180 132.4688620  33.3186960
 118.9379650 131.2843640  33.1016200 110.0765650 137.0628800  38.8996490
 110.5944320 136.2597060  38.8453380 109.6249670 137.0007940  39.7413320
 114.9635150 138.3295080  34.1723790 115.3050850 139.0737310  33.6767110
 114.1347860 138.6426200  34.5348620 107.5610190 134.0290170  45.8122190
 107.2025130 134.6944020  46.3995530 107.2664750 133.1973720  46.1834810
 110.7623310 134.4874410  48.6961740 110.4623450 134.6331590  47.7989560
 111.5334550 133.9279700  48.6035130 116.1051760 139.2843410  46.6916870
 116.1196300 138.3524370  46.4735780 115.3976860 139.3703170  47.3306640
 121.2388830 133.4683230  32.9615480 121.1552550 133.8997450  32.1111920
 121.9583020 133.9281580  33.3942300 122.3162970 135.9250750  46.0385450
 121.5911160 136.5179530  45.8414840 122.8438430 135.9174290  45.2398820
 122.2676080 140.3225490  35.6897610 121.6252240 139.6681110  35.9641330
 121.8806740 140.7280580  34.9138280 117.8462560 137.6510920  39.5369300
 118.1986380 137.0539050  38.8770670 116.9624890 137.3255150  39.7077550
 113.9325840 138.4108610  36.9439710 114.6196970 138.9577820  37.3247300
 113.1458260 138.9549340  36.9789320 106.0718240 134.0281430  32.4356790
 106.9413090 134.3106230  32.7192710 105.5808560 134.8417300  32.3205600
 113.2353050 135.4154640  36.5565070 113.6915830 136.2259890  36.7825260
 112.8841260 135.0977780  37.3883560 115.5385660 140.9260980  43.7857370
 116.1827880 141.1320360  44.4630790 115.9015100 140.1649380  43.3328220
 109.1364830 125.7592290  37.0287590 109.0079460 125.7510190  37.9772510
 108.3126850 126.0975380  36.6778600 116.8117740 138.9293330  42.5034820
 117.4539970 138.2286490  42.6166990 117.3367090 139.7091770  42.3231710
 120.6573460 139.2141950  32.2273960 120.4311040 138.4972390  32.8198600
 120.2669660 138.9654390  31.3895710 118.5855360 139.7288230  45.7070880
 118.9211600 140.3154920  46.3848800 117.6655700 139.5980940  45.9368670
 106.4389490 143.2408810  33.0018420 106.7987130 143.8398150  32.3475690
 106.2981830 143.7868700  33.7753450 106.1358760 127.5183410  46.4894290
 105.4217280 127.7180330  47.0946900 106.5553800 126.7422980  46.8609090
 120.2389710 137.1313890  33.8888120 119.9511410 137.5926580  34.6766000
 121.0341880 136.6711660  34.1572340 106.4231350 141.5063670  47.4760820
 106.5322470 140.5658410  47.3356210 105.7711910 141.7718420  46.8274550
 114.4143940 139.7779560  48.8758940 114.0940810 139.0588800  49.4204630
 113.7402300 140.4534630  48.9495000 112.4558110 140.6240010  33.8192090
 112.4468210 141.3569700  33.2036600 111.5356470 140.3771590  33.9119050
 108.0564750 135.8454900  34.5638850 107.4492700 136.5853800  34.5734150
 108.5314100 135.9354260  33.7377050 117.6297540 130.0105720  44.2395740
 117.9978360 129.1900930  44.5675310 116.7695740 130.0707610  44.6551390
 120.9959570 128.9662660  35.0483300 120.3672730 129.0708330  34.3341530
 120.5011490 129.1859440  35.8377180 115.4417710 140.6868250  32.4817280
 115.5429690 140.4832240  31.5519260 114.5419450 140.4326530  32.6865060
 112.9643600 131.2448610  36.4641180 112.2559750 131.7134950  36.9054790
 113.2488080 130.5870620  37.0986370 114.5899530 132.6645310  44.4633710
 115.0884780 133.1391130  45.1285560 114.7322480 131.7408830  44.6703740
 116.9959030 127.9699270  37.9036970 116.8726810 127.9885400  36.9546480
 117.9443590 128.0178210  38.0235370 114.0835820 143.2054570  37.1764950
 114.3377320 143.1675960  36.2544320 113.1348300 143.0787900  37.1693200
 111.1678620 129.5533690  33.8391890 112.0169150 129.9903840  33.7732080
 110.8009890 129.8653950  34.6663950 121.7966390 128.8813270  45.3062100
 121.2939990 129.6218670  45.6455910 122.6123050 129.2697270  44.9898890
 120.0888400 134.1246450  38.7523460 119.1478540 134.1396680  38.9271150
 120.4032470 133.3382410  39.1983760 110.0670040 135.8066050  32.3127420
 110.8333310 135.6947410  32.8752850 110.1444730 135.1104020  31.6604190
 108.7616800 133.2391120  32.9960310 108.8420390 132.2918630  33.1077710
 109.6536550 133.5698000  33.1020970 122.0913980 141.2955300  40.4277720
 122.2161400 142.1186470  40.9001530 122.9579540 141.0846030  40.0801870
 109.5631510 143.3886510  40.0994850 110.2993990 142.8401970  40.3703420
 109.9472430 144.2542520  39.9600840 106.4476990 139.4560080  35.9736360
 105.5216770 139.6981220  35.9641770 106.9133420 140.2834340  35.8521110
 108.5689790 142.5732580  49.2880430 109.3702520 142.8944630  49.7015830
 108.0541610 142.2128160  50.0100340 112.6733820 142.5616820  31.9220420
 113.4662430 142.8505650  31.4702210 112.1538170 142.1308990  31.2432900
 117.4054420 138.6812450  49.2355840 116.7992580 138.7044050  48.4951590
 117.1008530 137.9495490  49.7723090 118.8354790 142.4092740  47.8465250
 119.7876540 142.3250760  47.7965490 118.6883010 143.0734450  48.5199040
 121.7263990 141.7886950  33.3457160 121.4405500 141.3752090  32.5311340
 121.5283540 142.7174660  33.2257680 106.2887600 135.0606040  48.2316480
 106.7926620 134.4813320  48.8032710 105.5495020 135.3446270  48.7692850
 113.1911220 137.7820230  31.7862770 113.0861860 137.1672580  32.5124150
 113.0235440 137.2586120  31.0025780 113.3425540 136.4677030  47.7652000
 112.5771210 137.0362030  47.6806670 113.5241500 136.1753240  46.8720230
 116.4313950 136.8440260  32.3904760 115.8824050 137.2909560  33.0347500
 117.0533210 136.3389510  32.9142430 120.4848890 138.1982360  48.3227020
 121.2258360 138.5358120  47.8194480 119.7221570 138.3674420  47.7696790
 108.3210680 133.2035630  49.1266550 108.3616020 132.9049500  50.0351780
 109.1756180 133.6043240  48.9674070 112.0989070 135.8031180  34.2870060
 112.5205490 135.6371050  35.1301450 112.2239910 134.9931410  33.7925200
 110.2616490 131.7827730  47.0941040 109.7312950 131.2918680  46.4664380
 110.9304560 132.2111930  46.5598970 114.6116710 134.8268790  31.5347160
 115.1322370 134.1117810  31.1688310 115.2585110 135.4654660  31.8347670
 119.1594550 136.2497190  46.8582230 119.5735570 136.4042270  47.7072650
 118.2245550 136.3752410  47.0208010 119.6316720 133.5893350  48.8621380
 120.2137490 132.8345670  48.7741860 119.8078490 134.1200790  48.0852860
 113.5150230 127.3063340  44.2065720 113.0667530 127.3287600  43.3611270
 112.8815430 126.9082360  44.8036020 113.9209780 136.2017670  44.8278160
 114.3397890 137.0450400  44.6554400 113.0018410 136.3389710  44.5984940
 116.2573680 133.9333850  46.2116000 116.3769890 133.3374990  46.9510840
 117.1167680 133.9703540  45.7917300 118.5961580 134.4871040  44.7878510
 118.0696800 135.0113660  44.1843650 118.9392920 135.1198430  45.4188240
 110.9947970 131.8764410  31.2328220 110.7937030 131.0131770  31.5941560
 110.8240020 131.7897770  30.2949820 111.7717200 142.5070680  45.9435890
 111.2338290 143.2316740  45.6244590 112.0251160 142.0301020  45.1533230
 113.0242450 130.4755200  47.4691820 113.6142140 130.1671050  48.1569640
 112.2062690 130.0034950  47.6251720 117.8435880 130.0921010  47.7024840
 117.1551400 129.4302550  47.6374830 118.5641900 129.6459280  48.1473300
 118.4736280 126.6872640  33.7615100 118.7538570 125.8440540  34.1174520
 117.7002010 126.9195750  34.2753850 109.7930770 128.9765030  31.2206100
 110.0956670 128.9832460  30.3125250 110.5325360 128.6262890  31.7173760
 114.6279410 143.7421890  46.2022540 114.5538110 144.6457030  46.5094910
 113.7258250 143.4233790  46.1744610 113.0115700 127.9199650  32.2062300
 112.6637700 127.2423640  31.6264750 113.2128470 127.4589160  33.0205690
 115.1764740 142.9080400  33.8248900 116.0715530 143.2465370  33.8467660
 115.2082370 142.1859810  33.1973180 108.8160900 138.2807450  32.0535900
 109.2535770 138.8237120  32.7093480 109.3008630 137.4554400  32.0632240
 106.0306700 141.0696480  39.5056160 106.3609710 140.2017540  39.2734800
 106.4597700 141.2755000  40.3361120 110.6268620 139.4005490  37.1658130
 110.3264160 139.2770460  38.0662040 110.5206110 138.5414080  36.7573860
 106.5196910 141.9367070  42.2437790 106.0827900 142.1167870  43.0761940
 107.0874590 142.6941690  42.1019510 122.1559090 141.4384070  46.5315100
 121.5561080 141.4976630  45.7879020 122.2852990 140.4989050  46.6611950
 123.3960540 139.1801890  31.8684810 122.5653500 139.2478540  32.3392040
 123.5732370 140.0706010  31.5651670 122.8517000 135.9249370  34.3719010
 123.6135910 136.4946020  34.4778700 122.8671370 135.3576570  35.1427320
 106.3521340 134.4487300  38.6026670 105.6970180 134.1798940  37.9586370
 107.1899290 134.3391780  38.1528650 123.8576970 136.7799470  39.2160940
 124.2285800 135.9966790  38.8096910 124.4978900 137.4688570  39.0378240
 120.8410730 138.1636050  44.6291260 120.0270570 138.5933210  44.8917050
 121.2484930 138.7754460  44.0160310 122.9036170 136.2183740  31.5291530
 123.1785010 137.1262620  31.4010750 122.7146910 136.1546270  32.4653520
 119.3011780 129.2428590  32.8245160 119.7196660 129.0559570  31.9841820
 118.9947840 128.3907640  33.1348090 122.8001510 134.1552730  36.5220960
 122.4245110 133.3880660  36.0902250 122.0704630 134.5375430  37.0095890
 107.3897270 134.8339870  43.1430010 107.7570310 134.7467270  44.0226030
 106.8208090 134.0706420  43.0436870 122.1901130 133.3024250  46.1560480
 121.9587220 133.0737000  45.2558430 122.4505680 134.2223800  46.1105370
 106.9413270 131.7448960  47.0488430 106.0469320 131.7115720  47.3882140
 107.4810820 131.9435750  47.8139680 120.6289200 128.5280680  48.9340180
 121.5059380 128.5364080  49.3174180 120.6410040 127.7911520  48.3232530
 105.5659420 131.6586230  34.5452000 104.6623500 131.9216430  34.3703660
 106.0500040 131.9297400  33.7651960 122.0752470 132.3810220  39.8228200
 122.5989950 131.8872870  39.1918370 122.6611890 132.5160580  40.5675770
 122.2542190 132.4650090  43.3447750 121.3044900 132.4313630  43.4592740
 122.4355200 133.3750200  43.1097520 108.1086630 130.7151770  32.4546380
 108.8178330 130.2934990  31.9693660 107.3926570 130.7827000  31.8229730
 107.7560790 126.7691100  31.4949030 108.4788920 127.3100040  31.8130250
 108.0285310 126.4954520  30.6190570 121.5652440 131.6383570  35.7620610
 122.0611560 131.4054440  36.5469490 121.3668510 130.7995410  35.3458250
 107.4452980 126.0197290  41.3971650 108.0929170 125.4694670  40.9566810
 107.8654820 126.2740440  42.2187460 122.9939600 130.2744520  38.2958290
 122.8838880 130.1200560  39.2340560 123.7547190 129.7465460  38.0533700
 121.3405320 126.2138650  44.7541290 121.9777540 126.8272790  45.1200480
 121.4880210 126.2499310  43.8090520 123.8829870 128.1052440  31.5364430
 124.8079180 127.9733620  31.3282720 123.8605660 128.1845260  32.4900880
 123.9568360 128.8763100  34.1621140 123.1619860 128.8108220  34.6914050
 124.1611640 129.8113740  34.1506490 120.8986780 142.9154650  38.1559530
 121.4945850 142.5939220  37.4793950 121.1564930 142.4426470  38.9472800
 107.1984980 126.1752960  44.1396970 106.8499800 126.6316780  44.9055150
 106.8672680 125.2810090  44.2219400 108.8049350 139.3472560  48.3050160
 108.7618980 138.9765470  49.1864620 108.9360360 140.2850130  48.4451980
 112.5055380 140.9032150  43.9059880 112.2646740 141.1706710  43.0190400
 113.4458020 141.0737880  43.9610740 114.7109800 127.3664840  47.6616390
 114.6498690 127.9586670  48.4111800 115.6510180 127.2590800  47.5166650
 117.3484360 127.0234900  47.3008680 117.9624770 127.3414190  46.6389760
 117.8933920 126.5383490  47.9204540 123.7659540 142.9226530  44.7070520
 123.2717820 143.3195400  43.9897650 123.1572830 142.2975740  45.1007800
 108.6437380 142.2934810  45.4247940 108.0497700 142.1619510  46.1637980
 108.6361220 141.4572950  44.9590040 118.0892400 125.5867040  43.6277970
 117.2152240 125.9202150  43.4250900 117.9803150 125.1140220  44.4529840
 118.9964380 127.7937910  45.0119690 118.6677740 126.9789670  44.6321420
 119.9446680 127.7507720  44.8885380 121.4498990 143.5649950  41.9857260
 120.9901960 144.3165760  41.6115280 120.8211450 142.8456420  41.9272060
 108.2749610 139.6593190  44.3755980 107.5483670 139.0398480  44.3081930
 108.3358760 140.0533800  43.5054060 111.8794710 141.8738190  41.1605390
 112.3959730 141.2625550  40.6353650 112.5292090 142.3766970  41.6516400
 114.6190210 142.7646680  41.9874370 114.9068020 142.5100980  41.1107380
 115.1313430 142.2124040  42.5779940 115.8367220 126.5036880  42.5670880
 115.0539010 126.9782380  42.8467640 115.5430150 125.5991710  42.4584060
 120.3888290 127.2059980  40.6119970 120.8296380 127.1505080  39.7641570
 120.1195880 128.1217990  40.6830150 122.2526860 126.8375220  38.6228790
 122.1915260 125.8936440  38.4759810 123.0318890 126.9455310  39.1682250
 106.5579610 142.9767580  37.5852740 106.3901650 142.3438260  38.2834630
 105.6914120 143.1826980  37.2346930 107.1807630 126.8084360  35.0884600
 107.9386990 126.9213240  34.5148630 106.7184800 127.6453560  35.0428030
 113.7221440 128.9223630  38.0786910 112.9095950 128.5480520  37.7382790
 114.2263080 128.1668710  38.3808100 118.2246420 125.5866080  39.3169980
 118.8275790 126.1586290  39.7918500 117.4839410 126.1505520  39.0943880
 121.3681020 125.9887640  34.5910260 121.5631650 126.8871090  34.8577690
 120.5810890 125.7574720  35.0843210 108.1642310 141.6700810  35.0302880
 107.6389930 142.0508840  34.3264840 108.0886890 142.2951580  35.7512590
 109.5532780 127.3348410  33.6286570 110.0825540 126.5478210  33.4994520
 110.1861100 128.0139600  33.8622100 111.7470620 127.0723550  36.6831960
 111.1173360 126.3710860  36.8502090 111.2075760 127.8327680  36.4665120
 114.6862570 143.6862780  49.3542570 115.6129880 143.4507050  49.3978530
 114.6713000 144.5134780  48.8728600 122.9207630 143.2288350  36.3516820
 123.0959820 142.5426090  35.7077740 122.2229200 143.7535400  35.9593490
 110.7635280 143.6183190  33.9052130 111.4954100 143.3342470  33.3576020
 111.0228950 143.3796470  34.7951510 109.9250070 139.7347920  33.9098460
 109.2958950 140.2033020  34.4584290 110.0397900 138.8897140  34.3444650
 118.4741640 125.7661110  49.6964920 118.3607090 126.0855720  50.5916440
 119.2911380 126.1673620  49.4002200 121.2540130 142.9132640  49.1783610
 122.0465450 142.4181870  48.9709570 121.5473280 143.5922780  49.7859220
 117.3799790 133.7853580  20.0599660 117.2993840 132.8708190  19.7891370
 116.9664210 134.2820650  19.3539370 115.5117830 135.5632600  21.9408930
 114.7359930 135.0833040  22.2307500 116.1630760 134.8838250  21.7665090
 109.5283660 135.8752410  22.8184690 108.6968540 135.6201120  23.2181200
 110.1364640 135.9463180  23.5542610 119.5325260 139.9692790  20.7208060
 119.0706790 139.1980030  21.0495230 120.3450810 139.9958860  21.2260510
 109.5084920 139.9092500  23.0142710 109.8112960 139.0190240  22.8352930
 110.2528510 140.4662720  22.7864960 107.9375610 130.8354300  16.6027080
 107.0492310 131.1770270  16.5006960 108.2216800 130.6354620  15.7107910
 105.9008620 133.4359950  22.4866780 106.4724730 132.6682150  22.4870420
 105.9010160 133.7348710  21.5773390 115.7588570 142.2550800  20.3412050
 115.1400010 142.7108300  19.7706490 116.6140350 142.4102260  19.9401750
 114.9526820 138.2389790  21.9479090 114.8835100 137.2979730  21.7868220
 115.7146680 138.3291200  22.5201660 107.1433490 128.8444310  24.2735710
 106.9636330 127.9470060  24.5538470 106.7413570 129.3916180  24.9482660
 115.9831990 131.0460170  22.1748020 116.3596810 130.1732050  22.0621690
 115.8851500 131.3818870  21.2838460 110.1137000 129.4185800  17.6365460
 110.2203750 130.3189530  17.9434220 109.2029360 129.3703770  17.3460110
 119.7656110 128.5410610  19.1076360 120.5865730 128.0507180  19.1501840
 119.7990190 129.1308270  19.8608200 107.7620160 131.3404810  22.8818050
 108.4430270 131.6043180  23.5005450 107.4468210 130.5005680  23.2156060
 111.9544730 132.3872170  21.9690640 112.4622950 132.8853140  22.6095660
 112.4857970 131.6107370  21.7930000 124.0555660 130.5577360  25.6719990
 123.3507830 130.9459070  25.1535100 124.3213580 131.2527650  26.2740920
 110.2380830 127.0270730  26.2354060 110.2399270 127.5443120  25.4299960
 109.4085140 126.5500910  26.2123990 116.6251920 137.1390040  17.7343960
 116.0069190 137.6039490  17.1706680 117.1375170 137.8317520  18.1513470
 111.4883680 136.6665910  24.4127560 111.1553060 137.2934830  25.0548630
 111.6650360 137.1927790  23.6329230 120.0017590 130.4810990  21.8803900
 119.2973160 130.7695880  22.4607010 120.3629750 131.2911100  21.5203460
 109.9196160 128.7380690  24.2424510 110.2612970 129.5822740  23.9478380
 108.9811970 128.8864430  24.3589850 110.7002780 138.6346710  26.2276740
 111.3176780 139.3097790  25.9461190 109.8395900 139.0434690  26.1364240
 105.9935120 137.8246570  15.1083590 105.6163100 138.3133670  14.3768490
 106.2508190 138.4971850  15.7390120 121.6180370 140.0986120  24.1431380
 120.9343890 140.7685230  24.1348050 122.1574660 140.2966770  23.3776240
 123.0704510 129.9265780  22.2713110 122.1229420 129.9604760  22.4028540
 123.3954500 130.7404730  22.6562470 113.6024050 126.2262960  20.5669100
 113.9099030 125.6709850  19.8504600 112.6724750 126.3607420  20.3842090
 119.1539110 141.9430250  22.8576560 119.1666270 141.5392540  21.9898820
 118.6014330 142.7177540  22.7537990 120.4484530 138.6646470  17.9466730
 120.3380860 137.7220800  18.0716150 120.4452780 139.0262110  18.8329490
 118.5524550 136.8460090  24.1859170 118.9693340 136.6320200  23.3512630
 119.2764370 137.1032880  24.7567790 115.9904810 134.2911790  17.3029220
 115.0634090 134.2249170  17.5317690 116.1429630 135.2291920  17.1884460
 115.9773890 130.5628790  14.2996380 115.0377560 130.7242750  14.3848840
 116.2957150 131.2814470  13.7532370 122.4986650 135.2447310  24.2775410
 121.6705280 135.3140400  23.8025540 123.0937130 135.8301620  23.8091240
 120.0202100 135.8532090  17.8064470 119.4014520 135.5151640  17.1590770
 120.0026550 135.2091850  18.5143660 119.4628660 132.0316630  25.2230280
 119.0499840 132.8570340  25.4770270 118.7304610 131.4461670  25.0306640
 111.5961450 134.8176530  20.0848950 111.1918450 134.1053780  19.5894850
 111.6824570 134.4729770  20.9736990 112.0643150 138.5044090  22.2488160
 111.7671440 137.8989560  21.5695940 113.0142970 138.5421400  22.1377520
 110.3090070 131.5919740  23.8647990 110.8604660 131.7015080  23.0901240
 110.8233580 131.9657340  24.5803220 120.1528760 142.0775960  25.9111260
 119.6759320 142.8848150  25.7183870 119.4690550 141.4254290  26.0637470
 111.1561580 138.2425780  28.8995960 110.2590110 138.4665750  29.1469360
 111.1814450 138.3660720  27.9507360 118.1966800 135.0918900  14.8137220
 118.6360080 134.2541330  14.6675040 118.9095220 135.7248300  14.9001360
 109.9832800 135.1139100  27.4753330 109.8440570 135.9861900  27.8440730
 109.1014160 134.7711910  27.3301270 116.3062180 140.0314970  18.7818460
 116.7458090 140.7739300  18.3673850 116.2449070 140.2741540  19.7057420
 111.7813150 141.0560800  29.6838480 111.7528580 141.4603750  28.8166910
 111.6178120 140.1271160  29.5210080 121.7783940 126.3461710  13.1278260
 121.4656600 126.4388540  14.0277330 122.5396410 126.9242740  13.0775690
 108.2966080 133.7121510  17.5855600 108.1763680 134.4383600  16.9736870
 107.9866970 132.9424420  17.1083510 123.7327970 141.8387900  30.9802650
 124.2087690 142.3170790  31.6591730 124.3535130 141.7705390  30.2548150
 105.9351450 136.8836650  23.3924240 106.0131870 137.0185420  22.4479960
 106.5493130 136.1752540  23.5852360 107.1799080 138.5836840  19.8030420
 106.7727160 138.7251430  18.9484020 108.0712090 138.2997000  19.6001630
 123.1361220 139.0300750  28.1402660 123.2624280 138.7912630  27.2219840
 123.1782600 138.1985290  28.6124740 116.9977960 142.7328750  26.7097470
 117.5122630 142.6436760  27.5119900 116.1547040 143.0788450  27.0025380
 118.9732360 143.0184090  16.1381470 118.8133500 142.7287030  17.0363300
 118.8079070 142.2424220  15.6026700 111.4520740 142.7982620  17.9153090
 111.2763220 141.8818160  17.7020890 110.5976480 143.1569910  18.1550890
 118.6758490 140.5271650  14.6979470 117.9823650 140.5248940  14.0381750
 119.4181350 140.1030970  14.2673640 118.2408420 142.1534360  18.7727960
 118.6965370 141.3723740  19.0866580 118.5800940 142.8641180  19.3169140
 122.9885230 131.0833210  29.1052400 122.3729500 131.5912880  28.5767860
 122.6681650 130.1831540  29.0478340 105.9910970 137.9250820  25.9318700
 106.1542010 137.4556180  25.1138070 106.4563420 137.4174380  26.5967540
 110.7629740 127.0556580  20.9679270 110.3197890 127.8366120  20.6363790
 111.3214730 127.3786470  21.6750210 115.0499550 129.9225100  26.5714590
 114.5878920 130.1308120  27.3834530 114.6477660 129.1084450  26.2685260
 120.0504060 131.1434050  27.7011250 119.1997650 130.8439800  28.0220320
 119.8905850 131.3876060  26.7895070 117.1453770 132.6435800  29.8010040
 117.4707180 131.8099550  29.4612270 117.9334100 133.1664320  29.9488370
 113.8788560 126.6767280  15.8485100 113.2542740 126.6727150  16.5738410
 113.7918680 125.8098240  15.4521070 112.8005640 127.6003910  22.8268870
 113.0977970 128.5066740  22.7460890 113.3491200 127.1122690  22.2128440
 110.5543960 132.1790150  18.6960520 110.3284880 131.9627320  19.6007140
 109.7736490 132.6118610  18.3506490 117.7841720 132.1853520  17.2951170
 117.1850610 132.9089320  17.1114790 118.3321330 132.1230300  16.5127620
 112.9943170 133.0775730  29.3620790 112.8986770 132.1370460  29.2121190
 113.8375150 133.2990800  28.9668860 116.3906590 130.8217060  19.3254450
 116.7836160 131.1389260  18.5123140 116.7523440 129.9428940  19.4398970
 108.1253710 129.4889400  27.5154570 107.7317100 130.3364610  27.7227350
 107.4372110 128.8515770  27.7063210 114.6998760 129.5724370  30.5851310
 114.0097080 129.3796570  31.2197400 115.4431060 129.8559010  31.1175610
 105.4270760 127.4117860  21.5484650 105.1383810 127.9820720  22.2609630
 106.1716520 126.9322310  21.9115880 105.6140990 131.3537980  12.7587370
 105.5315660 132.2968740  12.9002360 105.2624050 131.2112890  11.8799720
 116.9761730 133.4122810  23.4205230 116.2442850 133.9209620  23.7695330
 116.5786070 132.5952790  23.1194010 113.4139120 130.0877010  21.8257720
 113.4175180 129.6466960  20.9762260 114.3090240 130.4094340  21.9329540
 109.2641500 129.9703500  20.7851930 108.9241550 130.4478730  21.5418980
 108.5018820 129.5168620  20.4253030 113.4759270 131.0889090  14.8164480
 113.5972090 131.0475570  15.7650300 113.0907780 131.9513240  14.6611210
 117.4387640 128.8656490  22.8328170 117.4560380 129.3165140  23.6770020
 117.1903220 127.9662130  23.0461610 112.4880770 133.3990230  14.2147780
 111.9197670 132.9508480  13.5883690 113.1969770 133.7583010  13.6812930
 120.8658390 126.2788670  28.6714550 121.1904160 125.5478330  29.1972530
 120.9014900 125.9602310  27.7695540 107.5649950 137.3002250  28.0914510
 107.1804740 136.6595920  28.6897470 107.8762140 138.0038370  28.6609240
 113.7147090 134.1478790  23.5723130 114.0817220 133.6737360  24.3184470
 113.5252150 135.0220360  23.9131470 106.5787580 128.8922480  19.7016600
 106.2934500 128.5278150  20.5395220 106.5166440 128.1602940  19.0879740
 111.5046460 133.1887430  25.8907340 111.2003530 134.0679410  26.1157700
 112.4592920 133.2487220  25.9264780 110.0328250 137.3948420  16.4874190
 109.2590510 136.8546040  16.3272910 110.7622880 136.8755030  16.1491950
 120.7916230 136.3913780  22.2800580 121.5115350 136.8869070  21.8896690
 120.5898050 135.7131670  21.6354450 116.2526170 127.7851740  16.4229970
 115.4390780 127.2864910  16.3475280 116.0588120 128.6249990  16.0066320
 116.1735030 136.4622840  28.1669580 116.1072340 135.5418510  27.9127170
 115.5440170 136.5598280  28.8814220 118.9674560 132.1571390  14.7192130
 119.8554180 132.4688620  14.5443470 118.9379650 131.2843640  14.3272710
 110.0765650 137.0628800  20.1253000 110.5944320 136.2597060  20.0709890
 109.6249670 137.0007940  20.9669830 114.9635150 138.3295080  15.3980300
 115.3050850 139.0737310  14.9023620 114.1347860 138.6426200  15.7605130
 107.5610190 134.0290170  27.0378700 107.2025130 134.6944020  27.6252040
 107.2664750 133.1973720  27.4091320 110.7623310 134.4874410  29.9218250
 110.4623450 134.6331590  29.0246070 111.5334550 133.9279700  29.8291640
 116.1051760 139.2843410  27.9173380 116.1196300 138.3524370  27.6992290
 115.3976860 139.3703170  28.5563150 121.2388830 133.4683230  14.1871990
 121.1552550 133.8997450  13.3368430 121.9583020 133.9281580  14.6198810
 122.3162970 135.9250750  27.2641960 121.5911160 136.5179530  27.0671350
 122.8438430 135.9174290  26.4655330 122.2676080 140.3225490  16.9154120
 121.6252240 139.6681110  17.1897840 121.8806740 140.7280580  16.1394790
 117.8462560 137.6510920  20.7625810 118.1986380 137.0539050  20.1027180
 116.9624890 137.3255150  20.9334060 113.9325840 138.4108610  18.1696220
 114.6196970 138.9577820  18.5503810 113.1458260 138.9549340  18.2045830
 106.0718240 134.0281430  13.6613300 106.9413090 134.3106230  13.9449220
 105.5808560 134.8417300  13.5462110 113.2353050 135.4154640  17.7821580
 113.6915830 136.2259890  18.0081770 112.8841260 135.0977780  18.6140070
 115.5385660 140.9260980  25.0113880 116.1827880 141.1320360  25.6887300
 115.9015100 140.1649380  24.5584730 109.1364830 125.7592290  18.2544100
 109.0079460 125.7510190  19.2029020 108.3126850 126.0975380  17.9035110
 116.8117740 138.9293330  23.7291330 117.4539970 138.2286490  23.8423500
 117.3367090 139.7091770  23.5488220 120.6573460 139.2141950  13.4530470
 120.4311040 138.4972390  14.0455110 120.2669660 138.9654390  12.6152220
 118.5855360 139.7288230  26.9327390 118.9211600 140.3154920  27.6105310
 117.6655700 139.5980940  27.1625180 106.4389490 143.2408810  14.2274930
 106.7987130 143.8398150  13.5732200 106.2981830 143.7868700  15.0009960
 106.1358760 127.5183410  27.7150800 105.4217280 127.7180330  28.3203410
 106.5553800 126.7422980  28.0865600 120.2389710 137.1313890  15.1144630
 119.9511410 137.5926580  15.9022510 121.0341880 136.6711660  15.3828850
 106.4231350 141.5063670  28.7017330 106.5322470 140.5658410  28.5612720
 105.7711910 141.7718420  28.0531060 114.4143940 139.7779560  30.1015450
 114.0940810 139.0588800  30.6461140 113.7402300 140.4534630  30.1751510
 112.4558110 140.6240010  15.0448600 112.4468210 141.3569700  14.4293110
 111.5356470 140.3771590  15.1375560 108.0564750 135.8454900  15.7895360
 107.4492700 136.5853800  15.7990660 108.5314100 135.9354260  14.9633560
 117.6297540 130.0105720  25.4652250 117.9978360 129.1900930  25.7931820
 116.7695740 130.0707610  25.8807900 120.9959570 128.9662660  16.2739810
 120.3672730 129.0708330  15.5598040 120.5011490 129.1859440  17.0633690
 115.4417710 140.6868250  13.7073790 115.5429690 140.4832240  12.7775770
 114.5419450 140.4326530  13.9121570 112.9643600 131.2448610  17.6897690
 112.2559750 131.7134950  18.1311300 113.2488080 130.5870620  18.3242880
 114.5899530 132.6645310  25.6890220 115.0884780 133.1391130  26.3542070
 114.7322480 131.7408830  25.8960250 116.9959030 127.9699270  19.1293480
 116.8726810 127.9885400  18.1802990 117.9443590 128.0178210  19.2491880
 114.0835820 143.2054570  18.4021460 114.3377320 143.1675960  17.4800830
 113.1348300 143.0787900  18.3949710 111.1678620 129.5533690  15.0648400
 112.0169150 129.9903840  14.9988590 110.8009890 129.8653950  15.8920460
 121.7966390 128.8813270  26.5318610 121.2939990 129.6218670  26.8712420
 122.6123050 129.2697270  26.2155400 120.0888400 134.1246450  19.9779970
 119.1478540 134.1396680  20.1527660 120.4032470 133.3382410  20.4240270
 110.0670040 135.8066050  13.5383930 110.8333310 135.6947410  14.1009360
 110.1444730 135.1104020  12.8860700 108.7616800 133.2391120  14.2216820
 108.8420390 132.2918630  14.3334220 109.6536550 133.5698000  14.3277480
 122.0913980 141.2955300  21.6534230 122.2161400 142.1186470  22.1258040
 122.9579540 141.0846030  21.3058380 109.5631510 143.3886510  21.3251360
 110.2993990 142.8401970  21.5959930 109.9472430 144.2542520  21.1857350
 106.4476990 139.4560080  17.1992870 105.5216770 139.6981220  17.1898280
 106.9133420 140.2834340  17.0777620 108.5689790 142.5732580  30.5136940
 109.3702520 142.8944630  30.9272340 108.0541610 142.2128160  31.2356850
 112.6733820 142.5616820  13.1476930 113.4662430 142.8505650  12.6958720
 112.1538170 142.1308990  12.4689410 117.4054420 138.6812450  30.4612350
 116.7992580 138.7044050  29.7208100 117.1008530 137.9495490  30.9979600
 118.8354790 142.4092740  29.0721760 119.7876540 142.3250760  29.0222000
 118.6883010 143.0734450  29.7455550 121.7263990 141.7886950  14.5713670
 121.4405500 141.3752090  13.7567850 121.5283540 142.7174660  14.4514190
 106.2887600 135.0606040  29.4572990 106.7926620 134.4813320  30.0289220
 105.5495020 135.3446270  29.9949360 113.1911220 137.7820230  13.0119280
 113.0861860 137.1672580  13.7380660 113.0235440 137.2586120  12.2282290
 113.3425540 136.4677030  28.9908510 112.5771210 137.0362030  28.9063180
 113.5241500 136.1753240  28.0976740 116.4313950 136.8440260  13.6161270
 115.8824050 137.2909560  14.2604010 117.0533210 136.3389510  14.1398940
 120.4848890 138.1982360  29.5483530 121.2258360 138.5358120  29.0450990
 119.7221570 138.3674420  28.9953300 108.3210680 133.2035630  30.3523060
 108.3616020 132.9049500  31.2608290 109.1756180 133.6043240  30.1930580
 112.0989070 135.8031180  15.5126570 112.5205490 135.6371050  16.3557960
 112.2239910 134.9931410  15.0181710 110.2616490 131.7827730  28.3197550
 109.7312950 131.2918680  27.6920890 110.9304560 132.2111930  27.7855480
 114.6116710 134.8268790  12.7603670 115.1322370 134.1117810  12.3944820
 115.2585110 135.4654660  13.0604180 119.1594550 136.2497190  28.0838740
 119.5735570 136.4042270  28.9329160 118.2245550 136.3752410  28.2464520
 119.6316720 133.5893350  30.0877890 120.2137490 132.8345670  29.9998370
 119.8078490 134.1200790  29.3109370 110.7488790 128.7490100  28.3994840
 110.6545660 128.1310850  27.6745710 110.1686180 129.4756390  28.1724750
 113.5150230 127.3063340  25.4322230 113.0667530 127.3287600  24.5867780
 112.8815430 126.9082360  26.0292530 113.9209780 136.2017670  26.0534670
 114.3397890 137.0450400  25.8810910 113.0018410 136.3389710  25.8241450
 116.2573680 133.9333850  27.4372510 116.3769890 133.3374990  28.1767350
 117.1167680 133.9703540  27.0173810 118.5961580 134.4871040  26.0135020
 118.0696800 135.0113660  25.4100160 118.9392920 135.1198430  26.6444750
 110.9947970 131.8764410  12.4584730 110.7937030 131.0131770  12.8198070
 110.8240020 131.7897770  11.5206330 111.7717200 142.5070680  27.1692400
 111.2338290 143.2316740  26.8501100 112.0251160 142.0301020  26.3789740
 113.0242450 130.4755200  28.6948330 113.6142140 130.1671050  29.3826150
 112.2062690 130.0034950  28.8508230 117.8435880 130.0921010  28.9281350
 117.1551400 129.4302550  28.8631340 118.5641900 129.6459280  29.3729810
 118.4736280 126.6872640  14.9871610 118.7538570 125.8440540  15.3431030
 117.7002010 126.9195750  15.5010360 109.7930770 128.9765030  12.4462610
 110.0956670 128.9832460  11.5381760 110.5325360 128.6262890  12.9430270
 114.6279410 143.7421890  27.4279050 114.5538110 144.6457030  27.7351420
 113.7258250 143.4233790  27.4001120 113.0115700 127.9199650  13.4318810
 112.6637700 127.2423640  12.8521260 113.2128470 127.4589160  14.2462200
 115.1764740 142.9080400  15.0505410 116.0715530 143.2465370  15.0724170
 115.2082370 142.1859810  14.4229690 108.8160900 138.2807450  13.2792410
 109.2535770 138.8237120  13.9349990 109.3008630 137.4554400  13.2888750
 106.0306700 141.0696480  20.7312670 106.3609710 140.2017540  20.4991310
 106.4597700 141.2755000  21.5617630 110.6268620 139.4005490  18.3914640
 110.3264160 139.2770460  19.2918550 110.5206110 138.5414080  17.9830370
 106.5196910 141.9367070  23.4694300 106.0827900 142.1167870  24.3018450
 107.0874590 142.6941690  23.3276020 122.1559090 141.4384070  27.7571610
 121.5561080 141.4976630  27.0135530 122.2852990 140.4989050  27.8868460
 123.3960540 139.1801890  13.0941320 122.5653500 139.2478540  13.5648550
 123.5732370 140.0706010  12.7908180 122.8517000 135.9249370  15.5975520
 123.6135910 136.4946020  15.7035210 122.8671370 135.3576570  16.3683830
 106.3521340 134.4487300  19.8283180 105.6970180 134.1798940  19.1842880
 107.1899290 134.3391780  19.3785160 123.8576970 136.7799470  20.4417450
 124.2285800 135.9966790  20.0353420 124.4978900 137.4688570  20.2634750
 120.8410730 138.1636050  25.8547770 120.0270570 138.5933210  26.1173560
 121.2484930 138.7754460  25.2416820 122.9036170 136.2183740  12.7548040
 123.1785010 137.1262620  12.6267260 122.7146910 136.1546270  13.6910030
 119.3011780 129.2428590  14.0501670 119.7196660 129.0559570  13.2098330
 118.9947840 128.3907640  14.3604600 122.8001510 134.1552730  17.7477470
 122.4245110 133.3880660  17.3158760 122.0704630 134.5375430  18.2352400
 107.3897270 134.8339870  24.3686520 107.7570310 134.7467270  25.2482540
 106.8208090 134.0706420  24.2693380 122.1901130 133.3024250  27.3816990
 121.9587220 133.0737000  26.4814940 122.4505680 134.2223800  27.3361880
 106.9413270 131.7448960  28.2744940 106.0469320 131.7115720  28.6138650
 107.4810820 131.9435750  29.0396190 120.6289200 128.5280680  30.1596690
 121.5059380 128.5364080  30.5430690 120.6410040 127.7911520  29.5489040
 105.5659420 131.6586230  15.7708510 104.6623500 131.9216430  15.5960170
 106.0500040 131.9297400  14.9908470 122.0752470 132.3810220  21.0484710
 122.5989950 131.8872870  20.4174880 122.6611890 132.5160580  21.7932280
 122.2542190 132.4650090  24.5704260 121.3044900 132.4313630  24.6849250
 122.4355200 133.3750200  24.3354030 108.1086630 130.7151770  13.6802890
 108.8178330 130.2934990  13.1950170 107.3926570 130.7827000  13.0486240
 107.7560790 126.7691100  12.7205540 108.4788920 127.3100040  13.0386760
 108.0285310 126.4954520  11.8447080 121.5652440 131.6383570  16.9877120
 122.0611560 131.4054440  17.7726000 121.3668510 130.7995410  16.5714760
 107.4452980 126.0197290  22.6228160 108.0929170 125.4694670  22.1823320
 107.8654820 126.2740440  23.4443970 122.9939600 130.2744520  19.5214800
 122.8838880 130.1200560  20.4597070 123.7547190 129.7465460  19.2790210
 121.3405320 126.2138650  25.9797800 121.9777540 126.8272790  26.3456990
 121.4880210 126.2499310  25.0347030 123.8829870 128.1052440  12.7620940
 124.8079180 127.9733620  12.5539230 123.8605660 128.1845260  13.7157390
 123.9568360 128.8763100  15.3877650 123.1619860 128.8108220  15.9170560
 124.1611640 129.8113740  15.3763000 120.8986780 142.9154650  19.3816040
 121.4945850 142.5939220  18.7050460 121.1564930 142.4426470  20.1729310
 107.1984980 126.1752960  25.3653480 106.8499800 126.6316780  26.1311660
 106.8672680 125.2810090  25.4475910 108.8049350 139.3472560  29.5306670
 108.7618980 138.9765470  30.4121130 108.9360360 140.2850130  29.6708490
 112.5055380 140.9032150  25.1316390 112.2646740 141.1706710  24.2446910
 113.4458020 141.0737880  25.1867250 114.7109800 127.3664840  28.8872900
 114.6498690 127.9586670  29.6368310 115.6510180 127.2590800  28.7423160
 117.3484360 127.0234900  28.5265190 117.9624770 127.3414190  27.8646270
 117.8933920 126.5383490  29.1461050 123.7659540 142.9226530  25.9327030
 123.2717820 143.3195400  25.2154160 123.1572830 142.2975740  26.3264310
 107.8705620 125.7029160  28.6404250 108.4188610 125.5217210  27.8770360
 107.9360930 124.9123270  29.1760560 108.6437380 142.2934810  26.6504450
 108.0497700 142.1619510  27.3894490 108.6361220 141.4572950  26.1846550
 118.0892400 125.5867040  24.8534480 117.2152240 125.9202150  24.6507410
 117.9803150 125.1140220  25.6786350 118.9964380 127.7937910  26.2376200
 118.6677740 126.9789670  25.8577930 119.9446680 127.7507720  26.1141890
 121.4498990 143.5649950  23.2113770 120.9901960 144.3165760  22.8371790
 120.8211450 142.8456420  23.1528570 108.2749610 139.6593190  25.6012490
 107.5483670 139.0398480  25.5338440 108.3358760 140.0533800  24.7310570
 111.8794710 141.8738190  22.3861900 112.3959730 141.2625550  21.8610160
 112.5292090 142.3766970  22.8772910 114.6190210 142.7646680  23.2130880
 114.9068020 142.5100980  22.3363890 115.1313430 142.2124040  23.8036450
 115.8367220 126.5036880  23.7927390 115.0539010 126.9782380  24.0724150
 115.5430150 125.5991710  23.6840570 120.3888290 127.2059980  21.8376480
 120.8296380 127.1505080  20.9898080 120.1195880 128.1217990  21.9086660
 122.2526860 126.8375220  19.8485300 122.1915260 125.8936440  19.7016320
 123.0318890 126.9455310  20.3938760 106.5579610 142.9767580  18.8109250
 106.3901650 142.3438260  19.5091140 105.6914120 143.1826980  18.4603440
 107.1807630 126.8084360  16.3141110 107.9386990 126.9213240  15.7405140
 106.7184800 127.6453560  16.2684540 113.7221440 128.9223630  19.3043420
 112.9095950 128.5480520  18.9639300 114.2263080 128.1668710  19.6064610
 118.2246420 125.5866080  20.5426490 118.8275790 126.1586290  21.0175010
 117.4839410 126.1505520  20.3200390 121.3681020 125.9887640  15.8166770
 121.5631650 126.8871090  16.0834200 120.5810890 125.7574720  16.3099720
 108.1642310 141.6700810  16.2559390 107.6389930 142.0508840  15.5521350
 108.0886890 142.2951580  16.9769100 109.5532780 127.3348410  14.8543080
 110.0825540 126.5478210  14.7251030 110.1861100 128.0139600  15.0878610
 111.7470620 127.0723550  17.9088470 111.1173360 126.3710860  18.0758600
 111.2075760 127.8327680  17.6921630 114.6862570 143.6862780  30.5799080
 115.6129880 143.4507050  30.6235040 114.6713000 144.5134780  30.0985110
 122.9207630 143.2288350  17.5773330 123.0959820 142.5426090  16.9334250
 122.2229200 143.7535400  17.1850000 111.8726180 126.3507530  30.3440960
 111.5910450 126.8541130  29.5801780 112.2545880 125.5529280  29.9783090
 110.7635280 143.6183190  15.1308640 111.4954100 143.3342470  14.5832530
 111.0228950 143.3796470  16.0208020 109.9250070 139.7347920  15.1354970
 109.2958950 140.2033020  15.6840800 110.0397900 138.8897140  15.5701160
 118.4741640 125.7661110  30.9221430 118.3607090 126.0855720  31.8172950
 119.2911380 126.1673620  30.6258710 121.2540130 142.9132640  30.4040120
 122.0465450 142.4181870  30.1966080 121.5473280 143.5922780  31.0115730
 115.5117830 135.5632600   3.1665440 114.7359930 135.0833040   3.4564010
 116.1630760 134.8838250   2.9921600 109.5283660 135.8752410   4.0441200
 108.6968540 135.6201120   4.4437710 110.1364640 135.9463180   4.7799120
 119.5325260 139.9692790   1.9464570 119.0706790 139.1980030   2.2751740
 120.3450810 139.9958860   2.4517020 109.5084920 139.9092500   4.2399220
 109.8112960 139.0190240   4.0609440 110.2528510 140.4662720   4.0121470
 105.9008620 133.4359950   3.7123290 106.4724730 132.6682150   3.7126930
 105.9010160 133.7348710   2.8029900 114.9526820 138.2389790   3.1735600
 114.8835100 137.2979730   3.0124730 115.7146680 138.3291200   3.7458170
 107.1433490 128.8444310   5.4992220 106.9636330 127.9470060   5.7794980
 106.7413570 129.3916180   6.1739170 115.9831990 131.0460170   3.4004530
 116.3596810 130.1732050   3.2878200 115.8851500 131.3818870   2.5094970
 107.7620160 131.3404810   4.1074560 108.4430270 131.6043180   4.7261960
 107.4468210 130.5005680   4.4412570 111.9544730 132.3872170   3.1947150
 112.4622950 132.8853140   3.8352170 112.4857970 131.6107370   3.0186510
 124.0555660 130.5577360   6.8976500 123.3507830 130.9459070   6.3791610
 124.3213580 131.2527650   7.4997430 110.2380830 127.0270730   7.4610570
 110.2399270 127.5443120   6.6556470 109.4085140 126.5500910   7.4380500
 111.4883680 136.6665910   5.6384070 111.1553060 137.2934830   6.2805140
 111.6650360 137.1927790   4.8585740 120.0017590 130.4810990   3.1060410
 119.2973160 130.7695880   3.6863520 120.3629750 131.2911100   2.7459970
 109.9196160 128.7380690   5.4681020 110.2612970 129.5822740   5.1734890
 108.9811970 128.8864430   5.5846360 110.7002780 138.6346710   7.4533250
 111.3176780 139.3097790   7.1717700 109.8395900 139.0434690   7.3620750
 121.6180370 140.0986120   5.3687890 120.9343890 140.7685230   5.3604560
 122.1574660 140.2966770   4.6032750 123.0704510 129.9265780   3.4969620
 122.1229420 129.9604760   3.6285050 123.3954500 130.7404730   3.8818980
 119.1539110 141.9430250   4.0833070 119.1666270 141.5392540   3.2155330
 118.6014330 142.7177540   3.9794500 118.5524550 136.8460090   5.4115680
 118.9693340 136.6320200   4.5769140 119.2764370 137.1032880   5.9824300
 122.4986650 135.2447310   5.5031920 121.6705280 135.3140400   5.0282050
 123.0937130 135.8301620   5.0347750 119.4628660 132.0316630   6.4486790
 119.0499840 132.8570340   6.7026780 118.7304610 131.4461670   6.2563150
 112.0643150 138.5044090   3.4744670 111.7671440 137.8989560   2.7952450
 113.0142970 138.5421400   3.3634030 110.3090070 131.5919740   5.0904500
 110.8604660 131.7015080   4.3157750 110.8233580 131.9657340   5.8059730
 120.1528760 142.0775960   7.1367770 119.6759320 142.8848150   6.9440380
 119.4690550 141.4254290   7.2893980 111.1561580 138.2425780  10.1252470
 110.2590110 138.4665750  10.3725870 111.1814450 138.3660720   9.1763870
 109.9832800 135.1139100   8.7009840 109.8440570 135.9861900   9.0697240
 109.1014160 134.7711910   8.5557780 111.7813150 141.0560800  10.9094990
 111.7528580 141.4603750  10.0423420 111.6178120 140.1271160  10.7466590
 123.7327970 141.8387900  12.2059160 124.2087690 142.3170790  12.8848240
 124.3535130 141.7705390  11.4804660 105.9351450 136.8836650   4.6180750
 106.0131870 137.0185420   3.6736470 106.5493130 136.1752540   4.8108870
 123.1361220 139.0300750   9.3659170 123.2624280 138.7912630   8.4476350
 123.1782600 138.1985290   9.8381250 116.9977960 142.7328750   7.9353980
 117.5122630 142.6436760   8.7376410 116.1547040 143.0788450   8.2281890
 122.9885230 131.0833210  10.3308910 122.3729500 131.5912880   9.8024370
 122.6681650 130.1831540  10.2734850 105.9910970 137.9250820   7.1575210
 106.1542010 137.4556180   6.3394580 106.4563420 137.4174380   7.8224050
 110.7629740 127.0556580   2.1935780 110.3197890 127.8366120   1.8620300
 111.3214730 127.3786470   2.9006720 115.0499550 129.9225100   7.7971100
 114.5878920 130.1308120   8.6091040 114.6477660 129.1084450   7.4941770
 120.0504060 131.1434050   8.9267760 119.1997650 130.8439800   9.2476830
 119.8905850 131.3876060   8.0151580 117.1453770 132.6435800  11.0266550
 117.4707180 131.8099550  10.6868780 117.9334100 133.1664320  11.1744880
 112.8005640 127.6003910   4.0525380 113.0977970 128.5066740   3.9717400
 113.3491200 127.1122690   3.4384950 112.9943170 133.0775730  10.5877300
 112.8986770 132.1370460  10.4377700 113.8375150 133.2990800  10.1925370
 108.1253710 129.4889400   8.7411080 107.7317100 130.3364610   8.9483860
 107.4372110 128.8515770   8.9319720 114.6998760 129.5724370  11.8107820
 114.0097080 129.3796570  12.4453910 115.4431060 129.8559010  12.3432120
 105.4270760 127.4117860   2.7741160 105.1383810 127.9820720   3.4866140
 106.1716520 126.9322310   3.1372390 116.9761730 133.4122810   4.6461740
 116.2442850 133.9209620   4.9951840 116.5786070 132.5952790   4.3450520
 113.4139120 130.0877010   3.0514230 113.4175180 129.6466960   2.2018770
 114.3090240 130.4094340   3.1586050 109.2641500 129.9703500   2.0108440
 108.9241550 130.4478730   2.7675490 108.5018820 129.5168620   1.6509540
 117.4387640 128.8656490   4.0584680 117.4560380 129.3165140   4.9026530
 117.1903220 127.9662130   4.2718120 120.8658390 126.2788670   9.8971060
 121.1904160 125.5478330  10.4229040 120.9014900 125.9602310   8.9952050
 107.5649950 137.3002250   9.3171020 107.1804740 136.6595920   9.9153980
 107.8762140 138.0038370   9.8865750 113.7147090 134.1478790   4.7979640
 114.0817220 133.6737360   5.5440980 113.5252150 135.0220360   5.1387980
 111.5046460 133.1887430   7.1163850 111.2003530 134.0679410   7.3414210
 112.4592920 133.2487220   7.1521290 120.7916230 136.3913780   3.5057090
 121.5115350 136.8869070   3.1153200 120.5898050 135.7131670   2.8610960
 116.1735030 136.4622840   9.3926090 116.1072340 135.5418510   9.1383680
 115.5440170 136.5598280  10.1070730 107.5610190 134.0290170   8.2635210
 107.2025130 134.6944020   8.8508550 107.2664750 133.1973720   8.6347830
 110.7623310 134.4874410  11.1474760 110.4623450 134.6331590  10.2502580
 111.5334550 133.9279700  11.0548150 116.1051760 139.2843410   9.1429890
 116.1196300 138.3524370   8.9248800 115.3976860 139.3703170   9.7819660
 122.3162970 135.9250750   8.4898470 121.5911160 136.5179530   8.2927860
 122.8438430 135.9174290   7.6911840 115.5385660 140.9260980   6.2370390
 116.1827880 141.1320360   6.9143810 115.9015100 140.1649380   5.7841240
 116.8117740 138.9293330   4.9547840 117.4539970 138.2286490   5.0680010
 117.3367090 139.7091770   4.7744730 118.5855360 139.7288230   8.1583900
 118.9211600 140.3154920   8.8361820 117.6655700 139.5980940   8.3881690
 106.1358760 127.5183410   8.9407310 105.4217280 127.7180330   9.5459920
 106.5553800 126.7422980   9.3122110 106.4231350 141.5063670   9.9273840
 106.5322470 140.5658410   9.7869230 105.7711910 141.7718420   9.2787570
 114.4143940 139.7779560  11.3271960 114.0940810 139.0588800  11.8717650
 113.7402300 140.4534630  11.4008020 117.6297540 130.0105720   6.6908760
 117.9978360 129.1900930   7.0188330 116.7695740 130.0707610   7.1064410
 114.5899530 132.6645310   6.9146730 115.0884780 133.1391130   7.5798580
 114.7322480 131.7408830   7.1216760 121.7966390 128.8813270   7.7575120
 121.2939990 129.6218670   8.0968930 122.6123050 129.2697270   7.4411910
 122.0913980 141.2955300   2.8790740 122.2161400 142.1186470   3.3514550
 122.9579540 141.0846030   2.5314890 109.5631510 143.3886510   2.5507870
 110.2993990 142.8401970   2.8216440 109.9472430 144.2542520   2.4113860
 108.5689790 142.5732580  11.7393450 109.3702520 142.8944630  12.1528850
 108.0541610 142.2128160  12.4613360 117.4054420 138.6812450  11.6868860
 116.7992580 138.7044050  10.9464610 117.1008530 137.9495490  12.2236110
 118.8354790 142.4092740  10.2978270 119.7876540 142.3250760  10.2478510
 118.6883010 143.0734450  10.9712060 106.2887600 135.0606040  10.6829500
 106.7926620 134.4813320  11.2545730 105.5495020 135.3446270  11.2205870
 113.3425540 136.4677030  10.2165020 112.5771210 137.0362030  10.1319690
 113.5241500 136.1753240   9.3233250 120.4848890 138.1982360  10.7740040
 121.2258360 138.5358120  10.2707500 119.7221570 138.3674420  10.2209810
 108.3210680 133.2035630  11.5779570 108.3616020 132.9049500  12.4864800
 109.1756180 133.6043240  11.4187090 110.2616490 131.7827730   9.5454060
 109.7312950 131.2918680   8.9177400 110.9304560 132.2111930   9.0111990
 119.1594550 136.2497190   9.3095250 119.5735570 136.4042270  10.1585670
 118.2245550 136.3752410   9.4721030 119.6316720 133.5893350  11.3134400
 120.2137490 132.8345670  11.2254880 119.8078490 134.1200790  10.5365880
 110.7488790 128.7490100   9.6251350 110.6545660 128.1310850   8.9002220
 110.1686180 129.4756390   9.3981260 113.5150230 127.3063340   6.6578740
 113.0667530 127.3287600   5.8124290 112.8815430 126.9082360   7.2549040
 113.9209780 136.2017670   7.2791180 114.3397890 137.0450400   7.1067420
 113.0018410 136.3389710   7.0497960 116.2573680 133.9333850   8.6629020
 116.3769890 133.3374990   9.4023860 117.1167680 133.9703540   8.2430320
 118.5961580 134.4871040   7.2391530 118.0696800 135.0113660   6.6356670
 118.9392920 135.1198430   7.8701260 111.7717200 142.5070680   8.3948910
 111.2338290 143.2316740   8.0757610 112.0251160 142.0301020   7.6046250
 113.0242450 130.4755200   9.9204840 113.6142140 130.1671050  10.6082660
 112.2062690 130.0034950  10.0764740 117.8435880 130.0921010  10.1537860
 117.1551400 129.4302550  10.0887850 118.5641900 129.6459280  10.5986320
 114.6279410 143.7421890   8.6535560 114.5538110 144.6457030   8.9607930
 113.7258250 143.4233790   8.6257630 106.0306700 141.0696480   1.9569180
 106.3609710 140.2017540   1.7247820 106.4597700 141.2755000   2.7874140
 106.5196910 141.9367070   4.6950810 106.0827900 142.1167870   5.5274960
 107.0874590 142.6941690   4.5532530 122.1559090 141.4384070   8.9828120
 121.5561080 141.4976630   8.2392040 122.2852990 140.4989050   9.1124970
 120.8410730 138.1636050   7.0804280 120.0270570 138.5933210   7.3430070
 121.2484930 138.7754460   6.4673330 107.3897270 134.8339870   5.5943030
 107.7570310 134.7467270   6.4739050 106.8208090 134.0706420   5.4949890
 122.1901130 133.3024250   8.6073500 121.9587220 133.0737000   7.7071450
 122.4505680 134.2223800   8.5618390 106.9413270 131.7448960   9.5001450
 106.0469320 131.7115720   9.8395160 107.4810820 131.9435750  10.2652700
 120.6289200 128.5280680  11.3853200 121.5059380 128.5364080  11.7687200
 120.6410040 127.7911520  10.7745550 122.0752470 132.3810220   2.2741220
 122.5989950 131.8872870   1.6431390 122.6611890 132.5160580   3.0188790
 122.2542190 132.4650090   5.7960770 121.3044900 132.4313630   5.9105760
 122.4355200 133.3750200   5.5610540 107.4452980 126.0197290   3.8484670
 108.0929170 125.4694670   3.4079830 107.8654820 126.2740440   4.6700480
 121.3405320 126.2138650   7.2054310 121.9777540 126.8272790   7.5713500
 121.4880210 126.2499310   6.2603540 107.1984980 126.1752960   6.5909990
 106.8499800 126.6316780   7.3568170 106.8672680 125.2810090   6.6732420
 108.8049350 139.3472560  10.7563180 108.7618980 138.9765470  11.6377640
 108.9360360 140.2850130  10.8965000 112.5055380 140.9032150   6.3572900
 112.2646740 141.1706710   5.4703420 113.4458020 141.0737880   6.4123760
 114.7109800 127.3664840  10.1129410 114.6498690 127.9586670  10.8624820
 115.6510180 127.2590800   9.9679670 117.3484360 127.0234900   9.7521700
 117.9624770 127.3414190   9.0902780 117.8933920 126.5383490  10.3717560
 123.7659540 142.9226530   7.1583540 123.2717820 143.3195400   6.4410670
 123.1572830 142.2975740   7.5520820 107.8705620 125.7029160   9.8660760
 108.4188610 125.5217210   9.1026870 107.9360930 124.9123270  10.4017070
 108.6437380 142.2934810   7.8760960 108.0497700 142.1619510   8.6151000
 108.6361220 141.4572950   7.4103060 118.0892400 125.5867040   6.0790990
 117.2152240 125.9202150   5.8763920 117.9803150 125.1140220   6.9042860
 118.9964380 127.7937910   7.4632710 118.6677740 126.9789670   7.0834440
 119.9446680 127.7507720   7.3398400 121.4498990 143.5649950   4.4370280
 120.9901960 144.3165760   4.0628300 120.8211450 142.8456420   4.3785080
 108.2749610 139.6593190   6.8269000 107.5483670 139.0398480   6.7594950
 108.3358760 140.0533800   5.9567080 111.8794710 141.8738190   3.6118410
 112.3959730 141.2625550   3.0866670 112.5292090 142.3766970   4.1029420
 114.6190210 142.7646680   4.4387390 114.9068020 142.5100980   3.5620400
 115.1313430 142.2124040   5.0292960 115.8367220 126.5036880   5.0183900
 115.0539010 126.9782380   5.2980660 115.5430150 125.5991710   4.9097080
 120.3888290 127.2059980   3.0632990 120.8296380 127.1505080   2.2154590
 120.1195880 128.1217990   3.1343170 118.2246420 125.5866080   1.7683000
 118.8275790 126.1586290   2.2431520 117.4839410 126.1505520   1.5456900
 114.6862570 143.6862780  11.8055590 115.6129880 143.4507050  11.8491550
 114.6713000 144.5134780  11.3241620 111.8726180 126.3507530  11.5697470
 111.5910450 126.8541130  10.8058290 112.2545880 125.5529280  11.2039600
 118.4741640 125.7661110  12.1477940 118.3607090 126.0855720  13.0429460
 119.2911380 126.1673620  11.8515220 121.2540130 142.9132640  11.6296630
 122.0465450 142.4181870  11.4222590 121.5473280 143.5922780  12.2372240
 117.3799790 115.0110090 151.4804090 117.2993840 114.0964700 151.2095800
 116.9664210 115.5077160 150.7743800 115.5117830 116.7889110 153.3613360
 114.7359930 116.3089550 153.6511930 116.1630760 116.1094760 153.1869520
 119.5325260 121.1949300 152.1412490 119.0706790 120.4236540 152.4699660
 120.3450810 121.2215370 152.6464940 109.5084920 121.1349010 154.4347140
 109.8112960 120.2446750 154.2557360 110.2528510 121.6919230 154.2069390
 107.9375610 112.0610810 148.0231510 107.0492310 112.4026780 147.9211390
 108.2216800 111.8611130 147.1312340 105.9008620 114.6616460 153.9071210
 106.4724730 113.8938660 153.9074850 105.9010160 114.9605220 152.9977820
 115.7588570 123.4807310 151.7616480 115.1400010 123.9364810 151.1910920
 116.6140350 123.6358770 151.3606180 114.9526820 119.4646300 153.3683520
 114.8835100 118.5236240 153.2072650 115.7146680 119.5547710 153.9406090
 115.9831990 112.2716680 153.5952450 116.3596810 111.3988560 153.4826120
 115.8851500 112.6075380 152.7042890 110.1137000 110.6442310 149.0569890
 110.2203750 111.5446040 149.3638650 109.2029360 110.5960280 148.7664540
 119.7656110 109.7667120 150.5280790 120.5865730 109.2763690 150.5706270
 119.7990190 110.3564780 151.2812630 111.9544730 113.6128680 153.3895070
 112.4622950 114.1109650 154.0300090 112.4857970 112.8363880 153.2134430
 116.6251920 118.3646550 149.1548390 116.0069190 118.8296000 148.5911110
 117.1375170 119.0574030 149.5717900 120.0017590 111.7067500 153.3008330
 119.2973160 111.9952390 153.8811440 120.3629750 112.5167610 152.9407890
 105.9935120 119.0503080 146.5288020 105.6163100 119.5390180 145.7972920
 106.2508190 119.7228360 147.1594550 123.0704510 111.1522290 153.6917540
 122.1229420 111.1861270 153.8232970 123.3954500 111.9661240 154.0766900
 113.6024050 107.4519470 151.9873530 113.9099030 106.8966360 151.2709030
 112.6724750 107.5863930 151.8046520 119.1539110 123.1686760 154.2780990
 119.1666270 122.7649050 153.4103250 118.6014330 123.9434050 154.1742420
 120.4484530 119.8902980 149.3671160 120.3380860 118.9477310 149.4920580
 120.4452780 120.2518620 150.2533920 115.9904810 115.5168300 148.7233650
 115.0634090 115.4505680 148.9522120 116.1429630 116.4548430 148.6088890
 115.9773890 111.7885300 145.7200810 115.0377560 111.9499260 145.8053270
 116.2957150 112.5070980 145.1736800 120.0202100 117.0788600 149.2268900
 119.4014520 116.7408150 148.5795200 120.0026550 116.4348360 149.9348090
 111.5961450 116.0433040 151.5053380 111.1918450 115.3310290 151.0099280
 111.6824570 115.6986280 152.3941420 112.0643150 119.7300600 153.6692590
 111.7671440 119.1246070 152.9900370 113.0142970 119.7677910 153.5581950
 118.1966800 116.3175410 146.2341650 118.6360080 115.4797840 146.0879470
 118.9095220 116.9504810 146.3205790 116.3062180 121.2571480 150.2022890
 116.7458090 121.9995810 149.7878280 116.2449070 121.4998050 151.1261850
 121.7783940 107.5718220 144.5482690 121.4656600 107.6645050 145.4481760
 122.5396410 108.1499250 144.4980120 108.2966080 114.9378020 149.0060030
 108.1763680 115.6640110 148.3941300 107.9866970 114.1680930 148.5287940
 107.1799080 119.8093350 151.2234850 106.7727160 119.9507940 150.3688450
 108.0712090 119.5253510 151.0206060 118.9732360 124.2440600 147.5585900
 118.8133500 123.9543540 148.4567730 118.8079070 123.4680730 147.0231130
 111.4520740 124.0239130 149.3357520 111.2763220 123.1074670 149.1225320
 110.5976480 124.3826420 149.5755320 118.6758490 121.7528160 146.1183900
 117.9823650 121.7505450 145.4586180 119.4181350 121.3287480 145.6878070
 118.2408420 123.3790870 150.1932390 118.6965370 122.5980250 150.5071010
 118.5800940 124.0897690 150.7373570 110.7629740 108.2813090 152.3883700
 110.3197890 109.0622630 152.0568220 111.3214730 108.6042980 153.0954640
 113.8788560 107.9023790 147.2689530 113.2542740 107.8983660 147.9942840
 113.7918680 107.0354750 146.8725500 112.8005640 108.8260420 154.2473300
 113.0977970 109.7323250 154.1665320 113.3491200 108.3379200 153.6332870
 110.5543960 113.4046660 150.1164950 110.3284880 113.1883830 151.0211570
 109.7736490 113.8375120 149.7710920 117.7841720 113.4110030 148.7155600
 117.1850610 114.1345830 148.5319220 118.3321330 113.3486810 147.9332050
 116.3906590 112.0473570 150.7458880 116.7836160 112.3645770 149.9327570
 116.7523440 111.1685450 150.8603400 105.4270760 108.6374370 152.9689080
 105.1383810 109.2077230 153.6814060 106.1716520 108.1578820 153.3320310
 105.6140990 112.5794490 144.1791800 105.5315660 113.5225250 144.3206790
 105.2624050 112.4369400 143.3004150 113.4139120 111.3133520 153.2462150
 113.4175180 110.8723470 152.3966690 114.3090240 111.6350850 153.3533970
 109.2641500 111.1960010 152.2056360 108.9241550 111.6735240 152.9623410
 108.5018820 110.7425130 151.8457460 113.4759270 112.3145600 146.2368910
 113.5972090 112.2732080 147.1854730 113.0907780 113.1769750 146.0815640
 112.4880770 114.6246740 145.6352210 111.9197670 114.1764990 145.0088120
 113.1969770 114.9839520 145.1017360 106.5787580 110.1178990 151.1221030
 106.2934500 109.7534660 151.9599650 106.5166440 109.3859450 150.5084170
 110.0328250 118.6204930 147.9078620 109.2590510 118.0802550 147.7477340
 110.7622880 118.1011540 147.5696380 120.7916230 117.6170290 153.7005010
 121.5115350 118.1125580 153.3101120 120.5898050 116.9388180 153.0558880
 116.2526170 109.0108250 147.8434400 115.4390780 108.5121420 147.7679710
 116.0588120 109.8506500 147.4270750 118.9674560 113.3827900 146.1396560
 119.8554180 113.6945130 145.9647900 118.9379650 112.5100150 145.7477140
 110.0765650 118.2885310 151.5457430 110.5944320 117.4853570 151.4914320
 109.6249670 118.2264450 152.3874260 114.9635150 119.5551590 146.8184730
 115.3050850 120.2993820 146.3228050 114.1347860 119.8682710 147.1809560
 121.2388830 114.6939740 145.6076420 121.1552550 115.1253960 144.7572860
 121.9583020 115.1538090 146.0403240 122.2676080 121.5482000 148.3358550
 121.6252240 120.8937620 148.6102270 121.8806740 121.9537090 147.5599220
 117.8462560 118.8767430 152.1830240 118.1986380 118.2795560 151.5231610
 116.9624890 118.5511660 152.3538490 113.9325840 119.6365120 149.5900650
 114.6196970 120.1834330 149.9708240 113.1458260 120.1805850 149.6250260
 106.0718240 115.2537940 145.0817730 106.9413090 115.5362740 145.3653650
 105.5808560 116.0673810 144.9666540 113.2353050 116.6411150 149.2026010
 113.6915830 117.4516400 149.4286200 112.8841260 116.3234290 150.0344500
 109.1364830 106.9848800 149.6748530 109.0079460 106.9766700 150.6233450
 108.3126850 107.3231890 149.3239540 120.6573460 120.4398460 144.8734900
 120.4311040 119.7228900 145.4659540 120.2669660 120.1910900 144.0356650
 106.4389490 124.4665320 145.6479360 106.7987130 125.0654660 144.9936630
 106.2981830 125.0125210 146.4214390 120.2389710 118.3570400 146.5349060
 119.9511410 118.8183090 147.3226940 121.0341880 117.8968170 146.8033280
 112.4558110 121.8496520 146.4653030 112.4468210 122.5826210 145.8497540
 111.5356470 121.6028100 146.5579990 108.0564750 117.0711410 147.2099790
 107.4492700 117.8110310 147.2195090 108.5314100 117.1610770 146.3837990
 120.9959570 110.1919170 147.6944240 120.3672730 110.2964840 146.9802470
 120.5011490 110.4115950 148.4838120 115.4417710 121.9124760 145.1278220
 115.5429690 121.7088750 144.1980200 114.5419450 121.6583040 145.3326000
 112.9643600 112.4705120 149.1102120 112.2559750 112.9391460 149.5515730
 113.2488080 111.8127130 149.7447310 116.9959030 109.1955780 150.5497910
 116.8726810 109.2141910 149.6007420 117.9443590 109.2434720 150.6696310
 114.0835820 124.4311080 149.8225890 114.3377320 124.3932470 148.9005260
 113.1348300 124.3044410 149.8154140 111.1678620 110.7790200 146.4852830
 112.0169150 111.2160350 146.4193020 110.8009890 111.0910460 147.3124890
 120.0888400 115.3502960 151.3984400 119.1478540 115.3653190 151.5732090
 120.4032470 114.5638920 151.8444700 110.0670040 117.0322560 144.9588360
 110.8333310 116.9203920 145.5213790 110.1444730 116.3360530 144.3065130
 108.7616800 114.4647630 145.6421250 108.8420390 113.5175140 145.7538650
 109.6536550 114.7954510 145.7481910 122.0913980 122.5211810 153.0738660
 122.2161400 123.3442980 153.5462470 122.9579540 122.3102540 152.7262810
 109.5631510 124.6143020 152.7455790 110.2993990 124.0658480 153.0164360
 109.9472430 125.4799030 152.6061780 106.4476990 120.6816590 148.6197300
 105.5216770 120.9237730 148.6102710 106.9133420 121.5090850 148.4982050
 112.6733820 123.7873330 144.5681360 113.4662430 124.0762160 144.1163150
 112.1538170 123.3565500 143.8893840 121.7263990 123.0143460 145.9918100
 121.4405500 122.6008600 145.1772280 121.5283540 123.9431170 145.8718620
 113.1911220 119.0076740 144.4323710 113.0861860 118.3929090 145.1585090
 113.0235440 118.4842630 143.6486720 116.4313950 118.0696770 145.0365700
 115.8824050 118.5166070 145.6808440 117.0533210 117.5646020 145.5603370
 112.0989070 117.0287690 146.9331000 112.5205490 116.8627560 147.7762390
 112.2239910 116.2187920 146.4386140 114.6116710 116.0525300 144.1808100
 115.1322370 115.3374320 143.8149250 115.2585110 116.6911170 144.4808610
 110.9947970 113.1020920 143.8789160 110.7937030 112.2388280 144.2402500
 110.8240020 113.0154280 142.9410760 118.4736280 107.9129150 146.4076040
 118.7538570 107.0697050 146.7635460 117.7002010 108.1452260 146.9214790
 109.7930770 110.2021540 143.8667040 110.0956670 110.2088970 142.9586190
 110.5325360 109.8519400 144.3634700 113.0115700 109.1456160 144.8523240
 112.6637700 108.4680150 144.2725690 113.2128470 108.6845670 145.6666630
 115.1764740 124.1336910 146.4709840 116.0715530 124.4721880 146.4928600
 115.2082370 123.4116320 145.8434120 108.8160900 119.5063960 144.6996840
 109.2535770 120.0493630 145.3554420 109.3008630 118.6810910 144.7093180
 106.0306700 122.2952990 152.1517100 106.3609710 121.4274050 151.9195740
 106.4597700 122.5011510 152.9822060 110.6268620 120.6262000 149.8119070
 110.3264160 120.5026970 150.7122980 110.5206110 119.7670590 149.4034800
 123.3960540 120.4058400 144.5145750 122.5653500 120.4735050 144.9852980
 123.5732370 121.2962520 144.2112610 122.8517000 117.1505880 147.0179950
 123.6135910 117.7202530 147.1239640 122.8671370 116.5833080 147.7888260
 106.3521340 115.6743810 151.2487610 105.6970180 115.4055450 150.6047310
 107.1899290 115.5648290 150.7989590 123.8576970 118.0055980 151.8621880
 124.2285800 117.2223300 151.4557850 124.4978900 118.6945080 151.6839180
 122.9036170 117.4440250 144.1752470 123.1785010 118.3519130 144.0471690
 122.7146910 117.3802780 145.1114460 119.3011780 110.4685100 145.4706100
 119.7196660 110.2816080 144.6302760 118.9947840 109.6164150 145.7809030
 122.8001510 115.3809240 149.1681900 122.4245110 114.6137170 148.7363190
 122.0704630 115.7631940 149.6556830 105.5659420 112.8842740 147.1912940
 104.6623500 113.1472940 147.0164600 106.0500040 113.1553910 146.4112900
 122.0752470 113.6066730 152.4689140 122.5989950 113.1129380 151.8379310
 122.6611890 113.7417090 153.2136710 108.1086630 111.9408280 145.1007320
 108.8178330 111.5191500 144.6154600 107.3926570 112.0083510 144.4690670
 107.7560790 107.9947610 144.1409970 108.4788920 108.5356550 144.4591190
 108.0285310 107.7211030 143.2651510 121.5652440 112.8640080 148.4081550
 122.0611560 112.6310950 149.1930430 121.3668510 112.0251920 147.9919190
 122.9939600 111.5001030 150.9419230 122.8838880 111.3457070 151.8801500
 123.7547190 110.9721970 150.6994640 123.8829870 109.3308950 144.1825370
 124.8079180 109.1990130 143.9743660 123.8605660 109.4101770 145.1361820
 123.9568360 110.1019610 146.8082080 123.1619860 110.0364730 147.3374990
 124.1611640 111.0370250 146.7967430 120.8986780 124.1411160 150.8020470
 121.4945850 123.8195730 150.1254890 121.1564930 123.6682980 151.5933740
 111.8794710 123.0994700 153.8066330 112.3959730 122.4882060 153.2814590
 112.5292090 123.6023480 154.2977340 120.3888290 108.4316490 153.2580910
 120.8296380 108.3761590 152.4102510 120.1195880 109.3474500 153.3291090
 122.2526860 108.0631730 151.2689730 122.1915260 107.1192950 151.1220750
 123.0318890 108.1711820 151.8143190 106.5579610 124.2024090 150.2313680
 106.3901650 123.5694770 150.9295570 105.6914120 124.4083490 149.8807870
 107.1807630 108.0340870 147.7345540 107.9386990 108.1469750 147.1609570
 106.7184800 108.8710070 147.6888970 113.7221440 110.1480140 150.7247850
 112.9095950 109.7737030 150.3843730 114.2263080 109.3925220 151.0269040
 118.2246420 106.8122590 151.9630920 118.8275790 107.3842800 152.4379440
 117.4839410 107.3762030 151.7404820 121.3681020 107.2144150 147.2371200
 121.5631650 108.1127600 147.5038630 120.5810890 106.9831230 147.7304150
 108.1642310 122.8957320 147.6763820 107.6389930 123.2765350 146.9725780
 108.0886890 123.5208090 148.3973530 109.5532780 108.5604920 146.2747510
 110.0825540 107.7734720 146.1455460 110.1861100 109.2396110 146.5083040
 111.7470620 108.2980060 149.3292900 111.1173360 107.5967370 149.4963030
 111.2075760 109.0584190 149.1126060 122.9207630 124.4544860 148.9977760
 123.0959820 123.7682600 148.3538680 122.2229200 124.9791910 148.6054430
 110.7635280 124.8439700 146.5513070 111.4954100 124.5598980 146.0036960
 111.0228950 124.6052980 147.4412450 109.9250070 120.9604430 146.5559400
 109.2958950 121.4289530 147.1045230 110.0397900 120.1153650 146.9905590
 117.3799790 115.0110090 132.7060600 117.2993840 114.0964700 132.4352310
 116.9664210 115.5077160 132.0000310 115.5117830 116.7889110 134.5869870
 114.7359930 116.3089550 134.8768440 116.1630760 116.1094760 134.4126030
 109.5283660 117.1008920 135.4645630 108.6968540 116.8457630 135.8642140
 110.1364640 117.1719690 136.2003550 119.5325260 121.1949300 133.3669000
 119.0706790 120.4236540 133.6956170 120.3450810 121.2215370 133.8721450
 109.5084920 121.1349010 135.6603650 109.8112960 120.2446750 135.4813870
 110.2528510 121.6919230 135.4325900 107.9375610 112.0610810 129.2488020
 107.0492310 112.4026780 129.1467900 108.2216800 111.8611130 128.3568850
 105.9008620 114.6616460 135.1327720 106.4724730 113.8938660 135.1331360
 105.9010160 114.9605220 134.2234330 115.7588570 123.4807310 132.9872990
 115.1400010 123.9364810 132.4167430 116.6140350 123.6358770 132.5862690
 114.9526820 119.4646300 134.5940030 114.8835100 118.5236240 134.4329160
 115.7146680 119.5547710 135.1662600 107.1433490 110.0700820 136.9196650
 106.9636330 109.1726570 137.1999410 106.7413570 110.6172690 137.5943600
 115.9831990 112.2716680 134.8208960 116.3596810 111.3988560 134.7082630
 115.8851500 112.6075380 133.9299400 110.1137000 110.6442310 130.2826400
 110.2203750 111.5446040 130.5895160 109.2029360 110.5960280 129.9921050
 119.7656110 109.7667120 131.7537300 120.5865730 109.2763690 131.7962780
 119.7990190 110.3564780 132.5069140 107.7620160 112.5661320 135.5278990
 108.4430270 112.8299690 136.1466390 107.4468210 111.7262190 135.8617000
 111.9544730 113.6128680 134.6151580 112.4622950 114.1109650 135.2556600
 112.4857970 112.8363880 134.4390940 124.0555660 111.7833870 138.3180930
 123.3507830 112.1715580 137.7996040 124.3213580 112.4784160 138.9201860
 110.2380830 108.2527240 138.8815000 110.2399270 108.7699630 138.0760900
 109.4085140 107.7757420 138.8584930 116.6251920 118.3646550 130.3804900
 116.0069190 118.8296000 129.8167620 117.1375170 119.0574030 130.7974410
 111.4883680 117.8922420 137.0588500 111.1553060 118.5191340 137.7009570
 111.6650360 118.4184300 136.2790170 120.0017590 111.7067500 134.5264840
 119.2973160 111.9952390 135.1067950 120.3629750 112.5167610 134.1664400
 109.9196160 109.9637200 136.8885450 110.2612970 110.8079250 136.5939320
 108.9811970 110.1120940 137.0050790 110.7002780 119.8603220 138.8737680
 111.3176780 120.5354300 138.5922130 109.8395900 120.2691200 138.7825180
 105.9935120 119.0503080 127.7544530 105.6163100 119.5390180 127.0229430
 106.2508190 119.7228360 128.3851060 121.6180370 121.3242630 136.7892320
 120.9343890 121.9941740 136.7808990 122.1574660 121.5223280 136.0237180
 123.0704510 111.1522290 134.9174050 122.1229420 111.1861270 135.0489480
 123.3954500 111.9661240 135.3023410 113.6024050 107.4519470 133.2130040
 113.9099030 106.8966360 132.4965540 112.6724750 107.5863930 133.0303030
 119.1539110 123.1686760 135.5037500 119.1666270 122.7649050 134.6359760
 118.6014330 123.9434050 135.3998930 120.4484530 119.8902980 130.5927670
 120.3380860 118.9477310 130.7177090 120.4452780 120.2518620 131.4790430
 118.5524550 118.0716600 136.8320110 118.9693340 117.8576710 135.9973570
 119.2764370 118.3289390 137.4028730 115.9904810 115.5168300 129.9490160
 115.0634090 115.4505680 130.1778630 116.1429630 116.4548430 129.8345400
 115.9773890 111.7885300 126.9457320 115.0377560 111.9499260 127.0309780
 116.2957150 112.5070980 126.3993310 122.4986650 116.4703820 136.9236350
 121.6705280 116.5396910 136.4486480 123.0937130 117.0558130 136.4552180
 120.0202100 117.0788600 130.4525410 119.4014520 116.7408150 129.8051710
 120.0026550 116.4348360 131.1604600 119.4628660 113.2573140 137.8691220
 119.0499840 114.0826850 138.1231210 118.7304610 112.6718180 137.6767580
 111.5961450 116.0433040 132.7309890 111.1918450 115.3310290 132.2355790
 111.6824570 115.6986280 133.6197930 112.0643150 119.7300600 134.8949100
 111.7671440 119.1246070 134.2156880 113.0142970 119.7677910 134.7838460
 110.3090070 112.8176250 136.5108930 110.8604660 112.9271590 135.7362180
 110.8233580 113.1913850 137.2264160 120.1528760 123.3032470 138.5572200
 119.6759320 124.1104660 138.3644810 119.4690550 122.6510800 138.7098410
 111.1561580 119.4682290 141.5456900 110.2590110 119.6922260 141.7930300
 111.1814450 119.5917230 140.5968300 118.1966800 116.3175410 127.4598160
 118.6360080 115.4797840 127.3135980 118.9095220 116.9504810 127.5462300
 109.9832800 116.3395610 140.1214270 109.8440570 117.2118410 140.4901670
 109.1014160 115.9968420 139.9762210 116.3062180 121.2571480 131.4279400
 116.7458090 121.9995810 131.0134790 116.2449070 121.4998050 132.3518360
 111.7813150 122.2817310 142.3299420 111.7528580 122.6860260 141.4627850
 111.6178120 121.3527670 142.1671020 121.7783940 107.5718220 125.7739200
 121.4656600 107.6645050 126.6738270 122.5396410 108.1499250 125.7236630
 108.2966080 114.9378020 130.2316540 108.1763680 115.6640110 129.6197810
 107.9866970 114.1680930 129.7544450 123.7327970 123.0644410 143.6263590
 124.2087690 123.5427300 144.3052670 124.3535130 122.9961900 142.9009090
 105.9351450 118.1093160 136.0385180 106.0131870 118.2441930 135.0940900
 106.5493130 117.4009050 136.2313300 107.1799080 119.8093350 132.4491360
 106.7727160 119.9507940 131.5944960 108.0712090 119.5253510 132.2462570
 123.1361220 120.2557260 140.7863600 123.2624280 120.0169140 139.8680780
 123.1782600 119.4241800 141.2585680 116.9977960 123.9585260 139.3558410
 117.5122630 123.8693270 140.1580840 116.1547040 124.3044960 139.6486320
 118.9732360 124.2440600 128.7842410 118.8133500 123.9543540 129.6824240
 118.8079070 123.4680730 128.2487640 111.4520740 124.0239130 130.5614030
 111.2763220 123.1074670 130.3481830 110.5976480 124.3826420 130.8011830
 118.6758490 121.7528160 127.3440410 117.9823650 121.7505450 126.6842690
 119.4181350 121.3287480 126.9134580 118.2408420 123.3790870 131.4188900
 118.6965370 122.5980250 131.7327520 118.5800940 124.0897690 131.9630080
 122.9885230 112.3089720 141.7513340 122.3729500 112.8169390 141.2228800
 122.6681650 111.4088050 141.6939280 105.9910970 119.1507330 138.5779640
 106.1542010 118.6812690 137.7599010 106.4563420 118.6430890 139.2428480
 110.7629740 108.2813090 133.6140210 110.3197890 109.0622630 133.2824730
 111.3214730 108.6042980 134.3211150 115.0499550 111.1481610 139.2175530
 114.5878920 111.3564630 140.0295470 114.6477660 110.3340960 138.9146200
 120.0504060 112.3690560 140.3472190 119.1997650 112.0696310 140.6681260
 119.8905850 112.6132570 139.4356010 117.1453770 113.8692310 142.4470980
 117.4707180 113.0356060 142.1073210 117.9334100 114.3920830 142.5949310
 113.8788560 107.9023790 128.4946040 113.2542740 107.8983660 129.2199350
 113.7918680 107.0354750 128.0982010 112.8005640 108.8260420 135.4729810
 113.0977970 109.7323250 135.3921830 113.3491200 108.3379200 134.8589380
 110.5543960 113.4046660 131.3421460 110.3284880 113.1883830 132.2468080
 109.7736490 113.8375120 130.9967430 117.7841720 113.4110030 129.9412110
 117.1850610 114.1345830 129.7575730 118.3321330 113.3486810 129.1588560
 112.9943170 114.3032240 142.0081730 112.8986770 113.3626970 141.8582130
 113.8375150 114.5247310 141.6129800 116.3906590 112.0473570 131.9715390
 116.7836160 112.3645770 131.1584080 116.7523440 111.1685450 132.0859910
 108.1253710 110.7145910 140.1615510 107.7317100 111.5621120 140.3688290
 107.4372110 110.0772280 140.3524150 114.6998760 110.7980880 143.2312250
 114.0097080 110.6053080 143.8658340 115.4431060 111.0815520 143.7636550
 105.4270760 108.6374370 134.1945590 105.1383810 109.2077230 134.9070570
 106.1716520 108.1578820 134.5576820 105.6140990 112.5794490 125.4048310
 105.5315660 113.5225250 125.5463300 105.2624050 112.4369400 124.5260660
 116.9761730 114.6379320 136.0666170 116.2442850 115.1466130 136.4156270
 116.5786070 113.8209300 135.7654950 113.4139120 111.3133520 134.4718660
 113.4175180 110.8723470 133.6223200 114.3090240 111.6350850 134.5790480
 109.2641500 111.1960010 133.4312870 108.9241550 111.6735240 134.1879920
 108.5018820 110.7425130 133.0713970 113.4759270 112.3145600 127.4625420
 113.5972090 112.2732080 128.4111240 113.0907780 113.1769750 127.3072150
 117.4387640 110.0913000 135.4789110 117.4560380 110.5421650 136.3230960
 117.1903220 109.1918640 135.6922550 112.4880770 114.6246740 126.8608720
 111.9197670 114.1764990 126.2344630 113.1969770 114.9839520 126.3273870
 120.8658390 107.5045180 141.3175490 121.1904160 106.7734840 141.8433470
 120.9014900 107.1858820 140.4156480 107.5649950 118.5258760 140.7375450
 107.1804740 117.8852430 141.3358410 107.8762140 119.2294880 141.3070180
 113.7147090 115.3735300 136.2184070 114.0817220 114.8993870 136.9645410
 113.5252150 116.2476870 136.5592410 106.5787580 110.1178990 132.3477540
 106.2934500 109.7534660 133.1856160 106.5166440 109.3859450 131.7340680
 111.5046460 114.4143940 138.5368280 111.2003530 115.2935920 138.7618640
 112.4592920 114.4743730 138.5725720 110.0328250 118.6204930 129.1335130
 109.2590510 118.0802550 128.9733850 110.7622880 118.1011540 128.7952890
 120.7916230 117.6170290 134.9261520 121.5115350 118.1125580 134.5357630
 120.5898050 116.9388180 134.2815390 116.2526170 109.0108250 129.0690910
 115.4390780 108.5121420 128.9936220 116.0588120 109.8506500 128.6527260
 116.1735030 117.6879350 140.8130520 116.1072340 116.7675020 140.5588110
 115.5440170 117.7854790 141.5275160 118.9674560 113.3827900 127.3653070
 119.8554180 113.6945130 127.1904410 118.9379650 112.5100150 126.9733650
 110.0765650 118.2885310 132.7713940 110.5944320 117.4853570 132.7170830
 109.6249670 118.2264450 133.6130770 114.9635150 119.5551590 128.0441240
 115.3050850 120.2993820 127.5484560 114.1347860 119.8682710 128.4066070
 107.5610190 115.2546680 139.6839640 107.2025130 115.9200530 140.2712980
 107.2664750 114.4230230 140.0552260 110.7623310 115.7130920 142.5679190
 110.4623450 115.8588100 141.6707010 111.5334550 115.1536210 142.4752580
 116.1051760 120.5099920 140.5634320 116.1196300 119.5780880 140.3453230
 115.3976860 120.5959680 141.2024090 121.2388830 114.6939740 126.8332930
 121.1552550 115.1253960 125.9829370 121.9583020 115.1538090 127.2659750
 122.3162970 117.1507260 139.9102900 121.5911160 117.7436040 139.7132290
 122.8438430 117.1430800 139.1116270 122.2676080 121.5482000 129.5615060
 121.6252240 120.8937620 129.8358780 121.8806740 121.9537090 128.7855730
 117.8462560 118.8767430 133.4086750 118.1986380 118.2795560 132.7488120
 116.9624890 118.5511660 133.5795000 113.9325840 119.6365120 130.8157160
 114.6196970 120.1834330 131.1964750 113.1458260 120.1805850 130.8506770
 106.0718240 115.2537940 126.3074240 106.9413090 115.5362740 126.5910160
 105.5808560 116.0673810 126.1923050 113.2353050 116.6411150 130.4282520
 113.6915830 117.4516400 130.6542710 112.8841260 116.3234290 131.2601010
 115.5385660 122.1517490 137.6574820 116.1827880 122.3576870 138.3348240
 115.9015100 121.3905890 137.2045670 109.1364830 106.9848800 130.9005040
 109.0079460 106.9766700 131.8489960 108.3126850 107.3231890 130.5496050
 116.8117740 120.1549840 136.3752270 117.4539970 119.4543000 136.4884440
 117.3367090 120.9348280 136.1949160 120.6573460 120.4398460 126.0991410
 120.4311040 119.7228900 126.6916050 120.2669660 120.1910900 125.2613160
 118.5855360 120.9544740 139.5788330 118.9211600 121.5411430 140.2566250
 117.6655700 120.8237450 139.8086120 106.4389490 124.4665320 126.8735870
 106.7987130 125.0654660 126.2193140 106.2981830 125.0125210 127.6470900
 106.1358760 108.7439920 140.3611740 105.4217280 108.9436840 140.9664350
 106.5553800 107.9679490 140.7326540 120.2389710 118.3570400 127.7605570
 119.9511410 118.8183090 128.5483450 121.0341880 117.8968170 128.0289790
 106.4231350 122.7320180 141.3478270 106.5322470 121.7914920 141.2073660
 105.7711910 122.9974930 140.6992000 114.4143940 121.0036070 142.7476390
 114.0940810 120.2845310 143.2922080 113.7402300 121.6791140 142.8212450
 112.4558110 121.8496520 127.6909540 112.4468210 122.5826210 127.0754050
 111.5356470 121.6028100 127.7836500 108.0564750 117.0711410 128.4356300
 107.4492700 117.8110310 128.4451600 108.5314100 117.1610770 127.6094500
 117.6297540 111.2362230 138.1113190 117.9978360 110.4157440 138.4392760
 116.7695740 111.2964120 138.5268840 120.9959570 110.1919170 128.9200750
 120.3672730 110.2964840 128.2058980 120.5011490 110.4115950 129.7094630
 115.4417710 121.9124760 126.3534730 115.5429690 121.7088750 125.4236710
 114.5419450 121.6583040 126.5582510 112.9643600 112.4705120 130.3358630
 112.2559750 112.9391460 130.7772240 113.2488080 111.8127130 130.9703820
 114.5899530 113.8901820 138.3351160 115.0884780 114.3647640 139.0003010
 114.7322480 112.9665340 138.5421190 116.9959030 109.1955780 131.7754420
 116.8726810 109.2141910 130.8263930 117.9443590 109.2434720 131.8952820
 114.0835820 124.4311080 131.0482400 114.3377320 124.3932470 130.1261770
 113.1348300 124.3044410 131.0410650 111.1678620 110.7790200 127.7109340
 112.0169150 111.2160350 127.6449530 110.8009890 111.0910460 128.5381400
 121.7966390 110.1069780 139.1779550 121.2939990 110.8475180 139.5173360
 122.6123050 110.4953780 138.8616340 120.0888400 115.3502960 132.6240910
 119.1478540 115.3653190 132.7988600 120.4032470 114.5638920 133.0701210
 110.0670040 117.0322560 126.1844870 110.8333310 116.9203920 126.7470300
 110.1444730 116.3360530 125.5321640 108.7616800 114.4647630 126.8677760
 108.8420390 113.5175140 126.9795160 109.6536550 114.7954510 126.9738420
 122.0913980 122.5211810 134.2995170 122.2161400 123.3442980 134.7718980
 122.9579540 122.3102540 133.9519320 109.5631510 124.6143020 133.9712300
 110.2993990 124.0658480 134.2420870 109.9472430 125.4799030 133.8318290
 106.4476990 120.6816590 129.8453810 105.5216770 120.9237730 129.8359220
 106.9133420 121.5090850 129.7238560 108.5689790 123.7989090 143.1597880
 109.3702520 124.1201140 143.5733280 108.0541610 123.4384670 143.8817790
 112.6733820 123.7873330 125.7937870 113.4662430 124.0762160 125.3419660
 112.1538170 123.3565500 125.1150350 117.4054420 119.9068960 143.1073290
 116.7992580 119.9300560 142.3669040 117.1008530 119.1752000 143.6440540
 118.8354790 123.6349250 141.7182700 119.7876540 123.5507270 141.6682940
 118.6883010 124.2990960 142.3916490 121.7263990 123.0143460 127.2174610
 121.4405500 122.6008600 126.4028790 121.5283540 123.9431170 127.0975130
 106.2887600 116.2862550 142.1033930 106.7926620 115.7069830 142.6750160
 105.5495020 116.5702780 142.6410300 113.1911220 119.0076740 125.6580220
 113.0861860 118.3929090 126.3841600 113.0235440 118.4842630 124.8743230
 113.3425540 117.6933540 141.6369450 112.5771210 118.2618540 141.5524120
 113.5241500 117.4009750 140.7437680 116.4313950 118.0696770 126.2622210
 115.8824050 118.5166070 126.9064950 117.0533210 117.5646020 126.7859880
 120.4848890 119.4238870 142.1944470 121.2258360 119.7614630 141.6911930
 119.7221570 119.5930930 141.6414240 108.3210680 114.4292140 142.9984000
 108.3616020 114.1306010 143.9069230 109.1756180 114.8299750 142.8391520
 112.0989070 117.0287690 128.1587510 112.5205490 116.8627560 129.0018900
 112.2239910 116.2187920 127.6642650 110.2616490 113.0084240 140.9658490
 109.7312950 112.5175190 140.3381830 110.9304560 113.4368440 140.4316420
 114.6116710 116.0525300 125.4064610 115.1322370 115.3374320 125.0405760
 115.2585110 116.6911170 125.7065120 119.1594550 117.4753700 140.7299680
 119.5735570 117.6298780 141.5790100 118.2245550 117.6008920 140.8925460
 119.6316720 114.8149860 142.7338830 120.2137490 114.0602180 142.6459310
 119.8078490 115.3457300 141.9570310 110.7488790 109.9746610 141.0455780
 110.6545660 109.3567360 140.3206650 110.1686180 110.7012900 140.8185690
 113.5150230 108.5319850 138.0783170 113.0667530 108.5544110 137.2328720
 112.8815430 108.1338870 138.6753470 113.9209780 117.4274180 138.6995610
 114.3397890 118.2706910 138.5271850 113.0018410 117.5646220 138.4702390
 116.2573680 115.1590360 140.0833450 116.3769890 114.5631500 140.8228290
 117.1167680 115.1960050 139.6634750 118.5961580 115.7127550 138.6595960
 118.0696800 116.2370170 138.0561100 118.9392920 116.3454940 139.2905690
 110.9947970 113.1020920 125.1045670 110.7937030 112.2388280 125.4659010
 110.8240020 113.0154280 124.1667270 111.7717200 123.7327190 139.8153340
 111.2338290 124.4573250 139.4962040 112.0251160 123.2557530 139.0250680
 113.0242450 111.7011710 141.3409270 113.6142140 111.3927560 142.0287090
 112.2062690 111.2291460 141.4969170 117.8435880 111.3177520 141.5742290
 117.1551400 110.6559060 141.5092280 118.5641900 110.8715790 142.0190750
 118.4736280 107.9129150 127.6332550 118.7538570 107.0697050 127.9891970
 117.7002010 108.1452260 128.1471300 109.7930770 110.2021540 125.0923550
 110.0956670 110.2088970 124.1842700 110.5325360 109.8519400 125.5891210
 114.6279410 124.9678400 140.0739990 114.5538110 125.8713540 140.3812360
 113.7258250 124.6490300 140.0462060 113.0115700 109.1456160 126.0779750
 112.6637700 108.4680150 125.4982200 113.2128470 108.6845670 126.8923140
 115.1764740 124.1336910 127.6966350 116.0715530 124.4721880 127.7185110
 115.2082370 123.4116320 127.0690630 108.8160900 119.5063960 125.9253350
 109.2535770 120.0493630 126.5810930 109.3008630 118.6810910 125.9349690
 106.0306700 122.2952990 133.3773610 106.3609710 121.4274050 133.1452250
 106.4597700 122.5011510 134.2078570 110.6268620 120.6262000 131.0375580
 110.3264160 120.5026970 131.9379490 110.5206110 119.7670590 130.6291310
 106.5196910 123.1623580 136.1155240 106.0827900 123.3424380 136.9479390
 107.0874590 123.9198200 135.9736960 122.1559090 122.6640580 140.4032550
 121.5561080 122.7233140 139.6596470 122.2852990 121.7245560 140.5329400
 123.3960540 120.4058400 125.7402260 122.5653500 120.4735050 126.2109490
 123.5732370 121.2962520 125.4369120 122.8517000 117.1505880 128.2436460
 123.6135910 117.7202530 128.3496150 122.8671370 116.5833080 129.0144770
 106.3521340 115.6743810 132.4744120 105.6970180 115.4055450 131.8303820
 107.1899290 115.5648290 132.0246100 123.8576970 118.0055980 133.0878390
 124.2285800 117.2223300 132.6814360 124.4978900 118.6945080 132.9095690
 120.8410730 119.3892560 138.5008710 120.0270570 119.8189720 138.7634500
 121.2484930 120.0010970 137.8877760 122.9036170 117.4440250 125.4008980
 123.1785010 118.3519130 125.2728200 122.7146910 117.3802780 126.3370970
 119.3011780 110.4685100 126.6962610 119.7196660 110.2816080 125.8559270
 118.9947840 109.6164150 127.0065540 122.8001510 115.3809240 130.3938410
 122.4245110 114.6137170 129.9619700 122.0704630 115.7631940 130.8813340
 107.3897270 116.0596380 137.0147460 107.7570310 115.9723780 137.8943480
 106.8208090 115.2962930 136.9154320 122.1901130 114.5280760 140.0277930
 121.9587220 114.2993510 139.1275880 122.4505680 115.4480310 139.9822820
 106.9413270 112.9705470 140.9205880 106.0469320 112.9372230 141.2599590
 107.4810820 113.1692260 141.6857130 120.6289200 109.7537190 142.8057630
 121.5059380 109.7620590 143.1891630 120.6410040 109.0168030 142.1949980
 105.5659420 112.8842740 128.4169450 104.6623500 113.1472940 128.2421110
 106.0500040 113.1553910 127.6369410 122.0752470 113.6066730 133.6945650
 122.5989950 113.1129380 133.0635820 122.6611890 113.7417090 134.4393220
 122.2542190 113.6906600 137.2165200 121.3044900 113.6570140 137.3310190
 122.4355200 114.6006710 136.9814970 108.1086630 111.9408280 126.3263830
 108.8178330 111.5191500 125.8411110 107.3926570 112.0083510 125.6947180
 107.7560790 107.9947610 125.3666480 108.4788920 108.5356550 125.6847700
 108.0285310 107.7211030 124.4908020 121.5652440 112.8640080 129.6338060
 122.0611560 112.6310950 130.4186940 121.3668510 112.0251920 129.2175700
 107.4452980 107.2453800 135.2689100 108.0929170 106.6951180 134.8284260
 107.8654820 107.4996950 136.0904910 122.9939600 111.5001030 132.1675740
 122.8838880 111.3457070 133.1058010 123.7547190 110.9721970 131.9251150
 121.3405320 107.4395160 138.6258740 121.9777540 108.0529300 138.9917930
 121.4880210 107.4755820 137.6807970 123.8829870 109.3308950 125.4081880
 124.8079180 109.1990130 125.2000170 123.8605660 109.4101770 126.3618330
 123.9568360 110.1019610 128.0338590 123.1619860 110.0364730 128.5631500
 124.1611640 111.0370250 128.0223940 120.8986780 124.1411160 132.0276980
 121.4945850 123.8195730 131.3511400 121.1564930 123.6682980 132.8190250
 107.1984980 107.4009470 138.0114420 106.8499800 107.8573290 138.7772600
 106.8672680 106.5066600 138.0936850 108.8049350 120.5729070 142.1767610
 108.7618980 120.2021980 143.0582070 108.9360360 121.5106640 142.3169430
 112.5055380 122.1288660 137.7777330 112.2646740 122.3963220 136.8907850
 113.4458020 122.2994390 137.8328190 114.7109800 108.5921350 141.5333840
 114.6498690 109.1843180 142.2829250 115.6510180 108.4847310 141.3884100
 117.3484360 108.2491410 141.1726130 117.9624770 108.5670700 140.5107210
 117.8933920 107.7640000 141.7921990 123.7659540 124.1483040 138.5787970
 123.2717820 124.5451910 137.8615100 123.1572830 123.5232250 138.9725250
 107.8705620 106.9285670 141.2865190 108.4188610 106.7473720 140.5231300
 107.9360930 106.1379780 141.8221500 108.6437380 123.5191320 139.2965390
 108.0497700 123.3876020 140.0355430 108.6361220 122.6829460 138.8307490
 118.0892400 106.8123550 137.4995420 117.2152240 107.1458660 137.2968350
 117.9803150 106.3396730 138.3247290 118.9964380 109.0194420 138.8837140
 118.6677740 108.2046180 138.5038870 119.9446680 108.9764230 138.7602830
 121.4498990 124.7906460 135.8574710 120.9901960 125.5422270 135.4832730
 120.8211450 124.0712930 135.7989510 108.2749610 120.8849700 138.2473430
 107.5483670 120.2654990 138.1799380 108.3358760 121.2790310 137.3771510
 111.8794710 123.0994700 135.0322840 112.3959730 122.4882060 134.5071100
 112.5292090 123.6023480 135.5233850 114.6190210 123.9903190 135.8591820
 114.9068020 123.7357490 134.9824830 115.1313430 123.4380550 136.4497390
 115.8367220 107.7293390 136.4388330 115.0539010 108.2038890 136.7185090
 115.5430150 106.8248220 136.3301510 120.3888290 108.4316490 134.4837420
 120.8296380 108.3761590 133.6359020 120.1195880 109.3474500 134.5547600
 122.2526860 108.0631730 132.4946240 122.1915260 107.1192950 132.3477260
 123.0318890 108.1711820 133.0399700 106.5579610 124.2024090 131.4570190
 106.3901650 123.5694770 132.1552080 105.6914120 124.4083490 131.1064380
 107.1807630 108.0340870 128.9602050 107.9386990 108.1469750 128.3866080
 106.7184800 108.8710070 128.9145480 113.7221440 110.1480140 131.9504360
 112.9095950 109.7737030 131.6100240 114.2263080 109.3925220 132.2525550
 118.2246420 106.8122590 133.1887430 118.8275790 107.3842800 133.6635950
 117.4839410 107.3762030 132.9661330 121.3681020 107.2144150 128.4627710
 121.5631650 108.1127600 128.7295140 120.5810890 106.9831230 128.9560660
 108.1642310 122.8957320 128.9020330 107.6389930 123.2765350 128.1982290
 108.0886890 123.5208090 129.6230040 109.5532780 108.5604920 127.5004020
 110.0825540 107.7734720 127.3711970 110.1861100 109.2396110 127.7339550
 111.7470620 108.2980060 130.5549410 111.1173360 107.5967370 130.7219540
 111.2075760 109.0584190 130.3382570 114.6862570 124.9119290 143.2260020
 115.6129880 124.6763560 143.2695980 114.6713000 125.7391290 142.7446050
 122.9207630 124.4544860 130.2234270 123.0959820 123.7682600 129.5795190
 122.2229200 124.9791910 129.8310940 111.8726180 107.5764040 142.9901900
 111.5910450 108.0797640 142.2262720 112.2545880 106.7785790 142.6244030
 110.7635280 124.8439700 127.7769580 111.4954100 124.5598980 127.2293470
 111.0228950 124.6052980 128.6668960 109.9250070 120.9604430 127.7815910
 109.2958950 121.4289530 128.3301740 110.0397900 120.1153650 128.2162100
 118.4741640 106.9917620 143.5682370 118.3607090 107.3112230 144.4633890
 119.2911380 107.3930130 143.2719650 121.2540130 124.1389150 143.0501060
 122.0465450 123.6438380 142.8427020 121.5473280 124.8179290 143.6576670
 119.5325260 121.1949300 114.5925510 119.0706790 120.4236540 114.9212680
 120.3450810 121.2215370 115.0977960 107.9375610 112.0610810 110.4744530
 107.0492310 112.4026780 110.3724410 108.2216800 111.8611130 109.5825360
 105.9008620 114.6616460 116.3584230 106.4724730 113.8938660 116.3587870
 105.9010160 114.9605220 115.4490840 115.7588570 123.4807310 114.2129500
 115.1400010 123.9364810 113.6423940 116.6140350 123.6358770 113.8119200
 110.1137000 110.6442310 111.5082910 110.2203750 111.5446040 111.8151670
 109.2029360 110.5960280 111.2177560 107.7620160 112.5661320 116.7535500
 108.4430270 112.8299690 117.3722900 107.4468210 111.7262190 117.0873510
 124.0555660 111.7833870 119.5437440 123.3507830 112.1715580 119.0252550
 124.3213580 112.4784160 120.1458370 121.6180370 121.3242630 118.0148830
 120.9343890 121.9941740 118.0065500 122.1574660 121.5223280 117.2493690
 123.0704510 111.1522290 116.1430560 122.1229420 111.1861270 116.2745990
 123.3954500 111.9661240 116.5279920 119.1539110 123.1686760 116.7294010
 119.1666270 122.7649050 115.8616270 118.6014330 123.9434050 116.6255440
 120.4484530 119.8902980 111.8184180 120.3380860 118.9477310 111.9433600
 120.4452780 120.2518620 112.7046940 118.5524550 118.0716600 118.0576620
 118.9693340 117.8576710 117.2230080 119.2764370 118.3289390 118.6285240
 122.4986650 116.4703820 118.1492860 121.6705280 116.5396910 117.6742990
 123.0937130 117.0558130 117.6808690 120.0202100 117.0788600 111.6781920
 119.4014520 116.7408150 111.0308220 120.0026550 116.4348360 112.3861110
 119.4628660 113.2573140 119.0947730 119.0499840 114.0826850 119.3487720
 118.7304610 112.6718180 118.9024090 120.1528760 123.3032470 119.7828710
 119.6759320 124.1104660 119.5901320 119.4690550 122.6510800 119.9354920
 111.1561580 119.4682290 122.7713410 110.2590110 119.6922260 123.0186810
 111.1814450 119.5917230 121.8224810 116.3062180 121.2571480 112.6535910
 116.7458090 121.9995810 112.2391300 116.2449070 121.4998050 113.5774870
 111.7813150 122.2817310 123.5555930 111.7528580 122.6860260 122.6884360
 111.6178120 121.3527670 123.3927530 121.7783940 107.5718220 106.9995710
 121.4656600 107.6645050 107.8994780 122.5396410 108.1499250 106.9493140
 108.2966080 114.9378020 111.4573050 108.1763680 115.6640110 110.8454320
 107.9866970 114.1680930 110.9800960 123.7327970 123.0644410 124.8520100
 124.2087690 123.5427300 125.5309180 124.3535130 122.9961900 124.1265600
 105.9351450 118.1093160 117.2641690 106.0131870 118.2441930 116.3197410
 106.5493130 117.4009050 117.4569810 123.1361220 120.2557260 122.0120110
 123.2624280 120.0169140 121.0937290 123.1782600 119.4241800 122.4842190
 116.9977960 123.9585260 120.5814920 117.5122630 123.8693270 121.3837350
 116.1547040 124.3044960 120.8742830 118.9732360 124.2440600 110.0098920
 118.8133500 123.9543540 110.9080750 118.8079070 123.4680730 109.4744150
 111.4520740 124.0239130 111.7870540 111.2763220 123.1074670 111.5738340
 110.5976480 124.3826420 112.0268340 118.6758490 121.7528160 108.5696920
 117.9823650 121.7505450 107.9099200 119.4181350 121.3287480 108.1391090
 118.2408420 123.3790870 112.6445410 118.6965370 122.5980250 112.9584030
 118.5800940 124.0897690 113.1886590 122.9885230 112.3089720 122.9769850
 122.3729500 112.8169390 122.4485310 122.6681650 111.4088050 122.9195790
 105.9910970 119.1507330 119.8036150 106.1542010 118.6812690 118.9855520
 106.4563420 118.6430890 120.4684990 110.7629740 108.2813090 114.8396720
 110.3197890 109.0622630 114.5081240 111.3214730 108.6042980 115.5467660
 120.0504060 112.3690560 121.5728700 119.1997650 112.0696310 121.8937770
 119.8905850 112.6132570 120.6612520 117.1453770 113.8692310 123.6727490
 117.4707180 113.0356060 123.3329720 117.9334100 114.3920830 123.8205820
 112.8005640 108.8260420 116.6986320 113.0977970 109.7323250 116.6178340
 113.3491200 108.3379200 116.0845890 108.1253710 110.7145910 121.3872020
 107.7317100 111.5621120 121.5944800 107.4372110 110.0772280 121.5780660
 114.6998760 110.7980880 124.4568760 114.0097080 110.6053080 125.0914850
 115.4431060 111.0815520 124.9893060 105.6140990 112.5794490 106.6304820
 105.5315660 113.5225250 106.7719810 105.2624050 112.4369400 105.7517170
 113.4139120 111.3133520 115.6975170 113.4175180 110.8723470 114.8479710
 114.3090240 111.6350850 115.8046990 109.2641500 111.1960010 114.6569380
 108.9241550 111.6735240 115.4136430 108.5018820 110.7425130 114.2970480
 113.4759270 112.3145600 108.6881930 113.5972090 112.2732080 109.6367750
 113.0907780 113.1769750 108.5328660 117.4387640 110.0913000 116.7045620
 117.4560380 110.5421650 117.5487470 117.1903220 109.1918640 116.9179060
 120.8658390 107.5045180 122.5432000 121.1904160 106.7734840 123.0689980
 120.9014900 107.1858820 121.6412990 107.5649950 118.5258760 121.9631960
 107.1804740 117.8852430 122.5614920 107.8762140 119.2294880 122.5326690
 106.5787580 110.1178990 113.5734050 106.2934500 109.7534660 114.4112670
 106.5166440 109.3859450 112.9597190 110.0328250 118.6204930 110.3591640
 109.2590510 118.0802550 110.1990360 110.7622880 118.1011540 110.0209400
 120.7916230 117.6170290 116.1518030 121.5115350 118.1125580 115.7614140
 120.5898050 116.9388180 115.5071900 116.1735030 117.6879350 122.0387030
 116.1072340 116.7675020 121.7844620 115.5440170 117.7854790 122.7531670
 114.9635150 119.5551590 109.2697750 115.3050850 120.2993820 108.7741070
 114.1347860 119.8682710 109.6322580 107.5610190 115.2546680 120.9096150
 107.2025130 115.9200530 121.4969490 107.2664750 114.4230230 121.2808770
 116.1051760 120.5099920 121.7890830 116.1196300 119.5780880 121.5709740
 115.3976860 120.5959680 122.4280600 121.2388830 114.6939740 108.0589440
 121.1552550 115.1253960 107.2085880 121.9583020 115.1538090 108.4916260
 122.3162970 117.1507260 121.1359410 121.5911160 117.7436040 120.9388800
 122.8438430 117.1430800 120.3372780 122.2676080 121.5482000 110.7871570
 121.6252240 120.8937620 111.0615290 121.8806740 121.9537090 110.0112240
 106.0718240 115.2537940 107.5330750 106.9413090 115.5362740 107.8166670
 105.5808560 116.0673810 107.4179560 115.5385660 122.1517490 118.8831330
 116.1827880 122.3576870 119.5604750 115.9015100 121.3905890 118.4302180
 109.1364830 106.9848800 112.1261550 109.0079460 106.9766700 113.0746470
 108.3126850 107.3231890 111.7752560 116.8117740 120.1549840 117.6008780
 117.4539970 119.4543000 117.7140950 117.3367090 120.9348280 117.4205670
 120.6573460 120.4398460 107.3247920 120.4311040 119.7228900 107.9172560
 120.2669660 120.1910900 106.4869670 118.5855360 120.9544740 120.8044840
 118.9211600 121.5411430 121.4822760 117.6655700 120.8237450 121.0342630
 106.1358760 108.7439920 121.5868250 105.4217280 108.9436840 122.1920860
 106.5553800 107.9679490 121.9583050 120.2389710 118.3570400 108.9862080
 119.9511410 118.8183090 109.7739960 121.0341880 117.8968170 109.2546300
 106.4231350 122.7320180 122.5734780 106.5322470 121.7914920 122.4330170
 105.7711910 122.9974930 121.9248510 114.4143940 121.0036070 123.9732900
 114.0940810 120.2845310 124.5178590 113.7402300 121.6791140 124.0468960
 112.4558110 121.8496520 108.9166050 112.4468210 122.5826210 108.3010560
 111.5356470 121.6028100 109.0093010 108.0564750 117.0711410 109.6612810
 107.4492700 117.8110310 109.6708110 108.5314100 117.1610770 108.8351010
 117.6297540 111.2362230 119.3369700 117.9978360 110.4157440 119.6649270
 116.7695740 111.2964120 119.7525350 115.4417710 121.9124760 107.5791240
 115.5429690 121.7088750 106.6493220 114.5419450 121.6583040 107.7839020
 114.0835820 124.4311080 112.2738910 114.3377320 124.3932470 111.3518280
 113.1348300 124.3044410 112.2667160 111.1678620 110.7790200 108.9365850
 112.0169150 111.2160350 108.8706040 110.8009890 111.0910460 109.7637910
 121.7966390 110.1069780 120.4036060 121.2939990 110.8475180 120.7429870
 122.6123050 110.4953780 120.0872850 108.7616800 114.4647630 108.0934270
 108.8420390 113.5175140 108.2051670 109.6536550 114.7954510 108.1994930
 122.0913980 122.5211810 115.5251680 122.2161400 123.3442980 115.9975490
 122.9579540 122.3102540 115.1775830 109.5631510 124.6143020 115.1968810
 110.2993990 124.0658480 115.4677380 109.9472430 125.4799030 115.0574800
 108.5689790 123.7989090 124.3854390 109.3702520 124.1201140 124.7989790
 108.0541610 123.4384670 125.1074300 112.6733820 123.7873330 107.0194380
 113.4662430 124.0762160 106.5676170 112.1538170 123.3565500 106.3406860
 117.4054420 119.9068960 124.3329800 116.7992580 119.9300560 123.5925550
 117.1008530 119.1752000 124.8697050 118.8354790 123.6349250 122.9439210
 119.7876540 123.5507270 122.8939450 118.6883010 124.2990960 123.6173000
 121.7263990 123.0143460 108.4431120 121.4405500 122.6008600 107.6285300
 121.5283540 123.9431170 108.3231640 106.2887600 116.2862550 123.3290440
 106.7926620 115.7069830 123.9006670 105.5495020 116.5702780 123.8666810
 113.1911220 119.0076740 106.8836730 113.0861860 118.3929090 107.6098110
 113.0235440 118.4842630 106.0999740 113.3425540 117.6933540 122.8625960
 112.5771210 118.2618540 122.7780630 113.5241500 117.4009750 121.9694190
 120.4848890 119.4238870 123.4200980 121.2258360 119.7614630 122.9168440
 119.7221570 119.5930930 122.8670750 108.3210680 114.4292140 124.2240510
 108.3616020 114.1306010 125.1325740 109.1756180 114.8299750 124.0648030
 119.1594550 117.4753700 121.9556190 119.5735570 117.6298780 122.8046610
 118.2245550 117.6008920 122.1181970 119.6316720 114.8149860 123.9595340
 120.2137490 114.0602180 123.8715820 119.8078490 115.3457300 123.1826820
 110.7488790 109.9746610 122.2712290 110.6545660 109.3567360 121.5463160
 110.1686180 110.7012900 122.0442200 116.2573680 115.1590360 121.3089960
 116.3769890 114.5631500 122.0484800 117.1167680 115.1960050 120.8891260
 118.5961580 115.7127550 119.8852470 118.0696800 116.2370170 119.2817610
 118.9392920 116.3454940 120.5162200 110.9947970 113.1020920 106.3302180
 110.7937030 112.2388280 106.6915520 110.8240020 113.0154280 105.3923780
 111.7717200 123.7327190 121.0409850 111.2338290 124.4573250 120.7218550
 112.0251160 123.2557530 120.2507190 117.8435880 111.3177520 122.7998800
 117.1551400 110.6559060 122.7348790 118.5641900 110.8715790 123.2447260
 109.7930770 110.2021540 106.3180060 110.0956670 110.2088970 105.4099210
 110.5325360 109.8519400 106.8147720 114.6279410 124.9678400 121.2996500
 114.5538110 125.8713540 121.6068870 113.7258250 124.6490300 121.2718570
 115.1764740 124.1336910 108.9222860 116.0715530 124.4721880 108.9441620
 115.2082370 123.4116320 108.2947140 110.6268620 120.6262000 112.2632090
 110.3264160 120.5026970 113.1636000 110.5206110 119.7670590 111.8547820
 106.5196910 123.1623580 117.3411750 106.0827900 123.3424380 118.1735900
 107.0874590 123.9198200 117.1993470 122.1559090 122.6640580 121.6289060
 121.5561080 122.7233140 120.8852980 122.2852990 121.7245560 121.7585910
 123.3960540 120.4058400 106.9658770 122.5653500 120.4735050 107.4366000
 123.5732370 121.2962520 106.6625630 122.8517000 117.1505880 109.4692970
 123.6135910 117.7202530 109.5752660 122.8671370 116.5833080 110.2401280
 123.8576970 118.0055980 114.3134900 124.2285800 117.2223300 113.9070870
 124.4978900 118.6945080 114.1352200 120.8410730 119.3892560 119.7265220
 120.0270570 119.8189720 119.9891010 121.2484930 120.0010970 119.1134270
 122.9036170 117.4440250 106.6265490 123.1785010 118.3519130 106.4984710
 122.7146910 117.3802780 107.5627480 122.8001510 115.3809240 111.6194920
 122.4245110 114.6137170 111.1876210 122.0704630 115.7631940 112.1069850
 122.1901130 114.5280760 121.2534440 121.9587220 114.2993510 120.3532390
 122.4505680 115.4480310 121.2079330 106.9413270 112.9705470 122.1462390
 106.0469320 112.9372230 122.4856100 107.4810820 113.1692260 122.9113640
 120.6289200 109.7537190 124.0314140 121.5059380 109.7620590 124.4148140
 120.6410040 109.0168030 123.4206490 105.5659420 112.8842740 109.6425960
 104.6623500 113.1472940 109.4677620 106.0500040 113.1553910 108.8625920
 122.0752470 113.6066730 114.9202160 122.5989950 113.1129380 114.2892330
 122.6611890 113.7417090 115.6649730 122.2542190 113.6906600 118.4421710
 121.3044900 113.6570140 118.5566700 122.4355200 114.6006710 118.2071480
 108.1086630 111.9408280 107.5520340 108.8178330 111.5191500 107.0667620
 107.3926570 112.0083510 106.9203690 107.7560790 107.9947610 106.5922990
 108.4788920 108.5356550 106.9104210 108.0285310 107.7211030 105.7164530
 122.9939600 111.5001030 113.3932250 122.8838880 111.3457070 114.3314520
 123.7547190 110.9721970 113.1507660 121.3405320 107.4395160 119.8515250
 121.9777540 108.0529300 120.2174440 121.4880210 107.4755820 118.9064480
 123.8829870 109.3308950 106.6338390 124.8079180 109.1990130 106.4256680
 123.8605660 109.4101770 107.5874840 123.9568360 110.1019610 109.2595100
 123.1619860 110.0364730 109.7888010 124.1611640 111.0370250 109.2480450
 120.8986780 124.1411160 113.2533490 121.4945850 123.8195730 112.5767910
 121.1564930 123.6682980 114.0446760 108.8049350 120.5729070 123.4024120
 108.7618980 120.2021980 124.2838580 108.9360360 121.5106640 123.5425940
 112.5055380 122.1288660 119.0033840 112.2646740 122.3963220 118.1164360
 113.4458020 122.2994390 119.0584700 117.3484360 108.2491410 122.3982640
 117.9624770 108.5670700 121.7363720 117.8933920 107.7640000 123.0178500
 123.7659540 124.1483040 119.8044480 123.2717820 124.5451910 119.0871610
 123.1572830 123.5232250 120.1981760 108.6437380 123.5191320 120.5221900
 108.0497700 123.3876020 121.2611940 108.6361220 122.6829460 120.0564000
 118.9964380 109.0194420 120.1093650 118.6677740 108.2046180 119.7295380
 119.9446680 108.9764230 119.9859340 121.4498990 124.7906460 117.0831220
 120.9901960 125.5422270 116.7089240 120.8211450 124.0712930 117.0246020
 108.2749610 120.8849700 119.4729940 107.5483670 120.2654990 119.4055890
 108.3358760 121.2790310 118.6028020 111.8794710 123.0994700 116.2579350
 112.3959730 122.4882060 115.7327610 112.5292090 123.6023480 116.7490360
 114.6190210 123.9903190 117.0848330 114.9068020 123.7357490 116.2081340
 115.1313430 123.4380550 117.6753900 120.3888290 108.4316490 115.7093930
 120.8296380 108.3761590 114.8615530 120.1195880 109.3474500 115.7804110
 122.2526860 108.0631730 113.7202750 122.1915260 107.1192950 113.5733770
 123.0318890 108.1711820 114.2656210 107.1807630 108.0340870 110.1858560
 107.9386990 108.1469750 109.6122590 106.7184800 108.8710070 110.1401990
 118.2246420 106.8122590 114.4143940 118.8275790 107.3842800 114.8892460
 117.4839410 107.3762030 114.1917840 121.3681020 107.2144150 109.6884220
 121.5631650 108.1127600 109.9551650 120.5810890 106.9831230 110.1817170
 108.1642310 122.8957320 110.1276840 107.6389930 123.2765350 109.4238800
 108.0886890 123.5208090 110.8486550 114.6862570 124.9119290 124.4516530
 115.6129880 124.6763560 124.4952490 114.6713000 125.7391290 123.9702560
 122.9207630 124.4544860 111.4490780 123.0959820 123.7682600 110.8051700
 122.2229200 124.9791910 111.0567450 111.8726180 107.5764040 124.2158410
 111.5910450 108.0797640 123.4519230 112.2545880 106.7785790 123.8500540
 110.7635280 124.8439700 109.0026090 111.4954100 124.5598980 108.4549980
 111.0228950 124.6052980 109.8925470 109.9250070 120.9604430 109.0072420
 109.2958950 121.4289530 109.5558250 110.0397900 120.1153650 109.4418610
 118.4741640 106.9917620 124.7938880 118.3607090 107.3112230 125.6890400
 119.2911380 107.3930130 124.4976160 121.2540130 124.1389150 124.2757570
 122.0465450 123.6438380 124.0683530 121.5473280 124.8179290 124.8833180
 119.5325260 121.1949300  95.8182020 119.0706790 120.4236540  96.1469190
 120.3450810 121.2215370  96.3234470 109.5084920 121.1349010  98.1116670
 109.8112960 120.2446750  97.9326890 110.2528510 121.6919230  97.8838920
 110.2380830 108.2527240 101.3328020 110.2399270 108.7699630 100.5273920
 109.4085140 107.7757420 101.3097950 121.6180370 121.3242630  99.2405340
 120.9343890 121.9941740  99.2322010 122.1574660 121.5223280  98.4750200
 113.6024050 107.4519470  95.6643060 113.9099030 106.8966360  94.9478560
 112.6724750 107.5863930  95.4816050 119.1539110 123.1686760  97.9550520
 119.1666270 122.7649050  97.0872780 118.6014330 123.9434050  97.8511950
 120.4484530 119.8902980  93.0440690 120.3380860 118.9477310  93.1690110
 120.4452780 120.2518620  93.9303450 122.4986650 116.4703820  99.3749370
 121.6705280 116.5396910  98.8999500 123.0937130 117.0558130  98.9065200
 120.1528760 123.3032470 101.0085220 119.6759320 124.1104660 100.8157830
 119.4690550 122.6510800 101.1611430 123.7327970 123.0644410 106.0776610
 124.2087690 123.5427300 106.7565690 124.3535130 122.9961900 105.3522110
 123.1361220 120.2557260 103.2376620 123.2624280 120.0169140 102.3193800
 123.1782600 119.4241800 103.7098700 116.9977960 123.9585260 101.8071430
 117.5122630 123.8693270 102.6093860 116.1547040 124.3044960 102.0999340
 118.9732360 124.2440600  91.2355430 118.8133500 123.9543540  92.1337260
 118.8079070 123.4680730  90.7000660 118.6758490 121.7528160  89.7953430
 117.9823650 121.7505450  89.1355710 119.4181350 121.3287480  89.3647600
 118.2408420 123.3790870  93.8701920 118.6965370 122.5980250  94.1840540
 118.5800940 124.0897690  94.4143100 105.9910970 119.1507330 101.0292660
 106.1542010 118.6812690 100.2112030 106.4563420 118.6430890 101.6941500
 105.4270760 108.6374370  96.6458610 105.1383810 109.2077230  97.3583590
 106.1716520 108.1578820  97.0089840 106.5787580 110.1178990  94.7990560
 106.2934500 109.7534660  95.6369180 106.5166440 109.3859450  94.1853700
 120.7916230 117.6170290  97.3774540 121.5115350 118.1125580  96.9870650
 120.5898050 116.9388180  96.7328410 116.1051760 120.5099920 103.0147340
 116.1196300 119.5780880 102.7966250 115.3976860 120.5959680 103.6537110
 121.2388830 114.6939740  89.2845950 121.1552550 115.1253960  88.4342390
 121.9583020 115.1538090  89.7172770 115.5385660 122.1517490 100.1087840
 116.1827880 122.3576870 100.7861260 115.9015100 121.3905890  99.6558690
 116.8117740 120.1549840  98.8265290 117.4539970 119.4543000  98.9397460
 117.3367090 120.9348280  98.6462180 118.5855360 120.9544740 102.0301350
 118.9211600 121.5411430 102.7079270 117.6655700 120.8237450 102.2599140
 106.4389490 124.4665320  89.3248890 106.7987130 125.0654660  88.6706160
 106.2981830 125.0125210  90.0983920 106.1358760 108.7439920 102.8124760
 105.4217280 108.9436840 103.4177370 106.5553800 107.9679490 103.1839560
 114.4143940 121.0036070 105.1989410 114.0940810 120.2845310 105.7435100
 113.7402300 121.6791140 105.2725470 112.4558110 121.8496520  90.1422560
 112.4468210 122.5826210  89.5267070 111.5356470 121.6028100  90.2349520
 122.0913980 122.5211810  96.7508190 122.2161400 123.3442980  97.2232000
 122.9579540 122.3102540  96.4032340 109.5631510 124.6143020  96.4225320
 110.2993990 124.0658480  96.6933890 109.9472430 125.4799030  96.2831310
 108.5689790 123.7989090 105.6110900 109.3702520 124.1201140 106.0246300
 108.0541610 123.4384670 106.3330810 112.6733820 123.7873330  88.2450890
 113.4662430 124.0762160  87.7932680 112.1538170 123.3565500  87.5663370
 118.8354790 123.6349250 104.1695720 119.7876540 123.5507270 104.1195960
 118.6883010 124.2990960 104.8429510 120.4848890 119.4238870 104.6457490
 121.2258360 119.7614630 104.1424950 119.7221570 119.5930930 104.0927260
 110.2616490 113.0084240 103.4171510 109.7312950 112.5175190 102.7894850
 110.9304560 113.4368440 102.8829440 110.7488790 109.9746610 103.4968800
 110.6545660 109.3567360 102.7719670 110.1686180 110.7012900 103.2698710
 109.7930770 110.2021540  87.5436570 110.0956670 110.2088970  86.6355720
 110.5325360 109.8519400  88.0404230 114.6279410 124.9678400 102.5253010
 114.5538110 125.8713540 102.8325380 113.7258250 124.6490300 102.4975080
 115.1764740 124.1336910  90.1479370 116.0715530 124.4721880  90.1698130
 115.2082370 123.4116320  89.5203650 106.0306700 122.2952990  95.8286630
 106.3609710 121.4274050  95.5965270 106.4597700 122.5011510  96.6591590
 106.5196910 123.1623580  98.5668260 106.0827900 123.3424380  99.3992410
 107.0874590 123.9198200  98.4249980 122.1559090 122.6640580 102.8545570
 121.5561080 122.7233140 102.1109490 122.2852990 121.7245560 102.9842420
 122.8517000 117.1505880  90.6949480 123.6135910 117.7202530  90.8009170
 122.8671370 116.5833080  91.4657790 123.8576970 118.0055980  95.5391410
 124.2285800 117.2223300  95.1327380 124.4978900 118.6945080  95.3608710
 120.8410730 119.3892560 100.9521730 120.0270570 119.8189720 101.2147520
 121.2484930 120.0010970 100.3390780 107.7560790 107.9947610  87.8179500
 108.4788920 108.5356550  88.1360720 108.0285310 107.7211030  86.9421040
 107.4452980 107.2453800  97.7202120 108.0929170 106.6951180  97.2797280
 107.8654820 107.4996950  98.5417930 120.8986780 124.1411160  94.4790000
 121.4945850 123.8195730  93.8024420 121.1564930 123.6682980  95.2703270
 107.1984980 107.4009470 100.4627440 106.8499800 107.8573290 101.2285620
 106.8672680 106.5066600 100.5449870 114.7109800 108.5921350 103.9846860
 114.6498690 109.1843180 104.7342270 115.6510180 108.4847310 103.8397120
 123.7659540 124.1483040 101.0300990 123.2717820 124.5451910 100.3128120
 123.1572830 123.5232250 101.4238270 107.8705620 106.9285670 103.7378210
 108.4188610 106.7473720 102.9744320 107.9360930 106.1379780 104.2734520
 118.0892400 106.8123550  99.9508440 117.2152240 107.1458660  99.7481370
 117.9803150 106.3396730 100.7760310 121.4498990 124.7906460  98.3087730
 120.9901960 125.5422270  97.9345750 120.8211450 124.0712930  98.2502530
 114.6190210 123.9903190  98.3104840 114.9068020 123.7357490  97.4337850
 115.1313430 123.4380550  98.9010410 120.3888290 108.4316490  96.9350440
 120.8296380 108.3761590  96.0872040 120.1195880 109.3474500  97.0060620
 106.5579610 124.2024090  93.9083210 106.3901650 123.5694770  94.6065100
 105.6914120 124.4083490  93.5577400 107.1807630 108.0340870  91.4115070
 107.9386990 108.1469750  90.8379100 106.7184800 108.8710070  91.3658500
 118.2246420 106.8122590  95.6400450 118.8275790 107.3842800  96.1148970
 117.4839410 107.3762030  95.4174350 114.6862570 124.9119290 105.6773040
 115.6129880 124.6763560 105.7209000 114.6713000 125.7391290 105.1959070
 111.8726180 107.5764040 105.4414920 111.5910450 108.0797640 104.6775740
 112.2545880 106.7785790 105.0757050 110.7635280 124.8439700  90.2282600
 111.4954100 124.5598980  89.6806490 111.0228950 124.6052980  91.1181980
 118.4741640 106.9917620 106.0195390 118.3607090 107.3112230 106.9146910
 119.2911380 107.3930130 105.7232670 121.2540130 124.1389150 105.5014080
 122.0465450 123.6438380 105.2940040 121.5473280 124.8179290 106.1089690
 119.5325260 121.1949300  77.0438530 119.0706790 120.4236540  77.3725700
 120.3450810 121.2215370  77.5490980 115.7588570 123.4807310  76.6642520
 115.1400010 123.9364810  76.0936960 116.6140350 123.6358770  76.2632220
 115.9831990 112.2716680  78.4978490 116.3596810 111.3988560  78.3852160
 115.8851500 112.6075380  77.6068930 110.1137000 110.6442310  73.9595930
 110.2203750 111.5446040  74.2664690 109.2029360 110.5960280  73.6690580
 119.7656110 109.7667120  75.4306830 120.5865730 109.2763690  75.4732310
 119.7990190 110.3564780  76.1838670 111.9544730 113.6128680  78.2921110
 112.4622950 114.1109650  78.9326130 112.4857970 112.8363880  78.1160470
 124.0555660 111.7833870  81.9950460 123.3507830 112.1715580  81.4765570
 124.3213580 112.4784160  82.5971390 116.6251920 118.3646550  74.0574430
 116.0069190 118.8296000  73.4937150 117.1375170 119.0574030  74.4743940
 120.0017590 111.7067500  78.2034370 119.2973160 111.9952390  78.7837480
 120.3629750 112.5167610  77.8433930 109.9196160 109.9637200  80.5654980
 110.2612970 110.8079250  80.2708850 108.9811970 110.1120940  80.6820320
 123.0704510 111.1522290  78.5943580 122.1229420 111.1861270  78.7259010
 123.3954500 111.9661240  78.9792940 118.5524550 118.0716600  80.5089640
 118.9693340 117.8576710  79.6743100 119.2764370 118.3289390  81.0798260
 122.4986650 116.4703820  80.6005880 121.6705280 116.5396910  80.1256010
 123.0937130 117.0558130  80.1321710 119.4628660 113.2573140  81.5460750
 119.0499840 114.0826850  81.8000740 118.7304610 112.6718180  81.3537110
 118.1966800 116.3175410  71.1367690 118.6360080 115.4797840  70.9905510
 118.9095220 116.9504810  71.2231830 116.3062180 121.2571480  75.1048930
 116.7458090 121.9995810  74.6904320 116.2449070 121.4998050  76.0287890
 121.7783940 107.5718220  69.4508730 121.4656600 107.6645050  70.3507800
 122.5396410 108.1499250  69.4006160 118.9732360 124.2440600  72.4611940
 118.8133500 123.9543540  73.3593770 118.8079070 123.4680730  71.9257170
 118.6758490 121.7528160  71.0209940 117.9823650 121.7505450  70.3612220
 119.4181350 121.3287480  70.5904110 118.2408420 123.3790870  75.0958430
 118.6965370 122.5980250  75.4097050 118.5800940 124.0897690  75.6399610
 120.0504060 112.3690560  84.0241720 119.1997650 112.0696310  84.3450790
 119.8905850 112.6132570  83.1125540 116.3906590 112.0473570  75.6484920
 116.7836160 112.3645770  74.8353610 116.7523440 111.1685450  75.7629440
 108.1253710 110.7145910  83.8385040 107.7317100 111.5621120  84.0457820
 107.4372110 110.0772280  84.0293680 105.6140990 112.5794490  69.0817840
 105.5315660 113.5225250  69.2232830 105.2624050 112.4369400  68.2030190
 113.4139120 111.3133520  78.1488190 113.4175180 110.8723470  77.2992730
 114.3090240 111.6350850  78.2560010 117.4387640 110.0913000  79.1558640
 117.4560380 110.5421650  80.0000490 117.1903220 109.1918640  79.3692080
 120.8658390 107.5045180  84.9945020 121.1904160 106.7734840  85.5203000
 120.9014900 107.1858820  84.0926010 107.5649950 118.5258760  84.4144980
 107.1804740 117.8852430  85.0127940 107.8762140 119.2294880  84.9839710
 120.7916230 117.6170290  78.6031050 121.5115350 118.1125580  78.2127160
 120.5898050 116.9388180  77.9584920 114.9635150 119.5551590  71.7210770
 115.3050850 120.2993820  71.2254090 114.1347860 119.8682710  72.0835600
 121.2388830 114.6939740  70.5102460 121.1552550 115.1253960  69.6598900
 121.9583020 115.1538090  70.9429280 106.0718240 115.2537940  69.9843770
 106.9413090 115.5362740  70.2679690 105.5808560 116.0673810  69.8692580
 109.1364830 106.9848800  74.5774570 109.0079460 106.9766700  75.5259490
 108.3126850 107.3231890  74.2265580 106.1358760 108.7439920  84.0381270
 105.4217280 108.9436840  84.6433880 106.5553800 107.9679490  84.4096070
 106.4231350 122.7320180  85.0247800 106.5322470 121.7914920  84.8843190
 105.7711910 122.9974930  84.3761530 117.6297540 111.2362230  81.7882720
 117.9978360 110.4157440  82.1162290 116.7695740 111.2964120  82.2038370
 120.9959570 110.1919170  72.5970280 120.3672730 110.2964840  71.8828510
 120.5011490 110.4115950  73.3864160 115.4417710 121.9124760  70.0304260
 115.5429690 121.7088750  69.1006240 114.5419450 121.6583040  70.2352040
 114.0835820 124.4311080  74.7251930 114.3377320 124.3932470  73.8031300
 113.1348300 124.3044410  74.7180180 121.7966390 110.1069780  82.8549080
 121.2939990 110.8475180  83.1942890 122.6123050 110.4953780  82.5385870
 120.0888400 115.3502960  76.3010440 119.1478540 115.3653190  76.4758130
 120.4032470 114.5638920  76.7470740 110.0670040 117.0322560  69.8614400
 110.8333310 116.9203920  70.4239830 110.1444730 116.3360530  69.2091170
 108.7616800 114.4647630  70.5447290 108.8420390 113.5175140  70.6564690
 109.6536550 114.7954510  70.6507950 122.0913980 122.5211810  77.9764700
 122.2161400 123.3442980  78.4488510 122.9579540 122.3102540  77.6288850
 109.5631510 124.6143020  77.6481830 110.2993990 124.0658480  77.9190400
 109.9472430 125.4799030  77.5087820 108.5689790 123.7989090  86.8367410
 109.3702520 124.1201140  87.2502810 108.0541610 123.4384670  87.5587320
 113.1911220 119.0076740  69.3349750 113.0861860 118.3929090  70.0611130
 113.0235440 118.4842630  68.5512760 116.4313950 118.0696770  69.9391740
 115.8824050 118.5166070  70.5834480 117.0533210 117.5646020  70.4629410
 113.5150230 108.5319850  81.7552700 113.0667530 108.5544110  80.9098250
 112.8815430 108.1338870  82.3523000 110.9947970 113.1020920  68.7815200
 110.7937030 112.2388280  69.1428540 110.8240020 113.0154280  67.8436800
 111.7717200 123.7327190  83.4922870 111.2338290 124.4573250  83.1731570
 112.0251160 123.2557530  82.7020210 117.8435880 111.3177520  85.2511820
 117.1551400 110.6559060  85.1861810 118.5641900 110.8715790  85.6960280
 109.7930770 110.2021540  68.7693080 110.0956670 110.2088970  67.8612230
 110.5325360 109.8519400  69.2660740 115.1764740 124.1336910  71.3735880
 116.0715530 124.4721880  71.3954640 115.2082370 123.4116320  70.7460160
 106.5196910 123.1623580  79.7924770 106.0827900 123.3424380  80.6248920
 107.0874590 123.9198200  79.6506490 107.3897270 116.0596380  80.6916990
 107.7570310 115.9723780  81.5713010 106.8208090 115.2962930  80.5923850
 105.5659420 112.8842740  72.0938980 104.6623500 113.1472940  71.9190640
 106.0500040 113.1553910  71.3138940 122.0752470 113.6066730  77.3715180
 122.5989950 113.1129380  76.7405350 122.6611890 113.7417090  78.1162750
 122.2542190 113.6906600  80.8934730 121.3044900 113.6570140  81.0079720
 122.4355200 114.6006710  80.6584500 108.1086630 111.9408280  70.0033360
 108.8178330 111.5191500  69.5180640 107.3926570 112.0083510  69.3716710
 107.7560790 107.9947610  69.0436010 108.4788920 108.5356550  69.3617230
 108.0285310 107.7211030  68.1677550 121.5652440 112.8640080  73.3107590
 122.0611560 112.6310950  74.0956470 121.3668510 112.0251920  72.8945230
 122.9939600 111.5001030  75.8445270 122.8838880 111.3457070  76.7827540
 123.7547190 110.9721970  75.6020680 121.3405320 107.4395160  82.3028270
 121.9777540 108.0529300  82.6687460 121.4880210 107.4755820  81.3577500
 123.8829870 109.3308950  69.0851410 124.8079180 109.1990130  68.8769700
 123.8605660 109.4101770  70.0387860 123.9568360 110.1019610  71.7108120
 123.1619860 110.0364730  72.2401030 124.1611640 111.0370250  71.6993470
 120.8986780 124.1411160  75.7046510 121.4945850 123.8195730  75.0280930
 121.1564930 123.6682980  76.4959780 107.8705620 106.9285670  84.9634720
 108.4188610 106.7473720  84.2000830 107.9360930 106.1379780  85.4991030
 108.6437380 123.5191320  82.9734920 108.0497700 123.3876020  83.7124960
 108.6361220 122.6829460  82.5077020 118.9964380 109.0194420  82.5606670
 118.6677740 108.2046180  82.1808400 119.9446680 108.9764230  82.4372360
 108.2749610 120.8849700  81.9242960 107.5483670 120.2654990  81.8568910
 108.3358760 121.2790310  81.0541040 111.8794710 123.0994700  78.7092370
 112.3959730 122.4882060  78.1840630 112.5292090 123.6023480  79.2003380
 114.6190210 123.9903190  79.5361350 114.9068020 123.7357490  78.6594360
 115.1313430 123.4380550  80.1266920 120.3888290 108.4316490  78.1606950
 120.8296380 108.3761590  77.3128550 120.1195880 109.3474500  78.2317130
 122.2526860 108.0631730  76.1715770 122.1915260 107.1192950  76.0246790
 123.0318890 108.1711820  76.7169230 121.3681020 107.2144150  72.1397240
 121.5631650 108.1127600  72.4064670 120.5810890 106.9831230  72.6330190
 109.5532780 108.5604920  71.1773550 110.0825540 107.7734720  71.0481500
 110.1861100 109.2396110  71.4109080 111.7470620 108.2980060  74.2318940
 111.1173360 107.5967370  74.3989070 111.2075760 109.0584190  74.0152100
 114.6862570 124.9119290  86.9029550 115.6129880 124.6763560  86.9465510
 114.6713000 125.7391290  86.4215580 122.9207630 124.4544860  73.9003800
 123.0959820 123.7682600  73.2564720 122.2229200 124.9791910  73.5080470
 111.8726180 107.5764040  86.6671430 111.5910450 108.0797640  85.9032250
 112.2545880 106.7785790  86.3013560 117.3799790 115.0110090  57.6086640
 117.2993840 114.0964700  57.3378350 116.9664210 115.5077160  56.9026350
 115.9831990 112.2716680  59.7235000 116.3596810 111.3988560  59.6108670
 115.8851500 112.6075380  58.8325440 119.7656110 109.7667120  56.6563340
 120.5865730 109.2763690  56.6988820 119.7990190 110.3564780  57.4095180
 110.2380830 108.2527240  63.7841040 110.2399270 108.7699630  62.9786940
 109.4085140 107.7757420  63.7610970 120.0017590 111.7067500  59.4290880
 119.2973160 111.9952390  60.0093990 120.3629750 112.5167610  59.0690440
 113.6024050 107.4519470  58.1156080 113.9099030 106.8966360  57.3991580
 112.6724750 107.5863930  57.9329070 118.5524550 118.0716600  61.7346150
 118.9693340 117.8576710  60.8999610 119.2764370 118.3289390  62.3054770
 120.0202100 117.0788600  55.3551450 119.4014520 116.7408150  54.7077750
 120.0026550 116.4348360  56.0630640 111.1561580 119.4682290  66.4482940
 110.2590110 119.6922260  66.6956340 111.1814450 119.5917230  65.4994340
 109.9832800 116.3395610  65.0240310 109.8440570 117.2118410  65.3927710
 109.1014160 115.9968420  64.8788250 111.7813150 122.2817310  67.2325460
 111.7528580 122.6860260  66.3653890 111.6178120 121.3527670  67.0697060
 123.7327970 123.0644410  68.5289630 124.2087690 123.5427300  69.2078710
 124.3535130 122.9961900  67.8035130 123.1361220 120.2557260  65.6889640
 123.2624280 120.0169140  64.7706820 123.1782600 119.4241800  66.1611720
 116.9977960 123.9585260  64.2584450 117.5122630 123.8693270  65.0606880
 116.1547040 124.3044960  64.5512360 111.4520740 124.0239130  55.4640070
 111.2763220 123.1074670  55.2507870 110.5976480 124.3826420  55.7037870
 115.0499550 111.1481610  64.1201570 114.5878920 111.3564630  64.9321510
 114.6477660 110.3340960  63.8172240 113.8788560 107.9023790  53.3972080
 113.2542740 107.8983660  54.1225390 113.7918680 107.0354750  53.0008050
 112.8005640 108.8260420  60.3755850 113.0977970 109.7323250  60.2947870
 113.3491200 108.3379200  59.7615420 112.9943170 114.3032240  66.9107770
 112.8986770 113.3626970  66.7608170 113.8375150 114.5247310  66.5155840
 116.9761730 114.6379320  60.9692210 116.2442850 115.1466130  61.3182310
 116.5786070 113.8209300  60.6680990 117.4387640 110.0913000  60.3815150
 117.4560380 110.5421650  61.2257000 117.1903220 109.1918640  60.5948590
 120.8658390 107.5045180  66.2201530 121.1904160 106.7734840  66.7459510
 120.9014900 107.1858820  65.3182520 111.5046460 114.4143940  63.4394320
 111.2003530 115.2935920  63.6644680 112.4592920 114.4743730  63.4751760
 120.7916230 117.6170290  59.8287560 121.5115350 118.1125580  59.4383670
 120.5898050 116.9388180  59.1841430 116.2526170 109.0108250  53.9716950
 115.4390780 108.5121420  53.8962260 116.0588120 109.8506500  53.5553300
 116.1735030 117.6879350  65.7156560 116.1072340 116.7675020  65.4614150
 115.5440170 117.7854790  66.4301200 110.7623310 115.7130920  67.4705230
 110.4623450 115.8588100  66.5733050 111.5334550 115.1536210  67.3778620
 116.1051760 120.5099920  65.4660360 116.1196300 119.5780880  65.2479270
 115.3976860 120.5959680  66.1050130 121.2388830 114.6939740  51.7358970
 121.1552550 115.1253960  50.8855410 121.9583020 115.1538090  52.1685790
 122.2676080 121.5482000  54.4641100 121.6252240 120.8937620  54.7384820
 121.8806740 121.9537090  53.6881770 109.1364830 106.9848800  55.8031080
 109.0079460 106.9766700  56.7516000 108.3126850 107.3231890  55.4522090
 120.6573460 120.4398460  51.0017450 120.4311040 119.7228900  51.5942090
 120.2669660 120.1910900  50.1639200 118.5855360 120.9544740  64.4814370
 118.9211600 121.5411430  65.1592290 117.6655700 120.8237450  64.7112160
 106.4389490 124.4665320  51.7761910 106.7987130 125.0654660  51.1219180
 106.2981830 125.0125210  52.5496940 120.2389710 118.3570400  52.6631610
 119.9511410 118.8183090  53.4509490 121.0341880 117.8968170  52.9315830
 114.4143940 121.0036070  67.6502430 114.0940810 120.2845310  68.1948120
 113.7402300 121.6791140  67.7238490 112.4558110 121.8496520  52.5935580
 112.4468210 122.5826210  51.9780090 111.5356470 121.6028100  52.6862540
 117.6297540 111.2362230  63.0139230 117.9978360 110.4157440  63.3418800
 116.7695740 111.2964120  63.4294880 120.9959570 110.1919170  53.8226790
 120.3672730 110.2964840  53.1085020 120.5011490 110.4115950  54.6120670
 115.4417710 121.9124760  51.2560770 115.5429690 121.7088750  50.3262750
 114.5419450 121.6583040  51.4608550 114.5899530 113.8901820  63.2377200
 115.0884780 114.3647640  63.9029050 114.7322480 112.9665340  63.4447230
 116.9959030 109.1955780  56.6780460 116.8726810 109.2141910  55.7289970
 117.9443590 109.2434720  56.7978860 111.1678620 110.7790200  52.6135380
 112.0169150 111.2160350  52.5475570 110.8009890 111.0910460  53.4407440
 121.7966390 110.1069780  64.0805590 121.2939990 110.8475180  64.4199400
 122.6123050 110.4953780  63.7642380 120.0888400 115.3502960  57.5266950
 119.1478540 115.3653190  57.7014640 120.4032470 114.5638920  57.9727250
 110.0670040 117.0322560  51.0870910 110.8333310 116.9203920  51.6496340
 110.1444730 116.3360530  50.4347680 112.6733820 123.7873330  50.6963910
 113.4662430 124.0762160  50.2445700 112.1538170 123.3565500  50.0176390
 117.4054420 119.9068960  68.0099330 116.7992580 119.9300560  67.2695080
 117.1008530 119.1752000  68.5466580 118.8354790 123.6349250  66.6208740
 119.7876540 123.5507270  66.5708980 118.6883010 124.2990960  67.2942530
 121.7263990 123.0143460  52.1200650 121.4405500 122.6008600  51.3054830
 121.5283540 123.9431170  52.0001170 106.2887600 116.2862550  67.0059970
 106.7926620 115.7069830  67.5776200 105.5495020 116.5702780  67.5436340
 113.1911220 119.0076740  50.5606260 113.0861860 118.3929090  51.2867640
 113.0235440 118.4842630  49.7769270 113.3425540 117.6933540  66.5395490
 112.5771210 118.2618540  66.4550160 113.5241500 117.4009750  65.6463720
 120.4848890 119.4238870  67.0970510 121.2258360 119.7614630  66.5937970
 119.7221570 119.5930930  66.5440280 108.3210680 114.4292140  67.9010040
 108.3616020 114.1306010  68.8095270 109.1756180 114.8299750  67.7417560
 110.2616490 113.0084240  65.8684530 109.7312950 112.5175190  65.2407870
 110.9304560 113.4368440  65.3342460 110.7488790 109.9746610  65.9481820
 110.6545660 109.3567360  65.2232690 110.1686180 110.7012900  65.7211730
 110.9947970 113.1020920  50.0071710 110.7937030 112.2388280  50.3685050
 110.8240020 113.0154280  49.0693310 113.0242450 111.7011710  66.2435310
 113.6142140 111.3927560  66.9313130 112.2062690 111.2291460  66.3995210
 118.4736280 107.9129150  52.5358590 118.7538570 107.0697050  52.8918010
 117.7002010 108.1452260  53.0497340 109.7930770 110.2021540  49.9949590
 110.0956670 110.2088970  49.0868740 110.5325360 109.8519400  50.4917250
 115.1764740 124.1336910  52.5992390 116.0715530 124.4721880  52.6211150
 115.2082370 123.4116320  51.9716670 122.1559090 122.6640580  65.3058590
 121.5561080 122.7233140  64.5622510 122.2852990 121.7245560  65.4355440
 123.3960540 120.4058400  50.6428300 122.5653500 120.4735050  51.1135530
 123.5732370 121.2962520  50.3395160 122.8517000 117.1505880  53.1462500
 123.6135910 117.7202530  53.2522190 122.8671370 116.5833080  53.9170810
 123.8576970 118.0055980  57.9904430 124.2285800 117.2223300  57.5840400
 124.4978900 118.6945080  57.8121730 120.8410730 119.3892560  63.4034750
 120.0270570 119.8189720  63.6660540 121.2484930 120.0010970  62.7903800
 122.9036170 117.4440250  50.3035020 123.1785010 118.3519130  50.1754240
 122.7146910 117.3802780  51.2397010 122.8001510 115.3809240  55.2964450
 122.4245110 114.6137170  54.8645740 122.0704630 115.7631940  55.7839380
 106.9413270 112.9705470  65.8231920 106.0469320 112.9372230  66.1625630
 107.4810820 113.1692260  66.5883170 120.6289200 109.7537190  67.7083670
 121.5059380 109.7620590  68.0917670 120.6410040 109.0168030  67.0976020
 107.7560790 107.9947610  50.2692520 108.4788920 108.5356550  50.5873740
 108.0285310 107.7211030  49.3934060 107.4452980 107.2453800  60.1715140
 108.0929170 106.6951180  59.7310300 107.8654820 107.4996950  60.9930950
 122.9939600 111.5001030  57.0701780 122.8838880 111.3457070  58.0084050
 123.7547190 110.9721970  56.8277190 121.3405320 107.4395160  63.5284780
 121.9777540 108.0529300  63.8943970 121.4880210 107.4755820  62.5834010
 123.9568360 110.1019610  52.9364630 123.1619860 110.0364730  53.4657540
 124.1611640 111.0370250  52.9249980 117.3484360 108.2491410  66.0752170
 117.9624770 108.5670700  65.4133250 117.8933920 107.7640000  66.6948030
 123.7659540 124.1483040  63.4814010 123.2717820 124.5451910  62.7641140
 123.1572830 123.5232250  63.8751290 118.0892400 106.8123550  62.4021460
 117.2152240 107.1458660  62.1994390 117.9803150 106.3396730  63.2273330
 118.9964380 109.0194420  63.7863180 118.6677740 108.2046180  63.4064910
 119.9446680 108.9764230  63.6628870 114.6190210 123.9903190  60.7617860
 114.9068020 123.7357490  59.8850870 115.1313430 123.4380550  61.3523430
 120.3888290 108.4316490  59.3863460 120.8296380 108.3761590  58.5385060
 120.1195880 109.3474500  59.4573640 107.1807630 108.0340870  53.8628090
 107.9386990 108.1469750  53.2892120 106.7184800 108.8710070  53.8171520
 118.2246420 106.8122590  58.0913470 118.8275790 107.3842800  58.5661990
 117.4839410 107.3762030  57.8687370 121.3681020 107.2144150  53.3653750
 121.5631650 108.1127600  53.6321180 120.5810890 106.9831230  53.8586700
 109.5532780 108.5604920  52.4030060 110.0825540 107.7734720  52.2738010
 110.1861100 109.2396110  52.6365590 111.7470620 108.2980060  55.4575450
 111.1173360 107.5967370  55.6245580 111.2075760 109.0584190  55.2408610
 122.9207630 124.4544860  55.1260310 123.0959820 123.7682600  54.4821230
 122.2229200 124.9791910  54.7336980 111.8726180 107.5764040  67.8927940
 111.5910450 108.0797640  67.1288760 112.2545880 106.7785790  67.5270070
 109.9250070 120.9604430  52.6841950 109.2958950 121.4289530  53.2327780
 110.0397900 120.1153650  53.1188140 118.4741640 106.9917620  68.4708410
 118.3607090 107.3112230  69.3659930 119.2911380 107.3930130  68.1745690
 121.2540130 124.1389150  67.9527100 122.0465450 123.6438380  67.7453060
 121.5473280 124.8179290  68.5602710 117.3799790 115.0110090  38.8343150
 117.2993840 114.0964700  38.5634860 116.9664210 115.5077160  38.1282860
 115.5117830 116.7889110  40.7152420 114.7359930 116.3089550  41.0050990
 116.1630760 116.1094760  40.5408580 119.5325260 121.1949300  39.4951550
 119.0706790 120.4236540  39.8238720 120.3450810 121.2215370  40.0004000
 107.9375610 112.0610810  35.3770570 107.0492310 112.4026780  35.2750450
 108.2216800 111.8611130  34.4851400 115.7588570 123.4807310  39.1155540
 115.1400010 123.9364810  38.5449980 116.6140350 123.6358770  38.7145240
 114.9526820 119.4646300  40.7222580 114.8835100 118.5236240  40.5611710
 115.7146680 119.5547710  41.2945150 116.6251920 118.3646550  36.5087450
 116.0069190 118.8296000  35.9450170 117.1375170 119.0574030  36.9256960
 121.6180370 121.3242630  42.9174870 120.9343890 121.9941740  42.9091540
 122.1574660 121.5223280  42.1519730 123.0704510 111.1522290  41.0456600
 122.1229420 111.1861270  41.1772030 123.3954500 111.9661240  41.4305960
 119.1539110 123.1686760  41.6320050 119.1666270 122.7649050  40.7642310
 118.6014330 123.9434050  41.5281480 120.4484530 119.8902980  36.7210220
 120.3380860 118.9477310  36.8459640 120.4452780 120.2518620  37.6072980
 118.5524550 118.0716600  42.9602660 118.9693340 117.8576710  42.1256120
 119.2764370 118.3289390  43.5311280 115.9904810 115.5168300  36.0772710
 115.0634090 115.4505680  36.3061180 116.1429630 116.4548430  35.9627950
 115.9773890 111.7885300  33.0739870 115.0377560 111.9499260  33.1592330
 116.2957150 112.5070980  32.5275860 122.4986650 116.4703820  43.0518900
 121.6705280 116.5396910  42.5769030 123.0937130 117.0558130  42.5834730
 120.0202100 117.0788600  36.5807960 119.4014520 116.7408150  35.9334260
 120.0026550 116.4348360  37.2887150 119.4628660 113.2573140  43.9973770
 119.0499840 114.0826850  44.2513760 118.7304610 112.6718180  43.8050130
 111.5961450 116.0433040  38.8592440 111.1918450 115.3310290  38.3638340
 111.6824570 115.6986280  39.7480480 112.0643150 119.7300600  41.0231650
 111.7671440 119.1246070  40.3439430 113.0142970 119.7677910  40.9121010
 120.1528760 123.3032470  44.6854750 119.6759320 124.1104660  44.4927360
 119.4690550 122.6510800  44.8380960 118.1966800 116.3175410  33.5880710
 118.6360080 115.4797840  33.4418530 118.9095220 116.9504810  33.6744850
 116.3062180 121.2571480  37.5561950 116.7458090 121.9995810  37.1417340
 116.2449070 121.4998050  38.4800910 121.7783940 107.5718220  31.9021750
 121.4656600 107.6645050  32.8020820 122.5396410 108.1499250  31.8519180
 108.2966080 114.9378020  36.3599090 108.1763680 115.6640110  35.7480360
 107.9866970 114.1680930  35.8827000 123.7327970 123.0644410  49.7546140
 124.2087690 123.5427300  50.4335220 124.3535130 122.9961900  49.0291640
 107.1799080 119.8093350  38.5773910 106.7727160 119.9507940  37.7227510
 108.0712090 119.5253510  38.3745120 123.1361220 120.2557260  46.9146150
 123.2624280 120.0169140  45.9963330 123.1782600 119.4241800  47.3868230
 116.9977960 123.9585260  45.4840960 117.5122630 123.8693270  46.2863390
 116.1547040 124.3044960  45.7768870 118.9732360 124.2440600  34.9124960
 118.8133500 123.9543540  35.8106790 118.8079070 123.4680730  34.3770190
 111.4520740 124.0239130  36.6896580 111.2763220 123.1074670  36.4764380
 110.5976480 124.3826420  36.9294380 118.6758490 121.7528160  33.4722960
 117.9823650 121.7505450  32.8125240 119.4181350 121.3287480  33.0417130
 118.2408420 123.3790870  37.5471450 118.6965370 122.5980250  37.8610070
 118.5800940 124.0897690  38.0912630 120.0504060 112.3690560  46.4754740
 119.1997650 112.0696310  46.7963810 119.8905850 112.6132570  45.5638560
 117.1453770 113.8692310  48.5753530 117.4707180 113.0356060  48.2355760
 117.9334100 114.3920830  48.7231860 110.5543960 113.4046660  37.4704010
 110.3284880 113.1883830  38.3750630 109.7736490 113.8375120  37.1249980
 117.7841720 113.4110030  36.0694660 117.1850610 114.1345830  35.8858280
 118.3321330 113.3486810  35.2871110 112.9943170 114.3032240  48.1364280
 112.8986770 113.3626970  47.9864680 113.8375150 114.5247310  47.7412350
 108.1253710 110.7145910  46.2898060 107.7317100 111.5621120  46.4970840
 107.4372110 110.0772280  46.4806700 105.6140990 112.5794490  31.5330860
 105.5315660 113.5225250  31.6745850 105.2624050 112.4369400  30.6543210
 116.9761730 114.6379320  42.1948720 116.2442850 115.1466130  42.5438820
 116.5786070 113.8209300  41.8937500 113.4759270 112.3145600  33.5907970
 113.5972090 112.2732080  34.5393790 113.0907780 113.1769750  33.4354700
 112.4880770 114.6246740  32.9891270 111.9197670 114.1764990  32.3627180
 113.1969770 114.9839520  32.4556420 113.7147090 115.3735300  42.3466620
 114.0817220 114.8993870  43.0927960 113.5252150 116.2476870  42.6874960
 111.5046460 114.4143940  44.6650830 111.2003530 115.2935920  44.8901190
 112.4592920 114.4743730  44.7008270 110.0328250 118.6204930  35.2617680
 109.2590510 118.0802550  35.1016400 110.7622880 118.1011540  34.9235440
 120.7916230 117.6170290  41.0544070 121.5115350 118.1125580  40.6640180
 120.5898050 116.9388180  40.4097940 116.1735030 117.6879350  46.9413070
 116.1072340 116.7675020  46.6870660 115.5440170 117.7854790  47.6557710
 118.9674560 113.3827900  33.4935620 119.8554180 113.6945130  33.3186960
 118.9379650 112.5100150  33.1016200 114.9635150 119.5551590  34.1723790
 115.3050850 120.2993820  33.6767110 114.1347860 119.8682710  34.5348620
 110.7623310 115.7130920  48.6961740 110.4623450 115.8588100  47.7989560
 111.5334550 115.1536210  48.6035130 116.1051760 120.5099920  46.6916870
 116.1196300 119.5780880  46.4735780 115.3976860 120.5959680  47.3306640
 121.2388830 114.6939740  32.9615480 121.1552550 115.1253960  32.1111920
 121.9583020 115.1538090  33.3942300 122.3162970 117.1507260  46.0385450
 121.5911160 117.7436040  45.8414840 122.8438430 117.1430800  45.2398820
 122.2676080 121.5482000  35.6897610 121.6252240 120.8937620  35.9641330
 121.8806740 121.9537090  34.9138280 117.8462560 118.8767430  39.5369300
 118.1986380 118.2795560  38.8770670 116.9624890 118.5511660  39.7077550
 113.9325840 119.6365120  36.9439710 114.6196970 120.1834330  37.3247300
 113.1458260 120.1805850  36.9789320 106.0718240 115.2537940  32.4356790
 106.9413090 115.5362740  32.7192710 105.5808560 116.0673810  32.3205600
 113.2353050 116.6411150  36.5565070 113.6915830 117.4516400  36.7825260
 112.8841260 116.3234290  37.3883560 115.5385660 122.1517490  43.7857370
 116.1827880 122.3576870  44.4630790 115.9015100 121.3905890  43.3328220
 116.8117740 120.1549840  42.5034820 117.4539970 119.4543000  42.6166990
 117.3367090 120.9348280  42.3231710 120.6573460 120.4398460  32.2273960
 120.4311040 119.7228900  32.8198600 120.2669660 120.1910900  31.3895710
 118.5855360 120.9544740  45.7070880 118.9211600 121.5411430  46.3848800
 117.6655700 120.8237450  45.9368670 106.4389490 124.4665320  33.0018420
 106.7987130 125.0654660  32.3475690 106.2981830 125.0125210  33.7753450
 106.1358760 108.7439920  46.4894290 105.4217280 108.9436840  47.0946900
 106.5553800 107.9679490  46.8609090 120.2389710 118.3570400  33.8888120
 119.9511410 118.8183090  34.6766000 121.0341880 117.8968170  34.1572340
 114.4143940 121.0036070  48.8758940 114.0940810 120.2845310  49.4204630
 113.7402300 121.6791140  48.9495000 112.4558110 121.8496520  33.8192090
 112.4468210 122.5826210  33.2036600 111.5356470 121.6028100  33.9119050
 108.0564750 117.0711410  34.5638850 107.4492700 117.8110310  34.5734150
 108.5314100 117.1610770  33.7377050 117.6297540 111.2362230  44.2395740
 117.9978360 110.4157440  44.5675310 116.7695740 111.2964120  44.6551390
 120.9959570 110.1919170  35.0483300 120.3672730 110.2964840  34.3341530
 120.5011490 110.4115950  35.8377180 115.4417710 121.9124760  32.4817280
 115.5429690 121.7088750  31.5519260 114.5419450 121.6583040  32.6865060
 114.5899530 113.8901820  44.4633710 115.0884780 114.3647640  45.1285560
 114.7322480 112.9665340  44.6703740 114.0835820 124.4311080  37.1764950
 114.3377320 124.3932470  36.2544320 113.1348300 124.3044410  37.1693200
 111.1678620 110.7790200  33.8391890 112.0169150 111.2160350  33.7732080
 110.8009890 111.0910460  34.6663950 120.0888400 115.3502960  38.7523460
 119.1478540 115.3653190  38.9271150 120.4032470 114.5638920  39.1983760
 110.0670040 117.0322560  32.3127420 110.8333310 116.9203920  32.8752850
 110.1444730 116.3360530  31.6604190 108.7616800 114.4647630  32.9960310
 108.8420390 113.5175140  33.1077710 109.6536550 114.7954510  33.1020970
 122.0913980 122.5211810  40.4277720 122.2161400 123.3442980  40.9001530
 122.9579540 122.3102540  40.0801870 109.5631510 124.6143020  40.0994850
 110.2993990 124.0658480  40.3703420 109.9472430 125.4799030  39.9600840
 112.6733820 123.7873330  31.9220420 113.4662430 124.0762160  31.4702210
 112.1538170 123.3565500  31.2432900 117.4054420 119.9068960  49.2355840
 116.7992580 119.9300560  48.4951590 117.1008530 119.1752000  49.7723090
 118.8354790 123.6349250  47.8465250 119.7876540 123.5507270  47.7965490
 118.6883010 124.2990960  48.5199040 121.7263990 123.0143460  33.3457160
 121.4405500 122.6008600  32.5311340 121.5283540 123.9431170  33.2257680
 106.2887600 116.2862550  48.2316480 106.7926620 115.7069830  48.8032710
 105.5495020 116.5702780  48.7692850 113.1911220 119.0076740  31.7862770
 113.0861860 118.3929090  32.5124150 113.0235440 118.4842630  31.0025780
 116.4313950 118.0696770  32.3904760 115.8824050 118.5166070  33.0347500
 117.0533210 117.5646020  32.9142430 120.4848890 119.4238870  48.3227020
 121.2258360 119.7614630  47.8194480 119.7221570 119.5930930  47.7696790
 108.3210680 114.4292140  49.1266550 108.3616020 114.1306010  50.0351780
 109.1756180 114.8299750  48.9674070 112.0989070 117.0287690  34.2870060
 112.5205490 116.8627560  35.1301450 112.2239910 116.2187920  33.7925200
 110.2616490 113.0084240  47.0941040 109.7312950 112.5175190  46.4664380
 110.9304560 113.4368440  46.5598970 114.6116710 116.0525300  31.5347160
 115.1322370 115.3374320  31.1688310 115.2585110 116.6911170  31.8347670
 119.1594550 117.4753700  46.8582230 119.5735570 117.6298780  47.7072650
 118.2245550 117.6008920  47.0208010 119.6316720 114.8149860  48.8621380
 120.2137490 114.0602180  48.7741860 119.8078490 115.3457300  48.0852860
 110.7488790 109.9746610  47.1738330 110.6545660 109.3567360  46.4489200
 110.1686180 110.7012900  46.9468240 113.9209780 117.4274180  44.8278160
 114.3397890 118.2706910  44.6554400 113.0018410 117.5646220  44.5984940
 116.2573680 115.1590360  46.2116000 116.3769890 114.5631500  46.9510840
 117.1167680 115.1960050  45.7917300 118.5961580 115.7127550  44.7878510
 118.0696800 116.2370170  44.1843650 118.9392920 116.3454940  45.4188240
 110.9947970 113.1020920  31.2328220 110.7937030 112.2388280  31.5941560
 110.8240020 113.0154280  30.2949820 109.7930770 110.2021540  31.2206100
 110.0956670 110.2088970  30.3125250 110.5325360 109.8519400  31.7173760
 114.6279410 124.9678400  46.2022540 114.5538110 125.8713540  46.5094910
 113.7258250 124.6490300  46.1744610 113.0115700 109.1456160  32.2062300
 112.6637700 108.4680150  31.6264750 113.2128470 108.6845670  33.0205690
 115.1764740 124.1336910  33.8248900 116.0715530 124.4721880  33.8467660
 115.2082370 123.4116320  33.1973180 108.8160900 119.5063960  32.0535900
 109.2535770 120.0493630  32.7093480 109.3008630 118.6810910  32.0632240
 106.0306700 122.2952990  39.5056160 106.3609710 121.4274050  39.2734800
 106.4597700 122.5011510  40.3361120 110.6268620 120.6262000  37.1658130
 110.3264160 120.5026970  38.0662040 110.5206110 119.7670590  36.7573860
 106.5196910 123.1623580  42.2437790 106.0827900 123.3424380  43.0761940
 107.0874590 123.9198200  42.1019510 122.1559090 122.6640580  46.5315100
 121.5561080 122.7233140  45.7879020 122.2852990 121.7245560  46.6611950
 123.3960540 120.4058400  31.8684810 122.5653500 120.4735050  32.3392040
 123.5732370 121.2962520  31.5651670 122.8517000 117.1505880  34.3719010
 123.6135910 117.7202530  34.4778700 122.8671370 116.5833080  35.1427320
 106.3521340 115.6743810  38.6026670 105.6970180 115.4055450  37.9586370
 107.1899290 115.5648290  38.1528650 123.8576970 118.0055980  39.2160940
 124.2285800 117.2223300  38.8096910 124.4978900 118.6945080  39.0378240
 120.8410730 119.3892560  44.6291260 120.0270570 119.8189720  44.8917050
 121.2484930 120.0010970  44.0160310 122.9036170 117.4440250  31.5291530
 123.1785010 118.3519130  31.4010750 122.7146910 117.3802780  32.4653520
 119.3011780 110.4685100  32.8245160 119.7196660 110.2816080  31.9841820
 118.9947840 109.6164150  33.1348090 122.8001510 115.3809240  36.5220960
 122.4245110 114.6137170  36.0902250 122.0704630 115.7631940  37.0095890
 122.1901130 114.5280760  46.1560480 121.9587220 114.2993510  45.2558430
 122.4505680 115.4480310  46.1105370 106.9413270 112.9705470  47.0488430
 106.0469320 112.9372230  47.3882140 107.4810820 113.1692260  47.8139680
 105.5659420 112.8842740  34.5452000 104.6623500 113.1472940  34.3703660
 106.0500040 113.1553910  33.7651960 122.0752470 113.6066730  39.8228200
 122.5989950 113.1129380  39.1918370 122.6611890 113.7417090  40.5675770
 122.2542190 113.6906600  43.3447750 121.3044900 113.6570140  43.4592740
 122.4355200 114.6006710  43.1097520 108.1086630 111.9408280  32.4546380
 108.8178330 111.5191500  31.9693660 107.3926570 112.0083510  31.8229730
 107.7560790 107.9947610  31.4949030 108.4788920 108.5356550  31.8130250
 108.0285310 107.7211030  30.6190570 121.5652440 112.8640080  35.7620610
 122.0611560 112.6310950  36.5469490 121.3668510 112.0251920  35.3458250
 122.9939600 111.5001030  38.2958290 122.8838880 111.3457070  39.2340560
 123.7547190 110.9721970  38.0533700 123.8829870 109.3308950  31.5364430
 124.8079180 109.1990130  31.3282720 123.8605660 109.4101770  32.4900880
 123.9568360 110.1019610  34.1621140 123.1619860 110.0364730  34.6914050
 124.1611640 111.0370250  34.1506490 120.8986780 124.1411160  38.1559530
 121.4945850 123.8195730  37.4793950 121.1564930 123.6682980  38.9472800
 107.1984980 107.4009470  44.1396970 106.8499800 107.8573290  44.9055150
 106.8672680 106.5066600  44.2219400 123.7659540 124.1483040  44.7070520
 123.2717820 124.5451910  43.9897650 123.1572830 123.5232250  45.1007800
 107.8705620 106.9285670  47.4147740 108.4188610 106.7473720  46.6513850
 107.9360930 106.1379780  47.9504050 121.4498990 124.7906460  41.9857260
 120.9901960 125.5422270  41.6115280 120.8211450 124.0712930  41.9272060
 111.8794710 123.0994700  41.1605390 112.3959730 122.4882060  40.6353650
 112.5292090 123.6023480  41.6516400 114.6190210 123.9903190  41.9874370
 114.9068020 123.7357490  41.1107380 115.1313430 123.4380550  42.5779940
 122.2526860 108.0631730  38.6228790 122.1915260 107.1192950  38.4759810
 123.0318890 108.1711820  39.1682250 106.5579610 124.2024090  37.5852740
 106.3901650 123.5694770  38.2834630 105.6914120 124.4083490  37.2346930
 108.1642310 122.8957320  35.0302880 107.6389930 123.2765350  34.3264840
 108.0886890 123.5208090  35.7512590 109.5532780 108.5604920  33.6286570
 110.0825540 107.7734720  33.4994520 110.1861100 109.2396110  33.8622100
 114.6862570 124.9119290  49.3542570 115.6129880 124.6763560  49.3978530
 114.6713000 125.7391290  48.8728600 122.9207630 124.4544860  36.3516820
 123.0959820 123.7682600  35.7077740 122.2229200 124.9791910  35.9593490
 110.7635280 124.8439700  33.9052130 111.4954100 124.5598980  33.3576020
 111.0228950 124.6052980  34.7951510 109.9250070 120.9604430  33.9098460
 109.2958950 121.4289530  34.4584290 110.0397900 120.1153650  34.3444650
 121.2540130 124.1389150  49.1783610 122.0465450 123.6438380  48.9709570
 121.5473280 124.8179290  49.7859220 117.3799790 115.0110090  20.0599660
 117.2993840 114.0964700  19.7891370 116.9664210 115.5077160  19.3539370
 115.5117830 116.7889110  21.9408930 114.7359930 116.3089550  22.2307500
 116.1630760 116.1094760  21.7665090 109.5283660 117.1008920  22.8184690
 108.6968540 116.8457630  23.2181200 110.1364640 117.1719690  23.5542610
 119.5325260 121.1949300  20.7208060 119.0706790 120.4236540  21.0495230
 120.3450810 121.2215370  21.2260510 109.5084920 121.1349010  23.0142710
 109.8112960 120.2446750  22.8352930 110.2528510 121.6919230  22.7864960
 107.9375610 112.0610810  16.6027080 107.0492310 112.4026780  16.5006960
 108.2216800 111.8611130  15.7107910 105.9008620 114.6616460  22.4866780
 106.4724730 113.8938660  22.4870420 105.9010160 114.9605220  21.5773390
 115.7588570 123.4807310  20.3412050 115.1400010 123.9364810  19.7706490
 116.6140350 123.6358770  19.9401750 114.9526820 119.4646300  21.9479090
 114.8835100 118.5236240  21.7868220 115.7146680 119.5547710  22.5201660
 107.1433490 110.0700820  24.2735710 106.9636330 109.1726570  24.5538470
 106.7413570 110.6172690  24.9482660 115.9831990 112.2716680  22.1748020
 116.3596810 111.3988560  22.0621690 115.8851500 112.6075380  21.2838460
 110.1137000 110.6442310  17.6365460 110.2203750 111.5446040  17.9434220
 109.2029360 110.5960280  17.3460110 119.7656110 109.7667120  19.1076360
 120.5865730 109.2763690  19.1501840 119.7990190 110.3564780  19.8608200
 107.7620160 112.5661320  22.8818050 108.4430270 112.8299690  23.5005450
 107.4468210 111.7262190  23.2156060 111.9544730 113.6128680  21.9690640
 112.4622950 114.1109650  22.6095660 112.4857970 112.8363880  21.7930000
 124.0555660 111.7833870  25.6719990 123.3507830 112.1715580  25.1535100
 124.3213580 112.4784160  26.2740920 110.2380830 108.2527240  26.2354060
 110.2399270 108.7699630  25.4299960 109.4085140 107.7757420  26.2123990
 116.6251920 118.3646550  17.7343960 116.0069190 118.8296000  17.1706680
 117.1375170 119.0574030  18.1513470 111.4883680 117.8922420  24.4127560
 111.1553060 118.5191340  25.0548630 111.6650360 118.4184300  23.6329230
 120.0017590 111.7067500  21.8803900 119.2973160 111.9952390  22.4607010
 120.3629750 112.5167610  21.5203460 109.9196160 109.9637200  24.2424510
 110.2612970 110.8079250  23.9478380 108.9811970 110.1120940  24.3589850
 110.7002780 119.8603220  26.2276740 111.3176780 120.5354300  25.9461190
 109.8395900 120.2691200  26.1364240 105.9935120 119.0503080  15.1083590
 105.6163100 119.5390180  14.3768490 106.2508190 119.7228360  15.7390120
 121.6180370 121.3242630  24.1431380 120.9343890 121.9941740  24.1348050
 122.1574660 121.5223280  23.3776240 123.0704510 111.1522290  22.2713110
 122.1229420 111.1861270  22.4028540 123.3954500 111.9661240  22.6562470
 113.6024050 107.4519470  20.5669100 113.9099030 106.8966360  19.8504600
 112.6724750 107.5863930  20.3842090 119.1539110 123.1686760  22.8576560
 119.1666270 122.7649050  21.9898820 118.6014330 123.9434050  22.7537990
 120.4484530 119.8902980  17.9466730 120.3380860 118.9477310  18.0716150
 120.4452780 120.2518620  18.8329490 118.5524550 118.0716600  24.1859170
 118.9693340 117.8576710  23.3512630 119.2764370 118.3289390  24.7567790
 115.9904810 115.5168300  17.3029220 115.0634090 115.4505680  17.5317690
 116.1429630 116.4548430  17.1884460 115.9773890 111.7885300  14.2996380
 115.0377560 111.9499260  14.3848840 116.2957150 112.5070980  13.7532370
 122.4986650 116.4703820  24.2775410 121.6705280 116.5396910  23.8025540
 123.0937130 117.0558130  23.8091240 120.0202100 117.0788600  17.8064470
 119.4014520 116.7408150  17.1590770 120.0026550 116.4348360  18.5143660
 119.4628660 113.2573140  25.2230280 119.0499840 114.0826850  25.4770270
 118.7304610 112.6718180  25.0306640 111.5961450 116.0433040  20.0848950
 111.1918450 115.3310290  19.5894850 111.6824570 115.6986280  20.9736990
 112.0643150 119.7300600  22.2488160 111.7671440 119.1246070  21.5695940
 113.0142970 119.7677910  22.1377520 110.3090070 112.8176250  23.8647990
 110.8604660 112.9271590  23.0901240 110.8233580 113.1913850  24.5803220
 120.1528760 123.3032470  25.9111260 119.6759320 124.1104660  25.7183870
 119.4690550 122.6510800  26.0637470 111.1561580 119.4682290  28.8995960
 110.2590110 119.6922260  29.1469360 111.1814450 119.5917230  27.9507360
 118.1966800 116.3175410  14.8137220 118.6360080 115.4797840  14.6675040
 118.9095220 116.9504810  14.9001360 109.9832800 116.3395610  27.4753330
 109.8440570 117.2118410  27.8440730 109.1014160 115.9968420  27.3301270
 116.3062180 121.2571480  18.7818460 116.7458090 121.9995810  18.3673850
 116.2449070 121.4998050  19.7057420 111.7813150 122.2817310  29.6838480
 111.7528580 122.6860260  28.8166910 111.6178120 121.3527670  29.5210080
 121.7783940 107.5718220  13.1278260 121.4656600 107.6645050  14.0277330
 122.5396410 108.1499250  13.0775690 108.2966080 114.9378020  17.5855600
 108.1763680 115.6640110  16.9736870 107.9866970 114.1680930  17.1083510
 123.7327970 123.0644410  30.9802650 124.2087690 123.5427300  31.6591730
 124.3535130 122.9961900  30.2548150 105.9351450 118.1093160  23.3924240
 106.0131870 118.2441930  22.4479960 106.5493130 117.4009050  23.5852360
 107.1799080 119.8093350  19.8030420 106.7727160 119.9507940  18.9484020
 108.0712090 119.5253510  19.6001630 123.1361220 120.2557260  28.1402660
 123.2624280 120.0169140  27.2219840 123.1782600 119.4241800  28.6124740
 116.9977960 123.9585260  26.7097470 117.5122630 123.8693270  27.5119900
 116.1547040 124.3044960  27.0025380 118.9732360 124.2440600  16.1381470
 118.8133500 123.9543540  17.0363300 118.8079070 123.4680730  15.6026700
 111.4520740 124.0239130  17.9153090 111.2763220 123.1074670  17.7020890
 110.5976480 124.3826420  18.1550890 118.6758490 121.7528160  14.6979470
 117.9823650 121.7505450  14.0381750 119.4181350 121.3287480  14.2673640
 118.2408420 123.3790870  18.7727960 118.6965370 122.5980250  19.0866580
 118.5800940 124.0897690  19.3169140 122.9885230 112.3089720  29.1052400
 122.3729500 112.8169390  28.5767860 122.6681650 111.4088050  29.0478340
 105.9910970 119.1507330  25.9318700 106.1542010 118.6812690  25.1138070
 106.4563420 118.6430890  26.5967540 110.7629740 108.2813090  20.9679270
 110.3197890 109.0622630  20.6363790 111.3214730 108.6042980  21.6750210
 115.0499550 111.1481610  26.5714590 114.5878920 111.3564630  27.3834530
 114.6477660 110.3340960  26.2685260 120.0504060 112.3690560  27.7011250
 119.1997650 112.0696310  28.0220320 119.8905850 112.6132570  26.7895070
 117.1453770 113.8692310  29.8010040 117.4707180 113.0356060  29.4612270
 117.9334100 114.3920830  29.9488370 113.8788560 107.9023790  15.8485100
 113.2542740 107.8983660  16.5738410 113.7918680 107.0354750  15.4521070
 112.8005640 108.8260420  22.8268870 113.0977970 109.7323250  22.7460890
 113.3491200 108.3379200  22.2128440 110.5543960 113.4046660  18.6960520
 110.3284880 113.1883830  19.6007140 109.7736490 113.8375120  18.3506490
 117.7841720 113.4110030  17.2951170 117.1850610 114.1345830  17.1114790
 118.3321330 113.3486810  16.5127620 112.9943170 114.3032240  29.3620790
 112.8986770 113.3626970  29.2121190 113.8375150 114.5247310  28.9668860
 116.3906590 112.0473570  19.3254450 116.7836160 112.3645770  18.5123140
 116.7523440 111.1685450  19.4398970 108.1253710 110.7145910  27.5154570
 107.7317100 111.5621120  27.7227350 107.4372110 110.0772280  27.7063210
 114.6998760 110.7980880  30.5851310 114.0097080 110.6053080  31.2197400
 115.4431060 111.0815520  31.1175610 105.4270760 108.6374370  21.5484650
 105.1383810 109.2077230  22.2609630 106.1716520 108.1578820  21.9115880
 105.6140990 112.5794490  12.7587370 105.5315660 113.5225250  12.9002360
 105.2624050 112.4369400  11.8799720 116.9761730 114.6379320  23.4205230
 116.2442850 115.1466130  23.7695330 116.5786070 113.8209300  23.1194010
 113.4139120 111.3133520  21.8257720 113.4175180 110.8723470  20.9762260
 114.3090240 111.6350850  21.9329540 109.2641500 111.1960010  20.7851930
 108.9241550 111.6735240  21.5418980 108.5018820 110.7425130  20.4253030
 113.4759270 112.3145600  14.8164480 113.5972090 112.2732080  15.7650300
 113.0907780 113.1769750  14.6611210 117.4387640 110.0913000  22.8328170
 117.4560380 110.5421650  23.6770020 117.1903220 109.1918640  23.0461610
 112.4880770 114.6246740  14.2147780 111.9197670 114.1764990  13.5883690
 113.1969770 114.9839520  13.6812930 120.8658390 107.5045180  28.6714550
 121.1904160 106.7734840  29.1972530 120.9014900 107.1858820  27.7695540
 107.5649950 118.5258760  28.0914510 107.1804740 117.8852430  28.6897470
 107.8762140 119.2294880  28.6609240 113.7147090 115.3735300  23.5723130
 114.0817220 114.8993870  24.3184470 113.5252150 116.2476870  23.9131470
 106.5787580 110.1178990  19.7016600 106.2934500 109.7534660  20.5395220
 106.5166440 109.3859450  19.0879740 111.5046460 114.4143940  25.8907340
 111.2003530 115.2935920  26.1157700 112.4592920 114.4743730  25.9264780
 110.0328250 118.6204930  16.4874190 109.2590510 118.0802550  16.3272910
 110.7622880 118.1011540  16.1491950 120.7916230 117.6170290  22.2800580
 121.5115350 118.1125580  21.8896690 120.5898050 116.9388180  21.6354450
 116.2526170 109.0108250  16.4229970 115.4390780 108.5121420  16.3475280
 116.0588120 109.8506500  16.0066320 116.1735030 117.6879350  28.1669580
 116.1072340 116.7675020  27.9127170 115.5440170 117.7854790  28.8814220
 118.9674560 113.3827900  14.7192130 119.8554180 113.6945130  14.5443470
 118.9379650 112.5100150  14.3272710 110.0765650 118.2885310  20.1253000
 110.5944320 117.4853570  20.0709890 109.6249670 118.2264450  20.9669830
 114.9635150 119.5551590  15.3980300 115.3050850 120.2993820  14.9023620
 114.1347860 119.8682710  15.7605130 107.5610190 115.2546680  27.0378700
 107.2025130 115.9200530  27.6252040 107.2664750 114.4230230  27.4091320
 110.7623310 115.7130920  29.9218250 110.4623450 115.8588100  29.0246070
 111.5334550 115.1536210  29.8291640 116.1051760 120.5099920  27.9173380
 116.1196300 119.5780880  27.6992290 115.3976860 120.5959680  28.5563150
 121.2388830 114.6939740  14.1871990 121.1552550 115.1253960  13.3368430
 121.9583020 115.1538090  14.6198810 122.3162970 117.1507260  27.2641960
 121.5911160 117.7436040  27.0671350 122.8438430 117.1430800  26.4655330
 122.2676080 121.5482000  16.9154120 121.6252240 120.8937620  17.1897840
 121.8806740 121.9537090  16.1394790 117.8462560 118.8767430  20.7625810
 118.1986380 118.2795560  20.1027180 116.9624890 118.5511660  20.9334060
 113.9325840 119.6365120  18.1696220 114.6196970 120.1834330  18.5503810
 113.1458260 120.1805850  18.2045830 106.0718240 115.2537940  13.6613300
 106.9413090 115.5362740  13.9449220 105.5808560 116.0673810  13.5462110
 113.2353050 116.6411150  17.7821580 113.6915830 117.4516400  18.0081770
 112.8841260 116.3234290  18.6140070 115.5385660 122.1517490  25.0113880
 116.1827880 122.3576870  25.6887300 115.9015100 121.3905890  24.5584730
 109.1364830 106.9848800  18.2544100 109.0079460 106.9766700  19.2029020
 108.3126850 107.3231890  17.9035110 116.8117740 120.1549840  23.7291330
 117.4539970 119.4543000  23.8423500 117.3367090 120.9348280  23.5488220
 120.6573460 120.4398460  13.4530470 120.4311040 119.7228900  14.0455110
 120.2669660 120.1910900  12.6152220 118.5855360 120.9544740  26.9327390
 118.9211600 121.5411430  27.6105310 117.6655700 120.8237450  27.1625180
 106.4389490 124.4665320  14.2274930 106.7987130 125.0654660  13.5732200
 106.2981830 125.0125210  15.0009960 106.1358760 108.7439920  27.7150800
 105.4217280 108.9436840  28.3203410 106.5553800 107.9679490  28.0865600
 120.2389710 118.3570400  15.1144630 119.9511410 118.8183090  15.9022510
 121.0341880 117.8968170  15.3828850 106.4231350 122.7320180  28.7017330
 106.5322470 121.7914920  28.5612720 105.7711910 122.9974930  28.0531060
 114.4143940 121.0036070  30.1015450 114.0940810 120.2845310  30.6461140
 113.7402300 121.6791140  30.1751510 112.4558110 121.8496520  15.0448600
 112.4468210 122.5826210  14.4293110 111.5356470 121.6028100  15.1375560
 108.0564750 117.0711410  15.7895360 107.4492700 117.8110310  15.7990660
 108.5314100 117.1610770  14.9633560 117.6297540 111.2362230  25.4652250
 117.9978360 110.4157440  25.7931820 116.7695740 111.2964120  25.8807900
 120.9959570 110.1919170  16.2739810 120.3672730 110.2964840  15.5598040
 120.5011490 110.4115950  17.0633690 115.4417710 121.9124760  13.7073790
 115.5429690 121.7088750  12.7775770 114.5419450 121.6583040  13.9121570
 112.9643600 112.4705120  17.6897690 112.2559750 112.9391460  18.1311300
 113.2488080 111.8127130  18.3242880 114.5899530 113.8901820  25.6890220
 115.0884780 114.3647640  26.3542070 114.7322480 112.9665340  25.8960250
 116.9959030 109.1955780  19.1293480 116.8726810 109.2141910  18.1802990
 117.9443590 109.2434720  19.2491880 114.0835820 124.4311080  18.4021460
 114.3377320 124.3932470  17.4800830 113.1348300 124.3044410  18.3949710
 111.1678620 110.7790200  15.0648400 112.0169150 111.2160350  14.9988590
 110.8009890 111.0910460  15.8920460 121.7966390 110.1069780  26.5318610
 121.2939990 110.8475180  26.8712420 122.6123050 110.4953780  26.2155400
 120.0888400 115.3502960  19.9779970 119.1478540 115.3653190  20.1527660
 120.4032470 114.5638920  20.4240270 110.0670040 117.0322560  13.5383930
 110.8333310 116.9203920  14.1009360 110.1444730 116.3360530  12.8860700
 108.7616800 114.4647630  14.2216820 108.8420390 113.5175140  14.3334220
 109.6536550 114.7954510  14.3277480 122.0913980 122.5211810  21.6534230
 122.2161400 123.3442980  22.1258040 122.9579540 122.3102540  21.3058380
 109.5631510 124.6143020  21.3251360 110.2993990 124.0658480  21.5959930
 109.9472430 125.4799030  21.1857350 106.4476990 120.6816590  17.1992870
 105.5216770 120.9237730  17.1898280 106.9133420 121.5090850  17.0777620
 108.5689790 123.7989090  30.5136940 109.3702520 124.1201140  30.9272340
 108.0541610 123.4384670  31.2356850 112.6733820 123.7873330  13.1476930
 113.4662430 124.0762160  12.6958720 112.1538170 123.3565500  12.4689410
 117.4054420 119.9068960  30.4612350 116.7992580 119.9300560  29.7208100
 117.1008530 119.1752000  30.9979600 118.8354790 123.6349250  29.0721760
 119.7876540 123.5507270  29.0222000 118.6883010 124.2990960  29.7455550
 121.7263990 123.0143460  14.5713670 121.4405500 122.6008600  13.7567850
 121.5283540 123.9431170  14.4514190 106.2887600 116.2862550  29.4572990
 106.7926620 115.7069830  30.0289220 105.5495020 116.5702780  29.9949360
 113.1911220 119.0076740  13.0119280 113.0861860 118.3929090  13.7380660
 113.0235440 118.4842630  12.2282290 113.3425540 117.6933540  28.9908510
 112.5771210 118.2618540  28.9063180 113.5241500 117.4009750  28.0976740
 116.4313950 118.0696770  13.6161270 115.8824050 118.5166070  14.2604010
 117.0533210 117.5646020  14.1398940 120.4848890 119.4238870  29.5483530
 121.2258360 119.7614630  29.0450990 119.7221570 119.5930930  28.9953300
 108.3210680 114.4292140  30.3523060 108.3616020 114.1306010  31.2608290
 109.1756180 114.8299750  30.1930580 112.0989070 117.0287690  15.5126570
 112.5205490 116.8627560  16.3557960 112.2239910 116.2187920  15.0181710
 110.2616490 113.0084240  28.3197550 109.7312950 112.5175190  27.6920890
 110.9304560 113.4368440  27.7855480 114.6116710 116.0525300  12.7603670
 115.1322370 115.3374320  12.3944820 115.2585110 116.6911170  13.0604180
 119.1594550 117.4753700  28.0838740 119.5735570 117.6298780  28.9329160
 118.2245550 117.6008920  28.2464520 119.6316720 114.8149860  30.0877890
 120.2137490 114.0602180  29.9998370 119.8078490 115.3457300  29.3109370
 110.7488790 109.9746610  28.3994840 110.6545660 109.3567360  27.6745710
 110.1686180 110.7012900  28.1724750 113.5150230 108.5319850  25.4322230
 113.0667530 108.5544110  24.5867780 112.8815430 108.1338870  26.0292530
 113.9209780 117.4274180  26.0534670 114.3397890 118.2706910  25.8810910
 113.0018410 117.5646220  25.8241450 116.2573680 115.1590360  27.4372510
 116.3769890 114.5631500  28.1767350 117.1167680 115.1960050  27.0173810
 118.5961580 115.7127550  26.0135020 118.0696800 116.2370170  25.4100160
 118.9392920 116.3454940  26.6444750 110.9947970 113.1020920  12.4584730
 110.7937030 112.2388280  12.8198070 110.8240020 113.0154280  11.5206330
 111.7717200 123.7327190  27.1692400 111.2338290 124.4573250  26.8501100
 112.0251160 123.2557530  26.3789740 113.0242450 111.7011710  28.6948330
 113.6142140 111.3927560  29.3826150 112.2062690 111.2291460  28.8508230
 117.8435880 111.3177520  28.9281350 117.1551400 110.6559060  28.8631340
 118.5641900 110.8715790  29.3729810 118.4736280 107.9129150  14.9871610
 118.7538570 107.0697050  15.3431030 117.7002010 108.1452260  15.5010360
 109.7930770 110.2021540  12.4462610 110.0956670 110.2088970  11.5381760
 110.5325360 109.8519400  12.9430270 114.6279410 124.9678400  27.4279050
 114.5538110 125.8713540  27.7351420 113.7258250 124.6490300  27.4001120
 113.0115700 109.1456160  13.4318810 112.6637700 108.4680150  12.8521260
 113.2128470 108.6845670  14.2462200 115.1764740 124.1336910  15.0505410
 116.0715530 124.4721880  15.0724170 115.2082370 123.4116320  14.4229690
 108.8160900 119.5063960  13.2792410 109.2535770 120.0493630  13.9349990
 109.3008630 118.6810910  13.2888750 106.0306700 122.2952990  20.7312670
 106.3609710 121.4274050  20.4991310 106.4597700 122.5011510  21.5617630
 110.6268620 120.6262000  18.3914640 110.3264160 120.5026970  19.2918550
 110.5206110 119.7670590  17.9830370 106.5196910 123.1623580  23.4694300
 106.0827900 123.3424380  24.3018450 107.0874590 123.9198200  23.3276020
 122.1559090 122.6640580  27.7571610 121.5561080 122.7233140  27.0135530
 122.2852990 121.7245560  27.8868460 123.3960540 120.4058400  13.0941320
 122.5653500 120.4735050  13.5648550 123.5732370 121.2962520  12.7908180
 122.8517000 117.1505880  15.5975520 123.6135910 117.7202530  15.7035210
 122.8671370 116.5833080  16.3683830 106.3521340 115.6743810  19.8283180
 105.6970180 115.4055450  19.1842880 107.1899290 115.5648290  19.3785160
 123.8576970 118.0055980  20.4417450 124.2285800 117.2223300  20.0353420
 124.4978900 118.6945080  20.2634750 120.8410730 119.3892560  25.8547770
 120.0270570 119.8189720  26.1173560 121.2484930 120.0010970  25.2416820
 122.9036170 117.4440250  12.7548040 123.1785010 118.3519130  12.6267260
 122.7146910 117.3802780  13.6910030 119.3011780 110.4685100  14.0501670
 119.7196660 110.2816080  13.2098330 118.9947840 109.6164150  14.3604600
 122.8001510 115.3809240  17.7477470 122.4245110 114.6137170  17.3158760
 122.0704630 115.7631940  18.2352400 107.3897270 116.0596380  24.3686520
 107.7570310 115.9723780  25.2482540 106.8208090 115.2962930  24.2693380
 122.1901130 114.5280760  27.3816990 121.9587220 114.2993510  26.4814940
 122.4505680 115.4480310  27.3361880 106.9413270 112.9705470  28.2744940
 106.0469320 112.9372230  28.6138650 107.4810820 113.1692260  29.0396190
 120.6289200 109.7537190  30.1596690 121.5059380 109.7620590  30.5430690
 120.6410040 109.0168030  29.5489040 105.5659420 112.8842740  15.7708510
 104.6623500 113.1472940  15.5960170 106.0500040 113.1553910  14.9908470
 122.0752470 113.6066730  21.0484710 122.5989950 113.1129380  20.4174880
 122.6611890 113.7417090  21.7932280 122.2542190 113.6906600  24.5704260
 121.3044900 113.6570140  24.6849250 122.4355200 114.6006710  24.3354030
 108.1086630 111.9408280  13.6802890 108.8178330 111.5191500  13.1950170
 107.3926570 112.0083510  13.0486240 107.7560790 107.9947610  12.7205540
 108.4788920 108.5356550  13.0386760 108.0285310 107.7211030  11.8447080
 121.5652440 112.8640080  16.9877120 122.0611560 112.6310950  17.7726000
 121.3668510 112.0251920  16.5714760 107.4452980 107.2453800  22.6228160
 108.0929170 106.6951180  22.1823320 107.8654820 107.4996950  23.4443970
 122.9939600 111.5001030  19.5214800 122.8838880 111.3457070  20.4597070
 123.7547190 110.9721970  19.2790210 121.3405320 107.4395160  25.9797800
 121.9777540 108.0529300  26.3456990 121.4880210 107.4755820  25.0347030
 123.8829870 109.3308950  12.7620940 124.8079180 109.1990130  12.5539230
 123.8605660 109.4101770  13.7157390 123.9568360 110.1019610  15.3877650
 123.1619860 110.0364730  15.9170560 124.1611640 111.0370250  15.3763000
 120.8986780 124.1411160  19.3816040 121.4945850 123.8195730  18.7050460
 121.1564930 123.6682980  20.1729310 107.1984980 107.4009470  25.3653480
 106.8499800 107.8573290  26.1311660 106.8672680 106.5066600  25.4475910
 108.8049350 120.5729070  29.5306670 108.7618980 120.2021980  30.4121130
 108.9360360 121.5106640  29.6708490 112.5055380 122.1288660  25.1316390
 112.2646740 122.3963220  24.2446910 113.4458020 122.2994390  25.1867250
 114.7109800 108.5921350  28.8872900 114.6498690 109.1843180  29.6368310
 115.6510180 108.4847310  28.7423160 117.3484360 108.2491410  28.5265190
 117.9624770 108.5670700  27.8646270 117.8933920 107.7640000  29.1461050
 123.7659540 124.1483040  25.9327030 123.2717820 124.5451910  25.2154160
 123.1572830 123.5232250  26.3264310 107.8705620 106.9285670  28.6404250
 108.4188610 106.7473720  27.8770360 107.9360930 106.1379780  29.1760560
 108.6437380 123.5191320  26.6504450 108.0497700 123.3876020  27.3894490
 108.6361220 122.6829460  26.1846550 118.0892400 106.8123550  24.8534480
 117.2152240 107.1458660  24.6507410 117.9803150 106.3396730  25.6786350
 118.9964380 109.0194420  26.2376200 118.6677740 108.2046180  25.8577930
 119.9446680 108.9764230  26.1141890 121.4498990 124.7906460  23.2113770
 120.9901960 125.5422270  22.8371790 120.8211450 124.0712930  23.1528570
 108.2749610 120.8849700  25.6012490 107.5483670 120.2654990  25.5338440
 108.3358760 121.2790310  24.7310570 111.8794710 123.0994700  22.3861900
 112.3959730 122.4882060  21.8610160 112.5292090 123.6023480  22.8772910
 114.6190210 123.9903190  23.2130880 114.9068020 123.7357490  22.3363890
 115.1313430 123.4380550  23.8036450 115.8367220 107.7293390  23.7927390
 115.0539010 108.2038890  24.0724150 115.5430150 106.8248220  23.6840570
 120.3888290 108.4316490  21.8376480 120.8296380 108.3761590  20.9898080
 120.1195880 109.3474500  21.9086660 122.2526860 108.0631730  19.8485300
 122.1915260 107.1192950  19.7016320 123.0318890 108.1711820  20.3938760
 106.5579610 124.2024090  18.8109250 106.3901650 123.5694770  19.5091140
 105.6914120 124.4083490  18.4603440 107.1807630 108.0340870  16.3141110
 107.9386990 108.1469750  15.7405140 106.7184800 108.8710070  16.2684540
 113.7221440 110.1480140  19.3043420 112.9095950 109.7737030  18.9639300
 114.2263080 109.3925220  19.6064610 118.2246420 106.8122590  20.5426490
 118.8275790 107.3842800  21.0175010 117.4839410 107.3762030  20.3200390
 121.3681020 107.2144150  15.8166770 121.5631650 108.1127600  16.0834200
 120.5810890 106.9831230  16.3099720 108.1642310 122.8957320  16.2559390
 107.6389930 123.2765350  15.5521350 108.0886890 123.5208090  16.9769100
 109.5532780 108.5604920  14.8543080 110.0825540 107.7734720  14.7251030
 110.1861100 109.2396110  15.0878610 111.7470620 108.2980060  17.9088470
 111.1173360 107.5967370  18.0758600 111.2075760 109.0584190  17.6921630
 114.6862570 124.9119290  30.5799080 115.6129880 124.6763560  30.6235040
 114.6713000 125.7391290  30.0985110 122.9207630 124.4544860  17.5773330
 123.0959820 123.7682600  16.9334250 122.2229200 124.9791910  17.1850000
 111.8726180 107.5764040  30.3440960 111.5910450 108.0797640  29.5801780
 112.2545880 106.7785790  29.9783090 110.7635280 124.8439700  15.1308640
 111.4954100 124.5598980  14.5832530 111.0228950 124.6052980  16.0208020
 109.9250070 120.9604430  15.1354970 109.2958950 121.4289530  15.6840800
 110.0397900 120.1153650  15.5701160 118.4741640 106.9917620  30.9221430
 118.3607090 107.3112230  31.8172950 119.2911380 107.3930130  30.6258710
 121.2540130 124.1389150  30.4040120 122.0465450 123.6438380  30.1966080
 121.5473280 124.8179290  31.0115730 115.5117830 116.7889110   3.1665440
 114.7359930 116.3089550   3.4564010 116.1630760 116.1094760   2.9921600
 109.5283660 117.1008920   4.0441200 108.6968540 116.8457630   4.4437710
 110.1364640 117.1719690   4.7799120 119.5325260 121.1949300   1.9464570
 119.0706790 120.4236540   2.2751740 120.3450810 121.2215370   2.4517020
 109.5084920 121.1349010   4.2399220 109.8112960 120.2446750   4.0609440
 110.2528510 121.6919230   4.0121470 105.9008620 114.6616460   3.7123290
 106.4724730 113.8938660   3.7126930 105.9010160 114.9605220   2.8029900
 114.9526820 119.4646300   3.1735600 114.8835100 118.5236240   3.0124730
 115.7146680 119.5547710   3.7458170 107.1433490 110.0700820   5.4992220
 106.9636330 109.1726570   5.7794980 106.7413570 110.6172690   6.1739170
 115.9831990 112.2716680   3.4004530 116.3596810 111.3988560   3.2878200
 115.8851500 112.6075380   2.5094970 107.7620160 112.5661320   4.1074560
 108.4430270 112.8299690   4.7261960 107.4468210 111.7262190   4.4412570
 111.9544730 113.6128680   3.1947150 112.4622950 114.1109650   3.8352170
 112.4857970 112.8363880   3.0186510 124.0555660 111.7833870   6.8976500
 123.3507830 112.1715580   6.3791610 124.3213580 112.4784160   7.4997430
 110.2380830 108.2527240   7.4610570 110.2399270 108.7699630   6.6556470
 109.4085140 107.7757420   7.4380500 111.4883680 117.8922420   5.6384070
 111.1553060 118.5191340   6.2805140 111.6650360 118.4184300   4.8585740
 120.0017590 111.7067500   3.1060410 119.2973160 111.9952390   3.6863520
 120.3629750 112.5167610   2.7459970 109.9196160 109.9637200   5.4681020
 110.2612970 110.8079250   5.1734890 108.9811970 110.1120940   5.5846360
 110.7002780 119.8603220   7.4533250 111.3176780 120.5354300   7.1717700
 109.8395900 120.2691200   7.3620750 121.6180370 121.3242630   5.3687890
 120.9343890 121.9941740   5.3604560 122.1574660 121.5223280   4.6032750
 123.0704510 111.1522290   3.4969620 122.1229420 111.1861270   3.6285050
 123.3954500 111.9661240   3.8818980 119.1539110 123.1686760   4.0833070
 119.1666270 122.7649050   3.2155330 118.6014330 123.9434050   3.9794500
 118.5524550 118.0716600   5.4115680 118.9693340 117.8576710   4.5769140
 119.2764370 118.3289390   5.9824300 122.4986650 116.4703820   5.5031920
 121.6705280 116.5396910   5.0282050 123.0937130 117.0558130   5.0347750
 119.4628660 113.2573140   6.4486790 119.0499840 114.0826850   6.7026780
 118.7304610 112.6718180   6.2563150 112.0643150 119.7300600   3.4744670
 111.7671440 119.1246070   2.7952450 113.0142970 119.7677910   3.3634030
 110.3090070 112.8176250   5.0904500 110.8604660 112.9271590   4.3157750
 110.8233580 113.1913850   5.8059730 120.1528760 123.3032470   7.1367770
 119.6759320 124.1104660   6.9440380 119.4690550 122.6510800   7.2893980
 111.1561580 119.4682290  10.1252470 110.2590110 119.6922260  10.3725870
 111.1814450 119.5917230   9.1763870 109.9832800 116.3395610   8.7009840
 109.8440570 117.2118410   9.0697240 109.1014160 115.9968420   8.5557780
 111.7813150 122.2817310  10.9094990 111.7528580 122.6860260  10.0423420
 111.6178120 121.3527670  10.7466590 123.7327970 123.0644410  12.2059160
 124.2087690 123.5427300  12.8848240 124.3535130 122.9961900  11.4804660
 105.9351450 118.1093160   4.6180750 106.0131870 118.2441930   3.6736470
 106.5493130 117.4009050   4.8108870 123.1361220 120.2557260   9.3659170
 123.2624280 120.0169140   8.4476350 123.1782600 119.4241800   9.8381250
 116.9977960 123.9585260   7.9353980 117.5122630 123.8693270   8.7376410
 116.1547040 124.3044960   8.2281890 122.9885230 112.3089720  10.3308910
 122.3729500 112.8169390   9.8024370 122.6681650 111.4088050  10.2734850
 105.9910970 119.1507330   7.1575210 106.1542010 118.6812690   6.3394580
 106.4563420 118.6430890   7.8224050 110.7629740 108.2813090   2.1935780
 110.3197890 109.0622630   1.8620300 111.3214730 108.6042980   2.9006720
 115.0499550 111.1481610   7.7971100 114.5878920 111.3564630   8.6091040
 114.6477660 110.3340960   7.4941770 120.0504060 112.3690560   8.9267760
 119.1997650 112.0696310   9.2476830 119.8905850 112.6132570   8.0151580
 117.1453770 113.8692310  11.0266550 117.4707180 113.0356060  10.6868780
 117.9334100 114.3920830  11.1744880 112.8005640 108.8260420   4.0525380
 113.0977970 109.7323250   3.9717400 113.3491200 108.3379200   3.4384950
 112.9943170 114.3032240  10.5877300 112.8986770 113.3626970  10.4377700
 113.8375150 114.5247310  10.1925370 108.1253710 110.7145910   8.7411080
 107.7317100 111.5621120   8.9483860 107.4372110 110.0772280   8.9319720
 114.6998760 110.7980880  11.8107820 114.0097080 110.6053080  12.4453910
 115.4431060 111.0815520  12.3432120 105.4270760 108.6374370   2.7741160
 105.1383810 109.2077230   3.4866140 106.1716520 108.1578820   3.1372390
 116.9761730 114.6379320   4.6461740 116.2442850 115.1466130   4.9951840
 116.5786070 113.8209300   4.3450520 113.4139120 111.3133520   3.0514230
 113.4175180 110.8723470   2.2018770 114.3090240 111.6350850   3.1586050
 109.2641500 111.1960010   2.0108440 108.9241550 111.6735240   2.7675490
 108.5018820 110.7425130   1.6509540 117.4387640 110.0913000   4.0584680
 117.4560380 110.5421650   4.9026530 117.1903220 109.1918640   4.2718120
 120.8658390 107.5045180   9.8971060 121.1904160 106.7734840  10.4229040
 120.9014900 107.1858820   8.9952050 107.5649950 118.5258760   9.3171020
 107.1804740 117.8852430   9.9153980 107.8762140 119.2294880   9.8865750
 113.7147090 115.3735300   4.7979640 114.0817220 114.8993870   5.5440980
 113.5252150 116.2476870   5.1387980 111.5046460 114.4143940   7.1163850
 111.2003530 115.2935920   7.3414210 112.4592920 114.4743730   7.1521290
 120.7916230 117.6170290   3.5057090 121.5115350 118.1125580   3.1153200
 120.5898050 116.9388180   2.8610960 116.1735030 117.6879350   9.3926090
 116.1072340 116.7675020   9.1383680 115.5440170 117.7854790  10.1070730
 107.5610190 115.2546680   8.2635210 107.2025130 115.9200530   8.8508550
 107.2664750 114.4230230   8.6347830 110.7623310 115.7130920  11.1474760
 110.4623450 115.8588100  10.2502580 111.5334550 115.1536210  11.0548150
 116.1051760 120.5099920   9.1429890 116.1196300 119.5780880   8.9248800
 115.3976860 120.5959680   9.7819660 122.3162970 117.1507260   8.4898470
 121.5911160 117.7436040   8.2927860 122.8438430 117.1430800   7.6911840
 115.5385660 122.1517490   6.2370390 116.1827880 122.3576870   6.9143810
 115.9015100 121.3905890   5.7841240 116.8117740 120.1549840   4.9547840
 117.4539970 119.4543000   5.0680010 117.3367090 120.9348280   4.7744730
 118.5855360 120.9544740   8.1583900 118.9211600 121.5411430   8.8361820
 117.6655700 120.8237450   8.3881690 106.1358760 108.7439920   8.9407310
 105.4217280 108.9436840   9.5459920 106.5553800 107.9679490   9.3122110
 106.4231350 122.7320180   9.9273840 106.5322470 121.7914920   9.7869230
 105.7711910 122.9974930   9.2787570 114.4143940 121.0036070  11.3271960
 114.0940810 120.2845310  11.8717650 113.7402300 121.6791140  11.4008020
 117.6297540 111.2362230   6.6908760 117.9978360 110.4157440   7.0188330
 116.7695740 111.2964120   7.1064410 114.5899530 113.8901820   6.9146730
 115.0884780 114.3647640   7.5798580 114.7322480 112.9665340   7.1216760
 121.7966390 110.1069780   7.7575120 121.2939990 110.8475180   8.0968930
 122.6123050 110.4953780   7.4411910 122.0913980 122.5211810   2.8790740
 122.2161400 123.3442980   3.3514550 122.9579540 122.3102540   2.5314890
 109.5631510 124.6143020   2.5507870 110.2993990 124.0658480   2.8216440
 109.9472430 125.4799030   2.4113860 108.5689790 123.7989090  11.7393450
 109.3702520 124.1201140  12.1528850 108.0541610 123.4384670  12.4613360
 117.4054420 119.9068960  11.6868860 116.7992580 119.9300560  10.9464610
 117.1008530 119.1752000  12.2236110 118.8354790 123.6349250  10.2978270
 119.7876540 123.5507270  10.2478510 118.6883010 124.2990960  10.9712060
 106.2887600 116.2862550  10.6829500 106.7926620 115.7069830  11.2545730
 105.5495020 116.5702780  11.2205870 113.3425540 117.6933540  10.2165020
 112.5771210 118.2618540  10.1319690 113.5241500 117.4009750   9.3233250
 120.4848890 119.4238870  10.7740040 121.2258360 119.7614630  10.2707500
 119.7221570 119.5930930  10.2209810 108.3210680 114.4292140  11.5779570
 108.3616020 114.1306010  12.4864800 109.1756180 114.8299750  11.4187090
 110.2616490 113.0084240   9.5454060 109.7312950 112.5175190   8.9177400
 110.9304560 113.4368440   9.0111990 119.1594550 117.4753700   9.3095250
 119.5735570 117.6298780  10.1585670 118.2245550 117.6008920   9.4721030
 119.6316720 114.8149860  11.3134400 120.2137490 114.0602180  11.2254880
 119.8078490 115.3457300  10.5365880 110.7488790 109.9746610   9.6251350
 110.6545660 109.3567360   8.9002220 110.1686180 110.7012900   9.3981260
 113.5150230 108.5319850   6.6578740 113.0667530 108.5544110   5.8124290
 112.8815430 108.1338870   7.2549040 113.9209780 117.4274180   7.2791180
 114.3397890 118.2706910   7.1067420 113.0018410 117.5646220   7.0497960
 116.2573680 115.1590360   8.6629020 116.3769890 114.5631500   9.4023860
 117.1167680 115.1960050   8.2430320 118.5961580 115.7127550   7.2391530
 118.0696800 116.2370170   6.6356670 118.9392920 116.3454940   7.8701260
 111.7717200 123.7327190   8.3948910 111.2338290 124.4573250   8.0757610
 112.0251160 123.2557530   7.6046250 113.0242450 111.7011710   9.9204840
 113.6142140 111.3927560  10.6082660 112.2062690 111.2291460  10.0764740
 117.8435880 111.3177520  10.1537860 117.1551400 110.6559060  10.0887850
 118.5641900 110.8715790  10.5986320 114.6279410 124.9678400   8.6535560
 114.5538110 125.8713540   8.9607930 113.7258250 124.6490300   8.6257630
 106.0306700 122.2952990   1.9569180 106.3609710 121.4274050   1.7247820
 106.4597700 122.5011510   2.7874140 106.5196910 123.1623580   4.6950810
 106.0827900 123.3424380   5.5274960 107.0874590 123.9198200   4.5532530
 122.1559090 122.6640580   8.9828120 121.5561080 122.7233140   8.2392040
 122.2852990 121.7245560   9.1124970 120.8410730 119.3892560   7.0804280
 120.0270570 119.8189720   7.3430070 121.2484930 120.0010970   6.4673330
 107.3897270 116.0596380   5.5943030 107.7570310 115.9723780   6.4739050
 106.8208090 115.2962930   5.4949890 122.1901130 114.5280760   8.6073500
 121.9587220 114.2993510   7.7071450 122.4505680 115.4480310   8.5618390
 106.9413270 112.9705470   9.5001450 106.0469320 112.9372230   9.8395160
 107.4810820 113.1692260  10.2652700 120.6289200 109.7537190  11.3853200
 121.5059380 109.7620590  11.7687200 120.6410040 109.0168030  10.7745550
 122.0752470 113.6066730   2.2741220 122.5989950 113.1129380   1.6431390
 122.6611890 113.7417090   3.0188790 122.2542190 113.6906600   5.7960770
 121.3044900 113.6570140   5.9105760 122.4355200 114.6006710   5.5610540
 107.4452980 107.2453800   3.8484670 108.0929170 106.6951180   3.4079830
 107.8654820 107.4996950   4.6700480 121.3405320 107.4395160   7.2054310
 121.9777540 108.0529300   7.5713500 121.4880210 107.4755820   6.2603540
 107.1984980 107.4009470   6.5909990 106.8499800 107.8573290   7.3568170
 106.8672680 106.5066600   6.6732420 108.8049350 120.5729070  10.7563180
 108.7618980 120.2021980  11.6377640 108.9360360 121.5106640  10.8965000
 112.5055380 122.1288660   6.3572900 112.2646740 122.3963220   5.4703420
 113.4458020 122.2994390   6.4123760 114.7109800 108.5921350  10.1129410
 114.6498690 109.1843180  10.8624820 115.6510180 108.4847310   9.9679670
 117.3484360 108.2491410   9.7521700 117.9624770 108.5670700   9.0902780
 117.8933920 107.7640000  10.3717560 123.7659540 124.1483040   7.1583540
 123.2717820 124.5451910   6.4410670 123.1572830 123.5232250   7.5520820
 107.8705620 106.9285670   9.8660760 108.4188610 106.7473720   9.1026870
 107.9360930 106.1379780  10.4017070 108.6437380 123.5191320   7.8760960
 108.0497700 123.3876020   8.6151000 108.6361220 122.6829460   7.4103060
 118.0892400 106.8123550   6.0790990 117.2152240 107.1458660   5.8763920
 117.9803150 106.3396730   6.9042860 118.9964380 109.0194420   7.4632710
 118.6677740 108.2046180   7.0834440 119.9446680 108.9764230   7.3398400
 121.4498990 124.7906460   4.4370280 120.9901960 125.5422270   4.0628300
 120.8211450 124.0712930   4.3785080 108.2749610 120.8849700   6.8269000
 107.5483670 120.2654990   6.7594950 108.3358760 121.2790310   5.9567080
 111.8794710 123.0994700   3.6118410 112.3959730 122.4882060   3.0866670
 112.5292090 123.6023480   4.1029420 114.6190210 123.9903190   4.4387390
 114.9068020 123.7357490   3.5620400 115.1313430 123.4380550   5.0292960
 115.8367220 107.7293390   5.0183900 115.0539010 108.2038890   5.2980660
 115.5430150 106.8248220   4.9097080 120.3888290 108.4316490   3.0632990
 120.8296380 108.3761590   2.2154590 120.1195880 109.3474500   3.1343170
 118.2246420 106.8122590   1.7683000 118.8275790 107.3842800   2.2431520
 117.4839410 107.3762030   1.5456900 114.6862570 124.9119290  11.8055590
 115.6129880 124.6763560  11.8491550 114.6713000 125.7391290  11.3241620
 111.8726180 107.5764040  11.5697470 111.5910450 108.0797640  10.8058290
 112.2545880 106.7785790  11.2039600 118.4741640 106.9917620  12.1477940
 118.3607090 107.3112230  13.0429460 119.2911380 107.3930130  11.8515220
 121.2540130 124.1389150  11.6296630 122.0465450 123.6438380  11.4222590
 121.5473280 124.8179290  12.2372240 117.3799790  96.2366600 151.4804090
 117.2993840  95.3221210 151.2095800 116.9664210  96.7333670 150.7743800
 115.5117830  98.0145620 153.3613360 114.7359930  97.5346060 153.6511930
 116.1630760  97.3351270 153.1869520 119.5325260 102.4205810 152.1412490
 119.0706790 101.6493050 152.4699660 120.3450810 102.4471880 152.6464940
 109.5084920 102.3605520 154.4347140 109.8112960 101.4703260 154.2557360
 110.2528510 102.9175740 154.2069390 107.9375610  93.2867320 148.0231510
 107.0492310  93.6283290 147.9211390 108.2216800  93.0867640 147.1312340
 105.9008620  95.8872970 153.9071210 106.4724730  95.1195170 153.9074850
 105.9010160  96.1861730 152.9977820 115.7588570 104.7063820 151.7616480
 115.1400010 105.1621320 151.1910920 116.6140350 104.8615280 151.3606180
 114.9526820 100.6902810 153.3683520 114.8835100  99.7492750 153.2072650
 115.7146680 100.7804220 153.9406090 115.9831990  93.4973190 153.5952450
 116.3596810  92.6245070 153.4826120 115.8851500  93.8331890 152.7042890
 110.1137000  91.8698820 149.0569890 110.2203750  92.7702550 149.3638650
 109.2029360  91.8216790 148.7664540 119.7656110  90.9923630 150.5280790
 120.5865730  90.5020200 150.5706270 119.7990190  91.5821290 151.2812630
 111.9544730  94.8385190 153.3895070 112.4622950  95.3366160 154.0300090
 112.4857970  94.0620390 153.2134430 116.6251920  99.5903060 149.1548390
 116.0069190 100.0552510 148.5911110 117.1375170 100.2830540 149.5717900
 120.0017590  92.9324010 153.3008330 119.2973160  93.2208900 153.8811440
 120.3629750  93.7424120 152.9407890 105.9935120 100.2759590 146.5288020
 105.6163100 100.7646690 145.7972920 106.2508190 100.9484870 147.1594550
 123.0704510  92.3778800 153.6917540 122.1229420  92.4117780 153.8232970
 123.3954500  93.1917750 154.0766900 113.6024050  88.6775980 151.9873530
 113.9099030  88.1222870 151.2709030 112.6724750  88.8120440 151.8046520
 119.1539110 104.3943270 154.2780990 119.1666270 103.9905560 153.4103250
 118.6014330 105.1690560 154.1742420 120.4484530 101.1159490 149.3671160
 120.3380860 100.1733820 149.4920580 120.4452780 101.4775130 150.2533920
 115.9904810  96.7424810 148.7233650 115.0634090  96.6762190 148.9522120
 116.1429630  97.6804940 148.6088890 115.9773890  93.0141810 145.7200810
 115.0377560  93.1755770 145.8053270 116.2957150  93.7327490 145.1736800
 120.0202100  98.3045110 149.2268900 119.4014520  97.9664660 148.5795200
 120.0026550  97.6604870 149.9348090 111.5961450  97.2689550 151.5053380
 111.1918450  96.5566800 151.0099280 111.6824570  96.9242790 152.3941420
 112.0643150 100.9557110 153.6692590 111.7671440 100.3502580 152.9900370
 113.0142970 100.9934420 153.5581950 118.1966800  97.5431920 146.2341650
 118.6360080  96.7054350 146.0879470 118.9095220  98.1761320 146.3205790
 116.3062180 102.4827990 150.2022890 116.7458090 103.2252320 149.7878280
 116.2449070 102.7254560 151.1261850 121.7783940  88.7974730 144.5482690
 121.4656600  88.8901560 145.4481760 122.5396410  89.3755760 144.4980120
 108.2966080  96.1634530 149.0060030 108.1763680  96.8896620 148.3941300
 107.9866970  95.3937440 148.5287940 107.1799080 101.0349860 151.2234850
 106.7727160 101.1764450 150.3688450 108.0712090 100.7510020 151.0206060
 118.9732360 105.4697110 147.5585900 118.8133500 105.1800050 148.4567730
 118.8079070 104.6937240 147.0231130 111.4520740 105.2495640 149.3357520
 111.2763220 104.3331180 149.1225320 110.5976480 105.6082930 149.5755320
 118.6758490 102.9784670 146.1183900 117.9823650 102.9761960 145.4586180
 119.4181350 102.5543990 145.6878070 118.2408420 104.6047380 150.1932390
 118.6965370 103.8236760 150.5071010 118.5800940 105.3154200 150.7373570
 110.7629740  89.5069600 152.3883700 110.3197890  90.2879140 152.0568220
 111.3214730  89.8299490 153.0954640 113.8788560  89.1280300 147.2689530
 113.2542740  89.1240170 147.9942840 113.7918680  88.2611260 146.8725500
 112.8005640  90.0516930 154.2473300 113.0977970  90.9579760 154.1665320
 113.3491200  89.5635710 153.6332870 110.5543960  94.6303170 150.1164950
 110.3284880  94.4140340 151.0211570 109.7736490  95.0631630 149.7710920
 117.7841720  94.6366540 148.7155600 117.1850610  95.3602340 148.5319220
 118.3321330  94.5743320 147.9332050 116.3906590  93.2730080 150.7458880
 116.7836160  93.5902280 149.9327570 116.7523440  92.3941960 150.8603400
 105.4270760  89.8630880 152.9689080 105.1383810  90.4333740 153.6814060
 106.1716520  89.3835330 153.3320310 105.6140990  93.8051000 144.1791800
 105.5315660  94.7481760 144.3206790 105.2624050  93.6625910 143.3004150
 113.4139120  92.5390030 153.2462150 113.4175180  92.0979980 152.3966690
 114.3090240  92.8607360 153.3533970 109.2641500  92.4216520 152.2056360
 108.9241550  92.8991750 152.9623410 108.5018820  91.9681640 151.8457460
 113.4759270  93.5402110 146.2368910 113.5972090  93.4988590 147.1854730
 113.0907780  94.4026260 146.0815640 112.4880770  95.8503250 145.6352210
 111.9197670  95.4021500 145.0088120 113.1969770  96.2096030 145.1017360
 106.5787580  91.3435500 151.1221030 106.2934500  90.9791170 151.9599650
 106.5166440  90.6115960 150.5084170 110.0328250  99.8461440 147.9078620
 109.2590510  99.3059060 147.7477340 110.7622880  99.3268050 147.5696380
 120.7916230  98.8426800 153.7005010 121.5115350  99.3382090 153.3101120
 120.5898050  98.1644690 153.0558880 116.2526170  90.2364760 147.8434400
 115.4390780  89.7377930 147.7679710 116.0588120  91.0763010 147.4270750
 118.9674560  94.6084410 146.1396560 119.8554180  94.9201640 145.9647900
 118.9379650  93.7356660 145.7477140 110.0765650  99.5141820 151.5457430
 110.5944320  98.7110080 151.4914320 109.6249670  99.4520960 152.3874260
 114.9635150 100.7808100 146.8184730 115.3050850 101.5250330 146.3228050
 114.1347860 101.0939220 147.1809560 121.2388830  95.9196250 145.6076420
 121.1552550  96.3510470 144.7572860 121.9583020  96.3794600 146.0403240
 122.2676080 102.7738510 148.3358550 121.6252240 102.1194130 148.6102270
 121.8806740 103.1793600 147.5599220 117.8462560 100.1023940 152.1830240
 118.1986380  99.5052070 151.5231610 116.9624890  99.7768170 152.3538490
 113.9325840 100.8621630 149.5900650 114.6196970 101.4090840 149.9708240
 113.1458260 101.4062360 149.6250260 106.0718240  96.4794450 145.0817730
 106.9413090  96.7619250 145.3653650 105.5808560  97.2930320 144.9666540
 113.2353050  97.8667660 149.2026010 113.6915830  98.6772910 149.4286200
 112.8841260  97.5490800 150.0344500 109.1364830  88.2105310 149.6748530
 109.0079460  88.2023210 150.6233450 108.3126850  88.5488400 149.3239540
 120.6573460 101.6654970 144.8734900 120.4311040 100.9485410 145.4659540
 120.2669660 101.4167410 144.0356650 106.4389490 105.6921830 145.6479360
 106.7987130 106.2911170 144.9936630 106.2981830 106.2381720 146.4214390
 120.2389710  99.5826910 146.5349060 119.9511410 100.0439600 147.3226940
 121.0341880  99.1224680 146.8033280 112.4558110 103.0753030 146.4653030
 112.4468210 103.8082720 145.8497540 111.5356470 102.8284610 146.5579990
 108.0564750  98.2967920 147.2099790 107.4492700  99.0366820 147.2195090
 108.5314100  98.3867280 146.3837990 120.9959570  91.4175680 147.6944240
 120.3672730  91.5221350 146.9802470 120.5011490  91.6372460 148.4838120
 115.4417710 103.1381270 145.1278220 115.5429690 102.9345260 144.1980200
 114.5419450 102.8839550 145.3326000 112.9643600  93.6961630 149.1102120
 112.2559750  94.1647970 149.5515730 113.2488080  93.0383640 149.7447310
 116.9959030  90.4212290 150.5497910 116.8726810  90.4398420 149.6007420
 117.9443590  90.4691230 150.6696310 114.0835820 105.6567590 149.8225890
 114.3377320 105.6188980 148.9005260 113.1348300 105.5300920 149.8154140
 111.1678620  92.0046710 146.4852830 112.0169150  92.4416860 146.4193020
 110.8009890  92.3166970 147.3124890 120.0888400  96.5759470 151.3984400
 119.1478540  96.5909700 151.5732090 120.4032470  95.7895430 151.8444700
 110.0670040  98.2579070 144.9588360 110.8333310  98.1460430 145.5213790
 110.1444730  97.5617040 144.3065130 108.7616800  95.6904140 145.6421250
 108.8420390  94.7431650 145.7538650 109.6536550  96.0211020 145.7481910
 122.0913980 103.7468320 153.0738660 122.2161400 104.5699490 153.5462470
 122.9579540 103.5359050 152.7262810 109.5631510 105.8399530 152.7455790
 110.2993990 105.2914990 153.0164360 109.9472430 106.7055540 152.6061780
 106.4476990 101.9073100 148.6197300 105.5216770 102.1494240 148.6102710
 106.9133420 102.7347360 148.4982050 112.6733820 105.0129840 144.5681360
 113.4662430 105.3018670 144.1163150 112.1538170 104.5822010 143.8893840
 121.7263990 104.2399970 145.9918100 121.4405500 103.8265110 145.1772280
 121.5283540 105.1687680 145.8718620 113.1911220 100.2333250 144.4323710
 113.0861860  99.6185600 145.1585090 113.0235440  99.7099140 143.6486720
 116.4313950  99.2953280 145.0365700 115.8824050  99.7422580 145.6808440
 117.0533210  98.7902530 145.5603370 112.0989070  98.2544200 146.9331000
 112.5205490  98.0884070 147.7762390 112.2239910  97.4444430 146.4386140
 114.6116710  97.2781810 144.1808100 115.1322370  96.5630830 143.8149250
 115.2585110  97.9167680 144.4808610 110.9947970  94.3277430 143.8789160
 110.7937030  93.4644790 144.2402500 110.8240020  94.2410790 142.9410760
 118.4736280  89.1385660 146.4076040 118.7538570  88.2953560 146.7635460
 117.7002010  89.3708770 146.9214790 109.7930770  91.4278050 143.8667040
 110.0956670  91.4345480 142.9586190 110.5325360  91.0775910 144.3634700
 113.0115700  90.3712670 144.8523240 112.6637700  89.6936660 144.2725690
 113.2128470  89.9102180 145.6666630 115.1764740 105.3593420 146.4709840
 116.0715530 105.6978390 146.4928600 115.2082370 104.6372830 145.8434120
 108.8160900 100.7320470 144.6996840 109.2535770 101.2750140 145.3554420
 109.3008630  99.9067420 144.7093180 106.0306700 103.5209500 152.1517100
 106.3609710 102.6530560 151.9195740 106.4597700 103.7268020 152.9822060
 110.6268620 101.8518510 149.8119070 110.3264160 101.7283480 150.7122980
 110.5206110 100.9927100 149.4034800 123.3960540 101.6314910 144.5145750
 122.5653500 101.6991560 144.9852980 123.5732370 102.5219030 144.2112610
 122.8517000  98.3762390 147.0179950 123.6135910  98.9459040 147.1239640
 122.8671370  97.8089590 147.7888260 106.3521340  96.9000320 151.2487610
 105.6970180  96.6311960 150.6047310 107.1899290  96.7904800 150.7989590
 123.8576970  99.2312490 151.8621880 124.2285800  98.4479810 151.4557850
 124.4978900  99.9201590 151.6839180 122.9036170  98.6696760 144.1752470
 123.1785010  99.5775640 144.0471690 122.7146910  98.6059290 145.1114460
 119.3011780  91.6941610 145.4706100 119.7196660  91.5072590 144.6302760
 118.9947840  90.8420660 145.7809030 122.8001510  96.6065750 149.1681900
 122.4245110  95.8393680 148.7363190 122.0704630  96.9888450 149.6556830
 105.5659420  94.1099250 147.1912940 104.6623500  94.3729450 147.0164600
 106.0500040  94.3810420 146.4112900 122.0752470  94.8323240 152.4689140
 122.5989950  94.3385890 151.8379310 122.6611890  94.9673600 153.2136710
 108.1086630  93.1664790 145.1007320 108.8178330  92.7448010 144.6154600
 107.3926570  93.2340020 144.4690670 107.7560790  89.2204120 144.1409970
 108.4788920  89.7613060 144.4591190 108.0285310  88.9467540 143.2651510
 121.5652440  94.0896590 148.4081550 122.0611560  93.8567460 149.1930430
 121.3668510  93.2508430 147.9919190 122.9939600  92.7257540 150.9419230
 122.8838880  92.5713580 151.8801500 123.7547190  92.1978480 150.6994640
 123.8829870  90.5565460 144.1825370 124.8079180  90.4246640 143.9743660
 123.8605660  90.6358280 145.1361820 123.9568360  91.3276120 146.8082080
 123.1619860  91.2621240 147.3374990 124.1611640  92.2626760 146.7967430
 120.8986780 105.3667670 150.8020470 121.4945850 105.0452240 150.1254890
 121.1564930 104.8939490 151.5933740 111.8794710 104.3251210 153.8066330
 112.3959730 103.7138570 153.2814590 112.5292090 104.8279990 154.2977340
 120.3888290  89.6573000 153.2580910 120.8296380  89.6018100 152.4102510
 120.1195880  90.5731010 153.3291090 122.2526860  89.2888240 151.2689730
 122.1915260  88.3449460 151.1220750 123.0318890  89.3968330 151.8143190
 106.5579610 105.4280600 150.2313680 106.3901650 104.7951280 150.9295570
 105.6914120 105.6340000 149.8807870 107.1807630  89.2597380 147.7345540
 107.9386990  89.3726260 147.1609570 106.7184800  90.0966580 147.6888970
 113.7221440  91.3736650 150.7247850 112.9095950  90.9993540 150.3843730
 114.2263080  90.6181730 151.0269040 118.2246420  88.0379100 151.9630920
 118.8275790  88.6099310 152.4379440 117.4839410  88.6018540 151.7404820
 121.3681020  88.4400660 147.2371200 121.5631650  89.3384110 147.5038630
 120.5810890  88.2087740 147.7304150 108.1642310 104.1213830 147.6763820
 107.6389930 104.5021860 146.9725780 108.0886890 104.7464600 148.3973530
 109.5532780  89.7861430 146.2747510 110.0825540  88.9991230 146.1455460
 110.1861100  90.4652620 146.5083040 111.7470620  89.5236570 149.3292900
 111.1173360  88.8223880 149.4963030 111.2075760  90.2840700 149.1126060
 122.9207630 105.6801370 148.9977760 123.0959820 104.9939110 148.3538680
 122.2229200 106.2048420 148.6054430 110.7635280 106.0696210 146.5513070
 111.4954100 105.7855490 146.0036960 111.0228950 105.8309490 147.4412450
 109.9250070 102.1860940 146.5559400 109.2958950 102.6546040 147.1045230
 110.0397900 101.3410160 146.9905590 117.3799790  96.2366600 132.7060600
 117.2993840  95.3221210 132.4352310 116.9664210  96.7333670 132.0000310
 115.5117830  98.0145620 134.5869870 114.7359930  97.5346060 134.8768440
 116.1630760  97.3351270 134.4126030 109.5283660  98.3265430 135.4645630
 108.6968540  98.0714140 135.8642140 110.1364640  98.3976200 136.2003550
 119.5325260 102.4205810 133.3669000 119.0706790 101.6493050 133.6956170
 120.3450810 102.4471880 133.8721450 109.5084920 102.3605520 135.6603650
 109.8112960 101.4703260 135.4813870 110.2528510 102.9175740 135.4325900
 107.9375610  93.2867320 129.2488020 107.0492310  93.6283290 129.1467900
 108.2216800  93.0867640 128.3568850 105.9008620  95.8872970 135.1327720
 106.4724730  95.1195170 135.1331360 105.9010160  96.1861730 134.2234330
 115.7588570 104.7063820 132.9872990 115.1400010 105.1621320 132.4167430
 116.6140350 104.8615280 132.5862690 114.9526820 100.6902810 134.5940030
 114.8835100  99.7492750 134.4329160 115.7146680 100.7804220 135.1662600
 107.1433490  91.2957330 136.9196650 106.9636330  90.3983080 137.1999410
 106.7413570  91.8429200 137.5943600 115.9831990  93.4973190 134.8208960
 116.3596810  92.6245070 134.7082630 115.8851500  93.8331890 133.9299400
 110.1137000  91.8698820 130.2826400 110.2203750  92.7702550 130.5895160
 109.2029360  91.8216790 129.9921050 119.7656110  90.9923630 131.7537300
 120.5865730  90.5020200 131.7962780 119.7990190  91.5821290 132.5069140
 107.7620160  93.7917830 135.5278990 108.4430270  94.0556200 136.1466390
 107.4468210  92.9518700 135.8617000 111.9544730  94.8385190 134.6151580
 112.4622950  95.3366160 135.2556600 112.4857970  94.0620390 134.4390940
 124.0555660  93.0090380 138.3180930 123.3507830  93.3972090 137.7996040
 124.3213580  93.7040670 138.9201860 110.2380830  89.4783750 138.8815000
 110.2399270  89.9956140 138.0760900 109.4085140  89.0013930 138.8584930
 116.6251920  99.5903060 130.3804900 116.0069190 100.0552510 129.8167620
 117.1375170 100.2830540 130.7974410 111.4883680  99.1178930 137.0588500
 111.1553060  99.7447850 137.7009570 111.6650360  99.6440810 136.2790170
 120.0017590  92.9324010 134.5264840 119.2973160  93.2208900 135.1067950
 120.3629750  93.7424120 134.1664400 109.9196160  91.1893710 136.8885450
 110.2612970  92.0335760 136.5939320 108.9811970  91.3377450 137.0050790
 110.7002780 101.0859730 138.8737680 111.3176780 101.7610810 138.5922130
 109.8395900 101.4947710 138.7825180 105.9935120 100.2759590 127.7544530
 105.6163100 100.7646690 127.0229430 106.2508190 100.9484870 128.3851060
 121.6180370 102.5499140 136.7892320 120.9343890 103.2198250 136.7808990
 122.1574660 102.7479790 136.0237180 123.0704510  92.3778800 134.9174050
 122.1229420  92.4117780 135.0489480 123.3954500  93.1917750 135.3023410
 113.6024050  88.6775980 133.2130040 113.9099030  88.1222870 132.4965540
 112.6724750  88.8120440 133.0303030 119.1539110 104.3943270 135.5037500
 119.1666270 103.9905560 134.6359760 118.6014330 105.1690560 135.3998930
 120.4484530 101.1159490 130.5927670 120.3380860 100.1733820 130.7177090
 120.4452780 101.4775130 131.4790430 118.5524550  99.2973110 136.8320110
 118.9693340  99.0833220 135.9973570 119.2764370  99.5545900 137.4028730
 115.9904810  96.7424810 129.9490160 115.0634090  96.6762190 130.1778630
 116.1429630  97.6804940 129.8345400 122.4986650  97.6960330 136.9236350
 121.6705280  97.7653420 136.4486480 123.0937130  98.2814640 136.4552180
 120.0202100  98.3045110 130.4525410 119.4014520  97.9664660 129.8051710
 120.0026550  97.6604870 131.1604600 119.4628660  94.4829650 137.8691220
 119.0499840  95.3083360 138.1231210 118.7304610  93.8974690 137.6767580
 111.5961450  97.2689550 132.7309890 111.1918450  96.5566800 132.2355790
 111.6824570  96.9242790 133.6197930 112.0643150 100.9557110 134.8949100
 111.7671440 100.3502580 134.2156880 113.0142970 100.9934420 134.7838460
 110.3090070  94.0432760 136.5108930 110.8604660  94.1528100 135.7362180
 110.8233580  94.4170360 137.2264160 120.1528760 104.5288980 138.5572200
 119.6759320 105.3361170 138.3644810 119.4690550 103.8767310 138.7098410
 111.1561580 100.6938800 141.5456900 110.2590110 100.9178770 141.7930300
 111.1814450 100.8173740 140.5968300 118.1966800  97.5431920 127.4598160
 118.6360080  96.7054350 127.3135980 118.9095220  98.1761320 127.5462300
 109.9832800  97.5652120 140.1214270 109.8440570  98.4374920 140.4901670
 109.1014160  97.2224930 139.9762210 116.3062180 102.4827990 131.4279400
 116.7458090 103.2252320 131.0134790 116.2449070 102.7254560 132.3518360
 111.7813150 103.5073820 142.3299420 111.7528580 103.9116770 141.4627850
 111.6178120 102.5784180 142.1671020 121.7783940  88.7974730 125.7739200
 121.4656600  88.8901560 126.6738270 122.5396410  89.3755760 125.7236630
 108.2966080  96.1634530 130.2316540 108.1763680  96.8896620 129.6197810
 107.9866970  95.3937440 129.7544450 123.7327970 104.2900920 143.6263590
 124.2087690 104.7683810 144.3052670 124.3535130 104.2218410 142.9009090
 105.9351450  99.3349670 136.0385180 106.0131870  99.4698440 135.0940900
 106.5493130  98.6265560 136.2313300 107.1799080 101.0349860 132.4491360
 106.7727160 101.1764450 131.5944960 108.0712090 100.7510020 132.2462570
 123.1361220 101.4813770 140.7863600 123.2624280 101.2425650 139.8680780
 123.1782600 100.6498310 141.2585680 116.9977960 105.1841770 139.3558410
 117.5122630 105.0949780 140.1580840 116.1547040 105.5301470 139.6486320
 118.9732360 105.4697110 128.7842410 118.8133500 105.1800050 129.6824240
 118.8079070 104.6937240 128.2487640 111.4520740 105.2495640 130.5614030
 111.2763220 104.3331180 130.3481830 110.5976480 105.6082930 130.8011830
 118.6758490 102.9784670 127.3440410 117.9823650 102.9761960 126.6842690
 119.4181350 102.5543990 126.9134580 118.2408420 104.6047380 131.4188900
 118.6965370 103.8236760 131.7327520 118.5800940 105.3154200 131.9630080
 122.9885230  93.5346230 141.7513340 122.3729500  94.0425900 141.2228800
 122.6681650  92.6344560 141.6939280 105.9910970 100.3763840 138.5779640
 106.1542010  99.9069200 137.7599010 106.4563420  99.8687400 139.2428480
 110.7629740  89.5069600 133.6140210 110.3197890  90.2879140 133.2824730
 111.3214730  89.8299490 134.3211150 115.0499550  92.3738120 139.2175530
 114.5878920  92.5821140 140.0295470 114.6477660  91.5597470 138.9146200
 120.0504060  93.5947070 140.3472190 119.1997650  93.2952820 140.6681260
 119.8905850  93.8389080 139.4356010 117.1453770  95.0948820 142.4470980
 117.4707180  94.2612570 142.1073210 117.9334100  95.6177340 142.5949310
 112.8005640  90.0516930 135.4729810 113.0977970  90.9579760 135.3921830
 113.3491200  89.5635710 134.8589380 110.5543960  94.6303170 131.3421460
 110.3284880  94.4140340 132.2468080 109.7736490  95.0631630 130.9967430
 117.7841720  94.6366540 129.9412110 117.1850610  95.3602340 129.7575730
 118.3321330  94.5743320 129.1588560 112.9943170  95.5288750 142.0081730
 112.8986770  94.5883480 141.8582130 113.8375150  95.7503820 141.6129800
 116.3906590  93.2730080 131.9715390 116.7836160  93.5902280 131.1584080
 116.7523440  92.3941960 132.0859910 108.1253710  91.9402420 140.1615510
 107.7317100  92.7877630 140.3688290 107.4372110  91.3028790 140.3524150
 114.6998760  92.0237390 143.2312250 114.0097080  91.8309590 143.8658340
 115.4431060  92.3072030 143.7636550 105.4270760  89.8630880 134.1945590
 105.1383810  90.4333740 134.9070570 106.1716520  89.3835330 134.5576820
 105.6140990  93.8051000 125.4048310 105.5315660  94.7481760 125.5463300
 105.2624050  93.6625910 124.5260660 116.9761730  95.8635830 136.0666170
 116.2442850  96.3722640 136.4156270 116.5786070  95.0465810 135.7654950
 113.4139120  92.5390030 134.4718660 113.4175180  92.0979980 133.6223200
 114.3090240  92.8607360 134.5790480 109.2641500  92.4216520 133.4312870
 108.9241550  92.8991750 134.1879920 108.5018820  91.9681640 133.0713970
 117.4387640  91.3169510 135.4789110 117.4560380  91.7678160 136.3230960
 117.1903220  90.4175150 135.6922550 120.8658390  88.7301690 141.3175490
 121.1904160  87.9991350 141.8433470 120.9014900  88.4115330 140.4156480
 107.5649950  99.7515270 140.7375450 107.1804740  99.1108940 141.3358410
 107.8762140 100.4551390 141.3070180 113.7147090  96.5991810 136.2184070
 114.0817220  96.1250380 136.9645410 113.5252150  97.4733380 136.5592410
 106.5787580  91.3435500 132.3477540 106.2934500  90.9791170 133.1856160
 106.5166440  90.6115960 131.7340680 111.5046460  95.6400450 138.5368280
 111.2003530  96.5192430 138.7618640 112.4592920  95.7000240 138.5725720
 110.0328250  99.8461440 129.1335130 109.2590510  99.3059060 128.9733850
 110.7622880  99.3268050 128.7952890 120.7916230  98.8426800 134.9261520
 121.5115350  99.3382090 134.5357630 120.5898050  98.1644690 134.2815390
 116.1735030  98.9135860 140.8130520 116.1072340  97.9931530 140.5588110
 115.5440170  99.0111300 141.5275160 118.9674560  94.6084410 127.3653070
 119.8554180  94.9201640 127.1904410 118.9379650  93.7356660 126.9733650
 110.0765650  99.5141820 132.7713940 110.5944320  98.7110080 132.7170830
 109.6249670  99.4520960 133.6130770 114.9635150 100.7808100 128.0441240
 115.3050850 101.5250330 127.5484560 114.1347860 101.0939220 128.4066070
 107.5610190  96.4803190 139.6839640 107.2025130  97.1457040 140.2712980
 107.2664750  95.6486740 140.0552260 110.7623310  96.9387430 142.5679190
 110.4623450  97.0844610 141.6707010 111.5334550  96.3792720 142.4752580
 116.1051760 101.7356430 140.5634320 116.1196300 100.8037390 140.3453230
 115.3976860 101.8216190 141.2024090 121.2388830  95.9196250 126.8332930
 121.1552550  96.3510470 125.9829370 121.9583020  96.3794600 127.2659750
 122.3162970  98.3763770 139.9102900 121.5911160  98.9692550 139.7132290
 122.8438430  98.3687310 139.1116270 122.2676080 102.7738510 129.5615060
 121.6252240 102.1194130 129.8358780 121.8806740 103.1793600 128.7855730
 117.8462560 100.1023940 133.4086750 118.1986380  99.5052070 132.7488120
 116.9624890  99.7768170 133.5795000 113.9325840 100.8621630 130.8157160
 114.6196970 101.4090840 131.1964750 113.1458260 101.4062360 130.8506770
 106.0718240  96.4794450 126.3074240 106.9413090  96.7619250 126.5910160
 105.5808560  97.2930320 126.1923050 113.2353050  97.8667660 130.4282520
 113.6915830  98.6772910 130.6542710 112.8841260  97.5490800 131.2601010
 115.5385660 103.3774000 137.6574820 116.1827880 103.5833380 138.3348240
 115.9015100 102.6162400 137.2045670 116.8117740 101.3806350 136.3752270
 117.4539970 100.6799510 136.4884440 117.3367090 102.1604790 136.1949160
 120.6573460 101.6654970 126.0991410 120.4311040 100.9485410 126.6916050
 120.2669660 101.4167410 125.2613160 118.5855360 102.1801250 139.5788330
 118.9211600 102.7667940 140.2566250 117.6655700 102.0493960 139.8086120
 106.4389490 105.6921830 126.8735870 106.7987130 106.2911170 126.2193140
 106.2981830 106.2381720 127.6470900 106.1358760  89.9696430 140.3611740
 105.4217280  90.1693350 140.9664350 106.5553800  89.1936000 140.7326540
 120.2389710  99.5826910 127.7605570 119.9511410 100.0439600 128.5483450
 121.0341880  99.1224680 128.0289790 106.4231350 103.9576690 141.3478270
 106.5322470 103.0171430 141.2073660 105.7711910 104.2231440 140.6992000
 114.4143940 102.2292580 142.7476390 114.0940810 101.5101820 143.2922080
 113.7402300 102.9047650 142.8212450 112.4558110 103.0753030 127.6909540
 112.4468210 103.8082720 127.0754050 111.5356470 102.8284610 127.7836500
 108.0564750  98.2967920 128.4356300 107.4492700  99.0366820 128.4451600
 108.5314100  98.3867280 127.6094500 117.6297540  92.4618740 138.1113190
 117.9978360  91.6413950 138.4392760 116.7695740  92.5220630 138.5268840
 120.9959570  91.4175680 128.9200750 120.3672730  91.5221350 128.2058980
 120.5011490  91.6372460 129.7094630 115.4417710 103.1381270 126.3534730
 115.5429690 102.9345260 125.4236710 114.5419450 102.8839550 126.5582510
 112.9643600  93.6961630 130.3358630 112.2559750  94.1647970 130.7772240
 113.2488080  93.0383640 130.9703820 114.5899530  95.1158330 138.3351160
 115.0884780  95.5904150 139.0003010 114.7322480  94.1921850 138.5421190
 116.9959030  90.4212290 131.7754420 116.8726810  90.4398420 130.8263930
 117.9443590  90.4691230 131.8952820 114.0835820 105.6567590 131.0482400
 114.3377320 105.6188980 130.1261770 113.1348300 105.5300920 131.0410650
 121.7966390  91.3326290 139.1779550 121.2939990  92.0731690 139.5173360
 122.6123050  91.7210290 138.8616340 120.0888400  96.5759470 132.6240910
 119.1478540  96.5909700 132.7988600 120.4032470  95.7895430 133.0701210
 110.0670040  98.2579070 126.1844870 110.8333310  98.1460430 126.7470300
 110.1444730  97.5617040 125.5321640 108.7616800  95.6904140 126.8677760
 108.8420390  94.7431650 126.9795160 109.6536550  96.0211020 126.9738420
 122.0913980 103.7468320 134.2995170 122.2161400 104.5699490 134.7718980
 122.9579540 103.5359050 133.9519320 109.5631510 105.8399530 133.9712300
 110.2993990 105.2914990 134.2420870 109.9472430 106.7055540 133.8318290
 106.4476990 101.9073100 129.8453810 105.5216770 102.1494240 129.8359220
 106.9133420 102.7347360 129.7238560 108.5689790 105.0245600 143.1597880
 109.3702520 105.3457650 143.5733280 108.0541610 104.6641180 143.8817790
 112.6733820 105.0129840 125.7937870 113.4662430 105.3018670 125.3419660
 112.1538170 104.5822010 125.1150350 117.4054420 101.1325470 143.1073290
 116.7992580 101.1557070 142.3669040 117.1008530 100.4008510 143.6440540
 118.8354790 104.8605760 141.7182700 119.7876540 104.7763780 141.6682940
 118.6883010 105.5247470 142.3916490 121.7263990 104.2399970 127.2174610
 121.4405500 103.8265110 126.4028790 121.5283540 105.1687680 127.0975130
 106.2887600  97.5119060 142.1033930 106.7926620  96.9326340 142.6750160
 105.5495020  97.7959290 142.6410300 113.1911220 100.2333250 125.6580220
 113.0861860  99.6185600 126.3841600 113.0235440  99.7099140 124.8743230
 113.3425540  98.9190050 141.6369450 112.5771210  99.4875050 141.5524120
 113.5241500  98.6266260 140.7437680 116.4313950  99.2953280 126.2622210
 115.8824050  99.7422580 126.9064950 117.0533210  98.7902530 126.7859880
 120.4848890 100.6495380 142.1944470 121.2258360 100.9871140 141.6911930
 119.7221570 100.8187440 141.6414240 108.3210680  95.6548650 142.9984000
 108.3616020  95.3562520 143.9069230 109.1756180  96.0556260 142.8391520
 112.0989070  98.2544200 128.1587510 112.5205490  98.0884070 129.0018900
 112.2239910  97.4444430 127.6642650 110.2616490  94.2340750 140.9658490
 109.7312950  93.7431700 140.3381830 110.9304560  94.6624950 140.4316420
 114.6116710  97.2781810 125.4064610 115.1322370  96.5630830 125.0405760
 115.2585110  97.9167680 125.7065120 119.1594550  98.7010210 140.7299680
 119.5735570  98.8555290 141.5790100 118.2245550  98.8265430 140.8925460
 119.6316720  96.0406370 142.7338830 120.2137490  95.2858690 142.6459310
 119.8078490  96.5713810 141.9570310 110.7488790  91.2003120 141.0455780
 110.6545660  90.5823870 140.3206650 110.1686180  91.9269410 140.8185690
 113.5150230  89.7576360 138.0783170 113.0667530  89.7800620 137.2328720
 112.8815430  89.3595380 138.6753470 113.9209780  98.6530690 138.6995610
 114.3397890  99.4963420 138.5271850 113.0018410  98.7902730 138.4702390
 116.2573680  96.3846870 140.0833450 116.3769890  95.7888010 140.8228290
 117.1167680  96.4216560 139.6634750 118.5961580  96.9384060 138.6595960
 118.0696800  97.4626680 138.0561100 118.9392920  97.5711450 139.2905690
 111.7717200 104.9583700 139.8153340 111.2338290 105.6829760 139.4962040
 112.0251160 104.4814040 139.0250680 113.0242450  92.9268220 141.3409270
 113.6142140  92.6184070 142.0287090 112.2062690  92.4547970 141.4969170
 117.8435880  92.5434030 141.5742290 117.1551400  91.8815570 141.5092280
 118.5641900  92.0972300 142.0190750 118.4736280  89.1385660 127.6332550
 118.7538570  88.2953560 127.9891970 117.7002010  89.3708770 128.1471300
 114.6279410 106.1934910 140.0739990 114.5538110 107.0970050 140.3812360
 113.7258250 105.8746810 140.0462060 115.1764740 105.3593420 127.6966350
 116.0715530 105.6978390 127.7185110 115.2082370 104.6372830 127.0690630
 108.8160900 100.7320470 125.9253350 109.2535770 101.2750140 126.5810930
 109.3008630  99.9067420 125.9349690 106.0306700 103.5209500 133.3773610
 106.3609710 102.6530560 133.1452250 106.4597700 103.7268020 134.2078570
 110.6268620 101.8518510 131.0375580 110.3264160 101.7283480 131.9379490
 110.5206110 100.9927100 130.6291310 106.5196910 104.3880090 136.1155240
 106.0827900 104.5680890 136.9479390 107.0874590 105.1454710 135.9736960
 122.1559090 103.8897090 140.4032550 121.5561080 103.9489650 139.6596470
 122.2852990 102.9502070 140.5329400 123.3960540 101.6314910 125.7402260
 122.5653500 101.6991560 126.2109490 123.5732370 102.5219030 125.4369120
 122.8517000  98.3762390 128.2436460 123.6135910  98.9459040 128.3496150
 122.8671370  97.8089590 129.0144770 106.3521340  96.9000320 132.4744120
 105.6970180  96.6311960 131.8303820 107.1899290  96.7904800 132.0246100
 123.8576970  99.2312490 133.0878390 124.2285800  98.4479810 132.6814360
 124.4978900  99.9201590 132.9095690 120.8410730 100.6149070 138.5008710
 120.0270570 101.0446230 138.7634500 121.2484930 101.2267480 137.8877760
 122.9036170  98.6696760 125.4008980 123.1785010  99.5775640 125.2728200
 122.7146910  98.6059290 126.3370970 119.3011780  91.6941610 126.6962610
 119.7196660  91.5072590 125.8559270 118.9947840  90.8420660 127.0065540
 122.8001510  96.6065750 130.3938410 122.4245110  95.8393680 129.9619700
 122.0704630  96.9888450 130.8813340 107.3897270  97.2852890 137.0147460
 107.7570310  97.1980290 137.8943480 106.8208090  96.5219440 136.9154320
 122.1901130  95.7537270 140.0277930 121.9587220  95.5250020 139.1275880
 122.4505680  96.6736820 139.9822820 106.9413270  94.1961980 140.9205880
 106.0469320  94.1628740 141.2599590 107.4810820  94.3948770 141.6857130
 120.6289200  90.9793700 142.8057630 121.5059380  90.9877100 143.1891630
 120.6410040  90.2424540 142.1949980 105.5659420  94.1099250 128.4169450
 104.6623500  94.3729450 128.2421110 106.0500040  94.3810420 127.6369410
 122.0752470  94.8323240 133.6945650 122.5989950  94.3385890 133.0635820
 122.6611890  94.9673600 134.4393220 122.2542190  94.9163110 137.2165200
 121.3044900  94.8826650 137.3310190 122.4355200  95.8263220 136.9814970
 108.1086630  93.1664790 126.3263830 108.8178330  92.7448010 125.8411110
 107.3926570  93.2340020 125.6947180 121.5652440  94.0896590 129.6338060
 122.0611560  93.8567460 130.4186940 121.3668510  93.2508430 129.2175700
 107.4452980  88.4710310 135.2689100 108.0929170  87.9207690 134.8284260
 107.8654820  88.7253460 136.0904910 122.9939600  92.7257540 132.1675740
 122.8838880  92.5713580 133.1058010 123.7547190  92.1978480 131.9251150
 121.3405320  88.6651670 138.6258740 121.9777540  89.2785810 138.9917930
 121.4880210  88.7012330 137.6807970 123.8829870  90.5565460 125.4081880
 124.8079180  90.4246640 125.2000170 123.8605660  90.6358280 126.3618330
 123.9568360  91.3276120 128.0338590 123.1619860  91.2621240 128.5631500
 124.1611640  92.2626760 128.0223940 120.8986780 105.3667670 132.0276980
 121.4945850 105.0452240 131.3511400 121.1564930 104.8939490 132.8190250
 107.1984980  88.6265980 138.0114420 106.8499800  89.0829800 138.7772600
 106.8672680  87.7323110 138.0936850 108.8049350 101.7985580 142.1767610
 108.7618980 101.4278490 143.0582070 108.9360360 102.7363150 142.3169430
 112.5055380 103.3545170 137.7777330 112.2646740 103.6219730 136.8907850
 113.4458020 103.5250900 137.8328190 114.7109800  89.8177860 141.5333840
 114.6498690  90.4099690 142.2829250 115.6510180  89.7103820 141.3884100
 117.3484360  89.4747920 141.1726130 117.9624770  89.7927210 140.5107210
 117.8933920  88.9896510 141.7921990 123.7659540 105.3739550 138.5787970
 123.2717820 105.7708420 137.8615100 123.1572830 104.7488760 138.9725250
 107.8705620  88.1542180 141.2865190 108.4188610  87.9730230 140.5231300
 107.9360930  87.3636290 141.8221500 108.6437380 104.7447830 139.2965390
 108.0497700 104.6132530 140.0355430 108.6361220 103.9085970 138.8307490
 118.0892400  88.0380060 137.4995420 117.2152240  88.3715170 137.2968350
 117.9803150  87.5653240 138.3247290 118.9964380  90.2450930 138.8837140
 118.6677740  89.4302690 138.5038870 119.9446680  90.2020740 138.7602830
 121.4498990 106.0162970 135.8574710 120.9901960 106.7678780 135.4832730
 120.8211450 105.2969440 135.7989510 108.2749610 102.1106210 138.2473430
 107.5483670 101.4911500 138.1799380 108.3358760 102.5046820 137.3771510
 111.8794710 104.3251210 135.0322840 112.3959730 103.7138570 134.5071100
 112.5292090 104.8279990 135.5233850 114.6190210 105.2159700 135.8591820
 114.9068020 104.9614000 134.9824830 115.1313430 104.6637060 136.4497390
 115.8367220  88.9549900 136.4388330 115.0539010  89.4295400 136.7185090
 115.5430150  88.0504730 136.3301510 120.3888290  89.6573000 134.4837420
 120.8296380  89.6018100 133.6359020 120.1195880  90.5731010 134.5547600
 122.2526860  89.2888240 132.4946240 122.1915260  88.3449460 132.3477260
 123.0318890  89.3968330 133.0399700 106.5579610 105.4280600 131.4570190
 106.3901650 104.7951280 132.1552080 105.6914120 105.6340000 131.1064380
 118.2246420  88.0379100 133.1887430 118.8275790  88.6099310 133.6635950
 117.4839410  88.6018540 132.9661330 121.3681020  88.4400660 128.4627710
 121.5631650  89.3384110 128.7295140 120.5810890  88.2087740 128.9560660
 108.1642310 104.1213830 128.9020330 107.6389930 104.5021860 128.1982290
 108.0886890 104.7464600 129.6230040 114.6862570 106.1375800 143.2260020
 115.6129880 105.9020070 143.2695980 114.6713000 106.9647800 142.7446050
 122.9207630 105.6801370 130.2234270 123.0959820 104.9939110 129.5795190
 122.2229200 106.2048420 129.8310940 111.8726180  88.8020550 142.9901900
 111.5910450  89.3054150 142.2262720 112.2545880  88.0042300 142.6244030
 110.7635280 106.0696210 127.7769580 111.4954100 105.7855490 127.2293470
 111.0228950 105.8309490 128.6668960 109.9250070 102.1860940 127.7815910
 109.2958950 102.6546040 128.3301740 110.0397900 101.3410160 128.2162100
 118.4741640  88.2174130 143.5682370 118.3607090  88.5368740 144.4633890
 119.2911380  88.6186640 143.2719650 121.2540130 105.3645660 143.0501060
 122.0465450 104.8694890 142.8427020 121.5473280 106.0435800 143.6576670
 117.3799790  96.2366600 113.9317110 117.2993840  95.3221210 113.6608820
 116.9664210  96.7333670 113.2256820 115.5117830  98.0145620 115.8126380
 114.7359930  97.5346060 116.1024950 116.1630760  97.3351270 115.6382540
 115.7588570 104.7063820 114.2129500 115.1400010 105.1621320 113.6423940
 116.6140350 104.8615280 113.8119200 107.1433490  91.2957330 118.1453160
 106.9636330  90.3983080 118.4255920 106.7413570  91.8429200 118.8200110
 115.9831990  93.4973190 116.0465470 116.3596810  92.6245070 115.9339140
 115.8851500  93.8331890 115.1555910 119.7656110  90.9923630 112.9793810
 120.5865730  90.5020200 113.0219290 119.7990190  91.5821290 113.7325650
 111.9544730  94.8385190 115.8408090 112.4622950  95.3366160 116.4813110
 112.4857970  94.0620390 115.6647450 110.2380830  89.4783750 120.1071510
 110.2399270  89.9956140 119.3017410 109.4085140  89.0013930 120.0841440
 109.9196160  91.1893710 118.1141960 110.2612970  92.0335760 117.8195830
 108.9811970  91.3377450 118.2307300 121.6180370 102.5499140 118.0148830
 120.9343890 103.2198250 118.0065500 122.1574660 102.7479790 117.2493690
 123.0704510  92.3778800 116.1430560 122.1229420  92.4117780 116.2745990
 123.3954500  93.1917750 116.5279920 119.1539110 104.3943270 116.7294010
 119.1666270 103.9905560 115.8616270 118.6014330 105.1690560 116.6255440
 118.5524550  99.2973110 118.0576620 118.9693340  99.0833220 117.2230080
 119.2764370  99.5545900 118.6285240 115.9904810  96.7424810 111.1746670
 115.0634090  96.6762190 111.4035140 116.1429630  97.6804940 111.0601910
 111.5961450  97.2689550 113.9566400 111.1918450  96.5566800 113.4612300
 111.6824570  96.9242790 114.8454440 110.3090070  94.0432760 117.7365440
 110.8604660  94.1528100 116.9618690 110.8233580  94.4170360 118.4520670
 120.1528760 104.5288980 119.7828710 119.6759320 105.3361170 119.5901320
 119.4690550 103.8767310 119.9354920 111.1561580 100.6938800 122.7713410
 110.2590110 100.9178770 123.0186810 111.1814450 100.8173740 121.8224810
 109.9832800  97.5652120 121.3470780 109.8440570  98.4374920 121.7158180
 109.1014160  97.2224930 121.2018720 116.3062180 102.4827990 112.6535910
 116.7458090 103.2252320 112.2391300 116.2449070 102.7254560 113.5774870
 121.7783940  88.7974730 106.9995710 121.4656600  88.8901560 107.8994780
 122.5396410  89.3755760 106.9493140 123.7327970 104.2900920 124.8520100
 124.2087690 104.7683810 125.5309180 124.3535130 104.2218410 124.1265600
 123.1361220 101.4813770 122.0120110 123.2624280 101.2425650 121.0937290
 123.1782600 100.6498310 122.4842190 118.9732360 105.4697110 110.0098920
 118.8133500 105.1800050 110.9080750 118.8079070 104.6937240 109.4744150
 111.4520740 105.2495640 111.7870540 111.2763220 104.3331180 111.5738340
 110.5976480 105.6082930 112.0268340 122.9885230  93.5346230 122.9769850
 122.3729500  94.0425900 122.4485310 122.6681650  92.6344560 122.9195790
 105.9910970 100.3763840 119.8036150 106.1542010  99.9069200 118.9855520
 106.4563420  99.8687400 120.4684990 115.0499550  92.3738120 120.4432040
 114.5878920  92.5821140 121.2551980 114.6477660  91.5597470 120.1402710
 120.0504060  93.5947070 121.5728700 119.1997650  93.2952820 121.8937770
 119.8905850  93.8389080 120.6612520 117.1453770  95.0948820 123.6727490
 117.4707180  94.2612570 123.3329720 117.9334100  95.6177340 123.8205820
 117.7841720  94.6366540 111.1668620 117.1850610  95.3602340 110.9832240
 118.3321330  94.5743320 110.3845070 116.3906590  93.2730080 113.1971900
 116.7836160  93.5902280 112.3840590 116.7523440  92.3941960 113.3116420
 108.1253710  91.9402420 121.3872020 107.7317100  92.7877630 121.5944800
 107.4372110  91.3028790 121.5780660 105.4270760  89.8630880 115.4202100
 105.1383810  90.4333740 116.1327080 106.1716520  89.3835330 115.7833330
 116.9761730  95.8635830 117.2922680 116.2442850  96.3722640 117.6412780
 116.5786070  95.0465810 116.9911460 113.4139120  92.5390030 115.6975170
 113.4175180  92.0979980 114.8479710 114.3090240  92.8607360 115.8046990
 109.2641500  92.4216520 114.6569380 108.9241550  92.8991750 115.4136430
 108.5018820  91.9681640 114.2970480 117.4387640  91.3169510 116.7045620
 117.4560380  91.7678160 117.5487470 117.1903220  90.4175150 116.9179060
 120.8658390  88.7301690 122.5432000 121.1904160  87.9991350 123.0689980
 120.9014900  88.4115330 121.6412990 107.5649950  99.7515270 121.9631960
 107.1804740  99.1108940 122.5614920 107.8762140 100.4551390 122.5326690
 113.7147090  96.5991810 117.4440580 114.0817220  96.1250380 118.1901920
 113.5252150  97.4733380 117.7848920 106.5787580  91.3435500 113.5734050
 106.2934500  90.9791170 114.4112670 106.5166440  90.6115960 112.9597190
 111.5046460  95.6400450 119.7624790 111.2003530  96.5192430 119.9875150
 112.4592920  95.7000240 119.7982230 116.1735030  98.9135860 122.0387030
 116.1072340  97.9931530 121.7844620 115.5440170  99.0111300 122.7531670
 118.9674560  94.6084410 108.5909580 119.8554180  94.9201640 108.4160920
 118.9379650  93.7356660 108.1990160 110.7623310  96.9387430 123.7935700
 110.4623450  97.0844610 122.8963520 111.5334550  96.3792720 123.7009090
 122.3162970  98.3763770 121.1359410 121.5911160  98.9692550 120.9388800
 122.8438430  98.3687310 120.3372780 117.8462560 100.1023940 114.6343260
 118.1986380  99.5052070 113.9744630 116.9624890  99.7768170 114.8051510
 113.9325840 100.8621630 112.0413670 114.6196970 101.4090840 112.4221260
 113.1458260 101.4062360 112.0763280 116.8117740 101.3806350 117.6008780
 117.4539970 100.6799510 117.7140950 117.3367090 102.1604790 117.4205670
 114.4143940 102.2292580 123.9732900 114.0940810 101.5101820 124.5178590
 113.7402300 102.9047650 124.0468960 117.6297540  92.4618740 119.3369700
 117.9978360  91.6413950 119.6649270 116.7695740  92.5220630 119.7525350
 120.9959570  91.4175680 110.1457260 120.3672730  91.5221350 109.4315490
 120.5011490  91.6372460 110.9351140 114.5899530  95.1158330 119.5607670
 115.0884780  95.5904150 120.2259520 114.7322480  94.1921850 119.7677700
 114.0835820 105.6567590 112.2738910 114.3377320 105.6188980 111.3518280
 113.1348300 105.5300920 112.2667160 122.0913980 103.7468320 115.5251680
 122.2161400 104.5699490 115.9975490 122.9579540 103.5359050 115.1775830
 108.5689790 105.0245600 124.3854390 109.3702520 105.3457650 124.7989790
 108.0541610 104.6641180 125.1074300 117.4054420 101.1325470 124.3329800
 116.7992580 101.1557070 123.5925550 117.1008530 100.4008510 124.8697050
 118.8354790 104.8605760 122.9439210 119.7876540 104.7763780 122.8939450
 118.6883010 105.5247470 123.6173000 121.7263990 104.2399970 108.4431120
 121.4405500 103.8265110 107.6285300 121.5283540 105.1687680 108.3231640
 106.2887600  97.5119060 123.3290440 106.7926620  96.9326340 123.9006670
 105.5495020  97.7959290 123.8666810 113.3425540  98.9190050 122.8625960
 112.5771210  99.4875050 122.7780630 113.5241500  98.6266260 121.9694190
 120.4848890 100.6495380 123.4200980 121.2258360 100.9871140 122.9168440
 119.7221570 100.8187440 122.8670750 108.3210680  95.6548650 124.2240510
 108.3616020  95.3562520 125.1325740 109.1756180  96.0556260 124.0648030
 110.2616490  94.2340750 122.1915000 109.7312950  93.7431700 121.5638340
 110.9304560  94.6624950 121.6572930 119.1594550  98.7010210 121.9556190
 119.5735570  98.8555290 122.8046610 118.2245550  98.8265430 122.1181970
 119.6316720  96.0406370 123.9595340 120.2137490  95.2858690 123.8715820
 119.8078490  96.5713810 123.1826820 113.5150230  89.7576360 119.3039680
 113.0667530  89.7800620 118.4585230 112.8815430  89.3595380 119.9009980
 113.9209780  98.6530690 119.9252120 114.3397890  99.4963420 119.7528360
 113.0018410  98.7902730 119.6958900 116.2573680  96.3846870 121.3089960
 116.3769890  95.7888010 122.0484800 117.1167680  96.4216560 120.8891260
 118.5961580  96.9384060 119.8852470 118.0696800  97.4626680 119.2817610
 118.9392920  97.5711450 120.5162200 117.8435880  92.5434030 122.7998800
 117.1551400  91.8815570 122.7348790 118.5641900  92.0972300 123.2447260
 110.6268620 101.8518510 112.2632090 110.3264160 101.7283480 113.1636000
 110.5206110 100.9927100 111.8547820 122.1559090 103.8897090 121.6289060
 121.5561080 103.9489650 120.8852980 122.2852990 102.9502070 121.7585910
 120.8410730 100.6149070 119.7265220 120.0270570 101.0446230 119.9891010
 121.2484930 101.2267480 119.1134270 122.1901130  95.7537270 121.2534440
 121.9587220  95.5250020 120.3532390 122.4505680  96.6736820 121.2079330
 106.9413270  94.1961980 122.1462390 106.0469320  94.1628740 122.4856100
 107.4810820  94.3948770 122.9113640 120.6289200  90.9793700 124.0314140
 121.5059380  90.9877100 124.4148140 120.6410040  90.2424540 123.4206490
 121.3405320  88.6651670 119.8515250 121.9777540  89.2785810 120.2174440
 121.4880210  88.7012330 118.9064480 123.8829870  90.5565460 106.6338390
 124.8079180  90.4246640 106.4256680 123.8605660  90.6358280 107.5874840
 123.9568360  91.3276120 109.2595100 123.1619860  91.2621240 109.7888010
 124.1611640  92.2626760 109.2480450 120.8986780 105.3667670 113.2533490
 121.4945850 105.0452240 112.5767910 121.1564930 104.8939490 114.0446760
 108.8049350 101.7985580 123.4024120 108.7618980 101.4278490 124.2838580
 108.9360360 102.7363150 123.5425940 114.7109800  89.8177860 122.7590350
 114.6498690  90.4099690 123.5085760 115.6510180  89.7103820 122.6140610
 117.3484360  89.4747920 122.3982640 117.9624770  89.7927210 121.7363720
 117.8933920  88.9896510 123.0178500 123.7659540 105.3739550 119.8044480
 123.2717820 105.7708420 119.0871610 123.1572830 104.7488760 120.1981760
 118.0892400  88.0380060 118.7251930 117.2152240  88.3715170 118.5224860
 117.9803150  87.5653240 119.5503800 118.9964380  90.2450930 120.1093650
 118.6677740  89.4302690 119.7295380 119.9446680  90.2020740 119.9859340
 121.4498990 106.0162970 117.0831220 120.9901960 106.7678780 116.7089240
 120.8211450 105.2969440 117.0246020 115.8367220  88.9549900 117.6644840
 115.0539010  89.4295400 117.9441600 115.5430150  88.0504730 117.5558020
 120.3888290  89.6573000 115.7093930 120.8296380  89.6018100 114.8615530
 120.1195880  90.5731010 115.7804110 122.2526860  89.2888240 113.7202750
 122.1915260  88.3449460 113.5733770 123.0318890  89.3968330 114.2656210
 121.3681020  88.4400660 109.6884220 121.5631650  89.3384110 109.9551650
 120.5810890  88.2087740 110.1817170 114.6862570 106.1375800 124.4516530
 115.6129880 105.9020070 124.4952490 114.6713000 106.9647800 123.9702560
 122.9207630 105.6801370 111.4490780 123.0959820 104.9939110 110.8051700
 122.2229200 106.2048420 111.0567450 118.4741640  88.2174130 124.7938880
 118.3607090  88.5368740 125.6890400 119.2911380  88.6186640 124.4976160
 121.2540130 105.3645660 124.2757570 122.0465450 104.8694890 124.0683530
 121.5473280 106.0435800 124.8833180 115.5117830  98.0145620  97.0382890
 114.7359930  97.5346060  97.3281460 116.1630760  97.3351270  96.8639050
 119.5325260 102.4205810  95.8182020 119.0706790 101.6493050  96.1469190
 120.3450810 102.4471880  96.3234470 105.9008620  95.8872970  97.5840740
 106.4724730  95.1195170  97.5844380 105.9010160  96.1861730  96.6747350
 115.7588570 104.7063820  95.4386010 115.1400010 105.1621320  94.8680450
 116.6140350 104.8615280  95.0375710 107.1433490  91.2957330  99.3709670
 106.9636330  90.3983080  99.6512430 106.7413570  91.8429200 100.0456620
 110.1137000  91.8698820  92.7339420 110.2203750  92.7702550  93.0408180
 109.2029360  91.8216790  92.4434070 107.7620160  93.7917830  97.9792010
 108.4430270  94.0556200  98.5979410 107.4468210  92.9518700  98.3130020
 110.2380830  89.4783750 101.3328020 110.2399270  89.9956140 100.5273920
 109.4085140  89.0013930 101.3097950 105.9935120 100.2759590  90.2057550
 105.6163100 100.7646690  89.4742450 106.2508190 100.9484870  90.8364080
 121.6180370 102.5499140  99.2405340 120.9343890 103.2198250  99.2322010
 122.1574660 102.7479790  98.4750200 119.1539110 104.3943270  97.9550520
 119.1666270 103.9905560  97.0872780 118.6014330 105.1690560  97.8511950
 120.4484530 101.1159490  93.0440690 120.3380860 100.1733820  93.1690110
 120.4452780 101.4775130  93.9303450 110.3090070  94.0432760  98.9621950
 110.8604660  94.1528100  98.1875200 110.8233580  94.4170360  99.6777180
 120.1528760 104.5288980 101.0085220 119.6759320 105.3361170 100.8157830
 119.4690550 103.8767310 101.1611430 116.3062180 102.4827990  93.8792420
 116.7458090 103.2252320  93.4647810 116.2449070 102.7254560  94.8031380
 105.9351450  99.3349670  98.4898200 106.0131870  99.4698440  97.5453920
 106.5493130  98.6265560  98.6826320 116.9977960 105.1841770 101.8071430
 117.5122630 105.0949780 102.6093860 116.1547040 105.5301470 102.0999340
 118.2408420 104.6047380  93.8701920 118.6965370 103.8236760  94.1840540
 118.5800940 105.3154200  94.4143100 112.9943170  95.5288750 104.4594750
 112.8986770  94.5883480 104.3095150 113.8375150  95.7503820 104.0642820
 108.1253710  91.9402420 102.6128530 107.7317100  92.7877630 102.8201310
 107.4372110  91.3028790 102.8037170 105.4270760  89.8630880  96.6458610
 105.1383810  90.4333740  97.3583590 106.1716520  89.3835330  97.0089840
 112.4880770  95.8503250  89.3121740 111.9197670  95.4021500  88.6857650
 113.1969770  96.2096030  88.7786890 120.8658390  88.7301690 103.7688510
 121.1904160  87.9991350 104.2946490 120.9014900  88.4115330 102.8669500
 106.5787580  91.3435500  94.7990560 106.2934500  90.9791170  95.6369180
 106.5166440  90.6115960  94.1853700 111.5046460  95.6400450 100.9881300
 111.2003530  96.5192430 101.2131660 112.4592920  95.7000240 101.0238740
 114.9635150 100.7808100  90.4954260 115.3050850 101.5250330  89.9997580
 114.1347860 101.0939220  90.8579090 106.0718240  96.4794450  88.7587260
 106.9413090  96.7619250  89.0423180 105.5808560  97.2930320  88.6436070
 109.1364830  88.2105310  93.3518060 109.0079460  88.2023210  94.3002980
 108.3126850  88.5488400  93.0009070 116.8117740 101.3806350  98.8265290
 117.4539970 100.6799510  98.9397460 117.3367090 102.1604790  98.6462180
 118.5855360 102.1801250 102.0301350 118.9211600 102.7667940 102.7079270
 117.6655700 102.0493960 102.2599140 106.4389490 105.6921830  89.3248890
 106.7987130 106.2911170  88.6706160 106.2981830 106.2381720  90.0983920
 106.1358760  89.9696430 102.8124760 105.4217280  90.1693350 103.4177370
 106.5553800  89.1936000 103.1839560 120.2389710  99.5826910  90.2118590
 119.9511410 100.0439600  90.9996470 121.0341880  99.1224680  90.4802810
 106.4231350 103.9576690 103.7991290 106.5322470 103.0171430 103.6586680
 105.7711910 104.2231440 103.1505020 112.9643600  93.6961630  92.7871650
 112.2559750  94.1647970  93.2285260 113.2488080  93.0383640  93.4216840
 110.0670040  98.2579070  88.6357890 110.8333310  98.1460430  89.1983320
 110.1444730  97.5617040  87.9834660 122.0913980 103.7468320  96.7508190
 122.2161400 104.5699490  97.2232000 122.9579540 103.5359050  96.4032340
 118.8354790 104.8605760 104.1695720 119.7876540 104.7763780 104.1195960
 118.6883010 105.5247470 104.8429510 113.1911220 100.2333250  88.1093240
 113.0861860  99.6185600  88.8354620 113.0235440  99.7099140  87.3256250
 113.9209780  98.6530690 101.1508630 114.3397890  99.4963420 100.9784870
 113.0018410  98.7902730 100.9215410 111.7717200 104.9583700 102.2666360
 111.2338290 105.6829760 101.9475060 112.0251160 104.4814040 101.4763700
 114.6279410 106.1934910 102.5253010 114.5538110 107.0970050 102.8325380
 113.7258250 105.8746810 102.4975080 113.0115700  90.3712670  88.5292770
 112.6637700  89.6936660  87.9495220 113.2128470  89.9102180  89.3436160
 108.8160900 100.7320470  88.3766370 109.2535770 101.2750140  89.0323950
 109.3008630  99.9067420  88.3862710 106.5196910 104.3880090  98.5668260
 106.0827900 104.5680890  99.3992410 107.0874590 105.1454710  98.4249980
 122.1559090 103.8897090 102.8545570 121.5561080 103.9489650 102.1109490
 122.2852990 102.9502070 102.9842420 123.3960540 101.6314910  88.1915280
 122.5653500 101.6991560  88.6622510 123.5732370 102.5219030  87.8882140
 120.8410730 100.6149070 100.9521730 120.0270570 101.0446230 101.2147520
 121.2484930 101.2267480 100.3390780 107.3897270  97.2852890  99.4660480
 107.7570310  97.1980290 100.3456500 106.8208090  96.5219440  99.3667340
 122.1901130  95.7537270 102.4790950 121.9587220  95.5250020 101.5788900
 122.4505680  96.6736820 102.4335840 120.6289200  90.9793700 105.2570650
 121.5059380  90.9877100 105.6404650 120.6410040  90.2424540 104.6463000
 105.5659420  94.1099250  90.8682470 104.6623500  94.3729450  90.6934130
 106.0500040  94.3810420  90.0882430 107.4452980  88.4710310  97.7202120
 108.0929170  87.9207690  97.2797280 107.8654820  88.7253460  98.5417930
 107.1984980  88.6265980 100.4627440 106.8499800  89.0829800 101.2285620
 106.8672680  87.7323110 100.5449870 123.7659540 105.3739550 101.0300990
 123.2717820 105.7708420 100.3128120 123.1572830 104.7488760 101.4238270
 108.6437380 104.7447830 101.7478410 108.0497700 104.6132530 102.4868450
 108.6361220 103.9085970 101.2820510 118.0892400  88.0380060  99.9508440
 117.2152240  88.3715170  99.7481370 117.9803150  87.5653240 100.7760310
 121.4498990 106.0162970  98.3087730 120.9901960 106.7678780  97.9345750
 120.8211450 105.2969440  98.2502530 120.3888290  89.6573000  96.9350440
 120.8296380  89.6018100  96.0872040 120.1195880  90.5731010  97.0060620
 122.2526860  89.2888240  94.9459260 122.1915260  88.3449460  94.7990280
 123.0318890  89.3968330  95.4912720 107.1807630  89.2597380  91.4115070
 107.9386990  89.3726260  90.8379100 106.7184800  90.0966580  91.3658500
 121.2540130 105.3645660 105.5014080 122.0465450 104.8694890 105.2940040
 121.5473280 106.0435800 106.1089690 115.5117830  98.0145620  78.2639400
 114.7359930  97.5346060  78.5537970 116.1630760  97.3351270  78.0895560
 114.9526820 100.6902810  78.2709560 114.8835100  99.7492750  78.1098690
 115.7146680 100.7804220  78.8432130 107.1433490  91.2957330  80.5966180
 106.9636330  90.3983080  80.8768940 106.7413570  91.8429200  81.2713130
 110.1137000  91.8698820  73.9595930 110.2203750  92.7702550  74.2664690
 109.2029360  91.8216790  73.6690580 107.7620160  93.7917830  79.2048520
 108.4430270  94.0556200  79.8235920 107.4468210  92.9518700  79.5386530
 124.0555660  93.0090380  81.9950460 123.3507830  93.3972090  81.4765570
 124.3213580  93.7040670  82.5971390 110.2380830  89.4783750  82.5584530
 110.2399270  89.9956140  81.7530430 109.4085140  89.0013930  82.5354460
 116.6251920  99.5903060  74.0574430 116.0069190 100.0552510  73.4937150
 117.1375170 100.2830540  74.4743940 109.9196160  91.1893710  80.5654980
 110.2612970  92.0335760  80.2708850 108.9811970  91.3377450  80.6820320
 120.4484530 101.1159490  74.2697200 120.3380860 100.1733820  74.3946620
 120.4452780 101.4775130  75.1559960 115.9904810  96.7424810  73.6259690
 115.0634090  96.6762190  73.8548160 116.1429630  97.6804940  73.5114930
 115.9773890  93.0141810  70.6226850 115.0377560  93.1755770  70.7079310
 116.2957150  93.7327490  70.0762840 119.4628660  94.4829650  81.5460750
 119.0499840  95.3083360  81.8000740 118.7304610  93.8974690  81.3537110
 110.3090070  94.0432760  80.1878460 110.8604660  94.1528100  79.4131710
 110.8233580  94.4170360  80.9033690 118.1966800  97.5431920  71.1367690
 118.6360080  96.7054350  70.9905510 118.9095220  98.1761320  71.2231830
 116.3062180 102.4827990  75.1048930 116.7458090 103.2252320  74.6904320
 116.2449070 102.7254560  76.0287890 111.7813150 103.5073820  86.0068950
 111.7528580 103.9116770  85.1397380 111.6178120 102.5784180  85.8440550
 108.2966080  96.1634530  73.9086070 108.1763680  96.8896620  73.2967340
 107.9866970  95.3937440  73.4313980 123.7327970 104.2900920  87.3033120
 124.2087690 104.7683810  87.9822200 124.3535130 104.2218410  86.5778620
 123.1361220 101.4813770  84.4633130 123.2624280 101.2425650  83.5450310
 123.1782600 100.6498310  84.9355210 118.9732360 105.4697110  72.4611940
 118.8133500 105.1800050  73.3593770 118.8079070 104.6937240  71.9257170
 111.4520740 105.2495640  74.2383560 111.2763220 104.3331180  74.0251360
 110.5976480 105.6082930  74.4781360 118.6758490 102.9784670  71.0209940
 117.9823650 102.9761960  70.3612220 119.4181350 102.5543990  70.5904110
 110.7629740  89.5069600  77.2909740 110.3197890  90.2879140  76.9594260
 111.3214730  89.8299490  77.9980680 115.0499550  92.3738120  82.8945060
 114.5878920  92.5821140  83.7065000 114.6477660  91.5597470  82.5915730
 113.8788560  89.1280300  72.1715570 113.2542740  89.1240170  72.8968880
 113.7918680  88.2611260  71.7751540 110.5543960  94.6303170  75.0190990
 110.3284880  94.4140340  75.9237610 109.7736490  95.0631630  74.6736960
 112.9943170  95.5288750  85.6851260 112.8986770  94.5883480  85.5351660
 113.8375150  95.7503820  85.2899330 114.6998760  92.0237390  86.9081780
 114.0097080  91.8309590  87.5427870 115.4431060  92.3072030  87.4406080
 105.6140990  93.8051000  69.0817840 105.5315660  94.7481760  69.2232830
 105.2624050  93.6625910  68.2030190 116.9761730  95.8635830  79.7435700
 116.2442850  96.3722640  80.0925800 116.5786070  95.0465810  79.4424480
 107.5649950  99.7515270  84.4144980 107.1804740  99.1108940  85.0127940
 107.8762140 100.4551390  84.9839710 110.0328250  99.8461440  72.8104660
 109.2590510  99.3059060  72.6503380 110.7622880  99.3268050  72.4722420
 116.2526170  90.2364760  72.7460440 115.4390780  89.7377930  72.6705750
 116.0588120  91.0763010  72.3296790 118.9674560  94.6084410  71.0422600
 119.8554180  94.9201640  70.8673940 118.9379650  93.7356660  70.6503180
 114.9635150 100.7808100  71.7210770 115.3050850 101.5250330  71.2254090
 114.1347860 101.0939220  72.0835600 107.5610190  96.4803190  83.3609170
 107.2025130  97.1457040  83.9482510 107.2664750  95.6486740  83.7321790
 110.7623310  96.9387430  86.2448720 110.4623450  97.0844610  85.3476540
 111.5334550  96.3792720  86.1522110 121.2388830  95.9196250  70.5102460
 121.1552550  96.3510470  69.6598900 121.9583020  96.3794600  70.9429280
 122.3162970  98.3763770  83.5872430 121.5911160  98.9692550  83.3901820
 122.8438430  98.3687310  82.7885800 122.2676080 102.7738510  73.2384590
 121.6252240 102.1194130  73.5128310 121.8806740 103.1793600  72.4625260
 117.8462560 100.1023940  77.0856280 118.1986380  99.5052070  76.4257650
 116.9624890  99.7768170  77.2564530 113.9325840 100.8621630  74.4926690
 114.6196970 101.4090840  74.8734280 113.1458260 101.4062360  74.5276300
 106.0718240  96.4794450  69.9843770 106.9413090  96.7619250  70.2679690
 105.5808560  97.2930320  69.8692580 113.2353050  97.8667660  74.1052050
 113.6915830  98.6772910  74.3312240 112.8841260  97.5490800  74.9370540
 120.6573460 101.6654970  69.7760940 120.4311040 100.9485410  70.3685580
 120.2669660 101.4167410  68.9382690 106.1358760  89.9696430  84.0381270
 105.4217280  90.1693350  84.6433880 106.5553800  89.1936000  84.4096070
 120.2389710  99.5826910  71.4375100 119.9511410 100.0439600  72.2252980
 121.0341880  99.1224680  71.7059320 106.4231350 103.9576690  85.0247800
 106.5322470 103.0171430  84.8843190 105.7711910 104.2231440  84.3761530
 112.4558110 103.0753030  71.3679070 112.4468210 103.8082720  70.7523580
 111.5356470 102.8284610  71.4606030 108.0564750  98.2967920  72.1125830
 107.4492700  99.0366820  72.1221130 108.5314100  98.3867280  71.2864030
 117.6297540  92.4618740  81.7882720 117.9978360  91.6413950  82.1162290
 116.7695740  92.5220630  82.2038370 120.9959570  91.4175680  72.5970280
 120.3672730  91.5221350  71.8828510 120.5011490  91.6372460  73.3864160
 115.4417710 103.1381270  70.0304260 115.5429690 102.9345260  69.1006240
 114.5419450 102.8839550  70.2352040 114.5899530  95.1158330  82.0120690
 115.0884780  95.5904150  82.6772540 114.7322480  94.1921850  82.2190720
 111.1678620  92.0046710  71.3878870 112.0169150  92.4416860  71.3219060
 110.8009890  92.3166970  72.2150930 108.7616800  95.6904140  70.5447290
 108.8420390  94.7431650  70.6564690 109.6536550  96.0211020  70.6507950
 106.4476990 101.9073100  73.5223340 105.5216770 102.1494240  73.5128750
 106.9133420 102.7347360  73.4008090 108.5689790 105.0245600  86.8367410
 109.3702520 105.3457650  87.2502810 108.0541610 104.6641180  87.5587320
 112.6733820 105.0129840  69.4707400 113.4662430 105.3018670  69.0189190
 112.1538170 104.5822010  68.7919880 121.7263990 104.2399970  70.8944140
 121.4405500 103.8265110  70.0798320 121.5283540 105.1687680  70.7744660
 106.2887600  97.5119060  85.7803460 106.7926620  96.9326340  86.3519690
 105.5495020  97.7959290  86.3179830 113.3425540  98.9190050  85.3138980
 112.5771210  99.4875050  85.2293650 113.5241500  98.6266260  84.4207210
 116.4313950  99.2953280  69.9391740 115.8824050  99.7422580  70.5834480
 117.0533210  98.7902530  70.4629410 113.5150230  89.7576360  81.7552700
 113.0667530  89.7800620  80.9098250 112.8815430  89.3595380  82.3523000
 118.5961580  96.9384060  82.3365490 118.0696800  97.4626680  81.7330630
 118.9392920  97.5711450  82.9675220 111.7717200 104.9583700  83.4922870
 111.2338290 105.6829760  83.1731570 112.0251160 104.4814040  82.7020210
 113.0242450  92.9268220  85.0178800 113.6142140  92.6184070  85.7056620
 112.2062690  92.4547970  85.1738700 118.4736280  89.1385660  71.3102080
 118.7538570  88.2953560  71.6661500 117.7002010  89.3708770  71.8240830
 109.7930770  91.4278050  68.7693080 110.0956670  91.4345480  67.8612230
 110.5325360  91.0775910  69.2660740 113.0115700  90.3712670  69.7549280
 112.6637700  89.6936660  69.1751730 113.2128470  89.9102180  70.5692670
 108.8160900 100.7320470  69.6022880 109.2535770 101.2750140  70.2580460
 109.3008630  99.9067420  69.6119220 110.6268620 101.8518510  74.7145110
 110.3264160 101.7283480  75.6149020 110.5206110 100.9927100  74.3060840
 122.1559090 103.8897090  84.0802080 121.5561080 103.9489650  83.3366000
 122.2852990 102.9502070  84.2098930 123.3960540 101.6314910  69.4171790
 122.5653500 101.6991560  69.8879020 123.5732370 102.5219030  69.1138650
 122.8517000  98.3762390  71.9205990 123.6135910  98.9459040  72.0265680
 122.8671370  97.8089590  72.6914300 122.9036170  98.6696760  69.0778510
 123.1785010  99.5775640  68.9497730 122.7146910  98.6059290  70.0140500
 122.1901130  95.7537270  83.7047460 121.9587220  95.5250020  82.8045410
 122.4505680  96.6736820  83.6592350 120.6289200  90.9793700  86.4827160
 121.5059380  90.9877100  86.8661160 120.6410040  90.2424540  85.8719510
 122.2542190  94.9163110  80.8934730 121.3044900  94.8826650  81.0079720
 122.4355200  95.8263220  80.6584500 108.1086630  93.1664790  70.0033360
 108.8178330  92.7448010  69.5180640 107.3926570  93.2340020  69.3716710
 107.7560790  89.2204120  69.0436010 108.4788920  89.7613060  69.3617230
 108.0285310  88.9467540  68.1677550 120.8986780 105.3667670  75.7046510
 121.4945850 105.0452240  75.0280930 121.1564930 104.8939490  76.4959780
 107.1984980  88.6265980  81.6883950 106.8499800  89.0829800  82.4542130
 106.8672680  87.7323110  81.7706380 108.8049350 101.7985580  85.8537140
 108.7618980 101.4278490  86.7351600 108.9360360 102.7363150  85.9938960
 114.7109800  89.8177860  85.2103370 114.6498690  90.4099690  85.9598780
 115.6510180  89.7103820  85.0653630 117.3484360  89.4747920  84.8495660
 117.9624770  89.7927210  84.1876740 117.8933920  88.9896510  85.4691520
 123.7659540 105.3739550  82.2557500 123.2717820 105.7708420  81.5384630
 123.1572830 104.7488760  82.6494780 107.8705620  88.1542180  84.9634720
 108.4188610  87.9730230  84.2000830 107.9360930  87.3636290  85.4991030
 118.9964380  90.2450930  82.5606670 118.6677740  89.4302690  82.1808400
 119.9446680  90.2020740  82.4372360 121.4498990 106.0162970  79.5344240
 120.9901960 106.7678780  79.1602260 120.8211450 105.2969440  79.4759040
 108.1642310 104.1213830  72.5789860 107.6389930 104.5021860  71.8751820
 108.0886890 104.7464600  73.2999570 109.5532780  89.7861430  71.1773550
 110.0825540  88.9991230  71.0481500 110.1861100  90.4652620  71.4109080
 111.7470620  89.5236570  74.2318940 111.1173360  88.8223880  74.3989070
 111.2075760  90.2840700  74.0152100 122.9207630 105.6801370  73.9003800
 123.0959820 104.9939110  73.2564720 122.2229200 106.2048420  73.5080470
 111.8726180  88.8020550  86.6671430 111.5910450  89.3054150  85.9032250
 112.2545880  88.0042300  86.3013560 110.7635280 106.0696210  71.4539110
 111.4954100 105.7855490  70.9063000 111.0228950 105.8309490  72.3438490
 109.9250070 102.1860940  71.4585440 109.2958950 102.6546040  72.0071270
 110.0397900 101.3410160  71.8931630 117.3799790  96.2366600  57.6086640
 117.2993840  95.3221210  57.3378350 116.9664210  96.7333670  56.9026350
 115.5117830  98.0145620  59.4895910 114.7359930  97.5346060  59.7794480
 116.1630760  97.3351270  59.3152070 115.7588570 104.7063820  57.8899030
 115.1400010 105.1621320  57.3193470 116.6140350 104.8615280  57.4888730
 114.9526820 100.6902810  59.4966070 114.8835100  99.7492750  59.3355200
 115.7146680 100.7804220  60.0688640 111.9544730  94.8385190  59.5177620
 112.4622950  95.3366160  60.1582640 112.4857970  94.0620390  59.3416980
 110.2380830  89.4783750  63.7841040 110.2399270  89.9956140  62.9786940
 109.4085140  89.0013930  63.7610970 111.4883680  99.1178930  61.9614540
 111.1553060  99.7447850  62.6035610 111.6650360  99.6440810  61.1816210
 109.9196160  91.1893710  61.7911490 110.2612970  92.0335760  61.4965360
 108.9811970  91.3377450  61.9076830 110.7002780 101.0859730  63.7763720
 111.3176780 101.7610810  63.4948170 109.8395900 101.4947710  63.6851220
 113.6024050  88.6775980  58.1156080 113.9099030  88.1222870  57.3991580
 112.6724750  88.8120440  57.9329070 119.1539110 104.3943270  60.4063540
 119.1666270 103.9905560  59.5385800 118.6014330 105.1690560  60.3024970
 120.4484530 101.1159490  55.4953710 120.3380860 100.1733820  55.6203130
 120.4452780 101.4775130  56.3816470 115.9773890  93.0141810  51.8483360
 115.0377560  93.1755770  51.9335820 116.2957150  93.7327490  51.3019350
 120.0202100  98.3045110  55.3551450 119.4014520  97.9664660  54.7077750
 120.0026550  97.6604870  56.0630640 111.5961450  97.2689550  57.6335930
 111.1918450  96.5566800  57.1381830 111.6824570  96.9242790  58.5223970
 112.0643150 100.9557110  59.7975140 111.7671440 100.3502580  59.1182920
 113.0142970 100.9934420  59.6864500 110.3090070  94.0432760  61.4134970
 110.8604660  94.1528100  60.6388220 110.8233580  94.4170360  62.1290200
 120.1528760 104.5288980  63.4598240 119.6759320 105.3361170  63.2670850
 119.4690550 103.8767310  63.6124450 111.7813150 103.5073820  67.2325460
 111.7528580 103.9116770  66.3653890 111.6178120 102.5784180  67.0697060
 121.7783940  88.7974730  50.6765240 121.4656600  88.8901560  51.5764310
 122.5396410  89.3755760  50.6262670 123.1361220 101.4813770  65.6889640
 123.2624280 101.2425650  64.7706820 123.1782600 100.6498310  66.1611720
 118.9732360 105.4697110  53.6868450 118.8133500 105.1800050  54.5850280
 118.8079070 104.6937240  53.1513680 118.2408420 104.6047380  56.3214940
 118.6965370 103.8236760  56.6353560 118.5800940 105.3154200  56.8656120
 105.9910970 100.3763840  63.4805680 106.1542010  99.9069200  62.6625050
 106.4563420  99.8687400  64.1454520 117.1453770  95.0948820  67.3497020
 117.4707180  94.2612570  67.0099250 117.9334100  95.6177340  67.4975350
 113.8788560  89.1280300  53.3972080 113.2542740  89.1240170  54.1225390
 113.7918680  88.2611260  53.0008050 117.7841720  94.6366540  54.8438150
 117.1850610  95.3602340  54.6601770 118.3321330  94.5743320  54.0614600
 116.3906590  93.2730080  56.8741430 116.7836160  93.5902280  56.0610120
 116.7523440  92.3941960  56.9885950 108.1253710  91.9402420  65.0641550
 107.7317100  92.7877630  65.2714330 107.4372110  91.3028790  65.2550190
 109.2641500  92.4216520  58.3338910 108.9241550  92.8991750  59.0905960
 108.5018820  91.9681640  57.9740010 113.4759270  93.5402110  52.3651460
 113.5972090  93.4988590  53.3137280 113.0907780  94.4026260  52.2098190
 112.4880770  95.8503250  51.7634760 111.9197670  95.4021500  51.1370670
 113.1969770  96.2096030  51.2299910 107.5649950  99.7515270  65.6401490
 107.1804740  99.1108940  66.2384450 107.8762140 100.4551390  66.2096220
 113.7147090  96.5991810  61.1210110 114.0817220  96.1250380  61.8671450
 113.5252150  97.4733380  61.4618450 116.2526170  90.2364760  53.9716950
 115.4390780  89.7377930  53.8962260 116.0588120  91.0763010  53.5553300
 116.1735030  98.9135860  65.7156560 116.1072340  97.9931530  65.4614150
 115.5440170  99.0111300  66.4301200 118.9674560  94.6084410  52.2679110
 119.8554180  94.9201640  52.0930450 118.9379650  93.7356660  51.8759690
 116.1051760 101.7356430  65.4660360 116.1196300 100.8037390  65.2479270
 115.3976860 101.8216190  66.1050130 121.2388830  95.9196250  51.7358970
 121.1552550  96.3510470  50.8855410 121.9583020  96.3794600  52.1685790
 118.5855360 102.1801250  64.4814370 118.9211600 102.7667940  65.1592290
 117.6655700 102.0493960  64.7112160 106.4389490 105.6921830  51.7761910
 106.7987130 106.2911170  51.1219180 106.2981830 106.2381720  52.5496940
 106.1358760  89.9696430  65.2637780 105.4217280  90.1693350  65.8690390
 106.5553800  89.1936000  65.6352580 114.4143940 102.2292580  67.6502430
 114.0940810 101.5101820  68.1948120 113.7402300 102.9047650  67.7238490
 112.9643600  93.6961630  55.2384670 112.2559750  94.1647970  55.6798280
 113.2488080  93.0383640  55.8729860 114.5899530  95.1158330  63.2377200
 115.0884780  95.5904150  63.9029050 114.7322480  94.1921850  63.4447230
 116.9959030  90.4212290  56.6780460 116.8726810  90.4398420  55.7289970
 117.9443590  90.4691230  56.7978860 114.0835820 105.6567590  55.9508440
 114.3377320 105.6188980  55.0287810 113.1348300 105.5300920  55.9436690
 110.0670040  98.2579070  51.0870910 110.8333310  98.1460430  51.6496340
 110.1444730  97.5617040  50.4347680 109.5631510 105.8399530  58.8738340
 110.2993990 105.2914990  59.1446910 109.9472430 106.7055540  58.7344330
 112.6733820 105.0129840  50.6963910 113.4662430 105.3018670  50.2445700
 112.1538170 104.5822010  50.0176390 117.4054420 101.1325470  68.0099330
 116.7992580 101.1557070  67.2695080 117.1008530 100.4008510  68.5466580
 118.8354790 104.8605760  66.6208740 119.7876540 104.7763780  66.5708980
 118.6883010 105.5247470  67.2942530 106.2887600  97.5119060  67.0059970
 106.7926620  96.9326340  67.5776200 105.5495020  97.7959290  67.5436340
 120.4848890 100.6495380  67.0970510 121.2258360 100.9871140  66.5937970
 119.7221570 100.8187440  66.5440280 114.6116710  97.2781810  50.3090650
 115.1322370  96.5630830  49.9431800 115.2585110  97.9167680  50.6091160
 119.1594550  98.7010210  65.6325720 119.5735570  98.8555290  66.4816140
 118.2245550  98.8265430  65.7951500 119.6316720  96.0406370  67.6364870
 120.2137490  95.2858690  67.5485350 119.8078490  96.5713810  66.8596350
 110.7488790  91.2003120  65.9481820 110.6545660  90.5823870  65.2232690
 110.1686180  91.9269410  65.7211730 113.9209780  98.6530690  63.6021650
 114.3397890  99.4963420  63.4297890 113.0018410  98.7902730  63.3728430
 110.9947970  94.3277430  50.0071710 110.7937030  93.4644790  50.3685050
 110.8240020  94.2410790  49.0693310 117.8435880  92.5434030  66.4768330
 117.1551400  91.8815570  66.4118320 118.5641900  92.0972300  66.9216790
 118.4736280  89.1385660  52.5358590 118.7538570  88.2953560  52.8918010
 117.7002010  89.3708770  53.0497340 113.0115700  90.3712670  50.9805790
 112.6637700  89.6936660  50.4008240 113.2128470  89.9102180  51.7949180
 122.1559090 103.8897090  65.3058590 121.5561080 103.9489650  64.5622510
 122.2852990 102.9502070  65.4355440 122.8517000  98.3762390  53.1462500
 123.6135910  98.9459040  53.2522190 122.8671370  97.8089590  53.9170810
 122.9036170  98.6696760  50.3035020 123.1785010  99.5775640  50.1754240
 122.7146910  98.6059290  51.2397010 119.3011780  91.6941610  51.5988650
 119.7196660  91.5072590  50.7585310 118.9947840  90.8420660  51.9091580
 106.9413270  94.1961980  65.8231920 106.0469320  94.1628740  66.1625630
 107.4810820  94.3948770  66.5883170 108.1086630  93.1664790  51.2289870
 108.8178330  92.7448010  50.7437150 107.3926570  93.2340020  50.5973220
 123.8829870  90.5565460  50.3107920 124.8079180  90.4246640  50.1026210
 123.8605660  90.6358280  51.2644370 107.1984980  88.6265980  62.9140460
 106.8499800  89.0829800  63.6798640 106.8672680  87.7323110  62.9962890
 123.7659540 105.3739550  63.4814010 123.2717820 105.7708420  62.7641140
 123.1572830 104.7488760  63.8751290 107.8705620  88.1542180  66.1891230
 108.4188610  87.9730230  65.4257340 107.9360930  87.3636290  66.7247540
 121.4498990 106.0162970  60.7600750 120.9901960 106.7678780  60.3858770
 120.8211450 105.2969440  60.7015550 108.2749610 102.1106210  63.1499470
 107.5483670 101.4911500  63.0825420 108.3358760 102.5046820  62.2797550
 113.7221440  91.3736650  56.8530400 112.9095950  90.9993540  56.5126280
 114.2263080  90.6181730  57.1551590 121.3681020  88.4400660  53.3653750
 121.5631650  89.3384110  53.6321180 120.5810890  88.2087740  53.8586700
 108.1642310 104.1213830  53.8046370 107.6389930 104.5021860  53.1008330
 108.0886890 104.7464600  54.5256080 110.7635280 106.0696210  52.6795620
 111.4954100 105.7855490  52.1319510 111.0228950 105.8309490  53.5695000
 121.2540130 105.3645660  67.9527100 122.0465450 104.8694890  67.7453060
 121.5473280 106.0435800  68.5602710 115.9831990  93.4973190  40.9491510
 116.3596810  92.6245070  40.8365180 115.8851500  93.8331890  40.0581950
 111.9544730  94.8385190  40.7434130 112.4622950  95.3366160  41.3839150
 112.4857970  94.0620390  40.5673490 110.2380830  89.4783750  45.0097550
 110.2399270  89.9956140  44.2043450 109.4085140  89.0013930  44.9867480
 109.9196160  91.1893710  43.0168000 110.2612970  92.0335760  42.7221870
 108.9811970  91.3377450  43.1333340 110.7002780 101.0859730  45.0020230
 111.3176780 101.7610810  44.7204680 109.8395900 101.4947710  44.9107730
 105.9935120 100.2759590  33.8827080 105.6163100 100.7646690  33.1511980
 106.2508190 100.9484870  34.5133610 113.6024050  88.6775980  39.3412590
 113.9099030  88.1222870  38.6248090 112.6724750  88.8120440  39.1585580
 111.1561580 100.6938800  47.6739450 110.2590110 100.9178770  47.9212850
 111.1814450 100.8173740  46.7250850 109.9832800  97.5652120  46.2496820
 109.8440570  98.4374920  46.6184220 109.1014160  97.2224930  46.1044760
 111.7813150 103.5073820  48.4581970 111.7528580 103.9116770  47.5910400
 111.6178120 102.5784180  48.2953570 110.7629740  89.5069600  39.7422760
 110.3197890  90.2879140  39.4107280 111.3214730  89.8299490  40.4493700
 117.1453770  95.0948820  48.5753530 117.4707180  94.2612570  48.2355760
 117.9334100  95.6177340  48.7231860 112.8005640  90.0516930  41.6012360
 113.0977970  90.9579760  41.5204380 113.3491200  89.5635710  40.9871930
 112.9943170  95.5288750  48.1364280 112.8986770  94.5883480  47.9864680
 113.8375150  95.7503820  47.7412350 108.1253710  91.9402420  46.2898060
 107.7317100  92.7877630  46.4970840 107.4372110  91.3028790  46.4806700
 114.6998760  92.0237390  49.3594800 114.0097080  91.8309590  49.9940890
 115.4431060  92.3072030  49.8919100 116.9761730  95.8635830  42.1948720
 116.2442850  96.3722640  42.5438820 116.5786070  95.0465810  41.8937500
 113.4139120  92.5390030  40.6001210 113.4175180  92.0979980  39.7505750
 114.3090240  92.8607360  40.7073030 112.4880770  95.8503250  32.9891270
 111.9197670  95.4021500  32.3627180 113.1969770  96.2096030  32.4556420
 120.8658390  88.7301690  47.4458040 121.1904160  87.9991350  47.9716020
 120.9014900  88.4115330  46.5439030 111.5046460  95.6400450  44.6650830
 111.2003530  96.5192430  44.8901190 112.4592920  95.7000240  44.7008270
 110.0328250  99.8461440  35.2617680 109.2590510  99.3059060  35.1016400
 110.7622880  99.3268050  34.9235440 116.1735030  98.9135860  46.9413070
 116.1072340  97.9931530  46.6870660 115.5440170  99.0111300  47.6557710
 110.7623310  96.9387430  48.6961740 110.4623450  97.0844610  47.7989560
 111.5334550  96.3792720  48.6035130 122.2676080 102.7738510  35.6897610
 121.6252240 102.1194130  35.9641330 121.8806740 103.1793600  34.9138280
 109.1364830  88.2105310  37.0287590 109.0079460  88.2023210  37.9772510
 108.3126850  88.5488400  36.6778600 120.6573460 101.6654970  32.2273960
 120.4311040 100.9485410  32.8198600 120.2669660 101.4167410  31.3895710
 106.4389490 105.6921830  33.0018420 106.7987130 106.2911170  32.3475690
 106.2981830 106.2381720  33.7753450 106.1358760  89.9696430  46.4894290
 105.4217280  90.1693350  47.0946900 106.5553800  89.1936000  46.8609090
 106.4231350 103.9576690  47.4760820 106.5322470 103.0171430  47.3356210
 105.7711910 104.2231440  46.8274550 114.4143940 102.2292580  48.8758940
 114.0940810 101.5101820  49.4204630 113.7402300 102.9047650  48.9495000
 108.0564750  98.2967920  34.5638850 107.4492700  99.0366820  34.5734150
 108.5314100  98.3867280  33.7377050 114.5899530  95.1158330  44.4633710
 115.0884780  95.5904150  45.1285560 114.7322480  94.1921850  44.6703740
 111.1678620  92.0046710  33.8391890 112.0169150  92.4416860  33.7732080
 110.8009890  92.3166970  34.6663950 110.0670040  98.2579070  32.3127420
 110.8333310  98.1460430  32.8752850 110.1444730  97.5617040  31.6604190
 108.5689790 105.0245600  49.2880430 109.3702520 105.3457650  49.7015830
 108.0541610 104.6641180  50.0100340 112.6733820 105.0129840  31.9220420
 113.4662430 105.3018670  31.4702210 112.1538170 104.5822010  31.2432900
 121.7263990 104.2399970  33.3457160 121.4405500 103.8265110  32.5311340
 121.5283540 105.1687680  33.2257680 113.1911220 100.2333250  31.7862770
 113.0861860  99.6185600  32.5124150 113.0235440  99.7099140  31.0025780
 113.3425540  98.9190050  47.7652000 112.5771210  99.4875050  47.6806670
 113.5241500  98.6266260  46.8720230 110.2616490  94.2340750  47.0941040
 109.7312950  93.7431700  46.4664380 110.9304560  94.6624950  46.5598970
 114.6116710  97.2781810  31.5347160 115.1322370  96.5630830  31.1688310
 115.2585110  97.9167680  31.8347670 119.1594550  98.7010210  46.8582230
 119.5735570  98.8555290  47.7072650 118.2245550  98.8265430  47.0208010
 110.7488790  91.2003120  47.1738330 110.6545660  90.5823870  46.4489200
 110.1686180  91.9269410  46.9468240 116.2573680  96.3846870  46.2116000
 116.3769890  95.7888010  46.9510840 117.1167680  96.4216560  45.7917300
 111.7717200 104.9583700  45.9435890 111.2338290 105.6829760  45.6244590
 112.0251160 104.4814040  45.1533230 113.0242450  92.9268220  47.4691820
 113.6142140  92.6184070  48.1569640 112.2062690  92.4547970  47.6251720
 117.8435880  92.5434030  47.7024840 117.1551400  91.8815570  47.6374830
 118.5641900  92.0972300  48.1473300 108.8160900 100.7320470  32.0535900
 109.2535770 101.2750140  32.7093480 109.3008630  99.9067420  32.0632240
 123.3960540 101.6314910  31.8684810 122.5653500 101.6991560  32.3392040
 123.5732370 102.5219030  31.5651670 122.9036170  98.6696760  31.5291530
 123.1785010  99.5775640  31.4010750 122.7146910  98.6059290  32.4653520
 106.9413270  94.1961980  47.0488430 106.0469320  94.1628740  47.3882140
 107.4810820  94.3948770  47.8139680 121.3405320  88.6651670  44.7541290
 121.9777540  89.2785810  45.1200480 121.4880210  88.7012330  43.8090520
 108.8049350 101.7985580  48.3050160 108.7618980 101.4278490  49.1864620
 108.9360360 102.7363150  48.4451980 123.7659540 105.3739550  44.7070520
 123.2717820 105.7708420  43.9897650 123.1572830 104.7488760  45.1007800
 107.8705620  88.1542180  47.4147740 108.4188610  87.9730230  46.6513850
 107.9360930  87.3636290  47.9504050 108.6437380 104.7447830  45.4247940
 108.0497700 104.6132530  46.1637980 108.6361220 103.9085970  44.9590040
 118.2246420  88.0379100  39.3169980 118.8275790  88.6099310  39.7918500
 117.4839410  88.6018540  39.0943880 122.9207630 105.6801370  36.3516820
 123.0959820 104.9939110  35.7077740 122.2229200 106.2048420  35.9593490
 111.8726180  88.8020550  49.1184450 111.5910450  89.3054150  48.3545270
 112.2545880  88.0042300  48.7526580 109.9250070 102.1860940  33.9098460
 109.2958950 102.6546040  34.4584290 110.0397900 101.3410160  34.3444650
 118.4741640  88.2174130  49.6964920 118.3607090  88.5368740  50.5916440
 119.2911380  88.6186640  49.4002200 117.3799790  96.2366600  20.0599660
 117.2993840  95.3221210  19.7891370 116.9664210  96.7333670  19.3539370
 115.5117830  98.0145620  21.9408930 114.7359930  97.5346060  22.2307500
 116.1630760  97.3351270  21.7665090 109.5283660  98.3265430  22.8184690
 108.6968540  98.0714140  23.2181200 110.1364640  98.3976200  23.5542610
 119.5325260 102.4205810  20.7208060 119.0706790 101.6493050  21.0495230
 120.3450810 102.4471880  21.2260510 109.5084920 102.3605520  23.0142710
 109.8112960 101.4703260  22.8352930 110.2528510 102.9175740  22.7864960
 107.9375610  93.2867320  16.6027080 107.0492310  93.6283290  16.5006960
 108.2216800  93.0867640  15.7107910 105.9008620  95.8872970  22.4866780
 106.4724730  95.1195170  22.4870420 105.9010160  96.1861730  21.5773390
 115.7588570 104.7063820  20.3412050 115.1400010 105.1621320  19.7706490
 116.6140350 104.8615280  19.9401750 114.9526820 100.6902810  21.9479090
 114.8835100  99.7492750  21.7868220 115.7146680 100.7804220  22.5201660
 115.9831990  93.4973190  22.1748020 116.3596810  92.6245070  22.0621690
 115.8851500  93.8331890  21.2838460 110.1137000  91.8698820  17.6365460
 110.2203750  92.7702550  17.9434220 109.2029360  91.8216790  17.3460110
 119.7656110  90.9923630  19.1076360 120.5865730  90.5020200  19.1501840
 119.7990190  91.5821290  19.8608200 111.9544730  94.8385190  21.9690640
 112.4622950  95.3366160  22.6095660 112.4857970  94.0620390  21.7930000
 124.0555660  93.0090380  25.6719990 123.3507830  93.3972090  25.1535100
 124.3213580  93.7040670  26.2740920 116.6251920  99.5903060  17.7343960
 116.0069190 100.0552510  17.1706680 117.1375170 100.2830540  18.1513470
 111.4883680  99.1178930  24.4127560 111.1553060  99.7447850  25.0548630
 111.6650360  99.6440810  23.6329230 120.0017590  92.9324010  21.8803900
 119.2973160  93.2208900  22.4607010 120.3629750  93.7424120  21.5203460
 110.7002780 101.0859730  26.2276740 111.3176780 101.7610810  25.9461190
 109.8395900 101.4947710  26.1364240 105.9935120 100.2759590  15.1083590
 105.6163100 100.7646690  14.3768490 106.2508190 100.9484870  15.7390120
 121.6180370 102.5499140  24.1431380 120.9343890 103.2198250  24.1348050
 122.1574660 102.7479790  23.3776240 123.0704510  92.3778800  22.2713110
 122.1229420  92.4117780  22.4028540 123.3954500  93.1917750  22.6562470
 113.6024050  88.6775980  20.5669100 113.9099030  88.1222870  19.8504600
 112.6724750  88.8120440  20.3842090 119.1539110 104.3943270  22.8576560
 119.1666270 103.9905560  21.9898820 118.6014330 105.1690560  22.7537990
 120.4484530 101.1159490  17.9466730 120.3380860 100.1733820  18.0716150
 120.4452780 101.4775130  18.8329490 118.5524550  99.2973110  24.1859170
 118.9693340  99.0833220  23.3512630 119.2764370  99.5545900  24.7567790
 115.9904810  96.7424810  17.3029220 115.0634090  96.6762190  17.5317690
 116.1429630  97.6804940  17.1884460 115.9773890  93.0141810  14.2996380
 115.0377560  93.1755770  14.3848840 116.2957150  93.7327490  13.7532370
 122.4986650  97.6960330  24.2775410 121.6705280  97.7653420  23.8025540
 123.0937130  98.2814640  23.8091240 120.0202100  98.3045110  17.8064470
 119.4014520  97.9664660  17.1590770 120.0026550  97.6604870  18.5143660
 119.4628660  94.4829650  25.2230280 119.0499840  95.3083360  25.4770270
 118.7304610  93.8974690  25.0306640 111.5961450  97.2689550  20.0848950
 111.1918450  96.5566800  19.5894850 111.6824570  96.9242790  20.9736990
 112.0643150 100.9557110  22.2488160 111.7671440 100.3502580  21.5695940
 113.0142970 100.9934420  22.1377520 120.1528760 104.5288980  25.9111260
 119.6759320 105.3361170  25.7183870 119.4690550 103.8767310  26.0637470
 111.1561580 100.6938800  28.8995960 110.2590110 100.9178770  29.1469360
 111.1814450 100.8173740  27.9507360 118.1966800  97.5431920  14.8137220
 118.6360080  96.7054350  14.6675040 118.9095220  98.1761320  14.9001360
 116.3062180 102.4827990  18.7818460 116.7458090 103.2252320  18.3673850
 116.2449070 102.7254560  19.7057420 111.7813150 103.5073820  29.6838480
 111.7528580 103.9116770  28.8166910 111.6178120 102.5784180  29.5210080
 121.7783940  88.7974730  13.1278260 121.4656600  88.8901560  14.0277330
 122.5396410  89.3755760  13.0775690 108.2966080  96.1634530  17.5855600
 108.1763680  96.8896620  16.9736870 107.9866970  95.3937440  17.1083510
 123.7327970 104.2900920  30.9802650 124.2087690 104.7683810  31.6591730
 124.3535130 104.2218410  30.2548150 105.9351450  99.3349670  23.3924240
 106.0131870  99.4698440  22.4479960 106.5493130  98.6265560  23.5852360
 107.1799080 101.0349860  19.8030420 106.7727160 101.1764450  18.9484020
 108.0712090 100.7510020  19.6001630 123.1361220 101.4813770  28.1402660
 123.2624280 101.2425650  27.2219840 123.1782600 100.6498310  28.6124740
 116.9977960 105.1841770  26.7097470 117.5122630 105.0949780  27.5119900
 116.1547040 105.5301470  27.0025380 118.9732360 105.4697110  16.1381470
 118.8133500 105.1800050  17.0363300 118.8079070 104.6937240  15.6026700
 111.4520740 105.2495640  17.9153090 111.2763220 104.3331180  17.7020890
 110.5976480 105.6082930  18.1550890 118.6758490 102.9784670  14.6979470
 117.9823650 102.9761960  14.0381750 119.4181350 102.5543990  14.2673640
 118.2408420 104.6047380  18.7727960 118.6965370 103.8236760  19.0866580
 118.5800940 105.3154200  19.3169140 122.9885230  93.5346230  29.1052400
 122.3729500  94.0425900  28.5767860 122.6681650  92.6344560  29.0478340
 105.9910970 100.3763840  25.9318700 106.1542010  99.9069200  25.1138070
 106.4563420  99.8687400  26.5967540 110.7629740  89.5069600  20.9679270
 110.3197890  90.2879140  20.6363790 111.3214730  89.8299490  21.6750210
 115.0499550  92.3738120  26.5714590 114.5878920  92.5821140  27.3834530
 114.6477660  91.5597470  26.2685260 120.0504060  93.5947070  27.7011250
 119.1997650  93.2952820  28.0220320 119.8905850  93.8389080  26.7895070
 113.8788560  89.1280300  15.8485100 113.2542740  89.1240170  16.5738410
 113.7918680  88.2611260  15.4521070 110.5543960  94.6303170  18.6960520
 110.3284880  94.4140340  19.6007140 109.7736490  95.0631630  18.3506490
 117.7841720  94.6366540  17.2951170 117.1850610  95.3602340  17.1114790
 118.3321330  94.5743320  16.5127620 116.3906590  93.2730080  19.3254450
 116.7836160  93.5902280  18.5123140 116.7523440  92.3941960  19.4398970
 114.6998760  92.0237390  30.5851310 114.0097080  91.8309590  31.2197400
 115.4431060  92.3072030  31.1175610 105.4270760  89.8630880  21.5484650
 105.1383810  90.4333740  22.2609630 106.1716520  89.3835330  21.9115880
 105.6140990  93.8051000  12.7587370 105.5315660  94.7481760  12.9002360
 105.2624050  93.6625910  11.8799720 116.9761730  95.8635830  23.4205230
 116.2442850  96.3722640  23.7695330 116.5786070  95.0465810  23.1194010
 113.4139120  92.5390030  21.8257720 113.4175180  92.0979980  20.9762260
 114.3090240  92.8607360  21.9329540 109.2641500  92.4216520  20.7851930
 108.9241550  92.8991750  21.5418980 108.5018820  91.9681640  20.4253030
 113.4759270  93.5402110  14.8164480 113.5972090  93.4988590  15.7650300
 113.0907780  94.4026260  14.6611210 117.4387640  91.3169510  22.8328170
 117.4560380  91.7678160  23.6770020 117.1903220  90.4175150  23.0461610
 112.4880770  95.8503250  14.2147780 111.9197670  95.4021500  13.5883690
 113.1969770  96.2096030  13.6812930 120.8658390  88.7301690  28.6714550
 121.1904160  87.9991350  29.1972530 120.9014900  88.4115330  27.7695540
 113.7147090  96.5991810  23.5723130 114.0817220  96.1250380  24.3184470
 113.5252150  97.4733380  23.9131470 106.5787580  91.3435500  19.7016600
 106.2934500  90.9791170  20.5395220 106.5166440  90.6115960  19.0879740
 110.0328250  99.8461440  16.4874190 109.2590510  99.3059060  16.3272910
 110.7622880  99.3268050  16.1491950 120.7916230  98.8426800  22.2800580
 121.5115350  99.3382090  21.8896690 120.5898050  98.1644690  21.6354450
 116.2526170  90.2364760  16.4229970 115.4390780  89.7377930  16.3475280
 116.0588120  91.0763010  16.0066320 116.1735030  98.9135860  28.1669580
 116.1072340  97.9931530  27.9127170 115.5440170  99.0111300  28.8814220
 118.9674560  94.6084410  14.7192130 119.8554180  94.9201640  14.5443470
 118.9379650  93.7356660  14.3272710 110.0765650  99.5141820  20.1253000
 110.5944320  98.7110080  20.0709890 109.6249670  99.4520960  20.9669830
 114.9635150 100.7808100  15.3980300 115.3050850 101.5250330  14.9023620
 114.1347860 101.0939220  15.7605130 116.1051760 101.7356430  27.9173380
 116.1196300 100.8037390  27.6992290 115.3976860 101.8216190  28.5563150
 121.2388830  95.9196250  14.1871990 121.1552550  96.3510470  13.3368430
 121.9583020  96.3794600  14.6198810 122.3162970  98.3763770  27.2641960
 121.5911160  98.9692550  27.0671350 122.8438430  98.3687310  26.4655330
 122.2676080 102.7738510  16.9154120 121.6252240 102.1194130  17.1897840
 121.8806740 103.1793600  16.1394790 117.8462560 100.1023940  20.7625810
 118.1986380  99.5052070  20.1027180 116.9624890  99.7768170  20.9334060
 113.9325840 100.8621630  18.1696220 114.6196970 101.4090840  18.5503810
 113.1458260 101.4062360  18.2045830 106.0718240  96.4794450  13.6613300
 106.9413090  96.7619250  13.9449220 105.5808560  97.2930320  13.5462110
 113.2353050  97.8667660  17.7821580 113.6915830  98.6772910  18.0081770
 112.8841260  97.5490800  18.6140070 115.5385660 103.3774000  25.0113880
 116.1827880 103.5833380  25.6887300 115.9015100 102.6162400  24.5584730
 109.1364830  88.2105310  18.2544100 109.0079460  88.2023210  19.2029020
 108.3126850  88.5488400  17.9035110 116.8117740 101.3806350  23.7291330
 117.4539970 100.6799510  23.8423500 117.3367090 102.1604790  23.5488220
 120.6573460 101.6654970  13.4530470 120.4311040 100.9485410  14.0455110
 120.2669660 101.4167410  12.6152220 118.5855360 102.1801250  26.9327390
 118.9211600 102.7667940  27.6105310 117.6655700 102.0493960  27.1625180
 106.4389490 105.6921830  14.2274930 106.7987130 106.2911170  13.5732200
 106.2981830 106.2381720  15.0009960 120.2389710  99.5826910  15.1144630
 119.9511410 100.0439600  15.9022510 121.0341880  99.1224680  15.3828850
 106.4231350 103.9576690  28.7017330 106.5322470 103.0171430  28.5612720
 105.7711910 104.2231440  28.0531060 114.4143940 102.2292580  30.1015450
 114.0940810 101.5101820  30.6461140 113.7402300 102.9047650  30.1751510
 112.4558110 103.0753030  15.0448600 112.4468210 103.8082720  14.4293110
 111.5356470 102.8284610  15.1375560 108.0564750  98.2967920  15.7895360
 107.4492700  99.0366820  15.7990660 108.5314100  98.3867280  14.9633560
 117.6297540  92.4618740  25.4652250 117.9978360  91.6413950  25.7931820
 116.7695740  92.5220630  25.8807900 120.9959570  91.4175680  16.2739810
 120.3672730  91.5221350  15.5598040 120.5011490  91.6372460  17.0633690
 115.4417710 103.1381270  13.7073790 115.5429690 102.9345260  12.7775770
 114.5419450 102.8839550  13.9121570 112.9643600  93.6961630  17.6897690
 112.2559750  94.1647970  18.1311300 113.2488080  93.0383640  18.3242880
 114.5899530  95.1158330  25.6890220 115.0884780  95.5904150  26.3542070
 114.7322480  94.1921850  25.8960250 116.9959030  90.4212290  19.1293480
 116.8726810  90.4398420  18.1802990 117.9443590  90.4691230  19.2491880
 114.0835820 105.6567590  18.4021460 114.3377320 105.6188980  17.4800830
 113.1348300 105.5300920  18.3949710 111.1678620  92.0046710  15.0648400
 112.0169150  92.4416860  14.9988590 110.8009890  92.3166970  15.8920460
 121.7966390  91.3326290  26.5318610 121.2939990  92.0731690  26.8712420
 122.6123050  91.7210290  26.2155400 120.0888400  96.5759470  19.9779970
 119.1478540  96.5909700  20.1527660 120.4032470  95.7895430  20.4240270
 110.0670040  98.2579070  13.5383930 110.8333310  98.1460430  14.1009360
 110.1444730  97.5617040  12.8860700 108.7616800  95.6904140  14.2216820
 108.8420390  94.7431650  14.3334220 109.6536550  96.0211020  14.3277480
 122.0913980 103.7468320  21.6534230 122.2161400 104.5699490  22.1258040
 122.9579540 103.5359050  21.3058380 109.5631510 105.8399530  21.3251360
 110.2993990 105.2914990  21.5959930 109.9472430 106.7055540  21.1857350
 106.4476990 101.9073100  17.1992870 105.5216770 102.1494240  17.1898280
 106.9133420 102.7347360  17.0777620 108.5689790 105.0245600  30.5136940
 109.3702520 105.3457650  30.9272340 108.0541610 104.6641180  31.2356850
 112.6733820 105.0129840  13.1476930 113.4662430 105.3018670  12.6958720
 112.1538170 104.5822010  12.4689410 117.4054420 101.1325470  30.4612350
 116.7992580 101.1557070  29.7208100 117.1008530 100.4008510  30.9979600
 118.8354790 104.8605760  29.0721760 119.7876540 104.7763780  29.0222000
 118.6883010 105.5247470  29.7455550 121.7263990 104.2399970  14.5713670
 121.4405500 103.8265110  13.7567850 121.5283540 105.1687680  14.4514190
 113.1911220 100.2333250  13.0119280 113.0861860  99.6185600  13.7380660
 113.0235440  99.7099140  12.2282290 113.3425540  98.9190050  28.9908510
 112.5771210  99.4875050  28.9063180 113.5241500  98.6266260  28.0976740
 116.4313950  99.2953280  13.6161270 115.8824050  99.7422580  14.2604010
 117.0533210  98.7902530  14.1398940 120.4848890 100.6495380  29.5483530
 121.2258360 100.9871140  29.0450990 119.7221570 100.8187440  28.9953300
 112.0989070  98.2544200  15.5126570 112.5205490  98.0884070  16.3557960
 112.2239910  97.4444430  15.0181710 114.6116710  97.2781810  12.7603670
 115.1322370  96.5630830  12.3944820 115.2585110  97.9167680  13.0604180
 119.1594550  98.7010210  28.0838740 119.5735570  98.8555290  28.9329160
 118.2245550  98.8265430  28.2464520 113.9209780  98.6530690  26.0534670
 114.3397890  99.4963420  25.8810910 113.0018410  98.7902730  25.8241450
 116.2573680  96.3846870  27.4372510 116.3769890  95.7888010  28.1767350
 117.1167680  96.4216560  27.0173810 118.5961580  96.9384060  26.0135020
 118.0696800  97.4626680  25.4100160 118.9392920  97.5711450  26.6444750
 110.9947970  94.3277430  12.4584730 110.7937030  93.4644790  12.8198070
 110.8240020  94.2410790  11.5206330 111.7717200 104.9583700  27.1692400
 111.2338290 105.6829760  26.8501100 112.0251160 104.4814040  26.3789740
 117.8435880  92.5434030  28.9281350 117.1551400  91.8815570  28.8631340
 118.5641900  92.0972300  29.3729810 118.4736280  89.1385660  14.9871610
 118.7538570  88.2953560  15.3431030 117.7002010  89.3708770  15.5010360
 109.7930770  91.4278050  12.4462610 110.0956670  91.4345480  11.5381760
 110.5325360  91.0775910  12.9430270 114.6279410 106.1934910  27.4279050
 114.5538110 107.0970050  27.7351420 113.7258250 105.8746810  27.4001120
 113.0115700  90.3712670  13.4318810 112.6637700  89.6936660  12.8521260
 113.2128470  89.9102180  14.2462200 115.1764740 105.3593420  15.0505410
 116.0715530 105.6978390  15.0724170 115.2082370 104.6372830  14.4229690
 108.8160900 100.7320470  13.2792410 109.2535770 101.2750140  13.9349990
 109.3008630  99.9067420  13.2888750 106.0306700 103.5209500  20.7312670
 106.3609710 102.6530560  20.4991310 106.4597700 103.7268020  21.5617630
 110.6268620 101.8518510  18.3914640 110.3264160 101.7283480  19.2918550
 110.5206110 100.9927100  17.9830370 106.5196910 104.3880090  23.4694300
 106.0827900 104.5680890  24.3018450 107.0874590 105.1454710  23.3276020
 122.1559090 103.8897090  27.7571610 121.5561080 103.9489650  27.0135530
 122.2852990 102.9502070  27.8868460 123.3960540 101.6314910  13.0941320
 122.5653500 101.6991560  13.5648550 123.5732370 102.5219030  12.7908180
 122.8517000  98.3762390  15.5975520 123.6135910  98.9459040  15.7035210
 122.8671370  97.8089590  16.3683830 106.3521340  96.9000320  19.8283180
 105.6970180  96.6311960  19.1842880 107.1899290  96.7904800  19.3785160
 123.8576970  99.2312490  20.4417450 124.2285800  98.4479810  20.0353420
 124.4978900  99.9201590  20.2634750 120.8410730 100.6149070  25.8547770
 120.0270570 101.0446230  26.1173560 121.2484930 101.2267480  25.2416820
 122.9036170  98.6696760  12.7548040 123.1785010  99.5775640  12.6267260
 122.7146910  98.6059290  13.6910030 119.3011780  91.6941610  14.0501670
 119.7196660  91.5072590  13.2098330 118.9947840  90.8420660  14.3604600
 122.8001510  96.6065750  17.7477470 122.4245110  95.8393680  17.3158760
 122.0704630  96.9888450  18.2352400 122.1901130  95.7537270  27.3816990
 121.9587220  95.5250020  26.4814940 122.4505680  96.6736820  27.3361880
 120.6289200  90.9793700  30.1596690 121.5059380  90.9877100  30.5430690
 120.6410040  90.2424540  29.5489040 105.5659420  94.1099250  15.7708510
 104.6623500  94.3729450  15.5960170 106.0500040  94.3810420  14.9908470
 122.0752470  94.8323240  21.0484710 122.5989950  94.3385890  20.4174880
 122.6611890  94.9673600  21.7932280 122.2542190  94.9163110  24.5704260
 121.3044900  94.8826650  24.6849250 122.4355200  95.8263220  24.3354030
 108.1086630  93.1664790  13.6802890 108.8178330  92.7448010  13.1950170
 107.3926570  93.2340020  13.0486240 107.7560790  89.2204120  12.7205540
 108.4788920  89.7613060  13.0386760 108.0285310  88.9467540  11.8447080
 121.5652440  94.0896590  16.9877120 122.0611560  93.8567460  17.7726000
 121.3668510  93.2508430  16.5714760 107.4452980  88.4710310  22.6228160
 108.0929170  87.9207690  22.1823320 107.8654820  88.7253460  23.4443970
 122.9939600  92.7257540  19.5214800 122.8838880  92.5713580  20.4597070
 123.7547190  92.1978480  19.2790210 121.3405320  88.6651670  25.9797800
 121.9777540  89.2785810  26.3456990 121.4880210  88.7012330  25.0347030
 123.8829870  90.5565460  12.7620940 124.8079180  90.4246640  12.5539230
 123.8605660  90.6358280  13.7157390 123.9568360  91.3276120  15.3877650
 123.1619860  91.2621240  15.9170560 124.1611640  92.2626760  15.3763000
 120.8986780 105.3667670  19.3816040 121.4945850 105.0452240  18.7050460
 121.1564930 104.8939490  20.1729310 108.8049350 101.7985580  29.5306670
 108.7618980 101.4278490  30.4121130 108.9360360 102.7363150  29.6708490
 112.5055380 103.3545170  25.1316390 112.2646740 103.6219730  24.2446910
 113.4458020 103.5250900  25.1867250 114.7109800  89.8177860  28.8872900
 114.6498690  90.4099690  29.6368310 115.6510180  89.7103820  28.7423160
 117.3484360  89.4747920  28.5265190 117.9624770  89.7927210  27.8646270
 117.8933920  88.9896510  29.1461050 123.7659540 105.3739550  25.9327030
 123.2717820 105.7708420  25.2154160 123.1572830 104.7488760  26.3264310
 108.6437380 104.7447830  26.6504450 108.0497700 104.6132530  27.3894490
 108.6361220 103.9085970  26.1846550 118.0892400  88.0380060  24.8534480
 117.2152240  88.3715170  24.6507410 117.9803150  87.5653240  25.6786350
 118.9964380  90.2450930  26.2376200 118.6677740  89.4302690  25.8577930
 119.9446680  90.2020740  26.1141890 121.4498990 106.0162970  23.2113770
 120.9901960 106.7678780  22.8371790 120.8211450 105.2969440  23.1528570
 108.2749610 102.1106210  25.6012490 107.5483670 101.4911500  25.5338440
 108.3358760 102.5046820  24.7310570 111.8794710 104.3251210  22.3861900
 112.3959730 103.7138570  21.8610160 112.5292090 104.8279990  22.8772910
 114.6190210 105.2159700  23.2130880 114.9068020 104.9614000  22.3363890
 115.1313430 104.6637060  23.8036450 115.8367220  88.9549900  23.7927390
 115.0539010  89.4295400  24.0724150 115.5430150  88.0504730  23.6840570
 120.3888290  89.6573000  21.8376480 120.8296380  89.6018100  20.9898080
 120.1195880  90.5731010  21.9086660 122.2526860  89.2888240  19.8485300
 122.1915260  88.3449460  19.7016320 123.0318890  89.3968330  20.3938760
 106.5579610 105.4280600  18.8109250 106.3901650 104.7951280  19.5091140
 105.6914120 105.6340000  18.4603440 107.1807630  89.2597380  16.3141110
 107.9386990  89.3726260  15.7405140 106.7184800  90.0966580  16.2684540
 113.7221440  91.3736650  19.3043420 112.9095950  90.9993540  18.9639300
 114.2263080  90.6181730  19.6064610 118.2246420  88.0379100  20.5426490
 118.8275790  88.6099310  21.0175010 117.4839410  88.6018540  20.3200390
 121.3681020  88.4400660  15.8166770 121.5631650  89.3384110  16.0834200
 120.5810890  88.2087740  16.3099720 108.1642310 104.1213830  16.2559390
 107.6389930 104.5021860  15.5521350 108.0886890 104.7464600  16.9769100
 109.5532780  89.7861430  14.8543080 110.0825540  88.9991230  14.7251030
 110.1861100  90.4652620  15.0878610 111.7470620  89.5236570  17.9088470
 111.1173360  88.8223880  18.0758600 111.2075760  90.2840700  17.6921630
 114.6862570 106.1375800  30.5799080 115.6129880 105.9020070  30.6235040
 114.6713000 106.9647800  30.0985110 122.9207630 105.6801370  17.5773330
 123.0959820 104.9939110  16.9334250 122.2229200 106.2048420  17.1850000
 110.7635280 106.0696210  15.1308640 111.4954100 105.7855490  14.5832530
 111.0228950 105.8309490  16.0208020 109.9250070 102.1860940  15.1354970
 109.2958950 102.6546040  15.6840800 110.0397900 101.3410160  15.5701160
 118.4741640  88.2174130  30.9221430 118.3607090  88.5368740  31.8172950
 119.2911380  88.6186640  30.6258710 121.2540130 105.3645660  30.4040120
 122.0465450 104.8694890  30.1966080 121.5473280 106.0435800  31.0115730
 115.5117830  98.0145620   3.1665440 114.7359930  97.5346060   3.4564010
 116.1630760  97.3351270   2.9921600 109.5283660  98.3265430   4.0441200
 108.6968540  98.0714140   4.4437710 110.1364640  98.3976200   4.7799120
 119.5325260 102.4205810   1.9464570 119.0706790 101.6493050   2.2751740
 120.3450810 102.4471880   2.4517020 109.5084920 102.3605520   4.2399220
 109.8112960 101.4703260   4.0609440 110.2528510 102.9175740   4.0121470
 105.9008620  95.8872970   3.7123290 106.4724730  95.1195170   3.7126930
 105.9010160  96.1861730   2.8029900 114.9526820 100.6902810   3.1735600
 114.8835100  99.7492750   3.0124730 115.7146680 100.7804220   3.7458170
 107.1433490  91.2957330   5.4992220 106.9636330  90.3983080   5.7794980
 106.7413570  91.8429200   6.1739170 115.9831990  93.4973190   3.4004530
 116.3596810  92.6245070   3.2878200 115.8851500  93.8331890   2.5094970
 107.7620160  93.7917830   4.1074560 108.4430270  94.0556200   4.7261960
 107.4468210  92.9518700   4.4412570 111.9544730  94.8385190   3.1947150
 112.4622950  95.3366160   3.8352170 112.4857970  94.0620390   3.0186510
 124.0555660  93.0090380   6.8976500 123.3507830  93.3972090   6.3791610
 124.3213580  93.7040670   7.4997430 110.2380830  89.4783750   7.4610570
 110.2399270  89.9956140   6.6556470 109.4085140  89.0013930   7.4380500
 111.4883680  99.1178930   5.6384070 111.1553060  99.7447850   6.2805140
 111.6650360  99.6440810   4.8585740 120.0017590  92.9324010   3.1060410
 119.2973160  93.2208900   3.6863520 120.3629750  93.7424120   2.7459970
 109.9196160  91.1893710   5.4681020 110.2612970  92.0335760   5.1734890
 108.9811970  91.3377450   5.5846360 110.7002780 101.0859730   7.4533250
 111.3176780 101.7610810   7.1717700 109.8395900 101.4947710   7.3620750
 121.6180370 102.5499140   5.3687890 120.9343890 103.2198250   5.3604560
 122.1574660 102.7479790   4.6032750 123.0704510  92.3778800   3.4969620
 122.1229420  92.4117780   3.6285050 123.3954500  93.1917750   3.8818980
 119.1539110 104.3943270   4.0833070 119.1666270 103.9905560   3.2155330
 118.6014330 105.1690560   3.9794500 118.5524550  99.2973110   5.4115680
 118.9693340  99.0833220   4.5769140 119.2764370  99.5545900   5.9824300
 122.4986650  97.6960330   5.5031920 121.6705280  97.7653420   5.0282050
 123.0937130  98.2814640   5.0347750 119.4628660  94.4829650   6.4486790
 119.0499840  95.3083360   6.7026780 118.7304610  93.8974690   6.2563150
 112.0643150 100.9557110   3.4744670 111.7671440 100.3502580   2.7952450
 113.0142970 100.9934420   3.3634030 110.3090070  94.0432760   5.0904500
 110.8604660  94.1528100   4.3157750 110.8233580  94.4170360   5.8059730
 120.1528760 104.5288980   7.1367770 119.6759320 105.3361170   6.9440380
 119.4690550 103.8767310   7.2893980 111.1561580 100.6938800  10.1252470
 110.2590110 100.9178770  10.3725870 111.1814450 100.8173740   9.1763870
 109.9832800  97.5652120   8.7009840 109.8440570  98.4374920   9.0697240
 109.1014160  97.2224930   8.5557780 111.7813150 103.5073820  10.9094990
 111.7528580 103.9116770  10.0423420 111.6178120 102.5784180  10.7466590
 123.7327970 104.2900920  12.2059160 124.2087690 104.7683810  12.8848240
 124.3535130 104.2218410  11.4804660 105.9351450  99.3349670   4.6180750
 106.0131870  99.4698440   3.6736470 106.5493130  98.6265560   4.8108870
 123.1361220 101.4813770   9.3659170 123.2624280 101.2425650   8.4476350
 123.1782600 100.6498310   9.8381250 116.9977960 105.1841770   7.9353980
 117.5122630 105.0949780   8.7376410 116.1547040 105.5301470   8.2281890
 122.9885230  93.5346230  10.3308910 122.3729500  94.0425900   9.8024370
 122.6681650  92.6344560  10.2734850 105.9910970 100.3763840   7.1575210
 106.1542010  99.9069200   6.3394580 106.4563420  99.8687400   7.8224050
 110.7629740  89.5069600   2.1935780 110.3197890  90.2879140   1.8620300
 111.3214730  89.8299490   2.9006720 115.0499550  92.3738120   7.7971100
 114.5878920  92.5821140   8.6091040 114.6477660  91.5597470   7.4941770
 120.0504060  93.5947070   8.9267760 119.1997650  93.2952820   9.2476830
 119.8905850  93.8389080   8.0151580 117.1453770  95.0948820  11.0266550
 117.4707180  94.2612570  10.6868780 117.9334100  95.6177340  11.1744880
 112.8005640  90.0516930   4.0525380 113.0977970  90.9579760   3.9717400
 113.3491200  89.5635710   3.4384950 112.9943170  95.5288750  10.5877300
 112.8986770  94.5883480  10.4377700 113.8375150  95.7503820  10.1925370
 108.1253710  91.9402420   8.7411080 107.7317100  92.7877630   8.9483860
 107.4372110  91.3028790   8.9319720 114.6998760  92.0237390  11.8107820
 114.0097080  91.8309590  12.4453910 115.4431060  92.3072030  12.3432120
 105.4270760  89.8630880   2.7741160 105.1383810  90.4333740   3.4866140
 106.1716520  89.3835330   3.1372390 116.9761730  95.8635830   4.6461740
 116.2442850  96.3722640   4.9951840 116.5786070  95.0465810   4.3450520
 113.4139120  92.5390030   3.0514230 113.4175180  92.0979980   2.2018770
 114.3090240  92.8607360   3.1586050 109.2641500  92.4216520   2.0108440
 108.9241550  92.8991750   2.7675490 108.5018820  91.9681640   1.6509540
 117.4387640  91.3169510   4.0584680 117.4560380  91.7678160   4.9026530
 117.1903220  90.4175150   4.2718120 120.8658390  88.7301690   9.8971060
 121.1904160  87.9991350  10.4229040 120.9014900  88.4115330   8.9952050
 107.5649950  99.7515270   9.3171020 107.1804740  99.1108940   9.9153980
 107.8762140 100.4551390   9.8865750 113.7147090  96.5991810   4.7979640
 114.0817220  96.1250380   5.5440980 113.5252150  97.4733380   5.1387980
 111.5046460  95.6400450   7.1163850 111.2003530  96.5192430   7.3414210
 112.4592920  95.7000240   7.1521290 120.7916230  98.8426800   3.5057090
 121.5115350  99.3382090   3.1153200 120.5898050  98.1644690   2.8610960
 116.1735030  98.9135860   9.3926090 116.1072340  97.9931530   9.1383680
 115.5440170  99.0111300  10.1070730 107.5610190  96.4803190   8.2635210
 107.2025130  97.1457040   8.8508550 107.2664750  95.6486740   8.6347830
 110.7623310  96.9387430  11.1474760 110.4623450  97.0844610  10.2502580
 111.5334550  96.3792720  11.0548150 116.1051760 101.7356430   9.1429890
 116.1196300 100.8037390   8.9248800 115.3976860 101.8216190   9.7819660
 122.3162970  98.3763770   8.4898470 121.5911160  98.9692550   8.2927860
 122.8438430  98.3687310   7.6911840 115.5385660 103.3774000   6.2370390
 116.1827880 103.5833380   6.9143810 115.9015100 102.6162400   5.7841240
 116.8117740 101.3806350   4.9547840 117.4539970 100.6799510   5.0680010
 117.3367090 102.1604790   4.7744730 118.5855360 102.1801250   8.1583900
 118.9211600 102.7667940   8.8361820 117.6655700 102.0493960   8.3881690
 106.1358760  89.9696430   8.9407310 105.4217280  90.1693350   9.5459920
 106.5553800  89.1936000   9.3122110 106.4231350 103.9576690   9.9273840
 106.5322470 103.0171430   9.7869230 105.7711910 104.2231440   9.2787570
 114.4143940 102.2292580  11.3271960 114.0940810 101.5101820  11.8717650
 113.7402300 102.9047650  11.4008020 117.6297540  92.4618740   6.6908760
 117.9978360  91.6413950   7.0188330 116.7695740  92.5220630   7.1064410
 114.5899530  95.1158330   6.9146730 115.0884780  95.5904150   7.5798580
 114.7322480  94.1921850   7.1216760 121.7966390  91.3326290   7.7575120
 121.2939990  92.0731690   8.0968930 122.6123050  91.7210290   7.4411910
 122.0913980 103.7468320   2.8790740 122.2161400 104.5699490   3.3514550
 122.9579540 103.5359050   2.5314890 109.5631510 105.8399530   2.5507870
 110.2993990 105.2914990   2.8216440 109.9472430 106.7055540   2.4113860
 108.5689790 105.0245600  11.7393450 109.3702520 105.3457650  12.1528850
 108.0541610 104.6641180  12.4613360 117.4054420 101.1325470  11.6868860
 116.7992580 101.1557070  10.9464610 117.1008530 100.4008510  12.2236110
 118.8354790 104.8605760  10.2978270 119.7876540 104.7763780  10.2478510
 118.6883010 105.5247470  10.9712060 106.2887600  97.5119060  10.6829500
 106.7926620  96.9326340  11.2545730 105.5495020  97.7959290  11.2205870
 113.3425540  98.9190050  10.2165020 112.5771210  99.4875050  10.1319690
 113.5241500  98.6266260   9.3233250 120.4848890 100.6495380  10.7740040
 121.2258360 100.9871140  10.2707500 119.7221570 100.8187440  10.2209810
 108.3210680  95.6548650  11.5779570 108.3616020  95.3562520  12.4864800
 109.1756180  96.0556260  11.4187090 110.2616490  94.2340750   9.5454060
 109.7312950  93.7431700   8.9177400 110.9304560  94.6624950   9.0111990
 119.1594550  98.7010210   9.3095250 119.5735570  98.8555290  10.1585670
 118.2245550  98.8265430   9.4721030 119.6316720  96.0406370  11.3134400
 120.2137490  95.2858690  11.2254880 119.8078490  96.5713810  10.5365880
 110.7488790  91.2003120   9.6251350 110.6545660  90.5823870   8.9002220
 110.1686180  91.9269410   9.3981260 113.5150230  89.7576360   6.6578740
 113.0667530  89.7800620   5.8124290 112.8815430  89.3595380   7.2549040
 113.9209780  98.6530690   7.2791180 114.3397890  99.4963420   7.1067420
 113.0018410  98.7902730   7.0497960 116.2573680  96.3846870   8.6629020
 116.3769890  95.7888010   9.4023860 117.1167680  96.4216560   8.2430320
 118.5961580  96.9384060   7.2391530 118.0696800  97.4626680   6.6356670
 118.9392920  97.5711450   7.8701260 111.7717200 104.9583700   8.3948910
 111.2338290 105.6829760   8.0757610 112.0251160 104.4814040   7.6046250
 113.0242450  92.9268220   9.9204840 113.6142140  92.6184070  10.6082660
 112.2062690  92.4547970  10.0764740 117.8435880  92.5434030  10.1537860
 117.1551400  91.8815570  10.0887850 118.5641900  92.0972300  10.5986320
 114.6279410 106.1934910   8.6535560 114.5538110 107.0970050   8.9607930
 113.7258250 105.8746810   8.6257630 106.0306700 103.5209500   1.9569180
 106.3609710 102.6530560   1.7247820 106.4597700 103.7268020   2.7874140
 106.5196910 104.3880090   4.6950810 106.0827900 104.5680890   5.5274960
 107.0874590 105.1454710   4.5532530 122.1559090 103.8897090   8.9828120
 121.5561080 103.9489650   8.2392040 122.2852990 102.9502070   9.1124970
 120.8410730 100.6149070   7.0804280 120.0270570 101.0446230   7.3430070
 121.2484930 101.2267480   6.4673330 107.3897270  97.2852890   5.5943030
 107.7570310  97.1980290   6.4739050 106.8208090  96.5219440   5.4949890
 122.1901130  95.7537270   8.6073500 121.9587220  95.5250020   7.7071450
 122.4505680  96.6736820   8.5618390 106.9413270  94.1961980   9.5001450
 106.0469320  94.1628740   9.8395160 107.4810820  94.3948770  10.2652700
 120.6289200  90.9793700  11.3853200 121.5059380  90.9877100  11.7687200
 120.6410040  90.2424540  10.7745550 122.0752470  94.8323240   2.2741220
 122.5989950  94.3385890   1.6431390 122.6611890  94.9673600   3.0188790
 122.2542190  94.9163110   5.7960770 121.3044900  94.8826650   5.9105760
 122.4355200  95.8263220   5.5610540 107.4452980  88.4710310   3.8484670
 108.0929170  87.9207690   3.4079830 107.8654820  88.7253460   4.6700480
 121.3405320  88.6651670   7.2054310 121.9777540  89.2785810   7.5713500
 121.4880210  88.7012330   6.2603540 107.1984980  88.6265980   6.5909990
 106.8499800  89.0829800   7.3568170 106.8672680  87.7323110   6.6732420
 108.8049350 101.7985580  10.7563180 108.7618980 101.4278490  11.6377640
 108.9360360 102.7363150  10.8965000 112.5055380 103.3545170   6.3572900
 112.2646740 103.6219730   5.4703420 113.4458020 103.5250900   6.4123760
 114.7109800  89.8177860  10.1129410 114.6498690  90.4099690  10.8624820
 115.6510180  89.7103820   9.9679670 117.3484360  89.4747920   9.7521700
 117.9624770  89.7927210   9.0902780 117.8933920  88.9896510  10.3717560
 123.7659540 105.3739550   7.1583540 123.2717820 105.7708420   6.4410670
 123.1572830 104.7488760   7.5520820 107.8705620  88.1542180   9.8660760
 108.4188610  87.9730230   9.1026870 107.9360930  87.3636290  10.4017070
 108.6437380 104.7447830   7.8760960 108.0497700 104.6132530   8.6151000
 108.6361220 103.9085970   7.4103060 118.0892400  88.0380060   6.0790990
 117.2152240  88.3715170   5.8763920 117.9803150  87.5653240   6.9042860
 118.9964380  90.2450930   7.4632710 118.6677740  89.4302690   7.0834440
 119.9446680  90.2020740   7.3398400 121.4498990 106.0162970   4.4370280
 120.9901960 106.7678780   4.0628300 120.8211450 105.2969440   4.3785080
 108.2749610 102.1106210   6.8269000 107.5483670 101.4911500   6.7594950
 108.3358760 102.5046820   5.9567080 111.8794710 104.3251210   3.6118410
 112.3959730 103.7138570   3.0866670 112.5292090 104.8279990   4.1029420
 114.6190210 105.2159700   4.4387390 114.9068020 104.9614000   3.5620400
 115.1313430 104.6637060   5.0292960 115.8367220  88.9549900   5.0183900
 115.0539010  89.4295400   5.2980660 115.5430150  88.0504730   4.9097080
 120.3888290  89.6573000   3.0632990 120.8296380  89.6018100   2.2154590
 120.1195880  90.5731010   3.1343170 118.2246420  88.0379100   1.7683000
 118.8275790  88.6099310   2.2431520 117.4839410  88.6018540   1.5456900
 114.6862570 106.1375800  11.8055590 115.6129880 105.9020070  11.8491550
 114.6713000 106.9647800  11.3241620 111.8726180  88.8020550  11.5697470
 111.5910450  89.3054150  10.8058290 112.2545880  88.0042300  11.2039600
 118.4741640  88.2174130  12.1477940 118.3607090  88.5368740  13.0429460
 119.2911380  88.6186640  11.8515220 121.2540130 105.3645660  11.6296630
 122.0465450 104.8694890  11.4222590 121.5473280 106.0435800  12.2372240
 117.3799790  77.4623110 151.4804090 117.2993840  76.5477720 151.2095800
 116.9664210  77.9590180 150.7743800 115.5117830  79.2402130 153.3613360
 114.7359930  78.7602570 153.6511930 116.1630760  78.5607780 153.1869520
 119.5325260  83.6462320 152.1412490 119.0706790  82.8749560 152.4699660
 120.3450810  83.6728390 152.6464940 109.5084920  83.5862030 154.4347140
 109.8112960  82.6959770 154.2557360 110.2528510  84.1432250 154.2069390
 107.9375610  74.5123830 148.0231510 107.0492310  74.8539800 147.9211390
 108.2216800  74.3124150 147.1312340 105.9008620  77.1129480 153.9071210
 106.4724730  76.3451680 153.9074850 105.9010160  77.4118240 152.9977820
 115.7588570  85.9320330 151.7616480 115.1400010  86.3877830 151.1910920
 116.6140350  86.0871790 151.3606180 114.9526820  81.9159320 153.3683520
 114.8835100  80.9749260 153.2072650 115.7146680  82.0060730 153.9406090
 115.9831990  74.7229700 153.5952450 116.3596810  73.8501580 153.4826120
 115.8851500  75.0588400 152.7042890 110.1137000  73.0955330 149.0569890
 110.2203750  73.9959060 149.3638650 109.2029360  73.0473300 148.7664540
 119.7656110  72.2180140 150.5280790 120.5865730  71.7276710 150.5706270
 119.7990190  72.8077800 151.2812630 111.9544730  76.0641700 153.3895070
 112.4622950  76.5622670 154.0300090 112.4857970  75.2876900 153.2134430
 116.6251920  80.8159570 149.1548390 116.0069190  81.2809020 148.5911110
 117.1375170  81.5087050 149.5717900 120.0017590  74.1580520 153.3008330
 119.2973160  74.4465410 153.8811440 120.3629750  74.9680630 152.9407890
 105.9935120  81.5016100 146.5288020 105.6163100  81.9903200 145.7972920
 106.2508190  82.1741380 147.1594550 123.0704510  73.6035310 153.6917540
 122.1229420  73.6374290 153.8232970 123.3954500  74.4174260 154.0766900
 113.6024050  69.9032490 151.9873530 113.9099030  69.3479380 151.2709030
 112.6724750  70.0376950 151.8046520 119.1539110  85.6199780 154.2780990
 119.1666270  85.2162070 153.4103250 118.6014330  86.3947070 154.1742420
 120.4484530  82.3416000 149.3671160 120.3380860  81.3990330 149.4920580
 120.4452780  82.7031640 150.2533920 115.9904810  77.9681320 148.7233650
 115.0634090  77.9018700 148.9522120 116.1429630  78.9061450 148.6088890
 115.9773890  74.2398320 145.7200810 115.0377560  74.4012280 145.8053270
 116.2957150  74.9584000 145.1736800 120.0202100  79.5301620 149.2268900
 119.4014520  79.1921170 148.5795200 120.0026550  78.8861380 149.9348090
 111.5961450  78.4946060 151.5053380 111.1918450  77.7823310 151.0099280
 111.6824570  78.1499300 152.3941420 112.0643150  82.1813620 153.6692590
 111.7671440  81.5759090 152.9900370 113.0142970  82.2190930 153.5581950
 118.1966800  78.7688430 146.2341650 118.6360080  77.9310860 146.0879470
 118.9095220  79.4017830 146.3205790 116.3062180  83.7084500 150.2022890
 116.7458090  84.4508830 149.7878280 116.2449070  83.9511070 151.1261850
 121.7783940  70.0231240 144.5482690 121.4656600  70.1158070 145.4481760
 122.5396410  70.6012270 144.4980120 108.2966080  77.3891040 149.0060030
 108.1763680  78.1153130 148.3941300 107.9866970  76.6193950 148.5287940
 107.1799080  82.2606370 151.2234850 106.7727160  82.4020960 150.3688450
 108.0712090  81.9766530 151.0206060 118.9732360  86.6953620 147.5585900
 118.8133500  86.4056560 148.4567730 118.8079070  85.9193750 147.0231130
 111.4520740  86.4752150 149.3357520 111.2763220  85.5587690 149.1225320
 110.5976480  86.8339440 149.5755320 118.6758490  84.2041180 146.1183900
 117.9823650  84.2018470 145.4586180 119.4181350  83.7800500 145.6878070
 118.2408420  85.8303890 150.1932390 118.6965370  85.0493270 150.5071010
 118.5800940  86.5410710 150.7373570 110.7629740  70.7326110 152.3883700
 110.3197890  71.5135650 152.0568220 111.3214730  71.0556000 153.0954640
 113.8788560  70.3536810 147.2689530 113.2542740  70.3496680 147.9942840
 113.7918680  69.4867770 146.8725500 112.8005640  71.2773440 154.2473300
 113.0977970  72.1836270 154.1665320 113.3491200  70.7892220 153.6332870
 110.5543960  75.8559680 150.1164950 110.3284880  75.6396850 151.0211570
 109.7736490  76.2888140 149.7710920 117.7841720  75.8623050 148.7155600
 117.1850610  76.5858850 148.5319220 118.3321330  75.7999830 147.9332050
 116.3906590  74.4986590 150.7458880 116.7836160  74.8158790 149.9327570
 116.7523440  73.6198470 150.8603400 105.4270760  71.0887390 152.9689080
 105.1383810  71.6590250 153.6814060 106.1716520  70.6091840 153.3320310
 105.6140990  75.0307510 144.1791800 105.5315660  75.9738270 144.3206790
 105.2624050  74.8882420 143.3004150 113.4139120  73.7646540 153.2462150
 113.4175180  73.3236490 152.3966690 114.3090240  74.0863870 153.3533970
 109.2641500  73.6473030 152.2056360 108.9241550  74.1248260 152.9623410
 108.5018820  73.1938150 151.8457460 113.4759270  74.7658620 146.2368910
 113.5972090  74.7245100 147.1854730 113.0907780  75.6282770 146.0815640
 112.4880770  77.0759760 145.6352210 111.9197670  76.6278010 145.0088120
 113.1969770  77.4352540 145.1017360 106.5787580  72.5692010 151.1221030
 106.2934500  72.2047680 151.9599650 106.5166440  71.8372470 150.5084170
 110.0328250  81.0717950 147.9078620 109.2590510  80.5315570 147.7477340
 110.7622880  80.5524560 147.5696380 120.7916230  80.0683310 153.7005010
 121.5115350  80.5638600 153.3101120 120.5898050  79.3901200 153.0558880
 116.2526170  71.4621270 147.8434400 115.4390780  70.9634440 147.7679710
 116.0588120  72.3019520 147.4270750 118.9674560  75.8340920 146.1396560
 119.8554180  76.1458150 145.9647900 118.9379650  74.9613170 145.7477140
 110.0765650  80.7398330 151.5457430 110.5944320  79.9366590 151.4914320
 109.6249670  80.6777470 152.3874260 114.9635150  82.0064610 146.8184730
 115.3050850  82.7506840 146.3228050 114.1347860  82.3195730 147.1809560
 121.2388830  77.1452760 145.6076420 121.1552550  77.5766980 144.7572860
 121.9583020  77.6051110 146.0403240 122.2676080  83.9995020 148.3358550
 121.6252240  83.3450640 148.6102270 121.8806740  84.4050110 147.5599220
 117.8462560  81.3280450 152.1830240 118.1986380  80.7308580 151.5231610
 116.9624890  81.0024680 152.3538490 113.9325840  82.0878140 149.5900650
 114.6196970  82.6347350 149.9708240 113.1458260  82.6318870 149.6250260
 106.0718240  77.7050960 145.0817730 106.9413090  77.9875760 145.3653650
 105.5808560  78.5186830 144.9666540 113.2353050  79.0924170 149.2026010
 113.6915830  79.9029420 149.4286200 112.8841260  78.7747310 150.0344500
 109.1364830  69.4361820 149.6748530 109.0079460  69.4279720 150.6233450
 108.3126850  69.7744910 149.3239540 120.6573460  82.8911480 144.8734900
 120.4311040  82.1741920 145.4659540 120.2669660  82.6423920 144.0356650
 106.4389490  86.9178340 145.6479360 106.7987130  87.5167680 144.9936630
 106.2981830  87.4638230 146.4214390 120.2389710  80.8083420 146.5349060
 119.9511410  81.2696110 147.3226940 121.0341880  80.3481190 146.8033280
 112.4558110  84.3009540 146.4653030 112.4468210  85.0339230 145.8497540
 111.5356470  84.0541120 146.5579990 108.0564750  79.5224430 147.2099790
 107.4492700  80.2623330 147.2195090 108.5314100  79.6123790 146.3837990
 120.9959570  72.6432190 147.6944240 120.3672730  72.7477860 146.9802470
 120.5011490  72.8628970 148.4838120 115.4417710  84.3637780 145.1278220
 115.5429690  84.1601770 144.1980200 114.5419450  84.1096060 145.3326000
 112.9643600  74.9218140 149.1102120 112.2559750  75.3904480 149.5515730
 113.2488080  74.2640150 149.7447310 116.9959030  71.6468800 150.5497910
 116.8726810  71.6654930 149.6007420 117.9443590  71.6947740 150.6696310
 114.0835820  86.8824100 149.8225890 114.3377320  86.8445490 148.9005260
 113.1348300  86.7557430 149.8154140 111.1678620  73.2303220 146.4852830
 112.0169150  73.6673370 146.4193020 110.8009890  73.5423480 147.3124890
 120.0888400  77.8015980 151.3984400 119.1478540  77.8166210 151.5732090
 120.4032470  77.0151940 151.8444700 110.0670040  79.4835580 144.9588360
 110.8333310  79.3716940 145.5213790 110.1444730  78.7873550 144.3065130
 108.7616800  76.9160650 145.6421250 108.8420390  75.9688160 145.7538650
 109.6536550  77.2467530 145.7481910 122.0913980  84.9724830 153.0738660
 122.2161400  85.7956000 153.5462470 122.9579540  84.7615560 152.7262810
 109.5631510  87.0656040 152.7455790 110.2993990  86.5171500 153.0164360
 109.9472430  87.9312050 152.6061780 106.4476990  83.1329610 148.6197300
 105.5216770  83.3750750 148.6102710 106.9133420  83.9603870 148.4982050
 112.6733820  86.2386350 144.5681360 113.4662430  86.5275180 144.1163150
 112.1538170  85.8078520 143.8893840 121.7263990  85.4656480 145.9918100
 121.4405500  85.0521620 145.1772280 121.5283540  86.3944190 145.8718620
 113.1911220  81.4589760 144.4323710 113.0861860  80.8442110 145.1585090
 113.0235440  80.9355650 143.6486720 116.4313950  80.5209790 145.0365700
 115.8824050  80.9679090 145.6808440 117.0533210  80.0159040 145.5603370
 112.0989070  79.4800710 146.9331000 112.5205490  79.3140580 147.7762390
 112.2239910  78.6700940 146.4386140 114.6116710  78.5038320 144.1808100
 115.1322370  77.7887340 143.8149250 115.2585110  79.1424190 144.4808610
 110.9947970  75.5533940 143.8789160 110.7937030  74.6901300 144.2402500
 110.8240020  75.4667300 142.9410760 118.4736280  70.3642170 146.4076040
 118.7538570  69.5210070 146.7635460 117.7002010  70.5965280 146.9214790
 109.7930770  72.6534560 143.8667040 110.0956670  72.6601990 142.9586190
 110.5325360  72.3032420 144.3634700 113.0115700  71.5969180 144.8523240
 112.6637700  70.9193170 144.2725690 113.2128470  71.1358690 145.6666630
 115.1764740  86.5849930 146.4709840 116.0715530  86.9234900 146.4928600
 115.2082370  85.8629340 145.8434120 108.8160900  81.9576980 144.6996840
 109.2535770  82.5006650 145.3554420 109.3008630  81.1323930 144.7093180
 106.0306700  84.7466010 152.1517100 106.3609710  83.8787070 151.9195740
 106.4597700  84.9524530 152.9822060 110.6268620  83.0775020 149.8119070
 110.3264160  82.9539990 150.7122980 110.5206110  82.2183610 149.4034800
 123.3960540  82.8571420 144.5145750 122.5653500  82.9248070 144.9852980
 123.5732370  83.7475540 144.2112610 122.8517000  79.6018900 147.0179950
 123.6135910  80.1715550 147.1239640 122.8671370  79.0346100 147.7888260
 106.3521340  78.1256830 151.2487610 105.6970180  77.8568470 150.6047310
 107.1899290  78.0161310 150.7989590 123.8576970  80.4569000 151.8621880
 124.2285800  79.6736320 151.4557850 124.4978900  81.1458100 151.6839180
 122.9036170  79.8953270 144.1752470 123.1785010  80.8032150 144.0471690
 122.7146910  79.8315800 145.1114460 119.3011780  72.9198120 145.4706100
 119.7196660  72.7329100 144.6302760 118.9947840  72.0677170 145.7809030
 122.8001510  77.8322260 149.1681900 122.4245110  77.0650190 148.7363190
 122.0704630  78.2144960 149.6556830 105.5659420  75.3355760 147.1912940
 104.6623500  75.5985960 147.0164600 106.0500040  75.6066930 146.4112900
 122.0752470  76.0579750 152.4689140 122.5989950  75.5642400 151.8379310
 122.6611890  76.1930110 153.2136710 108.1086630  74.3921300 145.1007320
 108.8178330  73.9704520 144.6154600 107.3926570  74.4596530 144.4690670
 107.7560790  70.4460630 144.1409970 108.4788920  70.9869570 144.4591190
 108.0285310  70.1724050 143.2651510 121.5652440  75.3153100 148.4081550
 122.0611560  75.0823970 149.1930430 121.3668510  74.4764940 147.9919190
 122.9939600  73.9514050 150.9419230 122.8838880  73.7970090 151.8801500
 123.7547190  73.4234990 150.6994640 123.8829870  71.7821970 144.1825370
 124.8079180  71.6503150 143.9743660 123.8605660  71.8614790 145.1361820
 123.9568360  72.5532630 146.8082080 123.1619860  72.4877750 147.3374990
 124.1611640  73.4883270 146.7967430 120.8986780  86.5924180 150.8020470
 121.4945850  86.2708750 150.1254890 121.1564930  86.1196000 151.5933740
 111.8794710  85.5507720 153.8066330 112.3959730  84.9395080 153.2814590
 112.5292090  86.0536500 154.2977340 120.3888290  70.8829510 153.2580910
 120.8296380  70.8274610 152.4102510 120.1195880  71.7987520 153.3291090
 122.2526860  70.5144750 151.2689730 122.1915260  69.5705970 151.1220750
 123.0318890  70.6224840 151.8143190 106.5579610  86.6537110 150.2313680
 106.3901650  86.0207790 150.9295570 105.6914120  86.8596510 149.8807870
 107.1807630  70.4853890 147.7345540 107.9386990  70.5982770 147.1609570
 106.7184800  71.3223090 147.6888970 113.7221440  72.5993160 150.7247850
 112.9095950  72.2250050 150.3843730 114.2263080  71.8438240 151.0269040
 118.2246420  69.2635610 151.9630920 118.8275790  69.8355820 152.4379440
 117.4839410  69.8275050 151.7404820 121.3681020  69.6657170 147.2371200
 121.5631650  70.5640620 147.5038630 120.5810890  69.4344250 147.7304150
 108.1642310  85.3470340 147.6763820 107.6389930  85.7278370 146.9725780
 108.0886890  85.9721110 148.3973530 109.5532780  71.0117940 146.2747510
 110.0825540  70.2247740 146.1455460 110.1861100  71.6909130 146.5083040
 111.7470620  70.7493080 149.3292900 111.1173360  70.0480390 149.4963030
 111.2075760  71.5097210 149.1126060 122.9207630  86.9057880 148.9977760
 123.0959820  86.2195620 148.3538680 122.2229200  87.4304930 148.6054430
 110.7635280  87.2952720 146.5513070 111.4954100  87.0112000 146.0036960
 111.0228950  87.0566000 147.4412450 109.9250070  83.4117450 146.5559400
 109.2958950  83.8802550 147.1045230 110.0397900  82.5666670 146.9905590
 117.3799790  77.4623110 132.7060600 117.2993840  76.5477720 132.4352310
 116.9664210  77.9590180 132.0000310 115.5117830  79.2402130 134.5869870
 114.7359930  78.7602570 134.8768440 116.1630760  78.5607780 134.4126030
 119.5325260  83.6462320 133.3669000 119.0706790  82.8749560 133.6956170
 120.3450810  83.6728390 133.8721450 109.5084920  83.5862030 135.6603650
 109.8112960  82.6959770 135.4813870 110.2528510  84.1432250 135.4325900
 115.7588570  85.9320330 132.9872990 115.1400010  86.3877830 132.4167430
 116.6140350  86.0871790 132.5862690 114.9526820  81.9159320 134.5940030
 114.8835100  80.9749260 134.4329160 115.7146680  82.0060730 135.1662600
 107.1433490  72.5213840 136.9196650 106.9636330  71.6239590 137.1999410
 106.7413570  73.0685710 137.5943600 115.9831990  74.7229700 134.8208960
 116.3596810  73.8501580 134.7082630 115.8851500  75.0588400 133.9299400
 119.7656110  72.2180140 131.7537300 120.5865730  71.7276710 131.7962780
 119.7990190  72.8077800 132.5069140 107.7620160  75.0174340 135.5278990
 108.4430270  75.2812710 136.1466390 107.4468210  74.1775210 135.8617000
 111.9544730  76.0641700 134.6151580 112.4622950  76.5622670 135.2556600
 112.4857970  75.2876900 134.4390940 124.0555660  74.2346890 138.3180930
 123.3507830  74.6228600 137.7996040 124.3213580  74.9297180 138.9201860
 110.2380830  70.7040260 138.8815000 110.2399270  71.2212650 138.0760900
 109.4085140  70.2270440 138.8584930 116.6251920  80.8159570 130.3804900
 116.0069190  81.2809020 129.8167620 117.1375170  81.5087050 130.7974410
 111.4883680  80.3435440 137.0588500 111.1553060  80.9704360 137.7009570
 111.6650360  80.8697320 136.2790170 120.0017590  74.1580520 134.5264840
 119.2973160  74.4465410 135.1067950 120.3629750  74.9680630 134.1664400
 109.9196160  72.4150220 136.8885450 110.2612970  73.2592270 136.5939320
 108.9811970  72.5633960 137.0050790 110.7002780  82.3116240 138.8737680
 111.3176780  82.9867320 138.5922130 109.8395900  82.7204220 138.7825180
 121.6180370  83.7755650 136.7892320 120.9343890  84.4454760 136.7808990
 122.1574660  83.9736300 136.0237180 123.0704510  73.6035310 134.9174050
 122.1229420  73.6374290 135.0489480 123.3954500  74.4174260 135.3023410
 113.6024050  69.9032490 133.2130040 113.9099030  69.3479380 132.4965540
 112.6724750  70.0376950 133.0303030 119.1539110  85.6199780 135.5037500
 119.1666270  85.2162070 134.6359760 118.6014330  86.3947070 135.3998930
 120.4484530  82.3416000 130.5927670 120.3380860  81.3990330 130.7177090
 120.4452780  82.7031640 131.4790430 118.5524550  80.5229620 136.8320110
 118.9693340  80.3089730 135.9973570 119.2764370  80.7802410 137.4028730
 115.9904810  77.9681320 129.9490160 115.0634090  77.9018700 130.1778630
 116.1429630  78.9061450 129.8345400 115.9773890  74.2398320 126.9457320
 115.0377560  74.4012280 127.0309780 116.2957150  74.9584000 126.3993310
 122.4986650  78.9216840 136.9236350 121.6705280  78.9909930 136.4486480
 123.0937130  79.5071150 136.4552180 120.0202100  79.5301620 130.4525410
 119.4014520  79.1921170 129.8051710 120.0026550  78.8861380 131.1604600
 119.4628660  75.7086160 137.8691220 119.0499840  76.5339870 138.1231210
 118.7304610  75.1231200 137.6767580 112.0643150  82.1813620 134.8949100
 111.7671440  81.5759090 134.2156880 113.0142970  82.2190930 134.7838460
 110.3090070  75.2689270 136.5108930 110.8604660  75.3784610 135.7362180
 110.8233580  75.6426870 137.2264160 120.1528760  85.7545490 138.5572200
 119.6759320  86.5617680 138.3644810 119.4690550  85.1023820 138.7098410
 111.1561580  81.9195310 141.5456900 110.2590110  82.1435280 141.7930300
 111.1814450  82.0430250 140.5968300 118.1966800  78.7688430 127.4598160
 118.6360080  77.9310860 127.3135980 118.9095220  79.4017830 127.5462300
 109.9832800  78.7908630 140.1214270 109.8440570  79.6631430 140.4901670
 109.1014160  78.4481440 139.9762210 116.3062180  83.7084500 131.4279400
 116.7458090  84.4508830 131.0134790 116.2449070  83.9511070 132.3518360
 111.7813150  84.7330330 142.3299420 111.7528580  85.1373280 141.4627850
 111.6178120  83.8040690 142.1671020 121.7783940  70.0231240 125.7739200
 121.4656600  70.1158070 126.6738270 122.5396410  70.6012270 125.7236630
 123.7327970  85.5157430 143.6263590 124.2087690  85.9940320 144.3052670
 124.3535130  85.4474920 142.9009090 123.1361220  82.7070280 140.7863600
 123.2624280  82.4682160 139.8680780 123.1782600  81.8754820 141.2585680
 116.9977960  86.4098280 139.3558410 117.5122630  86.3206290 140.1580840
 116.1547040  86.7557980 139.6486320 118.9732360  86.6953620 128.7842410
 118.8133500  86.4056560 129.6824240 118.8079070  85.9193750 128.2487640
 118.2408420  85.8303890 131.4188900 118.6965370  85.0493270 131.7327520
 118.5800940  86.5410710 131.9630080 122.9885230  74.7602740 141.7513340
 122.3729500  75.2682410 141.2228800 122.6681650  73.8601070 141.6939280
 110.7629740  70.7326110 133.6140210 110.3197890  71.5135650 133.2824730
 111.3214730  71.0556000 134.3211150 115.0499550  73.5994630 139.2175530
 114.5878920  73.8077650 140.0295470 114.6477660  72.7853980 138.9146200
 120.0504060  74.8203580 140.3472190 119.1997650  74.5209330 140.6681260
 119.8905850  75.0645590 139.4356010 117.1453770  76.3205330 142.4470980
 117.4707180  75.4869080 142.1073210 117.9334100  76.8433850 142.5949310
 112.8005640  71.2773440 135.4729810 113.0977970  72.1836270 135.3921830
 113.3491200  70.7892220 134.8589380 110.5543960  75.8559680 131.3421460
 110.3284880  75.6396850 132.2468080 109.7736490  76.2888140 130.9967430
 117.7841720  75.8623050 129.9412110 117.1850610  76.5858850 129.7575730
 118.3321330  75.7999830 129.1588560 112.9943170  76.7545260 142.0081730
 112.8986770  75.8139990 141.8582130 113.8375150  76.9760330 141.6129800
 116.3906590  74.4986590 131.9715390 116.7836160  74.8158790 131.1584080
 116.7523440  73.6198470 132.0859910 108.1253710  73.1658930 140.1615510
 107.7317100  74.0134140 140.3688290 107.4372110  72.5285300 140.3524150
 114.6998760  73.2493900 143.2312250 114.0097080  73.0566100 143.8658340
 115.4431060  73.5328540 143.7636550 105.6140990  75.0307510 125.4048310
 105.5315660  75.9738270 125.5463300 105.2624050  74.8882420 124.5260660
 116.9761730  77.0892340 136.0666170 116.2442850  77.5979150 136.4156270
 116.5786070  76.2722320 135.7654950 113.4139120  73.7646540 134.4718660
 113.4175180  73.3236490 133.6223200 114.3090240  74.0863870 134.5790480
 117.4387640  72.5426020 135.4789110 117.4560380  72.9934670 136.3230960
 117.1903220  71.6431660 135.6922550 120.8658390  69.9558200 141.3175490
 121.1904160  69.2247860 141.8433470 120.9014900  69.6371840 140.4156480
 107.5649950  80.9771780 140.7375450 107.1804740  80.3365450 141.3358410
 107.8762140  81.6807900 141.3070180 113.7147090  77.8248320 136.2184070
 114.0817220  77.3506890 136.9645410 113.5252150  78.6989890 136.5592410
 111.5046460  76.8656960 138.5368280 111.2003530  77.7448940 138.7618640
 112.4592920  76.9256750 138.5725720 120.7916230  80.0683310 134.9261520
 121.5115350  80.5638600 134.5357630 120.5898050  79.3901200 134.2815390
 116.1735030  80.1392370 140.8130520 116.1072340  79.2188040 140.5588110
 115.5440170  80.2367810 141.5275160 118.9674560  75.8340920 127.3653070
 119.8554180  76.1458150 127.1904410 118.9379650  74.9613170 126.9733650
 107.5610190  77.7059700 139.6839640 107.2025130  78.3713550 140.2712980
 107.2664750  76.8743250 140.0552260 110.7623310  78.1643940 142.5679190
 110.4623450  78.3101120 141.6707010 111.5334550  77.6049230 142.4752580
 116.1051760  82.9612940 140.5634320 116.1196300  82.0293900 140.3453230
 115.3976860  83.0472700 141.2024090 121.2388830  77.1452760 126.8332930
 121.1552550  77.5766980 125.9829370 121.9583020  77.6051110 127.2659750
 122.3162970  79.6020280 139.9102900 121.5911160  80.1949060 139.7132290
 122.8438430  79.5943820 139.1116270 122.2676080  83.9995020 129.5615060
 121.6252240  83.3450640 129.8358780 121.8806740  84.4050110 128.7855730
 117.8462560  81.3280450 133.4086750 118.1986380  80.7308580 132.7488120
 116.9624890  81.0024680 133.5795000 113.2353050  79.0924170 130.4282520
 113.6915830  79.9029420 130.6542710 112.8841260  78.7747310 131.2601010
 115.5385660  84.6030510 137.6574820 116.1827880  84.8089890 138.3348240
 115.9015100  83.8418910 137.2045670 116.8117740  82.6062860 136.3752270
 117.4539970  81.9056020 136.4884440 117.3367090  83.3861300 136.1949160
 118.5855360  83.4057760 139.5788330 118.9211600  83.9924450 140.2566250
 117.6655700  83.2750470 139.8086120 106.1358760  71.1952940 140.3611740
 105.4217280  71.3949860 140.9664350 106.5553800  70.4192510 140.7326540
 120.2389710  80.8083420 127.7605570 119.9511410  81.2696110 128.5483450
 121.0341880  80.3481190 128.0289790 106.4231350  85.1833200 141.3478270
 106.5322470  84.2427940 141.2073660 105.7711910  85.4487950 140.6992000
 114.4143940  83.4549090 142.7476390 114.0940810  82.7358330 143.2922080
 113.7402300  84.1304160 142.8212450 117.6297540  73.6875250 138.1113190
 117.9978360  72.8670460 138.4392760 116.7695740  73.7477140 138.5268840
 120.9959570  72.6432190 128.9200750 120.3672730  72.7477860 128.2058980
 120.5011490  72.8628970 129.7094630 112.9643600  74.9218140 130.3358630
 112.2559750  75.3904480 130.7772240 113.2488080  74.2640150 130.9703820
 114.5899530  76.3414840 138.3351160 115.0884780  76.8160660 139.0003010
 114.7322480  75.4178360 138.5421190 116.9959030  71.6468800 131.7754420
 116.8726810  71.6654930 130.8263930 117.9443590  71.6947740 131.8952820
 121.7966390  72.5582800 139.1779550 121.2939990  73.2988200 139.5173360
 122.6123050  72.9466800 138.8616340 120.0888400  77.8015980 132.6240910
 119.1478540  77.8166210 132.7988600 120.4032470  77.0151940 133.0701210
 122.0913980  84.9724830 134.2995170 122.2161400  85.7956000 134.7718980
 122.9579540  84.7615560 133.9519320 108.5689790  86.2502110 143.1597880
 109.3702520  86.5714160 143.5733280 108.0541610  85.8897690 143.8817790
 112.6733820  86.2386350 125.7937870 113.4662430  86.5275180 125.3419660
 112.1538170  85.8078520 125.1150350 117.4054420  82.3581980 143.1073290
 116.7992580  82.3813580 142.3669040 117.1008530  81.6265020 143.6440540
 118.8354790  86.0862270 141.7182700 119.7876540  86.0020290 141.6682940
 118.6883010  86.7503980 142.3916490 121.7263990  85.4656480 127.2174610
 121.4405500  85.0521620 126.4028790 121.5283540  86.3944190 127.0975130
 106.2887600  78.7375570 142.1033930 106.7926620  78.1582850 142.6750160
 105.5495020  79.0215800 142.6410300 113.3425540  80.1446560 141.6369450
 112.5771210  80.7131560 141.5524120 113.5241500  79.8522770 140.7437680
 120.4848890  81.8751890 142.1944470 121.2258360  82.2127650 141.6911930
 119.7221570  82.0443950 141.6414240 108.3210680  76.8805160 142.9984000
 108.3616020  76.5819030 143.9069230 109.1756180  77.2812770 142.8391520
 112.0989070  79.4800710 128.1587510 112.5205490  79.3140580 129.0018900
 112.2239910  78.6700940 127.6642650 110.2616490  75.4597260 140.9658490
 109.7312950  74.9688210 140.3381830 110.9304560  75.8881460 140.4316420
 119.1594550  79.9266720 140.7299680 119.5735570  80.0811800 141.5790100
 118.2245550  80.0521940 140.8925460 119.6316720  77.2662880 142.7338830
 120.2137490  76.5115200 142.6459310 119.8078490  77.7970320 141.9570310
 110.7488790  72.4259630 141.0455780 110.6545660  71.8080380 140.3206650
 110.1686180  73.1525920 140.8185690 113.5150230  70.9832870 138.0783170
 113.0667530  71.0057130 137.2328720 112.8815430  70.5851890 138.6753470
 113.9209780  79.8787200 138.6995610 114.3397890  80.7219930 138.5271850
 113.0018410  80.0159240 138.4702390 116.2573680  77.6103380 140.0833450
 116.3769890  77.0144520 140.8228290 117.1167680  77.6473070 139.6634750
 118.5961580  78.1640570 138.6595960 118.0696800  78.6883190 138.0561100
 118.9392920  78.7967960 139.2905690 111.7717200  86.1840210 139.8153340
 111.2338290  86.9086270 139.4962040 112.0251160  85.7070550 139.0250680
 113.0242450  74.1524730 141.3409270 113.6142140  73.8440580 142.0287090
 112.2062690  73.6804480 141.4969170 117.8435880  73.7690540 141.5742290
 117.1551400  73.1072080 141.5092280 118.5641900  73.3228810 142.0190750
 118.4736280  70.3642170 127.6332550 118.7538570  69.5210070 127.9891970
 117.7002010  70.5965280 128.1471300 114.6279410  87.4191420 140.0739990
 114.5538110  88.3226560 140.3812360 113.7258250  87.1003320 140.0462060
 122.1559090  85.1153600 140.4032550 121.5561080  85.1746160 139.6596470
 122.2852990  84.1758580 140.5329400 122.8517000  79.6018900 128.2436460
 123.6135910  80.1715550 128.3496150 122.8671370  79.0346100 129.0144770
 123.8576970  80.4569000 133.0878390 124.2285800  79.6736320 132.6814360
 124.4978900  81.1458100 132.9095690 120.8410730  81.8405580 138.5008710
 120.0270570  82.2702740 138.7634500 121.2484930  82.4523990 137.8877760
 122.9036170  79.8953270 125.4008980 123.1785010  80.8032150 125.2728200
 122.7146910  79.8315800 126.3370970 119.3011780  72.9198120 126.6962610
 119.7196660  72.7329100 125.8559270 118.9947840  72.0677170 127.0065540
 122.8001510  77.8322260 130.3938410 122.4245110  77.0650190 129.9619700
 122.0704630  78.2144960 130.8813340 122.1901130  76.9793780 140.0277930
 121.9587220  76.7506530 139.1275880 122.4505680  77.8993330 139.9822820
 106.9413270  75.4218490 140.9205880 106.0469320  75.3885250 141.2599590
 107.4810820  75.6205280 141.6857130 120.6289200  72.2050210 142.8057630
 121.5059380  72.2133610 143.1891630 120.6410040  71.4681050 142.1949980
 122.0752470  76.0579750 133.6945650 122.5989950  75.5642400 133.0635820
 122.6611890  76.1930110 134.4393220 122.2542190  76.1419620 137.2165200
 121.3044900  76.1083160 137.3310190 122.4355200  77.0519730 136.9814970
 121.5652440  75.3153100 129.6338060 122.0611560  75.0823970 130.4186940
 121.3668510  74.4764940 129.2175700 107.4452980  69.6966820 135.2689100
 108.0929170  69.1464200 134.8284260 107.8654820  69.9509970 136.0904910
 122.9939600  73.9514050 132.1675740 122.8838880  73.7970090 133.1058010
 123.7547190  73.4234990 131.9251150 121.3405320  69.8908180 138.6258740
 121.9777540  70.5042320 138.9917930 121.4880210  69.9268840 137.6807970
 123.8829870  71.7821970 125.4081880 124.8079180  71.6503150 125.2000170
 123.8605660  71.8614790 126.3618330 123.9568360  72.5532630 128.0338590
 123.1619860  72.4877750 128.5631500 124.1611640  73.4883270 128.0223940
 120.8986780  86.5924180 132.0276980 121.4945850  86.2708750 131.3511400
 121.1564930  86.1196000 132.8190250 107.1984980  69.8522490 138.0114420
 106.8499800  70.3086310 138.7772600 106.8672680  68.9579620 138.0936850
 108.8049350  83.0242090 142.1767610 108.7618980  82.6535000 143.0582070
 108.9360360  83.9619660 142.3169430 112.5055380  84.5801680 137.7777330
 112.2646740  84.8476240 136.8907850 113.4458020  84.7507410 137.8328190
 114.7109800  71.0434370 141.5333840 114.6498690  71.6356200 142.2829250
 115.6510180  70.9360330 141.3884100 117.3484360  70.7004430 141.1726130
 117.9624770  71.0183720 140.5107210 117.8933920  70.2153020 141.7921990
 123.7659540  86.5996060 138.5787970 123.2717820  86.9964930 137.8615100
 123.1572830  85.9745270 138.9725250 107.8705620  69.3798690 141.2865190
 108.4188610  69.1986740 140.5231300 107.9360930  68.5892800 141.8221500
 108.6437380  85.9704340 139.2965390 108.0497700  85.8389040 140.0355430
 108.6361220  85.1342480 138.8307490 118.0892400  69.2636570 137.4995420
 117.2152240  69.5971680 137.2968350 117.9803150  68.7909750 138.3247290
 118.9964380  71.4707440 138.8837140 118.6677740  70.6559200 138.5038870
 119.9446680  71.4277250 138.7602830 121.4498990  87.2419480 135.8574710
 120.9901960  87.9935290 135.4832730 120.8211450  86.5225950 135.7989510
 108.2749610  83.3362720 138.2473430 107.5483670  82.7168010 138.1799380
 108.3358760  83.7303330 137.3771510 111.8794710  85.5507720 135.0322840
 112.3959730  84.9395080 134.5071100 112.5292090  86.0536500 135.5233850
 114.6190210  86.4416210 135.8591820 114.9068020  86.1870510 134.9824830
 115.1313430  85.8893570 136.4497390 115.8367220  70.1806410 136.4388330
 115.0539010  70.6551910 136.7185090 115.5430150  69.2761240 136.3301510
 120.3888290  70.8829510 134.4837420 120.8296380  70.8274610 133.6359020
 120.1195880  71.7987520 134.5547600 122.2526860  70.5144750 132.4946240
 122.1915260  69.5705970 132.3477260 123.0318890  70.6224840 133.0399700
 113.7221440  72.5993160 131.9504360 112.9095950  72.2250050 131.6100240
 114.2263080  71.8438240 132.2525550 118.2246420  69.2635610 133.1887430
 118.8275790  69.8355820 133.6635950 117.4839410  69.8275050 132.9661330
 121.3681020  69.6657170 128.4627710 121.5631650  70.5640620 128.7295140
 120.5810890  69.4344250 128.9560660 114.6862570  87.3632310 143.2260020
 115.6129880  87.1276580 143.2695980 114.6713000  88.1904310 142.7446050
 122.9207630  86.9057880 130.2234270 123.0959820  86.2195620 129.5795190
 122.2229200  87.4304930 129.8310940 111.8726180  70.0277060 142.9901900
 111.5910450  70.5310660 142.2262720 112.2545880  69.2298810 142.6244030
 118.4741640  69.4430640 143.5682370 118.3607090  69.7625250 144.4633890
 119.2911380  69.8443150 143.2719650 121.2540130  86.5902170 143.0501060
 122.0465450  86.0951400 142.8427020 121.5473280  87.2692310 143.6576670
 117.3799790  77.4623110 113.9317110 117.2993840  76.5477720 113.6608820
 116.9664210  77.9590180 113.2256820 119.5325260  83.6462320 114.5925510
 119.0706790  82.8749560 114.9212680 120.3450810  83.6728390 115.0977960
 109.5084920  83.5862030 116.8860160 109.8112960  82.6959770 116.7070380
 110.2528510  84.1432250 116.6582410 115.9831990  74.7229700 116.0465470
 116.3596810  73.8501580 115.9339140 115.8851500  75.0588400 115.1555910
 116.6251920  80.8159570 111.6061410 116.0069190  81.2809020 111.0424130
 117.1375170  81.5087050 112.0230920 120.0017590  74.1580520 115.7521350
 119.2973160  74.4465410 116.3324460 120.3629750  74.9680630 115.3920910
 121.6180370  83.7755650 118.0148830 120.9343890  84.4454760 118.0065500
 122.1574660  83.9736300 117.2493690 120.4484530  82.3416000 111.8184180
 120.3380860  81.3990330 111.9433600 120.4452780  82.7031640 112.7046940
 120.0202100  79.5301620 111.6781920 119.4014520  79.1921170 111.0308220
 120.0026550  78.8861380 112.3861110 120.1528760  85.7545490 119.7828710
 119.6759320  86.5617680 119.5901320 119.4690550  85.1023820 119.9354920
 118.1966800  78.7688430 108.6854670 118.6360080  77.9310860 108.5392490
 118.9095220  79.4017830 108.7718810 111.7813150  84.7330330 123.5555930
 111.7528580  85.1373280 122.6884360 111.6178120  83.8040690 123.3927530
 121.7783940  70.0231240 106.9995710 121.4656600  70.1158070 107.8994780
 122.5396410  70.6012270 106.9493140 105.9351450  80.5606180 117.2641690
 106.0131870  80.6954950 116.3197410 106.5493130  79.8522070 117.4569810
 116.9977960  86.4098280 120.5814920 117.5122630  86.3206290 121.3837350
 116.1547040  86.7557980 120.8742830 118.6758490  84.2041180 108.5696920
 117.9823650  84.2018470 107.9099200 119.4181350  83.7800500 108.1391090
 105.9910970  81.6020350 119.8036150 106.1542010  81.1325710 118.9855520
 106.4563420  81.0943910 120.4684990 117.7841720  75.8623050 111.1668620
 117.1850610  76.5858850 110.9832240 118.3321330  75.7999830 110.3845070
 113.4139120  73.7646540 115.6975170 113.4175180  73.3236490 114.8479710
 114.3090240  74.0863870 115.8046990 117.4387640  72.5426020 116.7045620
 117.4560380  72.9934670 117.5487470 117.1903220  71.6431660 116.9179060
 120.8658390  69.9558200 122.5432000 121.1904160  69.2247860 123.0689980
 120.9014900  69.6371840 121.6412990 106.5787580  72.5692010 113.5734050
 106.2934500  72.2047680 114.4112670 106.5166440  71.8372470 112.9597190
 118.9674560  75.8340920 108.5909580 119.8554180  76.1458150 108.4160920
 118.9379650  74.9613170 108.1990160 114.9635150  82.0064610 109.2697750
 115.3050850  82.7506840 108.7741070 114.1347860  82.3195730 109.6322580
 121.2388830  77.1452760 108.0589440 121.1552550  77.5766980 107.2085880
 121.9583020  77.6051110 108.4916260 122.2676080  83.9995020 110.7871570
 121.6252240  83.3450640 111.0615290 121.8806740  84.4050110 110.0112240
 117.8462560  81.3280450 114.6343260 118.1986380  80.7308580 113.9744630
 116.9624890  81.0024680 114.8051510 109.1364830  69.4361820 112.1261550
 109.0079460  69.4279720 113.0746470 108.3126850  69.7744910 111.7752560
 120.6573460  82.8911480 107.3247920 120.4311040  82.1741920 107.9172560
 120.2669660  82.6423920 106.4869670 120.2389710  80.8083420 108.9862080
 119.9511410  81.2696110 109.7739960 121.0341880  80.3481190 109.2546300
 108.0564750  79.5224430 109.6612810 107.4492700  80.2623330 109.6708110
 108.5314100  79.6123790 108.8351010 117.6297540  73.6875250 119.3369700
 117.9978360  72.8670460 119.6649270 116.7695740  73.7477140 119.7525350
 120.9959570  72.6432190 110.1457260 120.3672730  72.7477860 109.4315490
 120.5011490  72.8628970 110.9351140 116.9959030  71.6468800 113.0010930
 116.8726810  71.6654930 112.0520440 117.9443590  71.6947740 113.1209330
 110.0670040  79.4835580 107.4101380 110.8333310  79.3716940 107.9726810
 110.1444730  78.7873550 106.7578150 108.7616800  76.9160650 108.0934270
 108.8420390  75.9688160 108.2051670 109.6536550  77.2467530 108.1994930
 122.0913980  84.9724830 115.5251680 122.2161400  85.7956000 115.9975490
 122.9579540  84.7615560 115.1775830 121.7263990  85.4656480 108.4431120
 121.4405500  85.0521620 107.6285300 121.5283540  86.3944190 108.3231640
 113.1911220  81.4589760 106.8836730 113.0861860  80.8442110 107.6098110
 113.0235440  80.9355650 106.0999740 116.4313950  80.5209790 107.4878720
 115.8824050  80.9679090 108.1321460 117.0533210  80.0159040 108.0116390
 114.6116710  78.5038320 106.6321120 115.1322370  77.7887340 106.2662270
 115.2585110  79.1424190 106.9321630 119.6316720  77.2662880 123.9595340
 120.2137490  76.5115200 123.8715820 119.8078490  77.7970320 123.1826820
 110.9947970  75.5533940 106.3302180 110.7937030  74.6901300 106.6915520
 110.8240020  75.4667300 105.3923780 111.7717200  86.1840210 121.0409850
 111.2338290  86.9086270 120.7218550 112.0251160  85.7070550 120.2507190
 118.4736280  70.3642170 108.8589060 118.7538570  69.5210070 109.2148480
 117.7002010  70.5965280 109.3727810 109.7930770  72.6534560 106.3180060
 110.0956670  72.6601990 105.4099210 110.5325360  72.3032420 106.8147720
 114.6279410  87.4191420 121.2996500 114.5538110  88.3226560 121.6068870
 113.7258250  87.1003320 121.2718570 113.0115700  71.5969180 107.3036260
 112.6637700  70.9193170 106.7238710 113.2128470  71.1358690 108.1179650
 106.0306700  84.7466010 114.6030120 106.3609710  83.8787070 114.3708760
 106.4597700  84.9524530 115.4335080 123.3960540  82.8571420 106.9658770
 122.5653500  82.9248070 107.4366000 123.5732370  83.7475540 106.6625630
 122.8517000  79.6018900 109.4692970 123.6135910  80.1715550 109.5752660
 122.8671370  79.0346100 110.2401280 122.9036170  79.8953270 106.6265490
 123.1785010  80.8032150 106.4984710 122.7146910  79.8315800 107.5627480
 122.8001510  77.8322260 111.6194920 122.4245110  77.0650190 111.1876210
 122.0704630  78.2144960 112.1069850 120.6289200  72.2050210 124.0314140
 121.5059380  72.2133610 124.4148140 120.6410040  71.4681050 123.4206490
 108.1086630  74.3921300 107.5520340 108.8178330  73.9704520 107.0667620
 107.3926570  74.4596530 106.9203690 121.5652440  75.3153100 110.8594570
 122.0611560  75.0823970 111.6443450 121.3668510  74.4764940 110.4432210
 121.3405320  69.8908180 119.8515250 121.9777540  70.5042320 120.2174440
 121.4880210  69.9268840 118.9064480 123.8829870  71.7821970 106.6338390
 124.8079180  71.6503150 106.4256680 123.8605660  71.8614790 107.5874840
 123.9568360  72.5532630 109.2595100 123.1619860  72.4877750 109.7888010
 124.1611640  73.4883270 109.2480450 118.9964380  71.4707440 120.1093650
 118.6677740  70.6559200 119.7295380 119.9446680  71.4277250 119.9859340
 121.4498990  87.2419480 117.0831220 120.9901960  87.9935290 116.7089240
 120.8211450  86.5225950 117.0246020 108.2749610  83.3362720 119.4729940
 107.5483670  82.7168010 119.4055890 108.3358760  83.7303330 118.6028020
 114.6190210  86.4416210 117.0848330 114.9068020  86.1870510 116.2081340
 115.1313430  85.8893570 117.6753900 107.1807630  70.4853890 110.1858560
 107.9386990  70.5982770 109.6122590 106.7184800  71.3223090 110.1401990
 118.2246420  69.2635610 114.4143940 118.8275790  69.8355820 114.8892460
 117.4839410  69.8275050 114.1917840 121.3681020  69.6657170 109.6884220
 121.5631650  70.5640620 109.9551650 120.5810890  69.4344250 110.1817170
 109.5532780  71.0117940 108.7260530 110.0825540  70.2247740 108.5968480
 110.1861100  71.6909130 108.9596060 122.9207630  86.9057880 111.4490780
 123.0959820  86.2195620 110.8051700 122.2229200  87.4304930 111.0567450
 118.4741640  69.4430640 124.7938880 118.3607090  69.7625250 125.6890400
 119.2911380  69.8443150 124.4976160 109.5283660  79.5521940  97.9158650
 108.6968540  79.2970650  98.3155160 110.1364640  79.6232710  98.6516570
 109.5084920  83.5862030  98.1116670 109.8112960  82.6959770  97.9326890
 110.2528510  84.1432250  97.8838920 110.1137000  73.0955330  92.7339420
 110.2203750  73.9959060  93.0408180 109.2029360  73.0473300  92.4434070
 111.9544730  76.0641700  97.0664600 112.4622950  76.5622670  97.7069620
 112.4857970  75.2876900  96.8903960 124.0555660  74.2346890 100.7693950
 123.3507830  74.6228600 100.2509060 124.3213580  74.9297180 101.3714880
 111.4883680  80.3435440  99.5101520 111.1553060  80.9704360 100.1522590
 111.6650360  80.8697320  98.7303190 110.7002780  82.3116240 101.3250700
 111.3176780  82.9867320 101.0435150 109.8395900  82.7204220 101.2338200
 105.9935120  81.5016100  90.2057550 105.6163100  81.9903200  89.4742450
 106.2508190  82.1741380  90.8364080 123.0704510  73.6035310  97.3687070
 122.1229420  73.6374290  97.5002500 123.3954500  74.4174260  97.7536430
 113.6024050  69.9032490  95.6643060 113.9099030  69.3479380  94.9478560
 112.6724750  70.0376950  95.4816050 119.1539110  85.6199780  97.9550520
 119.1666270  85.2162070  97.0872780 118.6014330  86.3947070  97.8511950
 119.4628660  75.7086160 100.3204240 119.0499840  76.5339870 100.5744230
 118.7304610  75.1231200 100.1280600 111.5961450  78.4946060  95.1822910
 111.1918450  77.7823310  94.6868810 111.6824570  78.1499300  96.0710950
 112.0643150  82.1813620  97.3462120 111.7671440  81.5759090  96.6669900
 113.0142970  82.2190930  97.2351480 110.3090070  75.2689270  98.9621950
 110.8604660  75.3784610  98.1875200 110.8233580  75.6426870  99.6777180
 120.1528760  85.7545490 101.0085220 119.6759320  86.5617680 100.8157830
 119.4690550  85.1023820 101.1611430 118.1966800  78.7688430  89.9111180
 118.6360080  77.9310860  89.7649000 118.9095220  79.4017830  89.9975320
 109.9832800  78.7908630 102.5727290 109.8440570  79.6631430 102.9414690
 109.1014160  78.4481440 102.4275230 123.7327970  85.5157430 106.0776610
 124.2087690  85.9940320 106.7565690 124.3535130  85.4474920 105.3522110
 107.1799080  82.2606370  94.9004380 106.7727160  82.4020960  94.0457980
 108.0712090  81.9766530  94.6975590 123.1361220  82.7070280 103.2376620
 123.2624280  82.4682160 102.3193800 123.1782600  81.8754820 103.7098700
 116.9977960  86.4098280 101.8071430 117.5122630  86.3206290 102.6093860
 116.1547040  86.7557980 102.0999340 122.9885230  74.7602740 104.2026360
 122.3729500  75.2682410 103.6741820 122.6681650  73.8601070 104.1452300
 110.5543960  75.8559680  93.7934480 110.3284880  75.6396850  94.6981100
 109.7736490  76.2888140  93.4480450 112.9943170  76.7545260 104.4594750
 112.8986770  75.8139990 104.3095150 113.8375150  76.9760330 104.0642820
 113.4139120  73.7646540  96.9231680 113.4175180  73.3236490  96.0736220
 114.3090240  74.0863870  97.0303500 117.4387640  72.5426020  97.9302130
 117.4560380  72.9934670  98.7743980 117.1903220  71.6431660  98.1435570
 120.8658390  69.9558200 103.7688510 121.1904160  69.2247860 104.2946490
 120.9014900  69.6371840 102.8669500 107.5649950  80.9771780 103.1888470
 107.1804740  80.3365450 103.7871430 107.8762140  81.6807900 103.7583200
 111.5046460  76.8656960 100.9881300 111.2003530  77.7448940 101.2131660
 112.4592920  76.9256750 101.0238740 110.0328250  81.0717950  91.5848150
 109.2590510  80.5315570  91.4246870 110.7622880  80.5524560  91.2465910
 110.0765650  80.7398330  95.2226960 110.5944320  79.9366590  95.1683850
 109.6249670  80.6777470  96.0643790 110.7623310  78.1643940 105.0192210
 110.4623450  78.3101120 104.1220030 111.5334550  77.6049230 104.9265600
 121.2388830  77.1452760  89.2845950 121.1552550  77.5766980  88.4342390
 121.9583020  77.6051110  89.7172770 113.2353050  79.0924170  92.8795540
 113.6915830  79.9029420  93.1055730 112.8841260  78.7747310  93.7114030
 115.5385660  84.6030510 100.1087840 116.1827880  84.8089890 100.7861260
 115.9015100  83.8418910  99.6558690 120.6573460  82.8911480  88.5504430
 120.4311040  82.1741920  89.1429070 120.2669660  82.6423920  87.7126180
 106.4389490  86.9178340  89.3248890 106.7987130  87.5167680  88.6706160
 106.2981830  87.4638230  90.0983920 114.4143940  83.4549090 105.1989410
 114.0940810  82.7358330 105.7435100 113.7402300  84.1304160 105.2725470
 117.6297540  73.6875250 100.5626210 117.9978360  72.8670460 100.8905780
 116.7695740  73.7477140 100.9781860 112.9643600  74.9218140  92.7871650
 112.2559750  75.3904480  93.2285260 113.2488080  74.2640150  93.4216840
 121.7966390  72.5582800 101.6292570 121.2939990  73.2988200 101.9686380
 122.6123050  72.9466800 101.3129360 122.0913980  84.9724830  96.7508190
 122.2161400  85.7956000  97.2232000 122.9579540  84.7615560  96.4032340
 106.4476990  83.1329610  92.2966830 105.5216770  83.3750750  92.2872240
 106.9133420  83.9603870  92.1751580 117.4054420  82.3581980 105.5586310
 116.7992580  82.3813580 104.8182060 117.1008530  81.6265020 106.0953560
 118.8354790  86.0862270 104.1695720 119.7876540  86.0020290 104.1195960
 118.6883010  86.7503980 104.8429510 113.3425540  80.1446560 104.0882470
 112.5771210  80.7131560 104.0037140 113.5241500  79.8522770 103.1950700
 108.3210680  76.8805160 105.4497020 108.3616020  76.5819030 106.3582250
 109.1756180  77.2812770 105.2904540 112.0989070  79.4800710  90.6100530
 112.5205490  79.3140580  91.4531920 112.2239910  78.6700940  90.1155670
 110.2616490  75.4597260 103.4171510 109.7312950  74.9688210 102.7894850
 110.9304560  75.8881460 102.8829440 114.6116710  78.5038320  87.8577630
 115.1322370  77.7887340  87.4918780 115.2585110  79.1424190  88.1578140
 119.6316720  77.2662880 105.1851850 120.2137490  76.5115200 105.0972330
 119.8078490  77.7970320 104.4083330 110.7488790  72.4259630 103.4968800
 110.6545660  71.8080380 102.7719670 110.1686180  73.1525920 103.2698710
 113.5150230  70.9832870 100.5296190 113.0667530  71.0057130  99.6841740
 112.8815430  70.5851890 101.1266490 111.7717200  86.1840210 102.2666360
 111.2338290  86.9086270 101.9475060 112.0251160  85.7070550 101.4763700
 114.6279410  87.4191420 102.5253010 114.5538110  88.3226560 102.8325380
 113.7258250  87.1003320 102.4975080 106.0306700  84.7466010  95.8286630
 106.3609710  83.8787070  95.5965270 106.4597700  84.9524530  96.6591590
 110.6268620  83.0775020  93.4888600 110.3264160  82.9539990  94.3892510
 110.5206110  82.2183610  93.0804330 106.5196910  85.6136600  98.5668260
 106.0827900  85.7937400  99.3992410 107.0874590  86.3711220  98.4249980
 122.1559090  85.1153600 102.8545570 121.5561080  85.1746160 102.1109490
 122.2852990  84.1758580 102.9842420 123.3960540  82.8571420  88.1915280
 122.5653500  82.9248070  88.6622510 123.5732370  83.7475540  87.8882140
 122.8517000  79.6018900  90.6949480 123.6135910  80.1715550  90.8009170
 122.8671370  79.0346100  91.4657790 122.9036170  79.8953270  87.8522000
 123.1785010  80.8032150  87.7241220 122.7146910  79.8315800  88.7883990
 122.1901130  76.9793780 102.4790950 121.9587220  76.7506530 101.5788900
 122.4505680  77.8993330 102.4335840 122.2542190  76.1419620  99.6678220
 121.3044900  76.1083160  99.7823210 122.4355200  77.0519730  99.4327990
 107.7560790  70.4460630  87.8179500 108.4788920  70.9869570  88.1360720
 108.0285310  70.1724050  86.9421040 121.3405320  69.8908180 101.0771760
 121.9777540  70.5042320 101.4430950 121.4880210  69.9268840 100.1320990
 112.5055380  84.5801680 100.2290350 112.2646740  84.8476240  99.3420870
 113.4458020  84.7507410 100.2841210 123.7659540  86.5996060 101.0300990
 123.2717820  86.9964930 100.3128120 123.1572830  85.9745270 101.4238270
 118.0892400  69.2636570  99.9508440 117.2152240  69.5971680  99.7481370
 117.9803150  68.7909750 100.7760310 118.9964380  71.4707440 101.3350160
 118.6677740  70.6559200 100.9551890 119.9446680  71.4277250 101.2115850
 121.4498990  87.2419480  98.3087730 120.9901960  87.9935290  97.9345750
 120.8211450  86.5225950  98.2502530 108.2749610  83.3362720 100.6986450
 107.5483670  82.7168010 100.6312400 108.3358760  83.7303330  99.8284530
 115.8367220  70.1806410  98.8901350 115.0539010  70.6551910  99.1698110
 115.5430150  69.2761240  98.7814530 120.3888290  70.8829510  96.9350440
 120.8296380  70.8274610  96.0872040 120.1195880  71.7987520  97.0060620
 122.2526860  70.5144750  94.9459260 122.1915260  69.5705970  94.7990280
 123.0318890  70.6224840  95.4912720 106.5579610  86.6537110  93.9083210
 106.3901650  86.0207790  94.6065100 105.6914120  86.8596510  93.5577400
 113.7221440  72.5993160  94.4017380 112.9095950  72.2250050  94.0613260
 114.2263080  71.8438240  94.7038570 118.2246420  69.2635610  95.6400450
 118.8275790  69.8355820  96.1148970 117.4839410  69.8275050  95.4174350
 108.1642310  85.3470340  91.3533350 107.6389930  85.7278370  90.6495310
 108.0886890  85.9721110  92.0743060 109.5532780  71.0117940  89.9517040
 110.0825540  70.2247740  89.8224990 110.1861100  71.6909130  90.1852570
 111.7470620  70.7493080  93.0062430 111.1173360  70.0480390  93.1732560
 111.2075760  71.5097210  92.7895590 111.8726180  70.0277060 105.4414920
 111.5910450  70.5310660 104.6775740 112.2545880  69.2298810 105.0757050
 118.4741640  69.4430640 106.0195390 118.3607090  69.7625250 106.9146910
 119.2911380  69.8443150 105.7232670 121.2540130  86.5902170 105.5014080
 122.0465450  86.0951400 105.2940040 121.5473280  87.2692310 106.1089690
 115.5117830  79.2402130  78.2639400 114.7359930  78.7602570  78.5537970
 116.1630760  78.5607780  78.0895560 109.5283660  79.5521940  79.1415160
 108.6968540  79.2970650  79.5411670 110.1364640  79.6232710  79.8773080
 109.5084920  83.5862030  79.3373180 109.8112960  82.6959770  79.1583400
 110.2528510  84.1432250  79.1095430 114.9526820  81.9159320  78.2709560
 114.8835100  80.9749260  78.1098690 115.7146680  82.0060730  78.8432130
 110.1137000  73.0955330  73.9595930 110.2203750  73.9959060  74.2664690
 109.2029360  73.0473300  73.6690580 119.7656110  72.2180140  75.4306830
 120.5865730  71.7276710  75.4732310 119.7990190  72.8077800  76.1838670
 111.9544730  76.0641700  78.2921110 112.4622950  76.5622670  78.9326130
 112.4857970  75.2876900  78.1160470 124.0555660  74.2346890  81.9950460
 123.3507830  74.6228600  81.4765570 124.3213580  74.9297180  82.5971390
 120.0017590  74.1580520  78.2034370 119.2973160  74.4465410  78.7837480
 120.3629750  74.9680630  77.8433930 105.9935120  81.5016100  71.4314060
 105.6163100  81.9903200  70.6998960 106.2508190  82.1741380  72.0620590
 123.0704510  73.6035310  78.5943580 122.1229420  73.6374290  78.7259010
 123.3954500  74.4174260  78.9792940 118.5524550  80.5229620  80.5089640
 118.9693340  80.3089730  79.6743100 119.2764370  80.7802410  81.0798260
 115.9773890  74.2398320  70.6226850 115.0377560  74.4012280  70.7079310
 116.2957150  74.9584000  70.0762840 122.4986650  78.9216840  80.6005880
 121.6705280  78.9909930  80.1256010 123.0937130  79.5071150  80.1321710
 119.4628660  75.7086160  81.5460750 119.0499840  76.5339870  81.8000740
 118.7304610  75.1231200  81.3537110 111.5961450  78.4946060  76.4079420
 111.1918450  77.7823310  75.9125320 111.6824570  78.1499300  77.2967460
 112.0643150  82.1813620  78.5718630 111.7671440  81.5759090  77.8926410
 113.0142970  82.2190930  78.4607990 105.9351450  80.5606180  79.7154710
 106.0131870  80.6954950  78.7710430 106.5493130  79.8522070  79.9082830
 107.1799080  82.2606370  76.1260890 106.7727160  82.4020960  75.2714490
 108.0712090  81.9766530  75.9232100 123.1361220  82.7070280  84.4633130
 123.2624280  82.4682160  83.5450310 123.1782600  81.8754820  84.9355210
 116.9977960  86.4098280  83.0327940 117.5122630  86.3206290  83.8350370
 116.1547040  86.7557980  83.3255850 111.4520740  86.4752150  74.2383560
 111.2763220  85.5587690  74.0251360 110.5976480  86.8339440  74.4781360
 122.9885230  74.7602740  85.4282870 122.3729500  75.2682410  84.8998330
 122.6681650  73.8601070  85.3708810 105.9910970  81.6020350  82.2549170
 106.1542010  81.1325710  81.4368540 106.4563420  81.0943910  82.9198010
 110.7629740  70.7326110  77.2909740 110.3197890  71.5135650  76.9594260
 111.3214730  71.0556000  77.9980680 120.0504060  74.8203580  84.0241720
 119.1997650  74.5209330  84.3450790 119.8905850  75.0645590  83.1125540
 117.1453770  76.3205330  86.1240510 117.4707180  75.4869080  85.7842740
 117.9334100  76.8433850  86.2718840 113.8788560  70.3536810  72.1715570
 113.2542740  70.3496680  72.8968880 113.7918680  69.4867770  71.7751540
 110.5543960  75.8559680  75.0190990 110.3284880  75.6396850  75.9237610
 109.7736490  76.2888140  74.6736960 105.6140990  75.0307510  69.0817840
 105.5315660  75.9738270  69.2232830 105.2624050  74.8882420  68.2030190
 116.9761730  77.0892340  79.7435700 116.2442850  77.5979150  80.0925800
 116.5786070  76.2722320  79.4424480 106.5787580  72.5692010  76.0247070
 106.2934500  72.2047680  76.8625690 106.5166440  71.8372470  75.4110210
 110.0328250  81.0717950  72.8104660 109.2590510  80.5315570  72.6503380
 110.7622880  80.5524560  72.4722420 116.2526170  71.4621270  72.7460440
 115.4390780  70.9634440  72.6705750 116.0588120  72.3019520  72.3296790
 110.0765650  80.7398330  76.4483470 110.5944320  79.9366590  76.3940360
 109.6249670  80.6777470  77.2900300 122.3162970  79.6020280  83.5872430
 121.5911160  80.1949060  83.3901820 122.8438430  79.5943820  82.7885800
 113.9325840  82.0878140  74.4926690 114.6196970  82.6347350  74.8734280
 113.1458260  82.6318870  74.5276300 106.0718240  77.7050960  69.9843770
 106.9413090  77.9875760  70.2679690 105.5808560  78.5186830  69.8692580
 109.1364830  69.4361820  74.5774570 109.0079460  69.4279720  75.5259490
 108.3126850  69.7744910  74.2265580 116.8117740  82.6062860  80.0521800
 117.4539970  81.9056020  80.1653970 117.3367090  83.3861300  79.8718690
 118.5855360  83.4057760  83.2557860 118.9211600  83.9924450  83.9335780
 117.6655700  83.2750470  83.4855650 106.4389490  86.9178340  70.5505400
 106.7987130  87.5167680  69.8962670 106.2981830  87.4638230  71.3240430
 106.4231350  85.1833200  85.0247800 106.5322470  84.2427940  84.8843190
 105.7711910  85.4487950  84.3761530 108.0564750  79.5224430  72.1125830
 107.4492700  80.2623330  72.1221130 108.5314100  79.6123790  71.2864030
 120.9959570  72.6432190  72.5970280 120.3672730  72.7477860  71.8828510
 120.5011490  72.8628970  73.3864160 112.9643600  74.9218140  74.0128160
 112.2559750  75.3904480  74.4541770 113.2488080  74.2640150  74.6473350
 116.9959030  71.6468800  75.4523950 116.8726810  71.6654930  74.5033460
 117.9443590  71.6947740  75.5722350 114.0835820  86.8824100  74.7251930
 114.3377320  86.8445490  73.8031300 113.1348300  86.7557430  74.7180180
 121.7966390  72.5582800  82.8549080 121.2939990  73.2988200  83.1942890
 122.6123050  72.9466800  82.5385870 109.5631510  87.0656040  77.6481830
 110.2993990  86.5171500  77.9190400 109.9472430  87.9312050  77.5087820
 106.4476990  83.1329610  73.5223340 105.5216770  83.3750750  73.5128750
 106.9133420  83.9603870  73.4008090 108.5689790  86.2502110  86.8367410
 109.3702520  86.5714160  87.2502810 108.0541610  85.8897690  87.5587320
 118.8354790  86.0862270  85.3952230 119.7876540  86.0020290  85.3452470
 118.6883010  86.7503980  86.0686020 120.4848890  81.8751890  85.8714000
 121.2258360  82.2127650  85.3681460 119.7221570  82.0443950  85.3183770
 119.1594550  79.9266720  84.4069210 119.5735570  80.0811800  85.2559630
 118.2245550  80.0521940  84.5694990 119.6316720  77.2662880  86.4108360
 120.2137490  76.5115200  86.3228840 119.8078490  77.7970320  85.6339840
 118.5961580  78.1640570  82.3365490 118.0696800  78.6883190  81.7330630
 118.9392920  78.7967960  82.9675220 111.7717200  86.1840210  83.4922870
 111.2338290  86.9086270  83.1731570 112.0251160  85.7070550  82.7020210
 118.4736280  70.3642170  71.3102080 118.7538570  69.5210070  71.6661500
 117.7002010  70.5965280  71.8240830 114.6279410  87.4191420  83.7509520
 114.5538110  88.3226560  84.0581890 113.7258250  87.1003320  83.7231590
 106.0306700  84.7466010  77.0543140 106.3609710  83.8787070  76.8221780
 106.4597700  84.9524530  77.8848100 110.6268620  83.0775020  74.7145110
 110.3264160  82.9539990  75.6149020 110.5206110  82.2183610  74.3060840
 106.5196910  85.6136600  79.7924770 106.0827900  85.7937400  80.6248920
 107.0874590  86.3711220  79.6506490 120.8410730  81.8405580  82.1778240
 120.0270570  82.2702740  82.4404030 121.2484930  82.4523990  81.5647290
 122.9036170  79.8953270  69.0778510 123.1785010  80.8032150  68.9497730
 122.7146910  79.8315800  70.0140500 119.3011780  72.9198120  70.3732140
 119.7196660  72.7329100  69.5328800 118.9947840  72.0677170  70.6835070
 107.3897270  78.5109400  80.6916990 107.7570310  78.4236800  81.5713010
 106.8208090  77.7475950  80.5923850 122.1901130  76.9793780  83.7047460
 121.9587220  76.7506530  82.8045410 122.4505680  77.8993330  83.6592350
 122.0752470  76.0579750  77.3715180 122.5989950  75.5642400  76.7405350
 122.6611890  76.1930110  78.1162750 122.2542190  76.1419620  80.8934730
 121.3044900  76.1083160  81.0079720 122.4355200  77.0519730  80.6584500
 122.9939600  73.9514050  75.8445270 122.8838880  73.7970090  76.7827540
 123.7547190  73.4234990  75.6020680 108.8049350  83.0242090  85.8537140
 108.7618980  82.6535000  86.7351600 108.9360360  83.9619660  85.9938960
 112.5055380  84.5801680  81.4546860 112.2646740  84.8476240  80.5677380
 113.4458020  84.7507410  81.5097720 107.8705620  69.3798690  84.9634720
 108.4188610  69.1986740  84.2000830 107.9360930  68.5892800  85.4991030
 108.6437380  85.9704340  82.9734920 108.0497700  85.8389040  83.7124960
 108.6361220  85.1342480  82.5077020 108.2749610  83.3362720  81.9242960
 107.5483670  82.7168010  81.8568910 108.3358760  83.7303330  81.0541040
 111.8794710  85.5507720  78.7092370 112.3959730  84.9395080  78.1840630
 112.5292090  86.0536500  79.2003380 107.1807630  70.4853890  72.6371580
 107.9386990  70.5982770  72.0635610 106.7184800  71.3223090  72.5915010
 113.7221440  72.5993160  75.6273890 112.9095950  72.2250050  75.2869770
 114.2263080  71.8438240  75.9295080 108.1642310  85.3470340  72.5789860
 107.6389930  85.7278370  71.8751820 108.0886890  85.9721110  73.2999570
 111.7470620  70.7493080  74.2318940 111.1173360  70.0480390  74.3989070
 111.2075760  71.5097210  74.0152100 110.7635280  87.2952720  71.4539110
 111.4954100  87.0112000  70.9063000 111.0228950  87.0566000  72.3438490
 109.9250070  83.4117450  71.4585440 109.2958950  83.8802550  72.0071270
 110.0397900  82.5666670  71.8931630 109.5084920  83.5862030  60.5629690
 109.8112960  82.6959770  60.3839910 110.2528510  84.1432250  60.3351940
 105.9008620  77.1129480  60.0353760 106.4724730  76.3451680  60.0357400
 105.9010160  77.4118240  59.1260370 115.7588570  85.9320330  57.8899030
 115.1400010  86.3877830  57.3193470 116.6140350  86.0871790  57.4888730
 107.7620160  75.0174340  60.4305030 108.4430270  75.2812710  61.0492430
 107.4468210  74.1775210  60.7643040 121.6180370  83.7755650  61.6918360
 120.9343890  84.4454760  61.6835030 122.1574660  83.9736300  60.9263220
 123.0704510  73.6035310  59.8200090 122.1229420  73.6374290  59.9515520
 123.3954500  74.4174260  60.2049450 122.4986650  78.9216840  61.8262390
 121.6705280  78.9909930  61.3512520 123.0937130  79.5071150  61.3578220
 119.4628660  75.7086160  62.7717260 119.0499840  76.5339870  63.0257250
 118.7304610  75.1231200  62.5793620 112.0643150  82.1813620  59.7975140
 111.7671440  81.5759090  59.1182920 113.0142970  82.2190930  59.6864500
 118.1966800  78.7688430  52.3624200 118.6360080  77.9310860  52.2162020
 118.9095220  79.4017830  52.4488340 116.3062180  83.7084500  56.3305440
 116.7458090  84.4508830  55.9160830 116.2449070  83.9511070  57.2544400
 121.7783940  70.0231240  50.6765240 121.4656600  70.1158070  51.5764310
 122.5396410  70.6012270  50.6262670 105.9351450  80.5606180  60.9411220
 106.0131870  80.6954950  59.9966940 106.5493130  79.8522070  61.1339340
 123.1361220  82.7070280  65.6889640 123.2624280  82.4682160  64.7706820
 123.1782600  81.8754820  66.1611720 118.9732360  86.6953620  53.6868450
 118.8133500  86.4056560  54.5850280 118.8079070  85.9193750  53.1513680
 118.6758490  84.2041180  52.2466450 117.9823650  84.2018470  51.5868730
 119.4181350  83.7800500  51.8160620 118.2408420  85.8303890  56.3214940
 118.6965370  85.0493270  56.6353560 118.5800940  86.5410710  56.8656120
 122.9885230  74.7602740  66.6539380 122.3729500  75.2682410  66.1254840
 122.6681650  73.8601070  66.5965320 105.9910970  81.6020350  63.4805680
 106.1542010  81.1325710  62.6625050 106.4563420  81.0943910  64.1454520
 110.7629740  70.7326110  58.5166250 110.3197890  71.5135650  58.1850770
 111.3214730  71.0556000  59.2237190 115.0499550  73.5994630  64.1201570
 114.5878920  73.8077650  64.9321510 114.6477660  72.7853980  63.8172240
 120.0504060  74.8203580  65.2498230 119.1997650  74.5209330  65.5707300
 119.8905850  75.0645590  64.3382050 112.8005640  71.2773440  60.3755850
 113.0977970  72.1836270  60.2947870 113.3491200  70.7892220  59.7615420
 120.8658390  69.9558200  66.2201530 121.1904160  69.2247860  66.7459510
 120.9014900  69.6371840  65.3182520 107.5649950  80.9771780  65.6401490
 107.1804740  80.3365450  66.2384450 107.8762140  81.6807900  66.2096220
 110.0328250  81.0717950  54.0361170 109.2590510  80.5315570  53.8759890
 110.7622880  80.5524560  53.6978930 116.2526170  71.4621270  53.9716950
 115.4390780  70.9634440  53.8962260 116.0588120  72.3019520  53.5553300
 114.9635150  82.0064610  52.9467280 115.3050850  82.7506840  52.4510600
 114.1347860  82.3195730  53.3092110 107.5610190  77.7059700  64.5865680
 107.2025130  78.3713550  65.1739020 107.2664750  76.8743250  64.9578300
 121.2388830  77.1452760  51.7358970 121.1552550  77.5766980  50.8855410
 121.9583020  77.6051110  52.1685790 122.3162970  79.6020280  64.8128940
 121.5911160  80.1949060  64.6158330 122.8438430  79.5943820  64.0142310
 122.2676080  83.9995020  54.4641100 121.6252240  83.3450640  54.7384820
 121.8806740  84.4050110  53.6881770 106.0718240  77.7050960  51.2100280
 106.9413090  77.9875760  51.4936200 105.5808560  78.5186830  51.0949090
 109.1364830  69.4361820  55.8031080 109.0079460  69.4279720  56.7516000
 108.3126850  69.7744910  55.4522090 120.6573460  82.8911480  51.0017450
 120.4311040  82.1741920  51.5942090 120.2669660  82.6423920  50.1639200
 120.2389710  80.8083420  52.6631610 119.9511410  81.2696110  53.4509490
 121.0341880  80.3481190  52.9315830 106.4231350  85.1833200  66.2504310
 106.5322470  84.2427940  66.1099700 105.7711910  85.4487950  65.6018040
 112.4558110  84.3009540  52.5935580 112.4468210  85.0339230  51.9780090
 111.5356470  84.0541120  52.6862540 108.0564750  79.5224430  53.3382340
 107.4492700  80.2623330  53.3477640 108.5314100  79.6123790  52.5120540
 117.6297540  73.6875250  63.0139230 117.9978360  72.8670460  63.3418800
 116.7695740  73.7477140  63.4294880 115.4417710  84.3637780  51.2560770
 115.5429690  84.1601770  50.3262750 114.5419450  84.1096060  51.4608550
 114.0835820  86.8824100  55.9508440 114.3377320  86.8445490  55.0287810
 113.1348300  86.7557430  55.9436690 121.7966390  72.5582800  64.0805590
 121.2939990  73.2988200  64.4199400 122.6123050  72.9466800  63.7642380
 110.0670040  79.4835580  51.0870910 110.8333310  79.3716940  51.6496340
 110.1444730  78.7873550  50.4347680 108.5689790  86.2502110  68.0623920
 109.3702520  86.5714160  68.4759320 108.0541610  85.8897690  68.7843830
 112.6733820  86.2386350  50.6963910 113.4662430  86.5275180  50.2445700
 112.1538170  85.8078520  50.0176390 121.7263990  85.4656480  52.1200650
 121.4405500  85.0521620  51.3054830 121.5283540  86.3944190  52.0001170
 106.2887600  78.7375570  67.0059970 106.7926620  78.1582850  67.5776200
 105.5495020  79.0215800  67.5436340 113.1911220  81.4589760  50.5606260
 113.0861860  80.8442110  51.2867640 113.0235440  80.9355650  49.7769270
 116.4313950  80.5209790  51.1648250 115.8824050  80.9679090  51.8090990
 117.0533210  80.0159040  51.6885920 120.4848890  81.8751890  67.0970510
 121.2258360  82.2127650  66.5937970 119.7221570  82.0443950  66.5440280
 114.6116710  78.5038320  50.3090650 115.1322370  77.7887340  49.9431800
 115.2585110  79.1424190  50.6091160 113.5150230  70.9832870  62.9809210
 113.0667530  71.0057130  62.1354760 112.8815430  70.5851890  63.5779510
 116.2573680  77.6103380  64.9859490 116.3769890  77.0144520  65.7254330
 117.1167680  77.6473070  64.5660790 118.5961580  78.1640570  63.5622000
 118.0696800  78.6883190  62.9587140 118.9392920  78.7967960  64.1931730
 117.8435880  73.7690540  66.4768330 117.1551400  73.1072080  66.4118320
 118.5641900  73.3228810  66.9216790 118.4736280  70.3642170  52.5358590
 118.7538570  69.5210070  52.8918010 117.7002010  70.5965280  53.0497340
 115.1764740  86.5849930  52.5992390 116.0715530  86.9234900  52.6211150
 115.2082370  85.8629340  51.9716670 108.8160900  81.9576980  50.8279390
 109.2535770  82.5006650  51.4836970 109.3008630  81.1323930  50.8375730
 122.1559090  85.1153600  65.3058590 121.5561080  85.1746160  64.5622510
 122.2852990  84.1758580  65.4355440 122.8517000  79.6018900  53.1462500
 123.6135910  80.1715550  53.2522190 122.8671370  79.0346100  53.9170810
 106.3521340  78.1256830  57.3770160 105.6970180  77.8568470  56.7329860
 107.1899290  78.0161310  56.9272140 123.8576970  80.4569000  57.9904430
 124.2285800  79.6736320  57.5840400 124.4978900  81.1458100  57.8121730
 120.8410730  81.8405580  63.4034750 120.0270570  82.2702740  63.6660540
 121.2484930  82.4523990  62.7903800 122.9036170  79.8953270  50.3035020
 123.1785010  80.8032150  50.1754240 122.7146910  79.8315800  51.2397010
 122.8001510  77.8322260  55.2964450 122.4245110  77.0650190  54.8645740
 122.0704630  78.2144960  55.7839380 107.3897270  78.5109400  61.9173500
 107.7570310  78.4236800  62.7969520 106.8208090  77.7475950  61.8180360
 122.1901130  76.9793780  64.9303970 121.9587220  76.7506530  64.0301920
 122.4505680  77.8993330  64.8848860 120.6289200  72.2050210  67.7083670
 121.5059380  72.2133610  68.0917670 120.6410040  71.4681050  67.0976020
 122.0752470  76.0579750  58.5971690 122.5989950  75.5642400  57.9661860
 122.6611890  76.1930110  59.3419260 122.2542190  76.1419620  62.1191240
 121.3044900  76.1083160  62.2336230 122.4355200  77.0519730  61.8841010
 107.4452980  69.6966820  60.1715140 108.0929170  69.1464200  59.7310300
 107.8654820  69.9509970  60.9930950 122.9939600  73.9514050  57.0701780
 122.8838880  73.7970090  58.0084050 123.7547190  73.4234990  56.8277190
 121.3405320  69.8908180  63.5284780 121.9777540  70.5042320  63.8943970
 121.4880210  69.9268840  62.5834010 123.8829870  71.7821970  50.3107920
 124.8079180  71.6503150  50.1026210 123.8605660  71.8614790  51.2644370
 114.7109800  71.0434370  66.4359880 114.6498690  71.6356200  67.1855290
 115.6510180  70.9360330  66.2910140 117.3484360  70.7004430  66.0752170
 117.9624770  71.0183720  65.4133250 117.8933920  70.2153020  66.6948030
 108.6437380  85.9704340  64.1991430 108.0497700  85.8389040  64.9381470
 108.6361220  85.1342480  63.7333530 118.9964380  71.4707440  63.7863180
 118.6677740  70.6559200  63.4064910 119.9446680  71.4277250  63.6628870
 108.2749610  83.3362720  63.1499470 107.5483670  82.7168010  63.0825420
 108.3358760  83.7303330  62.2797550 111.8794710  85.5507720  59.9348880
 112.3959730  84.9395080  59.4097140 112.5292090  86.0536500  60.4259890
 115.8367220  70.1806410  61.3414370 115.0539010  70.6551910  61.6211130
 115.5430150  69.2761240  61.2327550 111.7470620  70.7493080  55.4575450
 111.1173360  70.0480390  55.6245580 111.2075760  71.5097210  55.2408610
 122.9207630  86.9057880  55.1260310 123.0959820  86.2195620  54.4821230
 122.2229200  87.4304930  54.7336980 109.9250070  83.4117450  52.6841950
 109.2958950  83.8802550  53.2327780 110.0397900  82.5666670  53.1188140
 118.4741640  69.4430640  68.4708410 118.3607090  69.7625250  69.3659930
 119.2911380  69.8443150  68.1745690 119.5325260  83.6462320  39.4951550
 119.0706790  82.8749560  39.8238720 120.3450810  83.6728390  40.0004000
 115.7588570  85.9320330  39.1155540 115.1400010  86.3877830  38.5449980
 116.6140350  86.0871790  38.7145240 115.9831990  74.7229700  40.9491510
 116.3596810  73.8501580  40.8365180 115.8851500  75.0588400  40.0581950
 119.7656110  72.2180140  37.8819850 120.5865730  71.7276710  37.9245330
 119.7990190  72.8077800  38.6351690 111.9544730  76.0641700  40.7434130
 112.4622950  76.5622670  41.3839150 112.4857970  75.2876900  40.5673490
 111.4883680  80.3435440  43.1871050 111.1553060  80.9704360  43.8292120
 111.6650360  80.8697320  42.4072720 120.0017590  74.1580520  40.6547390
 119.2973160  74.4465410  41.2350500 120.3629750  74.9680630  40.2946950
 123.0704510  73.6035310  41.0456600 122.1229420  73.6374290  41.1772030
 123.3954500  74.4174260  41.4305960 113.6024050  69.9032490  39.3412590
 113.9099030  69.3479380  38.6248090 112.6724750  70.0376950  39.1585580
 119.1539110  85.6199780  41.6320050 119.1666270  85.2162070  40.7642310
 118.6014330  86.3947070  41.5281480 120.4484530  82.3416000  36.7210220
 120.3380860  81.3990330  36.8459640 120.4452780  82.7031640  37.6072980
 118.5524550  80.5229620  42.9602660 118.9693340  80.3089730  42.1256120
 119.2764370  80.7802410  43.5311280 115.9773890  74.2398320  33.0739870
 115.0377560  74.4012280  33.1592330 116.2957150  74.9584000  32.5275860
 119.4628660  75.7086160  43.9973770 119.0499840  76.5339870  44.2513760
 118.7304610  75.1231200  43.8050130 120.1528760  85.7545490  44.6854750
 119.6759320  86.5617680  44.4927360 119.4690550  85.1023820  44.8380960
 121.7783940  70.0231240  31.9021750 121.4656600  70.1158070  32.8020820
 122.5396410  70.6012270  31.8519180 118.6758490  84.2041180  33.4722960
 117.9823650  84.2018470  32.8125240 119.4181350  83.7800500  33.0417130
 118.2408420  85.8303890  37.5471450 118.6965370  85.0493270  37.8610070
 118.5800940  86.5410710  38.0912630 105.9910970  81.6020350  44.7062190
 106.1542010  81.1325710  43.8881560 106.4563420  81.0943910  45.3711030
 110.7629740  70.7326110  39.7422760 110.3197890  71.5135650  39.4107280
 111.3214730  71.0556000  40.4493700 117.1453770  76.3205330  48.5753530
 117.4707180  75.4869080  48.2355760 117.9334100  76.8433850  48.7231860
 112.8005640  71.2773440  41.6012360 113.0977970  72.1836270  41.5204380
 113.3491200  70.7892220  40.9871930 117.7841720  75.8623050  36.0694660
 117.1850610  76.5858850  35.8858280 118.3321330  75.7999830  35.2871110
 116.3906590  74.4986590  38.0997940 116.7836160  74.8158790  37.2866630
 116.7523440  73.6198470  38.2142460 116.9761730  77.0892340  42.1948720
 116.2442850  77.5979150  42.5438820 116.5786070  76.2722320  41.8937500
 113.4139120  73.7646540  40.6001210 113.4175180  73.3236490  39.7505750
 114.3090240  74.0863870  40.7073030 113.4759270  74.7658620  33.5907970
 113.5972090  74.7245100  34.5393790 113.0907780  75.6282770  33.4354700
 117.4387640  72.5426020  41.6071660 117.4560380  72.9934670  42.4513510
 117.1903220  71.6431660  41.8205100 112.4880770  77.0759760  32.9891270
 111.9197670  76.6278010  32.3627180 113.1969770  77.4352540  32.4556420
 107.5649950  80.9771780  46.8658000 107.1804740  80.3365450  47.4640960
 107.8762140  81.6807900  47.4352730 113.7147090  77.8248320  42.3466620
 114.0817220  77.3506890  43.0927960 113.5252150  78.6989890  42.6874960
 116.2526170  71.4621270  35.1973460 115.4390780  70.9634440  35.1218770
 116.0588120  72.3019520  34.7809810 118.9674560  75.8340920  33.4935620
 119.8554180  76.1458150  33.3186960 118.9379650  74.9613170  33.1016200
 121.2388830  77.1452760  32.9615480 121.1552550  77.5766980  32.1111920
 121.9583020  77.6051110  33.3942300 122.3162970  79.6020280  46.0385450
 121.5911160  80.1949060  45.8414840 122.8438430  79.5943820  45.2398820
 122.2676080  83.9995020  35.6897610 121.6252240  83.3450640  35.9641330
 121.8806740  84.4050110  34.9138280 109.1364830  69.4361820  37.0287590
 109.0079460  69.4279720  37.9772510 108.3126850  69.7744910  36.6778600
 120.6573460  82.8911480  32.2273960 120.4311040  82.1741920  32.8198600
 120.2669660  82.6423920  31.3895710 118.5855360  83.4057760  45.7070880
 118.9211600  83.9924450  46.3848800 117.6655700  83.2750470  45.9368670
 106.4389490  86.9178340  33.0018420 106.7987130  87.5167680  32.3475690
 106.2981830  87.4638230  33.7753450 120.2389710  80.8083420  33.8888120
 119.9511410  81.2696110  34.6766000 121.0341880  80.3481190  34.1572340
 117.6297540  73.6875250  44.2395740 117.9978360  72.8670460  44.5675310
 116.7695740  73.7477140  44.6551390 120.9959570  72.6432190  35.0483300
 120.3672730  72.7477860  34.3341530 120.5011490  72.8628970  35.8377180
 112.9643600  74.9218140  36.4641180 112.2559750  75.3904480  36.9054790
 113.2488080  74.2640150  37.0986370 114.5899530  76.3414840  44.4633710
 115.0884780  76.8160660  45.1285560 114.7322480  75.4178360  44.6703740
 116.9959030  71.6468800  37.9036970 116.8726810  71.6654930  36.9546480
 117.9443590  71.6947740  38.0235370 111.1678620  73.2303220  33.8391890
 112.0169150  73.6673370  33.7732080 110.8009890  73.5423480  34.6663950
 108.5689790  86.2502110  49.2880430 109.3702520  86.5714160  49.7015830
 108.0541610  85.8897690  50.0100340 117.4054420  82.3581980  49.2355840
 116.7992580  82.3813580  48.4951590 117.1008530  81.6265020  49.7723090
 118.8354790  86.0862270  47.8465250 119.7876540  86.0020290  47.7965490
 118.6883010  86.7503980  48.5199040 116.4313950  80.5209790  32.3904760
 115.8824050  80.9679090  33.0347500 117.0533210  80.0159040  32.9142430
 120.4848890  81.8751890  48.3227020 121.2258360  82.2127650  47.8194480
 119.7221570  82.0443950  47.7696790 114.6116710  78.5038320  31.5347160
 115.1322370  77.7887340  31.1688310 115.2585110  79.1424190  31.8347670
 119.1594550  79.9266720  46.8582230 119.5735570  80.0811800  47.7072650
 118.2245550  80.0521940  47.0208010 119.6316720  77.2662880  48.8621380
 120.2137490  76.5115200  48.7741860 119.8078490  77.7970320  48.0852860
 113.5150230  70.9832870  44.2065720 113.0667530  71.0057130  43.3611270
 112.8815430  70.5851890  44.8036020 116.2573680  77.6103380  46.2116000
 116.3769890  77.0144520  46.9510840 117.1167680  77.6473070  45.7917300
 118.5961580  78.1640570  44.7878510 118.0696800  78.6883190  44.1843650
 118.9392920  78.7967960  45.4188240 117.8435880  73.7690540  47.7024840
 117.1551400  73.1072080  47.6374830 118.5641900  73.3228810  48.1473300
 109.7930770  72.6534560  31.2206100 110.0956670  72.6601990  30.3125250
 110.5325360  72.3032420  31.7173760 113.0115700  71.5969180  32.2062300
 112.6637700  70.9193170  31.6264750 113.2128470  71.1358690  33.0205690
 122.1559090  85.1153600  46.5315100 121.5561080  85.1746160  45.7879020
 122.2852990  84.1758580  46.6611950 123.3960540  82.8571420  31.8684810
 122.5653500  82.9248070  32.3392040 123.5732370  83.7475540  31.5651670
 122.8517000  79.6018900  34.3719010 123.6135910  80.1715550  34.4778700
 122.8671370  79.0346100  35.1427320 120.8410730  81.8405580  44.6291260
 120.0270570  82.2702740  44.8917050 121.2484930  82.4523990  44.0160310
 122.9036170  79.8953270  31.5291530 123.1785010  80.8032150  31.4010750
 122.7146910  79.8315800  32.4653520 119.3011780  72.9198120  32.8245160
 119.7196660  72.7329100  31.9841820 118.9947840  72.0677170  33.1348090
 122.8001510  77.8322260  36.5220960 122.4245110  77.0650190  36.0902250
 122.0704630  78.2144960  37.0095890 122.1901130  76.9793780  46.1560480
 121.9587220  76.7506530  45.2558430 122.4505680  77.8993330  46.1105370
 122.0752470  76.0579750  39.8228200 122.5989950  75.5642400  39.1918370
 122.6611890  76.1930110  40.5675770 122.2542190  76.1419620  43.3447750
 121.3044900  76.1083160  43.4592740 122.4355200  77.0519730  43.1097520
 107.7560790  70.4460630  31.4949030 108.4788920  70.9869570  31.8130250
 108.0285310  70.1724050  30.6190570 121.5652440  75.3153100  35.7620610
 122.0611560  75.0823970  36.5469490 121.3668510  74.4764940  35.3458250
 122.9939600  73.9514050  38.2958290 122.8838880  73.7970090  39.2340560
 123.7547190  73.4234990  38.0533700 123.8829870  71.7821970  31.5364430
 124.8079180  71.6503150  31.3282720 123.8605660  71.8614790  32.4900880
 123.9568360  72.5532630  34.1621140 123.1619860  72.4877750  34.6914050
 124.1611640  73.4883270  34.1506490 120.8986780  86.5924180  38.1559530
 121.4945850  86.2708750  37.4793950 121.1564930  86.1196000  38.9472800
 107.1984980  69.8522490  44.1396970 106.8499800  70.3086310  44.9055150
 106.8672680  68.9579620  44.2219400 108.8049350  83.0242090  48.3050160
 108.7618980  82.6535000  49.1864620 108.9360360  83.9619660  48.4451980
 117.3484360  70.7004430  47.3008680 117.9624770  71.0183720  46.6389760
 117.8933920  70.2153020  47.9204540 123.7659540  86.5996060  44.7070520
 123.2717820  86.9964930  43.9897650 123.1572830  85.9745270  45.1007800
 108.6437380  85.9704340  45.4247940 108.0497700  85.8389040  46.1637980
 108.6361220  85.1342480  44.9590040 118.0892400  69.2636570  43.6277970
 117.2152240  69.5971680  43.4250900 117.9803150  68.7909750  44.4529840
 121.4498990  87.2419480  41.9857260 120.9901960  87.9935290  41.6115280
 120.8211450  86.5225950  41.9272060 108.2749610  83.3362720  44.3755980
 107.5483670  82.7168010  44.3081930 108.3358760  83.7303330  43.5054060
 114.6190210  86.4416210  41.9874370 114.9068020  86.1870510  41.1107380
 115.1313430  85.8893570  42.5779940 115.8367220  70.1806410  42.5670880
 115.0539010  70.6551910  42.8467640 115.5430150  69.2761240  42.4584060
 120.3888290  70.8829510  40.6119970 120.8296380  70.8274610  39.7641570
 120.1195880  71.7987520  40.6830150 122.2526860  70.5144750  38.6228790
 122.1915260  69.5705970  38.4759810 123.0318890  70.6224840  39.1682250
 107.1807630  70.4853890  35.0884600 107.9386990  70.5982770  34.5148630
 106.7184800  71.3223090  35.0428030 113.7221440  72.5993160  38.0786910
 112.9095950  72.2250050  37.7382790 114.2263080  71.8438240  38.3808100
 118.2246420  69.2635610  39.3169980 118.8275790  69.8355820  39.7918500
 117.4839410  69.8275050  39.0943880 121.3681020  69.6657170  34.5910260
 121.5631650  70.5640620  34.8577690 120.5810890  69.4344250  35.0843210
 109.5532780  71.0117940  33.6286570 110.0825540  70.2247740  33.4994520
 110.1861100  71.6909130  33.8622100 111.7470620  70.7493080  36.6831960
 111.1173360  70.0480390  36.8502090 111.2075760  71.5097210  36.4665120
 118.4741640  69.4430640  49.6964920 118.3607090  69.7625250  50.5916440
 119.2911380  69.8443150  49.4002200 121.2540130  86.5902170  49.1783610
 122.0465450  86.0951400  48.9709570 121.5473280  87.2692310  49.7859220
 117.3799790  77.4623110  20.0599660 117.2993840  76.5477720  19.7891370
 116.9664210  77.9590180  19.3539370 115.5117830  79.2402130  21.9408930
 114.7359930  78.7602570  22.2307500 116.1630760  78.5607780  21.7665090
 109.5283660  79.5521940  22.8184690 108.6968540  79.2970650  23.2181200
 110.1364640  79.6232710  23.5542610 119.5325260  83.6462320  20.7208060
 119.0706790  82.8749560  21.0495230 120.3450810  83.6728390  21.2260510
 109.5084920  83.5862030  23.0142710 109.8112960  82.6959770  22.8352930
 110.2528510  84.1432250  22.7864960 107.9375610  74.5123830  16.6027080
 107.0492310  74.8539800  16.5006960 108.2216800  74.3124150  15.7107910
 105.9008620  77.1129480  22.4866780 106.4724730  76.3451680  22.4870420
 105.9010160  77.4118240  21.5773390 115.7588570  85.9320330  20.3412050
 115.1400010  86.3877830  19.7706490 116.6140350  86.0871790  19.9401750
 114.9526820  81.9159320  21.9479090 114.8835100  80.9749260  21.7868220
 115.7146680  82.0060730  22.5201660 107.1433490  72.5213840  24.2735710
 106.9636330  71.6239590  24.5538470 106.7413570  73.0685710  24.9482660
 110.1137000  73.0955330  17.6365460 110.2203750  73.9959060  17.9434220
 109.2029360  73.0473300  17.3460110 119.7656110  72.2180140  19.1076360
 120.5865730  71.7276710  19.1501840 119.7990190  72.8077800  19.8608200
 107.7620160  75.0174340  22.8818050 108.4430270  75.2812710  23.5005450
 107.4468210  74.1775210  23.2156060 111.9544730  76.0641700  21.9690640
 112.4622950  76.5622670  22.6095660 112.4857970  75.2876900  21.7930000
 124.0555660  74.2346890  25.6719990 123.3507830  74.6228600  25.1535100
 124.3213580  74.9297180  26.2740920 110.2380830  70.7040260  26.2354060
 110.2399270  71.2212650  25.4299960 109.4085140  70.2270440  26.2123990
 116.6251920  80.8159570  17.7343960 116.0069190  81.2809020  17.1706680
 117.1375170  81.5087050  18.1513470 111.4883680  80.3435440  24.4127560
 111.1553060  80.9704360  25.0548630 111.6650360  80.8697320  23.6329230
 120.0017590  74.1580520  21.8803900 119.2973160  74.4465410  22.4607010
 120.3629750  74.9680630  21.5203460 109.9196160  72.4150220  24.2424510
 110.2612970  73.2592270  23.9478380 108.9811970  72.5633960  24.3589850
 110.7002780  82.3116240  26.2276740 111.3176780  82.9867320  25.9461190
 109.8395900  82.7204220  26.1364240 105.9935120  81.5016100  15.1083590
 105.6163100  81.9903200  14.3768490 106.2508190  82.1741380  15.7390120
 121.6180370  83.7755650  24.1431380 120.9343890  84.4454760  24.1348050
 122.1574660  83.9736300  23.3776240 123.0704510  73.6035310  22.2713110
 122.1229420  73.6374290  22.4028540 123.3954500  74.4174260  22.6562470
 113.6024050  69.9032490  20.5669100 113.9099030  69.3479380  19.8504600
 112.6724750  70.0376950  20.3842090 119.1539110  85.6199780  22.8576560
 119.1666270  85.2162070  21.9898820 118.6014330  86.3947070  22.7537990
 120.4484530  82.3416000  17.9466730 120.3380860  81.3990330  18.0716150
 120.4452780  82.7031640  18.8329490 118.5524550  80.5229620  24.1859170
 118.9693340  80.3089730  23.3512630 119.2764370  80.7802410  24.7567790
 115.9904810  77.9681320  17.3029220 115.0634090  77.9018700  17.5317690
 116.1429630  78.9061450  17.1884460 115.9773890  74.2398320  14.2996380
 115.0377560  74.4012280  14.3848840 116.2957150  74.9584000  13.7532370
 122.4986650  78.9216840  24.2775410 121.6705280  78.9909930  23.8025540
 123.0937130  79.5071150  23.8091240 120.0202100  79.5301620  17.8064470
 119.4014520  79.1921170  17.1590770 120.0026550  78.8861380  18.5143660
 111.5961450  78.4946060  20.0848950 111.1918450  77.7823310  19.5894850
 111.6824570  78.1499300  20.9736990 112.0643150  82.1813620  22.2488160
 111.7671440  81.5759090  21.5695940 113.0142970  82.2190930  22.1377520
 110.3090070  75.2689270  23.8647990 110.8604660  75.3784610  23.0901240
 110.8233580  75.6426870  24.5803220 120.1528760  85.7545490  25.9111260
 119.6759320  86.5617680  25.7183870 119.4690550  85.1023820  26.0637470
 118.1966800  78.7688430  14.8137220 118.6360080  77.9310860  14.6675040
 118.9095220  79.4017830  14.9001360 116.3062180  83.7084500  18.7818460
 116.7458090  84.4508830  18.3673850 116.2449070  83.9511070  19.7057420
 121.7783940  70.0231240  13.1278260 121.4656600  70.1158070  14.0277330
 122.5396410  70.6012270  13.0775690 108.2966080  77.3891040  17.5855600
 108.1763680  78.1153130  16.9736870 107.9866970  76.6193950  17.1083510
 123.7327970  85.5157430  30.9802650 124.2087690  85.9940320  31.6591730
 124.3535130  85.4474920  30.2548150 105.9351450  80.5606180  23.3924240
 106.0131870  80.6954950  22.4479960 106.5493130  79.8522070  23.5852360
 107.1799080  82.2606370  19.8030420 106.7727160  82.4020960  18.9484020
 108.0712090  81.9766530  19.6001630 123.1361220  82.7070280  28.1402660
 123.2624280  82.4682160  27.2219840 123.1782600  81.8754820  28.6124740
 116.9977960  86.4098280  26.7097470 117.5122630  86.3206290  27.5119900
 116.1547040  86.7557980  27.0025380 118.9732360  86.6953620  16.1381470
 118.8133500  86.4056560  17.0363300 118.8079070  85.9193750  15.6026700
 111.4520740  86.4752150  17.9153090 111.2763220  85.5587690  17.7020890
 110.5976480  86.8339440  18.1550890 118.6758490  84.2041180  14.6979470
 117.9823650  84.2018470  14.0381750 119.4181350  83.7800500  14.2673640
 118.2408420  85.8303890  18.7727960 118.6965370  85.0493270  19.0866580
 118.5800940  86.5410710  19.3169140 122.9885230  74.7602740  29.1052400
 122.3729500  75.2682410  28.5767860 122.6681650  73.8601070  29.0478340
 105.9910970  81.6020350  25.9318700 106.1542010  81.1325710  25.1138070
 106.4563420  81.0943910  26.5967540 110.7629740  70.7326110  20.9679270
 110.3197890  71.5135650  20.6363790 111.3214730  71.0556000  21.6750210
 120.0504060  74.8203580  27.7011250 119.1997650  74.5209330  28.0220320
 119.8905850  75.0645590  26.7895070 113.8788560  70.3536810  15.8485100
 113.2542740  70.3496680  16.5738410 113.7918680  69.4867770  15.4521070
 112.8005640  71.2773440  22.8268870 113.0977970  72.1836270  22.7460890
 113.3491200  70.7892220  22.2128440 110.5543960  75.8559680  18.6960520
 110.3284880  75.6396850  19.6007140 109.7736490  76.2888140  18.3506490
 117.7841720  75.8623050  17.2951170 117.1850610  76.5858850  17.1114790
 118.3321330  75.7999830  16.5127620 116.3906590  74.4986590  19.3254450
 116.7836160  74.8158790  18.5123140 116.7523440  73.6198470  19.4398970
 108.1253710  73.1658930  27.5154570 107.7317100  74.0134140  27.7227350
 107.4372110  72.5285300  27.7063210 114.6998760  73.2493900  30.5851310
 114.0097080  73.0566100  31.2197400 115.4431060  73.5328540  31.1175610
 105.4270760  71.0887390  21.5484650 105.1383810  71.6590250  22.2609630
 106.1716520  70.6091840  21.9115880 105.6140990  75.0307510  12.7587370
 105.5315660  75.9738270  12.9002360 105.2624050  74.8882420  11.8799720
 113.4139120  73.7646540  21.8257720 113.4175180  73.3236490  20.9762260
 114.3090240  74.0863870  21.9329540 109.2641500  73.6473030  20.7851930
 108.9241550  74.1248260  21.5418980 108.5018820  73.1938150  20.4253030
 113.4759270  74.7658620  14.8164480 113.5972090  74.7245100  15.7650300
 113.0907780  75.6282770  14.6611210 117.4387640  72.5426020  22.8328170
 117.4560380  72.9934670  23.6770020 117.1903220  71.6431660  23.0461610
 112.4880770  77.0759760  14.2147780 111.9197670  76.6278010  13.5883690
 113.1969770  77.4352540  13.6812930 120.8658390  69.9558200  28.6714550
 121.1904160  69.2247860  29.1972530 120.9014900  69.6371840  27.7695540
 107.5649950  80.9771780  28.0914510 107.1804740  80.3365450  28.6897470
 107.8762140  81.6807900  28.6609240 106.5787580  72.5692010  19.7016600
 106.2934500  72.2047680  20.5395220 106.5166440  71.8372470  19.0879740
 110.0328250  81.0717950  16.4874190 109.2590510  80.5315570  16.3272910
 110.7622880  80.5524560  16.1491950 120.7916230  80.0683310  22.2800580
 121.5115350  80.5638600  21.8896690 120.5898050  79.3901200  21.6354450
 116.2526170  71.4621270  16.4229970 115.4390780  70.9634440  16.3475280
 116.0588120  72.3019520  16.0066320 118.9674560  75.8340920  14.7192130
 119.8554180  76.1458150  14.5443470 118.9379650  74.9613170  14.3272710
 110.0765650  80.7398330  20.1253000 110.5944320  79.9366590  20.0709890
 109.6249670  80.6777470  20.9669830 114.9635150  82.0064610  15.3980300
 115.3050850  82.7506840  14.9023620 114.1347860  82.3195730  15.7605130
 107.5610190  77.7059700  27.0378700 107.2025130  78.3713550  27.6252040
 107.2664750  76.8743250  27.4091320 116.1051760  82.9612940  27.9173380
 116.1196300  82.0293900  27.6992290 115.3976860  83.0472700  28.5563150
 121.2388830  77.1452760  14.1871990 121.1552550  77.5766980  13.3368430
 121.9583020  77.6051110  14.6198810 122.3162970  79.6020280  27.2641960
 121.5911160  80.1949060  27.0671350 122.8438430  79.5943820  26.4655330
 122.2676080  83.9995020  16.9154120 121.6252240  83.3450640  17.1897840
 121.8806740  84.4050110  16.1394790 117.8462560  81.3280450  20.7625810
 118.1986380  80.7308580  20.1027180 116.9624890  81.0024680  20.9334060
 113.9325840  82.0878140  18.1696220 114.6196970  82.6347350  18.5503810
 113.1458260  82.6318870  18.2045830 106.0718240  77.7050960  13.6613300
 106.9413090  77.9875760  13.9449220 105.5808560  78.5186830  13.5462110
 113.2353050  79.0924170  17.7821580 113.6915830  79.9029420  18.0081770
 112.8841260  78.7747310  18.6140070 115.5385660  84.6030510  25.0113880
 116.1827880  84.8089890  25.6887300 115.9015100  83.8418910  24.5584730
 109.1364830  69.4361820  18.2544100 109.0079460  69.4279720  19.2029020
 108.3126850  69.7744910  17.9035110 116.8117740  82.6062860  23.7291330
 117.4539970  81.9056020  23.8423500 117.3367090  83.3861300  23.5488220
 120.6573460  82.8911480  13.4530470 120.4311040  82.1741920  14.0455110
 120.2669660  82.6423920  12.6152220 118.5855360  83.4057760  26.9327390
 118.9211600  83.9924450  27.6105310 117.6655700  83.2750470  27.1625180
 106.4389490  86.9178340  14.2274930 106.7987130  87.5167680  13.5732200
 106.2981830  87.4638230  15.0009960 106.1358760  71.1952940  27.7150800
 105.4217280  71.3949860  28.3203410 106.5553800  70.4192510  28.0865600
 120.2389710  80.8083420  15.1144630 119.9511410  81.2696110  15.9022510
 121.0341880  80.3481190  15.3828850 106.4231350  85.1833200  28.7017330
 106.5322470  84.2427940  28.5612720 105.7711910  85.4487950  28.0531060
 114.4143940  83.4549090  30.1015450 114.0940810  82.7358330  30.6461140
 113.7402300  84.1304160  30.1751510 112.4558110  84.3009540  15.0448600
 112.4468210  85.0339230  14.4293110 111.5356470  84.0541120  15.1375560
 108.0564750  79.5224430  15.7895360 107.4492700  80.2623330  15.7990660
 108.5314100  79.6123790  14.9633560 120.9959570  72.6432190  16.2739810
 120.3672730  72.7477860  15.5598040 120.5011490  72.8628970  17.0633690
 115.4417710  84.3637780  13.7073790 115.5429690  84.1601770  12.7775770
 114.5419450  84.1096060  13.9121570 112.9643600  74.9218140  17.6897690
 112.2559750  75.3904480  18.1311300 113.2488080  74.2640150  18.3242880
 116.9959030  71.6468800  19.1293480 116.8726810  71.6654930  18.1802990
 117.9443590  71.6947740  19.2491880 114.0835820  86.8824100  18.4021460
 114.3377320  86.8445490  17.4800830 113.1348300  86.7557430  18.3949710
 111.1678620  73.2303220  15.0648400 112.0169150  73.6673370  14.9988590
 110.8009890  73.5423480  15.8920460 121.7966390  72.5582800  26.5318610
 121.2939990  73.2988200  26.8712420 122.6123050  72.9466800  26.2155400
 120.0888400  77.8015980  19.9779970 119.1478540  77.8166210  20.1527660
 120.4032470  77.0151940  20.4240270 110.0670040  79.4835580  13.5383930
 110.8333310  79.3716940  14.1009360 110.1444730  78.7873550  12.8860700
 108.7616800  76.9160650  14.2216820 108.8420390  75.9688160  14.3334220
 109.6536550  77.2467530  14.3277480 122.0913980  84.9724830  21.6534230
 122.2161400  85.7956000  22.1258040 122.9579540  84.7615560  21.3058380
 109.5631510  87.0656040  21.3251360 110.2993990  86.5171500  21.5959930
 109.9472430  87.9312050  21.1857350 106.4476990  83.1329610  17.1992870
 105.5216770  83.3750750  17.1898280 106.9133420  83.9603870  17.0777620
 108.5689790  86.2502110  30.5136940 109.3702520  86.5714160  30.9272340
 108.0541610  85.8897690  31.2356850 112.6733820  86.2386350  13.1476930
 113.4662430  86.5275180  12.6958720 112.1538170  85.8078520  12.4689410
 117.4054420  82.3581980  30.4612350 116.7992580  82.3813580  29.7208100
 117.1008530  81.6265020  30.9979600 118.8354790  86.0862270  29.0721760
 119.7876540  86.0020290  29.0222000 118.6883010  86.7503980  29.7455550
 121.7263990  85.4656480  14.5713670 121.4405500  85.0521620  13.7567850
 121.5283540  86.3944190  14.4514190 113.1911220  81.4589760  13.0119280
 113.0861860  80.8442110  13.7380660 113.0235440  80.9355650  12.2282290
 116.4313950  80.5209790  13.6161270 115.8824050  80.9679090  14.2604010
 117.0533210  80.0159040  14.1398940 120.4848890  81.8751890  29.5483530
 121.2258360  82.2127650  29.0450990 119.7221570  82.0443950  28.9953300
 112.0989070  79.4800710  15.5126570 112.5205490  79.3140580  16.3557960
 112.2239910  78.6700940  15.0181710 114.6116710  78.5038320  12.7603670
 115.1322370  77.7887340  12.3944820 115.2585110  79.1424190  13.0604180
 119.1594550  79.9266720  28.0838740 119.5735570  80.0811800  28.9329160
 118.2245550  80.0521940  28.2464520 119.6316720  77.2662880  30.0877890
 120.2137490  76.5115200  29.9998370 119.8078490  77.7970320  29.3109370
 110.7488790  72.4259630  28.3994840 110.6545660  71.8080380  27.6745710
 110.1686180  73.1525920  28.1724750 113.5150230  70.9832870  25.4322230
 113.0667530  71.0057130  24.5867780 112.8815430  70.5851890  26.0292530
 110.9947970  75.5533940  12.4584730 110.7937030  74.6901300  12.8198070
 110.8240020  75.4667300  11.5206330 113.0242450  74.1524730  28.6948330
 113.6142140  73.8440580  29.3826150 112.2062690  73.6804480  28.8508230
 117.8435880  73.7690540  28.9281350 117.1551400  73.1072080  28.8631340
 118.5641900  73.3228810  29.3729810 118.4736280  70.3642170  14.9871610
 118.7538570  69.5210070  15.3431030 117.7002010  70.5965280  15.5010360
 109.7930770  72.6534560  12.4462610 110.0956670  72.6601990  11.5381760
 110.5325360  72.3032420  12.9430270 113.0115700  71.5969180  13.4318810
 112.6637700  70.9193170  12.8521260 113.2128470  71.1358690  14.2462200
 115.1764740  86.5849930  15.0505410 116.0715530  86.9234900  15.0724170
 115.2082370  85.8629340  14.4229690 108.8160900  81.9576980  13.2792410
 109.2535770  82.5006650  13.9349990 109.3008630  81.1323930  13.2888750
 106.0306700  84.7466010  20.7312670 106.3609710  83.8787070  20.4991310
 106.4597700  84.9524530  21.5617630 110.6268620  83.0775020  18.3914640
 110.3264160  82.9539990  19.2918550 110.5206110  82.2183610  17.9830370
 106.5196910  85.6136600  23.4694300 106.0827900  85.7937400  24.3018450
 107.0874590  86.3711220  23.3276020 122.1559090  85.1153600  27.7571610
 121.5561080  85.1746160  27.0135530 122.2852990  84.1758580  27.8868460
 123.3960540  82.8571420  13.0941320 122.5653500  82.9248070  13.5648550
 123.5732370  83.7475540  12.7908180 122.8517000  79.6018900  15.5975520
 123.6135910  80.1715550  15.7035210 122.8671370  79.0346100  16.3683830
 106.3521340  78.1256830  19.8283180 105.6970180  77.8568470  19.1842880
 107.1899290  78.0161310  19.3785160 123.8576970  80.4569000  20.4417450
 124.2285800  79.6736320  20.0353420 124.4978900  81.1458100  20.2634750
 120.8410730  81.8405580  25.8547770 120.0270570  82.2702740  26.1173560
 121.2484930  82.4523990  25.2416820 122.9036170  79.8953270  12.7548040
 123.1785010  80.8032150  12.6267260 122.7146910  79.8315800  13.6910030
 119.3011780  72.9198120  14.0501670 119.7196660  72.7329100  13.2098330
 118.9947840  72.0677170  14.3604600 122.8001510  77.8322260  17.7477470
 122.4245110  77.0650190  17.3158760 122.0704630  78.2144960  18.2352400
 107.3897270  78.5109400  24.3686520 107.7570310  78.4236800  25.2482540
 106.8208090  77.7475950  24.2693380 122.1901130  76.9793780  27.3816990
 121.9587220  76.7506530  26.4814940 122.4505680  77.8993330  27.3361880
 106.9413270  75.4218490  28.2744940 106.0469320  75.3885250  28.6138650
 107.4810820  75.6205280  29.0396190 120.6289200  72.2050210  30.1596690
 121.5059380  72.2133610  30.5430690 120.6410040  71.4681050  29.5489040
 105.5659420  75.3355760  15.7708510 104.6623500  75.5985960  15.5960170
 106.0500040  75.6066930  14.9908470 122.0752470  76.0579750  21.0484710
 122.5989950  75.5642400  20.4174880 122.6611890  76.1930110  21.7932280
 122.2542190  76.1419620  24.5704260 121.3044900  76.1083160  24.6849250
 122.4355200  77.0519730  24.3354030 108.1086630  74.3921300  13.6802890
 108.8178330  73.9704520  13.1950170 107.3926570  74.4596530  13.0486240
 107.7560790  70.4460630  12.7205540 108.4788920  70.9869570  13.0386760
 108.0285310  70.1724050  11.8447080 121.5652440  75.3153100  16.9877120
 122.0611560  75.0823970  17.7726000 121.3668510  74.4764940  16.5714760
 107.4452980  69.6966820  22.6228160 108.0929170  69.1464200  22.1823320
 107.8654820  69.9509970  23.4443970 122.9939600  73.9514050  19.5214800
 122.8838880  73.7970090  20.4597070 123.7547190  73.4234990  19.2790210
 121.3405320  69.8908180  25.9797800 121.9777540  70.5042320  26.3456990
 121.4880210  69.9268840  25.0347030 123.8829870  71.7821970  12.7620940
 124.8079180  71.6503150  12.5539230 123.8605660  71.8614790  13.7157390
 123.9568360  72.5532630  15.3877650 123.1619860  72.4877750  15.9170560
 124.1611640  73.4883270  15.3763000 120.8986780  86.5924180  19.3816040
 121.4945850  86.2708750  18.7050460 121.1564930  86.1196000  20.1729310
 107.1984980  69.8522490  25.3653480 106.8499800  70.3086310  26.1311660
 106.8672680  68.9579620  25.4475910 112.5055380  84.5801680  25.1316390
 112.2646740  84.8476240  24.2446910 113.4458020  84.7507410  25.1867250
 114.7109800  71.0434370  28.8872900 114.6498690  71.6356200  29.6368310
 115.6510180  70.9360330  28.7423160 117.3484360  70.7004430  28.5265190
 117.9624770  71.0183720  27.8646270 117.8933920  70.2153020  29.1461050
 123.7659540  86.5996060  25.9327030 123.2717820  86.9964930  25.2154160
 123.1572830  85.9745270  26.3264310 107.8705620  69.3798690  28.6404250
 108.4188610  69.1986740  27.8770360 107.9360930  68.5892800  29.1760560
 118.0892400  69.2636570  24.8534480 117.2152240  69.5971680  24.6507410
 117.9803150  68.7909750  25.6786350 118.9964380  71.4707440  26.2376200
 118.6677740  70.6559200  25.8577930 119.9446680  71.4277250  26.1141890
 121.4498990  87.2419480  23.2113770 120.9901960  87.9935290  22.8371790
 120.8211450  86.5225950  23.1528570 108.2749610  83.3362720  25.6012490
 107.5483670  82.7168010  25.5338440 108.3358760  83.7303330  24.7310570
 111.8794710  85.5507720  22.3861900 112.3959730  84.9395080  21.8610160
 112.5292090  86.0536500  22.8772910 114.6190210  86.4416210  23.2130880
 114.9068020  86.1870510  22.3363890 115.1313430  85.8893570  23.8036450
 115.8367220  70.1806410  23.7927390 115.0539010  70.6551910  24.0724150
 115.5430150  69.2761240  23.6840570 120.3888290  70.8829510  21.8376480
 120.8296380  70.8274610  20.9898080 120.1195880  71.7987520  21.9086660
 122.2526860  70.5144750  19.8485300 122.1915260  69.5705970  19.7016320
 123.0318890  70.6224840  20.3938760 106.5579610  86.6537110  18.8109250
 106.3901650  86.0207790  19.5091140 105.6914120  86.8596510  18.4603440
 107.1807630  70.4853890  16.3141110 107.9386990  70.5982770  15.7405140
 106.7184800  71.3223090  16.2684540 113.7221440  72.5993160  19.3043420
 112.9095950  72.2250050  18.9639300 114.2263080  71.8438240  19.6064610
 118.2246420  69.2635610  20.5426490 118.8275790  69.8355820  21.0175010
 117.4839410  69.8275050  20.3200390 121.3681020  69.6657170  15.8166770
 121.5631650  70.5640620  16.0834200 120.5810890  69.4344250  16.3099720
 108.1642310  85.3470340  16.2559390 107.6389930  85.7278370  15.5521350
 108.0886890  85.9721110  16.9769100 109.5532780  71.0117940  14.8543080
 110.0825540  70.2247740  14.7251030 110.1861100  71.6909130  15.0878610
 111.7470620  70.7493080  17.9088470 111.1173360  70.0480390  18.0758600
 111.2075760  71.5097210  17.6921630 114.6862570  87.3632310  30.5799080
 115.6129880  87.1276580  30.6235040 114.6713000  88.1904310  30.0985110
 122.9207630  86.9057880  17.5773330 123.0959820  86.2195620  16.9334250
 122.2229200  87.4304930  17.1850000 111.8726180  70.0277060  30.3440960
 111.5910450  70.5310660  29.5801780 112.2545880  69.2298810  29.9783090
 110.7635280  87.2952720  15.1308640 111.4954100  87.0112000  14.5832530
 111.0228950  87.0566000  16.0208020 109.9250070  83.4117450  15.1354970
 109.2958950  83.8802550  15.6840800 110.0397900  82.5666670  15.5701160
 121.2540130  86.5902170  30.4040120 122.0465450  86.0951400  30.1966080
 121.5473280  87.2692310  31.0115730 115.5117830  79.2402130   3.1665440
 114.7359930  78.7602570   3.4564010 116.1630760  78.5607780   2.9921600
 109.5283660  79.5521940   4.0441200 108.6968540  79.2970650   4.4437710
 110.1364640  79.6232710   4.7799120 119.5325260  83.6462320   1.9464570
 119.0706790  82.8749560   2.2751740 120.3450810  83.6728390   2.4517020
 109.5084920  83.5862030   4.2399220 109.8112960  82.6959770   4.0609440
 110.2528510  84.1432250   4.0121470 105.9008620  77.1129480   3.7123290
 106.4724730  76.3451680   3.7126930 105.9010160  77.4118240   2.8029900
 114.9526820  81.9159320   3.1735600 114.8835100  80.9749260   3.0124730
 115.7146680  82.0060730   3.7458170 107.1433490  72.5213840   5.4992220
 106.9636330  71.6239590   5.7794980 106.7413570  73.0685710   6.1739170
 115.9831990  74.7229700   3.4004530 116.3596810  73.8501580   3.2878200
 115.8851500  75.0588400   2.5094970 107.7620160  75.0174340   4.1074560
 108.4430270  75.2812710   4.7261960 107.4468210  74.1775210   4.4412570
 111.9544730  76.0641700   3.1947150 112.4622950  76.5622670   3.8352170
 112.4857970  75.2876900   3.0186510 124.0555660  74.2346890   6.8976500
 123.3507830  74.6228600   6.3791610 124.3213580  74.9297180   7.4997430
 110.2380830  70.7040260   7.4610570 110.2399270  71.2212650   6.6556470
 109.4085140  70.2270440   7.4380500 111.4883680  80.3435440   5.6384070
 111.1553060  80.9704360   6.2805140 111.6650360  80.8697320   4.8585740
 120.0017590  74.1580520   3.1060410 119.2973160  74.4465410   3.6863520
 120.3629750  74.9680630   2.7459970 109.9196160  72.4150220   5.4681020
 110.2612970  73.2592270   5.1734890 108.9811970  72.5633960   5.5846360
 110.7002780  82.3116240   7.4533250 111.3176780  82.9867320   7.1717700
 109.8395900  82.7204220   7.3620750 121.6180370  83.7755650   5.3687890
 120.9343890  84.4454760   5.3604560 122.1574660  83.9736300   4.6032750
 123.0704510  73.6035310   3.4969620 122.1229420  73.6374290   3.6285050
 123.3954500  74.4174260   3.8818980 119.1539110  85.6199780   4.0833070
 119.1666270  85.2162070   3.2155330 118.6014330  86.3947070   3.9794500
 118.5524550  80.5229620   5.4115680 118.9693340  80.3089730   4.5769140
 119.2764370  80.7802410   5.9824300 122.4986650  78.9216840   5.5031920
 121.6705280  78.9909930   5.0282050 123.0937130  79.5071150   5.0347750
 119.4628660  75.7086160   6.4486790 119.0499840  76.5339870   6.7026780
 118.7304610  75.1231200   6.2563150 112.0643150  82.1813620   3.4744670
 111.7671440  81.5759090   2.7952450 113.0142970  82.2190930   3.3634030
 110.3090070  75.2689270   5.0904500 110.8604660  75.3784610   4.3157750
 110.8233580  75.6426870   5.8059730 120.1528760  85.7545490   7.1367770
 119.6759320  86.5617680   6.9440380 119.4690550  85.1023820   7.2893980
 111.1561580  81.9195310  10.1252470 110.2590110  82.1435280  10.3725870
 111.1814450  82.0430250   9.1763870 109.9832800  78.7908630   8.7009840
 109.8440570  79.6631430   9.0697240 109.1014160  78.4481440   8.5557780
 111.7813150  84.7330330  10.9094990 111.7528580  85.1373280  10.0423420
 111.6178120  83.8040690  10.7466590 123.7327970  85.5157430  12.2059160
 124.2087690  85.9940320  12.8848240 124.3535130  85.4474920  11.4804660
 105.9351450  80.5606180   4.6180750 106.0131870  80.6954950   3.6736470
 106.5493130  79.8522070   4.8108870 123.1361220  82.7070280   9.3659170
 123.2624280  82.4682160   8.4476350 123.1782600  81.8754820   9.8381250
 116.9977960  86.4098280   7.9353980 117.5122630  86.3206290   8.7376410
 116.1547040  86.7557980   8.2281890 122.9885230  74.7602740  10.3308910
 122.3729500  75.2682410   9.8024370 122.6681650  73.8601070  10.2734850
 105.9910970  81.6020350   7.1575210 106.1542010  81.1325710   6.3394580
 106.4563420  81.0943910   7.8224050 110.7629740  70.7326110   2.1935780
 110.3197890  71.5135650   1.8620300 111.3214730  71.0556000   2.9006720
 115.0499550  73.5994630   7.7971100 114.5878920  73.8077650   8.6091040
 114.6477660  72.7853980   7.4941770 120.0504060  74.8203580   8.9267760
 119.1997650  74.5209330   9.2476830 119.8905850  75.0645590   8.0151580
 117.1453770  76.3205330  11.0266550 117.4707180  75.4869080  10.6868780
 117.9334100  76.8433850  11.1744880 112.8005640  71.2773440   4.0525380
 113.0977970  72.1836270   3.9717400 113.3491200  70.7892220   3.4384950
 112.9943170  76.7545260  10.5877300 112.8986770  75.8139990  10.4377700
 113.8375150  76.9760330  10.1925370 108.1253710  73.1658930   8.7411080
 107.7317100  74.0134140   8.9483860 107.4372110  72.5285300   8.9319720
 114.6998760  73.2493900  11.8107820 114.0097080  73.0566100  12.4453910
 115.4431060  73.5328540  12.3432120 105.4270760  71.0887390   2.7741160
 105.1383810  71.6590250   3.4866140 106.1716520  70.6091840   3.1372390
 116.9761730  77.0892340   4.6461740 116.2442850  77.5979150   4.9951840
 116.5786070  76.2722320   4.3450520 113.4139120  73.7646540   3.0514230
 113.4175180  73.3236490   2.2018770 114.3090240  74.0863870   3.1586050
 109.2641500  73.6473030   2.0108440 108.9241550  74.1248260   2.7675490
 108.5018820  73.1938150   1.6509540 117.4387640  72.5426020   4.0584680
 117.4560380  72.9934670   4.9026530 117.1903220  71.6431660   4.2718120
 120.8658390  69.9558200   9.8971060 121.1904160  69.2247860  10.4229040
 120.9014900  69.6371840   8.9952050 107.5649950  80.9771780   9.3171020
 107.1804740  80.3365450   9.9153980 107.8762140  81.6807900   9.8865750
 113.7147090  77.8248320   4.7979640 114.0817220  77.3506890   5.5440980
 113.5252150  78.6989890   5.1387980 111.5046460  76.8656960   7.1163850
 111.2003530  77.7448940   7.3414210 112.4592920  76.9256750   7.1521290
 120.7916230  80.0683310   3.5057090 121.5115350  80.5638600   3.1153200
 120.5898050  79.3901200   2.8610960 116.1735030  80.1392370   9.3926090
 116.1072340  79.2188040   9.1383680 115.5440170  80.2367810  10.1070730
 107.5610190  77.7059700   8.2635210 107.2025130  78.3713550   8.8508550
 107.2664750  76.8743250   8.6347830 110.7623310  78.1643940  11.1474760
 110.4623450  78.3101120  10.2502580 111.5334550  77.6049230  11.0548150
 116.1051760  82.9612940   9.1429890 116.1196300  82.0293900   8.9248800
 115.3976860  83.0472700   9.7819660 122.3162970  79.6020280   8.4898470
 121.5911160  80.1949060   8.2927860 122.8438430  79.5943820   7.6911840
 115.5385660  84.6030510   6.2370390 116.1827880  84.8089890   6.9143810
 115.9015100  83.8418910   5.7841240 116.8117740  82.6062860   4.9547840
 117.4539970  81.9056020   5.0680010 117.3367090  83.3861300   4.7744730
 118.5855360  83.4057760   8.1583900 118.9211600  83.9924450   8.8361820
 117.6655700  83.2750470   8.3881690 106.1358760  71.1952940   8.9407310
 105.4217280  71.3949860   9.5459920 106.5553800  70.4192510   9.3122110
 106.4231350  85.1833200   9.9273840 106.5322470  84.2427940   9.7869230
 105.7711910  85.4487950   9.2787570 114.4143940  83.4549090  11.3271960
 114.0940810  82.7358330  11.8717650 113.7402300  84.1304160  11.4008020
 117.6297540  73.6875250   6.6908760 117.9978360  72.8670460   7.0188330
 116.7695740  73.7477140   7.1064410 114.5899530  76.3414840   6.9146730
 115.0884780  76.8160660   7.5798580 114.7322480  75.4178360   7.1216760
 121.7966390  72.5582800   7.7575120 121.2939990  73.2988200   8.0968930
 122.6123050  72.9466800   7.4411910 122.0913980  84.9724830   2.8790740
 122.2161400  85.7956000   3.3514550 122.9579540  84.7615560   2.5314890
 109.5631510  87.0656040   2.5507870 110.2993990  86.5171500   2.8216440
 109.9472430  87.9312050   2.4113860 108.5689790  86.2502110  11.7393450
 109.3702520  86.5714160  12.1528850 108.0541610  85.8897690  12.4613360
 117.4054420  82.3581980  11.6868860 116.7992580  82.3813580  10.9464610
 117.1008530  81.6265020  12.2236110 118.8354790  86.0862270  10.2978270
 119.7876540  86.0020290  10.2478510 118.6883010  86.7503980  10.9712060
 106.2887600  78.7375570  10.6829500 106.7926620  78.1582850  11.2545730
 105.5495020  79.0215800  11.2205870 113.3425540  80.1446560  10.2165020
 112.5771210  80.7131560  10.1319690 113.5241500  79.8522770   9.3233250
 120.4848890  81.8751890  10.7740040 121.2258360  82.2127650  10.2707500
 119.7221570  82.0443950  10.2209810 108.3210680  76.8805160  11.5779570
 108.3616020  76.5819030  12.4864800 109.1756180  77.2812770  11.4187090
 110.2616490  75.4597260   9.5454060 109.7312950  74.9688210   8.9177400
 110.9304560  75.8881460   9.0111990 119.1594550  79.9266720   9.3095250
 119.5735570  80.0811800  10.1585670 118.2245550  80.0521940   9.4721030
 119.6316720  77.2662880  11.3134400 120.2137490  76.5115200  11.2254880
 119.8078490  77.7970320  10.5365880 110.7488790  72.4259630   9.6251350
 110.6545660  71.8080380   8.9002220 110.1686180  73.1525920   9.3981260
 113.5150230  70.9832870   6.6578740 113.0667530  71.0057130   5.8124290
 112.8815430  70.5851890   7.2549040 113.9209780  79.8787200   7.2791180
 114.3397890  80.7219930   7.1067420 113.0018410  80.0159240   7.0497960
 116.2573680  77.6103380   8.6629020 116.3769890  77.0144520   9.4023860
 117.1167680  77.6473070   8.2430320 118.5961580  78.1640570   7.2391530
 118.0696800  78.6883190   6.6356670 118.9392920  78.7967960   7.8701260
 111.7717200  86.1840210   8.3948910 111.2338290  86.9086270   8.0757610
 112.0251160  85.7070550   7.6046250 113.0242450  74.1524730   9.9204840
 113.6142140  73.8440580  10.6082660 112.2062690  73.6804480  10.0764740
 117.8435880  73.7690540  10.1537860 117.1551400  73.1072080  10.0887850
 118.5641900  73.3228810  10.5986320 114.6279410  87.4191420   8.6535560
 114.5538110  88.3226560   8.9607930 113.7258250  87.1003320   8.6257630
 106.0306700  84.7466010   1.9569180 106.3609710  83.8787070   1.7247820
 106.4597700  84.9524530   2.7874140 106.5196910  85.6136600   4.6950810
 106.0827900  85.7937400   5.5274960 107.0874590  86.3711220   4.5532530
 122.1559090  85.1153600   8.9828120 121.5561080  85.1746160   8.2392040
 122.2852990  84.1758580   9.1124970 120.8410730  81.8405580   7.0804280
 120.0270570  82.2702740   7.3430070 121.2484930  82.4523990   6.4673330
 107.3897270  78.5109400   5.5943030 107.7570310  78.4236800   6.4739050
 106.8208090  77.7475950   5.4949890 122.1901130  76.9793780   8.6073500
 121.9587220  76.7506530   7.7071450 122.4505680  77.8993330   8.5618390
 106.9413270  75.4218490   9.5001450 106.0469320  75.3885250   9.8395160
 107.4810820  75.6205280  10.2652700 120.6289200  72.2050210  11.3853200
 121.5059380  72.2133610  11.7687200 120.6410040  71.4681050  10.7745550
 122.0752470  76.0579750   2.2741220 122.5989950  75.5642400   1.6431390
 122.6611890  76.1930110   3.0188790 122.2542190  76.1419620   5.7960770
 121.3044900  76.1083160   5.9105760 122.4355200  77.0519730   5.5610540
 107.4452980  69.6966820   3.8484670 108.0929170  69.1464200   3.4079830
 107.8654820  69.9509970   4.6700480 121.3405320  69.8908180   7.2054310
 121.9777540  70.5042320   7.5713500 121.4880210  69.9268840   6.2603540
 107.1984980  69.8522490   6.5909990 106.8499800  70.3086310   7.3568170
 106.8672680  68.9579620   6.6732420 108.8049350  83.0242090  10.7563180
 108.7618980  82.6535000  11.6377640 108.9360360  83.9619660  10.8965000
 112.5055380  84.5801680   6.3572900 112.2646740  84.8476240   5.4703420
 113.4458020  84.7507410   6.4123760 114.7109800  71.0434370  10.1129410
 114.6498690  71.6356200  10.8624820 115.6510180  70.9360330   9.9679670
 117.3484360  70.7004430   9.7521700 117.9624770  71.0183720   9.0902780
 117.8933920  70.2153020  10.3717560 123.7659540  86.5996060   7.1583540
 123.2717820  86.9964930   6.4410670 123.1572830  85.9745270   7.5520820
 107.8705620  69.3798690   9.8660760 108.4188610  69.1986740   9.1026870
 107.9360930  68.5892800  10.4017070 108.6437380  85.9704340   7.8760960
 108.0497700  85.8389040   8.6151000 108.6361220  85.1342480   7.4103060
 118.0892400  69.2636570   6.0790990 117.2152240  69.5971680   5.8763920
 117.9803150  68.7909750   6.9042860 118.9964380  71.4707440   7.4632710
 118.6677740  70.6559200   7.0834440 119.9446680  71.4277250   7.3398400
 121.4498990  87.2419480   4.4370280 120.9901960  87.9935290   4.0628300
 120.8211450  86.5225950   4.3785080 108.2749610  83.3362720   6.8269000
 107.5483670  82.7168010   6.7594950 108.3358760  83.7303330   5.9567080
 111.8794710  85.5507720   3.6118410 112.3959730  84.9395080   3.0866670
 112.5292090  86.0536500   4.1029420 114.6190210  86.4416210   4.4387390
 114.9068020  86.1870510   3.5620400 115.1313430  85.8893570   5.0292960
 115.8367220  70.1806410   5.0183900 115.0539010  70.6551910   5.2980660
 115.5430150  69.2761240   4.9097080 120.3888290  70.8829510   3.0632990
 120.8296380  70.8274610   2.2154590 120.1195880  71.7987520   3.1343170
 118.2246420  69.2635610   1.7683000 118.8275790  69.8355820   2.2431520
 117.4839410  69.8275050   1.5456900 114.6862570  87.3632310  11.8055590
 115.6129880  87.1276580  11.8491550 114.6713000  88.1904310  11.3241620
 111.8726180  70.0277060  11.5697470 111.5910450  70.5310660  10.8058290
 112.2545880  69.2298810  11.2039600 118.4741640  69.4430640  12.1477940
 118.3607090  69.7625250  13.0429460 119.2911380  69.8443150  11.8515220
 121.2540130  86.5902170  11.6296630 122.0465450  86.0951400  11.4222590
 121.5473280  87.2692310  12.2372240 117.3799790  58.6879620 151.4804090
 117.2993840  57.7734230 151.2095800 116.9664210  59.1846690 150.7743800
 115.5117830  60.4658640 153.3613360 114.7359930  59.9859080 153.6511930
 116.1630760  59.7864290 153.1869520 119.5325260  64.8718830 152.1412490
 119.0706790  64.1006070 152.4699660 120.3450810  64.8984900 152.6464940
 109.5084920  64.8118540 154.4347140 109.8112960  63.9216280 154.2557360
 110.2528510  65.3688760 154.2069390 107.9375610  55.7380340 148.0231510
 107.0492310  56.0796310 147.9211390 108.2216800  55.5380660 147.1312340
 105.9008620  58.3385990 153.9071210 106.4724730  57.5708190 153.9074850
 105.9010160  58.6374750 152.9977820 115.7588570  67.1576840 151.7616480
 115.1400010  67.6134340 151.1910920 116.6140350  67.3128300 151.3606180
 114.9526820  63.1415830 153.3683520 114.8835100  62.2005770 153.2072650
 115.7146680  63.2317240 153.9406090 115.9831990  55.9486210 153.5952450
 116.3596810  55.0758090 153.4826120 115.8851500  56.2844910 152.7042890
 110.1137000  54.3211840 149.0569890 110.2203750  55.2215570 149.3638650
 109.2029360  54.2729810 148.7664540 119.7656110  53.4436650 150.5280790
 120.5865730  52.9533220 150.5706270 119.7990190  54.0334310 151.2812630
 111.9544730  57.2898210 153.3895070 112.4622950  57.7879180 154.0300090
 112.4857970  56.5133410 153.2134430 116.6251920  62.0416080 149.1548390
 116.0069190  62.5065530 148.5911110 117.1375170  62.7343560 149.5717900
 120.0017590  55.3837030 153.3008330 119.2973160  55.6721920 153.8811440
 120.3629750  56.1937140 152.9407890 105.9935120  62.7272610 146.5288020
 105.6163100  63.2159710 145.7972920 106.2508190  63.3997890 147.1594550
 123.0704510  54.8291820 153.6917540 122.1229420  54.8630800 153.8232970
 123.3954500  55.6430770 154.0766900 113.6024050  51.1289000 151.9873530
 113.9099030  50.5735890 151.2709030 112.6724750  51.2633460 151.8046520
 119.1539110  66.8456290 154.2780990 119.1666270  66.4418580 153.4103250
 118.6014330  67.6203580 154.1742420 120.4484530  63.5672510 149.3671160
 120.3380860  62.6246840 149.4920580 120.4452780  63.9288150 150.2533920
 115.9904810  59.1937830 148.7233650 115.0634090  59.1275210 148.9522120
 116.1429630  60.1317960 148.6088890 115.9773890  55.4654830 145.7200810
 115.0377560  55.6268790 145.8053270 116.2957150  56.1840510 145.1736800
 120.0202100  60.7558130 149.2268900 119.4014520  60.4177680 148.5795200
 120.0026550  60.1117890 149.9348090 111.5961450  59.7202570 151.5053380
 111.1918450  59.0079820 151.0099280 111.6824570  59.3755810 152.3941420
 112.0643150  63.4070130 153.6692590 111.7671440  62.8015600 152.9900370
 113.0142970  63.4447440 153.5581950 118.1966800  59.9944940 146.2341650
 118.6360080  59.1567370 146.0879470 118.9095220  60.6274340 146.3205790
 116.3062180  64.9341010 150.2022890 116.7458090  65.6765340 149.7878280
 116.2449070  65.1767580 151.1261850 121.7783940  51.2487750 144.5482690
 121.4656600  51.3414580 145.4481760 122.5396410  51.8268780 144.4980120
 108.2966080  58.6147550 149.0060030 108.1763680  59.3409640 148.3941300
 107.9866970  57.8450460 148.5287940 107.1799080  63.4862880 151.2234850
 106.7727160  63.6277470 150.3688450 108.0712090  63.2023040 151.0206060
 118.9732360  67.9210130 147.5585900 118.8133500  67.6313070 148.4567730
 118.8079070  67.1450260 147.0231130 111.4520740  67.7008660 149.3357520
 111.2763220  66.7844200 149.1225320 110.5976480  68.0595950 149.5755320
 118.6758490  65.4297690 146.1183900 117.9823650  65.4274980 145.4586180
 119.4181350  65.0057010 145.6878070 118.2408420  67.0560400 150.1932390
 118.6965370  66.2749780 150.5071010 118.5800940  67.7667220 150.7373570
 110.7629740  51.9582620 152.3883700 110.3197890  52.7392160 152.0568220
 111.3214730  52.2812510 153.0954640 113.8788560  51.5793320 147.2689530
 113.2542740  51.5753190 147.9942840 113.7918680  50.7124280 146.8725500
 112.8005640  52.5029950 154.2473300 113.0977970  53.4092780 154.1665320
 113.3491200  52.0148730 153.6332870 110.5543960  57.0816190 150.1164950
 110.3284880  56.8653360 151.0211570 109.7736490  57.5144650 149.7710920
 117.7841720  57.0879560 148.7155600 117.1850610  57.8115360 148.5319220
 118.3321330  57.0256340 147.9332050 116.3906590  55.7243100 150.7458880
 116.7836160  56.0415300 149.9327570 116.7523440  54.8454980 150.8603400
 105.4270760  52.3143900 152.9689080 105.1383810  52.8846760 153.6814060
 106.1716520  51.8348350 153.3320310 105.6140990  56.2564020 144.1791800
 105.5315660  57.1994780 144.3206790 105.2624050  56.1138930 143.3004150
 113.4139120  54.9903050 153.2462150 113.4175180  54.5493000 152.3966690
 114.3090240  55.3120380 153.3533970 109.2641500  54.8729540 152.2056360
 108.9241550  55.3504770 152.9623410 108.5018820  54.4194660 151.8457460
 113.4759270  55.9915130 146.2368910 113.5972090  55.9501610 147.1854730
 113.0907780  56.8539280 146.0815640 112.4880770  58.3016270 145.6352210
 111.9197670  57.8534520 145.0088120 113.1969770  58.6609050 145.1017360
 106.5787580  53.7948520 151.1221030 106.2934500  53.4304190 151.9599650
 106.5166440  53.0628980 150.5084170 110.0328250  62.2974460 147.9078620
 109.2590510  61.7572080 147.7477340 110.7622880  61.7781070 147.5696380
 120.7916230  61.2939820 153.7005010 121.5115350  61.7895110 153.3101120
 120.5898050  60.6157710 153.0558880 116.2526170  52.6877780 147.8434400
 115.4390780  52.1890950 147.7679710 116.0588120  53.5276030 147.4270750
 118.9674560  57.0597430 146.1396560 119.8554180  57.3714660 145.9647900
 118.9379650  56.1869680 145.7477140 110.0765650  61.9654840 151.5457430
 110.5944320  61.1623100 151.4914320 109.6249670  61.9033980 152.3874260
 114.9635150  63.2321120 146.8184730 115.3050850  63.9763350 146.3228050
 114.1347860  63.5452240 147.1809560 121.2388830  58.3709270 145.6076420
 121.1552550  58.8023490 144.7572860 121.9583020  58.8307620 146.0403240
 122.2676080  65.2251530 148.3358550 121.6252240  64.5707150 148.6102270
 121.8806740  65.6306620 147.5599220 117.8462560  62.5536960 152.1830240
 118.1986380  61.9565090 151.5231610 116.9624890  62.2281190 152.3538490
 113.9325840  63.3134650 149.5900650 114.6196970  63.8603860 149.9708240
 113.1458260  63.8575380 149.6250260 106.0718240  58.9307470 145.0817730
 106.9413090  59.2132270 145.3653650 105.5808560  59.7443340 144.9666540
 113.2353050  60.3180680 149.2026010 113.6915830  61.1285930 149.4286200
 112.8841260  60.0003820 150.0344500 109.1364830  50.6618330 149.6748530
 109.0079460  50.6536230 150.6233450 108.3126850  51.0001420 149.3239540
 120.6573460  64.1167990 144.8734900 120.4311040  63.3998430 145.4659540
 120.2669660  63.8680430 144.0356650 106.4389490  68.1434850 145.6479360
 106.7987130  68.7424190 144.9936630 106.2981830  68.6894740 146.4214390
 120.2389710  62.0339930 146.5349060 119.9511410  62.4952620 147.3226940
 121.0341880  61.5737700 146.8033280 112.4558110  65.5266050 146.4653030
 112.4468210  66.2595740 145.8497540 111.5356470  65.2797630 146.5579990
 108.0564750  60.7480940 147.2099790 107.4492700  61.4879840 147.2195090
 108.5314100  60.8380300 146.3837990 120.9959570  53.8688700 147.6944240
 120.3672730  53.9734370 146.9802470 120.5011490  54.0885480 148.4838120
 115.4417710  65.5894290 145.1278220 115.5429690  65.3858280 144.1980200
 114.5419450  65.3352570 145.3326000 112.9643600  56.1474650 149.1102120
 112.2559750  56.6160990 149.5515730 113.2488080  55.4896660 149.7447310
 116.9959030  52.8725310 150.5497910 116.8726810  52.8911440 149.6007420
 117.9443590  52.9204250 150.6696310 114.0835820  68.1080610 149.8225890
 114.3377320  68.0702000 148.9005260 113.1348300  67.9813940 149.8154140
 111.1678620  54.4559730 146.4852830 112.0169150  54.8929880 146.4193020
 110.8009890  54.7679990 147.3124890 120.0888400  59.0272490 151.3984400
 119.1478540  59.0422720 151.5732090 120.4032470  58.2408450 151.8444700
 110.0670040  60.7092090 144.9588360 110.8333310  60.5973450 145.5213790
 110.1444730  60.0130060 144.3065130 108.7616800  58.1417160 145.6421250
 108.8420390  57.1944670 145.7538650 109.6536550  58.4724040 145.7481910
 122.0913980  66.1981340 153.0738660 122.2161400  67.0212510 153.5462470
 122.9579540  65.9872070 152.7262810 109.5631510  68.2912550 152.7455790
 110.2993990  67.7428010 153.0164360 109.9472430  69.1568560 152.6061780
 106.4476990  64.3586120 148.6197300 105.5216770  64.6007260 148.6102710
 106.9133420  65.1860380 148.4982050 112.6733820  67.4642860 144.5681360
 113.4662430  67.7531690 144.1163150 112.1538170  67.0335030 143.8893840
 121.7263990  66.6912990 145.9918100 121.4405500  66.2778130 145.1772280
 121.5283540  67.6200700 145.8718620 113.1911220  62.6846270 144.4323710
 113.0861860  62.0698620 145.1585090 113.0235440  62.1612160 143.6486720
 116.4313950  61.7466300 145.0365700 115.8824050  62.1935600 145.6808440
 117.0533210  61.2415550 145.5603370 112.0989070  60.7057220 146.9331000
 112.5205490  60.5397090 147.7762390 112.2239910  59.8957450 146.4386140
 114.6116710  59.7294830 144.1808100 115.1322370  59.0143850 143.8149250
 115.2585110  60.3680700 144.4808610 110.9947970  56.7790450 143.8789160
 110.7937030  55.9157810 144.2402500 110.8240020  56.6923810 142.9410760
 118.4736280  51.5898680 146.4076040 118.7538570  50.7466580 146.7635460
 117.7002010  51.8221790 146.9214790 109.7930770  53.8791070 143.8667040
 110.0956670  53.8858500 142.9586190 110.5325360  53.5288930 144.3634700
 113.0115700  52.8225690 144.8523240 112.6637700  52.1449680 144.2725690
 113.2128470  52.3615200 145.6666630 115.1764740  67.8106440 146.4709840
 116.0715530  68.1491410 146.4928600 115.2082370  67.0885850 145.8434120
 108.8160900  63.1833490 144.6996840 109.2535770  63.7263160 145.3554420
 109.3008630  62.3580440 144.7093180 106.0306700  65.9722520 152.1517100
 106.3609710  65.1043580 151.9195740 106.4597700  66.1781040 152.9822060
 110.6268620  64.3031530 149.8119070 110.3264160  64.1796500 150.7122980
 110.5206110  63.4440120 149.4034800 123.3960540  64.0827930 144.5145750
 122.5653500  64.1504580 144.9852980 123.5732370  64.9732050 144.2112610
 122.8517000  60.8275410 147.0179950 123.6135910  61.3972060 147.1239640
 122.8671370  60.2602610 147.7888260 106.3521340  59.3513340 151.2487610
 105.6970180  59.0824980 150.6047310 107.1899290  59.2417820 150.7989590
 123.8576970  61.6825510 151.8621880 124.2285800  60.8992830 151.4557850
 124.4978900  62.3714610 151.6839180 122.9036170  61.1209780 144.1752470
 123.1785010  62.0288660 144.0471690 122.7146910  61.0572310 145.1114460
 119.3011780  54.1454630 145.4706100 119.7196660  53.9585610 144.6302760
 118.9947840  53.2933680 145.7809030 122.8001510  59.0578770 149.1681900
 122.4245110  58.2906700 148.7363190 122.0704630  59.4401470 149.6556830
 105.5659420  56.5612270 147.1912940 104.6623500  56.8242470 147.0164600
 106.0500040  56.8323440 146.4112900 122.0752470  57.2836260 152.4689140
 122.5989950  56.7898910 151.8379310 122.6611890  57.4186620 153.2136710
 108.1086630  55.6177810 145.1007320 108.8178330  55.1961030 144.6154600
 107.3926570  55.6853040 144.4690670 107.7560790  51.6717140 144.1409970
 108.4788920  52.2126080 144.4591190 108.0285310  51.3980560 143.2651510
 121.5652440  56.5409610 148.4081550 122.0611560  56.3080480 149.1930430
 121.3668510  55.7021450 147.9919190 122.9939600  55.1770560 150.9419230
 122.8838880  55.0226600 151.8801500 123.7547190  54.6491500 150.6994640
 123.8829870  53.0078480 144.1825370 124.8079180  52.8759660 143.9743660
 123.8605660  53.0871300 145.1361820 123.9568360  53.7789140 146.8082080
 123.1619860  53.7134260 147.3374990 124.1611640  54.7139780 146.7967430
 120.8986780  67.8180690 150.8020470 121.4945850  67.4965260 150.1254890
 121.1564930  67.3452510 151.5933740 111.8794710  66.7764230 153.8066330
 112.3959730  66.1651590 153.2814590 112.5292090  67.2793010 154.2977340
 120.3888290  52.1086020 153.2580910 120.8296380  52.0531120 152.4102510
 120.1195880  53.0244030 153.3291090 122.2526860  51.7401260 151.2689730
 122.1915260  50.7962480 151.1220750 123.0318890  51.8481350 151.8143190
 106.5579610  67.8793620 150.2313680 106.3901650  67.2464300 150.9295570
 105.6914120  68.0853020 149.8807870 107.1807630  51.7110400 147.7345540
 107.9386990  51.8239280 147.1609570 106.7184800  52.5479600 147.6888970
 113.7221440  53.8249670 150.7247850 112.9095950  53.4506560 150.3843730
 114.2263080  53.0694750 151.0269040 118.2246420  50.4892120 151.9630920
 118.8275790  51.0612330 152.4379440 117.4839410  51.0531560 151.7404820
 121.3681020  50.8913680 147.2371200 121.5631650  51.7897130 147.5038630
 120.5810890  50.6600760 147.7304150 108.1642310  66.5726850 147.6763820
 107.6389930  66.9534880 146.9725780 108.0886890  67.1977620 148.3973530
 109.5532780  52.2374450 146.2747510 110.0825540  51.4504250 146.1455460
 110.1861100  52.9165640 146.5083040 111.7470620  51.9749590 149.3292900
 111.1173360  51.2736900 149.4963030 111.2075760  52.7353720 149.1126060
 122.9207630  68.1314390 148.9977760 123.0959820  67.4452130 148.3538680
 122.2229200  68.6561440 148.6054430 110.7635280  68.5209230 146.5513070
 111.4954100  68.2368510 146.0036960 111.0228950  68.2822510 147.4412450
 109.9250070  64.6373960 146.5559400 109.2958950  65.1059060 147.1045230
 110.0397900  63.7923180 146.9905590 117.3799790  58.6879620 132.7060600
 117.2993840  57.7734230 132.4352310 116.9664210  59.1846690 132.0000310
 115.5117830  60.4658640 134.5869870 114.7359930  59.9859080 134.8768440
 116.1630760  59.7864290 134.4126030 119.5325260  64.8718830 133.3669000
 119.0706790  64.1006070 133.6956170 120.3450810  64.8984900 133.8721450
 109.5084920  64.8118540 135.6603650 109.8112960  63.9216280 135.4813870
 110.2528510  65.3688760 135.4325900 115.7588570  67.1576840 132.9872990
 115.1400010  67.6134340 132.4167430 116.6140350  67.3128300 132.5862690
 114.9526820  63.1415830 134.5940030 114.8835100  62.2005770 134.4329160
 115.7146680  63.2317240 135.1662600 107.1433490  53.7470350 136.9196650
 106.9636330  52.8496100 137.1999410 106.7413570  54.2942220 137.5943600
 115.9831990  55.9486210 134.8208960 116.3596810  55.0758090 134.7082630
 115.8851500  56.2844910 133.9299400 119.7656110  53.4436650 131.7537300
 120.5865730  52.9533220 131.7962780 119.7990190  54.0334310 132.5069140
 107.7620160  56.2430850 135.5278990 108.4430270  56.5069220 136.1466390
 107.4468210  55.4031720 135.8617000 111.9544730  57.2898210 134.6151580
 112.4622950  57.7879180 135.2556600 112.4857970  56.5133410 134.4390940
 124.0555660  55.4603400 138.3180930 123.3507830  55.8485110 137.7996040
 124.3213580  56.1553690 138.9201860 110.2380830  51.9296770 138.8815000
 110.2399270  52.4469160 138.0760900 109.4085140  51.4526950 138.8584930
 116.6251920  62.0416080 130.3804900 116.0069190  62.5065530 129.8167620
 117.1375170  62.7343560 130.7974410 111.4883680  61.5691950 137.0588500
 111.1553060  62.1960870 137.7009570 111.6650360  62.0953830 136.2790170
 120.0017590  55.3837030 134.5264840 119.2973160  55.6721920 135.1067950
 120.3629750  56.1937140 134.1664400 109.9196160  53.6406730 136.8885450
 110.2612970  54.4848780 136.5939320 108.9811970  53.7890470 137.0050790
 110.7002780  63.5372750 138.8737680 111.3176780  64.2123830 138.5922130
 109.8395900  63.9460730 138.7825180 121.6180370  65.0012160 136.7892320
 120.9343890  65.6711270 136.7808990 122.1574660  65.1992810 136.0237180
 123.0704510  54.8291820 134.9174050 122.1229420  54.8630800 135.0489480
 123.3954500  55.6430770 135.3023410 113.6024050  51.1289000 133.2130040
 113.9099030  50.5735890 132.4965540 112.6724750  51.2633460 133.0303030
 119.1539110  66.8456290 135.5037500 119.1666270  66.4418580 134.6359760
 118.6014330  67.6203580 135.3998930 120.4484530  63.5672510 130.5927670
 120.3380860  62.6246840 130.7177090 120.4452780  63.9288150 131.4790430
 118.5524550  61.7486130 136.8320110 118.9693340  61.5346240 135.9973570
 119.2764370  62.0058920 137.4028730 115.9904810  59.1937830 129.9490160
 115.0634090  59.1275210 130.1778630 116.1429630  60.1317960 129.8345400
 115.9773890  55.4654830 126.9457320 115.0377560  55.6268790 127.0309780
 116.2957150  56.1840510 126.3993310 122.4986650  60.1473350 136.9236350
 121.6705280  60.2166440 136.4486480 123.0937130  60.7327660 136.4552180
 120.0202100  60.7558130 130.4525410 119.4014520  60.4177680 129.8051710
 120.0026550  60.1117890 131.1604600 119.4628660  56.9342670 137.8691220
 119.0499840  57.7596380 138.1231210 118.7304610  56.3487710 137.6767580
 111.5961450  59.7202570 132.7309890 111.1918450  59.0079820 132.2355790
 111.6824570  59.3755810 133.6197930 112.0643150  63.4070130 134.8949100
 111.7671440  62.8015600 134.2156880 113.0142970  63.4447440 134.7838460
 110.3090070  56.4945780 136.5108930 110.8604660  56.6041120 135.7362180
 110.8233580  56.8683380 137.2264160 120.1528760  66.9802000 138.5572200
 119.6759320  67.7874190 138.3644810 119.4690550  66.3280330 138.7098410
 111.1561580  63.1451820 141.5456900 110.2590110  63.3691790 141.7930300
 111.1814450  63.2686760 140.5968300 118.1966800  59.9944940 127.4598160
 118.6360080  59.1567370 127.3135980 118.9095220  60.6274340 127.5462300
 109.9832800  60.0165140 140.1214270 109.8440570  60.8887940 140.4901670
 109.1014160  59.6737950 139.9762210 116.3062180  64.9341010 131.4279400
 116.7458090  65.6765340 131.0134790 116.2449070  65.1767580 132.3518360
 111.7813150  65.9586840 142.3299420 111.7528580  66.3629790 141.4627850
 111.6178120  65.0297200 142.1671020 121.7783940  51.2487750 125.7739200
 121.4656600  51.3414580 126.6738270 122.5396410  51.8268780 125.7236630
 123.7327970  66.7413940 143.6263590 124.2087690  67.2196830 144.3052670
 124.3535130  66.6731430 142.9009090 123.1361220  63.9326790 140.7863600
 123.2624280  63.6938670 139.8680780 123.1782600  63.1011330 141.2585680
 116.9977960  67.6354790 139.3558410 117.5122630  67.5462800 140.1580840
 116.1547040  67.9814490 139.6486320 118.9732360  67.9210130 128.7842410
 118.8133500  67.6313070 129.6824240 118.8079070  67.1450260 128.2487640
 118.6758490  65.4297690 127.3440410 117.9823650  65.4274980 126.6842690
 119.4181350  65.0057010 126.9134580 118.2408420  67.0560400 131.4188900
 118.6965370  66.2749780 131.7327520 118.5800940  67.7667220 131.9630080
 122.9885230  55.9859250 141.7513340 122.3729500  56.4938920 141.2228800
 122.6681650  55.0857580 141.6939280 105.9910970  62.8276860 138.5779640
 106.1542010  62.3582220 137.7599010 106.4563420  62.3200420 139.2428480
 110.7629740  51.9582620 133.6140210 110.3197890  52.7392160 133.2824730
 111.3214730  52.2812510 134.3211150 115.0499550  54.8251140 139.2175530
 114.5878920  55.0334160 140.0295470 114.6477660  54.0110490 138.9146200
 120.0504060  56.0460090 140.3472190 119.1997650  55.7465840 140.6681260
 119.8905850  56.2902100 139.4356010 117.1453770  57.5461840 142.4470980
 117.4707180  56.7125590 142.1073210 117.9334100  58.0690360 142.5949310
 113.8788560  51.5793320 128.4946040 113.2542740  51.5753190 129.2199350
 113.7918680  50.7124280 128.0982010 112.8005640  52.5029950 135.4729810
 113.0977970  53.4092780 135.3921830 113.3491200  52.0148730 134.8589380
 117.7841720  57.0879560 129.9412110 117.1850610  57.8115360 129.7575730
 118.3321330  57.0256340 129.1588560 112.9943170  57.9801770 142.0081730
 112.8986770  57.0396500 141.8582130 113.8375150  58.2016840 141.6129800
 116.3906590  55.7243100 131.9715390 116.7836160  56.0415300 131.1584080
 116.7523440  54.8454980 132.0859910 108.1253710  54.3915440 140.1615510
 107.7317100  55.2390650 140.3688290 107.4372110  53.7541810 140.3524150
 114.6998760  54.4750410 143.2312250 114.0097080  54.2822610 143.8658340
 115.4431060  54.7585050 143.7636550 105.4270760  52.3143900 134.1945590
 105.1383810  52.8846760 134.9070570 106.1716520  51.8348350 134.5576820
 105.6140990  56.2564020 125.4048310 105.5315660  57.1994780 125.5463300
 105.2624050  56.1138930 124.5260660 116.9761730  58.3148850 136.0666170
 116.2442850  58.8235660 136.4156270 116.5786070  57.4978830 135.7654950
 113.4139120  54.9903050 134.4718660 113.4175180  54.5493000 133.6223200
 114.3090240  55.3120380 134.5790480 109.2641500  54.8729540 133.4312870
 108.9241550  55.3504770 134.1879920 108.5018820  54.4194660 133.0713970
 113.4759270  55.9915130 127.4625420 113.5972090  55.9501610 128.4111240
 113.0907780  56.8539280 127.3072150 117.4387640  53.7682530 135.4789110
 117.4560380  54.2191180 136.3230960 117.1903220  52.8688170 135.6922550
 112.4880770  58.3016270 126.8608720 111.9197670  57.8534520 126.2344630
 113.1969770  58.6609050 126.3273870 120.8658390  51.1814710 141.3175490
 121.1904160  50.4504370 141.8433470 120.9014900  50.8628350 140.4156480
 107.5649950  62.2028290 140.7375450 107.1804740  61.5621960 141.3358410
 107.8762140  62.9064410 141.3070180 113.7147090  59.0504830 136.2184070
 114.0817220  58.5763400 136.9645410 113.5252150  59.9246400 136.5592410
 106.5787580  53.7948520 132.3477540 106.2934500  53.4304190 133.1856160
 106.5166440  53.0628980 131.7340680 111.5046460  58.0913470 138.5368280
 111.2003530  58.9705450 138.7618640 112.4592920  58.1513260 138.5725720
 120.7916230  61.2939820 134.9261520 121.5115350  61.7895110 134.5357630
 120.5898050  60.6157710 134.2815390 116.2526170  52.6877780 129.0690910
 115.4390780  52.1890950 128.9936220 116.0588120  53.5276030 128.6527260
 116.1735030  61.3648880 140.8130520 116.1072340  60.4444550 140.5588110
 115.5440170  61.4624320 141.5275160 118.9674560  57.0597430 127.3653070
 119.8554180  57.3714660 127.1904410 118.9379650  56.1869680 126.9733650
 107.5610190  58.9316210 139.6839640 107.2025130  59.5970060 140.2712980
 107.2664750  58.0999760 140.0552260 110.7623310  59.3900450 142.5679190
 110.4623450  59.5357630 141.6707010 111.5334550  58.8305740 142.4752580
 116.1051760  64.1869450 140.5634320 116.1196300  63.2550410 140.3453230
 115.3976860  64.2729210 141.2024090 121.2388830  58.3709270 126.8332930
 121.1552550  58.8023490 125.9829370 121.9583020  58.8307620 127.2659750
 122.3162970  60.8276790 139.9102900 121.5911160  61.4205570 139.7132290
 122.8438430  60.8200330 139.1116270 122.2676080  65.2251530 129.5615060
 121.6252240  64.5707150 129.8358780 121.8806740  65.6306620 128.7855730
 117.8462560  62.5536960 133.4086750 118.1986380  61.9565090 132.7488120
 116.9624890  62.2281190 133.5795000 113.2353050  60.3180680 130.4282520
 113.6915830  61.1285930 130.6542710 112.8841260  60.0003820 131.2601010
 115.5385660  65.8287020 137.6574820 116.1827880  66.0346400 138.3348240
 115.9015100  65.0675420 137.2045670 116.8117740  63.8319370 136.3752270
 117.4539970  63.1312530 136.4884440 117.3367090  64.6117810 136.1949160
 120.6573460  64.1167990 126.0991410 120.4311040  63.3998430 126.6916050
 120.2669660  63.8680430 125.2613160 118.5855360  64.6314270 139.5788330
 118.9211600  65.2180960 140.2566250 117.6655700  64.5006980 139.8086120
 106.1358760  52.4209450 140.3611740 105.4217280  52.6206370 140.9664350
 106.5553800  51.6449020 140.7326540 120.2389710  62.0339930 127.7605570
 119.9511410  62.4952620 128.5483450 121.0341880  61.5737700 128.0289790
 106.4231350  66.4089710 141.3478270 106.5322470  65.4684450 141.2073660
 105.7711910  66.6744460 140.6992000 114.4143940  64.6805600 142.7476390
 114.0940810  63.9614840 143.2922080 113.7402300  65.3560670 142.8212450
 117.6297540  54.9131760 138.1113190 117.9978360  54.0926970 138.4392760
 116.7695740  54.9733650 138.5268840 120.9959570  53.8688700 128.9200750
 120.3672730  53.9734370 128.2058980 120.5011490  54.0885480 129.7094630
 112.9643600  56.1474650 130.3358630 112.2559750  56.6160990 130.7772240
 113.2488080  55.4896660 130.9703820 114.5899530  57.5671350 138.3351160
 115.0884780  58.0417170 139.0003010 114.7322480  56.6434870 138.5421190
 116.9959030  52.8725310 131.7754420 116.8726810  52.8911440 130.8263930
 117.9443590  52.9204250 131.8952820 121.7966390  53.7839310 139.1779550
 121.2939990  54.5244710 139.5173360 122.6123050  54.1723310 138.8616340
 120.0888400  59.0272490 132.6240910 119.1478540  59.0422720 132.7988600
 120.4032470  58.2408450 133.0701210 122.0913980  66.1981340 134.2995170
 122.2161400  67.0212510 134.7718980 122.9579540  65.9872070 133.9519320
 109.5631510  68.2912550 133.9712300 110.2993990  67.7428010 134.2420870
 109.9472430  69.1568560 133.8318290 108.5689790  67.4758620 143.1597880
 109.3702520  67.7970670 143.5733280 108.0541610  67.1154200 143.8817790
 117.4054420  63.5838490 143.1073290 116.7992580  63.6070090 142.3669040
 117.1008530  62.8521530 143.6440540 118.8354790  67.3118780 141.7182700
 119.7876540  67.2276800 141.6682940 118.6883010  67.9760490 142.3916490
 121.7263990  66.6912990 127.2174610 121.4405500  66.2778130 126.4028790
 121.5283540  67.6200700 127.0975130 106.2887600  59.9632080 142.1033930
 106.7926620  59.3839360 142.6750160 105.5495020  60.2472310 142.6410300
 113.3425540  61.3703070 141.6369450 112.5771210  61.9388070 141.5524120
 113.5241500  61.0779280 140.7437680 116.4313950  61.7466300 126.2622210
 115.8824050  62.1935600 126.9064950 117.0533210  61.2415550 126.7859880
 120.4848890  63.1008400 142.1944470 121.2258360  63.4384160 141.6911930
 119.7221570  63.2700460 141.6414240 108.3210680  58.1061670 142.9984000
 108.3616020  57.8075540 143.9069230 109.1756180  58.5069280 142.8391520
 112.0989070  60.7057220 128.1587510 112.5205490  60.5397090 129.0018900
 112.2239910  59.8957450 127.6642650 110.2616490  56.6853770 140.9658490
 109.7312950  56.1944720 140.3381830 110.9304560  57.1137970 140.4316420
 119.1594550  61.1523230 140.7299680 119.5735570  61.3068310 141.5790100
 118.2245550  61.2778450 140.8925460 119.6316720  58.4919390 142.7338830
 120.2137490  57.7371710 142.6459310 119.8078490  59.0226830 141.9570310
 110.7488790  53.6516140 141.0455780 110.6545660  53.0336890 140.3206650
 110.1686180  54.3782430 140.8185690 113.5150230  52.2089380 138.0783170
 113.0667530  52.2313640 137.2328720 112.8815430  51.8108400 138.6753470
 113.9209780  61.1043710 138.6995610 114.3397890  61.9476440 138.5271850
 113.0018410  61.2415750 138.4702390 116.2573680  58.8359890 140.0833450
 116.3769890  58.2401030 140.8228290 117.1167680  58.8729580 139.6634750
 118.5961580  59.3897080 138.6595960 118.0696800  59.9139700 138.0561100
 118.9392920  60.0224470 139.2905690 110.9947970  56.7790450 125.1045670
 110.7937030  55.9157810 125.4659010 110.8240020  56.6923810 124.1667270
 111.7717200  67.4096720 139.8153340 111.2338290  68.1342780 139.4962040
 112.0251160  66.9327060 139.0250680 113.0242450  55.3781240 141.3409270
 113.6142140  55.0697090 142.0287090 112.2062690  54.9060990 141.4969170
 117.8435880  54.9947050 141.5742290 117.1551400  54.3328590 141.5092280
 118.5641900  54.5485320 142.0190750 118.4736280  51.5898680 127.6332550
 118.7538570  50.7466580 127.9891970 117.7002010  51.8221790 128.1471300
 109.7930770  53.8791070 125.0923550 110.0956670  53.8858500 124.1842700
 110.5325360  53.5288930 125.5891210 114.6279410  68.6447930 140.0739990
 114.5538110  69.5483070 140.3812360 113.7258250  68.3259830 140.0462060
 113.0115700  52.8225690 126.0779750 112.6637700  52.1449680 125.4982200
 113.2128470  52.3615200 126.8923140 106.0306700  65.9722520 133.3773610
 106.3609710  65.1043580 133.1452250 106.4597700  66.1781040 134.2078570
 106.5196910  66.8393110 136.1155240 106.0827900  67.0193910 136.9479390
 107.0874590  67.5967730 135.9736960 122.1559090  66.3410110 140.4032550
 121.5561080  66.4002670 139.6596470 122.2852990  65.4015090 140.5329400
 123.3960540  64.0827930 125.7402260 122.5653500  64.1504580 126.2109490
 123.5732370  64.9732050 125.4369120 122.8517000  60.8275410 128.2436460
 123.6135910  61.3972060 128.3496150 122.8671370  60.2602610 129.0144770
 123.8576970  61.6825510 133.0878390 124.2285800  60.8992830 132.6814360
 124.4978900  62.3714610 132.9095690 120.8410730  63.0662090 138.5008710
 120.0270570  63.4959250 138.7634500 121.2484930  63.6780500 137.8877760
 122.9036170  61.1209780 125.4008980 123.1785010  62.0288660 125.2728200
 122.7146910  61.0572310 126.3370970 119.3011780  54.1454630 126.6962610
 119.7196660  53.9585610 125.8559270 118.9947840  53.2933680 127.0065540
 122.8001510  59.0578770 130.3938410 122.4245110  58.2906700 129.9619700
 122.0704630  59.4401470 130.8813340 122.1901130  58.2050290 140.0277930
 121.9587220  57.9763040 139.1275880 122.4505680  59.1249840 139.9822820
 106.9413270  56.6475000 140.9205880 106.0469320  56.6141760 141.2599590
 107.4810820  56.8461790 141.6857130 120.6289200  53.4306720 142.8057630
 121.5059380  53.4390120 143.1891630 120.6410040  52.6937560 142.1949980
 122.0752470  57.2836260 133.6945650 122.5989950  56.7898910 133.0635820
 122.6611890  57.4186620 134.4393220 122.2542190  57.3676130 137.2165200
 121.3044900  57.3339670 137.3310190 122.4355200  58.2776240 136.9814970
 121.5652440  56.5409610 129.6338060 122.0611560  56.3080480 130.4186940
 121.3668510  55.7021450 129.2175700 107.4452980  50.9223330 135.2689100
 108.0929170  50.3720710 134.8284260 107.8654820  51.1766480 136.0904910
 122.9939600  55.1770560 132.1675740 122.8838880  55.0226600 133.1058010
 123.7547190  54.6491500 131.9251150 121.3405320  51.1164690 138.6258740
 121.9777540  51.7298830 138.9917930 121.4880210  51.1525350 137.6807970
 123.8829870  53.0078480 125.4081880 124.8079180  52.8759660 125.2000170
 123.8605660  53.0871300 126.3618330 123.9568360  53.7789140 128.0338590
 123.1619860  53.7134260 128.5631500 124.1611640  54.7139780 128.0223940
 120.8986780  67.8180690 132.0276980 121.4945850  67.4965260 131.3511400
 121.1564930  67.3452510 132.8190250 107.1984980  51.0779000 138.0114420
 106.8499800  51.5342820 138.7772600 106.8672680  50.1836130 138.0936850
 108.8049350  64.2498600 142.1767610 108.7618980  63.8791510 143.0582070
 108.9360360  65.1876170 142.3169430 112.5055380  65.8058190 137.7777330
 112.2646740  66.0732750 136.8907850 113.4458020  65.9763920 137.8328190
 114.7109800  52.2690880 141.5333840 114.6498690  52.8612710 142.2829250
 115.6510180  52.1616840 141.3884100 117.3484360  51.9260940 141.1726130
 117.9624770  52.2440230 140.5107210 117.8933920  51.4409530 141.7921990
 123.7659540  67.8252570 138.5787970 123.2717820  68.2221440 137.8615100
 123.1572830  67.2001780 138.9725250 107.8705620  50.6055200 141.2865190
 108.4188610  50.4243250 140.5231300 107.9360930  49.8149310 141.8221500
 108.6437380  67.1960850 139.2965390 108.0497700  67.0645550 140.0355430
 108.6361220  66.3598990 138.8307490 118.0892400  50.4893080 137.4995420
 117.2152240  50.8228190 137.2968350 117.9803150  50.0166260 138.3247290
 118.9964380  52.6963950 138.8837140 118.6677740  51.8815710 138.5038870
 119.9446680  52.6533760 138.7602830 121.4498990  68.4675990 135.8574710
 120.9901960  69.2191800 135.4832730 120.8211450  67.7482460 135.7989510
 108.2749610  64.5619230 138.2473430 107.5483670  63.9424520 138.1799380
 108.3358760  64.9559840 137.3771510 111.8794710  66.7764230 135.0322840
 112.3959730  66.1651590 134.5071100 112.5292090  67.2793010 135.5233850
 114.6190210  67.6672720 135.8591820 114.9068020  67.4127020 134.9824830
 115.1313430  67.1150080 136.4497390 115.8367220  51.4062920 136.4388330
 115.0539010  51.8808420 136.7185090 115.5430150  50.5017750 136.3301510
 120.3888290  52.1086020 134.4837420 120.8296380  52.0531120 133.6359020
 120.1195880  53.0244030 134.5547600 122.2526860  51.7401260 132.4946240
 122.1915260  50.7962480 132.3477260 123.0318890  51.8481350 133.0399700
 113.7221440  53.8249670 131.9504360 112.9095950  53.4506560 131.6100240
 114.2263080  53.0694750 132.2525550 118.2246420  50.4892120 133.1887430
 118.8275790  51.0612330 133.6635950 117.4839410  51.0531560 132.9661330
 121.3681020  50.8913680 128.4627710 121.5631650  51.7897130 128.7295140
 120.5810890  50.6600760 128.9560660 114.6862570  68.5888820 143.2260020
 115.6129880  68.3533090 143.2695980 114.6713000  69.4160820 142.7446050
 122.9207630  68.1314390 130.2234270 123.0959820  67.4452130 129.5795190
 122.2229200  68.6561440 129.8310940 111.8726180  51.2533570 142.9901900
 111.5910450  51.7567170 142.2262720 112.2545880  50.4555320 142.6244030
 118.4741640  50.6687150 143.5682370 118.3607090  50.9881760 144.4633890
 119.2911380  51.0699660 143.2719650 121.2540130  67.8158680 143.0501060
 122.0465450  67.3207910 142.8427020 121.5473280  68.4948820 143.6576670
 117.3799790  58.6879620 113.9317110 117.2993840  57.7734230 113.6608820
 116.9664210  59.1846690 113.2256820 119.5325260  64.8718830 114.5925510
 119.0706790  64.1006070 114.9212680 120.3450810  64.8984900 115.0977960
 107.9375610  55.7380340 110.4744530 107.0492310  56.0796310 110.3724410
 108.2216800  55.5380660 109.5825360 115.9831990  55.9486210 116.0465470
 116.3596810  55.0758090 115.9339140 115.8851500  56.2844910 115.1555910
 110.1137000  54.3211840 111.5082910 110.2203750  55.2215570 111.8151670
 109.2029360  54.2729810 111.2177560 124.0555660  55.4603400 119.5437440
 123.3507830  55.8485110 119.0252550 124.3213580  56.1553690 120.1458370
 116.6251920  62.0416080 111.6061410 116.0069190  62.5065530 111.0424130
 117.1375170  62.7343560 112.0230920 110.7002780  63.5372750 120.0994190
 111.3176780  64.2123830 119.8178640 109.8395900  63.9460730 120.0081690
 121.6180370  65.0012160 118.0148830 120.9343890  65.6711270 118.0065500
 122.1574660  65.1992810 117.2493690 123.0704510  54.8291820 116.1430560
 122.1229420  54.8630800 116.2745990 123.3954500  55.6430770 116.5279920
 119.1539110  66.8456290 116.7294010 119.1666270  66.4418580 115.8616270
 118.6014330  67.6203580 116.6255440 120.4484530  63.5672510 111.8184180
 120.3380860  62.6246840 111.9433600 120.4452780  63.9288150 112.7046940
 115.9904810  59.1937830 111.1746670 115.0634090  59.1275210 111.4035140
 116.1429630  60.1317960 111.0601910 115.9773890  55.4654830 108.1713830
 115.0377560  55.6268790 108.2566290 116.2957150  56.1840510 107.6249820
 122.4986650  60.1473350 118.1492860 121.6705280  60.2166440 117.6742990
 123.0937130  60.7327660 117.6808690 120.0202100  60.7558130 111.6781920
 119.4014520  60.4177680 111.0308220 120.0026550  60.1117890 112.3861110
 118.1966800  59.9944940 108.6854670 118.6360080  59.1567370 108.5392490
 118.9095220  60.6274340 108.7718810 123.7327970  66.7413940 124.8520100
 124.2087690  67.2196830 125.5309180 124.3535130  66.6731430 124.1265600
 123.1361220  63.9326790 122.0120110 123.2624280  63.6938670 121.0937290
 123.1782600  63.1011330 122.4842190 118.9732360  67.9210130 110.0098920
 118.8133500  67.6313070 110.9080750 118.8079070  67.1450260 109.4744150
 118.2408420  67.0560400 112.6445410 118.6965370  66.2749780 112.9584030
 118.5800940  67.7667220 113.1886590 122.9885230  55.9859250 122.9769850
 122.3729500  56.4938920 122.4485310 122.6681650  55.0857580 122.9195790
 110.7629740  51.9582620 114.8396720 110.3197890  52.7392160 114.5081240
 111.3214730  52.2812510 115.5467660 120.0504060  56.0460090 121.5728700
 119.1997650  55.7465840 121.8937770 119.8905850  56.2902100 120.6612520
 117.7841720  57.0879560 111.1668620 117.1850610  57.8115360 110.9832240
 118.3321330  57.0256340 110.3845070 114.6998760  54.4750410 124.4568760
 114.0097080  54.2822610 125.0914850 115.4431060  54.7585050 124.9893060
 113.4139120  54.9903050 115.6975170 113.4175180  54.5493000 114.8479710
 114.3090240  55.3120380 115.8046990 112.4880770  58.3016270 108.0865230
 111.9197670  57.8534520 107.4601140 113.1969770  58.6609050 107.5530380
 120.8658390  51.1814710 122.5432000 121.1904160  50.4504370 123.0689980
 120.9014900  50.8628350 121.6412990 107.5649950  62.2028290 121.9631960
 107.1804740  61.5621960 122.5614920 107.8762140  62.9064410 122.5326690
 106.5787580  53.7948520 113.5734050 106.2934500  53.4304190 114.4112670
 106.5166440  53.0628980 112.9597190 120.7916230  61.2939820 116.1518030
 121.5115350  61.7895110 115.7614140 120.5898050  60.6157710 115.5071900
 116.2526170  52.6877780 110.2947420 115.4390780  52.1890950 110.2192730
 116.0588120  53.5276030 109.8783770 118.9674560  57.0597430 108.5909580
 119.8554180  57.3714660 108.4160920 118.9379650  56.1869680 108.1990160
 107.5610190  58.9316210 120.9096150 107.2025130  59.5970060 121.4969490
 107.2664750  58.0999760 121.2808770 122.3162970  60.8276790 121.1359410
 121.5911160  61.4205570 120.9388800 122.8438430  60.8200330 120.3372780
 117.8462560  62.5536960 114.6343260 118.1986380  61.9565090 113.9744630
 116.9624890  62.2281190 114.8051510 109.1364830  50.6618330 112.1261550
 109.0079460  50.6536230 113.0746470 108.3126850  51.0001420 111.7752560
 116.8117740  63.8319370 117.6008780 117.4539970  63.1312530 117.7140950
 117.3367090  64.6117810 117.4205670 106.4231350  66.4089710 122.5734780
 106.5322470  65.4684450 122.4330170 105.7711910  66.6744460 121.9248510
 117.6297540  54.9131760 119.3369700 117.9978360  54.0926970 119.6649270
 116.7695740  54.9733650 119.7525350 112.9643600  56.1474650 111.5615140
 112.2559750  56.6160990 112.0028750 113.2488080  55.4896660 112.1960330
 121.7966390  53.7839310 120.4036060 121.2939990  54.5244710 120.7429870
 122.6123050  54.1723310 120.0872850 120.0888400  59.0272490 113.8497420
 119.1478540  59.0422720 114.0245110 120.4032470  58.2408450 114.2957720
 110.0670040  60.7092090 107.4101380 110.8333310  60.5973450 107.9726810
 110.1444730  60.0130060 106.7578150 106.2887600  59.9632080 123.3290440
 106.7926620  59.3839360 123.9006670 105.5495020  60.2472310 123.8666810
 113.1911220  62.6846270 106.8836730 113.0861860  62.0698620 107.6098110
 113.0235440  62.1612160 106.0999740 116.4313950  61.7466300 107.4878720
 115.8824050  62.1935600 108.1321460 117.0533210  61.2415550 108.0116390
 120.4848890  63.1008400 123.4200980 121.2258360  63.4384160 122.9168440
 119.7221570  63.2700460 122.8670750 108.3210680  58.1061670 124.2240510
 108.3616020  57.8075540 125.1325740 109.1756180  58.5069280 124.0648030
 112.0989070  60.7057220 109.3844020 112.5205490  60.5397090 110.2275410
 112.2239910  59.8957450 108.8899160 114.6116710  59.7294830 106.6321120
 115.1322370  59.0143850 106.2662270 115.2585110  60.3680700 106.9321630
 119.6316720  58.4919390 123.9595340 120.2137490  57.7371710 123.8715820
 119.8078490  59.0226830 123.1826820 110.9947970  56.7790450 106.3302180
 110.7937030  55.9157810 106.6915520 110.8240020  56.6923810 105.3923780
 117.8435880  54.9947050 122.7998800 117.1551400  54.3328590 122.7348790
 118.5641900  54.5485320 123.2447260 118.4736280  51.5898680 108.8589060
 118.7538570  50.7466580 109.2148480 117.7002010  51.8221790 109.3727810
 108.8160900  63.1833490 107.1509860 109.2535770  63.7263160 107.8067440
 109.3008630  62.3580440 107.1606200 122.1559090  66.3410110 121.6289060
 121.5561080  66.4002670 120.8852980 122.2852990  65.4015090 121.7585910
 123.8576970  61.6825510 114.3134900 124.2285800  60.8992830 113.9070870
 124.4978900  62.3714610 114.1352200 120.8410730  63.0662090 119.7265220
 120.0270570  63.4959250 119.9891010 121.2484930  63.6780500 119.1134270
 119.3011780  54.1454630 107.9219120 119.7196660  53.9585610 107.0815780
 118.9947840  53.2933680 108.2322050 107.3897270  59.7365910 118.2403970
 107.7570310  59.6493310 119.1199990 106.8208090  58.9732460 118.1410830
 122.1901130  58.2050290 121.2534440 121.9587220  57.9763040 120.3532390
 122.4505680  59.1249840 121.2079330 106.9413270  56.6475000 122.1462390
 106.0469320  56.6141760 122.4856100 107.4810820  56.8461790 122.9113640
 120.6289200  53.4306720 124.0314140 121.5059380  53.4390120 124.4148140
 120.6410040  52.6937560 123.4206490 105.5659420  56.5612270 109.6425960
 104.6623500  56.8242470 109.4677620 106.0500040  56.8323440 108.8625920
 122.0752470  57.2836260 114.9202160 122.5989950  56.7898910 114.2892330
 122.6611890  57.4186620 115.6649730 122.2542190  57.3676130 118.4421710
 121.3044900  57.3339670 118.5566700 122.4355200  58.2776240 118.2071480
 107.7560790  51.6717140 106.5922990 108.4788920  52.2126080 106.9104210
 108.0285310  51.3980560 105.7164530 122.9939600  55.1770560 113.3932250
 122.8838880  55.0226600 114.3314520 123.7547190  54.6491500 113.1507660
 121.3405320  51.1164690 119.8515250 121.9777540  51.7298830 120.2174440
 121.4880210  51.1525350 118.9064480 123.8829870  53.0078480 106.6338390
 124.8079180  52.8759660 106.4256680 123.8605660  53.0871300 107.5874840
 108.8049350  64.2498600 123.4024120 108.7618980  63.8791510 124.2838580
 108.9360360  65.1876170 123.5425940 114.7109800  52.2690880 122.7590350
 114.6498690  52.8612710 123.5085760 115.6510180  52.1616840 122.6140610
 117.3484360  51.9260940 122.3982640 117.9624770  52.2440230 121.7363720
 117.8933920  51.4409530 123.0178500 118.0892400  50.4893080 118.7251930
 117.2152240  50.8228190 118.5224860 117.9803150  50.0166260 119.5503800
 118.9964380  52.6963950 120.1093650 118.6677740  51.8815710 119.7295380
 119.9446680  52.6533760 119.9859340 108.2749610  64.5619230 119.4729940
 107.5483670  63.9424520 119.4055890 108.3358760  64.9559840 118.6028020
 115.8367220  51.4062920 117.6644840 115.0539010  51.8808420 117.9441600
 115.5430150  50.5017750 117.5558020 113.7221440  53.8249670 113.1760870
 112.9095950  53.4506560 112.8356750 114.2263080  53.0694750 113.4782060
 121.3681020  50.8913680 109.6884220 121.5631650  51.7897130 109.9551650
 120.5810890  50.6600760 110.1817170 122.9207630  68.1314390 111.4490780
 123.0959820  67.4452130 110.8051700 122.2229200  68.6561440 111.0567450
 110.7635280  68.5209230 109.0026090 111.4954100  68.2368510 108.4549980
 111.0228950  68.2822510 109.8925470 118.4741640  50.6687150 124.7938880
 118.3607090  50.9881760 125.6890400 119.2911380  51.0699660 124.4976160
 121.2540130  67.8158680 124.2757570 122.0465450  67.3207910 124.0683530
 121.5473280  68.4948820 124.8833180 117.3799790  58.6879620  95.1573620
 117.2993840  57.7734230  94.8865330 116.9664210  59.1846690  94.4513330
 115.5117830  60.4658640  97.0382890 114.7359930  59.9859080  97.3281460
 116.1630760  59.7864290  96.8639050 119.5325260  64.8718830  95.8182020
 119.0706790  64.1006070  96.1469190 120.3450810  64.8984900  96.3234470
 107.9375610  55.7380340  91.7001040 107.0492310  56.0796310  91.5980920
 108.2216800  55.5380660  90.8081870 115.7588570  67.1576840  95.4386010
 115.1400010  67.6134340  94.8680450 116.6140350  67.3128300  95.0375710
 107.1433490  53.7470350  99.3709670 106.9636330  52.8496100  99.6512430
 106.7413570  54.2942220 100.0456620 110.1137000  54.3211840  92.7339420
 110.2203750  55.2215570  93.0408180 109.2029360  54.2729810  92.4434070
 119.7656110  53.4436650  94.2050320 120.5865730  52.9533220  94.2475800
 119.7990190  54.0334310  94.9582160 107.7620160  56.2430850  97.9792010
 108.4430270  56.5069220  98.5979410 107.4468210  55.4031720  98.3130020
 111.9544730  57.2898210  97.0664600 112.4622950  57.7879180  97.7069620
 112.4857970  56.5133410  96.8903960 124.0555660  55.4603400 100.7693950
 123.3507830  55.8485110 100.2509060 124.3213580  56.1553690 101.3714880
 116.6251920  62.0416080  92.8317920 116.0069190  62.5065530  92.2680640
 117.1375170  62.7343560  93.2487430 111.4883680  61.5691950  99.5101520
 111.1553060  62.1960870 100.1522590 111.6650360  62.0953830  98.7303190
 105.9935120  62.7272610  90.2057550 105.6163100  63.2159710  89.4742450
 106.2508190  63.3997890  90.8364080 121.6180370  65.0012160  99.2405340
 120.9343890  65.6711270  99.2322010 122.1574660  65.1992810  98.4750200
 119.1539110  66.8456290  97.9550520 119.1666270  66.4418580  97.0872780
 118.6014330  67.6203580  97.8511950 120.4484530  63.5672510  93.0440690
 120.3380860  62.6246840  93.1690110 120.4452780  63.9288150  93.9303450
 115.9904810  59.1937830  92.4003180 115.0634090  59.1275210  92.6291650
 116.1429630  60.1317960  92.2858420 115.9773890  55.4654830  89.3970340
 115.0377560  55.6268790  89.4822800 116.2957150  56.1840510  88.8506330
 122.4986650  60.1473350  99.3749370 121.6705280  60.2166440  98.8999500
 123.0937130  60.7327660  98.9065200 120.0202100  60.7558130  92.9038430
 119.4014520  60.4177680  92.2564730 120.0026550  60.1117890  93.6117620
 111.5961450  59.7202570  95.1822910 111.1918450  59.0079820  94.6868810
 111.6824570  59.3755810  96.0710950 110.3090070  56.4945780  98.9621950
 110.8604660  56.6041120  98.1875200 110.8233580  56.8683380  99.6777180
 120.1528760  66.9802000 101.0085220 119.6759320  67.7874190 100.8157830
 119.4690550  66.3280330 101.1611430 118.1966800  59.9944940  89.9111180
 118.6360080  59.1567370  89.7649000 118.9095220  60.6274340  89.9975320
 111.7813150  65.9586840 104.7812440 111.7528580  66.3629790 103.9140870
 111.6178120  65.0297200 104.6184040 123.1361220  63.9326790 103.2376620
 123.2624280  63.6938670 102.3193800 123.1782600  63.1011330 103.7098700
 116.9977960  67.6354790 101.8071430 117.5122630  67.5462800 102.6093860
 116.1547040  67.9814490 102.0999340 118.2408420  67.0560400  93.8701920
 118.6965370  66.2749780  94.1840540 118.5800940  67.7667220  94.4143100
 122.9885230  55.9859250 104.2026360 122.3729500  56.4938920 103.6741820
 122.6681650  55.0857580 104.1452300 115.0499550  54.8251140 101.6688550
 114.5878920  55.0334160 102.4808490 114.6477660  54.0110490 101.3659220
 120.0504060  56.0460090 102.7985210 119.1997650  55.7465840 103.1194280
 119.8905850  56.2902100 101.8869030 117.1453770  57.5461840 104.8984000
 117.4707180  56.7125590 104.5586230 117.9334100  58.0690360 105.0462330
 110.5543960  57.0816190  93.7934480 110.3284880  56.8653360  94.6981100
 109.7736490  57.5144650  93.4480450 117.7841720  57.0879560  92.3925130
 117.1850610  57.8115360  92.2088750 118.3321330  57.0256340  91.6101580
 112.9943170  57.9801770 104.4594750 112.8986770  57.0396500 104.3095150
 113.8375150  58.2016840 104.0642820 108.1253710  54.3915440 102.6128530
 107.7317100  55.2390650 102.8201310 107.4372110  53.7541810 102.8037170
 105.4270760  52.3143900  96.6458610 105.1383810  52.8846760  97.3583590
 106.1716520  51.8348350  97.0089840 105.6140990  56.2564020  87.8561330
 105.5315660  57.1994780  87.9976320 105.2624050  56.1138930  86.9773680
 109.2641500  54.8729540  95.8825890 108.9241550  55.3504770  96.6392940
 108.5018820  54.4194660  95.5226990 113.4759270  55.9915130  89.9138440
 113.5972090  55.9501610  90.8624260 113.0907780  56.8539280  89.7585170
 112.4880770  58.3016270  89.3121740 111.9197670  57.8534520  88.6857650
 113.1969770  58.6609050  88.7786890 113.7147090  59.0504830  98.6697090
 114.0817220  58.5763400  99.4158430 113.5252150  59.9246400  99.0105430
 106.5787580  53.7948520  94.7990560 106.2934500  53.4304190  95.6369180
 106.5166440  53.0628980  94.1853700 111.5046460  58.0913470 100.9881300
 111.2003530  58.9705450 101.2131660 112.4592920  58.1513260 101.0238740
 120.7916230  61.2939820  97.3774540 121.5115350  61.7895110  96.9870650
 120.5898050  60.6157710  96.7328410 116.2526170  52.6877780  91.5203930
 115.4390780  52.1890950  91.4449240 116.0588120  53.5276030  91.1040280
 118.9674560  57.0597430  89.8166090 119.8554180  57.3714660  89.6417430
 118.9379650  56.1869680  89.4246670 114.9635150  63.2321120  90.4954260
 115.3050850  63.9763350  89.9997580 114.1347860  63.5452240  90.8579090
 110.7623310  59.3900450 105.0192210 110.4623450  59.5357630 104.1220030
 111.5334550  58.8305740 104.9265600 121.2388830  58.3709270  89.2845950
 121.1552550  58.8023490  88.4342390 121.9583020  58.8307620  89.7172770
 122.3162970  60.8276790 102.3615920 121.5911160  61.4205570 102.1645310
 122.8438430  60.8200330 101.5629290 117.8462560  62.5536960  95.8599770
 118.1986380  61.9565090  95.2001140 116.9624890  62.2281190  96.0308020
 113.2353050  60.3180680  92.8795540 113.6915830  61.1285930  93.1055730
 112.8841260  60.0003820  93.7114030 115.5385660  65.8287020 100.1087840
 116.1827880  66.0346400 100.7861260 115.9015100  65.0675420  99.6558690
 116.8117740  63.8319370  98.8265290 117.4539970  63.1312530  98.9397460
 117.3367090  64.6117810  98.6462180 106.4389490  68.1434850  89.3248890
 106.7987130  68.7424190  88.6706160 106.2981830  68.6894740  90.0983920
 106.1358760  52.4209450 102.8124760 105.4217280  52.6206370 103.4177370
 106.5553800  51.6449020 103.1839560 120.9959570  53.8688700  91.3713770
 120.3672730  53.9734370  90.6572000 120.5011490  54.0885480  92.1607650
 112.9643600  56.1474650  92.7871650 112.2559750  56.6160990  93.2285260
 113.2488080  55.4896660  93.4216840 114.5899530  57.5671350 100.7864180
 115.0884780  58.0417170 101.4516030 114.7322480  56.6434870 100.9934210
 111.1678620  54.4559730  90.1622360 112.0169150  54.8929880  90.0962550
 110.8009890  54.7679990  90.9894420 110.0670040  60.7092090  88.6357890
 110.8333310  60.5973450  89.1983320 110.1444730  60.0130060  87.9834660
 122.0913980  66.1981340  96.7508190 122.2161400  67.0212510  97.2232000
 122.9579540  65.9872070  96.4032340 118.8354790  67.3118780 104.1695720
 119.7876540  67.2276800 104.1195960 118.6883010  67.9760490 104.8429510
 113.1911220  62.6846270  88.1093240 113.0861860  62.0698620  88.8354620
 113.0235440  62.1612160  87.3256250 116.4313950  61.7466300  88.7135230
 115.8824050  62.1935600  89.3577970 117.0533210  61.2415550  89.2372900
 112.0989070  60.7057220  90.6100530 112.5205490  60.5397090  91.4531920
 112.2239910  59.8957450  90.1155670 110.2616490  56.6853770 103.4171510
 109.7312950  56.1944720 102.7894850 110.9304560  57.1137970 102.8829440
 114.6116710  59.7294830  87.8577630 115.1322370  59.0143850  87.4918780
 115.2585110  60.3680700  88.1578140 110.7488790  53.6516140 103.4968800
 110.6545660  53.0336890 102.7719670 110.1686180  54.3782430 103.2698710
 110.9947970  56.7790450  87.5558690 110.7937030  55.9157810  87.9172030
 110.8240020  56.6923810  86.6180290 111.7717200  67.4096720 102.2666360
 111.2338290  68.1342780 101.9475060 112.0251160  66.9327060 101.4763700
 113.0242450  55.3781240 103.7922290 113.6142140  55.0697090 104.4800110
 112.2062690  54.9060990 103.9482190 117.8435880  54.9947050 104.0255310
 117.1551400  54.3328590 103.9605300 118.5641900  54.5485320 104.4703770
 118.4736280  51.5898680  90.0845570 118.7538570  50.7466580  90.4404990
 117.7002010  51.8221790  90.5984320 109.7930770  53.8791070  87.5436570
 110.0956670  53.8858500  86.6355720 110.5325360  53.5288930  88.0404230
 114.6279410  68.6447930 102.5253010 114.5538110  69.5483070 102.8325380
 113.7258250  68.3259830 102.4975080 113.0115700  52.8225690  88.5292770
 112.6637700  52.1449680  87.9495220 113.2128470  52.3615200  89.3436160
 108.8160900  63.1833490  88.3766370 109.2535770  63.7263160  89.0323950
 109.3008630  62.3580440  88.3862710 122.1559090  66.3410110 102.8545570
 121.5561080  66.4002670 102.1109490 122.2852990  65.4015090 102.9842420
 122.8517000  60.8275410  90.6949480 123.6135910  61.3972060  90.8009170
 122.8671370  60.2602610  91.4657790 123.8576970  61.6825510  95.5391410
 124.2285800  60.8992830  95.1327380 124.4978900  62.3714610  95.3608710
 120.8410730  63.0662090 100.9521730 120.0270570  63.4959250 101.2147520
 121.2484930  63.6780500 100.3390780 119.3011780  54.1454630  89.1475630
 119.7196660  53.9585610  88.3072290 118.9947840  53.2933680  89.4578560
 122.8001510  59.0578770  92.8451430 122.4245110  58.2906700  92.4132720
 122.0704630  59.4401470  93.3326360 122.1901130  58.2050290 102.4790950
 121.9587220  57.9763040 101.5788900 122.4505680  59.1249840 102.4335840
 120.6289200  53.4306720 105.2570650 121.5059380  53.4390120 105.6404650
 120.6410040  52.6937560 104.6463000 108.1086630  55.6177810  88.7776850
 108.8178330  55.1961030  88.2924130 107.3926570  55.6853040  88.1460200
 107.7560790  51.6717140  87.8179500 108.4788920  52.2126080  88.1360720
 108.0285310  51.3980560  86.9421040 121.5652440  56.5409610  92.0851080
 122.0611560  56.3080480  92.8699960 121.3668510  55.7021450  91.6688720
 107.4452980  50.9223330  97.7202120 108.0929170  50.3720710  97.2797280
 107.8654820  51.1766480  98.5417930 122.9939600  55.1770560  94.6188760
 122.8838880  55.0226600  95.5571030 123.7547190  54.6491500  94.3764170
 123.9568360  53.7789140  90.4851610 123.1619860  53.7134260  91.0144520
 124.1611640  54.7139780  90.4736960 120.8986780  67.8180690  94.4790000
 121.4945850  67.4965260  93.8024420 121.1564930  67.3452510  95.2703270
 107.1984980  51.0779000 100.4627440 106.8499800  51.5342820 101.2285620
 106.8672680  50.1836130 100.5449870 114.7109800  52.2690880 103.9846860
 114.6498690  52.8612710 104.7342270 115.6510180  52.1616840 103.8397120
 117.3484360  51.9260940 103.6239150 117.9624770  52.2440230 102.9620230
 117.8933920  51.4409530 104.2435010 123.7659540  67.8252570 101.0300990
 123.2717820  68.2221440 100.3128120 123.1572830  67.2001780 101.4238270
 107.8705620  50.6055200 103.7378210 108.4188610  50.4243250 102.9744320
 107.9360930  49.8149310 104.2734520 121.4498990  68.4675990  98.3087730
 120.9901960  69.2191800  97.9345750 120.8211450  67.7482460  98.2502530
 107.1807630  51.7110400  91.4115070 107.9386990  51.8239280  90.8379100
 106.7184800  52.5479600  91.3658500 108.1642310  66.5726850  91.3533350
 107.6389930  66.9534880  90.6495310 108.0886890  67.1977620  92.0743060
 109.5532780  52.2374450  89.9517040 110.0825540  51.4504250  89.8224990
 110.1861100  52.9165640  90.1852570 114.6862570  68.5888820 105.6773040
 115.6129880  68.3533090 105.7209000 114.6713000  69.4160820 105.1959070
 122.9207630  68.1314390  92.6747290 123.0959820  67.4452130  92.0308210
 122.2229200  68.6561440  92.2823960 110.7635280  68.5209230  90.2282600
 111.4954100  68.2368510  89.6806490 111.0228950  68.2822510  91.1181980
 109.9250070  64.6373960  90.2328930 109.2958950  65.1059060  90.7814760
 110.0397900  63.7923180  90.6675120 118.4741640  50.6687150 106.0195390
 118.3607090  50.9881760 106.9146910 119.2911380  51.0699660 105.7232670
 107.9375610  55.7380340  72.9257550 107.0492310  56.0796310  72.8237430
 108.2216800  55.5380660  72.0338380 124.0555660  55.4603400  81.9950460
 123.3507830  55.8485110  81.4765570 124.3213580  56.1553690  82.5971390
 110.2380830  51.9296770  82.5584530 110.2399270  52.4469160  81.7530430
 109.4085140  51.4526950  82.5354460 109.9196160  53.6406730  80.5654980
 110.2612970  54.4848780  80.2708850 108.9811970  53.7890470  80.6820320
 121.6180370  65.0012160  80.4661850 120.9343890  65.6711270  80.4578520
 122.1574660  65.1992810  79.7006710 113.6024050  51.1289000  76.8899570
 113.9099030  50.5735890  76.1735070 112.6724750  51.2633460  76.7072560
 118.5524550  61.7486130  80.5089640 118.9693340  61.5346240  79.6743100
 119.2764370  62.0058920  81.0798260 122.4986650  60.1473350  80.6005880
 121.6705280  60.2166440  80.1256010 123.0937130  60.7327660  80.1321710
 119.4628660  56.9342670  81.5460750 119.0499840  57.7596380  81.8000740
 118.7304610  56.3487710  81.3537110 111.1561580  63.1451820  85.2226430
 110.2590110  63.3691790  85.4699830 111.1814450  63.2686760  84.2737830
 109.9832800  60.0165140  83.7983800 109.8440570  60.8887940  84.1671200
 109.1014160  59.6737950  83.6531740 105.9351450  61.7862690  79.7154710
 106.0131870  61.9211460  78.7710430 106.5493130  61.0778580  79.9082830
 111.4520740  67.7008660  74.2383560 111.2763220  66.7844200  74.0251360
 110.5976480  68.0595950  74.4781360 122.9885230  55.9859250  85.4282870
 122.3729500  56.4938920  84.8998330 122.6681650  55.0857580  85.3708810
 105.9910970  62.8276860  82.2549170 106.1542010  62.3582220  81.4368540
 106.4563420  62.3200420  82.9198010 115.0499550  54.8251140  82.8945060
 114.5878920  55.0334160  83.7065000 114.6477660  54.0110490  82.5915730
 120.0504060  56.0460090  84.0241720 119.1997650  55.7465840  84.3450790
 119.8905850  56.2902100  83.1125540 117.1453770  57.5461840  86.1240510
 117.4707180  56.7125590  85.7842740 117.9334100  58.0690360  86.2718840
 117.7841720  57.0879560  73.6181640 117.1850610  57.8115360  73.4345260
 118.3321330  57.0256340  72.8358090 112.9943170  57.9801770  85.6851260
 112.8986770  57.0396500  85.5351660 113.8375150  58.2016840  85.2899330
 108.1253710  54.3915440  83.8385040 107.7317100  55.2390650  84.0457820
 107.4372110  53.7541810  84.0293680 114.6998760  54.4750410  86.9081780
 114.0097080  54.2822610  87.5427870 115.4431060  54.7585050  87.4406080
 105.6140990  56.2564020  69.0817840 105.5315660  57.1994780  69.2232830
 105.2624050  56.1138930  68.2030190 107.5649950  62.2028290  84.4144980
 107.1804740  61.5621960  85.0127940 107.8762140  62.9064410  84.9839710
 106.5787580  53.7948520  76.0247070 106.2934500  53.4304190  76.8625690
 106.5166440  53.0628980  75.4110210 111.5046460  58.0913470  82.2137810
 111.2003530  58.9705450  82.4388170 112.4592920  58.1513260  82.2495250
 116.1735030  61.3648880  84.4900050 116.1072340  60.4444550  84.2357640
 115.5440170  61.4624320  85.2044690 114.9635150  63.2321120  71.7210770
 115.3050850  63.9763350  71.2254090 114.1347860  63.5452240  72.0835600
 107.5610190  58.9316210  83.3609170 107.2025130  59.5970060  83.9482510
 107.2664750  58.0999760  83.7321790 110.7623310  59.3900450  86.2448720
 110.4623450  59.5357630  85.3476540 111.5334550  58.8305740  86.1522110
 122.3162970  60.8276790  83.5872430 121.5911160  61.4205570  83.3901820
 122.8438430  60.8200330  82.7885800 122.2676080  65.2251530  73.2384590
 121.6252240  64.5707150  73.5128310 121.8806740  65.6306620  72.4625260
 106.4231350  66.4089710  85.0247800 106.5322470  65.4684450  84.8843190
 105.7711910  66.6744460  84.3761530 112.4558110  65.5266050  71.3679070
 112.4468210  66.2595740  70.7523580 111.5356470  65.2797630  71.4606030
 117.6297540  54.9131760  81.7882720 117.9978360  54.0926970  82.1162290
 116.7695740  54.9733650  82.2038370 120.9959570  53.8688700  72.5970280
 120.3672730  53.9734370  71.8828510 120.5011490  54.0885480  73.3864160
 121.7966390  53.7839310  82.8549080 121.2939990  54.5244710  83.1942890
 122.6123050  54.1723310  82.5385870 110.0670040  60.7092090  69.8614400
 110.8333310  60.5973450  70.4239830 110.1444730  60.0130060  69.2091170
 109.5631510  68.2912550  77.6481830 110.2993990  67.7428010  77.9190400
 109.9472430  69.1568560  77.5087820 112.6733820  67.4642860  69.4707400
 113.4662430  67.7531690  69.0189190 112.1538170  67.0335030  68.7919880
 106.2887600  59.9632080  85.7803460 106.7926620  59.3839360  86.3519690
 105.5495020  60.2472310  86.3179830 113.3425540  61.3703070  85.3138980
 112.5771210  61.9388070  85.2293650 113.5241500  61.0779280  84.4207210
 108.3210680  58.1061670  86.6753530 108.3616020  57.8075540  87.5838760
 109.1756180  58.5069280  86.5161050 110.2616490  56.6853770  84.6428020
 109.7312950  56.1944720  84.0151360 110.9304560  57.1137970  84.1085950
 119.1594550  61.1523230  84.4069210 119.5735570  61.3068310  85.2559630
 118.2245550  61.2778450  84.5694990 119.6316720  58.4919390  86.4108360
 120.2137490  57.7371710  86.3228840 119.8078490  59.0226830  85.6339840
 110.7488790  53.6516140  84.7225310 110.6545660  53.0336890  83.9976180
 110.1686180  54.3782430  84.4955220 113.5150230  52.2089380  81.7552700
 113.0667530  52.2313640  80.9098250 112.8815430  51.8108400  82.3523000
 116.2573680  58.8359890  83.7602980 116.3769890  58.2401030  84.4997820
 117.1167680  58.8729580  83.3404280 118.5961580  59.3897080  82.3365490
 118.0696800  59.9139700  81.7330630 118.9392920  60.0224470  82.9675220
 113.0242450  55.3781240  85.0178800 113.6142140  55.0697090  85.7056620
 112.2062690  54.9060990  85.1738700 117.8435880  54.9947050  85.2511820
 117.1551400  54.3328590  85.1861810 118.5641900  54.5485320  85.6960280
 106.0306700  65.9722520  77.0543140 106.3609710  65.1043580  76.8221780
 106.4597700  66.1781040  77.8848100 110.6268620  64.3031530  74.7145110
 110.3264160  64.1796500  75.6149020 110.5206110  63.4440120  74.3060840
 106.5196910  66.8393110  79.7924770 106.0827900  67.0193910  80.6248920
 107.0874590  67.5967730  79.6506490 123.8576970  61.6825510  76.7647920
 124.2285800  60.8992830  76.3583890 124.4978900  62.3714610  76.5865220
 120.8410730  63.0662090  82.1778240 120.0270570  63.4959250  82.4404030
 121.2484930  63.6780500  81.5647290 107.3897270  59.7365910  80.6916990
 107.7570310  59.6493310  81.5713010 106.8208090  58.9732460  80.5923850
 122.1901130  58.2050290  83.7047460 121.9587220  57.9763040  82.8045410
 122.4505680  59.1249840  83.6592350 106.9413270  56.6475000  84.5975410
 106.0469320  56.6141760  84.9369120 107.4810820  56.8461790  85.3626660
 120.6289200  53.4306720  86.4827160 121.5059380  53.4390120  86.8661160
 120.6410040  52.6937560  85.8719510 105.5659420  56.5612270  72.0938980
 104.6623500  56.8242470  71.9190640 106.0500040  56.8323440  71.3138940
 122.0752470  57.2836260  77.3715180 122.5989950  56.7898910  76.7405350
 122.6611890  57.4186620  78.1162750 122.2542190  57.3676130  80.8934730
 121.3044900  57.3339670  81.0079720 122.4355200  58.2776240  80.6584500
 107.7560790  51.6717140  69.0436010 108.4788920  52.2126080  69.3617230
 108.0285310  51.3980560  68.1677550 121.5652440  56.5409610  73.3107590
 122.0611560  56.3080480  74.0956470 121.3668510  55.7021450  72.8945230
 112.5055380  65.8058190  81.4546860 112.2646740  66.0732750  80.5677380
 113.4458020  65.9763920  81.5097720 114.7109800  52.2690880  85.2103370
 114.6498690  52.8612710  85.9598780 115.6510180  52.1616840  85.0653630
 117.3484360  51.9260940  84.8495660 117.9624770  52.2440230  84.1876740
 117.8933920  51.4409530  85.4691520 123.7659540  67.8252570  82.2557500
 123.2717820  68.2221440  81.5384630 123.1572830  67.2001780  82.6494780
 107.8705620  50.6055200  84.9634720 108.4188610  50.4243250  84.2000830
 107.9360930  49.8149310  85.4991030 108.6437380  67.1960850  82.9734920
 108.0497700  67.0645550  83.7124960 108.6361220  66.3598990  82.5077020
 118.0892400  50.4893080  81.1764950 117.2152240  50.8228190  80.9737880
 117.9803150  50.0166260  82.0016820 118.9964380  52.6963950  82.5606670
 118.6677740  51.8815710  82.1808400 119.9446680  52.6533760  82.4372360
 108.2749610  64.5619230  81.9242960 107.5483670  63.9424520  81.8568910
 108.3358760  64.9559840  81.0541040 111.8794710  66.7764230  78.7092370
 112.3959730  66.1651590  78.1840630 112.5292090  67.2793010  79.2003380
 115.8367220  51.4062920  80.1157860 115.0539010  51.8808420  80.3954620
 115.5430150  50.5017750  80.0071040 111.8726180  51.2533570  86.6671430
 111.5910450  51.7567170  85.9032250 112.2545880  50.4555320  86.3013560
 110.7635280  68.5209230  71.4539110 111.4954100  68.2368510  70.9063000
 111.0228950  68.2822510  72.3438490 115.5117830  60.4658640  59.4895910
 114.7359930  59.9859080  59.7794480 116.1630760  59.7864290  59.3152070
 107.9375610  55.7380340  54.1514060 107.0492310  56.0796310  54.0493940
 108.2216800  55.5380660  53.2594890 105.9008620  58.3385990  60.0353760
 106.4724730  57.5708190  60.0357400 105.9010160  58.6374750  59.1260370
 107.1433490  53.7470350  61.8222690 106.9636330  52.8496100  62.1025450
 106.7413570  54.2942220  62.4969640 119.7656110  53.4436650  56.6563340
 120.5865730  52.9533220  56.6988820 119.7990190  54.0334310  57.4095180
 107.7620160  56.2430850  60.4305030 108.4430270  56.5069220  61.0492430
 107.4468210  55.4031720  60.7643040 110.2380830  51.9296770  63.7841040
 110.2399270  52.4469160  62.9786940 109.4085140  51.4526950  63.7610970
 109.9196160  53.6406730  61.7911490 110.2612970  54.4848780  61.4965360
 108.9811970  53.7890470  61.9076830 105.9935120  62.7272610  52.6570570
 105.6163100  63.2159710  51.9255470 106.2508190  63.3997890  53.2877100
 121.6180370  65.0012160  61.6918360 120.9343890  65.6711270  61.6835030
 122.1574660  65.1992810  60.9263220 118.5524550  61.7486130  61.7346150
 118.9693340  61.5346240  60.8999610 119.2764370  62.0058920  62.3054770
 122.4986650  60.1473350  61.8262390 121.6705280  60.2166440  61.3512520
 123.0937130  60.7327660  61.3578220 111.5961450  59.7202570  57.6335930
 111.1918450  59.0079820  57.1381830 111.6824570  59.3755810  58.5223970
 110.3090070  56.4945780  61.4134970 110.8604660  56.6041120  60.6388220
 110.8233580  56.8683380  62.1290200 120.1528760  66.9802000  63.4598240
 119.6759320  67.7874190  63.2670850 119.4690550  66.3280330  63.6124450
 111.7813150  65.9586840  67.2325460 111.7528580  66.3629790  66.3653890
 111.6178120  65.0297200  67.0697060 108.2966080  58.6147550  55.1342580
 108.1763680  59.3409640  54.5223850 107.9866970  57.8450460  54.6570490
 105.9351450  61.7862690  60.9411220 106.0131870  61.9211460  59.9966940
 106.5493130  61.0778580  61.1339340 107.1799080  63.4862880  57.3517400
 106.7727160  63.6277470  56.4971000 108.0712090  63.2023040  57.1488610
 116.9977960  67.6354790  64.2584450 117.5122630  67.5462800  65.0606880
 116.1547040  67.9814490  64.5512360 111.4520740  67.7008660  55.4640070
 111.2763220  66.7844200  55.2507870 110.5976480  68.0595950  55.7037870
 120.0504060  56.0460090  65.2498230 119.1997650  55.7465840  65.5707300
 119.8905850  56.2902100  64.3382050 110.5543960  57.0816190  56.2447500
 110.3284880  56.8653360  57.1494120 109.7736490  57.5144650  55.8993470
 112.9943170  57.9801770  66.9107770 112.8986770  57.0396500  66.7608170
 113.8375150  58.2016840  66.5155840 108.1253710  54.3915440  65.0641550
 107.7317100  55.2390650  65.2714330 107.4372110  53.7541810  65.2550190
 105.4270760  52.3143900  59.0971630 105.1383810  52.8846760  59.8096610
 106.1716520  51.8348350  59.4602860 105.6140990  56.2564020  50.3074350
 105.5315660  57.1994780  50.4489340 105.2624050  56.1138930  49.4286700
 116.9761730  58.3148850  60.9692210 116.2442850  58.8235660  61.3182310
 116.5786070  57.4978830  60.6680990 109.2641500  54.8729540  58.3338910
 108.9241550  55.3504770  59.0905960 108.5018820  54.4194660  57.9740010
 112.4880770  58.3016270  51.7634760 111.9197670  57.8534520  51.1370670
 113.1969770  58.6609050  51.2299910 106.5787580  53.7948520  57.2503580
 106.2934500  53.4304190  58.0882200 106.5166440  53.0628980  56.6366720
 110.0328250  62.2974460  54.0361170 109.2590510  61.7572080  53.8759890
 110.7622880  61.7781070  53.6978930 120.7916230  61.2939820  59.8287560
 121.5115350  61.7895110  59.4383670 120.5898050  60.6157710  59.1841430
 116.2526170  52.6877780  53.9716950 115.4390780  52.1890950  53.8962260
 116.0588120  53.5276030  53.5553300 110.0765650  61.9654840  57.6739980
 110.5944320  61.1623100  57.6196870 109.6249670  61.9033980  58.5156810
 110.7623310  59.3900450  67.4705230 110.4623450  59.5357630  66.5733050
 111.5334550  58.8305740  67.3778620 122.3162970  60.8276790  64.8128940
 121.5911160  61.4205570  64.6158330 122.8438430  60.8200330  64.0142310
 117.8462560  62.5536960  58.3112790 118.1986380  61.9565090  57.6514160
 116.9624890  62.2281190  58.4821040 113.9325840  63.3134650  55.7183200
 114.6196970  63.8603860  56.0990790 113.1458260  63.8575380  55.7532810
 113.2353050  60.3180680  55.3308560 113.6915830  61.1285930  55.5568750
 112.8841260  60.0003820  56.1627050 106.1358760  52.4209450  65.2637780
 105.4217280  52.6206370  65.8690390 106.5553800  51.6449020  65.6352580
 112.4558110  65.5266050  52.5935580 112.4468210  66.2595740  51.9780090
 111.5356470  65.2797630  52.6862540 108.0564750  60.7480940  53.3382340
 107.4492700  61.4879840  53.3477640 108.5314100  60.8380300  52.5120540
 115.4417710  65.5894290  51.2560770 115.5429690  65.3858280  50.3262750
 114.5419450  65.3352570  51.4608550 112.9643600  56.1474650  55.2384670
 112.2559750  56.6160990  55.6798280 113.2488080  55.4896660  55.8729860
 114.5899530  57.5671350  63.2377200 115.0884780  58.0417170  63.9029050
 114.7322480  56.6434870  63.4447230 108.7616800  58.1417160  51.7703800
 108.8420390  57.1944670  51.8821200 109.6536550  58.4724040  51.8764460
 109.5631510  68.2912550  58.8738340 110.2993990  67.7428010  59.1446910
 109.9472430  69.1568560  58.7344330 106.4476990  64.3586120  54.7479850
 105.5216770  64.6007260  54.7385260 106.9133420  65.1860380  54.6264600
 112.6733820  67.4642860  50.6963910 113.4662430  67.7531690  50.2445700
 112.1538170  67.0335030  50.0176390 121.7263990  66.6912990  52.1200650
 121.4405500  66.2778130  51.3054830 121.5283540  67.6200700  52.0001170
 106.2887600  59.9632080  67.0059970 106.7926620  59.3839360  67.5776200
 105.5495020  60.2472310  67.5436340 113.1911220  62.6846270  50.5606260
 113.0861860  62.0698620  51.2867640 113.0235440  62.1612160  49.7769270
 108.3210680  58.1061670  67.9010040 108.3616020  57.8075540  68.8095270
 109.1756180  58.5069280  67.7417560 112.0989070  60.7057220  53.0613550
 112.5205490  60.5397090  53.9044940 112.2239910  59.8957450  52.5668690
 110.2616490  56.6853770  65.8684530 109.7312950  56.1944720  65.2407870
 110.9304560  57.1137970  65.3342460 110.9947970  56.7790450  50.0071710
 110.7937030  55.9157810  50.3685050 110.8240020  56.6923810  49.0693310
 114.6279410  68.6447930  64.9766030 114.5538110  69.5483070  65.2838400
 113.7258250  68.3259830  64.9488100 115.1764740  67.8106440  52.5992390
 116.0715530  68.1491410  52.6211150 115.2082370  67.0885850  51.9716670
 106.0306700  65.9722520  58.2799650 106.3609710  65.1043580  58.0478290
 106.4597700  66.1781040  59.1104610 110.6268620  64.3031530  55.9401620
 110.3264160  64.1796500  56.8405530 110.5206110  63.4440120  55.5317350
 106.5196910  66.8393110  61.0181280 106.0827900  67.0193910  61.8505430
 107.0874590  67.5967730  60.8763000 106.3521340  59.3513340  57.3770160
 105.6970180  59.0824980  56.7329860 107.1899290  59.2417820  56.9272140
 123.8576970  61.6825510  57.9904430 124.2285800  60.8992830  57.5840400
 124.4978900  62.3714610  57.8121730 120.8410730  63.0662090  63.4034750
 120.0270570  63.4959250  63.6660540 121.2484930  63.6780500  62.7903800
 122.1901130  58.2050290  64.9303970 121.9587220  57.9763040  64.0301920
 122.4505680  59.1249840  64.8848860 106.9413270  56.6475000  65.8231920
 106.0469320  56.6141760  66.1625630 107.4810820  56.8461790  66.5883170
 105.5659420  56.5612270  53.3195490 104.6623500  56.8242470  53.1447150
 106.0500040  56.8323440  52.5395450 107.4452980  50.9223330  60.1715140
 108.0929170  50.3720710  59.7310300 107.8654820  51.1766480  60.9930950
 122.9939600  55.1770560  57.0701780 122.8838880  55.0226600  58.0084050
 123.7547190  54.6491500  56.8277190 121.3405320  51.1164690  63.5284780
 121.9777540  51.7298830  63.8943970 121.4880210  51.1525350  62.5834010
 107.1984980  51.0779000  62.9140460 106.8499800  51.5342820  63.6798640
 106.8672680  50.1836130  62.9962890 123.7659540  67.8252570  63.4814010
 123.2717820  68.2221440  62.7641140 123.1572830  67.2001780  63.8751290
 118.9964380  52.6963950  63.7863180 118.6677740  51.8815710  63.4064910
 119.9446680  52.6533760  63.6628870 122.2526860  51.7401260  57.3972280
 122.1915260  50.7962480  57.2503300 123.0318890  51.8481350  57.9425740
 106.5579610  67.8793620  56.3596230 106.3901650  67.2464300  57.0578120
 105.6914120  68.0853020  56.0090420 108.1642310  66.5726850  53.8046370
 107.6389930  66.9534880  53.1008330 108.0886890  67.1977620  54.5256080
 114.6862570  68.5888820  68.1286060 115.6129880  68.3533090  68.1722020
 114.6713000  69.4160820  67.6472090 110.7635280  68.5209230  52.6795620
 111.4954100  68.2368510  52.1319510 111.0228950  68.2822510  53.5695000
 109.9250070  64.6373960  52.6841950 109.2958950  65.1059060  53.2327780
 110.0397900  63.7923180  53.1188140 115.5117830  60.4658640  40.7152420
 114.7359930  59.9859080  41.0050990 116.1630760  59.7864290  40.5408580
 115.7588570  67.1576840  39.1155540 115.1400010  67.6134340  38.5449980
 116.6140350  67.3128300  38.7145240 114.9526820  63.1415830  40.7222580
 114.8835100  62.2005770  40.5611710 115.7146680  63.2317240  41.2945150
 107.1433490  53.7470350  43.0479200 106.9636330  52.8496100  43.3281960
 106.7413570  54.2942220  43.7226150 115.9831990  55.9486210  40.9491510
 116.3596810  55.0758090  40.8365180 115.8851500  56.2844910  40.0581950
 111.9544730  57.2898210  40.7434130 112.4622950  57.7879180  41.3839150
 112.4857970  56.5133410  40.5673490 124.0555660  55.4603400  44.4463480
 123.3507830  55.8485110  43.9278590 124.3213580  56.1553690  45.0484410
 110.2380830  51.9296770  45.0097550 110.2399270  52.4469160  44.2043450
 109.4085140  51.4526950  44.9867480 109.9196160  53.6406730  43.0168000
 110.2612970  54.4848780  42.7221870 108.9811970  53.7890470  43.1333340
 121.6180370  65.0012160  42.9174870 120.9343890  65.6711270  42.9091540
 122.1574660  65.1992810  42.1519730 119.1539110  66.8456290  41.6320050
 119.1666270  66.4418580  40.7642310 118.6014330  67.6203580  41.5281480
 118.5524550  61.7486130  42.9602660 118.9693340  61.5346240  42.1256120
 119.2764370  62.0058920  43.5311280 115.9904810  59.1937830  36.0772710
 115.0634090  59.1275210  36.3061180 116.1429630  60.1317960  35.9627950
 115.9773890  55.4654830  33.0739870 115.0377560  55.6268790  33.1592330
 116.2957150  56.1840510  32.5275860 122.4986650  60.1473350  43.0518900
 121.6705280  60.2166440  42.5769030 123.0937130  60.7327660  42.5834730
 112.0643150  63.4070130  41.0231650 111.7671440  62.8015600  40.3439430
 113.0142970  63.4447440  40.9121010 110.3090070  56.4945780  42.6391480
 110.8604660  56.6041120  41.8644730 110.8233580  56.8683380  43.3546710
 120.1528760  66.9802000  44.6854750 119.6759320  67.7874190  44.4927360
 119.4690550  66.3280330  44.8380960 118.1966800  59.9944940  33.5880710
 118.6360080  59.1567370  33.4418530 118.9095220  60.6274340  33.6744850
 111.7813150  65.9586840  48.4581970 111.7528580  66.3629790  47.5910400
 111.6178120  65.0297200  48.2953570 121.7783940  51.2487750  31.9021750
 121.4656600  51.3414580  32.8020820 122.5396410  51.8268780  31.8519180
 123.7327970  66.7413940  49.7546140 124.2087690  67.2196830  50.4335220
 124.3535130  66.6731430  49.0291640 123.1361220  63.9326790  46.9146150
 123.2624280  63.6938670  45.9963330 123.1782600  63.1011330  47.3868230
 116.9977960  67.6354790  45.4840960 117.5122630  67.5462800  46.2863390
 116.1547040  67.9814490  45.7768870 111.4520740  67.7008660  36.6896580
 111.2763220  66.7844200  36.4764380 110.5976480  68.0595950  36.9294380
 118.2408420  67.0560400  37.5471450 118.6965370  66.2749780  37.8610070
 118.5800940  67.7667220  38.0912630 110.7629740  51.9582620  39.7422760
 110.3197890  52.7392160  39.4107280 111.3214730  52.2812510  40.4493700
 115.0499550  54.8251140  45.3458080 114.5878920  55.0334160  46.1578020
 114.6477660  54.0110490  45.0428750 120.0504060  56.0460090  46.4754740
 119.1997650  55.7465840  46.7963810 119.8905850  56.2902100  45.5638560
 113.8788560  51.5793320  34.6228590 113.2542740  51.5753190  35.3481900
 113.7918680  50.7124280  34.2264560 112.8005640  52.5029950  41.6012360
 113.0977970  53.4092780  41.5204380 113.3491200  52.0148730  40.9871930
 117.7841720  57.0879560  36.0694660 117.1850610  57.8115360  35.8858280
 118.3321330  57.0256340  35.2871110 112.9943170  57.9801770  48.1364280
 112.8986770  57.0396500  47.9864680 113.8375150  58.2016840  47.7412350
 116.3906590  55.7243100  38.0997940 116.7836160  56.0415300  37.2866630
 116.7523440  54.8454980  38.2142460 108.1253710  54.3915440  46.2898060
 107.7317100  55.2390650  46.4970840 107.4372110  53.7541810  46.4806700
 114.6998760  54.4750410  49.3594800 114.0097080  54.2822610  49.9940890
 115.4431060  54.7585050  49.8919100 116.9761730  58.3148850  42.1948720
 116.2442850  58.8235660  42.5438820 116.5786070  57.4978830  41.8937500
 113.4139120  54.9903050  40.6001210 113.4175180  54.5493000  39.7505750
 114.3090240  55.3120380  40.7073030 113.7147090  59.0504830  42.3466620
 114.0817220  58.5763400  43.0927960 113.5252150  59.9246400  42.6874960
 111.5046460  58.0913470  44.6650830 111.2003530  58.9705450  44.8901190
 112.4592920  58.1513260  44.7008270 116.2526170  52.6877780  35.1973460
 115.4390780  52.1890950  35.1218770 116.0588120  53.5276030  34.7809810
 118.9674560  57.0597430  33.4935620 119.8554180  57.3714660  33.3186960
 118.9379650  56.1869680  33.1016200 114.9635150  63.2321120  34.1723790
 115.3050850  63.9763350  33.6767110 114.1347860  63.5452240  34.5348620
 121.2388830  58.3709270  32.9615480 121.1552550  58.8023490  32.1111920
 121.9583020  58.8307620  33.3942300 122.3162970  60.8276790  46.0385450
 121.5911160  61.4205570  45.8414840 122.8438430  60.8200330  45.2398820
 113.9325840  63.3134650  36.9439710 114.6196970  63.8603860  37.3247300
 113.1458260  63.8575380  36.9789320 115.5385660  65.8287020  43.7857370
 116.1827880  66.0346400  44.4630790 115.9015100  65.0675420  43.3328220
 116.8117740  63.8319370  42.5034820 117.4539970  63.1312530  42.6166990
 117.3367090  64.6117810  42.3231710 120.6573460  64.1167990  32.2273960
 120.4311040  63.3998430  32.8198600 120.2669660  63.8680430  31.3895710
 106.4389490  68.1434850  33.0018420 106.7987130  68.7424190  32.3475690
 106.2981830  68.6894740  33.7753450 112.4558110  65.5266050  33.8192090
 112.4468210  66.2595740  33.2036600 111.5356470  65.2797630  33.9119050
 120.9959570  53.8688700  35.0483300 120.3672730  53.9734370  34.3341530
 120.5011490  54.0885480  35.8377180 112.9643600  56.1474650  36.4641180
 112.2559750  56.6160990  36.9054790 113.2488080  55.4896660  37.0986370
 114.5899530  57.5671350  44.4633710 115.0884780  58.0417170  45.1285560
 114.7322480  56.6434870  44.6703740 114.0835820  68.1080610  37.1764950
 114.3377320  68.0702000  36.2544320 113.1348300  67.9813940  37.1693200
 121.7966390  53.7839310  45.3062100 121.2939990  54.5244710  45.6455910
 122.6123050  54.1723310  44.9898890 122.0913980  66.1981340  40.4277720
 122.2161400  67.0212510  40.9001530 122.9579540  65.9872070  40.0801870
 109.5631510  68.2912550  40.0994850 110.2993990  67.7428010  40.3703420
 109.9472430  69.1568560  39.9600840 106.4476990  64.3586120  35.9736360
 105.5216770  64.6007260  35.9641770 106.9133420  65.1860380  35.8521110
 118.8354790  67.3118780  47.8465250 119.7876540  67.2276800  47.7965490
 118.6883010  67.9760490  48.5199040 121.7263990  66.6912990  33.3457160
 121.4405500  66.2778130  32.5311340 121.5283540  67.6200700  33.2257680
 113.1911220  62.6846270  31.7862770 113.0861860  62.0698620  32.5124150
 113.0235440  62.1612160  31.0025780 116.4313950  61.7466300  32.3904760
 115.8824050  62.1935600  33.0347500 117.0533210  61.2415550  32.9142430
 110.7488790  53.6516140  47.1738330 110.6545660  53.0336890  46.4489200
 110.1686180  54.3782430  46.9468240 113.5150230  52.2089380  44.2065720
 113.0667530  52.2313640  43.3611270 112.8815430  51.8108400  44.8036020
 118.5961580  59.3897080  44.7878510 118.0696800  59.9139700  44.1843650
 118.9392920  60.0224470  45.4188240 111.7717200  67.4096720  45.9435890
 111.2338290  68.1342780  45.6244590 112.0251160  66.9327060  45.1533230
 113.0242450  55.3781240  47.4691820 113.6142140  55.0697090  48.1569640
 112.2062690  54.9060990  47.6251720 117.8435880  54.9947050  47.7024840
 117.1551400  54.3328590  47.6374830 118.5641900  54.5485320  48.1473300
 118.4736280  51.5898680  33.7615100 118.7538570  50.7466580  34.1174520
 117.7002010  51.8221790  34.2753850 114.6279410  68.6447930  46.2022540
 114.5538110  69.5483070  46.5094910 113.7258250  68.3259830  46.1744610
 122.1559090  66.3410110  46.5315100 121.5561080  66.4002670  45.7879020
 122.2852990  65.4015090  46.6611950 123.3960540  64.0827930  31.8684810
 122.5653500  64.1504580  32.3392040 123.5732370  64.9732050  31.5651670
 120.8410730  63.0662090  44.6291260 120.0270570  63.4959250  44.8917050
 121.2484930  63.6780500  44.0160310 122.9036170  61.1209780  31.5291530
 123.1785010  62.0288660  31.4010750 122.7146910  61.0572310  32.4653520
 119.3011780  54.1454630  32.8245160 119.7196660  53.9585610  31.9841820
 118.9947840  53.2933680  33.1348090 122.8001510  59.0578770  36.5220960
 122.4245110  58.2906700  36.0902250 122.0704630  59.4401470  37.0095890
 122.1901130  58.2050290  46.1560480 121.9587220  57.9763040  45.2558430
 122.4505680  59.1249840  46.1105370 121.5652440  56.5409610  35.7620610
 122.0611560  56.3080480  36.5469490 121.3668510  55.7021450  35.3458250
 107.4452980  50.9223330  41.3971650 108.0929170  50.3720710  40.9566810
 107.8654820  51.1766480  42.2187460 121.3405320  51.1164690  44.7541290
 121.9777540  51.7298830  45.1200480 121.4880210  51.1525350  43.8090520
 123.8829870  53.0078480  31.5364430 124.8079180  52.8759660  31.3282720
 123.8605660  53.0871300  32.4900880 123.9568360  53.7789140  34.1621140
 123.1619860  53.7134260  34.6914050 124.1611640  54.7139780  34.1506490
 120.8986780  67.8180690  38.1559530 121.4945850  67.4965260  37.4793950
 121.1564930  67.3452510  38.9472800 107.1984980  51.0779000  44.1396970
 106.8499800  51.5342820  44.9055150 106.8672680  50.1836130  44.2219400
 112.5055380  65.8058190  43.9059880 112.2646740  66.0732750  43.0190400
 113.4458020  65.9763920  43.9610740 114.7109800  52.2690880  47.6616390
 114.6498690  52.8612710  48.4111800 115.6510180  52.1616840  47.5166650
 117.3484360  51.9260940  47.3008680 117.9624770  52.2440230  46.6389760
 117.8933920  51.4409530  47.9204540 123.7659540  67.8252570  44.7070520
 123.2717820  68.2221440  43.9897650 123.1572830  67.2001780  45.1007800
 107.8705620  50.6055200  47.4147740 108.4188610  50.4243250  46.6513850
 107.9360930  49.8149310  47.9504050 108.6437380  67.1960850  45.4247940
 108.0497700  67.0645550  46.1637980 108.6361220  66.3598990  44.9590040
 118.0892400  50.4893080  43.6277970 117.2152240  50.8228190  43.4250900
 117.9803150  50.0166260  44.4529840 118.9964380  52.6963950  45.0119690
 118.6677740  51.8815710  44.6321420 119.9446680  52.6533760  44.8885380
 121.4498990  68.4675990  41.9857260 120.9901960  69.2191800  41.6115280
 120.8211450  67.7482460  41.9272060 111.8794710  66.7764230  41.1605390
 112.3959730  66.1651590  40.6353650 112.5292090  67.2793010  41.6516400
 114.6190210  67.6672720  41.9874370 114.9068020  67.4127020  41.1107380
 115.1313430  67.1150080  42.5779940 113.7221440  53.8249670  38.0786910
 112.9095950  53.4506560  37.7382790 114.2263080  53.0694750  38.3808100
 121.3681020  50.8913680  34.5910260 121.5631650  51.7897130  34.8577690
 120.5810890  50.6600760  35.0843210 108.1642310  66.5726850  35.0302880
 107.6389930  66.9534880  34.3264840 108.0886890  67.1977620  35.7512590
 114.6862570  68.5888820  49.3542570 115.6129880  68.3533090  49.3978530
 114.6713000  69.4160820  48.8728600 122.9207630  68.1314390  36.3516820
 123.0959820  67.4452130  35.7077740 122.2229200  68.6561440  35.9593490
 110.7635280  68.5209230  33.9052130 111.4954100  68.2368510  33.3576020
 111.0228950  68.2822510  34.7951510 109.9250070  64.6373960  33.9098460
 109.2958950  65.1059060  34.4584290 110.0397900  63.7923180  34.3444650
 121.2540130  67.8158680  49.1783610 122.0465450  67.3207910  48.9709570
 121.5473280  68.4948820  49.7859220 117.3799790  58.6879620  20.0599660
 117.2993840  57.7734230  19.7891370 116.9664210  59.1846690  19.3539370
 115.5117830  60.4658640  21.9408930 114.7359930  59.9859080  22.2307500
 116.1630760  59.7864290  21.7665090 109.5283660  60.7778450  22.8184690
 108.6968540  60.5227160  23.2181200 110.1364640  60.8489220  23.5542610
 119.5325260  64.8718830  20.7208060 119.0706790  64.1006070  21.0495230
 120.3450810  64.8984900  21.2260510 109.5084920  64.8118540  23.0142710
 109.8112960  63.9216280  22.8352930 110.2528510  65.3688760  22.7864960
 107.9375610  55.7380340  16.6027080 107.0492310  56.0796310  16.5006960
 108.2216800  55.5380660  15.7107910 105.9008620  58.3385990  22.4866780
 106.4724730  57.5708190  22.4870420 105.9010160  58.6374750  21.5773390
 115.7588570  67.1576840  20.3412050 115.1400010  67.6134340  19.7706490
 116.6140350  67.3128300  19.9401750 114.9526820  63.1415830  21.9479090
 114.8835100  62.2005770  21.7868220 115.7146680  63.2317240  22.5201660
 107.1433490  53.7470350  24.2735710 106.9636330  52.8496100  24.5538470
 106.7413570  54.2942220  24.9482660 115.9831990  55.9486210  22.1748020
 116.3596810  55.0758090  22.0621690 115.8851500  56.2844910  21.2838460
 110.1137000  54.3211840  17.6365460 110.2203750  55.2215570  17.9434220
 109.2029360  54.2729810  17.3460110 119.7656110  53.4436650  19.1076360
 120.5865730  52.9533220  19.1501840 119.7990190  54.0334310  19.8608200
 107.7620160  56.2430850  22.8818050 108.4430270  56.5069220  23.5005450
 107.4468210  55.4031720  23.2156060 111.9544730  57.2898210  21.9690640
 112.4622950  57.7879180  22.6095660 112.4857970  56.5133410  21.7930000
 124.0555660  55.4603400  25.6719990 123.3507830  55.8485110  25.1535100
 124.3213580  56.1553690  26.2740920 116.6251920  62.0416080  17.7343960
 116.0069190  62.5065530  17.1706680 117.1375170  62.7343560  18.1513470
 120.0017590  55.3837030  21.8803900 119.2973160  55.6721920  22.4607010
 120.3629750  56.1937140  21.5203460 105.9935120  62.7272610  15.1083590
 105.6163100  63.2159710  14.3768490 106.2508190  63.3997890  15.7390120
 121.6180370  65.0012160  24.1431380 120.9343890  65.6711270  24.1348050
 122.1574660  65.1992810  23.3776240 123.0704510  54.8291820  22.2713110
 122.1229420  54.8630800  22.4028540 123.3954500  55.6430770  22.6562470
 113.6024050  51.1289000  20.5669100 113.9099030  50.5735890  19.8504600
 112.6724750  51.2633460  20.3842090 119.1539110  66.8456290  22.8576560
 119.1666270  66.4418580  21.9898820 118.6014330  67.6203580  22.7537990
 120.4484530  63.5672510  17.9466730 120.3380860  62.6246840  18.0716150
 120.4452780  63.9288150  18.8329490 118.5524550  61.7486130  24.1859170
 118.9693340  61.5346240  23.3512630 119.2764370  62.0058920  24.7567790
 115.9904810  59.1937830  17.3029220 115.0634090  59.1275210  17.5317690
 116.1429630  60.1317960  17.1884460 115.9773890  55.4654830  14.2996380
 115.0377560  55.6268790  14.3848840 116.2957150  56.1840510  13.7532370
 122.4986650  60.1473350  24.2775410 121.6705280  60.2166440  23.8025540
 123.0937130  60.7327660  23.8091240 120.0202100  60.7558130  17.8064470
 119.4014520  60.4177680  17.1590770 120.0026550  60.1117890  18.5143660
 119.4628660  56.9342670  25.2230280 119.0499840  57.7596380  25.4770270
 118.7304610  56.3487710  25.0306640 111.5961450  59.7202570  20.0848950
 111.1918450  59.0079820  19.5894850 111.6824570  59.3755810  20.9736990
 112.0643150  63.4070130  22.2488160 111.7671440  62.8015600  21.5695940
 113.0142970  63.4447440  22.1377520 110.3090070  56.4945780  23.8647990
 110.8604660  56.6041120  23.0901240 110.8233580  56.8683380  24.5803220
 120.1528760  66.9802000  25.9111260 119.6759320  67.7874190  25.7183870
 119.4690550  66.3280330  26.0637470 118.1966800  59.9944940  14.8137220
 118.6360080  59.1567370  14.6675040 118.9095220  60.6274340  14.9001360
 116.3062180  64.9341010  18.7818460 116.7458090  65.6765340  18.3673850
 116.2449070  65.1767580  19.7057420 121.7783940  51.2487750  13.1278260
 121.4656600  51.3414580  14.0277330 122.5396410  51.8268780  13.0775690
 108.2966080  58.6147550  17.5855600 108.1763680  59.3409640  16.9736870
 107.9866970  57.8450460  17.1083510 123.7327970  66.7413940  30.9802650
 124.2087690  67.2196830  31.6591730 124.3535130  66.6731430  30.2548150
 107.1799080  63.4862880  19.8030420 106.7727160  63.6277470  18.9484020
 108.0712090  63.2023040  19.6001630 123.1361220  63.9326790  28.1402660
 123.2624280  63.6938670  27.2219840 123.1782600  63.1011330  28.6124740
 116.9977960  67.6354790  26.7097470 117.5122630  67.5462800  27.5119900
 116.1547040  67.9814490  27.0025380 118.9732360  67.9210130  16.1381470
 118.8133500  67.6313070  17.0363300 118.8079070  67.1450260  15.6026700
 111.4520740  67.7008660  17.9153090 111.2763220  66.7844200  17.7020890
 110.5976480  68.0595950  18.1550890 118.6758490  65.4297690  14.6979470
 117.9823650  65.4274980  14.0381750 119.4181350  65.0057010  14.2673640
 118.2408420  67.0560400  18.7727960 118.6965370  66.2749780  19.0866580
 118.5800940  67.7667220  19.3169140 122.9885230  55.9859250  29.1052400
 122.3729500  56.4938920  28.5767860 122.6681650  55.0857580  29.0478340
 110.7629740  51.9582620  20.9679270 110.3197890  52.7392160  20.6363790
 111.3214730  52.2812510  21.6750210 115.0499550  54.8251140  26.5714590
 114.5878920  55.0334160  27.3834530 114.6477660  54.0110490  26.2685260
 120.0504060  56.0460090  27.7011250 119.1997650  55.7465840  28.0220320
 119.8905850  56.2902100  26.7895070 117.1453770  57.5461840  29.8010040
 117.4707180  56.7125590  29.4612270 117.9334100  58.0690360  29.9488370
 113.8788560  51.5793320  15.8485100 113.2542740  51.5753190  16.5738410
 113.7918680  50.7124280  15.4521070 112.8005640  52.5029950  22.8268870
 113.0977970  53.4092780  22.7460890 113.3491200  52.0148730  22.2128440
 110.5543960  57.0816190  18.6960520 110.3284880  56.8653360  19.6007140
 109.7736490  57.5144650  18.3506490 117.7841720  57.0879560  17.2951170
 117.1850610  57.8115360  17.1114790 118.3321330  57.0256340  16.5127620
 116.3906590  55.7243100  19.3254450 116.7836160  56.0415300  18.5123140
 116.7523440  54.8454980  19.4398970 114.6998760  54.4750410  30.5851310
 114.0097080  54.2822610  31.2197400 115.4431060  54.7585050  31.1175610
 105.4270760  52.3143900  21.5484650 105.1383810  52.8846760  22.2609630
 106.1716520  51.8348350  21.9115880 105.6140990  56.2564020  12.7587370
 105.5315660  57.1994780  12.9002360 105.2624050  56.1138930  11.8799720
 116.9761730  58.3148850  23.4205230 116.2442850  58.8235660  23.7695330
 116.5786070  57.4978830  23.1194010 113.4139120  54.9903050  21.8257720
 113.4175180  54.5493000  20.9762260 114.3090240  55.3120380  21.9329540
 109.2641500  54.8729540  20.7851930 108.9241550  55.3504770  21.5418980
 108.5018820  54.4194660  20.4253030 113.4759270  55.9915130  14.8164480
 113.5972090  55.9501610  15.7650300 113.0907780  56.8539280  14.6611210
 117.4387640  53.7682530  22.8328170 117.4560380  54.2191180  23.6770020
 117.1903220  52.8688170  23.0461610 112.4880770  58.3016270  14.2147780
 111.9197670  57.8534520  13.5883690 113.1969770  58.6609050  13.6812930
 120.8658390  51.1814710  28.6714550 121.1904160  50.4504370  29.1972530
 120.9014900  50.8628350  27.7695540 113.7147090  59.0504830  23.5723130
 114.0817220  58.5763400  24.3184470 113.5252150  59.9246400  23.9131470
 106.5787580  53.7948520  19.7016600 106.2934500  53.4304190  20.5395220
 106.5166440  53.0628980  19.0879740 110.0328250  62.2974460  16.4874190
 109.2590510  61.7572080  16.3272910 110.7622880  61.7781070  16.1491950
 120.7916230  61.2939820  22.2800580 121.5115350  61.7895110  21.8896690
 120.5898050  60.6157710  21.6354450 116.2526170  52.6877780  16.4229970
 115.4390780  52.1890950  16.3475280 116.0588120  53.5276030  16.0066320
 118.9674560  57.0597430  14.7192130 119.8554180  57.3714660  14.5443470
 118.9379650  56.1869680  14.3272710 110.0765650  61.9654840  20.1253000
 110.5944320  61.1623100  20.0709890 109.6249670  61.9033980  20.9669830
 114.9635150  63.2321120  15.3980300 115.3050850  63.9763350  14.9023620
 114.1347860  63.5452240  15.7605130 121.2388830  58.3709270  14.1871990
 121.1552550  58.8023490  13.3368430 121.9583020  58.8307620  14.6198810
 122.3162970  60.8276790  27.2641960 121.5911160  61.4205570  27.0671350
 122.8438430  60.8200330  26.4655330 122.2676080  65.2251530  16.9154120
 121.6252240  64.5707150  17.1897840 121.8806740  65.6306620  16.1394790
 117.8462560  62.5536960  20.7625810 118.1986380  61.9565090  20.1027180
 116.9624890  62.2281190  20.9334060 113.9325840  63.3134650  18.1696220
 114.6196970  63.8603860  18.5503810 113.1458260  63.8575380  18.2045830
 106.0718240  58.9307470  13.6613300 106.9413090  59.2132270  13.9449220
 105.5808560  59.7443340  13.5462110 113.2353050  60.3180680  17.7821580
 113.6915830  61.1285930  18.0081770 112.8841260  60.0003820  18.6140070
 115.5385660  65.8287020  25.0113880 116.1827880  66.0346400  25.6887300
 115.9015100  65.0675420  24.5584730 109.1364830  50.6618330  18.2544100
 109.0079460  50.6536230  19.2029020 108.3126850  51.0001420  17.9035110
 116.8117740  63.8319370  23.7291330 117.4539970  63.1312530  23.8423500
 117.3367090  64.6117810  23.5488220 120.6573460  64.1167990  13.4530470
 120.4311040  63.3998430  14.0455110 120.2669660  63.8680430  12.6152220
 118.5855360  64.6314270  26.9327390 118.9211600  65.2180960  27.6105310
 117.6655700  64.5006980  27.1625180 106.4389490  68.1434850  14.2274930
 106.7987130  68.7424190  13.5732200 106.2981830  68.6894740  15.0009960
 120.2389710  62.0339930  15.1144630 119.9511410  62.4952620  15.9022510
 121.0341880  61.5737700  15.3828850 106.4231350  66.4089710  28.7017330
 106.5322470  65.4684450  28.5612720 105.7711910  66.6744460  28.0531060
 112.4558110  65.5266050  15.0448600 112.4468210  66.2595740  14.4293110
 111.5356470  65.2797630  15.1375560 108.0564750  60.7480940  15.7895360
 107.4492700  61.4879840  15.7990660 108.5314100  60.8380300  14.9633560
 117.6297540  54.9131760  25.4652250 117.9978360  54.0926970  25.7931820
 116.7695740  54.9733650  25.8807900 120.9959570  53.8688700  16.2739810
 120.3672730  53.9734370  15.5598040 120.5011490  54.0885480  17.0633690
 115.4417710  65.5894290  13.7073790 115.5429690  65.3858280  12.7775770
 114.5419450  65.3352570  13.9121570 112.9643600  56.1474650  17.6897690
 112.2559750  56.6160990  18.1311300 113.2488080  55.4896660  18.3242880
 116.9959030  52.8725310  19.1293480 116.8726810  52.8911440  18.1802990
 117.9443590  52.9204250  19.2491880 114.0835820  68.1080610  18.4021460
 114.3377320  68.0702000  17.4800830 113.1348300  67.9813940  18.3949710
 111.1678620  54.4559730  15.0648400 112.0169150  54.8929880  14.9988590
 110.8009890  54.7679990  15.8920460 121.7966390  53.7839310  26.5318610
 121.2939990  54.5244710  26.8712420 122.6123050  54.1723310  26.2155400
 120.0888400  59.0272490  19.9779970 119.1478540  59.0422720  20.1527660
 120.4032470  58.2408450  20.4240270 110.0670040  60.7092090  13.5383930
 110.8333310  60.5973450  14.1009360 110.1444730  60.0130060  12.8860700
 108.7616800  58.1417160  14.2216820 108.8420390  57.1944670  14.3334220
 109.6536550  58.4724040  14.3277480 122.0913980  66.1981340  21.6534230
 122.2161400  67.0212510  22.1258040 122.9579540  65.9872070  21.3058380
 109.5631510  68.2912550  21.3251360 110.2993990  67.7428010  21.5959930
 109.9472430  69.1568560  21.1857350 106.4476990  64.3586120  17.1992870
 105.5216770  64.6007260  17.1898280 106.9133420  65.1860380  17.0777620
 112.6733820  67.4642860  13.1476930 113.4662430  67.7531690  12.6958720
 112.1538170  67.0335030  12.4689410 117.4054420  63.5838490  30.4612350
 116.7992580  63.6070090  29.7208100 117.1008530  62.8521530  30.9979600
 121.7263990  66.6912990  14.5713670 121.4405500  66.2778130  13.7567850
 121.5283540  67.6200700  14.4514190 113.1911220  62.6846270  13.0119280
 113.0861860  62.0698620  13.7380660 113.0235440  62.1612160  12.2282290
 116.4313950  61.7466300  13.6161270 115.8824050  62.1935600  14.2604010
 117.0533210  61.2415550  14.1398940 120.4848890  63.1008400  29.5483530
 121.2258360  63.4384160  29.0450990 119.7221570  63.2700460  28.9953300
 112.0989070  60.7057220  15.5126570 112.5205490  60.5397090  16.3557960
 112.2239910  59.8957450  15.0181710 114.6116710  59.7294830  12.7603670
 115.1322370  59.0143850  12.3944820 115.2585110  60.3680700  13.0604180
 119.1594550  61.1523230  28.0838740 119.5735570  61.3068310  28.9329160
 118.2245550  61.2778450  28.2464520 119.6316720  58.4919390  30.0877890
 120.2137490  57.7371710  29.9998370 119.8078490  59.0226830  29.3109370
 113.5150230  52.2089380  25.4322230 113.0667530  52.2313640  24.5867780
 112.8815430  51.8108400  26.0292530 118.5961580  59.3897080  26.0135020
 118.0696800  59.9139700  25.4100160 118.9392920  60.0224470  26.6444750
 110.9947970  56.7790450  12.4584730 110.7937030  55.9157810  12.8198070
 110.8240020  56.6923810  11.5206330 117.8435880  54.9947050  28.9281350
 117.1551400  54.3328590  28.8631340 118.5641900  54.5485320  29.3729810
 118.4736280  51.5898680  14.9871610 118.7538570  50.7466580  15.3431030
 117.7002010  51.8221790  15.5010360 109.7930770  53.8791070  12.4462610
 110.0956670  53.8858500  11.5381760 110.5325360  53.5288930  12.9430270
 114.6279410  68.6447930  27.4279050 114.5538110  69.5483070  27.7351420
 113.7258250  68.3259830  27.4001120 113.0115700  52.8225690  13.4318810
 112.6637700  52.1449680  12.8521260 113.2128470  52.3615200  14.2462200
 115.1764740  67.8106440  15.0505410 116.0715530  68.1491410  15.0724170
 115.2082370  67.0885850  14.4229690 108.8160900  63.1833490  13.2792410
 109.2535770  63.7263160  13.9349990 109.3008630  62.3580440  13.2888750
 106.0306700  65.9722520  20.7312670 106.3609710  65.1043580  20.4991310
 106.4597700  66.1781040  21.5617630 110.6268620  64.3031530  18.3914640
 110.3264160  64.1796500  19.2918550 110.5206110  63.4440120  17.9830370
 106.5196910  66.8393110  23.4694300 106.0827900  67.0193910  24.3018450
 107.0874590  67.5967730  23.3276020 122.1559090  66.3410110  27.7571610
 121.5561080  66.4002670  27.0135530 122.2852990  65.4015090  27.8868460
 123.3960540  64.0827930  13.0941320 122.5653500  64.1504580  13.5648550
 123.5732370  64.9732050  12.7908180 122.8517000  60.8275410  15.5975520
 123.6135910  61.3972060  15.7035210 122.8671370  60.2602610  16.3683830
 106.3521340  59.3513340  19.8283180 105.6970180  59.0824980  19.1842880
 107.1899290  59.2417820  19.3785160 123.8576970  61.6825510  20.4417450
 124.2285800  60.8992830  20.0353420 124.4978900  62.3714610  20.2634750
 120.8410730  63.0662090  25.8547770 120.0270570  63.4959250  26.1173560
 121.2484930  63.6780500  25.2416820 122.9036170  61.1209780  12.7548040
 123.1785010  62.0288660  12.6267260 122.7146910  61.0572310  13.6910030
 119.3011780  54.1454630  14.0501670 119.7196660  53.9585610  13.2098330
 118.9947840  53.2933680  14.3604600 122.8001510  59.0578770  17.7477470
 122.4245110  58.2906700  17.3158760 122.0704630  59.4401470  18.2352400
 122.1901130  58.2050290  27.3816990 121.9587220  57.9763040  26.4814940
 122.4505680  59.1249840  27.3361880 120.6289200  53.4306720  30.1596690
 121.5059380  53.4390120  30.5430690 120.6410040  52.6937560  29.5489040
 105.5659420  56.5612270  15.7708510 104.6623500  56.8242470  15.5960170
 106.0500040  56.8323440  14.9908470 122.0752470  57.2836260  21.0484710
 122.5989950  56.7898910  20.4174880 122.6611890  57.4186620  21.7932280
 122.2542190  57.3676130  24.5704260 121.3044900  57.3339670  24.6849250
 122.4355200  58.2776240  24.3354030 108.1086630  55.6177810  13.6802890
 108.8178330  55.1961030  13.1950170 107.3926570  55.6853040  13.0486240
 107.7560790  51.6717140  12.7205540 108.4788920  52.2126080  13.0386760
 108.0285310  51.3980560  11.8447080 121.5652440  56.5409610  16.9877120
 122.0611560  56.3080480  17.7726000 121.3668510  55.7021450  16.5714760
 107.4452980  50.9223330  22.6228160 108.0929170  50.3720710  22.1823320
 107.8654820  51.1766480  23.4443970 122.9939600  55.1770560  19.5214800
 122.8838880  55.0226600  20.4597070 123.7547190  54.6491500  19.2790210
 121.3405320  51.1164690  25.9797800 121.9777540  51.7298830  26.3456990
 121.4880210  51.1525350  25.0347030 123.8829870  53.0078480  12.7620940
 124.8079180  52.8759660  12.5539230 123.8605660  53.0871300  13.7157390
 123.9568360  53.7789140  15.3877650 123.1619860  53.7134260  15.9170560
 124.1611640  54.7139780  15.3763000 120.8986780  67.8180690  19.3816040
 121.4945850  67.4965260  18.7050460 121.1564930  67.3452510  20.1729310
 114.7109800  52.2690880  28.8872900 114.6498690  52.8612710  29.6368310
 115.6510180  52.1616840  28.7423160 117.3484360  51.9260940  28.5265190
 117.9624770  52.2440230  27.8646270 117.8933920  51.4409530  29.1461050
 123.7659540  67.8252570  25.9327030 123.2717820  68.2221440  25.2154160
 123.1572830  67.2001780  26.3264310 108.6437380  67.1960850  26.6504450
 108.0497700  67.0645550  27.3894490 108.6361220  66.3598990  26.1846550
 118.0892400  50.4893080  24.8534480 117.2152240  50.8228190  24.6507410
 117.9803150  50.0166260  25.6786350 118.9964380  52.6963950  26.2376200
 118.6677740  51.8815710  25.8577930 119.9446680  52.6533760  26.1141890
 121.4498990  68.4675990  23.2113770 120.9901960  69.2191800  22.8371790
 120.8211450  67.7482460  23.1528570 111.8794710  66.7764230  22.3861900
 112.3959730  66.1651590  21.8610160 112.5292090  67.2793010  22.8772910
 114.6190210  67.6672720  23.2130880 114.9068020  67.4127020  22.3363890
 115.1313430  67.1150080  23.8036450 115.8367220  51.4062920  23.7927390
 115.0539010  51.8808420  24.0724150 115.5430150  50.5017750  23.6840570
 120.3888290  52.1086020  21.8376480 120.8296380  52.0531120  20.9898080
 120.1195880  53.0244030  21.9086660 122.2526860  51.7401260  19.8485300
 122.1915260  50.7962480  19.7016320 123.0318890  51.8481350  20.3938760
 106.5579610  67.8793620  18.8109250 106.3901650  67.2464300  19.5091140
 105.6914120  68.0853020  18.4603440 107.1807630  51.7110400  16.3141110
 107.9386990  51.8239280  15.7405140 106.7184800  52.5479600  16.2684540
 113.7221440  53.8249670  19.3043420 112.9095950  53.4506560  18.9639300
 114.2263080  53.0694750  19.6064610 118.2246420  50.4892120  20.5426490
 118.8275790  51.0612330  21.0175010 117.4839410  51.0531560  20.3200390
 121.3681020  50.8913680  15.8166770 121.5631650  51.7897130  16.0834200
 120.5810890  50.6600760  16.3099720 108.1642310  66.5726850  16.2559390
 107.6389930  66.9534880  15.5521350 108.0886890  67.1977620  16.9769100
 109.5532780  52.2374450  14.8543080 110.0825540  51.4504250  14.7251030
 110.1861100  52.9165640  15.0878610 111.7470620  51.9749590  17.9088470
 111.1173360  51.2736900  18.0758600 111.2075760  52.7353720  17.6921630
 122.9207630  68.1314390  17.5773330 123.0959820  67.4452130  16.9334250
 122.2229200  68.6561440  17.1850000 110.7635280  68.5209230  15.1308640
 111.4954100  68.2368510  14.5832530 111.0228950  68.2822510  16.0208020
 109.9250070  64.6373960  15.1354970 109.2958950  65.1059060  15.6840800
 110.0397900  63.7923180  15.5701160 118.4741640  50.6687150  30.9221430
 118.3607090  50.9881760  31.8172950 119.2911380  51.0699660  30.6258710
 121.2540130  67.8158680  30.4040120 122.0465450  67.3207910  30.1966080
 121.5473280  68.4948820  31.0115730 115.5117830  60.4658640   3.1665440
 114.7359930  59.9859080   3.4564010 116.1630760  59.7864290   2.9921600
 109.5283660  60.7778450   4.0441200 108.6968540  60.5227160   4.4437710
 110.1364640  60.8489220   4.7799120 119.5325260  64.8718830   1.9464570
 119.0706790  64.1006070   2.2751740 120.3450810  64.8984900   2.4517020
 109.5084920  64.8118540   4.2399220 109.8112960  63.9216280   4.0609440
 110.2528510  65.3688760   4.0121470 105.9008620  58.3385990   3.7123290
 106.4724730  57.5708190   3.7126930 105.9010160  58.6374750   2.8029900
 114.9526820  63.1415830   3.1735600 114.8835100  62.2005770   3.0124730
 115.7146680  63.2317240   3.7458170 107.1433490  53.7470350   5.4992220
 106.9636330  52.8496100   5.7794980 106.7413570  54.2942220   6.1739170
 115.9831990  55.9486210   3.4004530 116.3596810  55.0758090   3.2878200
 115.8851500  56.2844910   2.5094970 107.7620160  56.2430850   4.1074560
 108.4430270  56.5069220   4.7261960 107.4468210  55.4031720   4.4412570
 111.9544730  57.2898210   3.1947150 112.4622950  57.7879180   3.8352170
 112.4857970  56.5133410   3.0186510 124.0555660  55.4603400   6.8976500
 123.3507830  55.8485110   6.3791610 124.3213580  56.1553690   7.4997430
 110.2380830  51.9296770   7.4610570 110.2399270  52.4469160   6.6556470
 109.4085140  51.4526950   7.4380500 111.4883680  61.5691950   5.6384070
 111.1553060  62.1960870   6.2805140 111.6650360  62.0953830   4.8585740
 120.0017590  55.3837030   3.1060410 119.2973160  55.6721920   3.6863520
 120.3629750  56.1937140   2.7459970 109.9196160  53.6406730   5.4681020
 110.2612970  54.4848780   5.1734890 108.9811970  53.7890470   5.5846360
 110.7002780  63.5372750   7.4533250 111.3176780  64.2123830   7.1717700
 109.8395900  63.9460730   7.3620750 121.6180370  65.0012160   5.3687890
 120.9343890  65.6711270   5.3604560 122.1574660  65.1992810   4.6032750
 123.0704510  54.8291820   3.4969620 122.1229420  54.8630800   3.6285050
 123.3954500  55.6430770   3.8818980 119.1539110  66.8456290   4.0833070
 119.1666270  66.4418580   3.2155330 118.6014330  67.6203580   3.9794500
 118.5524550  61.7486130   5.4115680 118.9693340  61.5346240   4.5769140
 119.2764370  62.0058920   5.9824300 122.4986650  60.1473350   5.5031920
 121.6705280  60.2166440   5.0282050 123.0937130  60.7327660   5.0347750
 119.4628660  56.9342670   6.4486790 119.0499840  57.7596380   6.7026780
 118.7304610  56.3487710   6.2563150 112.0643150  63.4070130   3.4744670
 111.7671440  62.8015600   2.7952450 113.0142970  63.4447440   3.3634030
 110.3090070  56.4945780   5.0904500 110.8604660  56.6041120   4.3157750
 110.8233580  56.8683380   5.8059730 120.1528760  66.9802000   7.1367770
 119.6759320  67.7874190   6.9440380 119.4690550  66.3280330   7.2893980
 111.1561580  63.1451820  10.1252470 110.2590110  63.3691790  10.3725870
 111.1814450  63.2686760   9.1763870 109.9832800  60.0165140   8.7009840
 109.8440570  60.8887940   9.0697240 109.1014160  59.6737950   8.5557780
 111.7813150  65.9586840  10.9094990 111.7528580  66.3629790  10.0423420
 111.6178120  65.0297200  10.7466590 123.7327970  66.7413940  12.2059160
 124.2087690  67.2196830  12.8848240 124.3535130  66.6731430  11.4804660
 105.9351450  61.7862690   4.6180750 106.0131870  61.9211460   3.6736470
 106.5493130  61.0778580   4.8108870 123.1361220  63.9326790   9.3659170
 123.2624280  63.6938670   8.4476350 123.1782600  63.1011330   9.8381250
 116.9977960  67.6354790   7.9353980 117.5122630  67.5462800   8.7376410
 116.1547040  67.9814490   8.2281890 122.9885230  55.9859250  10.3308910
 122.3729500  56.4938920   9.8024370 122.6681650  55.0857580  10.2734850
 105.9910970  62.8276860   7.1575210 106.1542010  62.3582220   6.3394580
 106.4563420  62.3200420   7.8224050 110.7629740  51.9582620   2.1935780
 110.3197890  52.7392160   1.8620300 111.3214730  52.2812510   2.9006720
 115.0499550  54.8251140   7.7971100 114.5878920  55.0334160   8.6091040
 114.6477660  54.0110490   7.4941770 120.0504060  56.0460090   8.9267760
 119.1997650  55.7465840   9.2476830 119.8905850  56.2902100   8.0151580
 117.1453770  57.5461840  11.0266550 117.4707180  56.7125590  10.6868780
 117.9334100  58.0690360  11.1744880 112.8005640  52.5029950   4.0525380
 113.0977970  53.4092780   3.9717400 113.3491200  52.0148730   3.4384950
 112.9943170  57.9801770  10.5877300 112.8986770  57.0396500  10.4377700
 113.8375150  58.2016840  10.1925370 108.1253710  54.3915440   8.7411080
 107.7317100  55.2390650   8.9483860 107.4372110  53.7541810   8.9319720
 114.6998760  54.4750410  11.8107820 114.0097080  54.2822610  12.4453910
 115.4431060  54.7585050  12.3432120 105.4270760  52.3143900   2.7741160
 105.1383810  52.8846760   3.4866140 106.1716520  51.8348350   3.1372390
 116.9761730  58.3148850   4.6461740 116.2442850  58.8235660   4.9951840
 116.5786070  57.4978830   4.3450520 113.4139120  54.9903050   3.0514230
 113.4175180  54.5493000   2.2018770 114.3090240  55.3120380   3.1586050
 109.2641500  54.8729540   2.0108440 108.9241550  55.3504770   2.7675490
 108.5018820  54.4194660   1.6509540 117.4387640  53.7682530   4.0584680
 117.4560380  54.2191180   4.9026530 117.1903220  52.8688170   4.2718120
 120.8658390  51.1814710   9.8971060 121.1904160  50.4504370  10.4229040
 120.9014900  50.8628350   8.9952050 107.5649950  62.2028290   9.3171020
 107.1804740  61.5621960   9.9153980 107.8762140  62.9064410   9.8865750
 113.7147090  59.0504830   4.7979640 114.0817220  58.5763400   5.5440980
 113.5252150  59.9246400   5.1387980 111.5046460  58.0913470   7.1163850
 111.2003530  58.9705450   7.3414210 112.4592920  58.1513260   7.1521290
 120.7916230  61.2939820   3.5057090 121.5115350  61.7895110   3.1153200
 120.5898050  60.6157710   2.8610960 116.1735030  61.3648880   9.3926090
 116.1072340  60.4444550   9.1383680 115.5440170  61.4624320  10.1070730
 107.5610190  58.9316210   8.2635210 107.2025130  59.5970060   8.8508550
 107.2664750  58.0999760   8.6347830 110.7623310  59.3900450  11.1474760
 110.4623450  59.5357630  10.2502580 111.5334550  58.8305740  11.0548150
 116.1051760  64.1869450   9.1429890 116.1196300  63.2550410   8.9248800
 115.3976860  64.2729210   9.7819660 122.3162970  60.8276790   8.4898470
 121.5911160  61.4205570   8.2927860 122.8438430  60.8200330   7.6911840
 115.5385660  65.8287020   6.2370390 116.1827880  66.0346400   6.9143810
 115.9015100  65.0675420   5.7841240 116.8117740  63.8319370   4.9547840
 117.4539970  63.1312530   5.0680010 117.3367090  64.6117810   4.7744730
 118.5855360  64.6314270   8.1583900 118.9211600  65.2180960   8.8361820
 117.6655700  64.5006980   8.3881690 106.1358760  52.4209450   8.9407310
 105.4217280  52.6206370   9.5459920 106.5553800  51.6449020   9.3122110
 106.4231350  66.4089710   9.9273840 106.5322470  65.4684450   9.7869230
 105.7711910  66.6744460   9.2787570 114.4143940  64.6805600  11.3271960
 114.0940810  63.9614840  11.8717650 113.7402300  65.3560670  11.4008020
 117.6297540  54.9131760   6.6908760 117.9978360  54.0926970   7.0188330
 116.7695740  54.9733650   7.1064410 114.5899530  57.5671350   6.9146730
 115.0884780  58.0417170   7.5798580 114.7322480  56.6434870   7.1216760
 121.7966390  53.7839310   7.7575120 121.2939990  54.5244710   8.0968930
 122.6123050  54.1723310   7.4411910 122.0913980  66.1981340   2.8790740
 122.2161400  67.0212510   3.3514550 122.9579540  65.9872070   2.5314890
 109.5631510  68.2912550   2.5507870 110.2993990  67.7428010   2.8216440
 109.9472430  69.1568560   2.4113860 108.5689790  67.4758620  11.7393450
 109.3702520  67.7970670  12.1528850 108.0541610  67.1154200  12.4613360
 117.4054420  63.5838490  11.6868860 116.7992580  63.6070090  10.9464610
 117.1008530  62.8521530  12.2236110 118.8354790  67.3118780  10.2978270
 119.7876540  67.2276800  10.2478510 118.6883010  67.9760490  10.9712060
 106.2887600  59.9632080  10.6829500 106.7926620  59.3839360  11.2545730
 105.5495020  60.2472310  11.2205870 113.3425540  61.3703070  10.2165020
 112.5771210  61.9388070  10.1319690 113.5241500  61.0779280   9.3233250
 120.4848890  63.1008400  10.7740040 121.2258360  63.4384160  10.2707500
 119.7221570  63.2700460  10.2209810 108.3210680  58.1061670  11.5779570
 108.3616020  57.8075540  12.4864800 109.1756180  58.5069280  11.4187090
 110.2616490  56.6853770   9.5454060 109.7312950  56.1944720   8.9177400
 110.9304560  57.1137970   9.0111990 119.1594550  61.1523230   9.3095250
 119.5735570  61.3068310  10.1585670 118.2245550  61.2778450   9.4721030
 119.6316720  58.4919390  11.3134400 120.2137490  57.7371710  11.2254880
 119.8078490  59.0226830  10.5365880 110.7488790  53.6516140   9.6251350
 110.6545660  53.0336890   8.9002220 110.1686180  54.3782430   9.3981260
 113.5150230  52.2089380   6.6578740 113.0667530  52.2313640   5.8124290
 112.8815430  51.8108400   7.2549040 113.9209780  61.1043710   7.2791180
 114.3397890  61.9476440   7.1067420 113.0018410  61.2415750   7.0497960
 116.2573680  58.8359890   8.6629020 116.3769890  58.2401030   9.4023860
 117.1167680  58.8729580   8.2430320 118.5961580  59.3897080   7.2391530
 118.0696800  59.9139700   6.6356670 118.9392920  60.0224470   7.8701260
 111.7717200  67.4096720   8.3948910 111.2338290  68.1342780   8.0757610
 112.0251160  66.9327060   7.6046250 113.0242450  55.3781240   9.9204840
 113.6142140  55.0697090  10.6082660 112.2062690  54.9060990  10.0764740
 117.8435880  54.9947050  10.1537860 117.1551400  54.3328590  10.0887850
 118.5641900  54.5485320  10.5986320 114.6279410  68.6447930   8.6535560
 114.5538110  69.5483070   8.9607930 113.7258250  68.3259830   8.6257630
 106.0306700  65.9722520   1.9569180 106.3609710  65.1043580   1.7247820
 106.4597700  66.1781040   2.7874140 106.5196910  66.8393110   4.6950810
 106.0827900  67.0193910   5.5274960 107.0874590  67.5967730   4.5532530
 122.1559090  66.3410110   8.9828120 121.5561080  66.4002670   8.2392040
 122.2852990  65.4015090   9.1124970 120.8410730  63.0662090   7.0804280
 120.0270570  63.4959250   7.3430070 121.2484930  63.6780500   6.4673330
 107.3897270  59.7365910   5.5943030 107.7570310  59.6493310   6.4739050
 106.8208090  58.9732460   5.4949890 122.1901130  58.2050290   8.6073500
 121.9587220  57.9763040   7.7071450 122.4505680  59.1249840   8.5618390
 106.9413270  56.6475000   9.5001450 106.0469320  56.6141760   9.8395160
 107.4810820  56.8461790  10.2652700 120.6289200  53.4306720  11.3853200
 121.5059380  53.4390120  11.7687200 120.6410040  52.6937560  10.7745550
 122.0752470  57.2836260   2.2741220 122.5989950  56.7898910   1.6431390
 122.6611890  57.4186620   3.0188790 122.2542190  57.3676130   5.7960770
 121.3044900  57.3339670   5.9105760 122.4355200  58.2776240   5.5610540
 107.4452980  50.9223330   3.8484670 108.0929170  50.3720710   3.4079830
 107.8654820  51.1766480   4.6700480 121.3405320  51.1164690   7.2054310
 121.9777540  51.7298830   7.5713500 121.4880210  51.1525350   6.2603540
 107.1984980  51.0779000   6.5909990 106.8499800  51.5342820   7.3568170
 106.8672680  50.1836130   6.6732420 108.8049350  64.2498600  10.7563180
 108.7618980  63.8791510  11.6377640 108.9360360  65.1876170  10.8965000
 112.5055380  65.8058190   6.3572900 112.2646740  66.0732750   5.4703420
 113.4458020  65.9763920   6.4123760 114.7109800  52.2690880  10.1129410
 114.6498690  52.8612710  10.8624820 115.6510180  52.1616840   9.9679670
 117.3484360  51.9260940   9.7521700 117.9624770  52.2440230   9.0902780
 117.8933920  51.4409530  10.3717560 123.7659540  67.8252570   7.1583540
 123.2717820  68.2221440   6.4410670 123.1572830  67.2001780   7.5520820
 107.8705620  50.6055200   9.8660760 108.4188610  50.4243250   9.1026870
 107.9360930  49.8149310  10.4017070 108.6437380  67.1960850   7.8760960
 108.0497700  67.0645550   8.6151000 108.6361220  66.3598990   7.4103060
 118.0892400  50.4893080   6.0790990 117.2152240  50.8228190   5.8763920
 117.9803150  50.0166260   6.9042860 118.9964380  52.6963950   7.4632710
 118.6677740  51.8815710   7.0834440 119.9446680  52.6533760   7.3398400
 121.4498990  68.4675990   4.4370280 120.9901960  69.2191800   4.0628300
 120.8211450  67.7482460   4.3785080 108.2749610  64.5619230   6.8269000
 107.5483670  63.9424520   6.7594950 108.3358760  64.9559840   5.9567080
 111.8794710  66.7764230   3.6118410 112.3959730  66.1651590   3.0866670
 112.5292090  67.2793010   4.1029420 114.6190210  67.6672720   4.4387390
 114.9068020  67.4127020   3.5620400 115.1313430  67.1150080   5.0292960
 115.8367220  51.4062920   5.0183900 115.0539010  51.8808420   5.2980660
 115.5430150  50.5017750   4.9097080 120.3888290  52.1086020   3.0632990
 120.8296380  52.0531120   2.2154590 120.1195880  53.0244030   3.1343170
 118.2246420  50.4892120   1.7683000 118.8275790  51.0612330   2.2431520
 117.4839410  51.0531560   1.5456900 114.6862570  68.5888820  11.8055590
 115.6129880  68.3533090  11.8491550 114.6713000  69.4160820  11.3241620
 111.8726180  51.2533570  11.5697470 111.5910450  51.7567170  10.8058290
 112.2545880  50.4555320  11.2039600 118.4741640  50.6687150  12.1477940
 118.3607090  50.9881760  13.0429460 119.2911380  51.0699660  11.8515220
 121.2540130  67.8158680  11.6296630 122.0465450  67.3207910  11.4222590
 121.5473280  68.4948820  12.2372240 117.3799790  39.9136130 151.4804090
 117.2993840  38.9990740 151.2095800 116.9664210  40.4103200 150.7743800
 115.5117830  41.6915150 153.3613360 114.7359930  41.2115590 153.6511930
 116.1630760  41.0120800 153.1869520 119.5325260  46.0975340 152.1412490
 119.0706790  45.3262580 152.4699660 120.3450810  46.1241410 152.6464940
 109.5084920  46.0375050 154.4347140 109.8112960  45.1472790 154.2557360
 110.2528510  46.5945270 154.2069390 107.9375610  36.9636850 148.0231510
 107.0492310  37.3052820 147.9211390 108.2216800  36.7637170 147.1312340
 105.9008620  39.5642500 153.9071210 106.4724730  38.7964700 153.9074850
 105.9010160  39.8631260 152.9977820 115.7588570  48.3833350 151.7616480
 115.1400010  48.8390850 151.1910920 116.6140350  48.5384810 151.3606180
 114.9526820  44.3672340 153.3683520 114.8835100  43.4262280 153.2072650
 115.7146680  44.4573750 153.9406090 115.9831990  37.1742720 153.5952450
 116.3596810  36.3014600 153.4826120 115.8851500  37.5101420 152.7042890
 110.1137000  35.5468350 149.0569890 110.2203750  36.4472080 149.3638650
 109.2029360  35.4986320 148.7664540 119.7656110  34.6693160 150.5280790
 120.5865730  34.1789730 150.5706270 119.7990190  35.2590820 151.2812630
 111.9544730  38.5154720 153.3895070 112.4622950  39.0135690 154.0300090
 112.4857970  37.7389920 153.2134430 116.6251920  43.2672590 149.1548390
 116.0069190  43.7322040 148.5911110 117.1375170  43.9600070 149.5717900
 120.0017590  36.6093540 153.3008330 119.2973160  36.8978430 153.8811440
 120.3629750  37.4193650 152.9407890 105.9935120  43.9529120 146.5288020
 105.6163100  44.4416220 145.7972920 106.2508190  44.6254400 147.1594550
 123.0704510  36.0548330 153.6917540 122.1229420  36.0887310 153.8232970
 123.3954500  36.8687280 154.0766900 113.6024050  32.3545510 151.9873530
 113.9099030  31.7992400 151.2709030 112.6724750  32.4889970 151.8046520
 119.1539110  48.0712800 154.2780990 119.1666270  47.6675090 153.4103250
 118.6014330  48.8460090 154.1742420 120.4484530  44.7929020 149.3671160
 120.3380860  43.8503350 149.4920580 120.4452780  45.1544660 150.2533920
 115.9904810  40.4194340 148.7233650 115.0634090  40.3531720 148.9522120
 116.1429630  41.3574470 148.6088890 115.9773890  36.6911340 145.7200810
 115.0377560  36.8525300 145.8053270 116.2957150  37.4097020 145.1736800
 120.0202100  41.9814640 149.2268900 119.4014520  41.6434190 148.5795200
 120.0026550  41.3374400 149.9348090 111.5961450  40.9459080 151.5053380
 111.1918450  40.2336330 151.0099280 111.6824570  40.6012320 152.3941420
 112.0643150  44.6326640 153.6692590 111.7671440  44.0272110 152.9900370
 113.0142970  44.6703950 153.5581950 118.1966800  41.2201450 146.2341650
 118.6360080  40.3823880 146.0879470 118.9095220  41.8530850 146.3205790
 116.3062180  46.1597520 150.2022890 116.7458090  46.9021850 149.7878280
 116.2449070  46.4024090 151.1261850 121.7783940  32.4744260 144.5482690
 121.4656600  32.5671090 145.4481760 122.5396410  33.0525290 144.4980120
 108.2966080  39.8404060 149.0060030 108.1763680  40.5666150 148.3941300
 107.9866970  39.0706970 148.5287940 107.1799080  44.7119390 151.2234850
 106.7727160  44.8533980 150.3688450 108.0712090  44.4279550 151.0206060
 118.9732360  49.1466640 147.5585900 118.8133500  48.8569580 148.4567730
 118.8079070  48.3706770 147.0231130 111.4520740  48.9265170 149.3357520
 111.2763220  48.0100710 149.1225320 110.5976480  49.2852460 149.5755320
 118.6758490  46.6554200 146.1183900 117.9823650  46.6531490 145.4586180
 119.4181350  46.2313520 145.6878070 118.2408420  48.2816910 150.1932390
 118.6965370  47.5006290 150.5071010 118.5800940  48.9923730 150.7373570
 110.7629740  33.1839130 152.3883700 110.3197890  33.9648670 152.0568220
 111.3214730  33.5069020 153.0954640 113.8788560  32.8049830 147.2689530
 113.2542740  32.8009700 147.9942840 113.7918680  31.9380790 146.8725500
 112.8005640  33.7286460 154.2473300 113.0977970  34.6349290 154.1665320
 113.3491200  33.2405240 153.6332870 110.5543960  38.3072700 150.1164950
 110.3284880  38.0909870 151.0211570 109.7736490  38.7401160 149.7710920
 117.7841720  38.3136070 148.7155600 117.1850610  39.0371870 148.5319220
 118.3321330  38.2512850 147.9332050 116.3906590  36.9499610 150.7458880
 116.7836160  37.2671810 149.9327570 116.7523440  36.0711490 150.8603400
 105.4270760  33.5400410 152.9689080 105.1383810  34.1103270 153.6814060
 106.1716520  33.0604860 153.3320310 105.6140990  37.4820530 144.1791800
 105.5315660  38.4251290 144.3206790 105.2624050  37.3395440 143.3004150
 113.4139120  36.2159560 153.2462150 113.4175180  35.7749510 152.3966690
 114.3090240  36.5376890 153.3533970 109.2641500  36.0986050 152.2056360
 108.9241550  36.5761280 152.9623410 108.5018820  35.6451170 151.8457460
 113.4759270  37.2171640 146.2368910 113.5972090  37.1758120 147.1854730
 113.0907780  38.0795790 146.0815640 112.4880770  39.5272780 145.6352210
 111.9197670  39.0791030 145.0088120 113.1969770  39.8865560 145.1017360
 106.5787580  35.0205030 151.1221030 106.2934500  34.6560700 151.9599650
 106.5166440  34.2885490 150.5084170 110.0328250  43.5230970 147.9078620
 109.2590510  42.9828590 147.7477340 110.7622880  43.0037580 147.5696380
 120.7916230  42.5196330 153.7005010 121.5115350  43.0151620 153.3101120
 120.5898050  41.8414220 153.0558880 116.2526170  33.9134290 147.8434400
 115.4390780  33.4147460 147.7679710 116.0588120  34.7532540 147.4270750
 118.9674560  38.2853940 146.1396560 119.8554180  38.5971170 145.9647900
 118.9379650  37.4126190 145.7477140 110.0765650  43.1911350 151.5457430
 110.5944320  42.3879610 151.4914320 109.6249670  43.1290490 152.3874260
 114.9635150  44.4577630 146.8184730 115.3050850  45.2019860 146.3228050
 114.1347860  44.7708750 147.1809560 121.2388830  39.5965780 145.6076420
 121.1552550  40.0280000 144.7572860 121.9583020  40.0564130 146.0403240
 122.2676080  46.4508040 148.3358550 121.6252240  45.7963660 148.6102270
 121.8806740  46.8563130 147.5599220 117.8462560  43.7793470 152.1830240
 118.1986380  43.1821600 151.5231610 116.9624890  43.4537700 152.3538490
 113.9325840  44.5391160 149.5900650 114.6196970  45.0860370 149.9708240
 113.1458260  45.0831890 149.6250260 106.0718240  40.1563980 145.0817730
 106.9413090  40.4388780 145.3653650 105.5808560  40.9699850 144.9666540
 113.2353050  41.5437190 149.2026010 113.6915830  42.3542440 149.4286200
 112.8841260  41.2260330 150.0344500 109.1364830  31.8874840 149.6748530
 109.0079460  31.8792740 150.6233450 108.3126850  32.2257930 149.3239540
 120.6573460  45.3424500 144.8734900 120.4311040  44.6254940 145.4659540
 120.2669660  45.0936940 144.0356650 106.4389490  49.3691360 145.6479360
 106.7987130  49.9680700 144.9936630 106.2981830  49.9151250 146.4214390
 120.2389710  43.2596440 146.5349060 119.9511410  43.7209130 147.3226940
 121.0341880  42.7994210 146.8033280 112.4558110  46.7522560 146.4653030
 112.4468210  47.4852250 145.8497540 111.5356470  46.5054140 146.5579990
 108.0564750  41.9737450 147.2099790 107.4492700  42.7136350 147.2195090
 108.5314100  42.0636810 146.3837990 120.9959570  35.0945210 147.6944240
 120.3672730  35.1990880 146.9802470 120.5011490  35.3141990 148.4838120
 115.4417710  46.8150800 145.1278220 115.5429690  46.6114790 144.1980200
 114.5419450  46.5609080 145.3326000 112.9643600  37.3731160 149.1102120
 112.2559750  37.8417500 149.5515730 113.2488080  36.7153170 149.7447310
 116.9959030  34.0981820 150.5497910 116.8726810  34.1167950 149.6007420
 117.9443590  34.1460760 150.6696310 114.0835820  49.3337120 149.8225890
 114.3377320  49.2958510 148.9005260 113.1348300  49.2070450 149.8154140
 111.1678620  35.6816240 146.4852830 112.0169150  36.1186390 146.4193020
 110.8009890  35.9936500 147.3124890 120.0888400  40.2529000 151.3984400
 119.1478540  40.2679230 151.5732090 120.4032470  39.4664960 151.8444700
 110.0670040  41.9348600 144.9588360 110.8333310  41.8229960 145.5213790
 110.1444730  41.2386570 144.3065130 108.7616800  39.3673670 145.6421250
 108.8420390  38.4201180 145.7538650 109.6536550  39.6980550 145.7481910
 122.0913980  47.4237850 153.0738660 122.2161400  48.2469020 153.5462470
 122.9579540  47.2128580 152.7262810 109.5631510  49.5169060 152.7455790
 110.2993990  48.9684520 153.0164360 109.9472430  50.3825070 152.6061780
 106.4476990  45.5842630 148.6197300 105.5216770  45.8263770 148.6102710
 106.9133420  46.4116890 148.4982050 112.6733820  48.6899370 144.5681360
 113.4662430  48.9788200 144.1163150 112.1538170  48.2591540 143.8893840
 121.7263990  47.9169500 145.9918100 121.4405500  47.5034640 145.1772280
 121.5283540  48.8457210 145.8718620 113.1911220  43.9102780 144.4323710
 113.0861860  43.2955130 145.1585090 113.0235440  43.3868670 143.6486720
 116.4313950  42.9722810 145.0365700 115.8824050  43.4192110 145.6808440
 117.0533210  42.4672060 145.5603370 112.0989070  41.9313730 146.9331000
 112.5205490  41.7653600 147.7762390 112.2239910  41.1213960 146.4386140
 114.6116710  40.9551340 144.1808100 115.1322370  40.2400360 143.8149250
 115.2585110  41.5937210 144.4808610 110.9947970  38.0046960 143.8789160
 110.7937030  37.1414320 144.2402500 110.8240020  37.9180320 142.9410760
 118.4736280  32.8155190 146.4076040 118.7538570  31.9723090 146.7635460
 117.7002010  33.0478300 146.9214790 109.7930770  35.1047580 143.8667040
 110.0956670  35.1115010 142.9586190 110.5325360  34.7545440 144.3634700
 113.0115700  34.0482200 144.8523240 112.6637700  33.3706190 144.2725690
 113.2128470  33.5871710 145.6666630 115.1764740  49.0362950 146.4709840
 116.0715530  49.3747920 146.4928600 115.2082370  48.3142360 145.8434120
 108.8160900  44.4090000 144.6996840 109.2535770  44.9519670 145.3554420
 109.3008630  43.5836950 144.7093180 106.0306700  47.1979030 152.1517100
 106.3609710  46.3300090 151.9195740 106.4597700  47.4037550 152.9822060
 110.6268620  45.5288040 149.8119070 110.3264160  45.4053010 150.7122980
 110.5206110  44.6696630 149.4034800 123.3960540  45.3084440 144.5145750
 122.5653500  45.3761090 144.9852980 123.5732370  46.1988560 144.2112610
 122.8517000  42.0531920 147.0179950 123.6135910  42.6228570 147.1239640
 122.8671370  41.4859120 147.7888260 106.3521340  40.5769850 151.2487610
 105.6970180  40.3081490 150.6047310 107.1899290  40.4674330 150.7989590
 123.8576970  42.9082020 151.8621880 124.2285800  42.1249340 151.4557850
 124.4978900  43.5971120 151.6839180 122.9036170  42.3466290 144.1752470
 123.1785010  43.2545170 144.0471690 122.7146910  42.2828820 145.1114460
 119.3011780  35.3711140 145.4706100 119.7196660  35.1842120 144.6302760
 118.9947840  34.5190190 145.7809030 122.8001510  40.2835280 149.1681900
 122.4245110  39.5163210 148.7363190 122.0704630  40.6657980 149.6556830
 105.5659420  37.7868780 147.1912940 104.6623500  38.0498980 147.0164600
 106.0500040  38.0579950 146.4112900 122.0752470  38.5092770 152.4689140
 122.5989950  38.0155420 151.8379310 122.6611890  38.6443130 153.2136710
 108.1086630  36.8434320 145.1007320 108.8178330  36.4217540 144.6154600
 107.3926570  36.9109550 144.4690670 107.7560790  32.8973650 144.1409970
 108.4788920  33.4382590 144.4591190 108.0285310  32.6237070 143.2651510
 121.5652440  37.7666120 148.4081550 122.0611560  37.5336990 149.1930430
 121.3668510  36.9277960 147.9919190 122.9939600  36.4027070 150.9419230
 122.8838880  36.2483110 151.8801500 123.7547190  35.8748010 150.6994640
 123.8829870  34.2334990 144.1825370 124.8079180  34.1016170 143.9743660
 123.8605660  34.3127810 145.1361820 123.9568360  35.0045650 146.8082080
 123.1619860  34.9390770 147.3374990 124.1611640  35.9396290 146.7967430
 120.8986780  49.0437200 150.8020470 121.4945850  48.7221770 150.1254890
 121.1564930  48.5709020 151.5933740 111.8794710  48.0020740 153.8066330
 112.3959730  47.3908100 153.2814590 112.5292090  48.5049520 154.2977340
 120.3888290  33.3342530 153.2580910 120.8296380  33.2787630 152.4102510
 120.1195880  34.2500540 153.3291090 122.2526860  32.9657770 151.2689730
 122.1915260  32.0218990 151.1220750 123.0318890  33.0737860 151.8143190
 106.5579610  49.1050130 150.2313680 106.3901650  48.4720810 150.9295570
 105.6914120  49.3109530 149.8807870 107.1807630  32.9366910 147.7345540
 107.9386990  33.0495790 147.1609570 106.7184800  33.7736110 147.6888970
 113.7221440  35.0506180 150.7247850 112.9095950  34.6763070 150.3843730
 114.2263080  34.2951260 151.0269040 118.2246420  31.7148630 151.9630920
 118.8275790  32.2868840 152.4379440 117.4839410  32.2788070 151.7404820
 121.3681020  32.1170190 147.2371200 121.5631650  33.0153640 147.5038630
 120.5810890  31.8857270 147.7304150 108.1642310  47.7983360 147.6763820
 107.6389930  48.1791390 146.9725780 108.0886890  48.4234130 148.3973530
 109.5532780  33.4630960 146.2747510 110.0825540  32.6760760 146.1455460
 110.1861100  34.1422150 146.5083040 111.7470620  33.2006100 149.3292900
 111.1173360  32.4993410 149.4963030 111.2075760  33.9610230 149.1126060
 122.9207630  49.3570900 148.9977760 123.0959820  48.6708640 148.3538680
 122.2229200  49.8817950 148.6054430 110.7635280  49.7465740 146.5513070
 111.4954100  49.4625020 146.0036960 111.0228950  49.5079020 147.4412450
 109.9250070  45.8630470 146.5559400 109.2958950  46.3315570 147.1045230
 110.0397900  45.0179690 146.9905590 117.3799790  39.9136130 132.7060600
 117.2993840  38.9990740 132.4352310 116.9664210  40.4103200 132.0000310
 115.5117830  41.6915150 134.5869870 114.7359930  41.2115590 134.8768440
 116.1630760  41.0120800 134.4126030 109.5283660  42.0034960 135.4645630
 108.6968540  41.7483670 135.8642140 110.1364640  42.0745730 136.2003550
 119.5325260  46.0975340 133.3669000 119.0706790  45.3262580 133.6956170
 120.3450810  46.1241410 133.8721450 109.5084920  46.0375050 135.6603650
 109.8112960  45.1472790 135.4813870 110.2528510  46.5945270 135.4325900
 107.9375610  36.9636850 129.2488020 107.0492310  37.3052820 129.1467900
 108.2216800  36.7637170 128.3568850 105.9008620  39.5642500 135.1327720
 106.4724730  38.7964700 135.1331360 105.9010160  39.8631260 134.2234330
 115.7588570  48.3833350 132.9872990 115.1400010  48.8390850 132.4167430
 116.6140350  48.5384810 132.5862690 114.9526820  44.3672340 134.5940030
 114.8835100  43.4262280 134.4329160 115.7146680  44.4573750 135.1662600
 107.1433490  34.9726860 136.9196650 106.9636330  34.0752610 137.1999410
 106.7413570  35.5198730 137.5943600 115.9831990  37.1742720 134.8208960
 116.3596810  36.3014600 134.7082630 115.8851500  37.5101420 133.9299400
 110.1137000  35.5468350 130.2826400 110.2203750  36.4472080 130.5895160
 109.2029360  35.4986320 129.9921050 119.7656110  34.6693160 131.7537300
 120.5865730  34.1789730 131.7962780 119.7990190  35.2590820 132.5069140
 107.7620160  37.4687360 135.5278990 108.4430270  37.7325730 136.1466390
 107.4468210  36.6288230 135.8617000 111.9544730  38.5154720 134.6151580
 112.4622950  39.0135690 135.2556600 112.4857970  37.7389920 134.4390940
 124.0555660  36.6859910 138.3180930 123.3507830  37.0741620 137.7996040
 124.3213580  37.3810200 138.9201860 110.2380830  33.1553280 138.8815000
 110.2399270  33.6725670 138.0760900 109.4085140  32.6783460 138.8584930
 116.6251920  43.2672590 130.3804900 116.0069190  43.7322040 129.8167620
 117.1375170  43.9600070 130.7974410 111.4883680  42.7948460 137.0588500
 111.1553060  43.4217380 137.7009570 111.6650360  43.3210340 136.2790170
 120.0017590  36.6093540 134.5264840 119.2973160  36.8978430 135.1067950
 120.3629750  37.4193650 134.1664400 109.9196160  34.8663240 136.8885450
 110.2612970  35.7105290 136.5939320 108.9811970  35.0146980 137.0050790
 110.7002780  44.7629260 138.8737680 111.3176780  45.4380340 138.5922130
 109.8395900  45.1717240 138.7825180 121.6180370  46.2268670 136.7892320
 120.9343890  46.8967780 136.7808990 122.1574660  46.4249320 136.0237180
 123.0704510  36.0548330 134.9174050 122.1229420  36.0887310 135.0489480
 123.3954500  36.8687280 135.3023410 113.6024050  32.3545510 133.2130040
 113.9099030  31.7992400 132.4965540 112.6724750  32.4889970 133.0303030
 119.1539110  48.0712800 135.5037500 119.1666270  47.6675090 134.6359760
 118.6014330  48.8460090 135.3998930 120.4484530  44.7929020 130.5927670
 120.3380860  43.8503350 130.7177090 120.4452780  45.1544660 131.4790430
 118.5524550  42.9742640 136.8320110 118.9693340  42.7602750 135.9973570
 119.2764370  43.2315430 137.4028730 115.9904810  40.4194340 129.9490160
 115.0634090  40.3531720 130.1778630 116.1429630  41.3574470 129.8345400
 115.9773890  36.6911340 126.9457320 115.0377560  36.8525300 127.0309780
 116.2957150  37.4097020 126.3993310 122.4986650  41.3729860 136.9236350
 121.6705280  41.4422950 136.4486480 123.0937130  41.9584170 136.4552180
 120.0202100  41.9814640 130.4525410 119.4014520  41.6434190 129.8051710
 120.0026550  41.3374400 131.1604600 119.4628660  38.1599180 137.8691220
 119.0499840  38.9852890 138.1231210 118.7304610  37.5744220 137.6767580
 111.5961450  40.9459080 132.7309890 111.1918450  40.2336330 132.2355790
 111.6824570  40.6012320 133.6197930 112.0643150  44.6326640 134.8949100
 111.7671440  44.0272110 134.2156880 113.0142970  44.6703950 134.7838460
 110.3090070  37.7202290 136.5108930 110.8604660  37.8297630 135.7362180
 110.8233580  38.0939890 137.2264160 120.1528760  48.2058510 138.5572200
 119.6759320  49.0130700 138.3644810 119.4690550  47.5536840 138.7098410
 111.1561580  44.3708330 141.5456900 110.2590110  44.5948300 141.7930300
 111.1814450  44.4943270 140.5968300 118.1966800  41.2201450 127.4598160
 118.6360080  40.3823880 127.3135980 118.9095220  41.8530850 127.5462300
 109.9832800  41.2421650 140.1214270 109.8440570  42.1144450 140.4901670
 109.1014160  40.8994460 139.9762210 116.3062180  46.1597520 131.4279400
 116.7458090  46.9021850 131.0134790 116.2449070  46.4024090 132.3518360
 111.7813150  47.1843350 142.3299420 111.7528580  47.5886300 141.4627850
 111.6178120  46.2553710 142.1671020 121.7783940  32.4744260 125.7739200
 121.4656600  32.5671090 126.6738270 122.5396410  33.0525290 125.7236630
 108.2966080  39.8404060 130.2316540 108.1763680  40.5666150 129.6197810
 107.9866970  39.0706970 129.7544450 123.7327970  47.9670450 143.6263590
 124.2087690  48.4453340 144.3052670 124.3535130  47.8987940 142.9009090
 105.9351450  43.0119200 136.0385180 106.0131870  43.1467970 135.0940900
 106.5493130  42.3035090 136.2313300 107.1799080  44.7119390 132.4491360
 106.7727160  44.8533980 131.5944960 108.0712090  44.4279550 132.2462570
 123.1361220  45.1583300 140.7863600 123.2624280  44.9195180 139.8680780
 123.1782600  44.3267840 141.2585680 116.9977960  48.8611300 139.3558410
 117.5122630  48.7719310 140.1580840 116.1547040  49.2071000 139.6486320
 118.9732360  49.1466640 128.7842410 118.8133500  48.8569580 129.6824240
 118.8079070  48.3706770 128.2487640 118.6758490  46.6554200 127.3440410
 117.9823650  46.6531490 126.6842690 119.4181350  46.2313520 126.9134580
 118.2408420  48.2816910 131.4188900 118.6965370  47.5006290 131.7327520
 118.5800940  48.9923730 131.9630080 122.9885230  37.2115760 141.7513340
 122.3729500  37.7195430 141.2228800 122.6681650  36.3114090 141.6939280
 105.9910970  44.0533370 138.5779640 106.1542010  43.5838730 137.7599010
 106.4563420  43.5456930 139.2428480 110.7629740  33.1839130 133.6140210
 110.3197890  33.9648670 133.2824730 111.3214730  33.5069020 134.3211150
 115.0499550  36.0507650 139.2175530 114.5878920  36.2590670 140.0295470
 114.6477660  35.2367000 138.9146200 120.0504060  37.2716600 140.3472190
 119.1997650  36.9722350 140.6681260 119.8905850  37.5158610 139.4356010
 117.1453770  38.7718350 142.4470980 117.4707180  37.9382100 142.1073210
 117.9334100  39.2946870 142.5949310 113.8788560  32.8049830 128.4946040
 113.2542740  32.8009700 129.2199350 113.7918680  31.9380790 128.0982010
 112.8005640  33.7286460 135.4729810 113.0977970  34.6349290 135.3921830
 113.3491200  33.2405240 134.8589380 110.5543960  38.3072700 131.3421460
 110.3284880  38.0909870 132.2468080 109.7736490  38.7401160 130.9967430
 117.7841720  38.3136070 129.9412110 117.1850610  39.0371870 129.7575730
 118.3321330  38.2512850 129.1588560 112.9943170  39.2058280 142.0081730
 112.8986770  38.2653010 141.8582130 113.8375150  39.4273350 141.6129800
 116.3906590  36.9499610 131.9715390 116.7836160  37.2671810 131.1584080
 116.7523440  36.0711490 132.0859910 108.1253710  35.6171950 140.1615510
 107.7317100  36.4647160 140.3688290 107.4372110  34.9798320 140.3524150
 114.6998760  35.7006920 143.2312250 114.0097080  35.5079120 143.8658340
 115.4431060  35.9841560 143.7636550 105.4270760  33.5400410 134.1945590
 105.1383810  34.1103270 134.9070570 106.1716520  33.0604860 134.5576820
 105.6140990  37.4820530 125.4048310 105.5315660  38.4251290 125.5463300
 105.2624050  37.3395440 124.5260660 116.9761730  39.5405360 136.0666170
 116.2442850  40.0492170 136.4156270 116.5786070  38.7235340 135.7654950
 113.4139120  36.2159560 134.4718660 113.4175180  35.7749510 133.6223200
 114.3090240  36.5376890 134.5790480 109.2641500  36.0986050 133.4312870
 108.9241550  36.5761280 134.1879920 108.5018820  35.6451170 133.0713970
 113.4759270  37.2171640 127.4625420 113.5972090  37.1758120 128.4111240
 113.0907780  38.0795790 127.3072150 117.4387640  34.9939040 135.4789110
 117.4560380  35.4447690 136.3230960 117.1903220  34.0944680 135.6922550
 112.4880770  39.5272780 126.8608720 111.9197670  39.0791030 126.2344630
 113.1969770  39.8865560 126.3273870 120.8658390  32.4071220 141.3175490
 121.1904160  31.6760880 141.8433470 120.9014900  32.0884860 140.4156480
 107.5649950  43.4284800 140.7375450 107.1804740  42.7878470 141.3358410
 107.8762140  44.1320920 141.3070180 113.7147090  40.2761340 136.2184070
 114.0817220  39.8019910 136.9645410 113.5252150  41.1502910 136.5592410
 106.5787580  35.0205030 132.3477540 106.2934500  34.6560700 133.1856160
 106.5166440  34.2885490 131.7340680 111.5046460  39.3169980 138.5368280
 111.2003530  40.1961960 138.7618640 112.4592920  39.3769770 138.5725720
 110.0328250  43.5230970 129.1335130 109.2590510  42.9828590 128.9733850
 110.7622880  43.0037580 128.7952890 120.7916230  42.5196330 134.9261520
 121.5115350  43.0151620 134.5357630 120.5898050  41.8414220 134.2815390
 116.2526170  33.9134290 129.0690910 115.4390780  33.4147460 128.9936220
 116.0588120  34.7532540 128.6527260 116.1735030  42.5905390 140.8130520
 116.1072340  41.6701060 140.5588110 115.5440170  42.6880830 141.5275160
 118.9674560  38.2853940 127.3653070 119.8554180  38.5971170 127.1904410
 118.9379650  37.4126190 126.9733650 110.0765650  43.1911350 132.7713940
 110.5944320  42.3879610 132.7170830 109.6249670  43.1290490 133.6130770
 114.9635150  44.4577630 128.0441240 115.3050850  45.2019860 127.5484560
 114.1347860  44.7708750 128.4066070 107.5610190  40.1572720 139.6839640
 107.2025130  40.8226570 140.2712980 107.2664750  39.3256270 140.0552260
 110.7623310  40.6156960 142.5679190 110.4623450  40.7614140 141.6707010
 111.5334550  40.0562250 142.4752580 116.1051760  45.4125960 140.5634320
 116.1196300  44.4806920 140.3453230 115.3976860  45.4985720 141.2024090
 121.2388830  39.5965780 126.8332930 121.1552550  40.0280000 125.9829370
 121.9583020  40.0564130 127.2659750 122.3162970  42.0533300 139.9102900
 121.5911160  42.6462080 139.7132290 122.8438430  42.0456840 139.1116270
 122.2676080  46.4508040 129.5615060 121.6252240  45.7963660 129.8358780
 121.8806740  46.8563130 128.7855730 117.8462560  43.7793470 133.4086750
 118.1986380  43.1821600 132.7488120 116.9624890  43.4537700 133.5795000
 113.9325840  44.5391160 130.8157160 114.6196970  45.0860370 131.1964750
 113.1458260  45.0831890 130.8506770 106.0718240  40.1563980 126.3074240
 106.9413090  40.4388780 126.5910160 105.5808560  40.9699850 126.1923050
 113.2353050  41.5437190 130.4282520 113.6915830  42.3542440 130.6542710
 112.8841260  41.2260330 131.2601010 115.5385660  47.0543530 137.6574820
 116.1827880  47.2602910 138.3348240 115.9015100  46.2931930 137.2045670
 109.1364830  31.8874840 130.9005040 109.0079460  31.8792740 131.8489960
 108.3126850  32.2257930 130.5496050 116.8117740  45.0575880 136.3752270
 117.4539970  44.3569040 136.4884440 117.3367090  45.8374320 136.1949160
 120.6573460  45.3424500 126.0991410 120.4311040  44.6254940 126.6916050
 120.2669660  45.0936940 125.2613160 118.5855360  45.8570780 139.5788330
 118.9211600  46.4437470 140.2566250 117.6655700  45.7263490 139.8086120
 106.1358760  33.6465960 140.3611740 105.4217280  33.8462880 140.9664350
 106.5553800  32.8705530 140.7326540 120.2389710  43.2596440 127.7605570
 119.9511410  43.7209130 128.5483450 121.0341880  42.7994210 128.0289790
 106.4231350  47.6346220 141.3478270 106.5322470  46.6940960 141.2073660
 105.7711910  47.9000970 140.6992000 114.4143940  45.9062110 142.7476390
 114.0940810  45.1871350 143.2922080 113.7402300  46.5817180 142.8212450
 112.4558110  46.7522560 127.6909540 112.4468210  47.4852250 127.0754050
 111.5356470  46.5054140 127.7836500 108.0564750  41.9737450 128.4356300
 107.4492700  42.7136350 128.4451600 108.5314100  42.0636810 127.6094500
 117.6297540  36.1388270 138.1113190 117.9978360  35.3183480 138.4392760
 116.7695740  36.1990160 138.5268840 120.9959570  35.0945210 128.9200750
 120.3672730  35.1990880 128.2058980 120.5011490  35.3141990 129.7094630
 115.4417710  46.8150800 126.3534730 115.5429690  46.6114790 125.4236710
 114.5419450  46.5609080 126.5582510 112.9643600  37.3731160 130.3358630
 112.2559750  37.8417500 130.7772240 113.2488080  36.7153170 130.9703820
 114.5899530  38.7927860 138.3351160 115.0884780  39.2673680 139.0003010
 114.7322480  37.8691380 138.5421190 116.9959030  34.0981820 131.7754420
 116.8726810  34.1167950 130.8263930 117.9443590  34.1460760 131.8952820
 114.0835820  49.3337120 131.0482400 114.3377320  49.2958510 130.1261770
 113.1348300  49.2070450 131.0410650 111.1678620  35.6816240 127.7109340
 112.0169150  36.1186390 127.6449530 110.8009890  35.9936500 128.5381400
 121.7966390  35.0095820 139.1779550 121.2939990  35.7501220 139.5173360
 122.6123050  35.3979820 138.8616340 120.0888400  40.2529000 132.6240910
 119.1478540  40.2679230 132.7988600 120.4032470  39.4664960 133.0701210
 110.0670040  41.9348600 126.1844870 110.8333310  41.8229960 126.7470300
 110.1444730  41.2386570 125.5321640 108.7616800  39.3673670 126.8677760
 108.8420390  38.4201180 126.9795160 109.6536550  39.6980550 126.9738420
 122.0913980  47.4237850 134.2995170 122.2161400  48.2469020 134.7718980
 122.9579540  47.2128580 133.9519320 109.5631510  49.5169060 133.9712300
 110.2993990  48.9684520 134.2420870 109.9472430  50.3825070 133.8318290
 106.4476990  45.5842630 129.8453810 105.5216770  45.8263770 129.8359220
 106.9133420  46.4116890 129.7238560 108.5689790  48.7015130 143.1597880
 109.3702520  49.0227180 143.5733280 108.0541610  48.3410710 143.8817790
 117.4054420  44.8095000 143.1073290 116.7992580  44.8326600 142.3669040
 117.1008530  44.0778040 143.6440540 118.8354790  48.5375290 141.7182700
 119.7876540  48.4533310 141.6682940 118.6883010  49.2017000 142.3916490
 121.7263990  47.9169500 127.2174610 121.4405500  47.5034640 126.4028790
 121.5283540  48.8457210 127.0975130 106.2887600  41.1888590 142.1033930
 106.7926620  40.6095870 142.6750160 105.5495020  41.4728820 142.6410300
 113.1911220  43.9102780 125.6580220 113.0861860  43.2955130 126.3841600
 113.0235440  43.3868670 124.8743230 113.3425540  42.5959580 141.6369450
 112.5771210  43.1644580 141.5524120 113.5241500  42.3035790 140.7437680
 116.4313950  42.9722810 126.2622210 115.8824050  43.4192110 126.9064950
 117.0533210  42.4672060 126.7859880 120.4848890  44.3264910 142.1944470
 121.2258360  44.6640670 141.6911930 119.7221570  44.4956970 141.6414240
 108.3210680  39.3318180 142.9984000 108.3616020  39.0332050 143.9069230
 109.1756180  39.7325790 142.8391520 112.0989070  41.9313730 128.1587510
 112.5205490  41.7653600 129.0018900 112.2239910  41.1213960 127.6642650
 110.2616490  37.9110280 140.9658490 109.7312950  37.4201230 140.3381830
 110.9304560  38.3394480 140.4316420 114.6116710  40.9551340 125.4064610
 115.1322370  40.2400360 125.0405760 115.2585110  41.5937210 125.7065120
 119.1594550  42.3779740 140.7299680 119.5735570  42.5324820 141.5790100
 118.2245550  42.5034960 140.8925460 119.6316720  39.7175900 142.7338830
 120.2137490  38.9628220 142.6459310 119.8078490  40.2483340 141.9570310
 110.7488790  34.8772650 141.0455780 110.6545660  34.2593400 140.3206650
 110.1686180  35.6038940 140.8185690 113.5150230  33.4345890 138.0783170
 113.0667530  33.4570150 137.2328720 112.8815430  33.0364910 138.6753470
 113.9209780  42.3300220 138.6995610 114.3397890  43.1732950 138.5271850
 113.0018410  42.4672260 138.4702390 116.2573680  40.0616400 140.0833450
 116.3769890  39.4657540 140.8228290 117.1167680  40.0986090 139.6634750
 118.5961580  40.6153590 138.6595960 118.0696800  41.1396210 138.0561100
 118.9392920  41.2480980 139.2905690 110.9947970  38.0046960 125.1045670
 110.7937030  37.1414320 125.4659010 110.8240020  37.9180320 124.1667270
 111.7717200  48.6353230 139.8153340 111.2338290  49.3599290 139.4962040
 112.0251160  48.1583570 139.0250680 113.0242450  36.6037750 141.3409270
 113.6142140  36.2953600 142.0287090 112.2062690  36.1317500 141.4969170
 117.8435880  36.2203560 141.5742290 117.1551400  35.5585100 141.5092280
 118.5641900  35.7741830 142.0190750 118.4736280  32.8155190 127.6332550
 118.7538570  31.9723090 127.9891970 117.7002010  33.0478300 128.1471300
 109.7930770  35.1047580 125.0923550 110.0956670  35.1115010 124.1842700
 110.5325360  34.7545440 125.5891210 114.6279410  49.8704440 140.0739990
 114.5538110  50.7739580 140.3812360 113.7258250  49.5516340 140.0462060
 113.0115700  34.0482200 126.0779750 112.6637700  33.3706190 125.4982200
 113.2128470  33.5871710 126.8923140 115.1764740  49.0362950 127.6966350
 116.0715530  49.3747920 127.7185110 115.2082370  48.3142360 127.0690630
 108.8160900  44.4090000 125.9253350 109.2535770  44.9519670 126.5810930
 109.3008630  43.5836950 125.9349690 106.0306700  47.1979030 133.3773610
 106.3609710  46.3300090 133.1452250 106.4597700  47.4037550 134.2078570
 110.6268620  45.5288040 131.0375580 110.3264160  45.4053010 131.9379490
 110.5206110  44.6696630 130.6291310 106.5196910  48.0649620 136.1155240
 106.0827900  48.2450420 136.9479390 107.0874590  48.8224240 135.9736960
 122.1559090  47.5666620 140.4032550 121.5561080  47.6259180 139.6596470
 122.2852990  46.6271600 140.5329400 123.3960540  45.3084440 125.7402260
 122.5653500  45.3761090 126.2109490 123.5732370  46.1988560 125.4369120
 122.8517000  42.0531920 128.2436460 123.6135910  42.6228570 128.3496150
 122.8671370  41.4859120 129.0144770 106.3521340  40.5769850 132.4744120
 105.6970180  40.3081490 131.8303820 107.1899290  40.4674330 132.0246100
 123.8576970  42.9082020 133.0878390 124.2285800  42.1249340 132.6814360
 124.4978900  43.5971120 132.9095690 120.8410730  44.2918600 138.5008710
 120.0270570  44.7215760 138.7634500 121.2484930  44.9037010 137.8877760
 122.9036170  42.3466290 125.4008980 123.1785010  43.2545170 125.2728200
 122.7146910  42.2828820 126.3370970 119.3011780  35.3711140 126.6962610
 119.7196660  35.1842120 125.8559270 118.9947840  34.5190190 127.0065540
 122.8001510  40.2835280 130.3938410 122.4245110  39.5163210 129.9619700
 122.0704630  40.6657980 130.8813340 107.3897270  40.9622420 137.0147460
 107.7570310  40.8749820 137.8943480 106.8208090  40.1988970 136.9154320
 122.1901130  39.4306800 140.0277930 121.9587220  39.2019550 139.1275880
 122.4505680  40.3506350 139.9822820 106.9413270  37.8731510 140.9205880
 106.0469320  37.8398270 141.2599590 107.4810820  38.0718300 141.6857130
 120.6289200  34.6563230 142.8057630 121.5059380  34.6646630 143.1891630
 120.6410040  33.9194070 142.1949980 105.5659420  37.7868780 128.4169450
 104.6623500  38.0498980 128.2421110 106.0500040  38.0579950 127.6369410
 122.0752470  38.5092770 133.6945650 122.5989950  38.0155420 133.0635820
 122.6611890  38.6443130 134.4393220 122.2542190  38.5932640 137.2165200
 121.3044900  38.5596180 137.3310190 122.4355200  39.5032750 136.9814970
 108.1086630  36.8434320 126.3263830 108.8178330  36.4217540 125.8411110
 107.3926570  36.9109550 125.6947180 107.7560790  32.8973650 125.3666480
 108.4788920  33.4382590 125.6847700 108.0285310  32.6237070 124.4908020
 121.5652440  37.7666120 129.6338060 122.0611560  37.5336990 130.4186940
 121.3668510  36.9277960 129.2175700 107.4452980  32.1479840 135.2689100
 108.0929170  31.5977220 134.8284260 107.8654820  32.4022990 136.0904910
 122.9939600  36.4027070 132.1675740 122.8838880  36.2483110 133.1058010
 123.7547190  35.8748010 131.9251150 121.3405320  32.3421200 138.6258740
 121.9777540  32.9555340 138.9917930 121.4880210  32.3781860 137.6807970
 123.8829870  34.2334990 125.4081880 124.8079180  34.1016170 125.2000170
 123.8605660  34.3127810 126.3618330 123.9568360  35.0045650 128.0338590
 123.1619860  34.9390770 128.5631500 124.1611640  35.9396290 128.0223940
 120.8986780  49.0437200 132.0276980 121.4945850  48.7221770 131.3511400
 121.1564930  48.5709020 132.8190250 107.1984980  32.3035510 138.0114420
 106.8499800  32.7599330 138.7772600 106.8672680  31.4092640 138.0936850
 108.8049350  45.4755110 142.1767610 108.7618980  45.1048020 143.0582070
 108.9360360  46.4132680 142.3169430 112.5055380  47.0314700 137.7777330
 112.2646740  47.2989260 136.8907850 113.4458020  47.2020430 137.8328190
 114.7109800  33.4947390 141.5333840 114.6498690  34.0869220 142.2829250
 115.6510180  33.3873350 141.3884100 117.3484360  33.1517450 141.1726130
 117.9624770  33.4696740 140.5107210 117.8933920  32.6666040 141.7921990
 123.7659540  49.0509080 138.5787970 123.2717820  49.4477950 137.8615100
 123.1572830  48.4258290 138.9725250 107.8705620  31.8311710 141.2865190
 108.4188610  31.6499760 140.5231300 107.9360930  31.0405820 141.8221500
 108.6437380  48.4217360 139.2965390 108.0497700  48.2902060 140.0355430
 108.6361220  47.5855500 138.8307490 118.0892400  31.7149590 137.4995420
 117.2152240  32.0484700 137.2968350 117.9803150  31.2422770 138.3247290
 118.9964380  33.9220460 138.8837140 118.6677740  33.1072220 138.5038870
 119.9446680  33.8790270 138.7602830 121.4498990  49.6932500 135.8574710
 120.9901960  50.4448310 135.4832730 120.8211450  48.9738970 135.7989510
 108.2749610  45.7875740 138.2473430 107.5483670  45.1681030 138.1799380
 108.3358760  46.1816350 137.3771510 111.8794710  48.0020740 135.0322840
 112.3959730  47.3908100 134.5071100 112.5292090  48.5049520 135.5233850
 114.6190210  48.8929230 135.8591820 114.9068020  48.6383530 134.9824830
 115.1313430  48.3406590 136.4497390 115.8367220  32.6319430 136.4388330
 115.0539010  33.1064930 136.7185090 115.5430150  31.7274260 136.3301510
 120.3888290  33.3342530 134.4837420 120.8296380  33.2787630 133.6359020
 120.1195880  34.2500540 134.5547600 122.2526860  32.9657770 132.4946240
 122.1915260  32.0218990 132.3477260 123.0318890  33.0737860 133.0399700
 106.5579610  49.1050130 131.4570190 106.3901650  48.4720810 132.1552080
 105.6914120  49.3109530 131.1064380 107.1807630  32.9366910 128.9602050
 107.9386990  33.0495790 128.3866080 106.7184800  33.7736110 128.9145480
 113.7221440  35.0506180 131.9504360 112.9095950  34.6763070 131.6100240
 114.2263080  34.2951260 132.2525550 118.2246420  31.7148630 133.1887430
 118.8275790  32.2868840 133.6635950 117.4839410  32.2788070 132.9661330
 121.3681020  32.1170190 128.4627710 121.5631650  33.0153640 128.7295140
 120.5810890  31.8857270 128.9560660 109.5532780  33.4630960 127.5004020
 110.0825540  32.6760760 127.3711970 110.1861100  34.1422150 127.7339550
 111.7470620  33.2006100 130.5549410 111.1173360  32.4993410 130.7219540
 111.2075760  33.9610230 130.3382570 114.6862570  49.8145330 143.2260020
 115.6129880  49.5789600 143.2695980 114.6713000  50.6417330 142.7446050
 122.9207630  49.3570900 130.2234270 123.0959820  48.6708640 129.5795190
 122.2229200  49.8817950 129.8310940 111.8726180  32.4790080 142.9901900
 111.5910450  32.9823680 142.2262720 112.2545880  31.6811830 142.6244030
 109.9250070  45.8630470 127.7815910 109.2958950  46.3315570 128.3301740
 110.0397900  45.0179690 128.2162100 118.4741640  31.8943660 143.5682370
 118.3607090  32.2138270 144.4633890 119.2911380  32.2956170 143.2719650
 121.2540130  49.0415190 143.0501060 122.0465450  48.5464420 142.8427020
 121.5473280  49.7205330 143.6576670 117.3799790  39.9136130 113.9317110
 117.2993840  38.9990740 113.6608820 116.9664210  40.4103200 113.2256820
 115.9831990  37.1742720 116.0465470 116.3596810  36.3014600 115.9339140
 115.8851500  37.5101420 115.1555910 119.7656110  34.6693160 112.9793810
 120.5865730  34.1789730 113.0219290 119.7990190  35.2590820 113.7325650
 124.0555660  36.6859910 119.5437440 123.3507830  37.0741620 119.0252550
 124.3213580  37.3810200 120.1458370 110.2380830  33.1553280 120.1071510
 110.2399270  33.6725670 119.3017410 109.4085140  32.6783460 120.0841440
 120.0017590  36.6093540 115.7521350 119.2973160  36.8978430 116.3324460
 120.3629750  37.4193650 115.3920910 109.9196160  34.8663240 118.1141960
 110.2612970  35.7105290 117.8195830 108.9811970  35.0146980 118.2307300
 105.9935120  43.9529120 108.9801040 105.6163100  44.4416220 108.2485940
 106.2508190  44.6254400 109.6107570 121.6180370  46.2268670 118.0148830
 120.9343890  46.8967780 118.0065500 122.1574660  46.4249320 117.2493690
 123.0704510  36.0548330 116.1430560 122.1229420  36.0887310 116.2745990
 123.3954500  36.8687280 116.5279920 120.4484530  44.7929020 111.8184180
 120.3380860  43.8503350 111.9433600 120.4452780  45.1544660 112.7046940
 118.5524550  42.9742640 118.0576620 118.9693340  42.7602750 117.2230080
 119.2764370  43.2315430 118.6285240 115.9773890  36.6911340 108.1713830
 115.0377560  36.8525300 108.2566290 116.2957150  37.4097020 107.6249820
 122.4986650  41.3729860 118.1492860 121.6705280  41.4422950 117.6742990
 123.0937130  41.9584170 117.6808690 119.4628660  38.1599180 119.0947730
 119.0499840  38.9852890 119.3487720 118.7304610  37.5744220 118.9024090
 120.1528760  48.2058510 119.7828710 119.6759320  49.0130700 119.5901320
 119.4690550  47.5536840 119.9354920 109.9832800  41.2421650 121.3470780
 109.8440570  42.1144450 121.7158180 109.1014160  40.8994460 121.2018720
 121.7783940  32.4744260 106.9995710 121.4656600  32.5671090 107.8994780
 122.5396410  33.0525290 106.9493140 123.7327970  47.9670450 124.8520100
 124.2087690  48.4453340 125.5309180 124.3535130  47.8987940 124.1265600
 123.1361220  45.1583300 122.0120110 123.2624280  44.9195180 121.0937290
 123.1782600  44.3267840 122.4842190 116.9977960  48.8611300 120.5814920
 117.5122630  48.7719310 121.3837350 116.1547040  49.2071000 120.8742830
 118.9732360  49.1466640 110.0098920 118.8133500  48.8569580 110.9080750
 118.8079070  48.3706770 109.4744150 111.4520740  48.9265170 111.7870540
 111.2763220  48.0100710 111.5738340 110.5976480  49.2852460 112.0268340
 122.9885230  37.2115760 122.9769850 122.3729500  37.7195430 122.4485310
 122.6681650  36.3114090 122.9195790 105.9910970  44.0533370 119.8036150
 106.1542010  43.5838730 118.9855520 106.4563420  43.5456930 120.4684990
 110.7629740  33.1839130 114.8396720 110.3197890  33.9648670 114.5081240
 111.3214730  33.5069020 115.5467660 115.0499550  36.0507650 120.4432040
 114.5878920  36.2590670 121.2551980 114.6477660  35.2367000 120.1402710
 120.0504060  37.2716600 121.5728700 119.1997650  36.9722350 121.8937770
 119.8905850  37.5158610 120.6612520 117.1453770  38.7718350 123.6727490
 117.4707180  37.9382100 123.3329720 117.9334100  39.2946870 123.8205820
 112.8005640  33.7286460 116.6986320 113.0977970  34.6349290 116.6178340
 113.3491200  33.2405240 116.0845890 110.5543960  38.3072700 112.5677970
 110.3284880  38.0909870 113.4724590 109.7736490  38.7401160 112.2223940
 117.7841720  38.3136070 111.1668620 117.1850610  39.0371870 110.9832240
 118.3321330  38.2512850 110.3845070 112.9943170  39.2058280 123.2338240
 112.8986770  38.2653010 123.0838640 113.8375150  39.4273350 122.8386310
 116.3906590  36.9499610 113.1971900 116.7836160  37.2671810 112.3840590
 116.7523440  36.0711490 113.3116420 108.1253710  35.6171950 121.3872020
 107.7317100  36.4647160 121.5944800 107.4372110  34.9798320 121.5780660
 114.6998760  35.7006920 124.4568760 114.0097080  35.5079120 125.0914850
 115.4431060  35.9841560 124.9893060 105.4270760  33.5400410 115.4202100
 105.1383810  34.1103270 116.1327080 106.1716520  33.0604860 115.7833330
 116.9761730  39.5405360 117.2922680 116.2442850  40.0492170 117.6412780
 116.5786070  38.7235340 116.9911460 113.4139120  36.2159560 115.6975170
 113.4175180  35.7749510 114.8479710 114.3090240  36.5376890 115.8046990
 113.4759270  37.2171640 108.6881930 113.5972090  37.1758120 109.6367750
 113.0907780  38.0795790 108.5328660 117.4387640  34.9939040 116.7045620
 117.4560380  35.4447690 117.5487470 117.1903220  34.0944680 116.9179060
 112.4880770  39.5272780 108.0865230 111.9197670  39.0791030 107.4601140
 113.1969770  39.8865560 107.5530380 120.8658390  32.4071220 122.5432000
 121.1904160  31.6760880 123.0689980 120.9014900  32.0884860 121.6412990
 107.5649950  43.4284800 121.9631960 107.1804740  42.7878470 122.5614920
 107.8762140  44.1320920 122.5326690 106.5787580  35.0205030 113.5734050
 106.2934500  34.6560700 114.4112670 106.5166440  34.2885490 112.9597190
 111.5046460  39.3169980 119.7624790 111.2003530  40.1961960 119.9875150
 112.4592920  39.3769770 119.7982230 110.0328250  43.5230970 110.3591640
 109.2590510  42.9828590 110.1990360 110.7622880  43.0037580 110.0209400
 120.7916230  42.5196330 116.1518030 121.5115350  43.0151620 115.7614140
 120.5898050  41.8414220 115.5071900 116.1735030  42.5905390 122.0387030
 116.1072340  41.6701060 121.7844620 115.5440170  42.6880830 122.7531670
 118.9674560  38.2853940 108.5909580 119.8554180  38.5971170 108.4160920
 118.9379650  37.4126190 108.1990160 107.5610190  40.1572720 120.9096150
 107.2025130  40.8226570 121.4969490 107.2664750  39.3256270 121.2808770
 110.7623310  40.6156960 123.7935700 110.4623450  40.7614140 122.8963520
 111.5334550  40.0562250 123.7009090 116.1051760  45.4125960 121.7890830
 116.1196300  44.4806920 121.5709740 115.3976860  45.4985720 122.4280600
 122.3162970  42.0533300 121.1359410 121.5911160  42.6462080 120.9388800
 122.8438430  42.0456840 120.3372780 122.2676080  46.4508040 110.7871570
 121.6252240  45.7963660 111.0615290 121.8806740  46.8563130 110.0112240
 117.8462560  43.7793470 114.6343260 118.1986380  43.1821600 113.9744630
 116.9624890  43.4537700 114.8051510 115.5385660  47.0543530 118.8831330
 116.1827880  47.2602910 119.5604750 115.9015100  46.2931930 118.4302180
 118.5855360  45.8570780 120.8044840 118.9211600  46.4437470 121.4822760
 117.6655700  45.7263490 121.0342630 106.4389490  49.3691360 108.0992380
 106.7987130  49.9680700 107.4449650 106.2981830  49.9151250 108.8727410
 106.1358760  33.6465960 121.5868250 105.4217280  33.8462880 122.1920860
 106.5553800  32.8705530 121.9583050 112.4558110  46.7522560 108.9166050
 112.4468210  47.4852250 108.3010560 111.5356470  46.5054140 109.0093010
 117.6297540  36.1388270 119.3369700 117.9978360  35.3183480 119.6649270
 116.7695740  36.1990160 119.7525350 120.9959570  35.0945210 110.1457260
 120.3672730  35.1990880 109.4315490 120.5011490  35.3141990 110.9351140
 112.9643600  37.3731160 111.5615140 112.2559750  37.8417500 112.0028750
 113.2488080  36.7153170 112.1960330 114.5899530  38.7927860 119.5607670
 115.0884780  39.2673680 120.2259520 114.7322480  37.8691380 119.7677700
 116.9959030  34.0981820 113.0010930 116.8726810  34.1167950 112.0520440
 117.9443590  34.1460760 113.1209330 121.7966390  35.0095820 120.4036060
 121.2939990  35.7501220 120.7429870 122.6123050  35.3979820 120.0872850
 120.0888400  40.2529000 113.8497420 119.1478540  40.2679230 114.0245110
 120.4032470  39.4664960 114.2957720 109.5631510  49.5169060 115.1968810
 110.2993990  48.9684520 115.4677380 109.9472430  50.3825070 115.0574800
 117.4054420  44.8095000 124.3329800 116.7992580  44.8326600 123.5925550
 117.1008530  44.0778040 124.8697050 118.8354790  48.5375290 122.9439210
 119.7876540  48.4533310 122.8939450 118.6883010  49.2017000 123.6173000
 121.7263990  47.9169500 108.4431120 121.4405500  47.5034640 107.6285300
 121.5283540  48.8457210 108.3231640 106.2887600  41.1888590 123.3290440
 106.7926620  40.6095870 123.9006670 105.5495020  41.4728820 123.8666810
 113.3425540  42.5959580 122.8625960 112.5771210  43.1644580 122.7780630
 113.5241500  42.3035790 121.9694190 120.4848890  44.3264910 123.4200980
 121.2258360  44.6640670 122.9168440 119.7221570  44.4956970 122.8670750
 108.3210680  39.3318180 124.2240510 108.3616020  39.0332050 125.1325740
 109.1756180  39.7325790 124.0648030 110.2616490  37.9110280 122.1915000
 109.7312950  37.4201230 121.5638340 110.9304560  38.3394480 121.6572930
 119.1594550  42.3779740 121.9556190 119.5735570  42.5324820 122.8046610
 118.2245550  42.5034960 122.1181970 119.6316720  39.7175900 123.9595340
 120.2137490  38.9628220 123.8715820 119.8078490  40.2483340 123.1826820
 110.7488790  34.8772650 122.2712290 110.6545660  34.2593400 121.5463160
 110.1686180  35.6038940 122.0442200 113.5150230  33.4345890 119.3039680
 113.0667530  33.4570150 118.4585230 112.8815430  33.0364910 119.9009980
 116.2573680  40.0616400 121.3089960 116.3769890  39.4657540 122.0484800
 117.1167680  40.0986090 120.8891260 118.5961580  40.6153590 119.8852470
 118.0696800  41.1396210 119.2817610 118.9392920  41.2480980 120.5162200
 110.9947970  38.0046960 106.3302180 110.7937030  37.1414320 106.6915520
 110.8240020  37.9180320 105.3923780 113.0242450  36.6037750 122.5665780
 113.6142140  36.2953600 123.2543600 112.2062690  36.1317500 122.7225680
 117.8435880  36.2203560 122.7998800 117.1551400  35.5585100 122.7348790
 118.5641900  35.7741830 123.2447260 118.4736280  32.8155190 108.8589060
 118.7538570  31.9723090 109.2148480 117.7002010  33.0478300 109.3727810
 114.6279410  49.8704440 121.2996500 114.5538110  50.7739580 121.6068870
 113.7258250  49.5516340 121.2718570 115.1764740  49.0362950 108.9222860
 116.0715530  49.3747920 108.9441620 115.2082370  48.3142360 108.2947140
 108.8160900  44.4090000 107.1509860 109.2535770  44.9519670 107.8067440
 109.3008630  43.5836950 107.1606200 106.5196910  48.0649620 117.3411750
 106.0827900  48.2450420 118.1735900 107.0874590  48.8224240 117.1993470
 122.1559090  47.5666620 121.6289060 121.5561080  47.6259180 120.8852980
 122.2852990  46.6271600 121.7585910 123.8576970  42.9082020 114.3134900
 124.2285800  42.1249340 113.9070870 124.4978900  43.5971120 114.1352200
 120.8410730  44.2918600 119.7265220 120.0270570  44.7215760 119.9891010
 121.2484930  44.9037010 119.1134270 119.3011780  35.3711140 107.9219120
 119.7196660  35.1842120 107.0815780 118.9947840  34.5190190 108.2322050
 122.8001510  40.2835280 111.6194920 122.4245110  39.5163210 111.1876210
 122.0704630  40.6657980 112.1069850 122.1901130  39.4306800 121.2534440
 121.9587220  39.2019550 120.3532390 122.4505680  40.3506350 121.2079330
 106.9413270  37.8731510 122.1462390 106.0469320  37.8398270 122.4856100
 107.4810820  38.0718300 122.9113640 120.6289200  34.6563230 124.0314140
 121.5059380  34.6646630 124.4148140 120.6410040  33.9194070 123.4206490
 122.0752470  38.5092770 114.9202160 122.5989950  38.0155420 114.2892330
 122.6611890  38.6443130 115.6649730 122.2542190  38.5932640 118.4421710
 121.3044900  38.5596180 118.5566700 122.4355200  39.5032750 118.2071480
 121.5652440  37.7666120 110.8594570 122.0611560  37.5336990 111.6443450
 121.3668510  36.9277960 110.4432210 107.4452980  32.1479840 116.4945610
 108.0929170  31.5977220 116.0540770 107.8654820  32.4022990 117.3161420
 122.9939600  36.4027070 113.3932250 122.8838880  36.2483110 114.3314520
 123.7547190  35.8748010 113.1507660 121.3405320  32.3421200 119.8515250
 121.9777540  32.9555340 120.2174440 121.4880210  32.3781860 118.9064480
 123.8829870  34.2334990 106.6338390 124.8079180  34.1016170 106.4256680
 123.8605660  34.3127810 107.5874840 123.9568360  35.0045650 109.2595100
 123.1619860  34.9390770 109.7888010 124.1611640  35.9396290 109.2480450
 107.1984980  32.3035510 119.2370930 106.8499800  32.7599330 120.0029110
 106.8672680  31.4092640 119.3193360 114.7109800  33.4947390 122.7590350
 114.6498690  34.0869220 123.5085760 115.6510180  33.3873350 122.6140610
 117.3484360  33.1517450 122.3982640 117.9624770  33.4696740 121.7363720
 117.8933920  32.6666040 123.0178500 123.7659540  49.0509080 119.8044480
 123.2717820  49.4477950 119.0871610 123.1572830  48.4258290 120.1981760
 107.8705620  31.8311710 122.5121700 108.4188610  31.6499760 121.7487810
 107.9360930  31.0405820 123.0478010 118.0892400  31.7149590 118.7251930
 117.2152240  32.0484700 118.5224860 117.9803150  31.2422770 119.5503800
 118.9964380  33.9220460 120.1093650 118.6677740  33.1072220 119.7295380
 119.9446680  33.8790270 119.9859340 114.6190210  48.8929230 117.0848330
 114.9068020  48.6383530 116.2081340 115.1313430  48.3406590 117.6753900
 115.8367220  32.6319430 117.6644840 115.0539010  33.1064930 117.9441600
 115.5430150  31.7274260 117.5558020 120.3888290  33.3342530 115.7093930
 120.8296380  33.2787630 114.8615530 120.1195880  34.2500540 115.7804110
 122.2526860  32.9657770 113.7202750 122.1915260  32.0218990 113.5733770
 123.0318890  33.0737860 114.2656210 107.1807630  32.9366910 110.1858560
 107.9386990  33.0495790 109.6122590 106.7184800  33.7736110 110.1401990
 118.2246420  31.7148630 114.4143940 118.8275790  32.2868840 114.8892460
 117.4839410  32.2788070 114.1917840 121.3681020  32.1170190 109.6884220
 121.5631650  33.0153640 109.9551650 120.5810890  31.8857270 110.1817170
 122.9207630  49.3570900 111.4490780 123.0959820  48.6708640 110.8051700
 122.2229200  49.8817950 111.0567450 111.8726180  32.4790080 124.2158410
 111.5910450  32.9823680 123.4519230 112.2545880  31.6811830 123.8500540
 109.9250070  45.8630470 109.0072420 109.2958950  46.3315570 109.5558250
 110.0397900  45.0179690 109.4418610 118.4741640  31.8943660 124.7938880
 118.3607090  32.2138270 125.6890400 119.2911380  32.2956170 124.4976160
 121.2540130  49.0415190 124.2757570 122.0465450  48.5464420 124.0683530
 121.5473280  49.7205330 124.8833180 105.9008620  39.5642500  97.5840740
 106.4724730  38.7964700  97.5844380 105.9010160  39.8631260  96.6747350
 107.1433490  34.9726860  99.3709670 106.9636330  34.0752610  99.6512430
 106.7413570  35.5198730 100.0456620 107.7620160  37.4687360  97.9792010
 108.4430270  37.7325730  98.5979410 107.4468210  36.6288230  98.3130020
 124.0555660  36.6859910 100.7693950 123.3507830  37.0741620 100.2509060
 124.3213580  37.3810200 101.3714880 105.9935120  43.9529120  90.2057550
 105.6163100  44.4416220  89.4742450 106.2508190  44.6254400  90.8364080
 119.4628660  38.1599180 100.3204240 119.0499840  38.9852890 100.5744230
 118.7304610  37.5744220 100.1280600 110.3090070  37.7202290  98.9621950
 110.8604660  37.8297630  98.1875200 110.8233580  38.0939890  99.6777180
 111.7813150  47.1843350 104.7812440 111.7528580  47.5886300 103.9140870
 111.6178120  46.2553710 104.6184040 105.9351450  43.0119200  98.4898200
 106.0131870  43.1467970  97.5453920 106.5493130  42.3035090  98.6826320
 107.1799080  44.7119390  94.9004380 106.7727160  44.8533980  94.0457980
 108.0712090  44.4279550  94.6975590 118.6758490  46.6554200  89.7953430
 117.9823650  46.6531490  89.1355710 119.4181350  46.2313520  89.3647600
 122.9885230  37.2115760 104.2026360 122.3729500  37.7195430 103.6741820
 122.6681650  36.3114090 104.1452300 105.9910970  44.0533370 101.0292660
 106.1542010  43.5838730 100.2112030 106.4563420  43.5456930 101.6941500
 115.0499550  36.0507650 101.6688550 114.5878920  36.2590670 102.4808490
 114.6477660  35.2367000 101.3659220 120.0504060  37.2716600 102.7985210
 119.1997650  36.9722350 103.1194280 119.8905850  37.5158610 101.8869030
 117.1453770  38.7718350 104.8984000 117.4707180  37.9382100 104.5586230
 117.9334100  39.2946870 105.0462330 105.4270760  33.5400410  96.6458610
 105.1383810  34.1103270  97.3583590 106.1716520  33.0604860  97.0089840
 109.2641500  36.0986050  95.8825890 108.9241550  36.5761280  96.6392940
 108.5018820  35.6451170  95.5226990 120.8658390  32.4071220 103.7688510
 121.1904160  31.6760880 104.2946490 120.9014900  32.0884860 102.8669500
 107.5649950  43.4284800 103.1888470 107.1804740  42.7878470 103.7871430
 107.8762140  44.1320920 103.7583200 111.5046460  39.3169980 100.9881300
 111.2003530  40.1961960 101.2131660 112.4592920  39.3769770 101.0238740
 110.0328250  43.5230970  91.5848150 109.2590510  42.9828590  91.4246870
 110.7622880  43.0037580  91.2465910 120.7916230  42.5196330  97.3774540
 121.5115350  43.0151620  96.9870650 120.5898050  41.8414220  96.7328410
 114.9635150  44.4577630  90.4954260 115.3050850  45.2019860  89.9997580
 114.1347860  44.7708750  90.8579090 120.6573460  45.3424500  88.5504430
 120.4311040  44.6254940  89.1429070 120.2669660  45.0936940  87.7126180
 106.4389490  49.3691360  89.3248890 106.7987130  49.9680700  88.6706160
 106.2981830  49.9151250  90.0983920 106.4231350  47.6346220 103.7991290
 106.5322470  46.6940960 103.6586680 105.7711910  47.9000970 103.1505020
 112.4558110  46.7522560  90.1422560 112.4468210  47.4852250  89.5267070
 111.5356470  46.5054140  90.2349520 117.6297540  36.1388270 100.5626210
 117.9978360  35.3183480 100.8905780 116.7695740  36.1990160 100.9781860
 115.4417710  46.8150800  88.8047750 115.5429690  46.6114790  87.8749730
 114.5419450  46.5609080  89.0095530 114.5899530  38.7927860 100.7864180
 115.0884780  39.2673680 101.4516030 114.7322480  37.8691380 100.9934210
 121.7966390  35.0095820 101.6292570 121.2939990  35.7501220 101.9686380
 122.6123050  35.3979820 101.3129360 110.0670040  41.9348600  88.6357890
 110.8333310  41.8229960  89.1983320 110.1444730  41.2386570  87.9834660
 106.4476990  45.5842630  92.2966830 105.5216770  45.8263770  92.2872240
 106.9133420  46.4116890  92.1751580 108.5689790  48.7015130 105.6110900
 109.3702520  49.0227180 106.0246300 108.0541610  48.3410710 106.3330810
 112.6733820  48.6899370  88.2450890 113.4662430  48.9788200  87.7932680
 112.1538170  48.2591540  87.5663370 113.5150230  33.4345890 100.5296190
 113.0667530  33.4570150  99.6841740 112.8815430  33.0364910 101.1266490
 118.5961580  40.6153590 101.1108980 118.0696800  41.1396210 100.5074120
 118.9392920  41.2480980 101.7418710 117.8435880  36.2203560 104.0255310
 117.1551400  35.5585100 103.9605300 118.5641900  35.7741830 104.4703770
 115.1764740  49.0362950  90.1479370 116.0715530  49.3747920  90.1698130
 115.2082370  48.3142360  89.5203650 108.8160900  44.4090000  88.3766370
 109.2535770  44.9519670  89.0323950 109.3008630  43.5836950  88.3862710
 106.0306700  47.1979030  95.8286630 106.3609710  46.3300090  95.5965270
 106.4597700  47.4037550  96.6591590 106.5196910  48.0649620  98.5668260
 106.0827900  48.2450420  99.3992410 107.0874590  48.8224240  98.4249980
 106.3521340  40.5769850  94.9257140 105.6970180  40.3081490  94.2816840
 107.1899290  40.4674330  94.4759120 107.3897270  40.9622420  99.4660480
 107.7570310  40.8749820 100.3456500 106.8208090  40.1988970  99.3667340
 122.1901130  39.4306800 102.4790950 121.9587220  39.2019550 101.5788900
 122.4505680  40.3506350 102.4335840 120.6289200  34.6563230 105.2570650
 121.5059380  34.6646630 105.6404650 120.6410040  33.9194070 104.6463000
 122.2542190  38.5932640  99.6678220 121.3044900  38.5596180  99.7823210
 122.4355200  39.5032750  99.4327990 121.3405320  32.3421200 101.0771760
 121.9777540  32.9555340 101.4430950 121.4880210  32.3781860 100.1320990
 108.8049350  45.4755110 104.6280630 108.7618980  45.1048020 105.5095090
 108.9360360  46.4132680 104.7682450 117.3484360  33.1517450 103.6239150
 117.9624770  33.4696740 102.9620230 117.8933920  32.6666040 104.2435010
 118.0892400  31.7149590  99.9508440 117.2152240  32.0484700  99.7481370
 117.9803150  31.2422770 100.7760310 118.9964380  33.9220460 101.3350160
 118.6677740  33.1072220 100.9551890 119.9446680  33.8790270 101.2115850
 115.8367220  32.6319430  98.8901350 115.0539010  33.1064930  99.1698110
 115.5430150  31.7274260  98.7814530 106.5579610  49.1050130  93.9083210
 106.3901650  48.4720810  94.6065100 105.6914120  49.3109530  93.5577400
 118.2246420  31.7148630  95.6400450 118.8275790  32.2868840  96.1148970
 117.4839410  32.2788070  95.4174350 108.1642310  47.7983360  91.3533350
 107.6389930  48.1791390  90.6495310 108.0886890  48.4234130  92.0743060
 110.7635280  49.7465740  90.2282600 111.4954100  49.4625020  89.6806490
 111.0228950  49.5079020  91.1181980 109.9250070  45.8630470  90.2328930
 109.2958950  46.3315570  90.7814760 110.0397900  45.0179690  90.6675120
 118.4741640  31.8943660 106.0195390 118.3607090  32.2138270 106.9146910
 119.2911380  32.2956170 105.7232670 124.0555660  36.6859910  81.9950460
 123.3507830  37.0741620  81.4765570 124.3213580  37.3810200  82.5971390
 111.4883680  42.7948460  80.7358030 111.1553060  43.4217380  81.3779100
 111.6650360  43.3210340  79.9559700 110.7002780  44.7629260  82.5507210
 111.3176780  45.4380340  82.2691660 109.8395900  45.1717240  82.4594710
 121.6180370  46.2268670  80.4661850 120.9343890  46.8967780  80.4578520
 122.1574660  46.4249320  79.7006710 123.0704510  36.0548330  78.5943580
 122.1229420  36.0887310  78.7259010 123.3954500  36.8687280  78.9792940
 115.9904810  40.4194340  73.6259690 115.0634090  40.3531720  73.8548160
 116.1429630  41.3574470  73.5114930 115.9773890  36.6911340  70.6226850
 115.0377560  36.8525300  70.7079310 116.2957150  37.4097020  70.0762840
 111.5961450  40.9459080  76.4079420 111.1918450  40.2336330  75.9125320
 111.6824570  40.6012320  77.2967460 120.1528760  48.2058510  82.2341730
 119.6759320  49.0130700  82.0414340 119.4690550  47.5536840  82.3867940
 111.1561580  44.3708330  85.2226430 110.2590110  44.5948300  85.4699830
 111.1814450  44.4943270  84.2737830 118.1966800  41.2201450  71.1367690
 118.6360080  40.3823880  70.9905510 118.9095220  41.8530850  71.2231830
 111.7813150  47.1843350  86.0068950 111.7528580  47.5886300  85.1397380
 111.6178120  46.2553710  85.8440550 121.7783940  32.4744260  69.4508730
 121.4656600  32.5671090  70.3507800 122.5396410  33.0525290  69.4006160
 116.9977960  48.8611300  83.0327940 117.5122630  48.7719310  83.8350370
 116.1547040  49.2071000  83.3255850 122.9885230  37.2115760  85.4282870
 122.3729500  37.7195430  84.8998330 122.6681650  36.3114090  85.3708810
 120.0504060  37.2716600  84.0241720 119.1997650  36.9722350  84.3450790
 119.8905850  37.5158610  83.1125540 113.8788560  32.8049830  72.1715570
 113.2542740  32.8009700  72.8968880 113.7918680  31.9380790  71.7751540
 105.4270760  33.5400410  77.8715120 105.1383810  34.1103270  78.5840100
 106.1716520  33.0604860  78.2346350 120.8658390  32.4071220  84.9945020
 121.1904160  31.6760880  85.5203000 120.9014900  32.0884860  84.0926010
 106.5787580  35.0205030  76.0247070 106.2934500  34.6560700  76.8625690
 106.5166440  34.2885490  75.4110210 110.0328250  43.5230970  72.8104660
 109.2590510  42.9828590  72.6503380 110.7622880  43.0037580  72.4722420
 116.2526170  33.9134290  72.7460440 115.4390780  33.4147460  72.6705750
 116.0588120  34.7532540  72.3296790 118.9674560  38.2853940  71.0422600
 119.8554180  38.5971170  70.8673940 118.9379650  37.4126190  70.6503180
 114.9635150  44.4577630  71.7210770 115.3050850  45.2019860  71.2254090
 114.1347860  44.7708750  72.0835600 110.7623310  40.6156960  86.2448720
 110.4623450  40.7614140  85.3476540 111.5334550  40.0562250  86.1522110
 116.1051760  45.4125960  84.2403850 116.1196300  44.4806920  84.0222760
 115.3976860  45.4985720  84.8793620 121.2388830  39.5965780  70.5102460
 121.1552550  40.0280000  69.6598900 121.9583020  40.0564130  70.9429280
 113.2353050  41.5437190  74.1052050 113.6915830  42.3542440  74.3312240
 112.8841260  41.2260330  74.9370540 115.5385660  47.0543530  81.3344350
 116.1827880  47.2602910  82.0117770 115.9015100  46.2931930  80.8815200
 109.1364830  31.8874840  74.5774570 109.0079460  31.8792740  75.5259490
 108.3126850  32.2257930  74.2265580 120.6573460  45.3424500  69.7760940
 120.4311040  44.6254940  70.3685580 120.2669660  45.0936940  68.9382690
 118.5855360  45.8570780  83.2557860 118.9211600  46.4437470  83.9335780
 117.6655700  45.7263490  83.4855650 106.4389490  49.3691360  70.5505400
 106.7987130  49.9680700  69.8962670 106.2981830  49.9151250  71.3240430
 106.4231350  47.6346220  85.0247800 106.5322470  46.6940960  84.8843190
 105.7711910  47.9000970  84.3761530 114.4143940  45.9062110  86.4245920
 114.0940810  45.1871350  86.9691610 113.7402300  46.5817180  86.4981980
 116.9959030  34.0981820  75.4523950 116.8726810  34.1167950  74.5033460
 117.9443590  34.1460760  75.5722350 121.7966390  35.0095820  82.8549080
 121.2939990  35.7501220  83.1942890 122.6123050  35.3979820  82.5385870
 109.5631510  49.5169060  77.6481830 110.2993990  48.9684520  77.9190400
 109.9472430  50.3825070  77.5087820 106.4476990  45.5842630  73.5223340
 105.5216770  45.8263770  73.5128750 106.9133420  46.4116890  73.4008090
 108.5689790  48.7015130  86.8367410 109.3702520  49.0227180  87.2502810
 108.0541610  48.3410710  87.5587320 116.4313950  42.9722810  69.9391740
 115.8824050  43.4192110  70.5834480 117.0533210  42.4672060  70.4629410
 112.0989070  41.9313730  71.8357040 112.5205490  41.7653600  72.6788430
 112.2239910  41.1213960  71.3412180 111.7717200  48.6353230  83.4922870
 111.2338290  49.3599290  83.1731570 112.0251160  48.1583570  82.7020210
 118.4736280  32.8155190  71.3102080 118.7538570  31.9723090  71.6661500
 117.7002010  33.0478300  71.8240830 114.6279410  49.8704440  83.7509520
 114.5538110  50.7739580  84.0581890 113.7258250  49.5516340  83.7231590
 113.0115700  34.0482200  69.7549280 112.6637700  33.3706190  69.1751730
 113.2128470  33.5871710  70.5692670 110.6268620  45.5288040  74.7145110
 110.3264160  45.4053010  75.6149020 110.5206110  44.6696630  74.3060840
 122.1559090  47.5666620  84.0802080 121.5561080  47.6259180  83.3366000
 122.2852990  46.6271600  84.2098930 122.8517000  42.0531920  71.9205990
 123.6135910  42.6228570  72.0265680 122.8671370  41.4859120  72.6914300
 123.8576970  42.9082020  76.7647920 124.2285800  42.1249340  76.3583890
 124.4978900  43.5971120  76.5865220 122.9036170  42.3466290  69.0778510
 123.1785010  43.2545170  68.9497730 122.7146910  42.2828820  70.0140500
 119.3011780  35.3711140  70.3732140 119.7196660  35.1842120  69.5328800
 118.9947840  34.5190190  70.6835070 120.6289200  34.6563230  86.4827160
 121.5059380  34.6646630  86.8661160 120.6410040  33.9194070  85.8719510
 122.2542190  38.5932640  80.8934730 121.3044900  38.5596180  81.0079720
 122.4355200  39.5032750  80.6584500 121.3405320  32.3421200  82.3028270
 121.9777540  32.9555340  82.6687460 121.4880210  32.3781860  81.3577500
 123.9568360  35.0045650  71.7108120 123.1619860  34.9390770  72.2401030
 124.1611640  35.9396290  71.6993470 108.8049350  45.4755110  85.8537140
 108.7618980  45.1048020  86.7351600 108.9360360  46.4132680  85.9938960
 112.5055380  47.0314700  81.4546860 112.2646740  47.2989260  80.5677380
 113.4458020  47.2020430  81.5097720 114.7109800  33.4947390  85.2103370
 114.6498690  34.0869220  85.9598780 115.6510180  33.3873350  85.0653630
 117.3484360  33.1517450  84.8495660 117.9624770  33.4696740  84.1876740
 117.8933920  32.6666040  85.4691520 123.7659540  49.0509080  82.2557500
 123.2717820  49.4477950  81.5384630 123.1572830  48.4258290  82.6494780
 108.6437380  48.4217360  82.9734920 108.0497700  48.2902060  83.7124960
 108.6361220  47.5855500  82.5077020 118.0892400  31.7149590  81.1764950
 117.2152240  32.0484700  80.9737880 117.9803150  31.2422770  82.0016820
 118.9964380  33.9220460  82.5606670 118.6677740  33.1072220  82.1808400
 119.9446680  33.8790270  82.4372360 111.8794710  48.0020740  78.7092370
 112.3959730  47.3908100  78.1840630 112.5292090  48.5049520  79.2003380
 114.6190210  48.8929230  79.5361350 114.9068020  48.6383530  78.6594360
 115.1313430  48.3406590  80.1266920 120.3888290  33.3342530  78.1606950
 120.8296380  33.2787630  77.3128550 120.1195880  34.2500540  78.2317130
 122.2526860  32.9657770  76.1715770 122.1915260  32.0218990  76.0246790
 123.0318890  33.0737860  76.7169230 106.5579610  49.1050130  75.1339720
 106.3901650  48.4720810  75.8321610 105.6914120  49.3109530  74.7833910
 113.7221440  35.0506180  75.6273890 112.9095950  34.6763070  75.2869770
 114.2263080  34.2951260  75.9295080 121.3681020  32.1170190  72.1397240
 121.5631650  33.0153640  72.4064670 120.5810890  31.8857270  72.6330190
 111.7470620  33.2006100  74.2318940 111.1173360  32.4993410  74.3989070
 111.2075760  33.9610230  74.0152100 114.6862570  49.8145330  86.9029550
 115.6129880  49.5789600  86.9465510 114.6713000  50.6417330  86.4215580
 119.5325260  46.0975340  58.2695040 119.0706790  45.3262580  58.5982210
 120.3450810  46.1241410  58.7747490 109.5084920  46.0375050  60.5629690
 109.8112960  45.1472790  60.3839910 110.2528510  46.5945270  60.3351940
 110.1137000  35.5468350  55.1852440 110.2203750  36.4472080  55.4921200
 109.2029360  35.4986320  54.8947090 119.7656110  34.6693160  56.6563340
 120.5865730  34.1789730  56.6988820 119.7990190  35.2590820  57.4095180
 105.9935120  43.9529120  52.6570570 105.6163100  44.4416220  51.9255470
 106.2508190  44.6254400  53.2877100 121.6180370  46.2268670  61.6918360
 120.9343890  46.8967780  61.6835030 122.1574660  46.4249320  60.9263220
 119.1539110  48.0712800  60.4063540 119.1666270  47.6675090  59.5385800
 118.6014330  48.8460090  60.3024970 120.4484530  44.7929020  55.4953710
 120.3380860  43.8503350  55.6203130 120.4452780  45.1544660  56.3816470
 115.9904810  40.4194340  54.8516200 115.0634090  40.3531720  55.0804670
 116.1429630  41.3574470  54.7371440 115.9773890  36.6911340  51.8483360
 115.0377560  36.8525300  51.9335820 116.2957150  37.4097020  51.3019350
 120.0202100  41.9814640  55.3551450 119.4014520  41.6434190  54.7077750
 120.0026550  41.3374400  56.0630640 118.1966800  41.2201450  52.3624200
 118.6360080  40.3823880  52.2162020 118.9095220  41.8530850  52.4488340
 121.7783940  32.4744260  50.6765240 121.4656600  32.5671090  51.5764310
 122.5396410  33.0525290  50.6262670 123.1361220  45.1583300  65.6889640
 123.2624280  44.9195180  64.7706820 123.1782600  44.3267840  66.1611720
 118.9732360  49.1466640  53.6868450 118.8133500  48.8569580  54.5850280
 118.8079070  48.3706770  53.1513680 111.4520740  48.9265170  55.4640070
 111.2763220  48.0100710  55.2507870 110.5976480  49.2852460  55.7037870
 118.6758490  46.6554200  52.2466450 117.9823650  46.6531490  51.5868730
 119.4181350  46.2313520  51.8160620 118.2408420  48.2816910  56.3214940
 118.6965370  47.5006290  56.6353560 118.5800940  48.9923730  56.8656120
 113.8788560  32.8049830  53.3972080 113.2542740  32.8009700  54.1225390
 113.7918680  31.9380790  53.0008050 117.7841720  38.3136070  54.8438150
 117.1850610  39.0371870  54.6601770 118.3321330  38.2512850  54.0614600
 116.3906590  36.9499610  56.8741430 116.7836160  37.2671810  56.0610120
 116.7523440  36.0711490  56.9885950 105.4270760  33.5400410  59.0971630
 105.1383810  34.1103270  59.8096610 106.1716520  33.0604860  59.4602860
 105.6140990  37.4820530  50.3074350 105.5315660  38.4251290  50.4489340
 105.2624050  37.3395440  49.4286700 113.4759270  37.2171640  52.3651460
 113.5972090  37.1758120  53.3137280 113.0907780  38.0795790  52.2098190
 112.4880770  39.5272780  51.7634760 111.9197670  39.0791030  51.1370670
 113.1969770  39.8865560  51.2299910 120.8658390  32.4071220  66.2201530
 121.1904160  31.6760880  66.7459510 120.9014900  32.0884860  65.3182520
 116.2526170  33.9134290  53.9716950 115.4390780  33.4147460  53.8962260
 116.0588120  34.7532540  53.5553300 118.9674560  38.2853940  52.2679110
 119.8554180  38.5971170  52.0930450 118.9379650  37.4126190  51.8759690
 114.9635150  44.4577630  52.9467280 115.3050850  45.2019860  52.4510600
 114.1347860  44.7708750  53.3092110 121.2388830  39.5965780  51.7358970
 121.1552550  40.0280000  50.8855410 121.9583020  40.0564130  52.1685790
 122.2676080  46.4508040  54.4641100 121.6252240  45.7963660  54.7384820
 121.8806740  46.8563130  53.6881770 106.0718240  40.1563980  51.2100280
 106.9413090  40.4388780  51.4936200 105.5808560  40.9699850  51.0949090
 120.6573460  45.3424500  51.0017450 120.4311040  44.6254940  51.5942090
 120.2669660  45.0936940  50.1639200 106.4389490  49.3691360  51.7761910
 106.7987130  49.9680700  51.1219180 106.2981830  49.9151250  52.5496940
 120.2389710  43.2596440  52.6631610 119.9511410  43.7209130  53.4509490
 121.0341880  42.7994210  52.9315830 112.4558110  46.7522560  52.5935580
 112.4468210  47.4852250  51.9780090 111.5356470  46.5054140  52.6862540
 120.9959570  35.0945210  53.8226790 120.3672730  35.1990880  53.1085020
 120.5011490  35.3141990  54.6120670 115.4417710  46.8150800  51.2560770
 115.5429690  46.6114790  50.3262750 114.5419450  46.5609080  51.4608550
 112.9643600  37.3731160  55.2384670 112.2559750  37.8417500  55.6798280
 113.2488080  36.7153170  55.8729860 116.9959030  34.0981820  56.6780460
 116.8726810  34.1167950  55.7289970 117.9443590  34.1460760  56.7978860
 111.1678620  35.6816240  52.6135380 112.0169150  36.1186390  52.5475570
 110.8009890  35.9936500  53.4407440 110.0670040  41.9348600  51.0870910
 110.8333310  41.8229960  51.6496340 110.1444730  41.2386570  50.4347680
 108.7616800  39.3673670  51.7703800 108.8420390  38.4201180  51.8821200
 109.6536550  39.6980550  51.8764460 122.0913980  47.4237850  59.2021210
 122.2161400  48.2469020  59.6745020 122.9579540  47.2128580  58.8545360
 109.5631510  49.5169060  58.8738340 110.2993990  48.9684520  59.1446910
 109.9472430  50.3825070  58.7344330 106.4476990  45.5842630  54.7479850
 105.5216770  45.8263770  54.7385260 106.9133420  46.4116890  54.6264600
 112.6733820  48.6899370  50.6963910 113.4662430  48.9788200  50.2445700
 112.1538170  48.2591540  50.0176390 113.1911220  43.9102780  50.5606260
 113.0861860  43.2955130  51.2867640 113.0235440  43.3868670  49.7769270
 116.4313950  42.9722810  51.1648250 115.8824050  43.4192110  51.8090990
 117.0533210  42.4672060  51.6885920 120.4848890  44.3264910  67.0970510
 121.2258360  44.6640670  66.5937970 119.7221570  44.4956970  66.5440280
 112.0989070  41.9313730  53.0613550 112.5205490  41.7653600  53.9044940
 112.2239910  41.1213960  52.5668690 114.6116710  40.9551340  50.3090650
 115.1322370  40.2400360  49.9431800 115.2585110  41.5937210  50.6091160
 118.4736280  32.8155190  52.5358590 118.7538570  31.9723090  52.8918010
 117.7002010  33.0478300  53.0497340 109.7930770  35.1047580  49.9949590
 110.0956670  35.1115010  49.0868740 110.5325360  34.7545440  50.4917250
 113.0115700  34.0482200  50.9805790 112.6637700  33.3706190  50.4008240
 113.2128470  33.5871710  51.7949180 115.1764740  49.0362950  52.5992390
 116.0715530  49.3747920  52.6211150 115.2082370  48.3142360  51.9716670
 108.8160900  44.4090000  50.8279390 109.2535770  44.9519670  51.4836970
 109.3008630  43.5836950  50.8375730 106.0306700  47.1979030  58.2799650
 106.3609710  46.3300090  58.0478290 106.4597700  47.4037550  59.1104610
 106.5196910  48.0649620  61.0181280 106.0827900  48.2450420  61.8505430
 107.0874590  48.8224240  60.8763000 122.1559090  47.5666620  65.3058590
 121.5561080  47.6259180  64.5622510 122.2852990  46.6271600  65.4355440
 122.8517000  42.0531920  53.1462500 123.6135910  42.6228570  53.2522190
 122.8671370  41.4859120  53.9170810 123.8576970  42.9082020  57.9904430
 124.2285800  42.1249340  57.5840400 124.4978900  43.5971120  57.8121730
 122.9036170  42.3466290  50.3035020 123.1785010  43.2545170  50.1754240
 122.7146910  42.2828820  51.2397010 119.3011780  35.3711140  51.5988650
 119.7196660  35.1842120  50.7585310 118.9947840  34.5190190  51.9091580
 122.8001510  40.2835280  55.2964450 122.4245110  39.5163210  54.8645740
 122.0704630  40.6657980  55.7839380 120.6289200  34.6563230  67.7083670
 121.5059380  34.6646630  68.0917670 120.6410040  33.9194070  67.0976020
 105.5659420  37.7868780  53.3195490 104.6623500  38.0498980  53.1447150
 106.0500040  38.0579950  52.5395450 108.1086630  36.8434320  51.2289870
 108.8178330  36.4217540  50.7437150 107.3926570  36.9109550  50.5973220
 107.7560790  32.8973650  50.2692520 108.4788920  33.4382590  50.5873740
 108.0285310  32.6237070  49.3934060 121.5652440  37.7666120  54.5364100
 122.0611560  37.5336990  55.3212980 121.3668510  36.9277960  54.1201740
 121.3405320  32.3421200  63.5284780 121.9777540  32.9555340  63.8943970
 121.4880210  32.3781860  62.5834010 123.8829870  34.2334990  50.3107920
 124.8079180  34.1016170  50.1026210 123.8605660  34.3127810  51.2644370
 123.9568360  35.0045650  52.9364630 123.1619860  34.9390770  53.4657540
 124.1611640  35.9396290  52.9249980 120.8986780  49.0437200  56.9303020
 121.4945850  48.7221770  56.2537440 121.1564930  48.5709020  57.7216290
 112.5055380  47.0314700  62.6803370 112.2646740  47.2989260  61.7933890
 113.4458020  47.2020430  62.7354230 114.7109800  33.4947390  66.4359880
 114.6498690  34.0869220  67.1855290 115.6510180  33.3873350  66.2910140
 117.3484360  33.1517450  66.0752170 117.9624770  33.4696740  65.4133250
 117.8933920  32.6666040  66.6948030 123.7659540  49.0509080  63.4814010
 123.2717820  49.4477950  62.7641140 123.1572830  48.4258290  63.8751290
 118.9964380  33.9220460  63.7863180 118.6677740  33.1072220  63.4064910
 119.9446680  33.8790270  63.6628870 121.4498990  49.6932500  60.7600750
 120.9901960  50.4448310  60.3858770 120.8211450  48.9738970  60.7015550
 122.2526860  32.9657770  57.3972280 122.1915260  32.0218990  57.2503300
 123.0318890  33.0737860  57.9425740 106.5579610  49.1050130  56.3596230
 106.3901650  48.4720810  57.0578120 105.6914120  49.3109530  56.0090420
 107.1807630  32.9366910  53.8628090 107.9386990  33.0495790  53.2892120
 106.7184800  33.7736110  53.8171520 113.7221440  35.0506180  56.8530400
 112.9095950  34.6763070  56.5126280 114.2263080  34.2951260  57.1551590
 118.2246420  31.7148630  58.0913470 118.8275790  32.2868840  58.5661990
 117.4839410  32.2788070  57.8687370 121.3681020  32.1170190  53.3653750
 121.5631650  33.0153640  53.6321180 120.5810890  31.8857270  53.8586700
 108.1642310  47.7983360  53.8046370 107.6389930  48.1791390  53.1008330
 108.0886890  48.4234130  54.5256080 109.5532780  33.4630960  52.4030060
 110.0825540  32.6760760  52.2738010 110.1861100  34.1422150  52.6365590
 111.7470620  33.2006100  55.4575450 111.1173360  32.4993410  55.6245580
 111.2075760  33.9610230  55.2408610 122.9207630  49.3570900  55.1260310
 123.0959820  48.6708640  54.4821230 122.2229200  49.8817950  54.7336980
 109.9250070  45.8630470  52.6841950 109.2958950  46.3315570  53.2327780
 110.0397900  45.0179690  53.1188140 118.4741640  31.8943660  68.4708410
 118.3607090  32.2138270  69.3659930 119.2911380  32.2956170  68.1745690
 121.2540130  49.0415190  67.9527100 122.0465450  48.5464420  67.7453060
 121.5473280  49.7205330  68.5602710 117.3799790  39.9136130  38.8343150
 117.2993840  38.9990740  38.5634860 116.9664210  40.4103200  38.1282860
 115.5117830  41.6915150  40.7152420 114.7359930  41.2115590  41.0050990
 116.1630760  41.0120800  40.5408580 119.5325260  46.0975340  39.4951550
 119.0706790  45.3262580  39.8238720 120.3450810  46.1241410  40.0004000
 107.9375610  36.9636850  35.3770570 107.0492310  37.3052820  35.2750450
 108.2216800  36.7637170  34.4851400 115.9831990  37.1742720  40.9491510
 116.3596810  36.3014600  40.8365180 115.8851500  37.5101420  40.0581950
 110.1137000  35.5468350  36.4108950 110.2203750  36.4472080  36.7177710
 109.2029360  35.4986320  36.1203600 119.7656110  34.6693160  37.8819850
 120.5865730  34.1789730  37.9245330 119.7990190  35.2590820  38.6351690
 107.7620160  37.4687360  41.6561540 108.4430270  37.7325730  42.2748940
 107.4468210  36.6288230  41.9899550 111.9544730  38.5154720  40.7434130
 112.4622950  39.0135690  41.3839150 112.4857970  37.7389920  40.5673490
 124.0555660  36.6859910  44.4463480 123.3507830  37.0741620  43.9278590
 124.3213580  37.3810200  45.0484410 110.2380830  33.1553280  45.0097550
 110.2399270  33.6725670  44.2043450 109.4085140  32.6783460  44.9867480
 116.6251920  43.2672590  36.5087450 116.0069190  43.7322040  35.9450170
 117.1375170  43.9600070  36.9256960 111.4883680  42.7948460  43.1871050
 111.1553060  43.4217380  43.8292120 111.6650360  43.3210340  42.4072720
 120.0017590  36.6093540  40.6547390 119.2973160  36.8978430  41.2350500
 120.3629750  37.4193650  40.2946950 109.9196160  34.8663240  43.0168000
 110.2612970  35.7105290  42.7221870 108.9811970  35.0146980  43.1333340
 110.7002780  44.7629260  45.0020230 111.3176780  45.4380340  44.7204680
 109.8395900  45.1717240  44.9107730 105.9935120  43.9529120  33.8827080
 105.6163100  44.4416220  33.1511980 106.2508190  44.6254400  34.5133610
 121.6180370  46.2268670  42.9174870 120.9343890  46.8967780  42.9091540
 122.1574660  46.4249320  42.1519730 123.0704510  36.0548330  41.0456600
 122.1229420  36.0887310  41.1772030 123.3954500  36.8687280  41.4305960
 113.6024050  32.3545510  39.3412590 113.9099030  31.7992400  38.6248090
 112.6724750  32.4889970  39.1585580 120.4484530  44.7929020  36.7210220
 120.3380860  43.8503350  36.8459640 120.4452780  45.1544660  37.6072980
 118.5524550  42.9742640  42.9602660 118.9693340  42.7602750  42.1256120
 119.2764370  43.2315430  43.5311280 115.9904810  40.4194340  36.0772710
 115.0634090  40.3531720  36.3061180 116.1429630  41.3574470  35.9627950
 115.9773890  36.6911340  33.0739870 115.0377560  36.8525300  33.1592330
 116.2957150  37.4097020  32.5275860 122.4986650  41.3729860  43.0518900
 121.6705280  41.4422950  42.5769030 123.0937130  41.9584170  42.5834730
 120.0202100  41.9814640  36.5807960 119.4014520  41.6434190  35.9334260
 120.0026550  41.3374400  37.2887150 119.4628660  38.1599180  43.9973770
 119.0499840  38.9852890  44.2513760 118.7304610  37.5744220  43.8050130
 112.0643150  44.6326640  41.0231650 111.7671440  44.0272110  40.3439430
 113.0142970  44.6703950  40.9121010 120.1528760  48.2058510  44.6854750
 119.6759320  49.0130700  44.4927360 119.4690550  47.5536840  44.8380960
 111.1561580  44.3708330  47.6739450 110.2590110  44.5948300  47.9212850
 111.1814450  44.4943270  46.7250850 118.1966800  41.2201450  33.5880710
 118.6360080  40.3823880  33.4418530 118.9095220  41.8530850  33.6744850
 111.7813150  47.1843350  48.4581970 111.7528580  47.5886300  47.5910400
 111.6178120  46.2553710  48.2953570 121.7783940  32.4744260  31.9021750
 121.4656600  32.5671090  32.8020820 122.5396410  33.0525290  31.8519180
 116.9977960  48.8611300  45.4840960 117.5122630  48.7719310  46.2863390
 116.1547040  49.2071000  45.7768870 118.9732360  49.1466640  34.9124960
 118.8133500  48.8569580  35.8106790 118.8079070  48.3706770  34.3770190
 111.4520740  48.9265170  36.6896580 111.2763220  48.0100710  36.4764380
 110.5976480  49.2852460  36.9294380 118.6758490  46.6554200  33.4722960
 117.9823650  46.6531490  32.8125240 119.4181350  46.2313520  33.0417130
 122.9885230  37.2115760  47.8795890 122.3729500  37.7195430  47.3511350
 122.6681650  36.3114090  47.8221830 105.9910970  44.0533370  44.7062190
 106.1542010  43.5838730  43.8881560 106.4563420  43.5456930  45.3711030
 110.7629740  33.1839130  39.7422760 110.3197890  33.9648670  39.4107280
 111.3214730  33.5069020  40.4493700 115.0499550  36.0507650  45.3458080
 114.5878920  36.2590670  46.1578020 114.6477660  35.2367000  45.0428750
 120.0504060  37.2716600  46.4754740 119.1997650  36.9722350  46.7963810
 119.8905850  37.5158610  45.5638560 117.1453770  38.7718350  48.5753530
 117.4707180  37.9382100  48.2355760 117.9334100  39.2946870  48.7231860
 113.8788560  32.8049830  34.6228590 113.2542740  32.8009700  35.3481900
 113.7918680  31.9380790  34.2264560 112.8005640  33.7286460  41.6012360
 113.0977970  34.6349290  41.5204380 113.3491200  33.2405240  40.9871930
 117.7841720  38.3136070  36.0694660 117.1850610  39.0371870  35.8858280
 118.3321330  38.2512850  35.2871110 116.3906590  36.9499610  38.0997940
 116.7836160  37.2671810  37.2866630 116.7523440  36.0711490  38.2142460
 114.6998760  35.7006920  49.3594800 114.0097080  35.5079120  49.9940890
 115.4431060  35.9841560  49.8919100 105.4270760  33.5400410  40.3228140
 105.1383810  34.1103270  41.0353120 106.1716520  33.0604860  40.6859370
 105.6140990  37.4820530  31.5330860 105.5315660  38.4251290  31.6745850
 105.2624050  37.3395440  30.6543210 116.9761730  39.5405360  42.1948720
 116.2442850  40.0492170  42.5438820 116.5786070  38.7235340  41.8937500
 113.4139120  36.2159560  40.6001210 113.4175180  35.7749510  39.7505750
 114.3090240  36.5376890  40.7073030 109.2641500  36.0986050  39.5595420
 108.9241550  36.5761280  40.3162470 108.5018820  35.6451170  39.1996520
 113.4759270  37.2171640  33.5907970 113.5972090  37.1758120  34.5393790
 113.0907780  38.0795790  33.4354700 117.4387640  34.9939040  41.6071660
 117.4560380  35.4447690  42.4513510 117.1903220  34.0944680  41.8205100
 112.4880770  39.5272780  32.9891270 111.9197670  39.0791030  32.3627180
 113.1969770  39.8865560  32.4556420 120.8658390  32.4071220  47.4458040
 121.1904160  31.6760880  47.9716020 120.9014900  32.0884860  46.5439030
 107.5649950  43.4284800  46.8658000 107.1804740  42.7878470  47.4640960
 107.8762140  44.1320920  47.4352730 113.7147090  40.2761340  42.3466620
 114.0817220  39.8019910  43.0927960 113.5252150  41.1502910  42.6874960
 106.5787580  35.0205030  38.4760090 106.2934500  34.6560700  39.3138710
 106.5166440  34.2885490  37.8623230 110.0328250  43.5230970  35.2617680
 109.2590510  42.9828590  35.1016400 110.7622880  43.0037580  34.9235440
 120.7916230  42.5196330  41.0544070 121.5115350  43.0151620  40.6640180
 120.5898050  41.8414220  40.4097940 116.2526170  33.9134290  35.1973460
 115.4390780  33.4147460  35.1218770 116.0588120  34.7532540  34.7809810
 116.1735030  42.5905390  46.9413070 116.1072340  41.6701060  46.6870660
 115.5440170  42.6880830  47.6557710 118.9674560  38.2853940  33.4935620
 119.8554180  38.5971170  33.3186960 118.9379650  37.4126190  33.1016200
 114.9635150  44.4577630  34.1723790 115.3050850  45.2019860  33.6767110
 114.1347860  44.7708750  34.5348620 116.1051760  45.4125960  46.6916870
 116.1196300  44.4806920  46.4735780 115.3976860  45.4985720  47.3306640
 121.2388830  39.5965780  32.9615480 121.1552550  40.0280000  32.1111920
 121.9583020  40.0564130  33.3942300 122.3162970  42.0533300  46.0385450
 121.5911160  42.6462080  45.8414840 122.8438430  42.0456840  45.2398820
 122.2676080  46.4508040  35.6897610 121.6252240  45.7963660  35.9641330
 121.8806740  46.8563130  34.9138280 117.8462560  43.7793470  39.5369300
 118.1986380  43.1821600  38.8770670 116.9624890  43.4537700  39.7077550
 113.9325840  44.5391160  36.9439710 114.6196970  45.0860370  37.3247300
 113.1458260  45.0831890  36.9789320 106.0718240  40.1563980  32.4356790
 106.9413090  40.4388780  32.7192710 105.5808560  40.9699850  32.3205600
 113.2353050  41.5437190  36.5565070 113.6915830  42.3542440  36.7825260
 112.8841260  41.2260330  37.3883560 109.1364830  31.8874840  37.0287590
 109.0079460  31.8792740  37.9772510 108.3126850  32.2257930  36.6778600
 120.6573460  45.3424500  32.2273960 120.4311040  44.6254940  32.8198600
 120.2669660  45.0936940  31.3895710 118.5855360  45.8570780  45.7070880
 118.9211600  46.4437470  46.3848800 117.6655700  45.7263490  45.9368670
 120.2389710  43.2596440  33.8888120 119.9511410  43.7209130  34.6766000
 121.0341880  42.7994210  34.1572340 106.4231350  47.6346220  47.4760820
 106.5322470  46.6940960  47.3356210 105.7711910  47.9000970  46.8274550
 114.4143940  45.9062110  48.8758940 114.0940810  45.1871350  49.4204630
 113.7402300  46.5817180  48.9495000 112.4558110  46.7522560  33.8192090
 112.4468210  47.4852250  33.2036600 111.5356470  46.5054140  33.9119050
 108.0564750  41.9737450  34.5638850 107.4492700  42.7136350  34.5734150
 108.5314100  42.0636810  33.7377050 117.6297540  36.1388270  44.2395740
 117.9978360  35.3183480  44.5675310 116.7695740  36.1990160  44.6551390
 120.9959570  35.0945210  35.0483300 120.3672730  35.1990880  34.3341530
 120.5011490  35.3141990  35.8377180 115.4417710  46.8150800  32.4817280
 115.5429690  46.6114790  31.5519260 114.5419450  46.5609080  32.6865060
 112.9643600  37.3731160  36.4641180 112.2559750  37.8417500  36.9054790
 113.2488080  36.7153170  37.0986370 116.9959030  34.0981820  37.9036970
 116.8726810  34.1167950  36.9546480 117.9443590  34.1460760  38.0235370
 111.1678620  35.6816240  33.8391890 112.0169150  36.1186390  33.7732080
 110.8009890  35.9936500  34.6663950 121.7966390  35.0095820  45.3062100
 121.2939990  35.7501220  45.6455910 122.6123050  35.3979820  44.9898890
 120.0888400  40.2529000  38.7523460 119.1478540  40.2679230  38.9271150
 120.4032470  39.4664960  39.1983760 110.0670040  41.9348600  32.3127420
 110.8333310  41.8229960  32.8752850 110.1444730  41.2386570  31.6604190
 108.7616800  39.3673670  32.9960310 108.8420390  38.4201180  33.1077710
 109.6536550  39.6980550  33.1020970 122.0913980  47.4237850  40.4277720
 122.2161400  48.2469020  40.9001530 122.9579540  47.2128580  40.0801870
 109.5631510  49.5169060  40.0994850 110.2993990  48.9684520  40.3703420
 109.9472430  50.3825070  39.9600840 106.4476990  45.5842630  35.9736360
 105.5216770  45.8263770  35.9641770 106.9133420  46.4116890  35.8521110
 108.5689790  48.7015130  49.2880430 109.3702520  49.0227180  49.7015830
 108.0541610  48.3410710  50.0100340 112.6733820  48.6899370  31.9220420
 113.4662430  48.9788200  31.4702210 112.1538170  48.2591540  31.2432900
 117.4054420  44.8095000  49.2355840 116.7992580  44.8326600  48.4951590
 117.1008530  44.0778040  49.7723090 118.8354790  48.5375290  47.8465250
 119.7876540  48.4533310  47.7965490 118.6883010  49.2017000  48.5199040
 121.7263990  47.9169500  33.3457160 121.4405500  47.5034640  32.5311340
 121.5283540  48.8457210  33.2257680 113.1911220  43.9102780  31.7862770
 113.0861860  43.2955130  32.5124150 113.0235440  43.3868670  31.0025780
 113.3425540  42.5959580  47.7652000 112.5771210  43.1644580  47.6806670
 113.5241500  42.3035790  46.8720230 116.4313950  42.9722810  32.3904760
 115.8824050  43.4192110  33.0347500 117.0533210  42.4672060  32.9142430
 120.4848890  44.3264910  48.3227020 121.2258360  44.6640670  47.8194480
 119.7221570  44.4956970  47.7696790 112.0989070  41.9313730  34.2870060
 112.5205490  41.7653600  35.1301450 112.2239910  41.1213960  33.7925200
 114.6116710  40.9551340  31.5347160 115.1322370  40.2400360  31.1688310
 115.2585110  41.5937210  31.8347670 119.1594550  42.3779740  46.8582230
 119.5735570  42.5324820  47.7072650 118.2245550  42.5034960  47.0208010
 119.6316720  39.7175900  48.8621380 120.2137490  38.9628220  48.7741860
 119.8078490  40.2483340  48.0852860 113.5150230  33.4345890  44.2065720
 113.0667530  33.4570150  43.3611270 112.8815430  33.0364910  44.8036020
 113.9209780  42.3300220  44.8278160 114.3397890  43.1732950  44.6554400
 113.0018410  42.4672260  44.5984940 116.2573680  40.0616400  46.2116000
 116.3769890  39.4657540  46.9510840 117.1167680  40.0986090  45.7917300
 118.5961580  40.6153590  44.7878510 118.0696800  41.1396210  44.1843650
 118.9392920  41.2480980  45.4188240 110.9947970  38.0046960  31.2328220
 110.7937030  37.1414320  31.5941560 110.8240020  37.9180320  30.2949820
 111.7717200  48.6353230  45.9435890 111.2338290  49.3599290  45.6244590
 112.0251160  48.1583570  45.1533230 117.8435880  36.2203560  47.7024840
 117.1551400  35.5585100  47.6374830 118.5641900  35.7741830  48.1473300
 118.4736280  32.8155190  33.7615100 118.7538570  31.9723090  34.1174520
 117.7002010  33.0478300  34.2753850 109.7930770  35.1047580  31.2206100
 110.0956670  35.1115010  30.3125250 110.5325360  34.7545440  31.7173760
 114.6279410  49.8704440  46.2022540 114.5538110  50.7739580  46.5094910
 113.7258250  49.5516340  46.1744610 113.0115700  34.0482200  32.2062300
 112.6637700  33.3706190  31.6264750 113.2128470  33.5871710  33.0205690
 115.1764740  49.0362950  33.8248900 116.0715530  49.3747920  33.8467660
 115.2082370  48.3142360  33.1973180 108.8160900  44.4090000  32.0535900
 109.2535770  44.9519670  32.7093480 109.3008630  43.5836950  32.0632240
 110.6268620  45.5288040  37.1658130 110.3264160  45.4053010  38.0662040
 110.5206110  44.6696630  36.7573860 106.5196910  48.0649620  42.2437790
 106.0827900  48.2450420  43.0761940 107.0874590  48.8224240  42.1019510
 123.3960540  45.3084440  31.8684810 122.5653500  45.3761090  32.3392040
 123.5732370  46.1988560  31.5651670 122.8517000  42.0531920  34.3719010
 123.6135910  42.6228570  34.4778700 122.8671370  41.4859120  35.1427320
 123.8576970  42.9082020  39.2160940 124.2285800  42.1249340  38.8096910
 124.4978900  43.5971120  39.0378240 120.8410730  44.2918600  44.6291260
 120.0270570  44.7215760  44.8917050 121.2484930  44.9037010  44.0160310
 122.9036170  42.3466290  31.5291530 123.1785010  43.2545170  31.4010750
 122.7146910  42.2828820  32.4653520 119.3011780  35.3711140  32.8245160
 119.7196660  35.1842120  31.9841820 118.9947840  34.5190190  33.1348090
 122.8001510  40.2835280  36.5220960 122.4245110  39.5163210  36.0902250
 122.0704630  40.6657980  37.0095890 107.3897270  40.9622420  43.1430010
 107.7570310  40.8749820  44.0226030 106.8208090  40.1988970  43.0436870
 122.1901130  39.4306800  46.1560480 121.9587220  39.2019550  45.2558430
 122.4505680  40.3506350  46.1105370 120.6289200  34.6563230  48.9340180
 121.5059380  34.6646630  49.3174180 120.6410040  33.9194070  48.3232530
 105.5659420  37.7868780  34.5452000 104.6623500  38.0498980  34.3703660
 106.0500040  38.0579950  33.7651960 122.0752470  38.5092770  39.8228200
 122.5989950  38.0155420  39.1918370 122.6611890  38.6443130  40.5675770
 122.2542190  38.5932640  43.3447750 121.3044900  38.5596180  43.4592740
 122.4355200  39.5032750  43.1097520 108.1086630  36.8434320  32.4546380
 108.8178330  36.4217540  31.9693660 107.3926570  36.9109550  31.8229730
 107.7560790  32.8973650  31.4949030 108.4788920  33.4382590  31.8130250
 108.0285310  32.6237070  30.6190570 121.5652440  37.7666120  35.7620610
 122.0611560  37.5336990  36.5469490 121.3668510  36.9277960  35.3458250
 107.4452980  32.1479840  41.3971650 108.0929170  31.5977220  40.9566810
 107.8654820  32.4022990  42.2187460 122.9939600  36.4027070  38.2958290
 122.8838880  36.2483110  39.2340560 123.7547190  35.8748010  38.0533700
 121.3405320  32.3421200  44.7541290 121.9777540  32.9555340  45.1200480
 121.4880210  32.3781860  43.8090520 123.8829870  34.2334990  31.5364430
 124.8079180  34.1016170  31.3282720 123.8605660  34.3127810  32.4900880
 123.9568360  35.0045650  34.1621140 123.1619860  34.9390770  34.6914050
 124.1611640  35.9396290  34.1506490 120.8986780  49.0437200  38.1559530
 121.4945850  48.7221770  37.4793950 121.1564930  48.5709020  38.9472800
 108.8049350  45.4755110  48.3050160 108.7618980  45.1048020  49.1864620
 108.9360360  46.4132680  48.4451980 112.5055380  47.0314700  43.9059880
 112.2646740  47.2989260  43.0190400 113.4458020  47.2020430  43.9610740
 114.7109800  33.4947390  47.6616390 114.6498690  34.0869220  48.4111800
 115.6510180  33.3873350  47.5166650 117.3484360  33.1517450  47.3008680
 117.9624770  33.4696740  46.6389760 117.8933920  32.6666040  47.9204540
 123.7659540  49.0509080  44.7070520 123.2717820  49.4477950  43.9897650
 123.1572830  48.4258290  45.1007800 108.6437380  48.4217360  45.4247940
 108.0497700  48.2902060  46.1637980 108.6361220  47.5855500  44.9590040
 118.0892400  31.7149590  43.6277970 117.2152240  32.0484700  43.4250900
 117.9803150  31.2422770  44.4529840 118.9964380  33.9220460  45.0119690
 118.6677740  33.1072220  44.6321420 119.9446680  33.8790270  44.8885380
 108.2749610  45.7875740  44.3755980 107.5483670  45.1681030  44.3081930
 108.3358760  46.1816350  43.5054060 115.8367220  32.6319430  42.5670880
 115.0539010  33.1064930  42.8467640 115.5430150  31.7274260  42.4584060
 120.3888290  33.3342530  40.6119970 120.8296380  33.2787630  39.7641570
 120.1195880  34.2500540  40.6830150 122.2526860  32.9657770  38.6228790
 122.1915260  32.0218990  38.4759810 123.0318890  33.0737860  39.1682250
 106.5579610  49.1050130  37.5852740 106.3901650  48.4720810  38.2834630
 105.6914120  49.3109530  37.2346930 107.1807630  32.9366910  35.0884600
 107.9386990  33.0495790  34.5148630 106.7184800  33.7736110  35.0428030
 113.7221440  35.0506180  38.0786910 112.9095950  34.6763070  37.7382790
 114.2263080  34.2951260  38.3808100 118.2246420  31.7148630  39.3169980
 118.8275790  32.2868840  39.7918500 117.4839410  32.2788070  39.0943880
 121.3681020  32.1170190  34.5910260 121.5631650  33.0153640  34.8577690
 120.5810890  31.8857270  35.0843210 108.1642310  47.7983360  35.0302880
 107.6389930  48.1791390  34.3264840 108.0886890  48.4234130  35.7512590
 109.5532780  33.4630960  33.6286570 110.0825540  32.6760760  33.4994520
 110.1861100  34.1422150  33.8622100 111.7470620  33.2006100  36.6831960
 111.1173360  32.4993410  36.8502090 111.2075760  33.9610230  36.4665120
 114.6862570  49.8145330  49.3542570 115.6129880  49.5789600  49.3978530
 114.6713000  50.6417330  48.8728600 122.9207630  49.3570900  36.3516820
 123.0959820  48.6708640  35.7077740 122.2229200  49.8817950  35.9593490
 111.8726180  32.4790080  49.1184450 111.5910450  32.9823680  48.3545270
 112.2545880  31.6811830  48.7526580 109.9250070  45.8630470  33.9098460
 109.2958950  46.3315570  34.4584290 110.0397900  45.0179690  34.3444650
 118.4741640  31.8943660  49.6964920 118.3607090  32.2138270  50.5916440
 119.2911380  32.2956170  49.4002200 117.3799790  39.9136130  20.0599660
 117.2993840  38.9990740  19.7891370 116.9664210  40.4103200  19.3539370
 115.5117830  41.6915150  21.9408930 114.7359930  41.2115590  22.2307500
 116.1630760  41.0120800  21.7665090 109.5283660  42.0034960  22.8184690
 108.6968540  41.7483670  23.2181200 110.1364640  42.0745730  23.5542610
 119.5325260  46.0975340  20.7208060 119.0706790  45.3262580  21.0495230
 120.3450810  46.1241410  21.2260510 109.5084920  46.0375050  23.0142710
 109.8112960  45.1472790  22.8352930 110.2528510  46.5945270  22.7864960
 107.9375610  36.9636850  16.6027080 107.0492310  37.3052820  16.5006960
 108.2216800  36.7637170  15.7107910 105.9008620  39.5642500  22.4866780
 106.4724730  38.7964700  22.4870420 105.9010160  39.8631260  21.5773390
 115.7588570  48.3833350  20.3412050 115.1400010  48.8390850  19.7706490
 116.6140350  48.5384810  19.9401750 114.9526820  44.3672340  21.9479090
 114.8835100  43.4262280  21.7868220 115.7146680  44.4573750  22.5201660
 107.1433490  34.9726860  24.2735710 106.9636330  34.0752610  24.5538470
 106.7413570  35.5198730  24.9482660 115.9831990  37.1742720  22.1748020
 116.3596810  36.3014600  22.0621690 115.8851500  37.5101420  21.2838460
 110.1137000  35.5468350  17.6365460 110.2203750  36.4472080  17.9434220
 109.2029360  35.4986320  17.3460110 119.7656110  34.6693160  19.1076360
 120.5865730  34.1789730  19.1501840 119.7990190  35.2590820  19.8608200
 107.7620160  37.4687360  22.8818050 108.4430270  37.7325730  23.5005450
 107.4468210  36.6288230  23.2156060 111.9544730  38.5154720  21.9690640
 112.4622950  39.0135690  22.6095660 112.4857970  37.7389920  21.7930000
 124.0555660  36.6859910  25.6719990 123.3507830  37.0741620  25.1535100
 124.3213580  37.3810200  26.2740920 110.2380830  33.1553280  26.2354060
 110.2399270  33.6725670  25.4299960 109.4085140  32.6783460  26.2123990
 116.6251920  43.2672590  17.7343960 116.0069190  43.7322040  17.1706680
 117.1375170  43.9600070  18.1513470 111.4883680  42.7948460  24.4127560
 111.1553060  43.4217380  25.0548630 111.6650360  43.3210340  23.6329230
 120.0017590  36.6093540  21.8803900 119.2973160  36.8978430  22.4607010
 120.3629750  37.4193650  21.5203460 109.9196160  34.8663240  24.2424510
 110.2612970  35.7105290  23.9478380 108.9811970  35.0146980  24.3589850
 110.7002780  44.7629260  26.2276740 111.3176780  45.4380340  25.9461190
 109.8395900  45.1717240  26.1364240 105.9935120  43.9529120  15.1083590
 105.6163100  44.4416220  14.3768490 106.2508190  44.6254400  15.7390120
 121.6180370  46.2268670  24.1431380 120.9343890  46.8967780  24.1348050
 122.1574660  46.4249320  23.3776240 123.0704510  36.0548330  22.2713110
 122.1229420  36.0887310  22.4028540 123.3954500  36.8687280  22.6562470
 113.6024050  32.3545510  20.5669100 113.9099030  31.7992400  19.8504600
 112.6724750  32.4889970  20.3842090 119.1539110  48.0712800  22.8576560
 119.1666270  47.6675090  21.9898820 118.6014330  48.8460090  22.7537990
 120.4484530  44.7929020  17.9466730 120.3380860  43.8503350  18.0716150
 120.4452780  45.1544660  18.8329490 118.5524550  42.9742640  24.1859170
 118.9693340  42.7602750  23.3512630 119.2764370  43.2315430  24.7567790
 115.9904810  40.4194340  17.3029220 115.0634090  40.3531720  17.5317690
 116.1429630  41.3574470  17.1884460 115.9773890  36.6911340  14.2996380
 115.0377560  36.8525300  14.3848840 116.2957150  37.4097020  13.7532370
 122.4986650  41.3729860  24.2775410 121.6705280  41.4422950  23.8025540
 123.0937130  41.9584170  23.8091240 120.0202100  41.9814640  17.8064470
 119.4014520  41.6434190  17.1590770 120.0026550  41.3374400  18.5143660
 119.4628660  38.1599180  25.2230280 119.0499840  38.9852890  25.4770270
 118.7304610  37.5744220  25.0306640 111.5961450  40.9459080  20.0848950
 111.1918450  40.2336330  19.5894850 111.6824570  40.6012320  20.9736990
 112.0643150  44.6326640  22.2488160 111.7671440  44.0272110  21.5695940
 113.0142970  44.6703950  22.1377520 110.3090070  37.7202290  23.8647990
 110.8604660  37.8297630  23.0901240 110.8233580  38.0939890  24.5803220
 120.1528760  48.2058510  25.9111260 119.6759320  49.0130700  25.7183870
 119.4690550  47.5536840  26.0637470 111.1561580  44.3708330  28.8995960
 110.2590110  44.5948300  29.1469360 111.1814450  44.4943270  27.9507360
 118.1966800  41.2201450  14.8137220 118.6360080  40.3823880  14.6675040
 118.9095220  41.8530850  14.9001360 109.9832800  41.2421650  27.4753330
 109.8440570  42.1144450  27.8440730 109.1014160  40.8994460  27.3301270
 116.3062180  46.1597520  18.7818460 116.7458090  46.9021850  18.3673850
 116.2449070  46.4024090  19.7057420 111.7813150  47.1843350  29.6838480
 111.7528580  47.5886300  28.8166910 111.6178120  46.2553710  29.5210080
 121.7783940  32.4744260  13.1278260 121.4656600  32.5671090  14.0277330
 122.5396410  33.0525290  13.0775690 108.2966080  39.8404060  17.5855600
 108.1763680  40.5666150  16.9736870 107.9866970  39.0706970  17.1083510
 123.7327970  47.9670450  30.9802650 124.2087690  48.4453340  31.6591730
 124.3535130  47.8987940  30.2548150 105.9351450  43.0119200  23.3924240
 106.0131870  43.1467970  22.4479960 106.5493130  42.3035090  23.5852360
 107.1799080  44.7119390  19.8030420 106.7727160  44.8533980  18.9484020
 108.0712090  44.4279550  19.6001630 123.1361220  45.1583300  28.1402660
 123.2624280  44.9195180  27.2219840 123.1782600  44.3267840  28.6124740
 116.9977960  48.8611300  26.7097470 117.5122630  48.7719310  27.5119900
 116.1547040  49.2071000  27.0025380 118.9732360  49.1466640  16.1381470
 118.8133500  48.8569580  17.0363300 118.8079070  48.3706770  15.6026700
 111.4520740  48.9265170  17.9153090 111.2763220  48.0100710  17.7020890
 110.5976480  49.2852460  18.1550890 118.6758490  46.6554200  14.6979470
 117.9823650  46.6531490  14.0381750 119.4181350  46.2313520  14.2673640
 118.2408420  48.2816910  18.7727960 118.6965370  47.5006290  19.0866580
 118.5800940  48.9923730  19.3169140 122.9885230  37.2115760  29.1052400
 122.3729500  37.7195430  28.5767860 122.6681650  36.3114090  29.0478340
 105.9910970  44.0533370  25.9318700 106.1542010  43.5838730  25.1138070
 106.4563420  43.5456930  26.5967540 110.7629740  33.1839130  20.9679270
 110.3197890  33.9648670  20.6363790 111.3214730  33.5069020  21.6750210
 115.0499550  36.0507650  26.5714590 114.5878920  36.2590670  27.3834530
 114.6477660  35.2367000  26.2685260 120.0504060  37.2716600  27.7011250
 119.1997650  36.9722350  28.0220320 119.8905850  37.5158610  26.7895070
 117.1453770  38.7718350  29.8010040 117.4707180  37.9382100  29.4612270
 117.9334100  39.2946870  29.9488370 113.8788560  32.8049830  15.8485100
 113.2542740  32.8009700  16.5738410 113.7918680  31.9380790  15.4521070
 112.8005640  33.7286460  22.8268870 113.0977970  34.6349290  22.7460890
 113.3491200  33.2405240  22.2128440 110.5543960  38.3072700  18.6960520
 110.3284880  38.0909870  19.6007140 109.7736490  38.7401160  18.3506490
 117.7841720  38.3136070  17.2951170 117.1850610  39.0371870  17.1114790
 118.3321330  38.2512850  16.5127620 112.9943170  39.2058280  29.3620790
 112.8986770  38.2653010  29.2121190 113.8375150  39.4273350  28.9668860
 116.3906590  36.9499610  19.3254450 116.7836160  37.2671810  18.5123140
 116.7523440  36.0711490  19.4398970 108.1253710  35.6171950  27.5154570
 107.7317100  36.4647160  27.7227350 107.4372110  34.9798320  27.7063210
 114.6998760  35.7006920  30.5851310 114.0097080  35.5079120  31.2197400
 115.4431060  35.9841560  31.1175610 105.4270760  33.5400410  21.5484650
 105.1383810  34.1103270  22.2609630 106.1716520  33.0604860  21.9115880
 105.6140990  37.4820530  12.7587370 105.5315660  38.4251290  12.9002360
 105.2624050  37.3395440  11.8799720 116.9761730  39.5405360  23.4205230
 116.2442850  40.0492170  23.7695330 116.5786070  38.7235340  23.1194010
 113.4139120  36.2159560  21.8257720 113.4175180  35.7749510  20.9762260
 114.3090240  36.5376890  21.9329540 109.2641500  36.0986050  20.7851930
 108.9241550  36.5761280  21.5418980 108.5018820  35.6451170  20.4253030
 113.4759270  37.2171640  14.8164480 113.5972090  37.1758120  15.7650300
 113.0907780  38.0795790  14.6611210 117.4387640  34.9939040  22.8328170
 117.4560380  35.4447690  23.6770020 117.1903220  34.0944680  23.0461610
 112.4880770  39.5272780  14.2147780 111.9197670  39.0791030  13.5883690
 113.1969770  39.8865560  13.6812930 120.8658390  32.4071220  28.6714550
 121.1904160  31.6760880  29.1972530 120.9014900  32.0884860  27.7695540
 107.5649950  43.4284800  28.0914510 107.1804740  42.7878470  28.6897470
 107.8762140  44.1320920  28.6609240 113.7147090  40.2761340  23.5723130
 114.0817220  39.8019910  24.3184470 113.5252150  41.1502910  23.9131470
 106.5787580  35.0205030  19.7016600 106.2934500  34.6560700  20.5395220
 106.5166440  34.2885490  19.0879740 111.5046460  39.3169980  25.8907340
 111.2003530  40.1961960  26.1157700 112.4592920  39.3769770  25.9264780
 110.0328250  43.5230970  16.4874190 109.2590510  42.9828590  16.3272910
 110.7622880  43.0037580  16.1491950 120.7916230  42.5196330  22.2800580
 121.5115350  43.0151620  21.8896690 120.5898050  41.8414220  21.6354450
 116.2526170  33.9134290  16.4229970 115.4390780  33.4147460  16.3475280
 116.0588120  34.7532540  16.0066320 116.1735030  42.5905390  28.1669580
 116.1072340  41.6701060  27.9127170 115.5440170  42.6880830  28.8814220
 118.9674560  38.2853940  14.7192130 119.8554180  38.5971170  14.5443470
 118.9379650  37.4126190  14.3272710 110.0765650  43.1911350  20.1253000
 110.5944320  42.3879610  20.0709890 109.6249670  43.1290490  20.9669830
 114.9635150  44.4577630  15.3980300 115.3050850  45.2019860  14.9023620
 114.1347860  44.7708750  15.7605130 107.5610190  40.1572720  27.0378700
 107.2025130  40.8226570  27.6252040 107.2664750  39.3256270  27.4091320
 110.7623310  40.6156960  29.9218250 110.4623450  40.7614140  29.0246070
 111.5334550  40.0562250  29.8291640 116.1051760  45.4125960  27.9173380
 116.1196300  44.4806920  27.6992290 115.3976860  45.4985720  28.5563150
 121.2388830  39.5965780  14.1871990 121.1552550  40.0280000  13.3368430
 121.9583020  40.0564130  14.6198810 122.3162970  42.0533300  27.2641960
 121.5911160  42.6462080  27.0671350 122.8438430  42.0456840  26.4655330
 122.2676080  46.4508040  16.9154120 121.6252240  45.7963660  17.1897840
 121.8806740  46.8563130  16.1394790 117.8462560  43.7793470  20.7625810
 118.1986380  43.1821600  20.1027180 116.9624890  43.4537700  20.9334060
 113.9325840  44.5391160  18.1696220 114.6196970  45.0860370  18.5503810
 113.1458260  45.0831890  18.2045830 106.0718240  40.1563980  13.6613300
 106.9413090  40.4388780  13.9449220 105.5808560  40.9699850  13.5462110
 113.2353050  41.5437190  17.7821580 113.6915830  42.3542440  18.0081770
 112.8841260  41.2260330  18.6140070 115.5385660  47.0543530  25.0113880
 116.1827880  47.2602910  25.6887300 115.9015100  46.2931930  24.5584730
 109.1364830  31.8874840  18.2544100 109.0079460  31.8792740  19.2029020
 108.3126850  32.2257930  17.9035110 116.8117740  45.0575880  23.7291330
 117.4539970  44.3569040  23.8423500 117.3367090  45.8374320  23.5488220
 120.6573460  45.3424500  13.4530470 120.4311040  44.6254940  14.0455110
 120.2669660  45.0936940  12.6152220 118.5855360  45.8570780  26.9327390
 118.9211600  46.4437470  27.6105310 117.6655700  45.7263490  27.1625180
 106.4389490  49.3691360  14.2274930 106.7987130  49.9680700  13.5732200
 106.2981830  49.9151250  15.0009960 106.1358760  33.6465960  27.7150800
 105.4217280  33.8462880  28.3203410 106.5553800  32.8705530  28.0865600
 120.2389710  43.2596440  15.1144630 119.9511410  43.7209130  15.9022510
 121.0341880  42.7994210  15.3828850 106.4231350  47.6346220  28.7017330
 106.5322470  46.6940960  28.5612720 105.7711910  47.9000970  28.0531060
 114.4143940  45.9062110  30.1015450 114.0940810  45.1871350  30.6461140
 113.7402300  46.5817180  30.1751510 112.4558110  46.7522560  15.0448600
 112.4468210  47.4852250  14.4293110 111.5356470  46.5054140  15.1375560
 108.0564750  41.9737450  15.7895360 107.4492700  42.7136350  15.7990660
 108.5314100  42.0636810  14.9633560 117.6297540  36.1388270  25.4652250
 117.9978360  35.3183480  25.7931820 116.7695740  36.1990160  25.8807900
 120.9959570  35.0945210  16.2739810 120.3672730  35.1990880  15.5598040
 120.5011490  35.3141990  17.0633690 115.4417710  46.8150800  13.7073790
 115.5429690  46.6114790  12.7775770 114.5419450  46.5609080  13.9121570
 112.9643600  37.3731160  17.6897690 112.2559750  37.8417500  18.1311300
 113.2488080  36.7153170  18.3242880 114.5899530  38.7927860  25.6890220
 115.0884780  39.2673680  26.3542070 114.7322480  37.8691380  25.8960250
 116.9959030  34.0981820  19.1293480 116.8726810  34.1167950  18.1802990
 117.9443590  34.1460760  19.2491880 114.0835820  49.3337120  18.4021460
 114.3377320  49.2958510  17.4800830 113.1348300  49.2070450  18.3949710
 111.1678620  35.6816240  15.0648400 112.0169150  36.1186390  14.9988590
 110.8009890  35.9936500  15.8920460 121.7966390  35.0095820  26.5318610
 121.2939990  35.7501220  26.8712420 122.6123050  35.3979820  26.2155400
 120.0888400  40.2529000  19.9779970 119.1478540  40.2679230  20.1527660
 120.4032470  39.4664960  20.4240270 110.0670040  41.9348600  13.5383930
 110.8333310  41.8229960  14.1009360 110.1444730  41.2386570  12.8860700
 108.7616800  39.3673670  14.2216820 108.8420390  38.4201180  14.3334220
 109.6536550  39.6980550  14.3277480 122.0913980  47.4237850  21.6534230
 122.2161400  48.2469020  22.1258040 122.9579540  47.2128580  21.3058380
 109.5631510  49.5169060  21.3251360 110.2993990  48.9684520  21.5959930
 109.9472430  50.3825070  21.1857350 106.4476990  45.5842630  17.1992870
 105.5216770  45.8263770  17.1898280 106.9133420  46.4116890  17.0777620
 108.5689790  48.7015130  30.5136940 109.3702520  49.0227180  30.9272340
 108.0541610  48.3410710  31.2356850 112.6733820  48.6899370  13.1476930
 113.4662430  48.9788200  12.6958720 112.1538170  48.2591540  12.4689410
 117.4054420  44.8095000  30.4612350 116.7992580  44.8326600  29.7208100
 117.1008530  44.0778040  30.9979600 118.8354790  48.5375290  29.0721760
 119.7876540  48.4533310  29.0222000 118.6883010  49.2017000  29.7455550
 121.7263990  47.9169500  14.5713670 121.4405500  47.5034640  13.7567850
 121.5283540  48.8457210  14.4514190 106.2887600  41.1888590  29.4572990
 106.7926620  40.6095870  30.0289220 105.5495020  41.4728820  29.9949360
 113.1911220  43.9102780  13.0119280 113.0861860  43.2955130  13.7380660
 113.0235440  43.3868670  12.2282290 113.3425540  42.5959580  28.9908510
 112.5771210  43.1644580  28.9063180 113.5241500  42.3035790  28.0976740
 116.4313950  42.9722810  13.6161270 115.8824050  43.4192110  14.2604010
 117.0533210  42.4672060  14.1398940 120.4848890  44.3264910  29.5483530
 121.2258360  44.6640670  29.0450990 119.7221570  44.4956970  28.9953300
 108.3210680  39.3318180  30.3523060 108.3616020  39.0332050  31.2608290
 109.1756180  39.7325790  30.1930580 112.0989070  41.9313730  15.5126570
 112.5205490  41.7653600  16.3557960 112.2239910  41.1213960  15.0181710
 110.2616490  37.9110280  28.3197550 109.7312950  37.4201230  27.6920890
 110.9304560  38.3394480  27.7855480 114.6116710  40.9551340  12.7603670
 115.1322370  40.2400360  12.3944820 115.2585110  41.5937210  13.0604180
 119.1594550  42.3779740  28.0838740 119.5735570  42.5324820  28.9329160
 118.2245550  42.5034960  28.2464520 119.6316720  39.7175900  30.0877890
 120.2137490  38.9628220  29.9998370 119.8078490  40.2483340  29.3109370
 110.7488790  34.8772650  28.3994840 110.6545660  34.2593400  27.6745710
 110.1686180  35.6038940  28.1724750 113.5150230  33.4345890  25.4322230
 113.0667530  33.4570150  24.5867780 112.8815430  33.0364910  26.0292530
 113.9209780  42.3300220  26.0534670 114.3397890  43.1732950  25.8810910
 113.0018410  42.4672260  25.8241450 116.2573680  40.0616400  27.4372510
 116.3769890  39.4657540  28.1767350 117.1167680  40.0986090  27.0173810
 118.5961580  40.6153590  26.0135020 118.0696800  41.1396210  25.4100160
 118.9392920  41.2480980  26.6444750 110.9947970  38.0046960  12.4584730
 110.7937030  37.1414320  12.8198070 110.8240020  37.9180320  11.5206330
 111.7717200  48.6353230  27.1692400 111.2338290  49.3599290  26.8501100
 112.0251160  48.1583570  26.3789740 113.0242450  36.6037750  28.6948330
 113.6142140  36.2953600  29.3826150 112.2062690  36.1317500  28.8508230
 117.8435880  36.2203560  28.9281350 117.1551400  35.5585100  28.8631340
 118.5641900  35.7741830  29.3729810 118.4736280  32.8155190  14.9871610
 118.7538570  31.9723090  15.3431030 117.7002010  33.0478300  15.5010360
 109.7930770  35.1047580  12.4462610 110.0956670  35.1115010  11.5381760
 110.5325360  34.7545440  12.9430270 114.6279410  49.8704440  27.4279050
 114.5538110  50.7739580  27.7351420 113.7258250  49.5516340  27.4001120
 113.0115700  34.0482200  13.4318810 112.6637700  33.3706190  12.8521260
 113.2128470  33.5871710  14.2462200 115.1764740  49.0362950  15.0505410
 116.0715530  49.3747920  15.0724170 115.2082370  48.3142360  14.4229690
 108.8160900  44.4090000  13.2792410 109.2535770  44.9519670  13.9349990
 109.3008630  43.5836950  13.2888750 106.0306700  47.1979030  20.7312670
 106.3609710  46.3300090  20.4991310 106.4597700  47.4037550  21.5617630
 110.6268620  45.5288040  18.3914640 110.3264160  45.4053010  19.2918550
 110.5206110  44.6696630  17.9830370 106.5196910  48.0649620  23.4694300
 106.0827900  48.2450420  24.3018450 107.0874590  48.8224240  23.3276020
 122.1559090  47.5666620  27.7571610 121.5561080  47.6259180  27.0135530
 122.2852990  46.6271600  27.8868460 123.3960540  45.3084440  13.0941320
 122.5653500  45.3761090  13.5648550 123.5732370  46.1988560  12.7908180
 122.8517000  42.0531920  15.5975520 123.6135910  42.6228570  15.7035210
 122.8671370  41.4859120  16.3683830 106.3521340  40.5769850  19.8283180
 105.6970180  40.3081490  19.1842880 107.1899290  40.4674330  19.3785160
 123.8576970  42.9082020  20.4417450 124.2285800  42.1249340  20.0353420
 124.4978900  43.5971120  20.2634750 120.8410730  44.2918600  25.8547770
 120.0270570  44.7215760  26.1173560 121.2484930  44.9037010  25.2416820
 122.9036170  42.3466290  12.7548040 123.1785010  43.2545170  12.6267260
 122.7146910  42.2828820  13.6910030 119.3011780  35.3711140  14.0501670
 119.7196660  35.1842120  13.2098330 118.9947840  34.5190190  14.3604600
 122.8001510  40.2835280  17.7477470 122.4245110  39.5163210  17.3158760
 122.0704630  40.6657980  18.2352400 107.3897270  40.9622420  24.3686520
 107.7570310  40.8749820  25.2482540 106.8208090  40.1988970  24.2693380
 122.1901130  39.4306800  27.3816990 121.9587220  39.2019550  26.4814940
 122.4505680  40.3506350  27.3361880 106.9413270  37.8731510  28.2744940
 106.0469320  37.8398270  28.6138650 107.4810820  38.0718300  29.0396190
 120.6289200  34.6563230  30.1596690 121.5059380  34.6646630  30.5430690
 120.6410040  33.9194070  29.5489040 105.5659420  37.7868780  15.7708510
 104.6623500  38.0498980  15.5960170 106.0500040  38.0579950  14.9908470
 122.0752470  38.5092770  21.0484710 122.5989950  38.0155420  20.4174880
 122.6611890  38.6443130  21.7932280 122.2542190  38.5932640  24.5704260
 121.3044900  38.5596180  24.6849250 122.4355200  39.5032750  24.3354030
 108.1086630  36.8434320  13.6802890 108.8178330  36.4217540  13.1950170
 107.3926570  36.9109550  13.0486240 107.7560790  32.8973650  12.7205540
 108.4788920  33.4382590  13.0386760 108.0285310  32.6237070  11.8447080
 121.5652440  37.7666120  16.9877120 122.0611560  37.5336990  17.7726000
 121.3668510  36.9277960  16.5714760 107.4452980  32.1479840  22.6228160
 108.0929170  31.5977220  22.1823320 107.8654820  32.4022990  23.4443970
 122.9939600  36.4027070  19.5214800 122.8838880  36.2483110  20.4597070
 123.7547190  35.8748010  19.2790210 121.3405320  32.3421200  25.9797800
 121.9777540  32.9555340  26.3456990 121.4880210  32.3781860  25.0347030
 123.8829870  34.2334990  12.7620940 124.8079180  34.1016170  12.5539230
 123.8605660  34.3127810  13.7157390 123.9568360  35.0045650  15.3877650
 123.1619860  34.9390770  15.9170560 124.1611640  35.9396290  15.3763000
 120.8986780  49.0437200  19.3816040 121.4945850  48.7221770  18.7050460
 121.1564930  48.5709020  20.1729310 107.1984980  32.3035510  25.3653480
 106.8499800  32.7599330  26.1311660 106.8672680  31.4092640  25.4475910
 108.8049350  45.4755110  29.5306670 108.7618980  45.1048020  30.4121130
 108.9360360  46.4132680  29.6708490 112.5055380  47.0314700  25.1316390
 112.2646740  47.2989260  24.2446910 113.4458020  47.2020430  25.1867250
 114.7109800  33.4947390  28.8872900 114.6498690  34.0869220  29.6368310
 115.6510180  33.3873350  28.7423160 117.3484360  33.1517450  28.5265190
 117.9624770  33.4696740  27.8646270 117.8933920  32.6666040  29.1461050
 123.7659540  49.0509080  25.9327030 123.2717820  49.4477950  25.2154160
 123.1572830  48.4258290  26.3264310 107.8705620  31.8311710  28.6404250
 108.4188610  31.6499760  27.8770360 107.9360930  31.0405820  29.1760560
 108.6437380  48.4217360  26.6504450 108.0497700  48.2902060  27.3894490
 108.6361220  47.5855500  26.1846550 118.0892400  31.7149590  24.8534480
 117.2152240  32.0484700  24.6507410 117.9803150  31.2422770  25.6786350
 118.9964380  33.9220460  26.2376200 118.6677740  33.1072220  25.8577930
 119.9446680  33.8790270  26.1141890 121.4498990  49.6932500  23.2113770
 120.9901960  50.4448310  22.8371790 120.8211450  48.9738970  23.1528570
 108.2749610  45.7875740  25.6012490 107.5483670  45.1681030  25.5338440
 108.3358760  46.1816350  24.7310570 111.8794710  48.0020740  22.3861900
 112.3959730  47.3908100  21.8610160 112.5292090  48.5049520  22.8772910
 114.6190210  48.8929230  23.2130880 114.9068020  48.6383530  22.3363890
 115.1313430  48.3406590  23.8036450 115.8367220  32.6319430  23.7927390
 115.0539010  33.1064930  24.0724150 115.5430150  31.7274260  23.6840570
 120.3888290  33.3342530  21.8376480 120.8296380  33.2787630  20.9898080
 120.1195880  34.2500540  21.9086660 122.2526860  32.9657770  19.8485300
 122.1915260  32.0218990  19.7016320 123.0318890  33.0737860  20.3938760
 106.5579610  49.1050130  18.8109250 106.3901650  48.4720810  19.5091140
 105.6914120  49.3109530  18.4603440 107.1807630  32.9366910  16.3141110
 107.9386990  33.0495790  15.7405140 106.7184800  33.7736110  16.2684540
 113.7221440  35.0506180  19.3043420 112.9095950  34.6763070  18.9639300
 114.2263080  34.2951260  19.6064610 118.2246420  31.7148630  20.5426490
 118.8275790  32.2868840  21.0175010 117.4839410  32.2788070  20.3200390
 121.3681020  32.1170190  15.8166770 121.5631650  33.0153640  16.0834200
 120.5810890  31.8857270  16.3099720 108.1642310  47.7983360  16.2559390
 107.6389930  48.1791390  15.5521350 108.0886890  48.4234130  16.9769100
 109.5532780  33.4630960  14.8543080 110.0825540  32.6760760  14.7251030
 110.1861100  34.1422150  15.0878610 111.7470620  33.2006100  17.9088470
 111.1173360  32.4993410  18.0758600 111.2075760  33.9610230  17.6921630
 114.6862570  49.8145330  30.5799080 115.6129880  49.5789600  30.6235040
 114.6713000  50.6417330  30.0985110 122.9207630  49.3570900  17.5773330
 123.0959820  48.6708640  16.9334250 122.2229200  49.8817950  17.1850000
 111.8726180  32.4790080  30.3440960 111.5910450  32.9823680  29.5801780
 112.2545880  31.6811830  29.9783090 110.7635280  49.7465740  15.1308640
 111.4954100  49.4625020  14.5832530 111.0228950  49.5079020  16.0208020
 109.9250070  45.8630470  15.1354970 109.2958950  46.3315570  15.6840800
 110.0397900  45.0179690  15.5701160 118.4741640  31.8943660  30.9221430
 118.3607090  32.2138270  31.8172950 119.2911380  32.2956170  30.6258710
 121.2540130  49.0415190  30.4040120 122.0465450  48.5464420  30.1966080
 121.5473280  49.7205330  31.0115730 115.5117830  41.6915150   3.1665440
 114.7359930  41.2115590   3.4564010 116.1630760  41.0120800   2.9921600
 109.5283660  42.0034960   4.0441200 108.6968540  41.7483670   4.4437710
 110.1364640  42.0745730   4.7799120 119.5325260  46.0975340   1.9464570
 119.0706790  45.3262580   2.2751740 120.3450810  46.1241410   2.4517020
 109.5084920  46.0375050   4.2399220 109.8112960  45.1472790   4.0609440
 110.2528510  46.5945270   4.0121470 105.9008620  39.5642500   3.7123290
 106.4724730  38.7964700   3.7126930 105.9010160  39.8631260   2.8029900
 114.9526820  44.3672340   3.1735600 114.8835100  43.4262280   3.0124730
 115.7146680  44.4573750   3.7458170 107.1433490  34.9726860   5.4992220
 106.9636330  34.0752610   5.7794980 106.7413570  35.5198730   6.1739170
 115.9831990  37.1742720   3.4004530 116.3596810  36.3014600   3.2878200
 115.8851500  37.5101420   2.5094970 107.7620160  37.4687360   4.1074560
 108.4430270  37.7325730   4.7261960 107.4468210  36.6288230   4.4412570
 111.9544730  38.5154720   3.1947150 112.4622950  39.0135690   3.8352170
 112.4857970  37.7389920   3.0186510 124.0555660  36.6859910   6.8976500
 123.3507830  37.0741620   6.3791610 124.3213580  37.3810200   7.4997430
 110.2380830  33.1553280   7.4610570 110.2399270  33.6725670   6.6556470
 109.4085140  32.6783460   7.4380500 111.4883680  42.7948460   5.6384070
 111.1553060  43.4217380   6.2805140 111.6650360  43.3210340   4.8585740
 120.0017590  36.6093540   3.1060410 119.2973160  36.8978430   3.6863520
 120.3629750  37.4193650   2.7459970 109.9196160  34.8663240   5.4681020
 110.2612970  35.7105290   5.1734890 108.9811970  35.0146980   5.5846360
 110.7002780  44.7629260   7.4533250 111.3176780  45.4380340   7.1717700
 109.8395900  45.1717240   7.3620750 121.6180370  46.2268670   5.3687890
 120.9343890  46.8967780   5.3604560 122.1574660  46.4249320   4.6032750
 123.0704510  36.0548330   3.4969620 122.1229420  36.0887310   3.6285050
 123.3954500  36.8687280   3.8818980 119.1539110  48.0712800   4.0833070
 119.1666270  47.6675090   3.2155330 118.6014330  48.8460090   3.9794500
 118.5524550  42.9742640   5.4115680 118.9693340  42.7602750   4.5769140
 119.2764370  43.2315430   5.9824300 122.4986650  41.3729860   5.5031920
 121.6705280  41.4422950   5.0282050 123.0937130  41.9584170   5.0347750
 119.4628660  38.1599180   6.4486790 119.0499840  38.9852890   6.7026780
 118.7304610  37.5744220   6.2563150 112.0643150  44.6326640   3.4744670
 111.7671440  44.0272110   2.7952450 113.0142970  44.6703950   3.3634030
 110.3090070  37.7202290   5.0904500 110.8604660  37.8297630   4.3157750
 110.8233580  38.0939890   5.8059730 120.1528760  48.2058510   7.1367770
 119.6759320  49.0130700   6.9440380 119.4690550  47.5536840   7.2893980
 111.1561580  44.3708330  10.1252470 110.2590110  44.5948300  10.3725870
 111.1814450  44.4943270   9.1763870 109.9832800  41.2421650   8.7009840
 109.8440570  42.1144450   9.0697240 109.1014160  40.8994460   8.5557780
 111.7813150  47.1843350  10.9094990 111.7528580  47.5886300  10.0423420
 111.6178120  46.2553710  10.7466590 123.7327970  47.9670450  12.2059160
 124.2087690  48.4453340  12.8848240 124.3535130  47.8987940  11.4804660
 105.9351450  43.0119200   4.6180750 106.0131870  43.1467970   3.6736470
 106.5493130  42.3035090   4.8108870 123.1361220  45.1583300   9.3659170
 123.2624280  44.9195180   8.4476350 123.1782600  44.3267840   9.8381250
 116.9977960  48.8611300   7.9353980 117.5122630  48.7719310   8.7376410
 116.1547040  49.2071000   8.2281890 122.9885230  37.2115760  10.3308910
 122.3729500  37.7195430   9.8024370 122.6681650  36.3114090  10.2734850
 105.9910970  44.0533370   7.1575210 106.1542010  43.5838730   6.3394580
 106.4563420  43.5456930   7.8224050 110.7629740  33.1839130   2.1935780
 110.3197890  33.9648670   1.8620300 111.3214730  33.5069020   2.9006720
 115.0499550  36.0507650   7.7971100 114.5878920  36.2590670   8.6091040
 114.6477660  35.2367000   7.4941770 120.0504060  37.2716600   8.9267760
 119.1997650  36.9722350   9.2476830 119.8905850  37.5158610   8.0151580
 117.1453770  38.7718350  11.0266550 117.4707180  37.9382100  10.6868780
 117.9334100  39.2946870  11.1744880 112.8005640  33.7286460   4.0525380
 113.0977970  34.6349290   3.9717400 113.3491200  33.2405240   3.4384950
 112.9943170  39.2058280  10.5877300 112.8986770  38.2653010  10.4377700
 113.8375150  39.4273350  10.1925370 108.1253710  35.6171950   8.7411080
 107.7317100  36.4647160   8.9483860 107.4372110  34.9798320   8.9319720
 114.6998760  35.7006920  11.8107820 114.0097080  35.5079120  12.4453910
 115.4431060  35.9841560  12.3432120 105.4270760  33.5400410   2.7741160
 105.1383810  34.1103270   3.4866140 106.1716520  33.0604860   3.1372390
 116.9761730  39.5405360   4.6461740 116.2442850  40.0492170   4.9951840
 116.5786070  38.7235340   4.3450520 113.4139120  36.2159560   3.0514230
 113.4175180  35.7749510   2.2018770 114.3090240  36.5376890   3.1586050
 109.2641500  36.0986050   2.0108440 108.9241550  36.5761280   2.7675490
 108.5018820  35.6451170   1.6509540 117.4387640  34.9939040   4.0584680
 117.4560380  35.4447690   4.9026530 117.1903220  34.0944680   4.2718120
 120.8658390  32.4071220   9.8971060 121.1904160  31.6760880  10.4229040
 120.9014900  32.0884860   8.9952050 107.5649950  43.4284800   9.3171020
 107.1804740  42.7878470   9.9153980 107.8762140  44.1320920   9.8865750
 113.7147090  40.2761340   4.7979640 114.0817220  39.8019910   5.5440980
 113.5252150  41.1502910   5.1387980 111.5046460  39.3169980   7.1163850
 111.2003530  40.1961960   7.3414210 112.4592920  39.3769770   7.1521290
 120.7916230  42.5196330   3.5057090 121.5115350  43.0151620   3.1153200
 120.5898050  41.8414220   2.8610960 116.1735030  42.5905390   9.3926090
 116.1072340  41.6701060   9.1383680 115.5440170  42.6880830  10.1070730
 107.5610190  40.1572720   8.2635210 107.2025130  40.8226570   8.8508550
 107.2664750  39.3256270   8.6347830 110.7623310  40.6156960  11.1474760
 110.4623450  40.7614140  10.2502580 111.5334550  40.0562250  11.0548150
 116.1051760  45.4125960   9.1429890 116.1196300  44.4806920   8.9248800
 115.3976860  45.4985720   9.7819660 122.3162970  42.0533300   8.4898470
 121.5911160  42.6462080   8.2927860 122.8438430  42.0456840   7.6911840
 115.5385660  47.0543530   6.2370390 116.1827880  47.2602910   6.9143810
 115.9015100  46.2931930   5.7841240 116.8117740  45.0575880   4.9547840
 117.4539970  44.3569040   5.0680010 117.3367090  45.8374320   4.7744730
 118.5855360  45.8570780   8.1583900 118.9211600  46.4437470   8.8361820
 117.6655700  45.7263490   8.3881690 106.1358760  33.6465960   8.9407310
 105.4217280  33.8462880   9.5459920 106.5553800  32.8705530   9.3122110
 106.4231350  47.6346220   9.9273840 106.5322470  46.6940960   9.7869230
 105.7711910  47.9000970   9.2787570 114.4143940  45.9062110  11.3271960
 114.0940810  45.1871350  11.8717650 113.7402300  46.5817180  11.4008020
 117.6297540  36.1388270   6.6908760 117.9978360  35.3183480   7.0188330
 116.7695740  36.1990160   7.1064410 114.5899530  38.7927860   6.9146730
 115.0884780  39.2673680   7.5798580 114.7322480  37.8691380   7.1216760
 121.7966390  35.0095820   7.7575120 121.2939990  35.7501220   8.0968930
 122.6123050  35.3979820   7.4411910 122.0913980  47.4237850   2.8790740
 122.2161400  48.2469020   3.3514550 122.9579540  47.2128580   2.5314890
 109.5631510  49.5169060   2.5507870 110.2993990  48.9684520   2.8216440
 109.9472430  50.3825070   2.4113860 108.5689790  48.7015130  11.7393450
 109.3702520  49.0227180  12.1528850 108.0541610  48.3410710  12.4613360
 117.4054420  44.8095000  11.6868860 116.7992580  44.8326600  10.9464610
 117.1008530  44.0778040  12.2236110 118.8354790  48.5375290  10.2978270
 119.7876540  48.4533310  10.2478510 118.6883010  49.2017000  10.9712060
 106.2887600  41.1888590  10.6829500 106.7926620  40.6095870  11.2545730
 105.5495020  41.4728820  11.2205870 113.3425540  42.5959580  10.2165020
 112.5771210  43.1644580  10.1319690 113.5241500  42.3035790   9.3233250
 120.4848890  44.3264910  10.7740040 121.2258360  44.6640670  10.2707500
 119.7221570  44.4956970  10.2209810 108.3210680  39.3318180  11.5779570
 108.3616020  39.0332050  12.4864800 109.1756180  39.7325790  11.4187090
 110.2616490  37.9110280   9.5454060 109.7312950  37.4201230   8.9177400
 110.9304560  38.3394480   9.0111990 119.1594550  42.3779740   9.3095250
 119.5735570  42.5324820  10.1585670 118.2245550  42.5034960   9.4721030
 119.6316720  39.7175900  11.3134400 120.2137490  38.9628220  11.2254880
 119.8078490  40.2483340  10.5365880 110.7488790  34.8772650   9.6251350
 110.6545660  34.2593400   8.9002220 110.1686180  35.6038940   9.3981260
 113.5150230  33.4345890   6.6578740 113.0667530  33.4570150   5.8124290
 112.8815430  33.0364910   7.2549040 113.9209780  42.3300220   7.2791180
 114.3397890  43.1732950   7.1067420 113.0018410  42.4672260   7.0497960
 116.2573680  40.0616400   8.6629020 116.3769890  39.4657540   9.4023860
 117.1167680  40.0986090   8.2430320 118.5961580  40.6153590   7.2391530
 118.0696800  41.1396210   6.6356670 118.9392920  41.2480980   7.8701260
 111.7717200  48.6353230   8.3948910 111.2338290  49.3599290   8.0757610
 112.0251160  48.1583570   7.6046250 113.0242450  36.6037750   9.9204840
 113.6142140  36.2953600  10.6082660 112.2062690  36.1317500  10.0764740
 117.8435880  36.2203560  10.1537860 117.1551400  35.5585100  10.0887850
 118.5641900  35.7741830  10.5986320 114.6279410  49.8704440   8.6535560
 114.5538110  50.7739580   8.9607930 113.7258250  49.5516340   8.6257630
 106.0306700  47.1979030   1.9569180 106.3609710  46.3300090   1.7247820
 106.4597700  47.4037550   2.7874140 106.5196910  48.0649620   4.6950810
 106.0827900  48.2450420   5.5274960 107.0874590  48.8224240   4.5532530
 122.1559090  47.5666620   8.9828120 121.5561080  47.6259180   8.2392040
 122.2852990  46.6271600   9.1124970 120.8410730  44.2918600   7.0804280
 120.0270570  44.7215760   7.3430070 121.2484930  44.9037010   6.4673330
 107.3897270  40.9622420   5.5943030 107.7570310  40.8749820   6.4739050
 106.8208090  40.1988970   5.4949890 122.1901130  39.4306800   8.6073500
 121.9587220  39.2019550   7.7071450 122.4505680  40.3506350   8.5618390
 106.9413270  37.8731510   9.5001450 106.0469320  37.8398270   9.8395160
 107.4810820  38.0718300  10.2652700 120.6289200  34.6563230  11.3853200
 121.5059380  34.6646630  11.7687200 120.6410040  33.9194070  10.7745550
 122.0752470  38.5092770   2.2741220 122.5989950  38.0155420   1.6431390
 122.6611890  38.6443130   3.0188790 122.2542190  38.5932640   5.7960770
 121.3044900  38.5596180   5.9105760 122.4355200  39.5032750   5.5610540
 107.4452980  32.1479840   3.8484670 108.0929170  31.5977220   3.4079830
 107.8654820  32.4022990   4.6700480 121.3405320  32.3421200   7.2054310
 121.9777540  32.9555340   7.5713500 121.4880210  32.3781860   6.2603540
 107.1984980  32.3035510   6.5909990 106.8499800  32.7599330   7.3568170
 106.8672680  31.4092640   6.6732420 108.8049350  45.4755110  10.7563180
 108.7618980  45.1048020  11.6377640 108.9360360  46.4132680  10.8965000
 112.5055380  47.0314700   6.3572900 112.2646740  47.2989260   5.4703420
 113.4458020  47.2020430   6.4123760 114.7109800  33.4947390  10.1129410
 114.6498690  34.0869220  10.8624820 115.6510180  33.3873350   9.9679670
 117.3484360  33.1517450   9.7521700 117.9624770  33.4696740   9.0902780
 117.8933920  32.6666040  10.3717560 123.7659540  49.0509080   7.1583540
 123.2717820  49.4477950   6.4410670 123.1572830  48.4258290   7.5520820
 107.8705620  31.8311710   9.8660760 108.4188610  31.6499760   9.1026870
 107.9360930  31.0405820  10.4017070 108.6437380  48.4217360   7.8760960
 108.0497700  48.2902060   8.6151000 108.6361220  47.5855500   7.4103060
 118.0892400  31.7149590   6.0790990 117.2152240  32.0484700   5.8763920
 117.9803150  31.2422770   6.9042860 118.9964380  33.9220460   7.4632710
 118.6677740  33.1072220   7.0834440 119.9446680  33.8790270   7.3398400
 121.4498990  49.6932500   4.4370280 120.9901960  50.4448310   4.0628300
 120.8211450  48.9738970   4.3785080 108.2749610  45.7875740   6.8269000
 107.5483670  45.1681030   6.7594950 108.3358760  46.1816350   5.9567080
 111.8794710  48.0020740   3.6118410 112.3959730  47.3908100   3.0866670
 112.5292090  48.5049520   4.1029420 114.6190210  48.8929230   4.4387390
 114.9068020  48.6383530   3.5620400 115.1313430  48.3406590   5.0292960
 115.8367220  32.6319430   5.0183900 115.0539010  33.1064930   5.2980660
 115.5430150  31.7274260   4.9097080 120.3888290  33.3342530   3.0632990
 120.8296380  33.2787630   2.2154590 120.1195880  34.2500540   3.1343170
 118.2246420  31.7148630   1.7683000 118.8275790  32.2868840   2.2431520
 117.4839410  32.2788070   1.5456900 114.6862570  49.8145330  11.8055590
 115.6129880  49.5789600  11.8491550 114.6713000  50.6417330  11.3241620
 111.8726180  32.4790080  11.5697470 111.5910450  32.9823680  10.8058290
 112.2545880  31.6811830  11.2039600 118.4741640  31.8943660  12.1477940
 118.3607090  32.2138270  13.0429460 119.2911380  32.2956170  11.8515220
 121.2540130  49.0415190  11.6296630 122.0465450  48.5464420  11.4222590
 121.5473280  49.7205330  12.2372240 117.3799790  21.1392640 151.4804090
 117.2993840  20.2247250 151.2095800 116.9664210  21.6359710 150.7743800
 115.5117830  22.9171660 153.3613360 114.7359930  22.4372100 153.6511930
 116.1630760  22.2377310 153.1869520 119.5325260  27.3231850 152.1412490
 119.0706790  26.5519090 152.4699660 120.3450810  27.3497920 152.6464940
 109.5084920  27.2631560 154.4347140 109.8112960  26.3729300 154.2557360
 110.2528510  27.8201780 154.2069390 107.9375610  18.1893360 148.0231510
 107.0492310  18.5309330 147.9211390 108.2216800  17.9893680 147.1312340
 105.9008620  20.7899010 153.9071210 106.4724730  20.0221210 153.9074850
 105.9010160  21.0887770 152.9977820 115.7588570  29.6089860 151.7616480
 115.1400010  30.0647360 151.1910920 116.6140350  29.7641320 151.3606180
 114.9526820  25.5928850 153.3683520 114.8835100  24.6518790 153.2072650
 115.7146680  25.6830260 153.9406090 115.9831990  18.3999230 153.5952450
 116.3596810  17.5271110 153.4826120 115.8851500  18.7357930 152.7042890
 110.1137000  16.7724860 149.0569890 110.2203750  17.6728590 149.3638650
 109.2029360  16.7242830 148.7664540 119.7656110  15.8949670 150.5280790
 120.5865730  15.4046240 150.5706270 119.7990190  16.4847330 151.2812630
 111.9544730  19.7411230 153.3895070 112.4622950  20.2392200 154.0300090
 112.4857970  18.9646430 153.2134430 116.6251920  24.4929100 149.1548390
 116.0069190  24.9578550 148.5911110 117.1375170  25.1856580 149.5717900
 120.0017590  17.8350050 153.3008330 119.2973160  18.1234940 153.8811440
 120.3629750  18.6450160 152.9407890 105.9935120  25.1785630 146.5288020
 105.6163100  25.6672730 145.7972920 106.2508190  25.8510910 147.1594550
 123.0704510  17.2804840 153.6917540 122.1229420  17.3143820 153.8232970
 123.3954500  18.0943790 154.0766900 113.6024050  13.5802020 151.9873530
 113.9099030  13.0248910 151.2709030 112.6724750  13.7146480 151.8046520
 119.1539110  29.2969310 154.2780990 119.1666270  28.8931600 153.4103250
 118.6014330  30.0716600 154.1742420 120.4484530  26.0185530 149.3671160
 120.3380860  25.0759860 149.4920580 120.4452780  26.3801170 150.2533920
 115.9904810  21.6450850 148.7233650 115.0634090  21.5788230 148.9522120
 116.1429630  22.5830980 148.6088890 115.9773890  17.9167850 145.7200810
 115.0377560  18.0781810 145.8053270 116.2957150  18.6353530 145.1736800
 120.0202100  23.2071150 149.2268900 119.4014520  22.8690700 148.5795200
 120.0026550  22.5630910 149.9348090 111.5961450  22.1715590 151.5053380
 111.1918450  21.4592840 151.0099280 111.6824570  21.8268830 152.3941420
 112.0643150  25.8583150 153.6692590 111.7671440  25.2528620 152.9900370
 113.0142970  25.8960460 153.5581950 118.1966800  22.4457960 146.2341650
 118.6360080  21.6080390 146.0879470 118.9095220  23.0787360 146.3205790
 116.3062180  27.3854030 150.2022890 116.7458090  28.1278360 149.7878280
 116.2449070  27.6280600 151.1261850 121.7783940  13.7000770 144.5482690
 121.4656600  13.7927600 145.4481760 122.5396410  14.2781800 144.4980120
 108.2966080  21.0660570 149.0060030 108.1763680  21.7922660 148.3941300
 107.9866970  20.2963480 148.5287940 107.1799080  25.9375900 151.2234850
 106.7727160  26.0790490 150.3688450 108.0712090  25.6536060 151.0206060
 118.9732360  30.3723150 147.5585900 118.8133500  30.0826090 148.4567730
 118.8079070  29.5963280 147.0231130 111.4520740  30.1521680 149.3357520
 111.2763220  29.2357220 149.1225320 110.5976480  30.5108970 149.5755320
 118.6758490  27.8810710 146.1183900 117.9823650  27.8788000 145.4586180
 119.4181350  27.4570030 145.6878070 118.2408420  29.5073420 150.1932390
 118.6965370  28.7262800 150.5071010 118.5800940  30.2180240 150.7373570
 110.7629740  14.4095640 152.3883700 110.3197890  15.1905180 152.0568220
 111.3214730  14.7325530 153.0954640 113.8788560  14.0306340 147.2689530
 113.2542740  14.0266210 147.9942840 113.7918680  13.1637300 146.8725500
 112.8005640  14.9542970 154.2473300 113.0977970  15.8605800 154.1665320
 113.3491200  14.4661750 153.6332870 110.5543960  19.5329210 150.1164950
 110.3284880  19.3166380 151.0211570 109.7736490  19.9657670 149.7710920
 117.7841720  19.5392580 148.7155600 117.1850610  20.2628380 148.5319220
 118.3321330  19.4769360 147.9332050 116.3906590  18.1756120 150.7458880
 116.7836160  18.4928320 149.9327570 116.7523440  17.2968000 150.8603400
 105.4270760  14.7656920 152.9689080 105.1383810  15.3359780 153.6814060
 106.1716520  14.2861370 153.3320310 105.6140990  18.7077040 144.1791800
 105.5315660  19.6507800 144.3206790 105.2624050  18.5651950 143.3004150
 113.4139120  17.4416070 153.2462150 113.4175180  17.0006020 152.3966690
 114.3090240  17.7633400 153.3533970 109.2641500  17.3242560 152.2056360
 108.9241550  17.8017790 152.9623410 108.5018820  16.8707680 151.8457460
 113.4759270  18.4428150 146.2368910 113.5972090  18.4014630 147.1854730
 113.0907780  19.3052300 146.0815640 112.4880770  20.7529290 145.6352210
 111.9197670  20.3047540 145.0088120 113.1969770  21.1122070 145.1017360
 106.5787580  16.2461540 151.1221030 106.2934500  15.8817210 151.9599650
 106.5166440  15.5142000 150.5084170 110.0328250  24.7487480 147.9078620
 109.2590510  24.2085100 147.7477340 110.7622880  24.2294090 147.5696380
 120.7916230  23.7452840 153.7005010 121.5115350  24.2408130 153.3101120
 120.5898050  23.0670730 153.0558880 116.2526170  15.1390800 147.8434400
 115.4390780  14.6403970 147.7679710 116.0588120  15.9789050 147.4270750
 118.9674560  19.5110450 146.1396560 119.8554180  19.8227680 145.9647900
 118.9379650  18.6382700 145.7477140 110.0765650  24.4167860 151.5457430
 110.5944320  23.6136120 151.4914320 109.6249670  24.3547000 152.3874260
 114.9635150  25.6834140 146.8184730 115.3050850  26.4276370 146.3228050
 114.1347860  25.9965260 147.1809560 121.2388830  20.8222290 145.6076420
 121.1552550  21.2536510 144.7572860 121.9583020  21.2820640 146.0403240
 122.2676080  27.6764550 148.3358550 121.6252240  27.0220170 148.6102270
 121.8806740  28.0819640 147.5599220 117.8462560  25.0049980 152.1830240
 118.1986380  24.4078110 151.5231610 116.9624890  24.6794210 152.3538490
 113.9325840  25.7647670 149.5900650 114.6196970  26.3116880 149.9708240
 113.1458260  26.3088400 149.6250260 106.0718240  21.3820490 145.0817730
 106.9413090  21.6645290 145.3653650 105.5808560  22.1956360 144.9666540
 113.2353050  22.7693700 149.2026010 113.6915830  23.5798950 149.4286200
 112.8841260  22.4516840 150.0344500 109.1364830  13.1131350 149.6748530
 109.0079460  13.1049250 150.6233450 108.3126850  13.4514440 149.3239540
 120.6573460  26.5681010 144.8734900 120.4311040  25.8511450 145.4659540
 120.2669660  26.3193450 144.0356650 106.4389490  30.5947870 145.6479360
 106.7987130  31.1937210 144.9936630 106.2981830  31.1407760 146.4214390
 120.2389710  24.4852950 146.5349060 119.9511410  24.9465640 147.3226940
 121.0341880  24.0250720 146.8033280 112.4558110  27.9779070 146.4653030
 112.4468210  28.7108760 145.8497540 111.5356470  27.7310650 146.5579990
 108.0564750  23.1993960 147.2099790 107.4492700  23.9392860 147.2195090
 108.5314100  23.2893320 146.3837990 120.9959570  16.3201720 147.6944240
 120.3672730  16.4247390 146.9802470 120.5011490  16.5398500 148.4838120
 115.4417710  28.0407310 145.1278220 115.5429690  27.8371300 144.1980200
 114.5419450  27.7865590 145.3326000 112.9643600  18.5987670 149.1102120
 112.2559750  19.0674010 149.5515730 113.2488080  17.9409680 149.7447310
 116.9959030  15.3238330 150.5497910 116.8726810  15.3424460 149.6007420
 117.9443590  15.3717270 150.6696310 114.0835820  30.5593630 149.8225890
 114.3377320  30.5215020 148.9005260 113.1348300  30.4326960 149.8154140
 111.1678620  16.9072750 146.4852830 112.0169150  17.3442900 146.4193020
 110.8009890  17.2193010 147.3124890 120.0888400  21.4785510 151.3984400
 119.1478540  21.4935740 151.5732090 120.4032470  20.6921470 151.8444700
 110.0670040  23.1605110 144.9588360 110.8333310  23.0486470 145.5213790
 110.1444730  22.4643080 144.3065130 108.7616800  20.5930180 145.6421250
 108.8420390  19.6457690 145.7538650 109.6536550  20.9237060 145.7481910
 122.0913980  28.6494360 153.0738660 122.2161400  29.4725530 153.5462470
 122.9579540  28.4385090 152.7262810 109.5631510  30.7425570 152.7455790
 110.2993990  30.1941030 153.0164360 109.9472430  31.6081580 152.6061780
 106.4476990  26.8099140 148.6197300 105.5216770  27.0520280 148.6102710
 106.9133420  27.6373400 148.4982050 112.6733820  29.9155880 144.5681360
 113.4662430  30.2044710 144.1163150 112.1538170  29.4848050 143.8893840
 121.7263990  29.1426010 145.9918100 121.4405500  28.7291150 145.1772280
 121.5283540  30.0713720 145.8718620 113.1911220  25.1359290 144.4323710
 113.0861860  24.5211640 145.1585090 113.0235440  24.6125180 143.6486720
 116.4313950  24.1979320 145.0365700 115.8824050  24.6448620 145.6808440
 117.0533210  23.6928570 145.5603370 112.0989070  23.1570240 146.9331000
 112.5205490  22.9910110 147.7762390 112.2239910  22.3470470 146.4386140
 114.6116710  22.1807850 144.1808100 115.1322370  21.4656870 143.8149250
 115.2585110  22.8193720 144.4808610 110.9947970  19.2303470 143.8789160
 110.7937030  18.3670830 144.2402500 110.8240020  19.1436830 142.9410760
 118.4736280  14.0411700 146.4076040 118.7538570  13.1979600 146.7635460
 117.7002010  14.2734810 146.9214790 109.7930770  16.3304090 143.8667040
 110.0956670  16.3371520 142.9586190 110.5325360  15.9801950 144.3634700
 113.0115700  15.2738710 144.8523240 112.6637700  14.5962700 144.2725690
 113.2128470  14.8128220 145.6666630 115.1764740  30.2619460 146.4709840
 116.0715530  30.6004430 146.4928600 115.2082370  29.5398870 145.8434120
 108.8160900  25.6346510 144.6996840 109.2535770  26.1776180 145.3554420
 109.3008630  24.8093460 144.7093180 106.0306700  28.4235540 152.1517100
 106.3609710  27.5556600 151.9195740 106.4597700  28.6294060 152.9822060
 110.6268620  26.7544550 149.8119070 110.3264160  26.6309520 150.7122980
 110.5206110  25.8953140 149.4034800 123.3960540  26.5340950 144.5145750
 122.5653500  26.6017600 144.9852980 123.5732370  27.4245070 144.2112610
 122.8517000  23.2788430 147.0179950 123.6135910  23.8485080 147.1239640
 122.8671370  22.7115630 147.7888260 106.3521340  21.8026360 151.2487610
 105.6970180  21.5338000 150.6047310 107.1899290  21.6930840 150.7989590
 123.8576970  24.1338530 151.8621880 124.2285800  23.3505850 151.4557850
 124.4978900  24.8227630 151.6839180 122.9036170  23.5722800 144.1752470
 123.1785010  24.4801680 144.0471690 122.7146910  23.5085330 145.1114460
 119.3011780  16.5967650 145.4706100 119.7196660  16.4098630 144.6302760
 118.9947840  15.7446700 145.7809030 122.8001510  21.5091790 149.1681900
 122.4245110  20.7419720 148.7363190 122.0704630  21.8914490 149.6556830
 105.5659420  19.0125290 147.1912940 104.6623500  19.2755490 147.0164600
 106.0500040  19.2836460 146.4112900 122.0752470  19.7349280 152.4689140
 122.5989950  19.2411930 151.8379310 122.6611890  19.8699640 153.2136710
 108.1086630  18.0690830 145.1007320 108.8178330  17.6474050 144.6154600
 107.3926570  18.1366060 144.4690670 107.7560790  14.1230160 144.1409970
 108.4788920  14.6639100 144.4591190 108.0285310  13.8493580 143.2651510
 121.5652440  18.9922630 148.4081550 122.0611560  18.7593500 149.1930430
 121.3668510  18.1534470 147.9919190 122.9939600  17.6283580 150.9419230
 122.8838880  17.4739620 151.8801500 123.7547190  17.1004520 150.6994640
 123.8829870  15.4591500 144.1825370 124.8079180  15.3272680 143.9743660
 123.8605660  15.5384320 145.1361820 123.9568360  16.2302160 146.8082080
 123.1619860  16.1647280 147.3374990 124.1611640  17.1652800 146.7967430
 120.8986780  30.2693710 150.8020470 121.4945850  29.9478280 150.1254890
 121.1564930  29.7965530 151.5933740 111.8794710  29.2277250 153.8066330
 112.3959730  28.6164610 153.2814590 112.5292090  29.7306030 154.2977340
 120.3888290  14.5599040 153.2580910 120.8296380  14.5044140 152.4102510
 120.1195880  15.4757050 153.3291090 122.2526860  14.1914280 151.2689730
 122.1915260  13.2475500 151.1220750 123.0318890  14.2994370 151.8143190
 106.5579610  30.3306640 150.2313680 106.3901650  29.6977320 150.9295570
 105.6914120  30.5366040 149.8807870 107.1807630  14.1623420 147.7345540
 107.9386990  14.2752300 147.1609570 106.7184800  14.9992620 147.6888970
 113.7221440  16.2762690 150.7247850 112.9095950  15.9019580 150.3843730
 114.2263080  15.5207770 151.0269040 118.2246420  12.9405140 151.9630920
 118.8275790  13.5125350 152.4379440 117.4839410  13.5044580 151.7404820
 121.3681020  13.3426700 147.2371200 121.5631650  14.2410150 147.5038630
 120.5810890  13.1113780 147.7304150 108.1642310  29.0239870 147.6763820
 107.6389930  29.4047900 146.9725780 108.0886890  29.6490640 148.3973530
 109.5532780  14.6887470 146.2747510 110.0825540  13.9017270 146.1455460
 110.1861100  15.3678660 146.5083040 111.7470620  14.4262610 149.3292900
 111.1173360  13.7249920 149.4963030 111.2075760  15.1866740 149.1126060
 122.9207630  30.5827410 148.9977760 123.0959820  29.8965150 148.3538680
 122.2229200  31.1074460 148.6054430 110.7635280  30.9722250 146.5513070
 111.4954100  30.6881530 146.0036960 111.0228950  30.7335530 147.4412450
 109.9250070  27.0886980 146.5559400 109.2958950  27.5572080 147.1045230
 110.0397900  26.2436200 146.9905590 117.3799790  21.1392640 132.7060600
 117.2993840  20.2247250 132.4352310 116.9664210  21.6359710 132.0000310
 115.5117830  22.9171660 134.5869870 114.7359930  22.4372100 134.8768440
 116.1630760  22.2377310 134.4126030 109.5283660  23.2291470 135.4645630
 108.6968540  22.9740180 135.8642140 110.1364640  23.3002240 136.2003550
 119.5325260  27.3231850 133.3669000 119.0706790  26.5519090 133.6956170
 120.3450810  27.3497920 133.8721450 109.5084920  27.2631560 135.6603650
 109.8112960  26.3729300 135.4813870 110.2528510  27.8201780 135.4325900
 107.9375610  18.1893360 129.2488020 107.0492310  18.5309330 129.1467900
 108.2216800  17.9893680 128.3568850 105.9008620  20.7899010 135.1327720
 106.4724730  20.0221210 135.1331360 105.9010160  21.0887770 134.2234330
 115.7588570  29.6089860 132.9872990 115.1400010  30.0647360 132.4167430
 116.6140350  29.7641320 132.5862690 114.9526820  25.5928850 134.5940030
 114.8835100  24.6518790 134.4329160 115.7146680  25.6830260 135.1662600
 107.1433490  16.1983370 136.9196650 106.9636330  15.3009120 137.1999410
 106.7413570  16.7455240 137.5943600 115.9831990  18.3999230 134.8208960
 116.3596810  17.5271110 134.7082630 115.8851500  18.7357930 133.9299400
 110.1137000  16.7724860 130.2826400 110.2203750  17.6728590 130.5895160
 109.2029360  16.7242830 129.9921050 119.7656110  15.8949670 131.7537300
 120.5865730  15.4046240 131.7962780 119.7990190  16.4847330 132.5069140
 107.7620160  18.6943870 135.5278990 108.4430270  18.9582240 136.1466390
 107.4468210  17.8544740 135.8617000 111.9544730  19.7411230 134.6151580
 112.4622950  20.2392200 135.2556600 112.4857970  18.9646430 134.4390940
 124.0555660  17.9116420 138.3180930 123.3507830  18.2998130 137.7996040
 124.3213580  18.6066710 138.9201860 110.2380830  14.3809790 138.8815000
 110.2399270  14.8982180 138.0760900 109.4085140  13.9039970 138.8584930
 116.6251920  24.4929100 130.3804900 116.0069190  24.9578550 129.8167620
 117.1375170  25.1856580 130.7974410 111.4883680  24.0204970 137.0588500
 111.1553060  24.6473890 137.7009570 111.6650360  24.5466850 136.2790170
 120.0017590  17.8350050 134.5264840 119.2973160  18.1234940 135.1067950
 120.3629750  18.6450160 134.1664400 109.9196160  16.0919750 136.8885450
 110.2612970  16.9361800 136.5939320 108.9811970  16.2403490 137.0050790
 110.7002780  25.9885770 138.8737680 111.3176780  26.6636850 138.5922130
 109.8395900  26.3973750 138.7825180 105.9935120  25.1785630 127.7544530
 105.6163100  25.6672730 127.0229430 106.2508190  25.8510910 128.3851060
 121.6180370  27.4525180 136.7892320 120.9343890  28.1224290 136.7808990
 122.1574660  27.6505830 136.0237180 123.0704510  17.2804840 134.9174050
 122.1229420  17.3143820 135.0489480 123.3954500  18.0943790 135.3023410
 113.6024050  13.5802020 133.2130040 113.9099030  13.0248910 132.4965540
 112.6724750  13.7146480 133.0303030 119.1539110  29.2969310 135.5037500
 119.1666270  28.8931600 134.6359760 118.6014330  30.0716600 135.3998930
 120.4484530  26.0185530 130.5927670 120.3380860  25.0759860 130.7177090
 120.4452780  26.3801170 131.4790430 118.5524550  24.1999150 136.8320110
 118.9693340  23.9859260 135.9973570 119.2764370  24.4571940 137.4028730
 115.9904810  21.6450850 129.9490160 115.0634090  21.5788230 130.1778630
 116.1429630  22.5830980 129.8345400 115.9773890  17.9167850 126.9457320
 115.0377560  18.0781810 127.0309780 116.2957150  18.6353530 126.3993310
 122.4986650  22.5986370 136.9236350 121.6705280  22.6679460 136.4486480
 123.0937130  23.1840680 136.4552180 120.0202100  23.2071150 130.4525410
 119.4014520  22.8690700 129.8051710 120.0026550  22.5630910 131.1604600
 119.4628660  19.3855690 137.8691220 119.0499840  20.2109400 138.1231210
 118.7304610  18.8000730 137.6767580 111.5961450  22.1715590 132.7309890
 111.1918450  21.4592840 132.2355790 111.6824570  21.8268830 133.6197930
 112.0643150  25.8583150 134.8949100 111.7671440  25.2528620 134.2156880
 113.0142970  25.8960460 134.7838460 110.3090070  18.9458800 136.5108930
 110.8604660  19.0554140 135.7362180 110.8233580  19.3196400 137.2264160
 120.1528760  29.4315020 138.5572200 119.6759320  30.2387210 138.3644810
 119.4690550  28.7793350 138.7098410 111.1561580  25.5964840 141.5456900
 110.2590110  25.8204810 141.7930300 111.1814450  25.7199780 140.5968300
 118.1966800  22.4457960 127.4598160 118.6360080  21.6080390 127.3135980
 118.9095220  23.0787360 127.5462300 109.9832800  22.4678160 140.1214270
 109.8440570  23.3400960 140.4901670 109.1014160  22.1250970 139.9762210
 116.3062180  27.3854030 131.4279400 116.7458090  28.1278360 131.0134790
 116.2449070  27.6280600 132.3518360 111.7813150  28.4099860 142.3299420
 111.7528580  28.8142810 141.4627850 111.6178120  27.4810220 142.1671020
 121.7783940  13.7000770 125.7739200 121.4656600  13.7927600 126.6738270
 122.5396410  14.2781800 125.7236630 108.2966080  21.0660570 130.2316540
 108.1763680  21.7922660 129.6197810 107.9866970  20.2963480 129.7544450
 123.7327970  29.1926960 143.6263590 124.2087690  29.6709850 144.3052670
 124.3535130  29.1244450 142.9009090 105.9351450  24.2375710 136.0385180
 106.0131870  24.3724480 135.0940900 106.5493130  23.5291600 136.2313300
 107.1799080  25.9375900 132.4491360 106.7727160  26.0790490 131.5944960
 108.0712090  25.6536060 132.2462570 123.1361220  26.3839810 140.7863600
 123.2624280  26.1451690 139.8680780 123.1782600  25.5524350 141.2585680
 116.9977960  30.0867810 139.3558410 117.5122630  29.9975820 140.1580840
 116.1547040  30.4327510 139.6486320 118.9732360  30.3723150 128.7842410
 118.8133500  30.0826090 129.6824240 118.8079070  29.5963280 128.2487640
 111.4520740  30.1521680 130.5614030 111.2763220  29.2357220 130.3481830
 110.5976480  30.5108970 130.8011830 118.6758490  27.8810710 127.3440410
 117.9823650  27.8788000 126.6842690 119.4181350  27.4570030 126.9134580
 118.2408420  29.5073420 131.4188900 118.6965370  28.7262800 131.7327520
 118.5800940  30.2180240 131.9630080 122.9885230  18.4372270 141.7513340
 122.3729500  18.9451940 141.2228800 122.6681650  17.5370600 141.6939280
 105.9910970  25.2789880 138.5779640 106.1542010  24.8095240 137.7599010
 106.4563420  24.7713440 139.2428480 110.7629740  14.4095640 133.6140210
 110.3197890  15.1905180 133.2824730 111.3214730  14.7325530 134.3211150
 115.0499550  17.2764160 139.2175530 114.5878920  17.4847180 140.0295470
 114.6477660  16.4623510 138.9146200 120.0504060  18.4973110 140.3472190
 119.1997650  18.1978860 140.6681260 119.8905850  18.7415120 139.4356010
 117.1453770  19.9974860 142.4470980 117.4707180  19.1638610 142.1073210
 117.9334100  20.5203380 142.5949310 113.8788560  14.0306340 128.4946040
 113.2542740  14.0266210 129.2199350 113.7918680  13.1637300 128.0982010
 112.8005640  14.9542970 135.4729810 113.0977970  15.8605800 135.3921830
 113.3491200  14.4661750 134.8589380 110.5543960  19.5329210 131.3421460
 110.3284880  19.3166380 132.2468080 109.7736490  19.9657670 130.9967430
 117.7841720  19.5392580 129.9412110 117.1850610  20.2628380 129.7575730
 118.3321330  19.4769360 129.1588560 112.9943170  20.4314790 142.0081730
 112.8986770  19.4909520 141.8582130 113.8375150  20.6529860 141.6129800
 116.3906590  18.1756120 131.9715390 116.7836160  18.4928320 131.1584080
 116.7523440  17.2968000 132.0859910 108.1253710  16.8428460 140.1615510
 107.7317100  17.6903670 140.3688290 107.4372110  16.2054830 140.3524150
 114.6998760  16.9263430 143.2312250 114.0097080  16.7335630 143.8658340
 115.4431060  17.2098070 143.7636550 105.4270760  14.7656920 134.1945590
 105.1383810  15.3359780 134.9070570 106.1716520  14.2861370 134.5576820
 105.6140990  18.7077040 125.4048310 105.5315660  19.6507800 125.5463300
 105.2624050  18.5651950 124.5260660 116.9761730  20.7661870 136.0666170
 116.2442850  21.2748680 136.4156270 116.5786070  19.9491850 135.7654950
 113.4139120  17.4416070 134.4718660 113.4175180  17.0006020 133.6223200
 114.3090240  17.7633400 134.5790480 109.2641500  17.3242560 133.4312870
 108.9241550  17.8017790 134.1879920 108.5018820  16.8707680 133.0713970
 113.4759270  18.4428150 127.4625420 113.5972090  18.4014630 128.4111240
 113.0907780  19.3052300 127.3072150 117.4387640  16.2195550 135.4789110
 117.4560380  16.6704200 136.3230960 117.1903220  15.3201190 135.6922550
 112.4880770  20.7529290 126.8608720 111.9197670  20.3047540 126.2344630
 113.1969770  21.1122070 126.3273870 120.8658390  13.6327730 141.3175490
 121.1904160  12.9017390 141.8433470 120.9014900  13.3141370 140.4156480
 107.5649950  24.6541310 140.7375450 107.1804740  24.0134980 141.3358410
 107.8762140  25.3577430 141.3070180 113.7147090  21.5017850 136.2184070
 114.0817220  21.0276420 136.9645410 113.5252150  22.3759420 136.5592410
 106.5787580  16.2461540 132.3477540 106.2934500  15.8817210 133.1856160
 106.5166440  15.5142000 131.7340680 111.5046460  20.5426490 138.5368280
 111.2003530  21.4218470 138.7618640 112.4592920  20.6026280 138.5725720
 110.0328250  24.7487480 129.1335130 109.2590510  24.2085100 128.9733850
 110.7622880  24.2294090 128.7952890 120.7916230  23.7452840 134.9261520
 121.5115350  24.2408130 134.5357630 120.5898050  23.0670730 134.2815390
 116.2526170  15.1390800 129.0690910 115.4390780  14.6403970 128.9936220
 116.0588120  15.9789050 128.6527260 116.1735030  23.8161900 140.8130520
 116.1072340  22.8957570 140.5588110 115.5440170  23.9137340 141.5275160
 118.9674560  19.5110450 127.3653070 119.8554180  19.8227680 127.1904410
 118.9379650  18.6382700 126.9733650 110.0765650  24.4167860 132.7713940
 110.5944320  23.6136120 132.7170830 109.6249670  24.3547000 133.6130770
 114.9635150  25.6834140 128.0441240 115.3050850  26.4276370 127.5484560
 114.1347860  25.9965260 128.4066070 107.5610190  21.3829230 139.6839640
 107.2025130  22.0483080 140.2712980 107.2664750  20.5512780 140.0552260
 110.7623310  21.8413470 142.5679190 110.4623450  21.9870650 141.6707010
 111.5334550  21.2818760 142.4752580 116.1051760  26.6382470 140.5634320
 116.1196300  25.7063430 140.3453230 115.3976860  26.7242230 141.2024090
 121.2388830  20.8222290 126.8332930 121.1552550  21.2536510 125.9829370
 121.9583020  21.2820640 127.2659750 122.3162970  23.2789810 139.9102900
 121.5911160  23.8718590 139.7132290 122.8438430  23.2713350 139.1116270
 122.2676080  27.6764550 129.5615060 121.6252240  27.0220170 129.8358780
 121.8806740  28.0819640 128.7855730 117.8462560  25.0049980 133.4086750
 118.1986380  24.4078110 132.7488120 116.9624890  24.6794210 133.5795000
 113.9325840  25.7647670 130.8157160 114.6196970  26.3116880 131.1964750
 113.1458260  26.3088400 130.8506770 106.0718240  21.3820490 126.3074240
 106.9413090  21.6645290 126.5910160 105.5808560  22.1956360 126.1923050
 113.2353050  22.7693700 130.4282520 113.6915830  23.5798950 130.6542710
 112.8841260  22.4516840 131.2601010 115.5385660  28.2800040 137.6574820
 116.1827880  28.4859420 138.3348240 115.9015100  27.5188440 137.2045670
 109.1364830  13.1131350 130.9005040 109.0079460  13.1049250 131.8489960
 108.3126850  13.4514440 130.5496050 116.8117740  26.2832390 136.3752270
 117.4539970  25.5825550 136.4884440 117.3367090  27.0630830 136.1949160
 120.6573460  26.5681010 126.0991410 120.4311040  25.8511450 126.6916050
 120.2669660  26.3193450 125.2613160 118.5855360  27.0827290 139.5788330
 118.9211600  27.6693980 140.2566250 117.6655700  26.9520000 139.8086120
 106.4389490  30.5947870 126.8735870 106.7987130  31.1937210 126.2193140
 106.2981830  31.1407760 127.6470900 106.1358760  14.8722470 140.3611740
 105.4217280  15.0719390 140.9664350 106.5553800  14.0962040 140.7326540
 120.2389710  24.4852950 127.7605570 119.9511410  24.9465640 128.5483450
 121.0341880  24.0250720 128.0289790 106.4231350  28.8602730 141.3478270
 106.5322470  27.9197470 141.2073660 105.7711910  29.1257480 140.6992000
 114.4143940  27.1318620 142.7476390 114.0940810  26.4127860 143.2922080
 113.7402300  27.8073690 142.8212450 112.4558110  27.9779070 127.6909540
 112.4468210  28.7108760 127.0754050 111.5356470  27.7310650 127.7836500
 108.0564750  23.1993960 128.4356300 107.4492700  23.9392860 128.4451600
 108.5314100  23.2893320 127.6094500 117.6297540  17.3644780 138.1113190
 117.9978360  16.5439990 138.4392760 116.7695740  17.4246670 138.5268840
 120.9959570  16.3201720 128.9200750 120.3672730  16.4247390 128.2058980
 120.5011490  16.5398500 129.7094630 115.4417710  28.0407310 126.3534730
 115.5429690  27.8371300 125.4236710 114.5419450  27.7865590 126.5582510
 112.9643600  18.5987670 130.3358630 112.2559750  19.0674010 130.7772240
 113.2488080  17.9409680 130.9703820 114.5899530  20.0184370 138.3351160
 115.0884780  20.4930190 139.0003010 114.7322480  19.0947890 138.5421190
 116.9959030  15.3238330 131.7754420 116.8726810  15.3424460 130.8263930
 117.9443590  15.3717270 131.8952820 114.0835820  30.5593630 131.0482400
 114.3377320  30.5215020 130.1261770 113.1348300  30.4326960 131.0410650
 111.1678620  16.9072750 127.7109340 112.0169150  17.3442900 127.6449530
 110.8009890  17.2193010 128.5381400 121.7966390  16.2352330 139.1779550
 121.2939990  16.9757730 139.5173360 122.6123050  16.6236330 138.8616340
 120.0888400  21.4785510 132.6240910 119.1478540  21.4935740 132.7988600
 120.4032470  20.6921470 133.0701210 110.0670040  23.1605110 126.1844870
 110.8333310  23.0486470 126.7470300 110.1444730  22.4643080 125.5321640
 108.7616800  20.5930180 126.8677760 108.8420390  19.6457690 126.9795160
 109.6536550  20.9237060 126.9738420 122.0913980  28.6494360 134.2995170
 122.2161400  29.4725530 134.7718980 122.9579540  28.4385090 133.9519320
 109.5631510  30.7425570 133.9712300 110.2993990  30.1941030 134.2420870
 109.9472430  31.6081580 133.8318290 106.4476990  26.8099140 129.8453810
 105.5216770  27.0520280 129.8359220 106.9133420  27.6373400 129.7238560
 108.5689790  29.9271640 143.1597880 109.3702520  30.2483690 143.5733280
 108.0541610  29.5667220 143.8817790 112.6733820  29.9155880 125.7937870
 113.4662430  30.2044710 125.3419660 112.1538170  29.4848050 125.1150350
 117.4054420  26.0351510 143.1073290 116.7992580  26.0583110 142.3669040
 117.1008530  25.3034550 143.6440540 118.8354790  29.7631800 141.7182700
 119.7876540  29.6789820 141.6682940 118.6883010  30.4273510 142.3916490
 121.7263990  29.1426010 127.2174610 121.4405500  28.7291150 126.4028790
 121.5283540  30.0713720 127.0975130 106.2887600  22.4145100 142.1033930
 106.7926620  21.8352380 142.6750160 105.5495020  22.6985330 142.6410300
 113.1911220  25.1359290 125.6580220 113.0861860  24.5211640 126.3841600
 113.0235440  24.6125180 124.8743230 113.3425540  23.8216090 141.6369450
 112.5771210  24.3901090 141.5524120 113.5241500  23.5292300 140.7437680
 116.4313950  24.1979320 126.2622210 115.8824050  24.6448620 126.9064950
 117.0533210  23.6928570 126.7859880 120.4848890  25.5521420 142.1944470
 121.2258360  25.8897180 141.6911930 119.7221570  25.7213480 141.6414240
 108.3210680  20.5574690 142.9984000 108.3616020  20.2588560 143.9069230
 109.1756180  20.9582300 142.8391520 112.0989070  23.1570240 128.1587510
 112.5205490  22.9910110 129.0018900 112.2239910  22.3470470 127.6642650
 110.2616490  19.1366790 140.9658490 109.7312950  18.6457740 140.3381830
 110.9304560  19.5650990 140.4316420 114.6116710  22.1807850 125.4064610
 115.1322370  21.4656870 125.0405760 115.2585110  22.8193720 125.7065120
 119.1594550  23.6036250 140.7299680 119.5735570  23.7581330 141.5790100
 118.2245550  23.7291470 140.8925460 119.6316720  20.9432410 142.7338830
 120.2137490  20.1884730 142.6459310 119.8078490  21.4739850 141.9570310
 110.7488790  16.1029160 141.0455780 110.6545660  15.4849910 140.3206650
 110.1686180  16.8295450 140.8185690 113.5150230  14.6602400 138.0783170
 113.0667530  14.6826660 137.2328720 112.8815430  14.2621420 138.6753470
 113.9209780  23.5556730 138.6995610 114.3397890  24.3989460 138.5271850
 113.0018410  23.6928770 138.4702390 116.2573680  21.2872910 140.0833450
 116.3769890  20.6914050 140.8228290 117.1167680  21.3242600 139.6634750
 118.5961580  21.8410100 138.6595960 118.0696800  22.3652720 138.0561100
 118.9392920  22.4737490 139.2905690 110.9947970  19.2303470 125.1045670
 110.7937030  18.3670830 125.4659010 110.8240020  19.1436830 124.1667270
 111.7717200  29.8609740 139.8153340 111.2338290  30.5855800 139.4962040
 112.0251160  29.3840080 139.0250680 113.0242450  17.8294260 141.3409270
 113.6142140  17.5210110 142.0287090 112.2062690  17.3574010 141.4969170
 117.8435880  17.4460070 141.5742290 117.1551400  16.7841610 141.5092280
 118.5641900  16.9998340 142.0190750 118.4736280  14.0411700 127.6332550
 118.7538570  13.1979600 127.9891970 117.7002010  14.2734810 128.1471300
 109.7930770  16.3304090 125.0923550 110.0956670  16.3371520 124.1842700
 110.5325360  15.9801950 125.5891210 114.6279410  31.0960950 140.0739990
 114.5538110  31.9996090 140.3812360 113.7258250  30.7772850 140.0462060
 113.0115700  15.2738710 126.0779750 112.6637700  14.5962700 125.4982200
 113.2128470  14.8128220 126.8923140 115.1764740  30.2619460 127.6966350
 116.0715530  30.6004430 127.7185110 115.2082370  29.5398870 127.0690630
 108.8160900  25.6346510 125.9253350 109.2535770  26.1776180 126.5810930
 109.3008630  24.8093460 125.9349690 106.0306700  28.4235540 133.3773610
 106.3609710  27.5556600 133.1452250 106.4597700  28.6294060 134.2078570
 110.6268620  26.7544550 131.0375580 110.3264160  26.6309520 131.9379490
 110.5206110  25.8953140 130.6291310 106.5196910  29.2906130 136.1155240
 106.0827900  29.4706930 136.9479390 107.0874590  30.0480750 135.9736960
 122.1559090  28.7923130 140.4032550 121.5561080  28.8515690 139.6596470
 122.2852990  27.8528110 140.5329400 123.3960540  26.5340950 125.7402260
 122.5653500  26.6017600 126.2109490 123.5732370  27.4245070 125.4369120
 122.8517000  23.2788430 128.2436460 123.6135910  23.8485080 128.3496150
 122.8671370  22.7115630 129.0144770 106.3521340  21.8026360 132.4744120
 105.6970180  21.5338000 131.8303820 107.1899290  21.6930840 132.0246100
 123.8576970  24.1338530 133.0878390 124.2285800  23.3505850 132.6814360
 124.4978900  24.8227630 132.9095690 120.8410730  25.5175110 138.5008710
 120.0270570  25.9472270 138.7634500 121.2484930  26.1293520 137.8877760
 122.9036170  23.5722800 125.4008980 123.1785010  24.4801680 125.2728200
 122.7146910  23.5085330 126.3370970 119.3011780  16.5967650 126.6962610
 119.7196660  16.4098630 125.8559270 118.9947840  15.7446700 127.0065540
 122.8001510  21.5091790 130.3938410 122.4245110  20.7419720 129.9619700
 122.0704630  21.8914490 130.8813340 107.3897270  22.1878930 137.0147460
 107.7570310  22.1006330 137.8943480 106.8208090  21.4245480 136.9154320
 122.1901130  20.6563310 140.0277930 121.9587220  20.4276060 139.1275880
 122.4505680  21.5762860 139.9822820 106.9413270  19.0988020 140.9205880
 106.0469320  19.0654780 141.2599590 107.4810820  19.2974810 141.6857130
 120.6289200  15.8819740 142.8057630 121.5059380  15.8903140 143.1891630
 120.6410040  15.1450580 142.1949980 105.5659420  19.0125290 128.4169450
 104.6623500  19.2755490 128.2421110 106.0500040  19.2836460 127.6369410
 122.0752470  19.7349280 133.6945650 122.5989950  19.2411930 133.0635820
 122.6611890  19.8699640 134.4393220 122.2542190  19.8189150 137.2165200
 121.3044900  19.7852690 137.3310190 122.4355200  20.7289260 136.9814970
 108.1086630  18.0690830 126.3263830 108.8178330  17.6474050 125.8411110
 107.3926570  18.1366060 125.6947180 107.7560790  14.1230160 125.3666480
 108.4788920  14.6639100 125.6847700 108.0285310  13.8493580 124.4908020
 121.5652440  18.9922630 129.6338060 122.0611560  18.7593500 130.4186940
 121.3668510  18.1534470 129.2175700 107.4452980  13.3736350 135.2689100
 108.0929170  12.8233730 134.8284260 107.8654820  13.6279500 136.0904910
 122.9939600  17.6283580 132.1675740 122.8838880  17.4739620 133.1058010
 123.7547190  17.1004520 131.9251150 121.3405320  13.5677710 138.6258740
 121.9777540  14.1811850 138.9917930 121.4880210  13.6038370 137.6807970
 123.8829870  15.4591500 125.4081880 124.8079180  15.3272680 125.2000170
 123.8605660  15.5384320 126.3618330 123.9568360  16.2302160 128.0338590
 123.1619860  16.1647280 128.5631500 124.1611640  17.1652800 128.0223940
 120.8986780  30.2693710 132.0276980 121.4945850  29.9478280 131.3511400
 121.1564930  29.7965530 132.8190250 107.1984980  13.5292020 138.0114420
 106.8499800  13.9855840 138.7772600 106.8672680  12.6349150 138.0936850
 108.8049350  26.7011620 142.1767610 108.7618980  26.3304530 143.0582070
 108.9360360  27.6389190 142.3169430 112.5055380  28.2571210 137.7777330
 112.2646740  28.5245770 136.8907850 113.4458020  28.4276940 137.8328190
 114.7109800  14.7203900 141.5333840 114.6498690  15.3125730 142.2829250
 115.6510180  14.6129860 141.3884100 117.3484360  14.3773960 141.1726130
 117.9624770  14.6953250 140.5107210 117.8933920  13.8922550 141.7921990
 123.7659540  30.2765590 138.5787970 123.2717820  30.6734460 137.8615100
 123.1572830  29.6514800 138.9725250 107.8705620  13.0568220 141.2865190
 108.4188610  12.8756270 140.5231300 107.9360930  12.2662330 141.8221500
 108.6437380  29.6473870 139.2965390 108.0497700  29.5158570 140.0355430
 108.6361220  28.8112010 138.8307490 118.0892400  12.9406100 137.4995420
 117.2152240  13.2741210 137.2968350 117.9803150  12.4679280 138.3247290
 118.9964380  15.1476970 138.8837140 118.6677740  14.3328730 138.5038870
 119.9446680  15.1046780 138.7602830 121.4498990  30.9189010 135.8574710
 120.9901960  31.6704820 135.4832730 120.8211450  30.1995480 135.7989510
 108.2749610  27.0132250 138.2473430 107.5483670  26.3937540 138.1799380
 108.3358760  27.4072860 137.3771510 111.8794710  29.2277250 135.0322840
 112.3959730  28.6164610 134.5071100 112.5292090  29.7306030 135.5233850
 114.6190210  30.1185740 135.8591820 114.9068020  29.8640040 134.9824830
 115.1313430  29.5663100 136.4497390 115.8367220  13.8575940 136.4388330
 115.0539010  14.3321440 136.7185090 115.5430150  12.9530770 136.3301510
 120.3888290  14.5599040 134.4837420 120.8296380  14.5044140 133.6359020
 120.1195880  15.4757050 134.5547600 122.2526860  14.1914280 132.4946240
 122.1915260  13.2475500 132.3477260 123.0318890  14.2994370 133.0399700
 106.5579610  30.3306640 131.4570190 106.3901650  29.6977320 132.1552080
 105.6914120  30.5366040 131.1064380 107.1807630  14.1623420 128.9602050
 107.9386990  14.2752300 128.3866080 106.7184800  14.9992620 128.9145480
 113.7221440  16.2762690 131.9504360 112.9095950  15.9019580 131.6100240
 114.2263080  15.5207770 132.2525550 118.2246420  12.9405140 133.1887430
 118.8275790  13.5125350 133.6635950 117.4839410  13.5044580 132.9661330
 121.3681020  13.3426700 128.4627710 121.5631650  14.2410150 128.7295140
 120.5810890  13.1113780 128.9560660 108.1642310  29.0239870 128.9020330
 107.6389930  29.4047900 128.1982290 108.0886890  29.6490640 129.6230040
 109.5532780  14.6887470 127.5004020 110.0825540  13.9017270 127.3711970
 110.1861100  15.3678660 127.7339550 111.7470620  14.4262610 130.5549410
 111.1173360  13.7249920 130.7219540 111.2075760  15.1866740 130.3382570
 114.6862570  31.0401840 143.2260020 115.6129880  30.8046110 143.2695980
 114.6713000  31.8673840 142.7446050 122.9207630  30.5827410 130.2234270
 123.0959820  29.8965150 129.5795190 122.2229200  31.1074460 129.8310940
 111.8726180  13.7046590 142.9901900 111.5910450  14.2080190 142.2262720
 112.2545880  12.9068340 142.6244030 110.7635280  30.9722250 127.7769580
 111.4954100  30.6881530 127.2293470 111.0228950  30.7335530 128.6668960
 109.9250070  27.0886980 127.7815910 109.2958950  27.5572080 128.3301740
 110.0397900  26.2436200 128.2162100 118.4741640  13.1200170 143.5682370
 118.3607090  13.4394780 144.4633890 119.2911380  13.5212680 143.2719650
 121.2540130  30.2671700 143.0501060 122.0465450  29.7720930 142.8427020
 121.5473280  30.9461840 143.6576670 117.3799790  21.1392640 113.9317110
 117.2993840  20.2247250 113.6608820 116.9664210  21.6359710 113.2256820
 115.5117830  22.9171660 115.8126380 114.7359930  22.4372100 116.1024950
 116.1630760  22.2377310 115.6382540 109.5283660  23.2291470 116.6902140
 108.6968540  22.9740180 117.0898650 110.1364640  23.3002240 117.4260060
 119.5325260  27.3231850 114.5925510 119.0706790  26.5519090 114.9212680
 120.3450810  27.3497920 115.0977960 109.5084920  27.2631560 116.8860160
 109.8112960  26.3729300 116.7070380 110.2528510  27.8201780 116.6582410
 107.9375610  18.1893360 110.4744530 107.0492310  18.5309330 110.3724410
 108.2216800  17.9893680 109.5825360 105.9008620  20.7899010 116.3584230
 106.4724730  20.0221210 116.3587870 105.9010160  21.0887770 115.4490840
 115.7588570  29.6089860 114.2129500 115.1400010  30.0647360 113.6423940
 116.6140350  29.7641320 113.8119200 114.9526820  25.5928850 115.8196540
 114.8835100  24.6518790 115.6585670 115.7146680  25.6830260 116.3919110
 107.1433490  16.1983370 118.1453160 106.9636330  15.3009120 118.4255920
 106.7413570  16.7455240 118.8200110 115.9831990  18.3999230 116.0465470
 116.3596810  17.5271110 115.9339140 115.8851500  18.7357930 115.1555910
 110.1137000  16.7724860 111.5082910 110.2203750  17.6728590 111.8151670
 109.2029360  16.7242830 111.2177560 119.7656110  15.8949670 112.9793810
 120.5865730  15.4046240 113.0219290 119.7990190  16.4847330 113.7325650
 107.7620160  18.6943870 116.7535500 108.4430270  18.9582240 117.3722900
 107.4468210  17.8544740 117.0873510 111.9544730  19.7411230 115.8408090
 112.4622950  20.2392200 116.4813110 112.4857970  18.9646430 115.6647450
 124.0555660  17.9116420 119.5437440 123.3507830  18.2998130 119.0252550
 124.3213580  18.6066710 120.1458370 110.2380830  14.3809790 120.1071510
 110.2399270  14.8982180 119.3017410 109.4085140  13.9039970 120.0841440
 116.6251920  24.4929100 111.6061410 116.0069190  24.9578550 111.0424130
 117.1375170  25.1856580 112.0230920 111.4883680  24.0204970 118.2845010
 111.1553060  24.6473890 118.9266080 111.6650360  24.5466850 117.5046680
 120.0017590  17.8350050 115.7521350 119.2973160  18.1234940 116.3324460
 120.3629750  18.6450160 115.3920910 109.9196160  16.0919750 118.1141960
 110.2612970  16.9361800 117.8195830 108.9811970  16.2403490 118.2307300
 110.7002780  25.9885770 120.0994190 111.3176780  26.6636850 119.8178640
 109.8395900  26.3973750 120.0081690 105.9935120  25.1785630 108.9801040
 105.6163100  25.6672730 108.2485940 106.2508190  25.8510910 109.6107570
 121.6180370  27.4525180 118.0148830 120.9343890  28.1224290 118.0065500
 122.1574660  27.6505830 117.2493690 123.0704510  17.2804840 116.1430560
 122.1229420  17.3143820 116.2745990 123.3954500  18.0943790 116.5279920
 113.6024050  13.5802020 114.4386550 113.9099030  13.0248910 113.7222050
 112.6724750  13.7146480 114.2559540 119.1539110  29.2969310 116.7294010
 119.1666270  28.8931600 115.8616270 118.6014330  30.0716600 116.6255440
 120.4484530  26.0185530 111.8184180 120.3380860  25.0759860 111.9433600
 120.4452780  26.3801170 112.7046940 118.5524550  24.1999150 118.0576620
 118.9693340  23.9859260 117.2230080 119.2764370  24.4571940 118.6285240
 115.9904810  21.6450850 111.1746670 115.0634090  21.5788230 111.4035140
 116.1429630  22.5830980 111.0601910 115.9773890  17.9167850 108.1713830
 115.0377560  18.0781810 108.2566290 116.2957150  18.6353530 107.6249820
 122.4986650  22.5986370 118.1492860 121.6705280  22.6679460 117.6742990
 123.0937130  23.1840680 117.6808690 120.0202100  23.2071150 111.6781920
 119.4014520  22.8690700 111.0308220 120.0026550  22.5630910 112.3861110
 119.4628660  19.3855690 119.0947730 119.0499840  20.2109400 119.3487720
 118.7304610  18.8000730 118.9024090 111.5961450  22.1715590 113.9566400
 111.1918450  21.4592840 113.4612300 111.6824570  21.8268830 114.8454440
 112.0643150  25.8583150 116.1205610 111.7671440  25.2528620 115.4413390
 113.0142970  25.8960460 116.0094970 110.3090070  18.9458800 117.7365440
 110.8604660  19.0554140 116.9618690 110.8233580  19.3196400 118.4520670
 120.1528760  29.4315020 119.7828710 119.6759320  30.2387210 119.5901320
 119.4690550  28.7793350 119.9354920 111.1561580  25.5964840 122.7713410
 110.2590110  25.8204810 123.0186810 111.1814450  25.7199780 121.8224810
 118.1966800  22.4457960 108.6854670 118.6360080  21.6080390 108.5392490
 118.9095220  23.0787360 108.7718810 109.9832800  22.4678160 121.3470780
 109.8440570  23.3400960 121.7158180 109.1014160  22.1250970 121.2018720
 116.3062180  27.3854030 112.6535910 116.7458090  28.1278360 112.2391300
 116.2449070  27.6280600 113.5774870 111.7813150  28.4099860 123.5555930
 111.7528580  28.8142810 122.6884360 111.6178120  27.4810220 123.3927530
 121.7783940  13.7000770 106.9995710 121.4656600  13.7927600 107.8994780
 122.5396410  14.2781800 106.9493140 108.2966080  21.0660570 111.4573050
 108.1763680  21.7922660 110.8454320 107.9866970  20.2963480 110.9800960
 123.7327970  29.1926960 124.8520100 124.2087690  29.6709850 125.5309180
 124.3535130  29.1244450 124.1265600 105.9351450  24.2375710 117.2641690
 106.0131870  24.3724480 116.3197410 106.5493130  23.5291600 117.4569810
 107.1799080  25.9375900 113.6747870 106.7727160  26.0790490 112.8201470
 108.0712090  25.6536060 113.4719080 123.1361220  26.3839810 122.0120110
 123.2624280  26.1451690 121.0937290 123.1782600  25.5524350 122.4842190
 116.9977960  30.0867810 120.5814920 117.5122630  29.9975820 121.3837350
 116.1547040  30.4327510 120.8742830 118.9732360  30.3723150 110.0098920
 118.8133500  30.0826090 110.9080750 118.8079070  29.5963280 109.4744150
 118.6758490  27.8810710 108.5696920 117.9823650  27.8788000 107.9099200
 119.4181350  27.4570030 108.1391090 118.2408420  29.5073420 112.6445410
 118.6965370  28.7262800 112.9584030 118.5800940  30.2180240 113.1886590
 122.9885230  18.4372270 122.9769850 122.3729500  18.9451940 122.4485310
 122.6681650  17.5370600 122.9195790 105.9910970  25.2789880 119.8036150
 106.1542010  24.8095240 118.9855520 106.4563420  24.7713440 120.4684990
 110.7629740  14.4095640 114.8396720 110.3197890  15.1905180 114.5081240
 111.3214730  14.7325530 115.5467660 115.0499550  17.2764160 120.4432040
 114.5878920  17.4847180 121.2551980 114.6477660  16.4623510 120.1402710
 120.0504060  18.4973110 121.5728700 119.1997650  18.1978860 121.8937770
 119.8905850  18.7415120 120.6612520 117.1453770  19.9974860 123.6727490
 117.4707180  19.1638610 123.3329720 117.9334100  20.5203380 123.8205820
 113.8788560  14.0306340 109.7202550 113.2542740  14.0266210 110.4455860
 113.7918680  13.1637300 109.3238520 112.8005640  14.9542970 116.6986320
 113.0977970  15.8605800 116.6178340 113.3491200  14.4661750 116.0845890
 110.5543960  19.5329210 112.5677970 110.3284880  19.3166380 113.4724590
 109.7736490  19.9657670 112.2223940 117.7841720  19.5392580 111.1668620
 117.1850610  20.2628380 110.9832240 118.3321330  19.4769360 110.3845070
 112.9943170  20.4314790 123.2338240 112.8986770  19.4909520 123.0838640
 113.8375150  20.6529860 122.8386310 116.3906590  18.1756120 113.1971900
 116.7836160  18.4928320 112.3840590 116.7523440  17.2968000 113.3116420
 108.1253710  16.8428460 121.3872020 107.7317100  17.6903670 121.5944800
 107.4372110  16.2054830 121.5780660 114.6998760  16.9263430 124.4568760
 114.0097080  16.7335630 125.0914850 115.4431060  17.2098070 124.9893060
 105.4270760  14.7656920 115.4202100 105.1383810  15.3359780 116.1327080
 106.1716520  14.2861370 115.7833330 105.6140990  18.7077040 106.6304820
 105.5315660  19.6507800 106.7719810 105.2624050  18.5651950 105.7517170
 116.9761730  20.7661870 117.2922680 116.2442850  21.2748680 117.6412780
 116.5786070  19.9491850 116.9911460 113.4139120  17.4416070 115.6975170
 113.4175180  17.0006020 114.8479710 114.3090240  17.7633400 115.8046990
 109.2641500  17.3242560 114.6569380 108.9241550  17.8017790 115.4136430
 108.5018820  16.8707680 114.2970480 113.4759270  18.4428150 108.6881930
 113.5972090  18.4014630 109.6367750 113.0907780  19.3052300 108.5328660
 117.4387640  16.2195550 116.7045620 117.4560380  16.6704200 117.5487470
 117.1903220  15.3201190 116.9179060 112.4880770  20.7529290 108.0865230
 111.9197670  20.3047540 107.4601140 113.1969770  21.1122070 107.5530380
 120.8658390  13.6327730 122.5432000 121.1904160  12.9017390 123.0689980
 120.9014900  13.3141370 121.6412990 107.5649950  24.6541310 121.9631960
 107.1804740  24.0134980 122.5614920 107.8762140  25.3577430 122.5326690
 113.7147090  21.5017850 117.4440580 114.0817220  21.0276420 118.1901920
 113.5252150  22.3759420 117.7848920 106.5787580  16.2461540 113.5734050
 106.2934500  15.8817210 114.4112670 106.5166440  15.5142000 112.9597190
 111.5046460  20.5426490 119.7624790 111.2003530  21.4218470 119.9875150
 112.4592920  20.6026280 119.7982230 110.0328250  24.7487480 110.3591640
 109.2590510  24.2085100 110.1990360 110.7622880  24.2294090 110.0209400
 120.7916230  23.7452840 116.1518030 121.5115350  24.2408130 115.7614140
 120.5898050  23.0670730 115.5071900 116.2526170  15.1390800 110.2947420
 115.4390780  14.6403970 110.2192730 116.0588120  15.9789050 109.8783770
 116.1735030  23.8161900 122.0387030 116.1072340  22.8957570 121.7844620
 115.5440170  23.9137340 122.7531670 118.9674560  19.5110450 108.5909580
 119.8554180  19.8227680 108.4160920 118.9379650  18.6382700 108.1990160
 110.0765650  24.4167860 113.9970450 110.5944320  23.6136120 113.9427340
 109.6249670  24.3547000 114.8387280 114.9635150  25.6834140 109.2697750
 115.3050850  26.4276370 108.7741070 114.1347860  25.9965260 109.6322580
 107.5610190  21.3829230 120.9096150 107.2025130  22.0483080 121.4969490
 107.2664750  20.5512780 121.2808770 110.7623310  21.8413470 123.7935700
 110.4623450  21.9870650 122.8963520 111.5334550  21.2818760 123.7009090
 116.1051760  26.6382470 121.7890830 116.1196300  25.7063430 121.5709740
 115.3976860  26.7242230 122.4280600 121.2388830  20.8222290 108.0589440
 121.1552550  21.2536510 107.2085880 121.9583020  21.2820640 108.4916260
 122.3162970  23.2789810 121.1359410 121.5911160  23.8718590 120.9388800
 122.8438430  23.2713350 120.3372780 122.2676080  27.6764550 110.7871570
 121.6252240  27.0220170 111.0615290 121.8806740  28.0819640 110.0112240
 117.8462560  25.0049980 114.6343260 118.1986380  24.4078110 113.9744630
 116.9624890  24.6794210 114.8051510 113.9325840  25.7647670 112.0413670
 114.6196970  26.3116880 112.4221260 113.1458260  26.3088400 112.0763280
 106.0718240  21.3820490 107.5330750 106.9413090  21.6645290 107.8166670
 105.5808560  22.1956360 107.4179560 113.2353050  22.7693700 111.6539030
 113.6915830  23.5798950 111.8799220 112.8841260  22.4516840 112.4857520
 115.5385660  28.2800040 118.8831330 116.1827880  28.4859420 119.5604750
 115.9015100  27.5188440 118.4302180 109.1364830  13.1131350 112.1261550
 109.0079460  13.1049250 113.0746470 108.3126850  13.4514440 111.7752560
 116.8117740  26.2832390 117.6008780 117.4539970  25.5825550 117.7140950
 117.3367090  27.0630830 117.4205670 120.6573460  26.5681010 107.3247920
 120.4311040  25.8511450 107.9172560 120.2669660  26.3193450 106.4869670
 118.5855360  27.0827290 120.8044840 118.9211600  27.6693980 121.4822760
 117.6655700  26.9520000 121.0342630 106.4389490  30.5947870 108.0992380
 106.7987130  31.1937210 107.4449650 106.2981830  31.1407760 108.8727410
 106.1358760  14.8722470 121.5868250 105.4217280  15.0719390 122.1920860
 106.5553800  14.0962040 121.9583050 120.2389710  24.4852950 108.9862080
 119.9511410  24.9465640 109.7739960 121.0341880  24.0250720 109.2546300
 106.4231350  28.8602730 122.5734780 106.5322470  27.9197470 122.4330170
 105.7711910  29.1257480 121.9248510 114.4143940  27.1318620 123.9732900
 114.0940810  26.4127860 124.5178590 113.7402300  27.8073690 124.0468960
 112.4558110  27.9779070 108.9166050 112.4468210  28.7108760 108.3010560
 111.5356470  27.7310650 109.0093010 108.0564750  23.1993960 109.6612810
 107.4492700  23.9392860 109.6708110 108.5314100  23.2893320 108.8351010
 117.6297540  17.3644780 119.3369700 117.9978360  16.5439990 119.6649270
 116.7695740  17.4246670 119.7525350 120.9959570  16.3201720 110.1457260
 120.3672730  16.4247390 109.4315490 120.5011490  16.5398500 110.9351140
 115.4417710  28.0407310 107.5791240 115.5429690  27.8371300 106.6493220
 114.5419450  27.7865590 107.7839020 112.9643600  18.5987670 111.5615140
 112.2559750  19.0674010 112.0028750 113.2488080  17.9409680 112.1960330
 114.5899530  20.0184370 119.5607670 115.0884780  20.4930190 120.2259520
 114.7322480  19.0947890 119.7677700 116.9959030  15.3238330 113.0010930
 116.8726810  15.3424460 112.0520440 117.9443590  15.3717270 113.1209330
 111.1678620  16.9072750 108.9365850 112.0169150  17.3442900 108.8706040
 110.8009890  17.2193010 109.7637910 121.7966390  16.2352330 120.4036060
 121.2939990  16.9757730 120.7429870 122.6123050  16.6236330 120.0872850
 120.0888400  21.4785510 113.8497420 119.1478540  21.4935740 114.0245110
 120.4032470  20.6921470 114.2957720 110.0670040  23.1605110 107.4101380
 110.8333310  23.0486470 107.9726810 110.1444730  22.4643080 106.7578150
 108.7616800  20.5930180 108.0934270 108.8420390  19.6457690 108.2051670
 109.6536550  20.9237060 108.1994930 122.0913980  28.6494360 115.5251680
 122.2161400  29.4725530 115.9975490 122.9579540  28.4385090 115.1775830
 109.5631510  30.7425570 115.1968810 110.2993990  30.1941030 115.4677380
 109.9472430  31.6081580 115.0574800 106.4476990  26.8099140 111.0710320
 105.5216770  27.0520280 111.0615730 106.9133420  27.6373400 110.9495070
 108.5689790  29.9271640 124.3854390 109.3702520  30.2483690 124.7989790
 108.0541610  29.5667220 125.1074300 117.4054420  26.0351510 124.3329800
 116.7992580  26.0583110 123.5925550 117.1008530  25.3034550 124.8697050
 118.8354790  29.7631800 122.9439210 119.7876540  29.6789820 122.8939450
 118.6883010  30.4273510 123.6173000 121.7263990  29.1426010 108.4431120
 121.4405500  28.7291150 107.6285300 121.5283540  30.0713720 108.3231640
 106.2887600  22.4145100 123.3290440 106.7926620  21.8352380 123.9006670
 105.5495020  22.6985330 123.8666810 113.1911220  25.1359290 106.8836730
 113.0861860  24.5211640 107.6098110 113.0235440  24.6125180 106.0999740
 113.3425540  23.8216090 122.8625960 112.5771210  24.3901090 122.7780630
 113.5241500  23.5292300 121.9694190 116.4313950  24.1979320 107.4878720
 115.8824050  24.6448620 108.1321460 117.0533210  23.6928570 108.0116390
 120.4848890  25.5521420 123.4200980 121.2258360  25.8897180 122.9168440
 119.7221570  25.7213480 122.8670750 108.3210680  20.5574690 124.2240510
 108.3616020  20.2588560 125.1325740 109.1756180  20.9582300 124.0648030
 112.0989070  23.1570240 109.3844020 112.5205490  22.9910110 110.2275410
 112.2239910  22.3470470 108.8899160 110.2616490  19.1366790 122.1915000
 109.7312950  18.6457740 121.5638340 110.9304560  19.5650990 121.6572930
 114.6116710  22.1807850 106.6321120 115.1322370  21.4656870 106.2662270
 115.2585110  22.8193720 106.9321630 119.1594550  23.6036250 121.9556190
 119.5735570  23.7581330 122.8046610 118.2245550  23.7291470 122.1181970
 119.6316720  20.9432410 123.9595340 120.2137490  20.1884730 123.8715820
 119.8078490  21.4739850 123.1826820 110.7488790  16.1029160 122.2712290
 110.6545660  15.4849910 121.5463160 110.1686180  16.8295450 122.0442200
 113.5150230  14.6602400 119.3039680 113.0667530  14.6826660 118.4585230
 112.8815430  14.2621420 119.9009980 113.9209780  23.5556730 119.9252120
 114.3397890  24.3989460 119.7528360 113.0018410  23.6928770 119.6958900
 116.2573680  21.2872910 121.3089960 116.3769890  20.6914050 122.0484800
 117.1167680  21.3242600 120.8891260 118.5961580  21.8410100 119.8852470
 118.0696800  22.3652720 119.2817610 118.9392920  22.4737490 120.5162200
 110.9947970  19.2303470 106.3302180 110.7937030  18.3670830 106.6915520
 110.8240020  19.1436830 105.3923780 111.7717200  29.8609740 121.0409850
 111.2338290  30.5855800 120.7218550 112.0251160  29.3840080 120.2507190
 113.0242450  17.8294260 122.5665780 113.6142140  17.5210110 123.2543600
 112.2062690  17.3574010 122.7225680 117.8435880  17.4460070 122.7998800
 117.1551400  16.7841610 122.7348790 118.5641900  16.9998340 123.2447260
 118.4736280  14.0411700 108.8589060 118.7538570  13.1979600 109.2148480
 117.7002010  14.2734810 109.3727810 109.7930770  16.3304090 106.3180060
 110.0956670  16.3371520 105.4099210 110.5325360  15.9801950 106.8147720
 114.6279410  31.0960950 121.2996500 114.5538110  31.9996090 121.6068870
 113.7258250  30.7772850 121.2718570 113.0115700  15.2738710 107.3036260
 112.6637700  14.5962700 106.7238710 113.2128470  14.8128220 108.1179650
 108.8160900  25.6346510 107.1509860 109.2535770  26.1776180 107.8067440
 109.3008630  24.8093460 107.1606200 106.0306700  28.4235540 114.6030120
 106.3609710  27.5556600 114.3708760 106.4597700  28.6294060 115.4335080
 110.6268620  26.7544550 112.2632090 110.3264160  26.6309520 113.1636000
 110.5206110  25.8953140 111.8547820 106.5196910  29.2906130 117.3411750
 106.0827900  29.4706930 118.1735900 107.0874590  30.0480750 117.1993470
 122.1559090  28.7923130 121.6289060 121.5561080  28.8515690 120.8852980
 122.2852990  27.8528110 121.7585910 123.3960540  26.5340950 106.9658770
 122.5653500  26.6017600 107.4366000 123.5732370  27.4245070 106.6625630
 122.8517000  23.2788430 109.4692970 123.6135910  23.8485080 109.5752660
 122.8671370  22.7115630 110.2401280 106.3521340  21.8026360 113.7000630
 105.6970180  21.5338000 113.0560330 107.1899290  21.6930840 113.2502610
 123.8576970  24.1338530 114.3134900 124.2285800  23.3505850 113.9070870
 124.4978900  24.8227630 114.1352200 120.8410730  25.5175110 119.7265220
 120.0270570  25.9472270 119.9891010 121.2484930  26.1293520 119.1134270
 122.9036170  23.5722800 106.6265490 123.1785010  24.4801680 106.4984710
 122.7146910  23.5085330 107.5627480 119.3011780  16.5967650 107.9219120
 119.7196660  16.4098630 107.0815780 118.9947840  15.7446700 108.2322050
 122.8001510  21.5091790 111.6194920 122.4245110  20.7419720 111.1876210
 122.0704630  21.8914490 112.1069850 107.3897270  22.1878930 118.2403970
 107.7570310  22.1006330 119.1199990 106.8208090  21.4245480 118.1410830
 122.1901130  20.6563310 121.2534440 121.9587220  20.4276060 120.3532390
 122.4505680  21.5762860 121.2079330 106.9413270  19.0988020 122.1462390
 106.0469320  19.0654780 122.4856100 107.4810820  19.2974810 122.9113640
 120.6289200  15.8819740 124.0314140 121.5059380  15.8903140 124.4148140
 120.6410040  15.1450580 123.4206490 105.5659420  19.0125290 109.6425960
 104.6623500  19.2755490 109.4677620 106.0500040  19.2836460 108.8625920
 122.0752470  19.7349280 114.9202160 122.5989950  19.2411930 114.2892330
 122.6611890  19.8699640 115.6649730 122.2542190  19.8189150 118.4421710
 121.3044900  19.7852690 118.5566700 122.4355200  20.7289260 118.2071480
 108.1086630  18.0690830 107.5520340 108.8178330  17.6474050 107.0667620
 107.3926570  18.1366060 106.9203690 107.7560790  14.1230160 106.5922990
 108.4788920  14.6639100 106.9104210 108.0285310  13.8493580 105.7164530
 121.5652440  18.9922630 110.8594570 122.0611560  18.7593500 111.6443450
 121.3668510  18.1534470 110.4432210 107.4452980  13.3736350 116.4945610
 108.0929170  12.8233730 116.0540770 107.8654820  13.6279500 117.3161420
 122.9939600  17.6283580 113.3932250 122.8838880  17.4739620 114.3314520
 123.7547190  17.1004520 113.1507660 121.3405320  13.5677710 119.8515250
 121.9777540  14.1811850 120.2174440 121.4880210  13.6038370 118.9064480
 123.8829870  15.4591500 106.6338390 124.8079180  15.3272680 106.4256680
 123.8605660  15.5384320 107.5874840 123.9568360  16.2302160 109.2595100
 123.1619860  16.1647280 109.7888010 124.1611640  17.1652800 109.2480450
 120.8986780  30.2693710 113.2533490 121.4945850  29.9478280 112.5767910
 121.1564930  29.7965530 114.0446760 107.1984980  13.5292020 119.2370930
 106.8499800  13.9855840 120.0029110 106.8672680  12.6349150 119.3193360
 108.8049350  26.7011620 123.4024120 108.7618980  26.3304530 124.2838580
 108.9360360  27.6389190 123.5425940 112.5055380  28.2571210 119.0033840
 112.2646740  28.5245770 118.1164360 113.4458020  28.4276940 119.0584700
 114.7109800  14.7203900 122.7590350 114.6498690  15.3125730 123.5085760
 115.6510180  14.6129860 122.6140610 117.3484360  14.3773960 122.3982640
 117.9624770  14.6953250 121.7363720 117.8933920  13.8922550 123.0178500
 123.7659540  30.2765590 119.8044480 123.2717820  30.6734460 119.0871610
 123.1572830  29.6514800 120.1981760 107.8705620  13.0568220 122.5121700
 108.4188610  12.8756270 121.7487810 107.9360930  12.2662330 123.0478010
 108.6437380  29.6473870 120.5221900 108.0497700  29.5158570 121.2611940
 108.6361220  28.8112010 120.0564000 118.0892400  12.9406100 118.7251930
 117.2152240  13.2741210 118.5224860 117.9803150  12.4679280 119.5503800
 118.9964380  15.1476970 120.1093650 118.6677740  14.3328730 119.7295380
 119.9446680  15.1046780 119.9859340 121.4498990  30.9189010 117.0831220
 120.9901960  31.6704820 116.7089240 120.8211450  30.1995480 117.0246020
 108.2749610  27.0132250 119.4729940 107.5483670  26.3937540 119.4055890
 108.3358760  27.4072860 118.6028020 111.8794710  29.2277250 116.2579350
 112.3959730  28.6164610 115.7327610 112.5292090  29.7306030 116.7490360
 114.6190210  30.1185740 117.0848330 114.9068020  29.8640040 116.2081340
 115.1313430  29.5663100 117.6753900 115.8367220  13.8575940 117.6644840
 115.0539010  14.3321440 117.9441600 115.5430150  12.9530770 117.5558020
 120.3888290  14.5599040 115.7093930 120.8296380  14.5044140 114.8615530
 120.1195880  15.4757050 115.7804110 122.2526860  14.1914280 113.7202750
 122.1915260  13.2475500 113.5733770 123.0318890  14.2994370 114.2656210
 106.5579610  30.3306640 112.6826700 106.3901650  29.6977320 113.3808590
 105.6914120  30.5366040 112.3320890 107.1807630  14.1623420 110.1858560
 107.9386990  14.2752300 109.6122590 106.7184800  14.9992620 110.1401990
 113.7221440  16.2762690 113.1760870 112.9095950  15.9019580 112.8356750
 114.2263080  15.5207770 113.4782060 118.2246420  12.9405140 114.4143940
 118.8275790  13.5125350 114.8892460 117.4839410  13.5044580 114.1917840
 121.3681020  13.3426700 109.6884220 121.5631650  14.2410150 109.9551650
 120.5810890  13.1113780 110.1817170 108.1642310  29.0239870 110.1276840
 107.6389930  29.4047900 109.4238800 108.0886890  29.6490640 110.8486550
 109.5532780  14.6887470 108.7260530 110.0825540  13.9017270 108.5968480
 110.1861100  15.3678660 108.9596060 111.7470620  14.4262610 111.7805920
 111.1173360  13.7249920 111.9476050 111.2075760  15.1866740 111.5639080
 114.6862570  31.0401840 124.4516530 115.6129880  30.8046110 124.4952490
 114.6713000  31.8673840 123.9702560 122.9207630  30.5827410 111.4490780
 123.0959820  29.8965150 110.8051700 122.2229200  31.1074460 111.0567450
 111.8726180  13.7046590 124.2158410 111.5910450  14.2080190 123.4519230
 112.2545880  12.9068340 123.8500540 109.9250070  27.0886980 109.0072420
 109.2958950  27.5572080 109.5558250 110.0397900  26.2436200 109.4418610
 118.4741640  13.1200170 124.7938880 118.3607090  13.4394780 125.6890400
 119.2911380  13.5212680 124.4976160 121.2540130  30.2671700 124.2757570
 122.0465450  29.7720930 124.0683530 121.5473280  30.9461840 124.8833180
 117.3799790  21.1392640  95.1573620 117.2993840  20.2247250  94.8865330
 116.9664210  21.6359710  94.4513330 115.5117830  22.9171660  97.0382890
 114.7359930  22.4372100  97.3281460 116.1630760  22.2377310  96.8639050
 109.5283660  23.2291470  97.9158650 108.6968540  22.9740180  98.3155160
 110.1364640  23.3002240  98.6516570 119.5325260  27.3231850  95.8182020
 119.0706790  26.5519090  96.1469190 120.3450810  27.3497920  96.3234470
 109.5084920  27.2631560  98.1116670 109.8112960  26.3729300  97.9326890
 110.2528510  27.8201780  97.8838920 107.9375610  18.1893360  91.7001040
 107.0492310  18.5309330  91.5980920 108.2216800  17.9893680  90.8081870
 105.9008620  20.7899010  97.5840740 106.4724730  20.0221210  97.5844380
 105.9010160  21.0887770  96.6747350 115.7588570  29.6089860  95.4386010
 115.1400010  30.0647360  94.8680450 116.6140350  29.7641320  95.0375710
 114.9526820  25.5928850  97.0453050 114.8835100  24.6518790  96.8842180
 115.7146680  25.6830260  97.6175620 107.1433490  16.1983370  99.3709670
 106.9636330  15.3009120  99.6512430 106.7413570  16.7455240 100.0456620
 115.9831990  18.3999230  97.2721980 116.3596810  17.5271110  97.1595650
 115.8851500  18.7357930  96.3812420 110.1137000  16.7724860  92.7339420
 110.2203750  17.6728590  93.0408180 109.2029360  16.7242830  92.4434070
 119.7656110  15.8949670  94.2050320 120.5865730  15.4046240  94.2475800
 119.7990190  16.4847330  94.9582160 107.7620160  18.6943870  97.9792010
 108.4430270  18.9582240  98.5979410 107.4468210  17.8544740  98.3130020
 111.9544730  19.7411230  97.0664600 112.4622950  20.2392200  97.7069620
 112.4857970  18.9646430  96.8903960 124.0555660  17.9116420 100.7693950
 123.3507830  18.2998130 100.2509060 124.3213580  18.6066710 101.3714880
 110.2380830  14.3809790 101.3328020 110.2399270  14.8982180 100.5273920
 109.4085140  13.9039970 101.3097950 116.6251920  24.4929100  92.8317920
 116.0069190  24.9578550  92.2680640 117.1375170  25.1856580  93.2487430
 111.4883680  24.0204970  99.5101520 111.1553060  24.6473890 100.1522590
 111.6650360  24.5466850  98.7303190 120.0017590  17.8350050  96.9777860
 119.2973160  18.1234940  97.5580970 120.3629750  18.6450160  96.6177420
 109.9196160  16.0919750  99.3398470 110.2612970  16.9361800  99.0452340
 108.9811970  16.2403490  99.4563810 110.7002780  25.9885770 101.3250700
 111.3176780  26.6636850 101.0435150 109.8395900  26.3973750 101.2338200
 121.6180370  27.4525180  99.2405340 120.9343890  28.1224290  99.2322010
 122.1574660  27.6505830  98.4750200 123.0704510  17.2804840  97.3687070
 122.1229420  17.3143820  97.5002500 123.3954500  18.0943790  97.7536430
 113.6024050  13.5802020  95.6643060 113.9099030  13.0248910  94.9478560
 112.6724750  13.7146480  95.4816050 119.1539110  29.2969310  97.9550520
 119.1666270  28.8931600  97.0872780 118.6014330  30.0716600  97.8511950
 120.4484530  26.0185530  93.0440690 120.3380860  25.0759860  93.1690110
 120.4452780  26.3801170  93.9303450 118.5524550  24.1999150  99.2833130
 118.9693340  23.9859260  98.4486590 119.2764370  24.4571940  99.8541750
 115.9904810  21.6450850  92.4003180 115.0634090  21.5788230  92.6291650
 116.1429630  22.5830980  92.2858420 115.9773890  17.9167850  89.3970340
 115.0377560  18.0781810  89.4822800 116.2957150  18.6353530  88.8506330
 122.4986650  22.5986370  99.3749370 121.6705280  22.6679460  98.8999500
 123.0937130  23.1840680  98.9065200 120.0202100  23.2071150  92.9038430
 119.4014520  22.8690700  92.2564730 120.0026550  22.5630910  93.6117620
 119.4628660  19.3855690 100.3204240 119.0499840  20.2109400 100.5744230
 118.7304610  18.8000730 100.1280600 111.5961450  22.1715590  95.1822910
 111.1918450  21.4592840  94.6868810 111.6824570  21.8268830  96.0710950
 112.0643150  25.8583150  97.3462120 111.7671440  25.2528620  96.6669900
 113.0142970  25.8960460  97.2351480 110.3090070  18.9458800  98.9621950
 110.8604660  19.0554140  98.1875200 110.8233580  19.3196400  99.6777180
 120.1528760  29.4315020 101.0085220 119.6759320  30.2387210 100.8157830
 119.4690550  28.7793350 101.1611430 111.1561580  25.5964840 103.9969920
 110.2590110  25.8204810 104.2443320 111.1814450  25.7199780 103.0481320
 118.1966800  22.4457960  89.9111180 118.6360080  21.6080390  89.7649000
 118.9095220  23.0787360  89.9975320 109.9832800  22.4678160 102.5727290
 109.8440570  23.3400960 102.9414690 109.1014160  22.1250970 102.4275230
 121.7783940  13.7000770  88.2252220 121.4656600  13.7927600  89.1251290
 122.5396410  14.2781800  88.1749650 108.2966080  21.0660570  92.6829560
 108.1763680  21.7922660  92.0710830 107.9866970  20.2963480  92.2057470
 123.7327970  29.1926960 106.0776610 124.2087690  29.6709850 106.7565690
 124.3535130  29.1244450 105.3522110 105.9351450  24.2375710  98.4898200
 106.0131870  24.3724480  97.5453920 106.5493130  23.5291600  98.6826320
 123.1361220  26.3839810 103.2376620 123.2624280  26.1451690 102.3193800
 123.1782600  25.5524350 103.7098700 116.9977960  30.0867810 101.8071430
 117.5122630  29.9975820 102.6093860 116.1547040  30.4327510 102.0999340
 122.9885230  18.4372270 104.2026360 122.3729500  18.9451940 103.6741820
 122.6681650  17.5370600 104.1452300 105.9910970  25.2789880 101.0292660
 106.1542010  24.8095240 100.2112030 106.4563420  24.7713440 101.6941500
 110.7629740  14.4095640  96.0653230 110.3197890  15.1905180  95.7337750
 111.3214730  14.7325530  96.7724170 115.0499550  17.2764160 101.6688550
 114.5878920  17.4847180 102.4808490 114.6477660  16.4623510 101.3659220
 120.0504060  18.4973110 102.7985210 119.1997650  18.1978860 103.1194280
 119.8905850  18.7415120 101.8869030 117.1453770  19.9974860 104.8984000
 117.4707180  19.1638610 104.5586230 117.9334100  20.5203380 105.0462330
 113.8788560  14.0306340  90.9459060 113.2542740  14.0266210  91.6712370
 113.7918680  13.1637300  90.5495030 112.8005640  14.9542970  97.9242830
 113.0977970  15.8605800  97.8434850 113.3491200  14.4661750  97.3102400
 110.5543960  19.5329210  93.7934480 110.3284880  19.3166380  94.6981100
 109.7736490  19.9657670  93.4480450 117.7841720  19.5392580  92.3925130
 117.1850610  20.2628380  92.2088750 118.3321330  19.4769360  91.6101580
 112.9943170  20.4314790 104.4594750 112.8986770  19.4909520 104.3095150
 113.8375150  20.6529860 104.0642820 116.3906590  18.1756120  94.4228410
 116.7836160  18.4928320  93.6097100 116.7523440  17.2968000  94.5372930
 108.1253710  16.8428460 102.6128530 107.7317100  17.6903670 102.8201310
 107.4372110  16.2054830 102.8037170 114.6998760  16.9263430 105.6825270
 114.0097080  16.7335630 106.3171360 115.4431060  17.2098070 106.2149570
 105.4270760  14.7656920  96.6458610 105.1383810  15.3359780  97.3583590
 106.1716520  14.2861370  97.0089840 105.6140990  18.7077040  87.8561330
 105.5315660  19.6507800  87.9976320 105.2624050  18.5651950  86.9773680
 116.9761730  20.7661870  98.5179190 116.2442850  21.2748680  98.8669290
 116.5786070  19.9491850  98.2167970 113.4139120  17.4416070  96.9231680
 113.4175180  17.0006020  96.0736220 114.3090240  17.7633400  97.0303500
 109.2641500  17.3242560  95.8825890 108.9241550  17.8017790  96.6392940
 108.5018820  16.8707680  95.5226990 113.4759270  18.4428150  89.9138440
 113.5972090  18.4014630  90.8624260 113.0907780  19.3052300  89.7585170
 117.4387640  16.2195550  97.9302130 117.4560380  16.6704200  98.7743980
 117.1903220  15.3201190  98.1435570 112.4880770  20.7529290  89.3121740
 111.9197670  20.3047540  88.6857650 113.1969770  21.1122070  88.7786890
 120.8658390  13.6327730 103.7688510 121.1904160  12.9017390 104.2946490
 120.9014900  13.3141370 102.8669500 107.5649950  24.6541310 103.1888470
 107.1804740  24.0134980 103.7871430 107.8762140  25.3577430 103.7583200
 113.7147090  21.5017850  98.6697090 114.0817220  21.0276420  99.4158430
 113.5252150  22.3759420  99.0105430 106.5787580  16.2461540  94.7990560
 106.2934500  15.8817210  95.6369180 106.5166440  15.5142000  94.1853700
 111.5046460  20.5426490 100.9881300 111.2003530  21.4218470 101.2131660
 112.4592920  20.6026280 101.0238740 120.7916230  23.7452840  97.3774540
 121.5115350  24.2408130  96.9870650 120.5898050  23.0670730  96.7328410
 116.2526170  15.1390800  91.5203930 115.4390780  14.6403970  91.4449240
 116.0588120  15.9789050  91.1040280 116.1735030  23.8161900 103.2643540
 116.1072340  22.8957570 103.0101130 115.5440170  23.9137340 103.9788180
 118.9674560  19.5110450  89.8166090 119.8554180  19.8227680  89.6417430
 118.9379650  18.6382700  89.4246670 114.9635150  25.6834140  90.4954260
 115.3050850  26.4276370  89.9997580 114.1347860  25.9965260  90.8579090
 107.5610190  21.3829230 102.1352660 107.2025130  22.0483080 102.7226000
 107.2664750  20.5512780 102.5065280 110.7623310  21.8413470 105.0192210
 110.4623450  21.9870650 104.1220030 111.5334550  21.2818760 104.9265600
 116.1051760  26.6382470 103.0147340 116.1196300  25.7063430 102.7966250
 115.3976860  26.7242230 103.6537110 121.2388830  20.8222290  89.2845950
 121.1552550  21.2536510  88.4342390 121.9583020  21.2820640  89.7172770
 122.3162970  23.2789810 102.3615920 121.5911160  23.8718590 102.1645310
 122.8438430  23.2713350 101.5629290 122.2676080  27.6764550  92.0128080
 121.6252240  27.0220170  92.2871800 121.8806740  28.0819640  91.2368750
 117.8462560  25.0049980  95.8599770 118.1986380  24.4078110  95.2001140
 116.9624890  24.6794210  96.0308020 106.0718240  21.3820490  88.7587260
 106.9413090  21.6645290  89.0423180 105.5808560  22.1956360  88.6436070
 113.2353050  22.7693700  92.8795540 113.6915830  23.5798950  93.1055730
 112.8841260  22.4516840  93.7114030 115.5385660  28.2800040 100.1087840
 116.1827880  28.4859420 100.7861260 115.9015100  27.5188440  99.6558690
 109.1364830  13.1131350  93.3518060 109.0079460  13.1049250  94.3002980
 108.3126850  13.4514440  93.0009070 116.8117740  26.2832390  98.8265290
 117.4539970  25.5825550  98.9397460 117.3367090  27.0630830  98.6462180
 120.6573460  26.5681010  88.5504430 120.4311040  25.8511450  89.1429070
 120.2669660  26.3193450  87.7126180 118.5855360  27.0827290 102.0301350
 118.9211600  27.6693980 102.7079270 117.6655700  26.9520000 102.2599140
 106.1358760  14.8722470 102.8124760 105.4217280  15.0719390 103.4177370
 106.5553800  14.0962040 103.1839560 120.2389710  24.4852950  90.2118590
 119.9511410  24.9465640  90.9996470 121.0341880  24.0250720  90.4802810
 106.4231350  28.8602730 103.7991290 106.5322470  27.9197470 103.6586680
 105.7711910  29.1257480 103.1505020 114.4143940  27.1318620 105.1989410
 114.0940810  26.4127860 105.7435100 113.7402300  27.8073690 105.2725470
 117.6297540  17.3644780 100.5626210 117.9978360  16.5439990 100.8905780
 116.7695740  17.4246670 100.9781860 120.9959570  16.3201720  91.3713770
 120.3672730  16.4247390  90.6572000 120.5011490  16.5398500  92.1607650
 115.4417710  28.0407310  88.8047750 115.5429690  27.8371300  87.8749730
 114.5419450  27.7865590  89.0095530 112.9643600  18.5987670  92.7871650
 112.2559750  19.0674010  93.2285260 113.2488080  17.9409680  93.4216840
 114.5899530  20.0184370 100.7864180 115.0884780  20.4930190 101.4516030
 114.7322480  19.0947890 100.9934210 116.9959030  15.3238330  94.2267440
 116.8726810  15.3424460  93.2776950 117.9443590  15.3717270  94.3465840
 111.1678620  16.9072750  90.1622360 112.0169150  17.3442900  90.0962550
 110.8009890  17.2193010  90.9894420 121.7966390  16.2352330 101.6292570
 121.2939990  16.9757730 101.9686380 122.6123050  16.6236330 101.3129360
 120.0888400  21.4785510  95.0753930 119.1478540  21.4935740  95.2501620
 120.4032470  20.6921470  95.5214230 108.7616800  20.5930180  89.3190780
 108.8420390  19.6457690  89.4308180 109.6536550  20.9237060  89.4251440
 122.0913980  28.6494360  96.7508190 122.2161400  29.4725530  97.2232000
 122.9579540  28.4385090  96.4032340 117.4054420  26.0351510 105.5586310
 116.7992580  26.0583110 104.8182060 117.1008530  25.3034550 106.0953560
 118.8354790  29.7631800 104.1695720 119.7876540  29.6789820 104.1195960
 118.6883010  30.4273510 104.8429510 106.2887600  22.4145100 104.5546950
 106.7926620  21.8352380 105.1263180 105.5495020  22.6985330 105.0923320
 113.1911220  25.1359290  88.1093240 113.0861860  24.5211640  88.8354620
 113.0235440  24.6125180  87.3256250 113.3425540  23.8216090 104.0882470
 112.5771210  24.3901090 104.0037140 113.5241500  23.5292300 103.1950700
 116.4313950  24.1979320  88.7135230 115.8824050  24.6448620  89.3577970
 117.0533210  23.6928570  89.2372900 120.4848890  25.5521420 104.6457490
 121.2258360  25.8897180 104.1424950 119.7221570  25.7213480 104.0927260
 108.3210680  20.5574690 105.4497020 108.3616020  20.2588560 106.3582250
 109.1756180  20.9582300 105.2904540 110.2616490  19.1366790 103.4171510
 109.7312950  18.6457740 102.7894850 110.9304560  19.5650990 102.8829440
 114.6116710  22.1807850  87.8577630 115.1322370  21.4656870  87.4918780
 115.2585110  22.8193720  88.1578140 119.1594550  23.6036250 103.1812700
 119.5735570  23.7581330 104.0303120 118.2245550  23.7291470 103.3438480
 119.6316720  20.9432410 105.1851850 120.2137490  20.1884730 105.0972330
 119.8078490  21.4739850 104.4083330 110.7488790  16.1029160 103.4968800
 110.6545660  15.4849910 102.7719670 110.1686180  16.8295450 103.2698710
 113.5150230  14.6602400 100.5296190 113.0667530  14.6826660  99.6841740
 112.8815430  14.2621420 101.1266490 113.9209780  23.5556730 101.1508630
 114.3397890  24.3989460 100.9784870 113.0018410  23.6928770 100.9215410
 116.2573680  21.2872910 102.5346470 116.3769890  20.6914050 103.2741310
 117.1167680  21.3242600 102.1147770 118.5961580  21.8410100 101.1108980
 118.0696800  22.3652720 100.5074120 118.9392920  22.4737490 101.7418710
 110.9947970  19.2303470  87.5558690 110.7937030  18.3670830  87.9172030
 110.8240020  19.1436830  86.6180290 113.0242450  17.8294260 103.7922290
 113.6142140  17.5210110 104.4800110 112.2062690  17.3574010 103.9482190
 117.8435880  17.4460070 104.0255310 117.1551400  16.7841610 103.9605300
 118.5641900  16.9998340 104.4703770 118.4736280  14.0411700  90.0845570
 118.7538570  13.1979600  90.4404990 117.7002010  14.2734810  90.5984320
 109.7930770  16.3304090  87.5436570 110.0956670  16.3371520  86.6355720
 110.5325360  15.9801950  88.0404230 113.0115700  15.2738710  88.5292770
 112.6637700  14.5962700  87.9495220 113.2128470  14.8128220  89.3436160
 106.5196910  29.2906130  98.5668260 106.0827900  29.4706930  99.3992410
 107.0874590  30.0480750  98.4249980 122.1559090  28.7923130 102.8545570
 121.5561080  28.8515690 102.1109490 122.2852990  27.8528110 102.9842420
 123.3960540  26.5340950  88.1915280 122.5653500  26.6017600  88.6622510
 123.5732370  27.4245070  87.8882140 122.8517000  23.2788430  90.6949480
 123.6135910  23.8485080  90.8009170 122.8671370  22.7115630  91.4657790
 106.3521340  21.8026360  94.9257140 105.6970180  21.5338000  94.2816840
 107.1899290  21.6930840  94.4759120 123.8576970  24.1338530  95.5391410
 124.2285800  23.3505850  95.1327380 124.4978900  24.8227630  95.3608710
 120.8410730  25.5175110 100.9521730 120.0270570  25.9472270 101.2147520
 121.2484930  26.1293520 100.3390780 122.9036170  23.5722800  87.8522000
 123.1785010  24.4801680  87.7241220 122.7146910  23.5085330  88.7883990
 119.3011780  16.5967650  89.1475630 119.7196660  16.4098630  88.3072290
 118.9947840  15.7446700  89.4578560 122.8001510  21.5091790  92.8451430
 122.4245110  20.7419720  92.4132720 122.0704630  21.8914490  93.3326360
 107.3897270  22.1878930  99.4660480 107.7570310  22.1006330 100.3456500
 106.8208090  21.4245480  99.3667340 122.1901130  20.6563310 102.4790950
 121.9587220  20.4276060 101.5788900 122.4505680  21.5762860 102.4335840
 106.9413270  19.0988020 103.3718900 106.0469320  19.0654780 103.7112610
 107.4810820  19.2974810 104.1370150 120.6289200  15.8819740 105.2570650
 121.5059380  15.8903140 105.6404650 120.6410040  15.1450580 104.6463000
 105.5659420  19.0125290  90.8682470 104.6623500  19.2755490  90.6934130
 106.0500040  19.2836460  90.0882430 122.0752470  19.7349280  96.1458670
 122.5989950  19.2411930  95.5148840 122.6611890  19.8699640  96.8906240
 122.2542190  19.8189150  99.6678220 121.3044900  19.7852690  99.7823210
 122.4355200  20.7289260  99.4327990 108.1086630  18.0690830  88.7776850
 108.8178330  17.6474050  88.2924130 107.3926570  18.1366060  88.1460200
 107.7560790  14.1230160  87.8179500 108.4788920  14.6639100  88.1360720
 108.0285310  13.8493580  86.9421040 121.5652440  18.9922630  92.0851080
 122.0611560  18.7593500  92.8699960 121.3668510  18.1534470  91.6688720
 107.4452980  13.3736350  97.7202120 108.0929170  12.8233730  97.2797280
 107.8654820  13.6279500  98.5417930 122.9939600  17.6283580  94.6188760
 122.8838880  17.4739620  95.5571030 123.7547190  17.1004520  94.3764170
 121.3405320  13.5677710 101.0771760 121.9777540  14.1811850 101.4430950
 121.4880210  13.6038370 100.1320990 123.8829870  15.4591500  87.8594900
 124.8079180  15.3272680  87.6513190 123.8605660  15.5384320  88.8131350
 123.9568360  16.2302160  90.4851610 123.1619860  16.1647280  91.0144520
 124.1611640  17.1652800  90.4736960 107.1984980  13.5292020 100.4627440
 106.8499800  13.9855840 101.2285620 106.8672680  12.6349150 100.5449870
 108.8049350  26.7011620 104.6280630 108.7618980  26.3304530 105.5095090
 108.9360360  27.6389190 104.7682450 112.5055380  28.2571210 100.2290350
 112.2646740  28.5245770  99.3420870 113.4458020  28.4276940 100.2841210
 114.7109800  14.7203900 103.9846860 114.6498690  15.3125730 104.7342270
 115.6510180  14.6129860 103.8397120 117.3484360  14.3773960 103.6239150
 117.9624770  14.6953250 102.9620230 117.8933920  13.8922550 104.2435010
 123.7659540  30.2765590 101.0300990 123.2717820  30.6734460 100.3128120
 123.1572830  29.6514800 101.4238270 107.8705620  13.0568220 103.7378210
 108.4188610  12.8756270 102.9744320 107.9360930  12.2662330 104.2734520
 118.0892400  12.9406100  99.9508440 117.2152240  13.2741210  99.7481370
 117.9803150  12.4679280 100.7760310 118.9964380  15.1476970 101.3350160
 118.6677740  14.3328730 100.9551890 119.9446680  15.1046780 101.2115850
 121.4498990  30.9189010  98.3087730 120.9901960  31.6704820  97.9345750
 120.8211450  30.1995480  98.2502530 108.2749610  27.0132250 100.6986450
 107.5483670  26.3937540 100.6312400 108.3358760  27.4072860  99.8284530
 114.6190210  30.1185740  98.3104840 114.9068020  29.8640040  97.4337850
 115.1313430  29.5663100  98.9010410 115.8367220  13.8575940  98.8901350
 115.0539010  14.3321440  99.1698110 115.5430150  12.9530770  98.7814530
 120.3888290  14.5599040  96.9350440 120.8296380  14.5044140  96.0872040
 120.1195880  15.4757050  97.0060620 122.2526860  14.1914280  94.9459260
 122.1915260  13.2475500  94.7990280 123.0318890  14.2994370  95.4912720
 106.5579610  30.3306640  93.9083210 106.3901650  29.6977320  94.6065100
 105.6914120  30.5366040  93.5577400 107.1807630  14.1623420  91.4115070
 107.9386990  14.2752300  90.8379100 106.7184800  14.9992620  91.3658500
 113.7221440  16.2762690  94.4017380 112.9095950  15.9019580  94.0613260
 114.2263080  15.5207770  94.7038570 118.2246420  12.9405140  95.6400450
 118.8275790  13.5125350  96.1148970 117.4839410  13.5044580  95.4174350
 121.3681020  13.3426700  90.9140730 121.5631650  14.2410150  91.1808160
 120.5810890  13.1113780  91.4073680 109.5532780  14.6887470  89.9517040
 110.0825540  13.9017270  89.8224990 110.1861100  15.3678660  90.1852570
 111.7470620  14.4262610  93.0062430 111.1173360  13.7249920  93.1732560
 111.2075760  15.1866740  92.7895590 111.8726180  13.7046590 105.4414920
 111.5910450  14.2080190 104.6775740 112.2545880  12.9068340 105.0757050
 118.4741640  13.1200170 106.0195390 118.3607090  13.4394780 106.9146910
 119.2911380  13.5212680 105.7232670 121.2540130  30.2671700 105.5014080
 122.0465450  29.7720930 105.2940040 121.5473280  30.9461840 106.1089690
 117.3799790  21.1392640  76.3830130 117.2993840  20.2247250  76.1121840
 116.9664210  21.6359710  75.6769840 115.5117830  22.9171660  78.2639400
 114.7359930  22.4372100  78.5537970 116.1630760  22.2377310  78.0895560
 119.5325260  27.3231850  77.0438530 119.0706790  26.5519090  77.3725700
 120.3450810  27.3497920  77.5490980 107.9375610  18.1893360  72.9257550
 107.0492310  18.5309330  72.8237430 108.2216800  17.9893680  72.0338380
 114.9526820  25.5928850  78.2709560 114.8835100  24.6518790  78.1098690
 115.7146680  25.6830260  78.8432130 107.1433490  16.1983370  80.5966180
 106.9636330  15.3009120  80.8768940 106.7413570  16.7455240  81.2713130
 115.9831990  18.3999230  78.4978490 116.3596810  17.5271110  78.3852160
 115.8851500  18.7357930  77.6068930 110.1137000  16.7724860  73.9595930
 110.2203750  17.6728590  74.2664690 109.2029360  16.7242830  73.6690580
 119.7656110  15.8949670  75.4306830 120.5865730  15.4046240  75.4732310
 119.7990190  16.4847330  76.1838670 107.7620160  18.6943870  79.2048520
 108.4430270  18.9582240  79.8235920 107.4468210  17.8544740  79.5386530
 124.0555660  17.9116420  81.9950460 123.3507830  18.2998130  81.4765570
 124.3213580  18.6066710  82.5971390 110.2380830  14.3809790  82.5584530
 110.2399270  14.8982180  81.7530430 109.4085140  13.9039970  82.5354460
 116.6251920  24.4929100  74.0574430 116.0069190  24.9578550  73.4937150
 117.1375170  25.1856580  74.4743940 111.4883680  24.0204970  80.7358030
 111.1553060  24.6473890  81.3779100 111.6650360  24.5466850  79.9559700
 120.0017590  17.8350050  78.2034370 119.2973160  18.1234940  78.7837480
 120.3629750  18.6450160  77.8433930 109.9196160  16.0919750  80.5654980
 110.2612970  16.9361800  80.2708850 108.9811970  16.2403490  80.6820320
 110.7002780  25.9885770  82.5507210 111.3176780  26.6636850  82.2691660
 109.8395900  26.3973750  82.4594710 121.6180370  27.4525180  80.4661850
 120.9343890  28.1224290  80.4578520 122.1574660  27.6505830  79.7006710
 123.0704510  17.2804840  78.5943580 122.1229420  17.3143820  78.7259010
 123.3954500  18.0943790  78.9792940 113.6024050  13.5802020  76.8899570
 113.9099030  13.0248910  76.1735070 112.6724750  13.7146480  76.7072560
 119.1539110  29.2969310  79.1807030 119.1666270  28.8931600  78.3129290
 118.6014330  30.0716600  79.0768460 120.4484530  26.0185530  74.2697200
 120.3380860  25.0759860  74.3946620 120.4452780  26.3801170  75.1559960
 118.5524550  24.1999150  80.5089640 118.9693340  23.9859260  79.6743100
 119.2764370  24.4571940  81.0798260 115.9904810  21.6450850  73.6259690
 115.0634090  21.5788230  73.8548160 116.1429630  22.5830980  73.5114930
 115.9773890  17.9167850  70.6226850 115.0377560  18.0781810  70.7079310
 116.2957150  18.6353530  70.0762840 122.4986650  22.5986370  80.6005880
 121.6705280  22.6679460  80.1256010 123.0937130  23.1840680  80.1321710
 120.0202100  23.2071150  74.1294940 119.4014520  22.8690700  73.4821240
 120.0026550  22.5630910  74.8374130 119.4628660  19.3855690  81.5460750
 119.0499840  20.2109400  81.8000740 118.7304610  18.8000730  81.3537110
 110.3090070  18.9458800  80.1878460 110.8604660  19.0554140  79.4131710
 110.8233580  19.3196400  80.9033690 120.1528760  29.4315020  82.2341730
 119.6759320  30.2387210  82.0414340 119.4690550  28.7793350  82.3867940
 111.1561580  25.5964840  85.2226430 110.2590110  25.8204810  85.4699830
 111.1814450  25.7199780  84.2737830 118.1966800  22.4457960  71.1367690
 118.6360080  21.6080390  70.9905510 118.9095220  23.0787360  71.2231830
 109.9832800  22.4678160  83.7983800 109.8440570  23.3400960  84.1671200
 109.1014160  22.1250970  83.6531740 116.3062180  27.3854030  75.1048930
 116.7458090  28.1278360  74.6904320 116.2449070  27.6280600  76.0287890
 111.7813150  28.4099860  86.0068950 111.7528580  28.8142810  85.1397380
 111.6178120  27.4810220  85.8440550 121.7783940  13.7000770  69.4508730
 121.4656600  13.7927600  70.3507800 122.5396410  14.2781800  69.4006160
 108.2966080  21.0660570  73.9086070 108.1763680  21.7922660  73.2967340
 107.9866970  20.2963480  73.4313980 123.7327970  29.1926960  87.3033120
 124.2087690  29.6709850  87.9822200 124.3535130  29.1244450  86.5778620
 123.1361220  26.3839810  84.4633130 123.2624280  26.1451690  83.5450310
 123.1782600  25.5524350  84.9355210 116.9977960  30.0867810  83.0327940
 117.5122630  29.9975820  83.8350370 116.1547040  30.4327510  83.3255850
 118.9732360  30.3723150  72.4611940 118.8133500  30.0826090  73.3593770
 118.8079070  29.5963280  71.9257170 111.4520740  30.1521680  74.2383560
 111.2763220  29.2357220  74.0251360 110.5976480  30.5108970  74.4781360
 118.6758490  27.8810710  71.0209940 117.9823650  27.8788000  70.3612220
 119.4181350  27.4570030  70.5904110 118.2408420  29.5073420  75.0958430
 118.6965370  28.7262800  75.4097050 118.5800940  30.2180240  75.6399610
 122.9885230  18.4372270  85.4282870 122.3729500  18.9451940  84.8998330
 122.6681650  17.5370600  85.3708810 110.7629740  14.4095640  77.2909740
 110.3197890  15.1905180  76.9594260 111.3214730  14.7325530  77.9980680
 115.0499550  17.2764160  82.8945060 114.5878920  17.4847180  83.7065000
 114.6477660  16.4623510  82.5915730 120.0504060  18.4973110  84.0241720
 119.1997650  18.1978860  84.3450790 119.8905850  18.7415120  83.1125540
 117.1453770  19.9974860  86.1240510 117.4707180  19.1638610  85.7842740
 117.9334100  20.5203380  86.2718840 113.8788560  14.0306340  72.1715570
 113.2542740  14.0266210  72.8968880 113.7918680  13.1637300  71.7751540
 112.8005640  14.9542970  79.1499340 113.0977970  15.8605800  79.0691360
 113.3491200  14.4661750  78.5358910 110.5543960  19.5329210  75.0190990
 110.3284880  19.3166380  75.9237610 109.7736490  19.9657670  74.6736960
 117.7841720  19.5392580  73.6181640 117.1850610  20.2628380  73.4345260
 118.3321330  19.4769360  72.8358090 112.9943170  20.4314790  85.6851260
 112.8986770  19.4909520  85.5351660 113.8375150  20.6529860  85.2899330
 116.3906590  18.1756120  75.6484920 116.7836160  18.4928320  74.8353610
 116.7523440  17.2968000  75.7629440 108.1253710  16.8428460  83.8385040
 107.7317100  17.6903670  84.0457820 107.4372110  16.2054830  84.0293680
 114.6998760  16.9263430  86.9081780 114.0097080  16.7335630  87.5427870
 115.4431060  17.2098070  87.4406080 105.4270760  14.7656920  77.8715120
 105.1383810  15.3359780  78.5840100 106.1716520  14.2861370  78.2346350
 105.6140990  18.7077040  69.0817840 105.5315660  19.6507800  69.2232830
 105.2624050  18.5651950  68.2030190 116.9761730  20.7661870  79.7435700
 116.2442850  21.2748680  80.0925800 116.5786070  19.9491850  79.4424480
 113.4139120  17.4416070  78.1488190 113.4175180  17.0006020  77.2992730
 114.3090240  17.7633400  78.2560010 109.2641500  17.3242560  77.1082400
 108.9241550  17.8017790  77.8649450 108.5018820  16.8707680  76.7483500
 113.4759270  18.4428150  71.1394950 113.5972090  18.4014630  72.0880770
 113.0907780  19.3052300  70.9841680 117.4387640  16.2195550  79.1558640
 117.4560380  16.6704200  80.0000490 117.1903220  15.3201190  79.3692080
 112.4880770  20.7529290  70.5378250 111.9197670  20.3047540  69.9114160
 113.1969770  21.1122070  70.0043400 120.8658390  13.6327730  84.9945020
 121.1904160  12.9017390  85.5203000 120.9014900  13.3141370  84.0926010
 107.5649950  24.6541310  84.4144980 107.1804740  24.0134980  85.0127940
 107.8762140  25.3577430  84.9839710 113.7147090  21.5017850  79.8953600
 114.0817220  21.0276420  80.6414940 113.5252150  22.3759420  80.2361940
 106.5787580  16.2461540  76.0247070 106.2934500  15.8817210  76.8625690
 106.5166440  15.5142000  75.4110210 111.5046460  20.5426490  82.2137810
 111.2003530  21.4218470  82.4388170 112.4592920  20.6026280  82.2495250
 120.7916230  23.7452840  78.6031050 121.5115350  24.2408130  78.2127160
 120.5898050  23.0670730  77.9584920 116.2526170  15.1390800  72.7460440
 115.4390780  14.6403970  72.6705750 116.0588120  15.9789050  72.3296790
 116.1735030  23.8161900  84.4900050 116.1072340  22.8957570  84.2357640
 115.5440170  23.9137340  85.2044690 118.9674560  19.5110450  71.0422600
 119.8554180  19.8227680  70.8673940 118.9379650  18.6382700  70.6503180
 114.9635150  25.6834140  71.7210770 115.3050850  26.4276370  71.2254090
 114.1347860  25.9965260  72.0835600 107.5610190  21.3829230  83.3609170
 107.2025130  22.0483080  83.9482510 107.2664750  20.5512780  83.7321790
 110.7623310  21.8413470  86.2448720 110.4623450  21.9870650  85.3476540
 111.5334550  21.2818760  86.1522110 116.1051760  26.6382470  84.2403850
 116.1196300  25.7063430  84.0222760 115.3976860  26.7242230  84.8793620
 121.2388830  20.8222290  70.5102460 121.1552550  21.2536510  69.6598900
 121.9583020  21.2820640  70.9429280 122.3162970  23.2789810  83.5872430
 121.5911160  23.8718590  83.3901820 122.8438430  23.2713350  82.7885800
 122.2676080  27.6764550  73.2384590 121.6252240  27.0220170  73.5128310
 121.8806740  28.0819640  72.4625260 117.8462560  25.0049980  77.0856280
 118.1986380  24.4078110  76.4257650 116.9624890  24.6794210  77.2564530
 106.0718240  21.3820490  69.9843770 106.9413090  21.6645290  70.2679690
 105.5808560  22.1956360  69.8692580 109.1364830  13.1131350  74.5774570
 109.0079460  13.1049250  75.5259490 108.3126850  13.4514440  74.2265580
 116.8117740  26.2832390  80.0521800 117.4539970  25.5825550  80.1653970
 117.3367090  27.0630830  79.8718690 120.6573460  26.5681010  69.7760940
 120.4311040  25.8511450  70.3685580 120.2669660  26.3193450  68.9382690
 118.5855360  27.0827290  83.2557860 118.9211600  27.6693980  83.9335780
 117.6655700  26.9520000  83.4855650 106.1358760  14.8722470  84.0381270
 105.4217280  15.0719390  84.6433880 106.5553800  14.0962040  84.4096070
 120.2389710  24.4852950  71.4375100 119.9511410  24.9465640  72.2252980
 121.0341880  24.0250720  71.7059320 106.4231350  28.8602730  85.0247800
 106.5322470  27.9197470  84.8843190 105.7711910  29.1257480  84.3761530
 114.4143940  27.1318620  86.4245920 114.0940810  26.4127860  86.9691610
 113.7402300  27.8073690  86.4981980 112.4558110  27.9779070  71.3679070
 112.4468210  28.7108760  70.7523580 111.5356470  27.7310650  71.4606030
 117.6297540  17.3644780  81.7882720 117.9978360  16.5439990  82.1162290
 116.7695740  17.4246670  82.2038370 120.9959570  16.3201720  72.5970280
 120.3672730  16.4247390  71.8828510 120.5011490  16.5398500  73.3864160
 115.4417710  28.0407310  70.0304260 115.5429690  27.8371300  69.1006240
 114.5419450  27.7865590  70.2352040 112.9643600  18.5987670  74.0128160
 112.2559750  19.0674010  74.4541770 113.2488080  17.9409680  74.6473350
 114.5899530  20.0184370  82.0120690 115.0884780  20.4930190  82.6772540
 114.7322480  19.0947890  82.2190720 116.9959030  15.3238330  75.4523950
 116.8726810  15.3424460  74.5033460 117.9443590  15.3717270  75.5722350
 111.1678620  16.9072750  71.3878870 112.0169150  17.3442900  71.3219060
 110.8009890  17.2193010  72.2150930 121.7966390  16.2352330  82.8549080
 121.2939990  16.9757730  83.1942890 122.6123050  16.6236330  82.5385870
 120.0888400  21.4785510  76.3010440 119.1478540  21.4935740  76.4758130
 120.4032470  20.6921470  76.7470740 110.0670040  23.1605110  69.8614400
 110.8333310  23.0486470  70.4239830 110.1444730  22.4643080  69.2091170
 108.7616800  20.5930180  70.5447290 108.8420390  19.6457690  70.6564690
 109.6536550  20.9237060  70.6507950 122.0913980  28.6494360  77.9764700
 122.2161400  29.4725530  78.4488510 122.9579540  28.4385090  77.6288850
 112.6733820  29.9155880  69.4707400 113.4662430  30.2044710  69.0189190
 112.1538170  29.4848050  68.7919880 117.4054420  26.0351510  86.7842820
 116.7992580  26.0583110  86.0438570 117.1008530  25.3034550  87.3210070
 118.8354790  29.7631800  85.3952230 119.7876540  29.6789820  85.3452470
 118.6883010  30.4273510  86.0686020 121.7263990  29.1426010  70.8944140
 121.4405500  28.7291150  70.0798320 121.5283540  30.0713720  70.7744660
 106.2887600  22.4145100  85.7803460 106.7926620  21.8352380  86.3519690
 105.5495020  22.6985330  86.3179830 113.1911220  25.1359290  69.3349750
 113.0861860  24.5211640  70.0611130 113.0235440  24.6125180  68.5512760
 113.3425540  23.8216090  85.3138980 112.5771210  24.3901090  85.2293650
 113.5241500  23.5292300  84.4207210 116.4313950  24.1979320  69.9391740
 115.8824050  24.6448620  70.5834480 117.0533210  23.6928570  70.4629410
 120.4848890  25.5521420  85.8714000 121.2258360  25.8897180  85.3681460
 119.7221570  25.7213480  85.3183770 108.3210680  20.5574690  86.6753530
 108.3616020  20.2588560  87.5838760 109.1756180  20.9582300  86.5161050
 112.0989070  23.1570240  71.8357040 112.5205490  22.9910110  72.6788430
 112.2239910  22.3470470  71.3412180 110.2616490  19.1366790  84.6428020
 109.7312950  18.6457740  84.0151360 110.9304560  19.5650990  84.1085950
 114.6116710  22.1807850  69.0834140 115.1322370  21.4656870  68.7175290
 115.2585110  22.8193720  69.3834650 119.1594550  23.6036250  84.4069210
 119.5735570  23.7581330  85.2559630 118.2245550  23.7291470  84.5694990
 119.6316720  20.9432410  86.4108360 120.2137490  20.1884730  86.3228840
 119.8078490  21.4739850  85.6339840 110.7488790  16.1029160  84.7225310
 110.6545660  15.4849910  83.9976180 110.1686180  16.8295450  84.4955220
 113.5150230  14.6602400  81.7552700 113.0667530  14.6826660  80.9098250
 112.8815430  14.2621420  82.3523000 113.9209780  23.5556730  82.3765140
 114.3397890  24.3989460  82.2041380 113.0018410  23.6928770  82.1471920
 116.2573680  21.2872910  83.7602980 116.3769890  20.6914050  84.4997820
 117.1167680  21.3242600  83.3404280 118.5961580  21.8410100  82.3365490
 118.0696800  22.3652720  81.7330630 118.9392920  22.4737490  82.9675220
 110.9947970  19.2303470  68.7815200 110.7937030  18.3670830  69.1428540
 110.8240020  19.1436830  67.8436800 113.0242450  17.8294260  85.0178800
 113.6142140  17.5210110  85.7056620 112.2062690  17.3574010  85.1738700
 117.8435880  17.4460070  85.2511820 117.1551400  16.7841610  85.1861810
 118.5641900  16.9998340  85.6960280 118.4736280  14.0411700  71.3102080
 118.7538570  13.1979600  71.6661500 117.7002010  14.2734810  71.8240830
 109.7930770  16.3304090  68.7693080 110.0956670  16.3371520  67.8612230
 110.5325360  15.9801950  69.2660740 113.0115700  15.2738710  69.7549280
 112.6637700  14.5962700  69.1751730 113.2128470  14.8128220  70.5692670
 115.1764740  30.2619460  71.3735880 116.0715530  30.6004430  71.3954640
 115.2082370  29.5398870  70.7460160 122.1559090  28.7923130  84.0802080
 121.5561080  28.8515690  83.3366000 122.2852990  27.8528110  84.2098930
 123.3960540  26.5340950  69.4171790 122.5653500  26.6017600  69.8879020
 123.5732370  27.4245070  69.1138650 122.8517000  23.2788430  71.9205990
 123.6135910  23.8485080  72.0265680 122.8671370  22.7115630  72.6914300
 123.8576970  24.1338530  76.7647920 124.2285800  23.3505850  76.3583890
 124.4978900  24.8227630  76.5865220 120.8410730  25.5175110  82.1778240
 120.0270570  25.9472270  82.4404030 121.2484930  26.1293520  81.5647290
 122.9036170  23.5722800  69.0778510 123.1785010  24.4801680  68.9497730
 122.7146910  23.5085330  70.0140500 119.3011780  16.5967650  70.3732140
 119.7196660  16.4098630  69.5328800 118.9947840  15.7446700  70.6835070
 122.8001510  21.5091790  74.0707940 122.4245110  20.7419720  73.6389230
 122.0704630  21.8914490  74.5582870 107.3897270  22.1878930  80.6916990
 107.7570310  22.1006330  81.5713010 106.8208090  21.4245480  80.5923850
 122.1901130  20.6563310  83.7047460 121.9587220  20.4276060  82.8045410
 122.4505680  21.5762860  83.6592350 106.9413270  19.0988020  84.5975410
 106.0469320  19.0654780  84.9369120 107.4810820  19.2974810  85.3626660
 120.6289200  15.8819740  86.4827160 121.5059380  15.8903140  86.8661160
 120.6410040  15.1450580  85.8719510 105.5659420  19.0125290  72.0938980
 104.6623500  19.2755490  71.9190640 106.0500040  19.2836460  71.3138940
 122.0752470  19.7349280  77.3715180 122.5989950  19.2411930  76.7405350
 122.6611890  19.8699640  78.1162750 122.2542190  19.8189150  80.8934730
 121.3044900  19.7852690  81.0079720 122.4355200  20.7289260  80.6584500
 108.1086630  18.0690830  70.0033360 108.8178330  17.6474050  69.5180640
 107.3926570  18.1366060  69.3716710 107.7560790  14.1230160  69.0436010
 108.4788920  14.6639100  69.3617230 108.0285310  13.8493580  68.1677550
 121.5652440  18.9922630  73.3107590 122.0611560  18.7593500  74.0956470
 121.3668510  18.1534470  72.8945230 107.4452980  13.3736350  78.9458630
 108.0929170  12.8233730  78.5053790 107.8654820  13.6279500  79.7674440
 122.9939600  17.6283580  75.8445270 122.8838880  17.4739620  76.7827540
 123.7547190  17.1004520  75.6020680 121.3405320  13.5677710  82.3028270
 121.9777540  14.1811850  82.6687460 121.4880210  13.6038370  81.3577500
 123.8829870  15.4591500  69.0851410 124.8079180  15.3272680  68.8769700
 123.8605660  15.5384320  70.0387860 123.9568360  16.2302160  71.7108120
 123.1619860  16.1647280  72.2401030 124.1611640  17.1652800  71.6993470
 120.8986780  30.2693710  75.7046510 121.4945850  29.9478280  75.0280930
 121.1564930  29.7965530  76.4959780 107.1984980  13.5292020  81.6883950
 106.8499800  13.9855840  82.4542130 106.8672680  12.6349150  81.7706380
 108.8049350  26.7011620  85.8537140 108.7618980  26.3304530  86.7351600
 108.9360360  27.6389190  85.9938960 114.7109800  14.7203900  85.2103370
 114.6498690  15.3125730  85.9598780 115.6510180  14.6129860  85.0653630
 117.3484360  14.3773960  84.8495660 117.9624770  14.6953250  84.1876740
 117.8933920  13.8922550  85.4691520 123.7659540  30.2765590  82.2557500
 123.2717820  30.6734460  81.5384630 123.1572830  29.6514800  82.6494780
 107.8705620  13.0568220  84.9634720 108.4188610  12.8756270  84.2000830
 107.9360930  12.2662330  85.4991030 108.6437380  29.6473870  82.9734920
 108.0497700  29.5158570  83.7124960 108.6361220  28.8112010  82.5077020
 118.0892400  12.9406100  81.1764950 117.2152240  13.2741210  80.9737880
 117.9803150  12.4679280  82.0016820 118.9964380  15.1476970  82.5606670
 118.6677740  14.3328730  82.1808400 119.9446680  15.1046780  82.4372360
 121.4498990  30.9189010  79.5344240 120.9901960  31.6704820  79.1602260
 120.8211450  30.1995480  79.4759040 108.2749610  27.0132250  81.9242960
 107.5483670  26.3937540  81.8568910 108.3358760  27.4072860  81.0541040
 115.8367220  13.8575940  80.1157860 115.0539010  14.3321440  80.3954620
 115.5430150  12.9530770  80.0071040 120.3888290  14.5599040  78.1606950
 120.8296380  14.5044140  77.3128550 120.1195880  15.4757050  78.2317130
 122.2526860  14.1914280  76.1715770 122.1915260  13.2475500  76.0246790
 123.0318890  14.2994370  76.7169230 107.1807630  14.1623420  72.6371580
 107.9386990  14.2752300  72.0635610 106.7184800  14.9992620  72.5915010
 113.7221440  16.2762690  75.6273890 112.9095950  15.9019580  75.2869770
 114.2263080  15.5207770  75.9295080 118.2246420  12.9405140  76.8656960
 118.8275790  13.5125350  77.3405480 117.4839410  13.5044580  76.6430860
 121.3681020  13.3426700  72.1397240 121.5631650  14.2410150  72.4064670
 120.5810890  13.1113780  72.6330190 109.5532780  14.6887470  71.1773550
 110.0825540  13.9017270  71.0481500 110.1861100  15.3678660  71.4109080
 111.7470620  14.4262610  74.2318940 111.1173360  13.7249920  74.3989070
 111.2075760  15.1866740  74.0152100 114.6862570  31.0401840  86.9029550
 115.6129880  30.8046110  86.9465510 114.6713000  31.8673840  86.4215580
 122.9207630  30.5827410  73.9003800 123.0959820  29.8965150  73.2564720
 122.2229200  31.1074460  73.5080470 111.8726180  13.7046590  86.6671430
 111.5910450  14.2080190  85.9032250 112.2545880  12.9068340  86.3013560
 109.9250070  27.0886980  71.4585440 109.2958950  27.5572080  72.0071270
 110.0397900  26.2436200  71.8931630 118.4741640  13.1200170  87.2451900
 118.3607090  13.4394780  88.1403420 119.2911380  13.5212680  86.9489180
 121.2540130  30.2671700  86.7270590 122.0465450  29.7720930  86.5196550
 121.5473280  30.9461840  87.3346200 117.3799790  21.1392640  57.6086640
 117.2993840  20.2247250  57.3378350 116.9664210  21.6359710  56.9026350
 115.5117830  22.9171660  59.4895910 114.7359930  22.4372100  59.7794480
 116.1630760  22.2377310  59.3152070 109.5283660  23.2291470  60.3671670
 108.6968540  22.9740180  60.7668180 110.1364640  23.3002240  61.1029590
 119.5325260  27.3231850  58.2695040 119.0706790  26.5519090  58.5982210
 120.3450810  27.3497920  58.7747490 107.9375610  18.1893360  54.1514060
 107.0492310  18.5309330  54.0493940 108.2216800  17.9893680  53.2594890
 105.9008620  20.7899010  60.0353760 106.4724730  20.0221210  60.0357400
 105.9010160  21.0887770  59.1260370 114.9526820  25.5928850  59.4966070
 114.8835100  24.6518790  59.3355200 115.7146680  25.6830260  60.0688640
 107.1433490  16.1983370  61.8222690 106.9636330  15.3009120  62.1025450
 106.7413570  16.7455240  62.4969640 115.9831990  18.3999230  59.7235000
 116.3596810  17.5271110  59.6108670 115.8851500  18.7357930  58.8325440
 110.1137000  16.7724860  55.1852440 110.2203750  17.6728590  55.4921200
 109.2029360  16.7242830  54.8947090 119.7656110  15.8949670  56.6563340
 120.5865730  15.4046240  56.6988820 119.7990190  16.4847330  57.4095180
 107.7620160  18.6943870  60.4305030 108.4430270  18.9582240  61.0492430
 107.4468210  17.8544740  60.7643040 111.9544730  19.7411230  59.5177620
 112.4622950  20.2392200  60.1582640 112.4857970  18.9646430  59.3416980
 124.0555660  17.9116420  63.2206970 123.3507830  18.2998130  62.7022080
 124.3213580  18.6066710  63.8227900 110.2380830  14.3809790  63.7841040
 110.2399270  14.8982180  62.9786940 109.4085140  13.9039970  63.7610970
 116.6251920  24.4929100  55.2830940 116.0069190  24.9578550  54.7193660
 117.1375170  25.1856580  55.7000450 111.4883680  24.0204970  61.9614540
 111.1553060  24.6473890  62.6035610 111.6650360  24.5466850  61.1816210
 120.0017590  17.8350050  59.4290880 119.2973160  18.1234940  60.0093990
 120.3629750  18.6450160  59.0690440 109.9196160  16.0919750  61.7911490
 110.2612970  16.9361800  61.4965360 108.9811970  16.2403490  61.9076830
 105.9935120  25.1785630  52.6570570 105.6163100  25.6672730  51.9255470
 106.2508190  25.8510910  53.2877100 121.6180370  27.4525180  61.6918360
 120.9343890  28.1224290  61.6835030 122.1574660  27.6505830  60.9263220
 123.0704510  17.2804840  59.8200090 122.1229420  17.3143820  59.9515520
 123.3954500  18.0943790  60.2049450 113.6024050  13.5802020  58.1156080
 113.9099030  13.0248910  57.3991580 112.6724750  13.7146480  57.9329070
 120.4484530  26.0185530  55.4953710 120.3380860  25.0759860  55.6203130
 120.4452780  26.3801170  56.3816470 118.5524550  24.1999150  61.7346150
 118.9693340  23.9859260  60.8999610 119.2764370  24.4571940  62.3054770
 115.9904810  21.6450850  54.8516200 115.0634090  21.5788230  55.0804670
 116.1429630  22.5830980  54.7371440 115.9773890  17.9167850  51.8483360
 115.0377560  18.0781810  51.9335820 116.2957150  18.6353530  51.3019350
 122.4986650  22.5986370  61.8262390 121.6705280  22.6679460  61.3512520
 123.0937130  23.1840680  61.3578220 120.0202100  23.2071150  55.3551450
 119.4014520  22.8690700  54.7077750 120.0026550  22.5630910  56.0630640
 119.4628660  19.3855690  62.7717260 119.0499840  20.2109400  63.0257250
 118.7304610  18.8000730  62.5793620 111.5961450  22.1715590  57.6335930
 111.1918450  21.4592840  57.1381830 111.6824570  21.8268830  58.5223970
 112.0643150  25.8583150  59.7975140 111.7671440  25.2528620  59.1182920
 113.0142970  25.8960460  59.6864500 110.3090070  18.9458800  61.4134970
 110.8604660  19.0554140  60.6388220 110.8233580  19.3196400  62.1290200
 118.1966800  22.4457960  52.3624200 118.6360080  21.6080390  52.2162020
 118.9095220  23.0787360  52.4488340 109.9832800  22.4678160  65.0240310
 109.8440570  23.3400960  65.3927710 109.1014160  22.1250970  64.8788250
 116.3062180  27.3854030  56.3305440 116.7458090  28.1278360  55.9160830
 116.2449070  27.6280600  57.2544400 121.7783940  13.7000770  50.6765240
 121.4656600  13.7927600  51.5764310 122.5396410  14.2781800  50.6262670
 108.2966080  21.0660570  55.1342580 108.1763680  21.7922660  54.5223850
 107.9866970  20.2963480  54.6570490 123.7327970  29.1926960  68.5289630
 124.2087690  29.6709850  69.2078710 124.3535130  29.1244450  67.8035130
 107.1799080  25.9375900  57.3517400 106.7727160  26.0790490  56.4971000
 108.0712090  25.6536060  57.1488610 123.1361220  26.3839810  65.6889640
 123.2624280  26.1451690  64.7706820 123.1782600  25.5524350  66.1611720
 118.9732360  30.3723150  53.6868450 118.8133500  30.0826090  54.5850280
 118.8079070  29.5963280  53.1513680 118.6758490  27.8810710  52.2466450
 117.9823650  27.8788000  51.5868730 119.4181350  27.4570030  51.8160620
 118.2408420  29.5073420  56.3214940 118.6965370  28.7262800  56.6353560
 118.5800940  30.2180240  56.8656120 122.9885230  18.4372270  66.6539380
 122.3729500  18.9451940  66.1254840 122.6681650  17.5370600  66.5965320
 110.7629740  14.4095640  58.5166250 110.3197890  15.1905180  58.1850770
 111.3214730  14.7325530  59.2237190 115.0499550  17.2764160  64.1201570
 114.5878920  17.4847180  64.9321510 114.6477660  16.4623510  63.8172240
 120.0504060  18.4973110  65.2498230 119.1997650  18.1978860  65.5707300
 119.8905850  18.7415120  64.3382050 117.1453770  19.9974860  67.3497020
 117.4707180  19.1638610  67.0099250 117.9334100  20.5203380  67.4975350
 113.8788560  14.0306340  53.3972080 113.2542740  14.0266210  54.1225390
 113.7918680  13.1637300  53.0008050 112.8005640  14.9542970  60.3755850
 113.0977970  15.8605800  60.2947870 113.3491200  14.4661750  59.7615420
 110.5543960  19.5329210  56.2447500 110.3284880  19.3166380  57.1494120
 109.7736490  19.9657670  55.8993470 117.7841720  19.5392580  54.8438150
 117.1850610  20.2628380  54.6601770 118.3321330  19.4769360  54.0614600
 112.9943170  20.4314790  66.9107770 112.8986770  19.4909520  66.7608170
 113.8375150  20.6529860  66.5155840 116.3906590  18.1756120  56.8741430
 116.7836160  18.4928320  56.0610120 116.7523440  17.2968000  56.9885950
 108.1253710  16.8428460  65.0641550 107.7317100  17.6903670  65.2714330
 107.4372110  16.2054830  65.2550190 114.6998760  16.9263430  68.1338290
 114.0097080  16.7335630  68.7684380 115.4431060  17.2098070  68.6662590
 105.4270760  14.7656920  59.0971630 105.1383810  15.3359780  59.8096610
 106.1716520  14.2861370  59.4602860 105.6140990  18.7077040  50.3074350
 105.5315660  19.6507800  50.4489340 105.2624050  18.5651950  49.4286700
 116.9761730  20.7661870  60.9692210 116.2442850  21.2748680  61.3182310
 116.5786070  19.9491850  60.6680990 113.4139120  17.4416070  59.3744700
 113.4175180  17.0006020  58.5249240 114.3090240  17.7633400  59.4816520
 109.2641500  17.3242560  58.3338910 108.9241550  17.8017790  59.0905960
 108.5018820  16.8707680  57.9740010 113.4759270  18.4428150  52.3651460
 113.5972090  18.4014630  53.3137280 113.0907780  19.3052300  52.2098190
 117.4387640  16.2195550  60.3815150 117.4560380  16.6704200  61.2257000
 117.1903220  15.3201190  60.5948590 112.4880770  20.7529290  51.7634760
 111.9197670  20.3047540  51.1370670 113.1969770  21.1122070  51.2299910
 120.8658390  13.6327730  66.2201530 121.1904160  12.9017390  66.7459510
 120.9014900  13.3141370  65.3182520 113.7147090  21.5017850  61.1210110
 114.0817220  21.0276420  61.8671450 113.5252150  22.3759420  61.4618450
 106.5787580  16.2461540  57.2503580 106.2934500  15.8817210  58.0882200
 106.5166440  15.5142000  56.6366720 111.5046460  20.5426490  63.4394320
 111.2003530  21.4218470  63.6644680 112.4592920  20.6026280  63.4751760
 120.7916230  23.7452840  59.8287560 121.5115350  24.2408130  59.4383670
 120.5898050  23.0670730  59.1841430 116.2526170  15.1390800  53.9716950
 115.4390780  14.6403970  53.8962260 116.0588120  15.9789050  53.5553300
 116.1735030  23.8161900  65.7156560 116.1072340  22.8957570  65.4614150
 115.5440170  23.9137340  66.4301200 118.9674560  19.5110450  52.2679110
 119.8554180  19.8227680  52.0930450 118.9379650  18.6382700  51.8759690
 110.0765650  24.4167860  57.6739980 110.5944320  23.6136120  57.6196870
 109.6249670  24.3547000  58.5156810 114.9635150  25.6834140  52.9467280
 115.3050850  26.4276370  52.4510600 114.1347860  25.9965260  53.3092110
 107.5610190  21.3829230  64.5865680 107.2025130  22.0483080  65.1739020
 107.2664750  20.5512780  64.9578300 110.7623310  21.8413470  67.4705230
 110.4623450  21.9870650  66.5733050 111.5334550  21.2818760  67.3778620
 121.2388830  20.8222290  51.7358970 121.1552550  21.2536510  50.8855410
 121.9583020  21.2820640  52.1685790 122.3162970  23.2789810  64.8128940
 121.5911160  23.8718590  64.6158330 122.8438430  23.2713350  64.0142310
 122.2676080  27.6764550  54.4641100 121.6252240  27.0220170  54.7384820
 121.8806740  28.0819640  53.6881770 117.8462560  25.0049980  58.3112790
 118.1986380  24.4078110  57.6514160 116.9624890  24.6794210  58.4821040
 106.0718240  21.3820490  51.2100280 106.9413090  21.6645290  51.4936200
 105.5808560  22.1956360  51.0949090 113.2353050  22.7693700  55.3308560
 113.6915830  23.5798950  55.5568750 112.8841260  22.4516840  56.1627050
 109.1364830  13.1131350  55.8031080 109.0079460  13.1049250  56.7516000
 108.3126850  13.4514440  55.4522090 120.6573460  26.5681010  51.0017450
 120.4311040  25.8511450  51.5942090 120.2669660  26.3193450  50.1639200
 106.4389490  30.5947870  51.7761910 106.7987130  31.1937210  51.1219180
 106.2981830  31.1407760  52.5496940 106.1358760  14.8722470  65.2637780
 105.4217280  15.0719390  65.8690390 106.5553800  14.0962040  65.6352580
 120.2389710  24.4852950  52.6631610 119.9511410  24.9465640  53.4509490
 121.0341880  24.0250720  52.9315830 114.4143940  27.1318620  67.6502430
 114.0940810  26.4127860  68.1948120 113.7402300  27.8073690  67.7238490
 108.0564750  23.1993960  53.3382340 107.4492700  23.9392860  53.3477640
 108.5314100  23.2893320  52.5120540 117.6297540  17.3644780  63.0139230
 117.9978360  16.5439990  63.3418800 116.7695740  17.4246670  63.4294880
 120.9959570  16.3201720  53.8226790 120.3672730  16.4247390  53.1085020
 120.5011490  16.5398500  54.6120670 115.4417710  28.0407310  51.2560770
 115.5429690  27.8371300  50.3262750 114.5419450  27.7865590  51.4608550
 112.9643600  18.5987670  55.2384670 112.2559750  19.0674010  55.6798280
 113.2488080  17.9409680  55.8729860 114.5899530  20.0184370  63.2377200
 115.0884780  20.4930190  63.9029050 114.7322480  19.0947890  63.4447230
 116.9959030  15.3238330  56.6780460 116.8726810  15.3424460  55.7289970
 117.9443590  15.3717270  56.7978860 111.1678620  16.9072750  52.6135380
 112.0169150  17.3442900  52.5475570 110.8009890  17.2193010  53.4407440
 121.7966390  16.2352330  64.0805590 121.2939990  16.9757730  64.4199400
 122.6123050  16.6236330  63.7642380 120.0888400  21.4785510  57.5266950
 119.1478540  21.4935740  57.7014640 120.4032470  20.6921470  57.9727250
 110.0670040  23.1605110  51.0870910 110.8333310  23.0486470  51.6496340
 110.1444730  22.4643080  50.4347680 108.7616800  20.5930180  51.7703800
 108.8420390  19.6457690  51.8821200 109.6536550  20.9237060  51.8764460
 122.0913980  28.6494360  59.2021210 122.2161400  29.4725530  59.6745020
 122.9579540  28.4385090  58.8545360 109.5631510  30.7425570  58.8738340
 110.2993990  30.1941030  59.1446910 109.9472430  31.6081580  58.7344330
 106.4476990  26.8099140  54.7479850 105.5216770  27.0520280  54.7385260
 106.9133420  27.6373400  54.6264600 112.6733820  29.9155880  50.6963910
 113.4662430  30.2044710  50.2445700 112.1538170  29.4848050  50.0176390
 121.7263990  29.1426010  52.1200650 121.4405500  28.7291150  51.3054830
 121.5283540  30.0713720  52.0001170 113.1911220  25.1359290  50.5606260
 113.0861860  24.5211640  51.2867640 113.0235440  24.6125180  49.7769270
 113.3425540  23.8216090  66.5395490 112.5771210  24.3901090  66.4550160
 113.5241500  23.5292300  65.6463720 116.4313950  24.1979320  51.1648250
 115.8824050  24.6448620  51.8090990 117.0533210  23.6928570  51.6885920
 120.4848890  25.5521420  67.0970510 121.2258360  25.8897180  66.5937970
 119.7221570  25.7213480  66.5440280 108.3210680  20.5574690  67.9010040
 108.3616020  20.2588560  68.8095270 109.1756180  20.9582300  67.7417560
 112.0989070  23.1570240  53.0613550 112.5205490  22.9910110  53.9044940
 112.2239910  22.3470470  52.5668690 110.2616490  19.1366790  65.8684530
 109.7312950  18.6457740  65.2407870 110.9304560  19.5650990  65.3342460
 114.6116710  22.1807850  50.3090650 115.1322370  21.4656870  49.9431800
 115.2585110  22.8193720  50.6091160 119.1594550  23.6036250  65.6325720
 119.5735570  23.7581330  66.4816140 118.2245550  23.7291470  65.7951500
 119.6316720  20.9432410  67.6364870 120.2137490  20.1884730  67.5485350
 119.8078490  21.4739850  66.8596350 110.7488790  16.1029160  65.9481820
 110.6545660  15.4849910  65.2232690 110.1686180  16.8295450  65.7211730
 113.5150230  14.6602400  62.9809210 113.0667530  14.6826660  62.1354760
 112.8815430  14.2621420  63.5779510 113.9209780  23.5556730  63.6021650
 114.3397890  24.3989460  63.4297890 113.0018410  23.6928770  63.3728430
 116.2573680  21.2872910  64.9859490 116.3769890  20.6914050  65.7254330
 117.1167680  21.3242600  64.5660790 118.5961580  21.8410100  63.5622000
 118.0696800  22.3652720  62.9587140 118.9392920  22.4737490  64.1931730
 110.9947970  19.2303470  50.0071710 110.7937030  18.3670830  50.3685050
 110.8240020  19.1436830  49.0693310 113.0242450  17.8294260  66.2435310
 113.6142140  17.5210110  66.9313130 112.2062690  17.3574010  66.3995210
 117.8435880  17.4460070  66.4768330 117.1551400  16.7841610  66.4118320
 118.5641900  16.9998340  66.9216790 118.4736280  14.0411700  52.5358590
 118.7538570  13.1979600  52.8918010 117.7002010  14.2734810  53.0497340
 109.7930770  16.3304090  49.9949590 110.0956670  16.3371520  49.0868740
 110.5325360  15.9801950  50.4917250 114.6279410  31.0960950  64.9766030
 114.5538110  31.9996090  65.2838400 113.7258250  30.7772850  64.9488100
 113.0115700  15.2738710  50.9805790 112.6637700  14.5962700  50.4008240
 113.2128470  14.8128220  51.7949180 115.1764740  30.2619460  52.5992390
 116.0715530  30.6004430  52.6211150 115.2082370  29.5398870  51.9716670
 108.8160900  25.6346510  50.8279390 109.2535770  26.1776180  51.4836970
 109.3008630  24.8093460  50.8375730 122.1559090  28.7923130  65.3058590
 121.5561080  28.8515690  64.5622510 122.2852990  27.8528110  65.4355440
 123.3960540  26.5340950  50.6428300 122.5653500  26.6017600  51.1135530
 123.5732370  27.4245070  50.3395160 122.8517000  23.2788430  53.1462500
 123.6135910  23.8485080  53.2522190 122.8671370  22.7115630  53.9170810
 106.3521340  21.8026360  57.3770160 105.6970180  21.5338000  56.7329860
 107.1899290  21.6930840  56.9272140 123.8576970  24.1338530  57.9904430
 124.2285800  23.3505850  57.5840400 124.4978900  24.8227630  57.8121730
 122.9036170  23.5722800  50.3035020 123.1785010  24.4801680  50.1754240
 122.7146910  23.5085330  51.2397010 119.3011780  16.5967650  51.5988650
 119.7196660  16.4098630  50.7585310 118.9947840  15.7446700  51.9091580
 122.8001510  21.5091790  55.2964450 122.4245110  20.7419720  54.8645740
 122.0704630  21.8914490  55.7839380 107.3897270  22.1878930  61.9173500
 107.7570310  22.1006330  62.7969520 106.8208090  21.4245480  61.8180360
 122.1901130  20.6563310  64.9303970 121.9587220  20.4276060  64.0301920
 122.4505680  21.5762860  64.8848860 106.9413270  19.0988020  65.8231920
 106.0469320  19.0654780  66.1625630 107.4810820  19.2974810  66.5883170
 120.6289200  15.8819740  67.7083670 121.5059380  15.8903140  68.0917670
 120.6410040  15.1450580  67.0976020 105.5659420  19.0125290  53.3195490
 104.6623500  19.2755490  53.1447150 106.0500040  19.2836460  52.5395450
 122.0752470  19.7349280  58.5971690 122.5989950  19.2411930  57.9661860
 122.6611890  19.8699640  59.3419260 122.2542190  19.8189150  62.1191240
 121.3044900  19.7852690  62.2336230 122.4355200  20.7289260  61.8841010
 108.1086630  18.0690830  51.2289870 108.8178330  17.6474050  50.7437150
 107.3926570  18.1366060  50.5973220 107.7560790  14.1230160  50.2692520
 108.4788920  14.6639100  50.5873740 108.0285310  13.8493580  49.3934060
 121.5652440  18.9922630  54.5364100 122.0611560  18.7593500  55.3212980
 121.3668510  18.1534470  54.1201740 107.4452980  13.3736350  60.1715140
 108.0929170  12.8233730  59.7310300 107.8654820  13.6279500  60.9930950
 122.9939600  17.6283580  57.0701780 122.8838880  17.4739620  58.0084050
 123.7547190  17.1004520  56.8277190 121.3405320  13.5677710  63.5284780
 121.9777540  14.1811850  63.8943970 121.4880210  13.6038370  62.5834010
 123.8829870  15.4591500  50.3107920 124.8079180  15.3272680  50.1026210
 123.8605660  15.5384320  51.2644370 123.9568360  16.2302160  52.9364630
 123.1619860  16.1647280  53.4657540 124.1611640  17.1652800  52.9249980
 120.8986780  30.2693710  56.9303020 121.4945850  29.9478280  56.2537440
 121.1564930  29.7965530  57.7216290 107.1984980  13.5292020  62.9140460
 106.8499800  13.9855840  63.6798640 106.8672680  12.6349150  62.9962890
 114.7109800  14.7203900  66.4359880 114.6498690  15.3125730  67.1855290
 115.6510180  14.6129860  66.2910140 117.3484360  14.3773960  66.0752170
 117.9624770  14.6953250  65.4133250 117.8933920  13.8922550  66.6948030
 123.7659540  30.2765590  63.4814010 123.2717820  30.6734460  62.7641140
 123.1572830  29.6514800  63.8751290 107.8705620  13.0568220  66.1891230
 108.4188610  12.8756270  65.4257340 107.9360930  12.2662330  66.7247540
 118.0892400  12.9406100  62.4021460 117.2152240  13.2741210  62.1994390
 117.9803150  12.4679280  63.2273330 118.9964380  15.1476970  63.7863180
 118.6677740  14.3328730  63.4064910 119.9446680  15.1046780  63.6628870
 121.4498990  30.9189010  60.7600750 120.9901960  31.6704820  60.3858770
 120.8211450  30.1995480  60.7015550 115.8367220  13.8575940  61.3414370
 115.0539010  14.3321440  61.6211130 115.5430150  12.9530770  61.2327550
 120.3888290  14.5599040  59.3863460 120.8296380  14.5044140  58.5385060
 120.1195880  15.4757050  59.4573640 122.2526860  14.1914280  57.3972280
 122.1915260  13.2475500  57.2503300 123.0318890  14.2994370  57.9425740
 106.5579610  30.3306640  56.3596230 106.3901650  29.6977320  57.0578120
 105.6914120  30.5366040  56.0090420 107.1807630  14.1623420  53.8628090
 107.9386990  14.2752300  53.2892120 106.7184800  14.9992620  53.8171520
 113.7221440  16.2762690  56.8530400 112.9095950  15.9019580  56.5126280
 114.2263080  15.5207770  57.1551590 118.2246420  12.9405140  58.0913470
 118.8275790  13.5125350  58.5661990 117.4839410  13.5044580  57.8687370
 121.3681020  13.3426700  53.3653750 121.5631650  14.2410150  53.6321180
 120.5810890  13.1113780  53.8586700 109.5532780  14.6887470  52.4030060
 110.0825540  13.9017270  52.2738010 110.1861100  15.3678660  52.6365590
 111.7470620  14.4262610  55.4575450 111.1173360  13.7249920  55.6245580
 111.2075760  15.1866740  55.2408610 114.6862570  31.0401840  68.1286060
 115.6129880  30.8046110  68.1722020 114.6713000  31.8673840  67.6472090
 122.9207630  30.5827410  55.1260310 123.0959820  29.8965150  54.4821230
 122.2229200  31.1074460  54.7336980 111.8726180  13.7046590  67.8927940
 111.5910450  14.2080190  67.1288760 112.2545880  12.9068340  67.5270070
 118.4741640  13.1200170  68.4708410 118.3607090  13.4394780  69.3659930
 119.2911380  13.5212680  68.1745690 121.2540130  30.2671700  67.9527100
 122.0465450  29.7720930  67.7453060 121.5473280  30.9461840  68.5602710
 117.3799790  21.1392640  38.8343150 117.2993840  20.2247250  38.5634860
 116.9664210  21.6359710  38.1282860 115.5117830  22.9171660  40.7152420
 114.7359930  22.4372100  41.0050990 116.1630760  22.2377310  40.5408580
 109.5283660  23.2291470  41.5928180 108.6968540  22.9740180  41.9924690
 110.1364640  23.3002240  42.3286100 119.5325260  27.3231850  39.4951550
 119.0706790  26.5519090  39.8238720 120.3450810  27.3497920  40.0004000
 109.5084920  27.2631560  41.7886200 109.8112960  26.3729300  41.6096420
 110.2528510  27.8201780  41.5608450 107.9375610  18.1893360  35.3770570
 107.0492310  18.5309330  35.2750450 108.2216800  17.9893680  34.4851400
 105.9008620  20.7899010  41.2610270 106.4724730  20.0221210  41.2613910
 105.9010160  21.0887770  40.3516880 115.7588570  29.6089860  39.1155540
 115.1400010  30.0647360  38.5449980 116.6140350  29.7641320  38.7145240
 114.9526820  25.5928850  40.7222580 114.8835100  24.6518790  40.5611710
 115.7146680  25.6830260  41.2945150 107.1433490  16.1983370  43.0479200
 106.9636330  15.3009120  43.3281960 106.7413570  16.7455240  43.7226150
 115.9831990  18.3999230  40.9491510 116.3596810  17.5271110  40.8365180
 115.8851500  18.7357930  40.0581950 110.1137000  16.7724860  36.4108950
 110.2203750  17.6728590  36.7177710 109.2029360  16.7242830  36.1203600
 119.7656110  15.8949670  37.8819850 120.5865730  15.4046240  37.9245330
 119.7990190  16.4847330  38.6351690 107.7620160  18.6943870  41.6561540
 108.4430270  18.9582240  42.2748940 107.4468210  17.8544740  41.9899550
 111.9544730  19.7411230  40.7434130 112.4622950  20.2392200  41.3839150
 112.4857970  18.9646430  40.5673490 124.0555660  17.9116420  44.4463480
 123.3507830  18.2998130  43.9278590 124.3213580  18.6066710  45.0484410
 110.2380830  14.3809790  45.0097550 110.2399270  14.8982180  44.2043450
 109.4085140  13.9039970  44.9867480 116.6251920  24.4929100  36.5087450
 116.0069190  24.9578550  35.9450170 117.1375170  25.1856580  36.9256960
 111.4883680  24.0204970  43.1871050 111.1553060  24.6473890  43.8292120
 111.6650360  24.5466850  42.4072720 120.0017590  17.8350050  40.6547390
 119.2973160  18.1234940  41.2350500 120.3629750  18.6450160  40.2946950
 109.9196160  16.0919750  43.0168000 110.2612970  16.9361800  42.7221870
 108.9811970  16.2403490  43.1333340 110.7002780  25.9885770  45.0020230
 111.3176780  26.6636850  44.7204680 109.8395900  26.3973750  44.9107730
 105.9935120  25.1785630  33.8827080 105.6163100  25.6672730  33.1511980
 106.2508190  25.8510910  34.5133610 121.6180370  27.4525180  42.9174870
 120.9343890  28.1224290  42.9091540 122.1574660  27.6505830  42.1519730
 123.0704510  17.2804840  41.0456600 122.1229420  17.3143820  41.1772030
 123.3954500  18.0943790  41.4305960 113.6024050  13.5802020  39.3412590
 113.9099030  13.0248910  38.6248090 112.6724750  13.7146480  39.1585580
 119.1539110  29.2969310  41.6320050 119.1666270  28.8931600  40.7642310
 118.6014330  30.0716600  41.5281480 120.4484530  26.0185530  36.7210220
 120.3380860  25.0759860  36.8459640 120.4452780  26.3801170  37.6072980
 118.5524550  24.1999150  42.9602660 118.9693340  23.9859260  42.1256120
 119.2764370  24.4571940  43.5311280 115.9904810  21.6450850  36.0772710
 115.0634090  21.5788230  36.3061180 116.1429630  22.5830980  35.9627950
 115.9773890  17.9167850  33.0739870 115.0377560  18.0781810  33.1592330
 116.2957150  18.6353530  32.5275860 122.4986650  22.5986370  43.0518900
 121.6705280  22.6679460  42.5769030 123.0937130  23.1840680  42.5834730
 120.0202100  23.2071150  36.5807960 119.4014520  22.8690700  35.9334260
 120.0026550  22.5630910  37.2887150 119.4628660  19.3855690  43.9973770
 119.0499840  20.2109400  44.2513760 118.7304610  18.8000730  43.8050130
 111.5961450  22.1715590  38.8592440 111.1918450  21.4592840  38.3638340
 111.6824570  21.8268830  39.7480480 112.0643150  25.8583150  41.0231650
 111.7671440  25.2528620  40.3439430 113.0142970  25.8960460  40.9121010
 110.3090070  18.9458800  42.6391480 110.8604660  19.0554140  41.8644730
 110.8233580  19.3196400  43.3546710 120.1528760  29.4315020  44.6854750
 119.6759320  30.2387210  44.4927360 119.4690550  28.7793350  44.8380960
 111.1561580  25.5964840  47.6739450 110.2590110  25.8204810  47.9212850
 111.1814450  25.7199780  46.7250850 118.1966800  22.4457960  33.5880710
 118.6360080  21.6080390  33.4418530 118.9095220  23.0787360  33.6744850
 109.9832800  22.4678160  46.2496820 109.8440570  23.3400960  46.6184220
 109.1014160  22.1250970  46.1044760 116.3062180  27.3854030  37.5561950
 116.7458090  28.1278360  37.1417340 116.2449070  27.6280600  38.4800910
 111.7813150  28.4099860  48.4581970 111.7528580  28.8142810  47.5910400
 111.6178120  27.4810220  48.2953570 121.7783940  13.7000770  31.9021750
 121.4656600  13.7927600  32.8020820 122.5396410  14.2781800  31.8519180
 108.2966080  21.0660570  36.3599090 108.1763680  21.7922660  35.7480360
 107.9866970  20.2963480  35.8827000 123.7327970  29.1926960  49.7546140
 124.2087690  29.6709850  50.4335220 124.3535130  29.1244450  49.0291640
 105.9351450  24.2375710  42.1667730 106.0131870  24.3724480  41.2223450
 106.5493130  23.5291600  42.3595850 107.1799080  25.9375900  38.5773910
 106.7727160  26.0790490  37.7227510 108.0712090  25.6536060  38.3745120
 123.1361220  26.3839810  46.9146150 123.2624280  26.1451690  45.9963330
 123.1782600  25.5524350  47.3868230 116.9977960  30.0867810  45.4840960
 117.5122630  29.9975820  46.2863390 116.1547040  30.4327510  45.7768870
 118.9732360  30.3723150  34.9124960 118.8133500  30.0826090  35.8106790
 118.8079070  29.5963280  34.3770190 111.4520740  30.1521680  36.6896580
 111.2763220  29.2357220  36.4764380 110.5976480  30.5108970  36.9294380
 118.6758490  27.8810710  33.4722960 117.9823650  27.8788000  32.8125240
 119.4181350  27.4570030  33.0417130 118.2408420  29.5073420  37.5471450
 118.6965370  28.7262800  37.8610070 118.5800940  30.2180240  38.0912630
 122.9885230  18.4372270  47.8795890 122.3729500  18.9451940  47.3511350
 122.6681650  17.5370600  47.8221830 105.9910970  25.2789880  44.7062190
 106.1542010  24.8095240  43.8881560 106.4563420  24.7713440  45.3711030
 110.7629740  14.4095640  39.7422760 110.3197890  15.1905180  39.4107280
 111.3214730  14.7325530  40.4493700 115.0499550  17.2764160  45.3458080
 114.5878920  17.4847180  46.1578020 114.6477660  16.4623510  45.0428750
 120.0504060  18.4973110  46.4754740 119.1997650  18.1978860  46.7963810
 119.8905850  18.7415120  45.5638560 117.1453770  19.9974860  48.5753530
 117.4707180  19.1638610  48.2355760 117.9334100  20.5203380  48.7231860
 113.8788560  14.0306340  34.6228590 113.2542740  14.0266210  35.3481900
 113.7918680  13.1637300  34.2264560 112.8005640  14.9542970  41.6012360
 113.0977970  15.8605800  41.5204380 113.3491200  14.4661750  40.9871930
 110.5543960  19.5329210  37.4704010 110.3284880  19.3166380  38.3750630
 109.7736490  19.9657670  37.1249980 117.7841720  19.5392580  36.0694660
 117.1850610  20.2628380  35.8858280 118.3321330  19.4769360  35.2871110
 112.9943170  20.4314790  48.1364280 112.8986770  19.4909520  47.9864680
 113.8375150  20.6529860  47.7412350 116.3906590  18.1756120  38.0997940
 116.7836160  18.4928320  37.2866630 116.7523440  17.2968000  38.2142460
 108.1253710  16.8428460  46.2898060 107.7317100  17.6903670  46.4970840
 107.4372110  16.2054830  46.4806700 114.6998760  16.9263430  49.3594800
 114.0097080  16.7335630  49.9940890 115.4431060  17.2098070  49.8919100
 105.4270760  14.7656920  40.3228140 105.1383810  15.3359780  41.0353120
 106.1716520  14.2861370  40.6859370 105.6140990  18.7077040  31.5330860
 105.5315660  19.6507800  31.6745850 105.2624050  18.5651950  30.6543210
 116.9761730  20.7661870  42.1948720 116.2442850  21.2748680  42.5438820
 116.5786070  19.9491850  41.8937500 113.4139120  17.4416070  40.6001210
 113.4175180  17.0006020  39.7505750 114.3090240  17.7633400  40.7073030
 109.2641500  17.3242560  39.5595420 108.9241550  17.8017790  40.3162470
 108.5018820  16.8707680  39.1996520 113.4759270  18.4428150  33.5907970
 113.5972090  18.4014630  34.5393790 113.0907780  19.3052300  33.4354700
 117.4387640  16.2195550  41.6071660 117.4560380  16.6704200  42.4513510
 117.1903220  15.3201190  41.8205100 112.4880770  20.7529290  32.9891270
 111.9197670  20.3047540  32.3627180 113.1969770  21.1122070  32.4556420
 120.8658390  13.6327730  47.4458040 121.1904160  12.9017390  47.9716020
 120.9014900  13.3141370  46.5439030 107.5649950  24.6541310  46.8658000
 107.1804740  24.0134980  47.4640960 107.8762140  25.3577430  47.4352730
 113.7147090  21.5017850  42.3466620 114.0817220  21.0276420  43.0927960
 113.5252150  22.3759420  42.6874960 106.5787580  16.2461540  38.4760090
 106.2934500  15.8817210  39.3138710 106.5166440  15.5142000  37.8623230
 111.5046460  20.5426490  44.6650830 111.2003530  21.4218470  44.8901190
 112.4592920  20.6026280  44.7008270 110.0328250  24.7487480  35.2617680
 109.2590510  24.2085100  35.1016400 110.7622880  24.2294090  34.9235440
 120.7916230  23.7452840  41.0544070 121.5115350  24.2408130  40.6640180
 120.5898050  23.0670730  40.4097940 116.2526170  15.1390800  35.1973460
 115.4390780  14.6403970  35.1218770 116.0588120  15.9789050  34.7809810
 116.1735030  23.8161900  46.9413070 116.1072340  22.8957570  46.6870660
 115.5440170  23.9137340  47.6557710 118.9674560  19.5110450  33.4935620
 119.8554180  19.8227680  33.3186960 118.9379650  18.6382700  33.1016200
 110.0765650  24.4167860  38.8996490 110.5944320  23.6136120  38.8453380
 109.6249670  24.3547000  39.7413320 114.9635150  25.6834140  34.1723790
 115.3050850  26.4276370  33.6767110 114.1347860  25.9965260  34.5348620
 107.5610190  21.3829230  45.8122190 107.2025130  22.0483080  46.3995530
 107.2664750  20.5512780  46.1834810 110.7623310  21.8413470  48.6961740
 110.4623450  21.9870650  47.7989560 111.5334550  21.2818760  48.6035130
 116.1051760  26.6382470  46.6916870 116.1196300  25.7063430  46.4735780
 115.3976860  26.7242230  47.3306640 121.2388830  20.8222290  32.9615480
 121.1552550  21.2536510  32.1111920 121.9583020  21.2820640  33.3942300
 122.3162970  23.2789810  46.0385450 121.5911160  23.8718590  45.8414840
 122.8438430  23.2713350  45.2398820 122.2676080  27.6764550  35.6897610
 121.6252240  27.0220170  35.9641330 121.8806740  28.0819640  34.9138280
 117.8462560  25.0049980  39.5369300 118.1986380  24.4078110  38.8770670
 116.9624890  24.6794210  39.7077550 113.9325840  25.7647670  36.9439710
 114.6196970  26.3116880  37.3247300 113.1458260  26.3088400  36.9789320
 106.0718240  21.3820490  32.4356790 106.9413090  21.6645290  32.7192710
 105.5808560  22.1956360  32.3205600 113.2353050  22.7693700  36.5565070
 113.6915830  23.5798950  36.7825260 112.8841260  22.4516840  37.3883560
 115.5385660  28.2800040  43.7857370 116.1827880  28.4859420  44.4630790
 115.9015100  27.5188440  43.3328220 109.1364830  13.1131350  37.0287590
 109.0079460  13.1049250  37.9772510 108.3126850  13.4514440  36.6778600
 116.8117740  26.2832390  42.5034820 117.4539970  25.5825550  42.6166990
 117.3367090  27.0630830  42.3231710 120.6573460  26.5681010  32.2273960
 120.4311040  25.8511450  32.8198600 120.2669660  26.3193450  31.3895710
 118.5855360  27.0827290  45.7070880 118.9211600  27.6693980  46.3848800
 117.6655700  26.9520000  45.9368670 106.4389490  30.5947870  33.0018420
 106.7987130  31.1937210  32.3475690 106.2981830  31.1407760  33.7753450
 106.1358760  14.8722470  46.4894290 105.4217280  15.0719390  47.0946900
 106.5553800  14.0962040  46.8609090 120.2389710  24.4852950  33.8888120
 119.9511410  24.9465640  34.6766000 121.0341880  24.0250720  34.1572340
 106.4231350  28.8602730  47.4760820 106.5322470  27.9197470  47.3356210
 105.7711910  29.1257480  46.8274550 114.4143940  27.1318620  48.8758940
 114.0940810  26.4127860  49.4204630 113.7402300  27.8073690  48.9495000
 112.4558110  27.9779070  33.8192090 112.4468210  28.7108760  33.2036600
 111.5356470  27.7310650  33.9119050 108.0564750  23.1993960  34.5638850
 107.4492700  23.9392860  34.5734150 108.5314100  23.2893320  33.7377050
 117.6297540  17.3644780  44.2395740 117.9978360  16.5439990  44.5675310
 116.7695740  17.4246670  44.6551390 120.9959570  16.3201720  35.0483300
 120.3672730  16.4247390  34.3341530 120.5011490  16.5398500  35.8377180
 115.4417710  28.0407310  32.4817280 115.5429690  27.8371300  31.5519260
 114.5419450  27.7865590  32.6865060 112.9643600  18.5987670  36.4641180
 112.2559750  19.0674010  36.9054790 113.2488080  17.9409680  37.0986370
 114.5899530  20.0184370  44.4633710 115.0884780  20.4930190  45.1285560
 114.7322480  19.0947890  44.6703740 116.9959030  15.3238330  37.9036970
 116.8726810  15.3424460  36.9546480 117.9443590  15.3717270  38.0235370
 114.0835820  30.5593630  37.1764950 114.3377320  30.5215020  36.2544320
 113.1348300  30.4326960  37.1693200 111.1678620  16.9072750  33.8391890
 112.0169150  17.3442900  33.7732080 110.8009890  17.2193010  34.6663950
 121.7966390  16.2352330  45.3062100 121.2939990  16.9757730  45.6455910
 122.6123050  16.6236330  44.9898890 120.0888400  21.4785510  38.7523460
 119.1478540  21.4935740  38.9271150 120.4032470  20.6921470  39.1983760
 110.0670040  23.1605110  32.3127420 110.8333310  23.0486470  32.8752850
 110.1444730  22.4643080  31.6604190 108.7616800  20.5930180  32.9960310
 108.8420390  19.6457690  33.1077710 109.6536550  20.9237060  33.1020970
 122.0913980  28.6494360  40.4277720 122.2161400  29.4725530  40.9001530
 122.9579540  28.4385090  40.0801870 109.5631510  30.7425570  40.0994850
 110.2993990  30.1941030  40.3703420 109.9472430  31.6081580  39.9600840
 106.4476990  26.8099140  35.9736360 105.5216770  27.0520280  35.9641770
 106.9133420  27.6373400  35.8521110 108.5689790  29.9271640  49.2880430
 109.3702520  30.2483690  49.7015830 108.0541610  29.5667220  50.0100340
 112.6733820  29.9155880  31.9220420 113.4662430  30.2044710  31.4702210
 112.1538170  29.4848050  31.2432900 117.4054420  26.0351510  49.2355840
 116.7992580  26.0583110  48.4951590 117.1008530  25.3034550  49.7723090
 118.8354790  29.7631800  47.8465250 119.7876540  29.6789820  47.7965490
 118.6883010  30.4273510  48.5199040 121.7263990  29.1426010  33.3457160
 121.4405500  28.7291150  32.5311340 121.5283540  30.0713720  33.2257680
 106.2887600  22.4145100  48.2316480 106.7926620  21.8352380  48.8032710
 105.5495020  22.6985330  48.7692850 113.1911220  25.1359290  31.7862770
 113.0861860  24.5211640  32.5124150 113.0235440  24.6125180  31.0025780
 113.3425540  23.8216090  47.7652000 112.5771210  24.3901090  47.6806670
 113.5241500  23.5292300  46.8720230 116.4313950  24.1979320  32.3904760
 115.8824050  24.6448620  33.0347500 117.0533210  23.6928570  32.9142430
 120.4848890  25.5521420  48.3227020 121.2258360  25.8897180  47.8194480
 119.7221570  25.7213480  47.7696790 108.3210680  20.5574690  49.1266550
 108.3616020  20.2588560  50.0351780 109.1756180  20.9582300  48.9674070
 112.0989070  23.1570240  34.2870060 112.5205490  22.9910110  35.1301450
 112.2239910  22.3470470  33.7925200 110.2616490  19.1366790  47.0941040
 109.7312950  18.6457740  46.4664380 110.9304560  19.5650990  46.5598970
 114.6116710  22.1807850  31.5347160 115.1322370  21.4656870  31.1688310
 115.2585110  22.8193720  31.8347670 119.1594550  23.6036250  46.8582230
 119.5735570  23.7581330  47.7072650 118.2245550  23.7291470  47.0208010
 119.6316720  20.9432410  48.8621380 120.2137490  20.1884730  48.7741860
 119.8078490  21.4739850  48.0852860 110.7488790  16.1029160  47.1738330
 110.6545660  15.4849910  46.4489200 110.1686180  16.8295450  46.9468240
 113.5150230  14.6602400  44.2065720 113.0667530  14.6826660  43.3611270
 112.8815430  14.2621420  44.8036020 113.9209780  23.5556730  44.8278160
 114.3397890  24.3989460  44.6554400 113.0018410  23.6928770  44.5984940
 116.2573680  21.2872910  46.2116000 116.3769890  20.6914050  46.9510840
 117.1167680  21.3242600  45.7917300 118.5961580  21.8410100  44.7878510
 118.0696800  22.3652720  44.1843650 118.9392920  22.4737490  45.4188240
 110.9947970  19.2303470  31.2328220 110.7937030  18.3670830  31.5941560
 110.8240020  19.1436830  30.2949820 111.7717200  29.8609740  45.9435890
 111.2338290  30.5855800  45.6244590 112.0251160  29.3840080  45.1533230
 113.0242450  17.8294260  47.4691820 113.6142140  17.5210110  48.1569640
 112.2062690  17.3574010  47.6251720 117.8435880  17.4460070  47.7024840
 117.1551400  16.7841610  47.6374830 118.5641900  16.9998340  48.1473300
 118.4736280  14.0411700  33.7615100 118.7538570  13.1979600  34.1174520
 117.7002010  14.2734810  34.2753850 109.7930770  16.3304090  31.2206100
 110.0956670  16.3371520  30.3125250 110.5325360  15.9801950  31.7173760
 114.6279410  31.0960950  46.2022540 114.5538110  31.9996090  46.5094910
 113.7258250  30.7772850  46.1744610 113.0115700  15.2738710  32.2062300
 112.6637700  14.5962700  31.6264750 113.2128470  14.8128220  33.0205690
 115.1764740  30.2619460  33.8248900 116.0715530  30.6004430  33.8467660
 115.2082370  29.5398870  33.1973180 108.8160900  25.6346510  32.0535900
 109.2535770  26.1776180  32.7093480 109.3008630  24.8093460  32.0632240
 106.0306700  28.4235540  39.5056160 106.3609710  27.5556600  39.2734800
 106.4597700  28.6294060  40.3361120 110.6268620  26.7544550  37.1658130
 110.3264160  26.6309520  38.0662040 110.5206110  25.8953140  36.7573860
 106.5196910  29.2906130  42.2437790 106.0827900  29.4706930  43.0761940
 107.0874590  30.0480750  42.1019510 122.1559090  28.7923130  46.5315100
 121.5561080  28.8515690  45.7879020 122.2852990  27.8528110  46.6611950
 123.3960540  26.5340950  31.8684810 122.5653500  26.6017600  32.3392040
 123.5732370  27.4245070  31.5651670 122.8517000  23.2788430  34.3719010
 123.6135910  23.8485080  34.4778700 122.8671370  22.7115630  35.1427320
 106.3521340  21.8026360  38.6026670 105.6970180  21.5338000  37.9586370
 107.1899290  21.6930840  38.1528650 123.8576970  24.1338530  39.2160940
 124.2285800  23.3505850  38.8096910 124.4978900  24.8227630  39.0378240
 120.8410730  25.5175110  44.6291260 120.0270570  25.9472270  44.8917050
 121.2484930  26.1293520  44.0160310 122.9036170  23.5722800  31.5291530
 123.1785010  24.4801680  31.4010750 122.7146910  23.5085330  32.4653520
 119.3011780  16.5967650  32.8245160 119.7196660  16.4098630  31.9841820
 118.9947840  15.7446700  33.1348090 122.8001510  21.5091790  36.5220960
 122.4245110  20.7419720  36.0902250 122.0704630  21.8914490  37.0095890
 107.3897270  22.1878930  43.1430010 107.7570310  22.1006330  44.0226030
 106.8208090  21.4245480  43.0436870 122.1901130  20.6563310  46.1560480
 121.9587220  20.4276060  45.2558430 122.4505680  21.5762860  46.1105370
 106.9413270  19.0988020  47.0488430 106.0469320  19.0654780  47.3882140
 107.4810820  19.2974810  47.8139680 120.6289200  15.8819740  48.9340180
 121.5059380  15.8903140  49.3174180 120.6410040  15.1450580  48.3232530
 105.5659420  19.0125290  34.5452000 104.6623500  19.2755490  34.3703660
 106.0500040  19.2836460  33.7651960 122.0752470  19.7349280  39.8228200
 122.5989950  19.2411930  39.1918370 122.6611890  19.8699640  40.5675770
 122.2542190  19.8189150  43.3447750 121.3044900  19.7852690  43.4592740
 122.4355200  20.7289260  43.1097520 108.1086630  18.0690830  32.4546380
 108.8178330  17.6474050  31.9693660 107.3926570  18.1366060  31.8229730
 107.7560790  14.1230160  31.4949030 108.4788920  14.6639100  31.8130250
 108.0285310  13.8493580  30.6190570 121.5652440  18.9922630  35.7620610
 122.0611560  18.7593500  36.5469490 121.3668510  18.1534470  35.3458250
 107.4452980  13.3736350  41.3971650 108.0929170  12.8233730  40.9566810
 107.8654820  13.6279500  42.2187460 122.9939600  17.6283580  38.2958290
 122.8838880  17.4739620  39.2340560 123.7547190  17.1004520  38.0533700
 121.3405320  13.5677710  44.7541290 121.9777540  14.1811850  45.1200480
 121.4880210  13.6038370  43.8090520 123.8829870  15.4591500  31.5364430
 124.8079180  15.3272680  31.3282720 123.8605660  15.5384320  32.4900880
 123.9568360  16.2302160  34.1621140 123.1619860  16.1647280  34.6914050
 124.1611640  17.1652800  34.1506490 120.8986780  30.2693710  38.1559530
 121.4945850  29.9478280  37.4793950 121.1564930  29.7965530  38.9472800
 107.1984980  13.5292020  44.1396970 106.8499800  13.9855840  44.9055150
 106.8672680  12.6349150  44.2219400 108.8049350  26.7011620  48.3050160
 108.7618980  26.3304530  49.1864620 108.9360360  27.6389190  48.4451980
 112.5055380  28.2571210  43.9059880 112.2646740  28.5245770  43.0190400
 113.4458020  28.4276940  43.9610740 114.7109800  14.7203900  47.6616390
 114.6498690  15.3125730  48.4111800 115.6510180  14.6129860  47.5166650
 117.3484360  14.3773960  47.3008680 117.9624770  14.6953250  46.6389760
 117.8933920  13.8922550  47.9204540 123.7659540  30.2765590  44.7070520
 123.2717820  30.6734460  43.9897650 123.1572830  29.6514800  45.1007800
 107.8705620  13.0568220  47.4147740 108.4188610  12.8756270  46.6513850
 107.9360930  12.2662330  47.9504050 108.6437380  29.6473870  45.4247940
 108.0497700  29.5158570  46.1637980 108.6361220  28.8112010  44.9590040
 118.0892400  12.9406100  43.6277970 117.2152240  13.2741210  43.4250900
 117.9803150  12.4679280  44.4529840 118.9964380  15.1476970  45.0119690
 118.6677740  14.3328730  44.6321420 119.9446680  15.1046780  44.8885380
 121.4498990  30.9189010  41.9857260 120.9901960  31.6704820  41.6115280
 120.8211450  30.1995480  41.9272060 108.2749610  27.0132250  44.3755980
 107.5483670  26.3937540  44.3081930 108.3358760  27.4072860  43.5054060
 111.8794710  29.2277250  41.1605390 112.3959730  28.6164610  40.6353650
 112.5292090  29.7306030  41.6516400 114.6190210  30.1185740  41.9874370
 114.9068020  29.8640040  41.1107380 115.1313430  29.5663100  42.5779940
 115.8367220  13.8575940  42.5670880 115.0539010  14.3321440  42.8467640
 115.5430150  12.9530770  42.4584060 120.3888290  14.5599040  40.6119970
 120.8296380  14.5044140  39.7641570 120.1195880  15.4757050  40.6830150
 122.2526860  14.1914280  38.6228790 122.1915260  13.2475500  38.4759810
 123.0318890  14.2994370  39.1682250 106.5579610  30.3306640  37.5852740
 106.3901650  29.6977320  38.2834630 105.6914120  30.5366040  37.2346930
 107.1807630  14.1623420  35.0884600 107.9386990  14.2752300  34.5148630
 106.7184800  14.9992620  35.0428030 113.7221440  16.2762690  38.0786910
 112.9095950  15.9019580  37.7382790 114.2263080  15.5207770  38.3808100
 118.2246420  12.9405140  39.3169980 118.8275790  13.5125350  39.7918500
 117.4839410  13.5044580  39.0943880 121.3681020  13.3426700  34.5910260
 121.5631650  14.2410150  34.8577690 120.5810890  13.1113780  35.0843210
 108.1642310  29.0239870  35.0302880 107.6389930  29.4047900  34.3264840
 108.0886890  29.6490640  35.7512590 109.5532780  14.6887470  33.6286570
 110.0825540  13.9017270  33.4994520 110.1861100  15.3678660  33.8622100
 111.7470620  14.4262610  36.6831960 111.1173360  13.7249920  36.8502090
 111.2075760  15.1866740  36.4665120 114.6862570  31.0401840  49.3542570
 115.6129880  30.8046110  49.3978530 114.6713000  31.8673840  48.8728600
 122.9207630  30.5827410  36.3516820 123.0959820  29.8965150  35.7077740
 122.2229200  31.1074460  35.9593490 111.8726180  13.7046590  49.1184450
 111.5910450  14.2080190  48.3545270 112.2545880  12.9068340  48.7526580
 110.7635280  30.9722250  33.9052130 111.4954100  30.6881530  33.3576020
 111.0228950  30.7335530  34.7951510 109.9250070  27.0886980  33.9098460
 109.2958950  27.5572080  34.4584290 110.0397900  26.2436200  34.3444650
 118.4741640  13.1200170  49.6964920 118.3607090  13.4394780  50.5916440
 119.2911380  13.5212680  49.4002200 121.2540130  30.2671700  49.1783610
 122.0465450  29.7720930  48.9709570 121.5473280  30.9461840  49.7859220
 117.3799790  21.1392640  20.0599660 117.2993840  20.2247250  19.7891370
 116.9664210  21.6359710  19.3539370 115.5117830  22.9171660  21.9408930
 114.7359930  22.4372100  22.2307500 116.1630760  22.2377310  21.7665090
 109.5283660  23.2291470  22.8184690 108.6968540  22.9740180  23.2181200
 110.1364640  23.3002240  23.5542610 119.5325260  27.3231850  20.7208060
 119.0706790  26.5519090  21.0495230 120.3450810  27.3497920  21.2260510
 109.5084920  27.2631560  23.0142710 109.8112960  26.3729300  22.8352930
 110.2528510  27.8201780  22.7864960 107.9375610  18.1893360  16.6027080
 107.0492310  18.5309330  16.5006960 108.2216800  17.9893680  15.7107910
 105.9008620  20.7899010  22.4866780 106.4724730  20.0221210  22.4870420
 105.9010160  21.0887770  21.5773390 115.7588570  29.6089860  20.3412050
 115.1400010  30.0647360  19.7706490 116.6140350  29.7641320  19.9401750
 114.9526820  25.5928850  21.9479090 114.8835100  24.6518790  21.7868220
 115.7146680  25.6830260  22.5201660 107.1433490  16.1983370  24.2735710
 106.9636330  15.3009120  24.5538470 106.7413570  16.7455240  24.9482660
 115.9831990  18.3999230  22.1748020 116.3596810  17.5271110  22.0621690
 115.8851500  18.7357930  21.2838460 110.1137000  16.7724860  17.6365460
 110.2203750  17.6728590  17.9434220 109.2029360  16.7242830  17.3460110
 119.7656110  15.8949670  19.1076360 120.5865730  15.4046240  19.1501840
 119.7990190  16.4847330  19.8608200 107.7620160  18.6943870  22.8818050
 108.4430270  18.9582240  23.5005450 107.4468210  17.8544740  23.2156060
 111.9544730  19.7411230  21.9690640 112.4622950  20.2392200  22.6095660
 112.4857970  18.9646430  21.7930000 124.0555660  17.9116420  25.6719990
 123.3507830  18.2998130  25.1535100 124.3213580  18.6066710  26.2740920
 110.2380830  14.3809790  26.2354060 110.2399270  14.8982180  25.4299960
 109.4085140  13.9039970  26.2123990 116.6251920  24.4929100  17.7343960
 116.0069190  24.9578550  17.1706680 117.1375170  25.1856580  18.1513470
 111.4883680  24.0204970  24.4127560 111.1553060  24.6473890  25.0548630
 111.6650360  24.5466850  23.6329230 120.0017590  17.8350050  21.8803900
 119.2973160  18.1234940  22.4607010 120.3629750  18.6450160  21.5203460
 109.9196160  16.0919750  24.2424510 110.2612970  16.9361800  23.9478380
 108.9811970  16.2403490  24.3589850 110.7002780  25.9885770  26.2276740
 111.3176780  26.6636850  25.9461190 109.8395900  26.3973750  26.1364240
 105.9935120  25.1785630  15.1083590 105.6163100  25.6672730  14.3768490
 106.2508190  25.8510910  15.7390120 121.6180370  27.4525180  24.1431380
 120.9343890  28.1224290  24.1348050 122.1574660  27.6505830  23.3776240
 123.0704510  17.2804840  22.2713110 122.1229420  17.3143820  22.4028540
 123.3954500  18.0943790  22.6562470 113.6024050  13.5802020  20.5669100
 113.9099030  13.0248910  19.8504600 112.6724750  13.7146480  20.3842090
 119.1539110  29.2969310  22.8576560 119.1666270  28.8931600  21.9898820
 118.6014330  30.0716600  22.7537990 120.4484530  26.0185530  17.9466730
 120.3380860  25.0759860  18.0716150 120.4452780  26.3801170  18.8329490
 118.5524550  24.1999150  24.1859170 118.9693340  23.9859260  23.3512630
 119.2764370  24.4571940  24.7567790 115.9904810  21.6450850  17.3029220
 115.0634090  21.5788230  17.5317690 116.1429630  22.5830980  17.1884460
 115.9773890  17.9167850  14.2996380 115.0377560  18.0781810  14.3848840
 116.2957150  18.6353530  13.7532370 122.4986650  22.5986370  24.2775410
 121.6705280  22.6679460  23.8025540 123.0937130  23.1840680  23.8091240
 120.0202100  23.2071150  17.8064470 119.4014520  22.8690700  17.1590770
 120.0026550  22.5630910  18.5143660 119.4628660  19.3855690  25.2230280
 119.0499840  20.2109400  25.4770270 118.7304610  18.8000730  25.0306640
 111.5961450  22.1715590  20.0848950 111.1918450  21.4592840  19.5894850
 111.6824570  21.8268830  20.9736990 112.0643150  25.8583150  22.2488160
 111.7671440  25.2528620  21.5695940 113.0142970  25.8960460  22.1377520
 110.3090070  18.9458800  23.8647990 110.8604660  19.0554140  23.0901240
 110.8233580  19.3196400  24.5803220 120.1528760  29.4315020  25.9111260
 119.6759320  30.2387210  25.7183870 119.4690550  28.7793350  26.0637470
 111.1561580  25.5964840  28.8995960 110.2590110  25.8204810  29.1469360
 111.1814450  25.7199780  27.9507360 118.1966800  22.4457960  14.8137220
 118.6360080  21.6080390  14.6675040 118.9095220  23.0787360  14.9001360
 109.9832800  22.4678160  27.4753330 109.8440570  23.3400960  27.8440730
 109.1014160  22.1250970  27.3301270 116.3062180  27.3854030  18.7818460
 116.7458090  28.1278360  18.3673850 116.2449070  27.6280600  19.7057420
 111.7813150  28.4099860  29.6838480 111.7528580  28.8142810  28.8166910
 111.6178120  27.4810220  29.5210080 121.7783940  13.7000770  13.1278260
 121.4656600  13.7927600  14.0277330 122.5396410  14.2781800  13.0775690
 108.2966080  21.0660570  17.5855600 108.1763680  21.7922660  16.9736870
 107.9866970  20.2963480  17.1083510 123.7327970  29.1926960  30.9802650
 124.2087690  29.6709850  31.6591730 124.3535130  29.1244450  30.2548150
 105.9351450  24.2375710  23.3924240 106.0131870  24.3724480  22.4479960
 106.5493130  23.5291600  23.5852360 107.1799080  25.9375900  19.8030420
 106.7727160  26.0790490  18.9484020 108.0712090  25.6536060  19.6001630
 123.1361220  26.3839810  28.1402660 123.2624280  26.1451690  27.2219840
 123.1782600  25.5524350  28.6124740 116.9977960  30.0867810  26.7097470
 117.5122630  29.9975820  27.5119900 116.1547040  30.4327510  27.0025380
 118.9732360  30.3723150  16.1381470 118.8133500  30.0826090  17.0363300
 118.8079070  29.5963280  15.6026700 111.4520740  30.1521680  17.9153090
 111.2763220  29.2357220  17.7020890 110.5976480  30.5108970  18.1550890
 118.6758490  27.8810710  14.6979470 117.9823650  27.8788000  14.0381750
 119.4181350  27.4570030  14.2673640 118.2408420  29.5073420  18.7727960
 118.6965370  28.7262800  19.0866580 118.5800940  30.2180240  19.3169140
 122.9885230  18.4372270  29.1052400 122.3729500  18.9451940  28.5767860
 122.6681650  17.5370600  29.0478340 105.9910970  25.2789880  25.9318700
 106.1542010  24.8095240  25.1138070 106.4563420  24.7713440  26.5967540
 110.7629740  14.4095640  20.9679270 110.3197890  15.1905180  20.6363790
 111.3214730  14.7325530  21.6750210 115.0499550  17.2764160  26.5714590
 114.5878920  17.4847180  27.3834530 114.6477660  16.4623510  26.2685260
 120.0504060  18.4973110  27.7011250 119.1997650  18.1978860  28.0220320
 119.8905850  18.7415120  26.7895070 117.1453770  19.9974860  29.8010040
 117.4707180  19.1638610  29.4612270 117.9334100  20.5203380  29.9488370
 113.8788560  14.0306340  15.8485100 113.2542740  14.0266210  16.5738410
 113.7918680  13.1637300  15.4521070 112.8005640  14.9542970  22.8268870
 113.0977970  15.8605800  22.7460890 113.3491200  14.4661750  22.2128440
 110.5543960  19.5329210  18.6960520 110.3284880  19.3166380  19.6007140
 109.7736490  19.9657670  18.3506490 117.7841720  19.5392580  17.2951170
 117.1850610  20.2628380  17.1114790 118.3321330  19.4769360  16.5127620
 112.9943170  20.4314790  29.3620790 112.8986770  19.4909520  29.2121190
 113.8375150  20.6529860  28.9668860 116.3906590  18.1756120  19.3254450
 116.7836160  18.4928320  18.5123140 116.7523440  17.2968000  19.4398970
 108.1253710  16.8428460  27.5154570 107.7317100  17.6903670  27.7227350
 107.4372110  16.2054830  27.7063210 114.6998760  16.9263430  30.5851310
 114.0097080  16.7335630  31.2197400 115.4431060  17.2098070  31.1175610
 105.4270760  14.7656920  21.5484650 105.1383810  15.3359780  22.2609630
 106.1716520  14.2861370  21.9115880 105.6140990  18.7077040  12.7587370
 105.5315660  19.6507800  12.9002360 105.2624050  18.5651950  11.8799720
 116.9761730  20.7661870  23.4205230 116.2442850  21.2748680  23.7695330
 116.5786070  19.9491850  23.1194010 113.4139120  17.4416070  21.8257720
 113.4175180  17.0006020  20.9762260 114.3090240  17.7633400  21.9329540
 109.2641500  17.3242560  20.7851930 108.9241550  17.8017790  21.5418980
 108.5018820  16.8707680  20.4253030 113.4759270  18.4428150  14.8164480
 113.5972090  18.4014630  15.7650300 113.0907780  19.3052300  14.6611210
 117.4387640  16.2195550  22.8328170 117.4560380  16.6704200  23.6770020
 117.1903220  15.3201190  23.0461610 112.4880770  20.7529290  14.2147780
 111.9197670  20.3047540  13.5883690 113.1969770  21.1122070  13.6812930
 120.8658390  13.6327730  28.6714550 121.1904160  12.9017390  29.1972530
 120.9014900  13.3141370  27.7695540 107.5649950  24.6541310  28.0914510
 107.1804740  24.0134980  28.6897470 107.8762140  25.3577430  28.6609240
 113.7147090  21.5017850  23.5723130 114.0817220  21.0276420  24.3184470
 113.5252150  22.3759420  23.9131470 106.5787580  16.2461540  19.7016600
 106.2934500  15.8817210  20.5395220 106.5166440  15.5142000  19.0879740
 111.5046460  20.5426490  25.8907340 111.2003530  21.4218470  26.1157700
 112.4592920  20.6026280  25.9264780 110.0328250  24.7487480  16.4874190
 109.2590510  24.2085100  16.3272910 110.7622880  24.2294090  16.1491950
 120.7916230  23.7452840  22.2800580 121.5115350  24.2408130  21.8896690
 120.5898050  23.0670730  21.6354450 116.2526170  15.1390800  16.4229970
 115.4390780  14.6403970  16.3475280 116.0588120  15.9789050  16.0066320
 116.1735030  23.8161900  28.1669580 116.1072340  22.8957570  27.9127170
 115.5440170  23.9137340  28.8814220 118.9674560  19.5110450  14.7192130
 119.8554180  19.8227680  14.5443470 118.9379650  18.6382700  14.3272710
 110.0765650  24.4167860  20.1253000 110.5944320  23.6136120  20.0709890
 109.6249670  24.3547000  20.9669830 114.9635150  25.6834140  15.3980300
 115.3050850  26.4276370  14.9023620 114.1347860  25.9965260  15.7605130
 107.5610190  21.3829230  27.0378700 107.2025130  22.0483080  27.6252040
 107.2664750  20.5512780  27.4091320 110.7623310  21.8413470  29.9218250
 110.4623450  21.9870650  29.0246070 111.5334550  21.2818760  29.8291640
 116.1051760  26.6382470  27.9173380 116.1196300  25.7063430  27.6992290
 115.3976860  26.7242230  28.5563150 121.2388830  20.8222290  14.1871990
 121.1552550  21.2536510  13.3368430 121.9583020  21.2820640  14.6198810
 122.3162970  23.2789810  27.2641960 121.5911160  23.8718590  27.0671350
 122.8438430  23.2713350  26.4655330 122.2676080  27.6764550  16.9154120
 121.6252240  27.0220170  17.1897840 121.8806740  28.0819640  16.1394790
 117.8462560  25.0049980  20.7625810 118.1986380  24.4078110  20.1027180
 116.9624890  24.6794210  20.9334060 113.9325840  25.7647670  18.1696220
 114.6196970  26.3116880  18.5503810 113.1458260  26.3088400  18.2045830
 106.0718240  21.3820490  13.6613300 106.9413090  21.6645290  13.9449220
 105.5808560  22.1956360  13.5462110 113.2353050  22.7693700  17.7821580
 113.6915830  23.5798950  18.0081770 112.8841260  22.4516840  18.6140070
 115.5385660  28.2800040  25.0113880 116.1827880  28.4859420  25.6887300
 115.9015100  27.5188440  24.5584730 109.1364830  13.1131350  18.2544100
 109.0079460  13.1049250  19.2029020 108.3126850  13.4514440  17.9035110
 116.8117740  26.2832390  23.7291330 117.4539970  25.5825550  23.8423500
 117.3367090  27.0630830  23.5488220 120.6573460  26.5681010  13.4530470
 120.4311040  25.8511450  14.0455110 120.2669660  26.3193450  12.6152220
 118.5855360  27.0827290  26.9327390 118.9211600  27.6693980  27.6105310
 117.6655700  26.9520000  27.1625180 106.4389490  30.5947870  14.2274930
 106.7987130  31.1937210  13.5732200 106.2981830  31.1407760  15.0009960
 106.1358760  14.8722470  27.7150800 105.4217280  15.0719390  28.3203410
 106.5553800  14.0962040  28.0865600 120.2389710  24.4852950  15.1144630
 119.9511410  24.9465640  15.9022510 121.0341880  24.0250720  15.3828850
 106.4231350  28.8602730  28.7017330 106.5322470  27.9197470  28.5612720
 105.7711910  29.1257480  28.0531060 114.4143940  27.1318620  30.1015450
 114.0940810  26.4127860  30.6461140 113.7402300  27.8073690  30.1751510
 112.4558110  27.9779070  15.0448600 112.4468210  28.7108760  14.4293110
 111.5356470  27.7310650  15.1375560 108.0564750  23.1993960  15.7895360
 107.4492700  23.9392860  15.7990660 108.5314100  23.2893320  14.9633560
 117.6297540  17.3644780  25.4652250 117.9978360  16.5439990  25.7931820
 116.7695740  17.4246670  25.8807900 120.9959570  16.3201720  16.2739810
 120.3672730  16.4247390  15.5598040 120.5011490  16.5398500  17.0633690
 115.4417710  28.0407310  13.7073790 115.5429690  27.8371300  12.7775770
 114.5419450  27.7865590  13.9121570 112.9643600  18.5987670  17.6897690
 112.2559750  19.0674010  18.1311300 113.2488080  17.9409680  18.3242880
 114.5899530  20.0184370  25.6890220 115.0884780  20.4930190  26.3542070
 114.7322480  19.0947890  25.8960250 116.9959030  15.3238330  19.1293480
 116.8726810  15.3424460  18.1802990 117.9443590  15.3717270  19.2491880
 114.0835820  30.5593630  18.4021460 114.3377320  30.5215020  17.4800830
 113.1348300  30.4326960  18.3949710 111.1678620  16.9072750  15.0648400
 112.0169150  17.3442900  14.9988590 110.8009890  17.2193010  15.8920460
 121.7966390  16.2352330  26.5318610 121.2939990  16.9757730  26.8712420
 122.6123050  16.6236330  26.2155400 120.0888400  21.4785510  19.9779970
 119.1478540  21.4935740  20.1527660 120.4032470  20.6921470  20.4240270
 110.0670040  23.1605110  13.5383930 110.8333310  23.0486470  14.1009360
 110.1444730  22.4643080  12.8860700 108.7616800  20.5930180  14.2216820
 108.8420390  19.6457690  14.3334220 109.6536550  20.9237060  14.3277480
 122.0913980  28.6494360  21.6534230 122.2161400  29.4725530  22.1258040
 122.9579540  28.4385090  21.3058380 109.5631510  30.7425570  21.3251360
 110.2993990  30.1941030  21.5959930 109.9472430  31.6081580  21.1857350
 106.4476990  26.8099140  17.1992870 105.5216770  27.0520280  17.1898280
 106.9133420  27.6373400  17.0777620 108.5689790  29.9271640  30.5136940
 109.3702520  30.2483690  30.9272340 108.0541610  29.5667220  31.2356850
 112.6733820  29.9155880  13.1476930 113.4662430  30.2044710  12.6958720
 112.1538170  29.4848050  12.4689410 117.4054420  26.0351510  30.4612350
 116.7992580  26.0583110  29.7208100 117.1008530  25.3034550  30.9979600
 118.8354790  29.7631800  29.0721760 119.7876540  29.6789820  29.0222000
 118.6883010  30.4273510  29.7455550 121.7263990  29.1426010  14.5713670
 121.4405500  28.7291150  13.7567850 121.5283540  30.0713720  14.4514190
 106.2887600  22.4145100  29.4572990 106.7926620  21.8352380  30.0289220
 105.5495020  22.6985330  29.9949360 113.1911220  25.1359290  13.0119280
 113.0861860  24.5211640  13.7380660 113.0235440  24.6125180  12.2282290
 113.3425540  23.8216090  28.9908510 112.5771210  24.3901090  28.9063180
 113.5241500  23.5292300  28.0976740 116.4313950  24.1979320  13.6161270
 115.8824050  24.6448620  14.2604010 117.0533210  23.6928570  14.1398940
 120.4848890  25.5521420  29.5483530 121.2258360  25.8897180  29.0450990
 119.7221570  25.7213480  28.9953300 108.3210680  20.5574690  30.3523060
 108.3616020  20.2588560  31.2608290 109.1756180  20.9582300  30.1930580
 112.0989070  23.1570240  15.5126570 112.5205490  22.9910110  16.3557960
 112.2239910  22.3470470  15.0181710 110.2616490  19.1366790  28.3197550
 109.7312950  18.6457740  27.6920890 110.9304560  19.5650990  27.7855480
 114.6116710  22.1807850  12.7603670 115.1322370  21.4656870  12.3944820
 115.2585110  22.8193720  13.0604180 119.1594550  23.6036250  28.0838740
 119.5735570  23.7581330  28.9329160 118.2245550  23.7291470  28.2464520
 119.6316720  20.9432410  30.0877890 120.2137490  20.1884730  29.9998370
 119.8078490  21.4739850  29.3109370 110.7488790  16.1029160  28.3994840
 110.6545660  15.4849910  27.6745710 110.1686180  16.8295450  28.1724750
 113.5150230  14.6602400  25.4322230 113.0667530  14.6826660  24.5867780
 112.8815430  14.2621420  26.0292530 113.9209780  23.5556730  26.0534670
 114.3397890  24.3989460  25.8810910 113.0018410  23.6928770  25.8241450
 116.2573680  21.2872910  27.4372510 116.3769890  20.6914050  28.1767350
 117.1167680  21.3242600  27.0173810 118.5961580  21.8410100  26.0135020
 118.0696800  22.3652720  25.4100160 118.9392920  22.4737490  26.6444750
 110.9947970  19.2303470  12.4584730 110.7937030  18.3670830  12.8198070
 110.8240020  19.1436830  11.5206330 111.7717200  29.8609740  27.1692400
 111.2338290  30.5855800  26.8501100 112.0251160  29.3840080  26.3789740
 113.0242450  17.8294260  28.6948330 113.6142140  17.5210110  29.3826150
 112.2062690  17.3574010  28.8508230 117.8435880  17.4460070  28.9281350
 117.1551400  16.7841610  28.8631340 118.5641900  16.9998340  29.3729810
 118.4736280  14.0411700  14.9871610 118.7538570  13.1979600  15.3431030
 117.7002010  14.2734810  15.5010360 109.7930770  16.3304090  12.4462610
 110.0956670  16.3371520  11.5381760 110.5325360  15.9801950  12.9430270
 114.6279410  31.0960950  27.4279050 114.5538110  31.9996090  27.7351420
 113.7258250  30.7772850  27.4001120 113.0115700  15.2738710  13.4318810
 112.6637700  14.5962700  12.8521260 113.2128470  14.8128220  14.2462200
 115.1764740  30.2619460  15.0505410 116.0715530  30.6004430  15.0724170
 115.2082370  29.5398870  14.4229690 108.8160900  25.6346510  13.2792410
 109.2535770  26.1776180  13.9349990 109.3008630  24.8093460  13.2888750
 106.0306700  28.4235540  20.7312670 106.3609710  27.5556600  20.4991310
 106.4597700  28.6294060  21.5617630 110.6268620  26.7544550  18.3914640
 110.3264160  26.6309520  19.2918550 110.5206110  25.8953140  17.9830370
 106.5196910  29.2906130  23.4694300 106.0827900  29.4706930  24.3018450
 107.0874590  30.0480750  23.3276020 122.1559090  28.7923130  27.7571610
 121.5561080  28.8515690  27.0135530 122.2852990  27.8528110  27.8868460
 123.3960540  26.5340950  13.0941320 122.5653500  26.6017600  13.5648550
 123.5732370  27.4245070  12.7908180 122.8517000  23.2788430  15.5975520
 123.6135910  23.8485080  15.7035210 122.8671370  22.7115630  16.3683830
 106.3521340  21.8026360  19.8283180 105.6970180  21.5338000  19.1842880
 107.1899290  21.6930840  19.3785160 123.8576970  24.1338530  20.4417450
 124.2285800  23.3505850  20.0353420 124.4978900  24.8227630  20.2634750
 120.8410730  25.5175110  25.8547770 120.0270570  25.9472270  26.1173560
 121.2484930  26.1293520  25.2416820 122.9036170  23.5722800  12.7548040
 123.1785010  24.4801680  12.6267260 122.7146910  23.5085330  13.6910030
 119.3011780  16.5967650  14.0501670 119.7196660  16.4098630  13.2098330
 118.9947840  15.7446700  14.3604600 122.8001510  21.5091790  17.7477470
 122.4245110  20.7419720  17.3158760 122.0704630  21.8914490  18.2352400
 107.3897270  22.1878930  24.3686520 107.7570310  22.1006330  25.2482540
 106.8208090  21.4245480  24.2693380 122.1901130  20.6563310  27.3816990
 121.9587220  20.4276060  26.4814940 122.4505680  21.5762860  27.3361880
 106.9413270  19.0988020  28.2744940 106.0469320  19.0654780  28.6138650
 107.4810820  19.2974810  29.0396190 120.6289200  15.8819740  30.1596690
 121.5059380  15.8903140  30.5430690 120.6410040  15.1450580  29.5489040
 105.5659420  19.0125290  15.7708510 104.6623500  19.2755490  15.5960170
 106.0500040  19.2836460  14.9908470 122.0752470  19.7349280  21.0484710
 122.5989950  19.2411930  20.4174880 122.6611890  19.8699640  21.7932280
 122.2542190  19.8189150  24.5704260 121.3044900  19.7852690  24.6849250
 122.4355200  20.7289260  24.3354030 108.1086630  18.0690830  13.6802890
 108.8178330  17.6474050  13.1950170 107.3926570  18.1366060  13.0486240
 107.7560790  14.1230160  12.7205540 108.4788920  14.6639100  13.0386760
 108.0285310  13.8493580  11.8447080 121.5652440  18.9922630  16.9877120
 122.0611560  18.7593500  17.7726000 121.3668510  18.1534470  16.5714760
 107.4452980  13.3736350  22.6228160 108.0929170  12.8233730  22.1823320
 107.8654820  13.6279500  23.4443970 122.9939600  17.6283580  19.5214800
 122.8838880  17.4739620  20.4597070 123.7547190  17.1004520  19.2790210
 121.3405320  13.5677710  25.9797800 121.9777540  14.1811850  26.3456990
 121.4880210  13.6038370  25.0347030 123.8829870  15.4591500  12.7620940
 124.8079180  15.3272680  12.5539230 123.8605660  15.5384320  13.7157390
 123.9568360  16.2302160  15.3877650 123.1619860  16.1647280  15.9170560
 124.1611640  17.1652800  15.3763000 120.8986780  30.2693710  19.3816040
 121.4945850  29.9478280  18.7050460 121.1564930  29.7965530  20.1729310
 107.1984980  13.5292020  25.3653480 106.8499800  13.9855840  26.1311660
 106.8672680  12.6349150  25.4475910 108.8049350  26.7011620  29.5306670
 108.7618980  26.3304530  30.4121130 108.9360360  27.6389190  29.6708490
 112.5055380  28.2571210  25.1316390 112.2646740  28.5245770  24.2446910
 113.4458020  28.4276940  25.1867250 114.7109800  14.7203900  28.8872900
 114.6498690  15.3125730  29.6368310 115.6510180  14.6129860  28.7423160
 117.3484360  14.3773960  28.5265190 117.9624770  14.6953250  27.8646270
 117.8933920  13.8922550  29.1461050 123.7659540  30.2765590  25.9327030
 123.2717820  30.6734460  25.2154160 123.1572830  29.6514800  26.3264310
 107.8705620  13.0568220  28.6404250 108.4188610  12.8756270  27.8770360
 107.9360930  12.2662330  29.1760560 108.6437380  29.6473870  26.6504450
 108.0497700  29.5158570  27.3894490 108.6361220  28.8112010  26.1846550
 118.0892400  12.9406100  24.8534480 117.2152240  13.2741210  24.6507410
 117.9803150  12.4679280  25.6786350 118.9964380  15.1476970  26.2376200
 118.6677740  14.3328730  25.8577930 119.9446680  15.1046780  26.1141890
 121.4498990  30.9189010  23.2113770 120.9901960  31.6704820  22.8371790
 120.8211450  30.1995480  23.1528570 108.2749610  27.0132250  25.6012490
 107.5483670  26.3937540  25.5338440 108.3358760  27.4072860  24.7310570
 111.8794710  29.2277250  22.3861900 112.3959730  28.6164610  21.8610160
 112.5292090  29.7306030  22.8772910 114.6190210  30.1185740  23.2130880
 114.9068020  29.8640040  22.3363890 115.1313430  29.5663100  23.8036450
 115.8367220  13.8575940  23.7927390 115.0539010  14.3321440  24.0724150
 115.5430150  12.9530770  23.6840570 120.3888290  14.5599040  21.8376480
 120.8296380  14.5044140  20.9898080 120.1195880  15.4757050  21.9086660
 122.2526860  14.1914280  19.8485300 122.1915260  13.2475500  19.7016320
 123.0318890  14.2994370  20.3938760 106.5579610  30.3306640  18.8109250
 106.3901650  29.6977320  19.5091140 105.6914120  30.5366040  18.4603440
 107.1807630  14.1623420  16.3141110 107.9386990  14.2752300  15.7405140
 106.7184800  14.9992620  16.2684540 113.7221440  16.2762690  19.3043420
 112.9095950  15.9019580  18.9639300 114.2263080  15.5207770  19.6064610
 118.2246420  12.9405140  20.5426490 118.8275790  13.5125350  21.0175010
 117.4839410  13.5044580  20.3200390 121.3681020  13.3426700  15.8166770
 121.5631650  14.2410150  16.0834200 120.5810890  13.1113780  16.3099720
 108.1642310  29.0239870  16.2559390 107.6389930  29.4047900  15.5521350
 108.0886890  29.6490640  16.9769100 109.5532780  14.6887470  14.8543080
 110.0825540  13.9017270  14.7251030 110.1861100  15.3678660  15.0878610
 111.7470620  14.4262610  17.9088470 111.1173360  13.7249920  18.0758600
 111.2075760  15.1866740  17.6921630 114.6862570  31.0401840  30.5799080
 115.6129880  30.8046110  30.6235040 114.6713000  31.8673840  30.0985110
 122.9207630  30.5827410  17.5773330 123.0959820  29.8965150  16.9334250
 122.2229200  31.1074460  17.1850000 111.8726180  13.7046590  30.3440960
 111.5910450  14.2080190  29.5801780 112.2545880  12.9068340  29.9783090
 110.7635280  30.9722250  15.1308640 111.4954100  30.6881530  14.5832530
 111.0228950  30.7335530  16.0208020 109.9250070  27.0886980  15.1354970
 109.2958950  27.5572080  15.6840800 110.0397900  26.2436200  15.5701160
 118.4741640  13.1200170  30.9221430 118.3607090  13.4394780  31.8172950
 119.2911380  13.5212680  30.6258710 121.2540130  30.2671700  30.4040120
 122.0465450  29.7720930  30.1966080 121.5473280  30.9461840  31.0115730
 115.5117830  22.9171660   3.1665440 114.7359930  22.4372100   3.4564010
 116.1630760  22.2377310   2.9921600 109.5283660  23.2291470   4.0441200
 108.6968540  22.9740180   4.4437710 110.1364640  23.3002240   4.7799120
 119.5325260  27.3231850   1.9464570 119.0706790  26.5519090   2.2751740
 120.3450810  27.3497920   2.4517020 109.5084920  27.2631560   4.2399220
 109.8112960  26.3729300   4.0609440 110.2528510  27.8201780   4.0121470
 105.9008620  20.7899010   3.7123290 106.4724730  20.0221210   3.7126930
 105.9010160  21.0887770   2.8029900 114.9526820  25.5928850   3.1735600
 114.8835100  24.6518790   3.0124730 115.7146680  25.6830260   3.7458170
 107.1433490  16.1983370   5.4992220 106.9636330  15.3009120   5.7794980
 106.7413570  16.7455240   6.1739170 115.9831990  18.3999230   3.4004530
 116.3596810  17.5271110   3.2878200 115.8851500  18.7357930   2.5094970
 107.7620160  18.6943870   4.1074560 108.4430270  18.9582240   4.7261960
 107.4468210  17.8544740   4.4412570 111.9544730  19.7411230   3.1947150
 112.4622950  20.2392200   3.8352170 112.4857970  18.9646430   3.0186510
 124.0555660  17.9116420   6.8976500 123.3507830  18.2998130   6.3791610
 124.3213580  18.6066710   7.4997430 110.2380830  14.3809790   7.4610570
 110.2399270  14.8982180   6.6556470 109.4085140  13.9039970   7.4380500
 111.4883680  24.0204970   5.6384070 111.1553060  24.6473890   6.2805140
 111.6650360  24.5466850   4.8585740 120.0017590  17.8350050   3.1060410
 119.2973160  18.1234940   3.6863520 120.3629750  18.6450160   2.7459970
 109.9196160  16.0919750   5.4681020 110.2612970  16.9361800   5.1734890
 108.9811970  16.2403490   5.5846360 110.7002780  25.9885770   7.4533250
 111.3176780  26.6636850   7.1717700 109.8395900  26.3973750   7.3620750
 121.6180370  27.4525180   5.3687890 120.9343890  28.1224290   5.3604560
 122.1574660  27.6505830   4.6032750 123.0704510  17.2804840   3.4969620
 122.1229420  17.3143820   3.6285050 123.3954500  18.0943790   3.8818980
 119.1539110  29.2969310   4.0833070 119.1666270  28.8931600   3.2155330
 118.6014330  30.0716600   3.9794500 118.5524550  24.1999150   5.4115680
 118.9693340  23.9859260   4.5769140 119.2764370  24.4571940   5.9824300
 122.4986650  22.5986370   5.5031920 121.6705280  22.6679460   5.0282050
 123.0937130  23.1840680   5.0347750 119.4628660  19.3855690   6.4486790
 119.0499840  20.2109400   6.7026780 118.7304610  18.8000730   6.2563150
 112.0643150  25.8583150   3.4744670 111.7671440  25.2528620   2.7952450
 113.0142970  25.8960460   3.3634030 110.3090070  18.9458800   5.0904500
 110.8604660  19.0554140   4.3157750 110.8233580  19.3196400   5.8059730
 120.1528760  29.4315020   7.1367770 119.6759320  30.2387210   6.9440380
 119.4690550  28.7793350   7.2893980 111.1561580  25.5964840  10.1252470
 110.2590110  25.8204810  10.3725870 111.1814450  25.7199780   9.1763870
 109.9832800  22.4678160   8.7009840 109.8440570  23.3400960   9.0697240
 109.1014160  22.1250970   8.5557780 111.7813150  28.4099860  10.9094990
 111.7528580  28.8142810  10.0423420 111.6178120  27.4810220  10.7466590
 123.7327970  29.1926960  12.2059160 124.2087690  29.6709850  12.8848240
 124.3535130  29.1244450  11.4804660 105.9351450  24.2375710   4.6180750
 106.0131870  24.3724480   3.6736470 106.5493130  23.5291600   4.8108870
 123.1361220  26.3839810   9.3659170 123.2624280  26.1451690   8.4476350
 123.1782600  25.5524350   9.8381250 116.9977960  30.0867810   7.9353980
 117.5122630  29.9975820   8.7376410 116.1547040  30.4327510   8.2281890
 122.9885230  18.4372270  10.3308910 122.3729500  18.9451940   9.8024370
 122.6681650  17.5370600  10.2734850 105.9910970  25.2789880   7.1575210
 106.1542010  24.8095240   6.3394580 106.4563420  24.7713440   7.8224050
 110.7629740  14.4095640   2.1935780 110.3197890  15.1905180   1.8620300
 111.3214730  14.7325530   2.9006720 115.0499550  17.2764160   7.7971100
 114.5878920  17.4847180   8.6091040 114.6477660  16.4623510   7.4941770
 120.0504060  18.4973110   8.9267760 119.1997650  18.1978860   9.2476830
 119.8905850  18.7415120   8.0151580 117.1453770  19.9974860  11.0266550
 117.4707180  19.1638610  10.6868780 117.9334100  20.5203380  11.1744880
 112.8005640  14.9542970   4.0525380 113.0977970  15.8605800   3.9717400
 113.3491200  14.4661750   3.4384950 112.9943170  20.4314790  10.5877300
 112.8986770  19.4909520  10.4377700 113.8375150  20.6529860  10.1925370
 108.1253710  16.8428460   8.7411080 107.7317100  17.6903670   8.9483860
 107.4372110  16.2054830   8.9319720 114.6998760  16.9263430  11.8107820
 114.0097080  16.7335630  12.4453910 115.4431060  17.2098070  12.3432120
 105.4270760  14.7656920   2.7741160 105.1383810  15.3359780   3.4866140
 106.1716520  14.2861370   3.1372390 116.9761730  20.7661870   4.6461740
 116.2442850  21.2748680   4.9951840 116.5786070  19.9491850   4.3450520
 113.4139120  17.4416070   3.0514230 113.4175180  17.0006020   2.2018770
 114.3090240  17.7633400   3.1586050 109.2641500  17.3242560   2.0108440
 108.9241550  17.8017790   2.7675490 108.5018820  16.8707680   1.6509540
 117.4387640  16.2195550   4.0584680 117.4560380  16.6704200   4.9026530
 117.1903220  15.3201190   4.2718120 120.8658390  13.6327730   9.8971060
 121.1904160  12.9017390  10.4229040 120.9014900  13.3141370   8.9952050
 107.5649950  24.6541310   9.3171020 107.1804740  24.0134980   9.9153980
 107.8762140  25.3577430   9.8865750 113.7147090  21.5017850   4.7979640
 114.0817220  21.0276420   5.5440980 113.5252150  22.3759420   5.1387980
 111.5046460  20.5426490   7.1163850 111.2003530  21.4218470   7.3414210
 112.4592920  20.6026280   7.1521290 120.7916230  23.7452840   3.5057090
 121.5115350  24.2408130   3.1153200 120.5898050  23.0670730   2.8610960
 116.1735030  23.8161900   9.3926090 116.1072340  22.8957570   9.1383680
 115.5440170  23.9137340  10.1070730 107.5610190  21.3829230   8.2635210
 107.2025130  22.0483080   8.8508550 107.2664750  20.5512780   8.6347830
 110.7623310  21.8413470  11.1474760 110.4623450  21.9870650  10.2502580
 111.5334550  21.2818760  11.0548150 116.1051760  26.6382470   9.1429890
 116.1196300  25.7063430   8.9248800 115.3976860  26.7242230   9.7819660
 122.3162970  23.2789810   8.4898470 121.5911160  23.8718590   8.2927860
 122.8438430  23.2713350   7.6911840 115.5385660  28.2800040   6.2370390
 116.1827880  28.4859420   6.9143810 115.9015100  27.5188440   5.7841240
 116.8117740  26.2832390   4.9547840 117.4539970  25.5825550   5.0680010
 117.3367090  27.0630830   4.7744730 118.5855360  27.0827290   8.1583900
 118.9211600  27.6693980   8.8361820 117.6655700  26.9520000   8.3881690
 106.1358760  14.8722470   8.9407310 105.4217280  15.0719390   9.5459920
 106.5553800  14.0962040   9.3122110 106.4231350  28.8602730   9.9273840
 106.5322470  27.9197470   9.7869230 105.7711910  29.1257480   9.2787570
 114.4143940  27.1318620  11.3271960 114.0940810  26.4127860  11.8717650
 113.7402300  27.8073690  11.4008020 117.6297540  17.3644780   6.6908760
 117.9978360  16.5439990   7.0188330 116.7695740  17.4246670   7.1064410
 114.5899530  20.0184370   6.9146730 115.0884780  20.4930190   7.5798580
 114.7322480  19.0947890   7.1216760 121.7966390  16.2352330   7.7575120
 121.2939990  16.9757730   8.0968930 122.6123050  16.6236330   7.4411910
 122.0913980  28.6494360   2.8790740 122.2161400  29.4725530   3.3514550
 122.9579540  28.4385090   2.5314890 109.5631510  30.7425570   2.5507870
 110.2993990  30.1941030   2.8216440 109.9472430  31.6081580   2.4113860
 108.5689790  29.9271640  11.7393450 109.3702520  30.2483690  12.1528850
 108.0541610  29.5667220  12.4613360 117.4054420  26.0351510  11.6868860
 116.7992580  26.0583110  10.9464610 117.1008530  25.3034550  12.2236110
 118.8354790  29.7631800  10.2978270 119.7876540  29.6789820  10.2478510
 118.6883010  30.4273510  10.9712060 106.2887600  22.4145100  10.6829500
 106.7926620  21.8352380  11.2545730 105.5495020  22.6985330  11.2205870
 113.3425540  23.8216090  10.2165020 112.5771210  24.3901090  10.1319690
 113.5241500  23.5292300   9.3233250 120.4848890  25.5521420  10.7740040
 121.2258360  25.8897180  10.2707500 119.7221570  25.7213480  10.2209810
 108.3210680  20.5574690  11.5779570 108.3616020  20.2588560  12.4864800
 109.1756180  20.9582300  11.4187090 110.2616490  19.1366790   9.5454060
 109.7312950  18.6457740   8.9177400 110.9304560  19.5650990   9.0111990
 119.1594550  23.6036250   9.3095250 119.5735570  23.7581330  10.1585670
 118.2245550  23.7291470   9.4721030 119.6316720  20.9432410  11.3134400
 120.2137490  20.1884730  11.2254880 119.8078490  21.4739850  10.5365880
 110.7488790  16.1029160   9.6251350 110.6545660  15.4849910   8.9002220
 110.1686180  16.8295450   9.3981260 113.5150230  14.6602400   6.6578740
 113.0667530  14.6826660   5.8124290 112.8815430  14.2621420   7.2549040
 113.9209780  23.5556730   7.2791180 114.3397890  24.3989460   7.1067420
 113.0018410  23.6928770   7.0497960 116.2573680  21.2872910   8.6629020
 116.3769890  20.6914050   9.4023860 117.1167680  21.3242600   8.2430320
 118.5961580  21.8410100   7.2391530 118.0696800  22.3652720   6.6356670
 118.9392920  22.4737490   7.8701260 111.7717200  29.8609740   8.3948910
 111.2338290  30.5855800   8.0757610 112.0251160  29.3840080   7.6046250
 113.0242450  17.8294260   9.9204840 113.6142140  17.5210110  10.6082660
 112.2062690  17.3574010  10.0764740 117.8435880  17.4460070  10.1537860
 117.1551400  16.7841610  10.0887850 118.5641900  16.9998340  10.5986320
 114.6279410  31.0960950   8.6535560 114.5538110  31.9996090   8.9607930
 113.7258250  30.7772850   8.6257630 106.0306700  28.4235540   1.9569180
 106.3609710  27.5556600   1.7247820 106.4597700  28.6294060   2.7874140
 106.5196910  29.2906130   4.6950810 106.0827900  29.4706930   5.5274960
 107.0874590  30.0480750   4.5532530 122.1559090  28.7923130   8.9828120
 121.5561080  28.8515690   8.2392040 122.2852990  27.8528110   9.1124970
 120.8410730  25.5175110   7.0804280 120.0270570  25.9472270   7.3430070
 121.2484930  26.1293520   6.4673330 107.3897270  22.1878930   5.5943030
 107.7570310  22.1006330   6.4739050 106.8208090  21.4245480   5.4949890
 122.1901130  20.6563310   8.6073500 121.9587220  20.4276060   7.7071450
 122.4505680  21.5762860   8.5618390 106.9413270  19.0988020   9.5001450
 106.0469320  19.0654780   9.8395160 107.4810820  19.2974810  10.2652700
 120.6289200  15.8819740  11.3853200 121.5059380  15.8903140  11.7687200
 120.6410040  15.1450580  10.7745550 122.0752470  19.7349280   2.2741220
 122.5989950  19.2411930   1.6431390 122.6611890  19.8699640   3.0188790
 122.2542190  19.8189150   5.7960770 121.3044900  19.7852690   5.9105760
 122.4355200  20.7289260   5.5610540 107.4452980  13.3736350   3.8484670
 108.0929170  12.8233730   3.4079830 107.8654820  13.6279500   4.6700480
 121.3405320  13.5677710   7.2054310 121.9777540  14.1811850   7.5713500
 121.4880210  13.6038370   6.2603540 107.1984980  13.5292020   6.5909990
 106.8499800  13.9855840   7.3568170 106.8672680  12.6349150   6.6732420
 108.8049350  26.7011620  10.7563180 108.7618980  26.3304530  11.6377640
 108.9360360  27.6389190  10.8965000 112.5055380  28.2571210   6.3572900
 112.2646740  28.5245770   5.4703420 113.4458020  28.4276940   6.4123760
 114.7109800  14.7203900  10.1129410 114.6498690  15.3125730  10.8624820
 115.6510180  14.6129860   9.9679670 117.3484360  14.3773960   9.7521700
 117.9624770  14.6953250   9.0902780 117.8933920  13.8922550  10.3717560
 123.7659540  30.2765590   7.1583540 123.2717820  30.6734460   6.4410670
 123.1572830  29.6514800   7.5520820 107.8705620  13.0568220   9.8660760
 108.4188610  12.8756270   9.1026870 107.9360930  12.2662330  10.4017070
 108.6437380  29.6473870   7.8760960 108.0497700  29.5158570   8.6151000
 108.6361220  28.8112010   7.4103060 118.0892400  12.9406100   6.0790990
 117.2152240  13.2741210   5.8763920 117.9803150  12.4679280   6.9042860
 118.9964380  15.1476970   7.4632710 118.6677740  14.3328730   7.0834440
 119.9446680  15.1046780   7.3398400 121.4498990  30.9189010   4.4370280
 120.9901960  31.6704820   4.0628300 120.8211450  30.1995480   4.3785080
 108.2749610  27.0132250   6.8269000 107.5483670  26.3937540   6.7594950
 108.3358760  27.4072860   5.9567080 111.8794710  29.2277250   3.6118410
 112.3959730  28.6164610   3.0866670 112.5292090  29.7306030   4.1029420
 114.6190210  30.1185740   4.4387390 114.9068020  29.8640040   3.5620400
 115.1313430  29.5663100   5.0292960 115.8367220  13.8575940   5.0183900
 115.0539010  14.3321440   5.2980660 115.5430150  12.9530770   4.9097080
 120.3888290  14.5599040   3.0632990 120.8296380  14.5044140   2.2154590
 120.1195880  15.4757050   3.1343170 118.2246420  12.9405140   1.7683000
 118.8275790  13.5125350   2.2431520 117.4839410  13.5044580   1.5456900
 114.6862570  31.0401840  11.8055590 115.6129880  30.8046110  11.8491550
 114.6713000  31.8673840  11.3241620 111.8726180  13.7046590  11.5697470
 111.5910450  14.2080190  10.8058290 112.2545880  12.9068340  11.2039600
 118.4741640  13.1200170  12.1477940 118.3607090  13.4394780  13.0429460
 119.2911380  13.5212680  11.8515220 121.2540130  30.2671700  11.6296630
 122.0465450  29.7720930  11.4222590 121.5473280  30.9461840  12.2372240
 115.5117830   4.1428170 153.3613360 114.7359930   3.6628610 153.6511930
 116.1630760   3.4633820 153.1869520 119.5325260   8.5488360 152.1412490
 119.0706790   7.7775600 152.4699660 120.3450810   8.5754430 152.6464940
 109.5084920   8.4888070 154.4347140 109.8112960   7.5985810 154.2557360
 110.2528510   9.0458290 154.2069390 115.7588570  10.8346370 151.7616480
 115.1400010  11.2903870 151.1910920 116.6140350  10.9897830 151.3606180
 114.9526820   6.8185360 153.3683520 114.8835100   5.8775300 153.2072650
 115.7146680   6.9086770 153.9406090 116.6251920   5.7185610 149.1548390
 116.0069190   6.1835060 148.5911110 117.1375170   6.4113090 149.5717900
 105.9935120   6.4042140 146.5288020 105.6163100   6.8929240 145.7972920
 106.2508190   7.0767420 147.1594550 119.1539110  10.5225820 154.2780990
 119.1666270  10.1188110 153.4103250 118.6014330  11.2973110 154.1742420
 120.4484530   7.2442040 149.3671160 120.3380860   6.3016370 149.4920580
 120.4452780   7.6057680 150.2533920 115.9904810   2.8707360 148.7233650
 115.0634090   2.8044740 148.9522120 116.1429630   3.8087490 148.6088890
 120.0202100   4.4327660 149.2268900 119.4014520   4.0947210 148.5795200
 120.0026550   3.7887420 149.9348090 111.5961450   3.3972100 151.5053380
 111.1918450   2.6849350 151.0099280 111.6824570   3.0525340 152.3941420
 112.0643150   7.0839660 153.6692590 111.7671440   6.4785130 152.9900370
 113.0142970   7.1216970 153.5581950 118.1966800   3.6714470 146.2341650
 118.6360080   2.8336900 146.0879470 118.9095220   4.3043870 146.3205790
 116.3062180   8.6110540 150.2022890 116.7458090   9.3534870 149.7878280
 116.2449070   8.8537110 151.1261850 107.1799080   7.1632410 151.2234850
 106.7727160   7.3047000 150.3688450 108.0712090   6.8792570 151.0206060
 118.9732360  11.5979660 147.5585900 118.8133500  11.3082600 148.4567730
 118.8079070  10.8219790 147.0231130 111.4520740  11.3778190 149.3357520
 111.2763220  10.4613730 149.1225320 110.5976480  11.7365480 149.5755320
 118.6758490   9.1067220 146.1183900 117.9823650   9.1044510 145.4586180
 119.4181350   8.6826540 145.6878070 118.2408420  10.7329930 150.1932390
 118.6965370   9.9519310 150.5071010 118.5800940  11.4436750 150.7373570
 110.0328250   5.9743990 147.9078620 109.2590510   5.4341610 147.7477340
 110.7622880   5.4550600 147.5696380 120.7916230   4.9709350 153.7005010
 121.5115350   5.4664640 153.3101120 120.5898050   4.2927240 153.0558880
 110.0765650   5.6424370 151.5457430 110.5944320   4.8392630 151.4914320
 109.6249670   5.5803510 152.3874260 114.9635150   6.9090650 146.8184730
 115.3050850   7.6532880 146.3228050 114.1347860   7.2221770 147.1809560
 121.2388830   2.0478800 145.6076420 121.1552550   2.4793020 144.7572860
 121.9583020   2.5077150 146.0403240 122.2676080   8.9021060 148.3358550
 121.6252240   8.2476680 148.6102270 121.8806740   9.3076150 147.5599220
 117.8462560   6.2306490 152.1830240 118.1986380   5.6334620 151.5231610
 116.9624890   5.9050720 152.3538490 113.9325840   6.9904180 149.5900650
 114.6196970   7.5373390 149.9708240 113.1458260   7.5344910 149.6250260
 106.0718240   2.6077000 145.0817730 106.9413090   2.8901800 145.3653650
 105.5808560   3.4212870 144.9666540 113.2353050   3.9950210 149.2026010
 113.6915830   4.8055460 149.4286200 112.8841260   3.6773350 150.0344500
 120.6573460   7.7937520 144.8734900 120.4311040   7.0767960 145.4659540
 120.2669660   7.5449960 144.0356650 106.4389490  11.8204380 145.6479360
 106.7987130  12.4193720 144.9936630 106.2981830  12.3664270 146.4214390
 120.2389710   5.7109460 146.5349060 119.9511410   6.1722150 147.3226940
 121.0341880   5.2507230 146.8033280 112.4558110   9.2035580 146.4653030
 112.4468210   9.9365270 145.8497540 111.5356470   8.9567160 146.5579990
 108.0564750   4.4250470 147.2099790 107.4492700   5.1649370 147.2195090
 108.5314100   4.5149830 146.3837990 115.4417710   9.2663820 145.1278220
 115.5429690   9.0627810 144.1980200 114.5419450   9.0122100 145.3326000
 114.0835820  11.7850140 149.8225890 114.3377320  11.7471530 148.9005260
 113.1348300  11.6583470 149.8154140 120.0888400   2.7042020 151.3984400
 119.1478540   2.7192250 151.5732090 120.4032470   1.9177980 151.8444700
 110.0670040   4.3861620 144.9588360 110.8333310   4.2742980 145.5213790
 110.1444730   3.6899590 144.3065130 122.0913980   9.8750870 153.0738660
 122.2161400  10.6982040 153.5462470 122.9579540   9.6641600 152.7262810
 109.5631510  11.9682080 152.7455790 110.2993990  11.4197540 153.0164360
 109.9472430  12.8338090 152.6061780 106.4476990   8.0355650 148.6197300
 105.5216770   8.2776790 148.6102710 106.9133420   8.8629910 148.4982050
 112.6733820  11.1412390 144.5681360 113.4662430  11.4301220 144.1163150
 112.1538170  10.7104560 143.8893840 121.7263990  10.3682520 145.9918100
 121.4405500   9.9547660 145.1772280 121.5283540  11.2970230 145.8718620
 113.1911220   6.3615800 144.4323710 113.0861860   5.7468150 145.1585090
 113.0235440   5.8381690 143.6486720 116.4313950   5.4235830 145.0365700
 115.8824050   5.8705130 145.6808440 117.0533210   4.9185080 145.5603370
 112.0989070   4.3826750 146.9331000 112.5205490   4.2166620 147.7762390
 112.2239910   3.5726980 146.4386140 114.6116710   3.4064360 144.1808100
 115.1322370   2.6913380 143.8149250 115.2585110   4.0450230 144.4808610
 115.1764740  11.4875970 146.4709840 116.0715530  11.8260940 146.4928600
 115.2082370  10.7655380 145.8434120 108.8160900   6.8603020 144.6996840
 109.2535770   7.4032690 145.3554420 109.3008630   6.0349970 144.7093180
 106.0306700   9.6492050 152.1517100 106.3609710   8.7813110 151.9195740
 106.4597700   9.8550570 152.9822060 110.6268620   7.9801060 149.8119070
 110.3264160   7.8566030 150.7122980 110.5206110   7.1209650 149.4034800
 123.3960540   7.7597460 144.5145750 122.5653500   7.8274110 144.9852980
 123.5732370   8.6501580 144.2112610 122.8517000   4.5044940 147.0179950
 123.6135910   5.0741590 147.1239640 122.8671370   3.9372140 147.7888260
 106.3521340   3.0282870 151.2487610 105.6970180   2.7594510 150.6047310
 107.1899290   2.9187350 150.7989590 123.8576970   5.3595040 151.8621880
 124.2285800   4.5762360 151.4557850 124.4978900   6.0484140 151.6839180
 122.9036170   4.7979310 144.1752470 123.1785010   5.7058190 144.0471690
 122.7146910   4.7341840 145.1114460 122.8001510   2.7348300 149.1681900
 122.4245110   1.9676230 148.7363190 122.0704630   3.1171000 149.6556830
 120.8986780  11.4950220 150.8020470 121.4945850  11.1734790 150.1254890
 121.1564930  11.0222040 151.5933740 111.8794710  10.4533760 153.8066330
 112.3959730   9.8421120 153.2814590 112.5292090  10.9562540 154.2977340
 106.5579610  11.5563150 150.2313680 106.3901650  10.9233830 150.9295570
 105.6914120  11.7622550 149.8807870 108.1642310  10.2496380 147.6763820
 107.6389930  10.6304410 146.9725780 108.0886890  10.8747150 148.3973530
 122.9207630  11.8083920 148.9977760 123.0959820  11.1221660 148.3538680
 122.2229200  12.3330970 148.6054430 110.7635280  12.1978760 146.5513070
 111.4954100  11.9138040 146.0036960 111.0228950  11.9592040 147.4412450
 109.9250070   8.3143490 146.5559400 109.2958950   8.7828590 147.1045230
 110.0397900   7.4692710 146.9905590 115.5117830   4.1428170 134.5869870
 114.7359930   3.6628610 134.8768440 116.1630760   3.4633820 134.4126030
 109.5283660   4.4547980 135.4645630 108.6968540   4.1996690 135.8642140
 110.1364640   4.5258750 136.2003550 119.5325260   8.5488360 133.3669000
 119.0706790   7.7775600 133.6956170 120.3450810   8.5754430 133.8721450
 109.5084920   8.4888070 135.6603650 109.8112960   7.5985810 135.4813870
 110.2528510   9.0458290 135.4325900 115.7588570  10.8346370 132.9872990
 115.1400010  11.2903870 132.4167430 116.6140350  10.9897830 132.5862690
 114.9526820   6.8185360 134.5940030 114.8835100   5.8775300 134.4329160
 115.7146680   6.9086770 135.1662600 116.6251920   5.7185610 130.3804900
 116.0069190   6.1835060 129.8167620 117.1375170   6.4113090 130.7974410
 111.4883680   5.2461480 137.0588500 111.1553060   5.8730400 137.7009570
 111.6650360   5.7723360 136.2790170 110.7002780   7.2142280 138.8737680
 111.3176780   7.8893360 138.5922130 109.8395900   7.6230260 138.7825180
 105.9935120   6.4042140 127.7544530 105.6163100   6.8929240 127.0229430
 106.2508190   7.0767420 128.3851060 121.6180370   8.6781690 136.7892320
 120.9343890   9.3480800 136.7808990 122.1574660   8.8762340 136.0237180
 119.1539110  10.5225820 135.5037500 119.1666270  10.1188110 134.6359760
 118.6014330  11.2973110 135.3998930 120.4484530   7.2442040 130.5927670
 120.3380860   6.3016370 130.7177090 120.4452780   7.6057680 131.4790430
 118.5524550   5.4255660 136.8320110 118.9693340   5.2115770 135.9973570
 119.2764370   5.6828450 137.4028730 115.9904810   2.8707360 129.9490160
 115.0634090   2.8044740 130.1778630 116.1429630   3.8087490 129.8345400
 122.4986650   3.8242880 136.9236350 121.6705280   3.8935970 136.4486480
 123.0937130   4.4097190 136.4552180 120.0202100   4.4327660 130.4525410
 119.4014520   4.0947210 129.8051710 120.0026550   3.7887420 131.1604600
 111.5961450   3.3972100 132.7309890 111.1918450   2.6849350 132.2355790
 111.6824570   3.0525340 133.6197930 112.0643150   7.0839660 134.8949100
 111.7671440   6.4785130 134.2156880 113.0142970   7.1216970 134.7838460
 120.1528760  10.6571530 138.5572200 119.6759320  11.4643720 138.3644810
 119.4690550  10.0049860 138.7098410 111.1561580   6.8221350 141.5456900
 110.2590110   7.0461320 141.7930300 111.1814450   6.9456290 140.5968300
 118.1966800   3.6714470 127.4598160 118.6360080   2.8336900 127.3135980
 118.9095220   4.3043870 127.5462300 109.9832800   3.6934670 140.1214270
 109.8440570   4.5657470 140.4901670 109.1014160   3.3507480 139.9762210
 116.3062180   8.6110540 131.4279400 116.7458090   9.3534870 131.0134790
 116.2449070   8.8537110 132.3518360 111.7813150   9.6356370 142.3299420
 111.7528580  10.0399320 141.4627850 111.6178120   8.7066730 142.1671020
 123.7327970  10.4183470 143.6263590 124.2087690  10.8966360 144.3052670
 124.3535130  10.3500960 142.9009090 105.9351450   5.4632220 136.0385180
 106.0131870   5.5980990 135.0940900 106.5493130   4.7548110 136.2313300
 107.1799080   7.1632410 132.4491360 106.7727160   7.3047000 131.5944960
 108.0712090   6.8792570 132.2462570 123.1361220   7.6096320 140.7863600
 123.2624280   7.3708200 139.8680780 123.1782600   6.7780860 141.2585680
 116.9977960  11.3124320 139.3558410 117.5122630  11.2232330 140.1580840
 116.1547040  11.6584020 139.6486320 118.9732360  11.5979660 128.7842410
 118.8133500  11.3082600 129.6824240 118.8079070  10.8219790 128.2487640
 111.4520740  11.3778190 130.5614030 111.2763220  10.4613730 130.3481830
 110.5976480  11.7365480 130.8011830 118.6758490   9.1067220 127.3440410
 117.9823650   9.1044510 126.6842690 119.4181350   8.6826540 126.9134580
 118.2408420  10.7329930 131.4188900 118.6965370   9.9519310 131.7327520
 118.5800940  11.4436750 131.9630080 105.9910970   6.5046390 138.5779640
 106.1542010   6.0351750 137.7599010 106.4563420   5.9969950 139.2428480
 107.5649950   5.8797820 140.7375450 107.1804740   5.2391490 141.3358410
 107.8762140   6.5833940 141.3070180 113.7147090   2.7274360 136.2184070
 114.0817220   2.2532930 136.9645410 113.5252150   3.6015930 136.5592410
 111.5046460   1.7683000 138.5368280 111.2003530   2.6474980 138.7618640
 112.4592920   1.8282790 138.5725720 110.0328250   5.9743990 129.1335130
 109.2590510   5.4341610 128.9733850 110.7622880   5.4550600 128.7952890
 120.7916230   4.9709350 134.9261520 121.5115350   5.4664640 134.5357630
 120.5898050   4.2927240 134.2815390 116.1735030   5.0418410 140.8130520
 116.1072340   4.1214080 140.5588110 115.5440170   5.1393850 141.5275160
 110.0765650   5.6424370 132.7713940 110.5944320   4.8392630 132.7170830
 109.6249670   5.5803510 133.6130770 114.9635150   6.9090650 128.0441240
 115.3050850   7.6532880 127.5484560 114.1347860   7.2221770 128.4066070
 107.5610190   2.6085740 139.6839640 107.2025130   3.2739590 140.2712980
 107.2664750   1.7769290 140.0552260 110.7623310   3.0669980 142.5679190
 110.4623450   3.2127160 141.6707010 111.5334550   2.5075270 142.4752580
 116.1051760   7.8638980 140.5634320 116.1196300   6.9319940 140.3453230
 115.3976860   7.9498740 141.2024090 121.2388830   2.0478800 126.8332930
 121.1552550   2.4793020 125.9829370 121.9583020   2.5077150 127.2659750
 122.3162970   4.5046320 139.9102900 121.5911160   5.0975100 139.7132290
 122.8438430   4.4969860 139.1116270 122.2676080   8.9021060 129.5615060
 121.6252240   8.2476680 129.8358780 121.8806740   9.3076150 128.7855730
 117.8462560   6.2306490 133.4086750 118.1986380   5.6334620 132.7488120
 116.9624890   5.9050720 133.5795000 113.9325840   6.9904180 130.8157160
 114.6196970   7.5373390 131.1964750 113.1458260   7.5344910 130.8506770
 106.0718240   2.6077000 126.3074240 106.9413090   2.8901800 126.5910160
 105.5808560   3.4212870 126.1923050 113.2353050   3.9950210 130.4282520
 113.6915830   4.8055460 130.6542710 112.8841260   3.6773350 131.2601010
 115.5385660   9.5056550 137.6574820 116.1827880   9.7115930 138.3348240
 115.9015100   8.7444950 137.2045670 116.8117740   7.5088900 136.3752270
 117.4539970   6.8082060 136.4884440 117.3367090   8.2887340 136.1949160
 120.6573460   7.7937520 126.0991410 120.4311040   7.0767960 126.6916050
 120.2669660   7.5449960 125.2613160 118.5855360   8.3083800 139.5788330
 118.9211600   8.8950490 140.2566250 117.6655700   8.1776510 139.8086120
 106.4389490  11.8204380 126.8735870 106.7987130  12.4193720 126.2193140
 106.2981830  12.3664270 127.6470900 120.2389710   5.7109460 127.7605570
 119.9511410   6.1722150 128.5483450 121.0341880   5.2507230 128.0289790
 106.4231350  10.0859240 141.3478270 106.5322470   9.1453980 141.2073660
 105.7711910  10.3513990 140.6992000 114.4143940   8.3575130 142.7476390
 114.0940810   7.6384370 143.2922080 113.7402300   9.0330200 142.8212450
 112.4558110   9.2035580 127.6909540 112.4468210   9.9365270 127.0754050
 111.5356470   8.9567160 127.7836500 108.0564750   4.4250470 128.4356300
 107.4492700   5.1649370 128.4451600 108.5314100   4.5149830 127.6094500
 115.4417710   9.2663820 126.3534730 115.5429690   9.0627810 125.4236710
 114.5419450   9.0122100 126.5582510 114.0835820  11.7850140 131.0482400
 114.3377320  11.7471530 130.1261770 113.1348300  11.6583470 131.0410650
 120.0888400   2.7042020 132.6240910 119.1478540   2.7192250 132.7988600
 120.4032470   1.9177980 133.0701210 110.0670040   4.3861620 126.1844870
 110.8333310   4.2742980 126.7470300 110.1444730   3.6899590 125.5321640
 122.0913980   9.8750870 134.2995170 122.2161400  10.6982040 134.7718980
 122.9579540   9.6641600 133.9519320 109.5631510  11.9682080 133.9712300
 110.2993990  11.4197540 134.2420870 109.9472430  12.8338090 133.8318290
 106.4476990   8.0355650 129.8453810 105.5216770   8.2776790 129.8359220
 106.9133420   8.8629910 129.7238560 108.5689790  11.1528150 143.1597880
 109.3702520  11.4740200 143.5733280 108.0541610  10.7923730 143.8817790
 112.6733820  11.1412390 125.7937870 113.4662430  11.4301220 125.3419660
 112.1538170  10.7104560 125.1150350 117.4054420   7.2608020 143.1073290
 116.7992580   7.2839620 142.3669040 117.1008530   6.5291060 143.6440540
 118.8354790  10.9888310 141.7182700 119.7876540  10.9046330 141.6682940
 118.6883010  11.6530020 142.3916490 121.7263990  10.3682520 127.2174610
 121.4405500   9.9547660 126.4028790 121.5283540  11.2970230 127.0975130
 106.2887600   3.6401610 142.1033930 106.7926620   3.0608890 142.6750160
 105.5495020   3.9241840 142.6410300 113.1911220   6.3615800 125.6580220
 113.0861860   5.7468150 126.3841600 113.0235440   5.8381690 124.8743230
 113.3425540   5.0472600 141.6369450 112.5771210   5.6157600 141.5524120
 113.5241500   4.7548810 140.7437680 116.4313950   5.4235830 126.2622210
 115.8824050   5.8705130 126.9064950 117.0533210   4.9185080 126.7859880
 120.4848890   6.7777930 142.1944470 121.2258360   7.1153690 141.6911930
 119.7221570   6.9469990 141.6414240 112.0989070   4.3826750 128.1587510
 112.5205490   4.2166620 129.0018900 112.2239910   3.5726980 127.6642650
 114.6116710   3.4064360 125.4064610 115.1322370   2.6913380 125.0405760
 115.2585110   4.0450230 125.7065120 119.1594550   4.8292760 140.7299680
 119.5735570   4.9837840 141.5790100 118.2245550   4.9547980 140.8925460
 113.9209780   4.7813240 138.6995610 114.3397890   5.6245970 138.5271850
 113.0018410   4.9185280 138.4702390 116.2573680   2.5129420 140.0833450
 116.3769890   1.9170560 140.8228290 117.1167680   2.5499110 139.6634750
 118.5961580   3.0666610 138.6595960 118.0696800   3.5909230 138.0561100
 118.9392920   3.6994000 139.2905690 111.7717200  11.0866250 139.8153340
 111.2338290  11.8112310 139.4962040 112.0251160  10.6096590 139.0250680
 114.6279410  12.3217460 140.0739990 114.5538110  13.2252600 140.3812360
 113.7258250  12.0029360 140.0462060 115.1764740  11.4875970 127.6966350
 116.0715530  11.8260940 127.7185110 115.2082370  10.7655380 127.0690630
 108.8160900   6.8603020 125.9253350 109.2535770   7.4032690 126.5810930
 109.3008630   6.0349970 125.9349690 106.0306700   9.6492050 133.3773610
 106.3609710   8.7813110 133.1452250 106.4597700   9.8550570 134.2078570
 110.6268620   7.9801060 131.0375580 110.3264160   7.8566030 131.9379490
 110.5206110   7.1209650 130.6291310 106.5196910  10.5162640 136.1155240
 106.0827900  10.6963440 136.9479390 107.0874590  11.2737260 135.9736960
 122.1559090  10.0179640 140.4032550 121.5561080  10.0772200 139.6596470
 122.2852990   9.0784620 140.5329400 123.3960540   7.7597460 125.7402260
 122.5653500   7.8274110 126.2109490 123.5732370   8.6501580 125.4369120
 122.8517000   4.5044940 128.2436460 123.6135910   5.0741590 128.3496150
 122.8671370   3.9372140 129.0144770 106.3521340   3.0282870 132.4744120
 105.6970180   2.7594510 131.8303820 107.1899290   2.9187350 132.0246100
 123.8576970   5.3595040 133.0878390 124.2285800   4.5762360 132.6814360
 124.4978900   6.0484140 132.9095690 120.8410730   6.7431620 138.5008710
 120.0270570   7.1728780 138.7634500 121.2484930   7.3550030 137.8877760
 122.9036170   4.7979310 125.4008980 123.1785010   5.7058190 125.2728200
 122.7146910   4.7341840 126.3370970 122.8001510   2.7348300 130.3938410
 122.4245110   1.9676230 129.9619700 122.0704630   3.1171000 130.8813340
 107.3897270   3.4135440 137.0147460 107.7570310   3.3262840 137.8943480
 106.8208090   2.6501990 136.9154320 122.1901130   1.8819820 140.0277930
 121.9587220   1.6532570 139.1275880 122.4505680   2.8019370 139.9822820
 120.8986780  11.4950220 132.0276980 121.4945850  11.1734790 131.3511400
 121.1564930  11.0222040 132.8190250 108.8049350   7.9268130 142.1767610
 108.7618980   7.5561040 143.0582070 108.9360360   8.8645700 142.3169430
 112.5055380   9.4827720 137.7777330 112.2646740   9.7502280 136.8907850
 113.4458020   9.6533450 137.8328190 123.7659540  11.5022100 138.5787970
 123.2717820  11.8990970 137.8615100 123.1572830  10.8771310 138.9725250
 108.6437380  10.8730380 139.2965390 108.0497700  10.7415080 140.0355430
 108.6361220  10.0368520 138.8307490 121.4498990  12.1445520 135.8574710
 120.9901960  12.8961330 135.4832730 120.8211450  11.4251990 135.7989510
 108.2749610   8.2388760 138.2473430 107.5483670   7.6194050 138.1799380
 108.3358760   8.6329370 137.3771510 111.8794710  10.4533760 135.0322840
 112.3959730   9.8421120 134.5071100 112.5292090  10.9562540 135.5233850
 114.6190210  11.3442250 135.8591820 114.9068020  11.0896550 134.9824830
 115.1313430  10.7919610 136.4497390 106.5579610  11.5563150 131.4570190
 106.3901650  10.9233830 132.1552080 105.6914120  11.7622550 131.1064380
 108.1642310  10.2496380 128.9020330 107.6389930  10.6304410 128.1982290
 108.0886890  10.8747150 129.6230040 114.6862570  12.2658350 143.2260020
 115.6129880  12.0302620 143.2695980 114.6713000  13.0930350 142.7446050
 122.9207630  11.8083920 130.2234270 123.0959820  11.1221660 129.5795190
 122.2229200  12.3330970 129.8310940 110.7635280  12.1978760 127.7769580
 111.4954100  11.9138040 127.2293470 111.0228950  11.9592040 128.6668960
 109.9250070   8.3143490 127.7815910 109.2958950   8.7828590 128.3301740
 110.0397900   7.4692710 128.2162100 121.2540130  11.4928210 143.0501060
 122.0465450  10.9977440 142.8427020 121.5473280  12.1718350 143.6576670
 115.5117830   4.1428170 115.8126380 114.7359930   3.6628610 116.1024950
 116.1630760   3.4633820 115.6382540 109.5283660   4.4547980 116.6902140
 108.6968540   4.1996690 117.0898650 110.1364640   4.5258750 117.4260060
 119.5325260   8.5488360 114.5925510 119.0706790   7.7775600 114.9212680
 120.3450810   8.5754430 115.0977960 109.5084920   8.4888070 116.8860160
 109.8112960   7.5985810 116.7070380 110.2528510   9.0458290 116.6582410
 115.7588570  10.8346370 114.2129500 115.1400010  11.2903870 113.6423940
 116.6140350  10.9897830 113.8119200 114.9526820   6.8185360 115.8196540
 114.8835100   5.8775300 115.6585670 115.7146680   6.9086770 116.3919110
 116.6251920   5.7185610 111.6061410 116.0069190   6.1835060 111.0424130
 117.1375170   6.4113090 112.0230920 111.4883680   5.2461480 118.2845010
 111.1553060   5.8730400 118.9266080 111.6650360   5.7723360 117.5046680
 110.7002780   7.2142280 120.0994190 111.3176780   7.8893360 119.8178640
 109.8395900   7.6230260 120.0081690 105.9935120   6.4042140 108.9801040
 105.6163100   6.8929240 108.2485940 106.2508190   7.0767420 109.6107570
 121.6180370   8.6781690 118.0148830 120.9343890   9.3480800 118.0065500
 122.1574660   8.8762340 117.2493690 119.1539110  10.5225820 116.7294010
 119.1666270  10.1188110 115.8616270 118.6014330  11.2973110 116.6255440
 120.4484530   7.2442040 111.8184180 120.3380860   6.3016370 111.9433600
 120.4452780   7.6057680 112.7046940 118.5524550   5.4255660 118.0576620
 118.9693340   5.2115770 117.2230080 119.2764370   5.6828450 118.6285240
 115.9904810   2.8707360 111.1746670 115.0634090   2.8044740 111.4035140
 116.1429630   3.8087490 111.0601910 122.4986650   3.8242880 118.1492860
 121.6705280   3.8935970 117.6742990 123.0937130   4.4097190 117.6808690
 120.0202100   4.4327660 111.6781920 119.4014520   4.0947210 111.0308220
 120.0026550   3.7887420 112.3861110 111.5961450   3.3972100 113.9566400
 111.1918450   2.6849350 113.4612300 111.6824570   3.0525340 114.8454440
 112.0643150   7.0839660 116.1205610 111.7671440   6.4785130 115.4413390
 113.0142970   7.1216970 116.0094970 120.1528760  10.6571530 119.7828710
 119.6759320  11.4643720 119.5901320 119.4690550  10.0049860 119.9354920
 111.1561580   6.8221350 122.7713410 110.2590110   7.0461320 123.0186810
 111.1814450   6.9456290 121.8224810 118.1966800   3.6714470 108.6854670
 118.6360080   2.8336900 108.5392490 118.9095220   4.3043870 108.7718810
 109.9832800   3.6934670 121.3470780 109.8440570   4.5657470 121.7158180
 109.1014160   3.3507480 121.2018720 116.3062180   8.6110540 112.6535910
 116.7458090   9.3534870 112.2391300 116.2449070   8.8537110 113.5774870
 111.7813150   9.6356370 123.5555930 111.7528580  10.0399320 122.6884360
 111.6178120   8.7066730 123.3927530 123.7327970  10.4183470 124.8520100
 124.2087690  10.8966360 125.5309180 124.3535130  10.3500960 124.1265600
 105.9351450   5.4632220 117.2641690 106.0131870   5.5980990 116.3197410
 106.5493130   4.7548110 117.4569810 107.1799080   7.1632410 113.6747870
 106.7727160   7.3047000 112.8201470 108.0712090   6.8792570 113.4719080
 123.1361220   7.6096320 122.0120110 123.2624280   7.3708200 121.0937290
 123.1782600   6.7780860 122.4842190 116.9977960  11.3124320 120.5814920
 117.5122630  11.2232330 121.3837350 116.1547040  11.6584020 120.8742830
 118.9732360  11.5979660 110.0098920 118.8133500  11.3082600 110.9080750
 118.8079070  10.8219790 109.4744150 111.4520740  11.3778190 111.7870540
 111.2763220  10.4613730 111.5738340 110.5976480  11.7365480 112.0268340
 118.6758490   9.1067220 108.5696920 117.9823650   9.1044510 107.9099200
 119.4181350   8.6826540 108.1391090 118.2408420  10.7329930 112.6445410
 118.6965370   9.9519310 112.9584030 118.5800940  11.4436750 113.1886590
 105.9910970   6.5046390 119.8036150 106.1542010   6.0351750 118.9855520
 106.4563420   5.9969950 120.4684990 107.5649950   5.8797820 121.9631960
 107.1804740   5.2391490 122.5614920 107.8762140   6.5833940 122.5326690
 113.7147090   2.7274360 117.4440580 114.0817220   2.2532930 118.1901920
 113.5252150   3.6015930 117.7848920 111.5046460   1.7683000 119.7624790
 111.2003530   2.6474980 119.9875150 112.4592920   1.8282790 119.7982230
 110.0328250   5.9743990 110.3591640 109.2590510   5.4341610 110.1990360
 110.7622880   5.4550600 110.0209400 120.7916230   4.9709350 116.1518030
 121.5115350   5.4664640 115.7614140 120.5898050   4.2927240 115.5071900
 116.1735030   5.0418410 122.0387030 116.1072340   4.1214080 121.7844620
 115.5440170   5.1393850 122.7531670 110.0765650   5.6424370 113.9970450
 110.5944320   4.8392630 113.9427340 109.6249670   5.5803510 114.8387280
 114.9635150   6.9090650 109.2697750 115.3050850   7.6532880 108.7741070
 114.1347860   7.2221770 109.6322580 107.5610190   2.6085740 120.9096150
 107.2025130   3.2739590 121.4969490 107.2664750   1.7769290 121.2808770
 110.7623310   3.0669980 123.7935700 110.4623450   3.2127160 122.8963520
 111.5334550   2.5075270 123.7009090 116.1051760   7.8638980 121.7890830
 116.1196300   6.9319940 121.5709740 115.3976860   7.9498740 122.4280600
 121.2388830   2.0478800 108.0589440 121.1552550   2.4793020 107.2085880
 121.9583020   2.5077150 108.4916260 122.3162970   4.5046320 121.1359410
 121.5911160   5.0975100 120.9388800 122.8438430   4.4969860 120.3372780
 122.2676080   8.9021060 110.7871570 121.6252240   8.2476680 111.0615290
 121.8806740   9.3076150 110.0112240 117.8462560   6.2306490 114.6343260
 118.1986380   5.6334620 113.9744630 116.9624890   5.9050720 114.8051510
 113.9325840   6.9904180 112.0413670 114.6196970   7.5373390 112.4221260
 113.1458260   7.5344910 112.0763280 106.0718240   2.6077000 107.5330750
 106.9413090   2.8901800 107.8166670 105.5808560   3.4212870 107.4179560
 113.2353050   3.9950210 111.6539030 113.6915830   4.8055460 111.8799220
 112.8841260   3.6773350 112.4857520 115.5385660   9.5056550 118.8831330
 116.1827880   9.7115930 119.5604750 115.9015100   8.7444950 118.4302180
 116.8117740   7.5088900 117.6008780 117.4539970   6.8082060 117.7140950
 117.3367090   8.2887340 117.4205670 120.6573460   7.7937520 107.3247920
 120.4311040   7.0767960 107.9172560 120.2669660   7.5449960 106.4869670
 118.5855360   8.3083800 120.8044840 118.9211600   8.8950490 121.4822760
 117.6655700   8.1776510 121.0342630 106.4389490  11.8204380 108.0992380
 106.7987130  12.4193720 107.4449650 106.2981830  12.3664270 108.8727410
 120.2389710   5.7109460 108.9862080 119.9511410   6.1722150 109.7739960
 121.0341880   5.2507230 109.2546300 106.4231350  10.0859240 122.5734780
 106.5322470   9.1453980 122.4330170 105.7711910  10.3513990 121.9248510
 114.4143940   8.3575130 123.9732900 114.0940810   7.6384370 124.5178590
 113.7402300   9.0330200 124.0468960 112.4558110   9.2035580 108.9166050
 112.4468210   9.9365270 108.3010560 111.5356470   8.9567160 109.0093010
 108.0564750   4.4250470 109.6612810 107.4492700   5.1649370 109.6708110
 108.5314100   4.5149830 108.8351010 115.4417710   9.2663820 107.5791240
 115.5429690   9.0627810 106.6493220 114.5419450   9.0122100 107.7839020
 114.0835820  11.7850140 112.2738910 114.3377320  11.7471530 111.3518280
 113.1348300  11.6583470 112.2667160 120.0888400   2.7042020 113.8497420
 119.1478540   2.7192250 114.0245110 120.4032470   1.9177980 114.2957720
 110.0670040   4.3861620 107.4101380 110.8333310   4.2742980 107.9726810
 110.1444730   3.6899590 106.7578150 122.0913980   9.8750870 115.5251680
 122.2161400  10.6982040 115.9975490 122.9579540   9.6641600 115.1775830
 109.5631510  11.9682080 115.1968810 110.2993990  11.4197540 115.4677380
 109.9472430  12.8338090 115.0574800 106.4476990   8.0355650 111.0710320
 105.5216770   8.2776790 111.0615730 106.9133420   8.8629910 110.9495070
 108.5689790  11.1528150 124.3854390 109.3702520  11.4740200 124.7989790
 108.0541610  10.7923730 125.1074300 112.6733820  11.1412390 107.0194380
 113.4662430  11.4301220 106.5676170 112.1538170  10.7104560 106.3406860
 117.4054420   7.2608020 124.3329800 116.7992580   7.2839620 123.5925550
 117.1008530   6.5291060 124.8697050 118.8354790  10.9888310 122.9439210
 119.7876540  10.9046330 122.8939450 118.6883010  11.6530020 123.6173000
 121.7263990  10.3682520 108.4431120 121.4405500   9.9547660 107.6285300
 121.5283540  11.2970230 108.3231640 106.2887600   3.6401610 123.3290440
 106.7926620   3.0608890 123.9006670 105.5495020   3.9241840 123.8666810
 113.1911220   6.3615800 106.8836730 113.0861860   5.7468150 107.6098110
 113.0235440   5.8381690 106.0999740 113.3425540   5.0472600 122.8625960
 112.5771210   5.6157600 122.7780630 113.5241500   4.7548810 121.9694190
 116.4313950   5.4235830 107.4878720 115.8824050   5.8705130 108.1321460
 117.0533210   4.9185080 108.0116390 120.4848890   6.7777930 123.4200980
 121.2258360   7.1153690 122.9168440 119.7221570   6.9469990 122.8670750
 112.0989070   4.3826750 109.3844020 112.5205490   4.2166620 110.2275410
 112.2239910   3.5726980 108.8899160 114.6116710   3.4064360 106.6321120
 115.1322370   2.6913380 106.2662270 115.2585110   4.0450230 106.9321630
 119.1594550   4.8292760 121.9556190 119.5735570   4.9837840 122.8046610
 118.2245550   4.9547980 122.1181970 113.9209780   4.7813240 119.9252120
 114.3397890   5.6245970 119.7528360 113.0018410   4.9185280 119.6958900
 116.2573680   2.5129420 121.3089960 116.3769890   1.9170560 122.0484800
 117.1167680   2.5499110 120.8891260 118.5961580   3.0666610 119.8852470
 118.0696800   3.5909230 119.2817610 118.9392920   3.6994000 120.5162200
 111.7717200  11.0866250 121.0409850 111.2338290  11.8112310 120.7218550
 112.0251160  10.6096590 120.2507190 114.6279410  12.3217460 121.2996500
 114.5538110  13.2252600 121.6068870 113.7258250  12.0029360 121.2718570
 115.1764740  11.4875970 108.9222860 116.0715530  11.8260940 108.9441620
 115.2082370  10.7655380 108.2947140 108.8160900   6.8603020 107.1509860
 109.2535770   7.4032690 107.8067440 109.3008630   6.0349970 107.1606200
 106.0306700   9.6492050 114.6030120 106.3609710   8.7813110 114.3708760
 106.4597700   9.8550570 115.4335080 110.6268620   7.9801060 112.2632090
 110.3264160   7.8566030 113.1636000 110.5206110   7.1209650 111.8547820
 106.5196910  10.5162640 117.3411750 106.0827900  10.6963440 118.1735900
 107.0874590  11.2737260 117.1993470 122.1559090  10.0179640 121.6289060
 121.5561080  10.0772200 120.8852980 122.2852990   9.0784620 121.7585910
 123.3960540   7.7597460 106.9658770 122.5653500   7.8274110 107.4366000
 123.5732370   8.6501580 106.6625630 122.8517000   4.5044940 109.4692970
 123.6135910   5.0741590 109.5752660 122.8671370   3.9372140 110.2401280
 106.3521340   3.0282870 113.7000630 105.6970180   2.7594510 113.0560330
 107.1899290   2.9187350 113.2502610 123.8576970   5.3595040 114.3134900
 124.2285800   4.5762360 113.9070870 124.4978900   6.0484140 114.1352200
 120.8410730   6.7431620 119.7265220 120.0270570   7.1728780 119.9891010
 121.2484930   7.3550030 119.1134270 122.9036170   4.7979310 106.6265490
 123.1785010   5.7058190 106.4984710 122.7146910   4.7341840 107.5627480
 122.8001510   2.7348300 111.6194920 122.4245110   1.9676230 111.1876210
 122.0704630   3.1171000 112.1069850 107.3897270   3.4135440 118.2403970
 107.7570310   3.3262840 119.1199990 106.8208090   2.6501990 118.1410830
 122.1901130   1.8819820 121.2534440 121.9587220   1.6532570 120.3532390
 122.4505680   2.8019370 121.2079330 120.8986780  11.4950220 113.2533490
 121.4945850  11.1734790 112.5767910 121.1564930  11.0222040 114.0446760
 108.8049350   7.9268130 123.4024120 108.7618980   7.5561040 124.2838580
 108.9360360   8.8645700 123.5425940 112.5055380   9.4827720 119.0033840
 112.2646740   9.7502280 118.1164360 113.4458020   9.6533450 119.0584700
 123.7659540  11.5022100 119.8044480 123.2717820  11.8990970 119.0871610
 123.1572830  10.8771310 120.1981760 108.6437380  10.8730380 120.5221900
 108.0497700  10.7415080 121.2611940 108.6361220  10.0368520 120.0564000
 121.4498990  12.1445520 117.0831220 120.9901960  12.8961330 116.7089240
 120.8211450  11.4251990 117.0246020 108.2749610   8.2388760 119.4729940
 107.5483670   7.6194050 119.4055890 108.3358760   8.6329370 118.6028020
 111.8794710  10.4533760 116.2579350 112.3959730   9.8421120 115.7327610
 112.5292090  10.9562540 116.7490360 114.6190210  11.3442250 117.0848330
 114.9068020  11.0896550 116.2081340 115.1313430  10.7919610 117.6753900
 106.5579610  11.5563150 112.6826700 106.3901650  10.9233830 113.3808590
 105.6914120  11.7622550 112.3320890 108.1642310  10.2496380 110.1276840
 107.6389930  10.6304410 109.4238800 108.0886890  10.8747150 110.8486550
 114.6862570  12.2658350 124.4516530 115.6129880  12.0302620 124.4952490
 114.6713000  13.0930350 123.9702560 122.9207630  11.8083920 111.4490780
 123.0959820  11.1221660 110.8051700 122.2229200  12.3330970 111.0567450
 110.7635280  12.1978760 109.0026090 111.4954100  11.9138040 108.4549980
 111.0228950  11.9592040 109.8925470 109.9250070   8.3143490 109.0072420
 109.2958950   8.7828590 109.5558250 110.0397900   7.4692710 109.4418610
 121.2540130  11.4928210 124.2757570 122.0465450  10.9977440 124.0683530
 121.5473280  12.1718350 124.8833180 115.5117830   4.1428170  97.0382890
 114.7359930   3.6628610  97.3281460 116.1630760   3.4633820  96.8639050
 109.5283660   4.4547980  97.9158650 108.6968540   4.1996690  98.3155160
 110.1364640   4.5258750  98.6516570 119.5325260   8.5488360  95.8182020
 119.0706790   7.7775600  96.1469190 120.3450810   8.5754430  96.3234470
 109.5084920   8.4888070  98.1116670 109.8112960   7.5985810  97.9326890
 110.2528510   9.0458290  97.8838920 115.7588570  10.8346370  95.4386010
 115.1400010  11.2903870  94.8680450 116.6140350  10.9897830  95.0375710
 114.9526820   6.8185360  97.0453050 114.8835100   5.8775300  96.8842180
 115.7146680   6.9086770  97.6175620 116.6251920   5.7185610  92.8317920
 116.0069190   6.1835060  92.2680640 117.1375170   6.4113090  93.2487430
 111.4883680   5.2461480  99.5101520 111.1553060   5.8730400 100.1522590
 111.6650360   5.7723360  98.7303190 110.7002780   7.2142280 101.3250700
 111.3176780   7.8893360 101.0435150 109.8395900   7.6230260 101.2338200
 105.9935120   6.4042140  90.2057550 105.6163100   6.8929240  89.4742450
 106.2508190   7.0767420  90.8364080 121.6180370   8.6781690  99.2405340
 120.9343890   9.3480800  99.2322010 122.1574660   8.8762340  98.4750200
 119.1539110  10.5225820  97.9550520 119.1666270  10.1188110  97.0872780
 118.6014330  11.2973110  97.8511950 120.4484530   7.2442040  93.0440690
 120.3380860   6.3016370  93.1690110 120.4452780   7.6057680  93.9303450
 118.5524550   5.4255660  99.2833130 118.9693340   5.2115770  98.4486590
 119.2764370   5.6828450  99.8541750 115.9904810   2.8707360  92.4003180
 115.0634090   2.8044740  92.6291650 116.1429630   3.8087490  92.2858420
 122.4986650   3.8242880  99.3749370 121.6705280   3.8935970  98.8999500
 123.0937130   4.4097190  98.9065200 120.0202100   4.4327660  92.9038430
 119.4014520   4.0947210  92.2564730 120.0026550   3.7887420  93.6117620
 111.5961450   3.3972100  95.1822910 111.1918450   2.6849350  94.6868810
 111.6824570   3.0525340  96.0710950 112.0643150   7.0839660  97.3462120
 111.7671440   6.4785130  96.6669900 113.0142970   7.1216970  97.2351480
 120.1528760  10.6571530 101.0085220 119.6759320  11.4643720 100.8157830
 119.4690550  10.0049860 101.1611430 111.1561580   6.8221350 103.9969920
 110.2590110   7.0461320 104.2443320 111.1814450   6.9456290 103.0481320
 118.1966800   3.6714470  89.9111180 118.6360080   2.8336900  89.7649000
 118.9095220   4.3043870  89.9975320 109.9832800   3.6934670 102.5727290
 109.8440570   4.5657470 102.9414690 109.1014160   3.3507480 102.4275230
 116.3062180   8.6110540  93.8792420 116.7458090   9.3534870  93.4647810
 116.2449070   8.8537110  94.8031380 111.7813150   9.6356370 104.7812440
 111.7528580  10.0399320 103.9140870 111.6178120   8.7066730 104.6184040
 123.7327970  10.4183470 106.0776610 124.2087690  10.8966360 106.7565690
 124.3535130  10.3500960 105.3522110 105.9351450   5.4632220  98.4898200
 106.0131870   5.5980990  97.5453920 106.5493130   4.7548110  98.6826320
 107.1799080   7.1632410  94.9004380 106.7727160   7.3047000  94.0457980
 108.0712090   6.8792570  94.6975590 123.1361220   7.6096320 103.2376620
 123.2624280   7.3708200 102.3193800 123.1782600   6.7780860 103.7098700
 116.9977960  11.3124320 101.8071430 117.5122630  11.2232330 102.6093860
 116.1547040  11.6584020 102.0999340 118.9732360  11.5979660  91.2355430
 118.8133500  11.3082600  92.1337260 118.8079070  10.8219790  90.7000660
 111.4520740  11.3778190  93.0127050 111.2763220  10.4613730  92.7994850
 110.5976480  11.7365480  93.2524850 118.6758490   9.1067220  89.7953430
 117.9823650   9.1044510  89.1355710 119.4181350   8.6826540  89.3647600
 118.2408420  10.7329930  93.8701920 118.6965370   9.9519310  94.1840540
 118.5800940  11.4436750  94.4143100 105.9910970   6.5046390 101.0292660
 106.1542010   6.0351750 100.2112030 106.4563420   5.9969950 101.6941500
 107.5649950   5.8797820 103.1888470 107.1804740   5.2391490 103.7871430
 107.8762140   6.5833940 103.7583200 113.7147090   2.7274360  98.6697090
 114.0817220   2.2532930  99.4158430 113.5252150   3.6015930  99.0105430
 111.5046460   1.7683000 100.9881300 111.2003530   2.6474980 101.2131660
 112.4592920   1.8282790 101.0238740 110.0328250   5.9743990  91.5848150
 109.2590510   5.4341610  91.4246870 110.7622880   5.4550600  91.2465910
 120.7916230   4.9709350  97.3774540 121.5115350   5.4664640  96.9870650
 120.5898050   4.2927240  96.7328410 116.1735030   5.0418410 103.2643540
 116.1072340   4.1214080 103.0101130 115.5440170   5.1393850 103.9788180
 110.0765650   5.6424370  95.2226960 110.5944320   4.8392630  95.1683850
 109.6249670   5.5803510  96.0643790 114.9635150   6.9090650  90.4954260
 115.3050850   7.6532880  89.9997580 114.1347860   7.2221770  90.8579090
 107.5610190   2.6085740 102.1352660 107.2025130   3.2739590 102.7226000
 107.2664750   1.7769290 102.5065280 110.7623310   3.0669980 105.0192210
 110.4623450   3.2127160 104.1220030 111.5334550   2.5075270 104.9265600
 116.1051760   7.8638980 103.0147340 116.1196300   6.9319940 102.7966250
 115.3976860   7.9498740 103.6537110 121.2388830   2.0478800  89.2845950
 121.1552550   2.4793020  88.4342390 121.9583020   2.5077150  89.7172770
 122.3162970   4.5046320 102.3615920 121.5911160   5.0975100 102.1645310
 122.8438430   4.4969860 101.5629290 122.2676080   8.9021060  92.0128080
 121.6252240   8.2476680  92.2871800 121.8806740   9.3076150  91.2368750
 117.8462560   6.2306490  95.8599770 118.1986380   5.6334620  95.2001140
 116.9624890   5.9050720  96.0308020 113.9325840   6.9904180  93.2670180
 114.6196970   7.5373390  93.6477770 113.1458260   7.5344910  93.3019790
 106.0718240   2.6077000  88.7587260 106.9413090   2.8901800  89.0423180
 105.5808560   3.4212870  88.6436070 113.2353050   3.9950210  92.8795540
 113.6915830   4.8055460  93.1055730 112.8841260   3.6773350  93.7114030
 115.5385660   9.5056550 100.1087840 116.1827880   9.7115930 100.7861260
 115.9015100   8.7444950  99.6558690 116.8117740   7.5088900  98.8265290
 117.4539970   6.8082060  98.9397460 117.3367090   8.2887340  98.6462180
 120.6573460   7.7937520  88.5504430 120.4311040   7.0767960  89.1429070
 120.2669660   7.5449960  87.7126180 118.5855360   8.3083800 102.0301350
 118.9211600   8.8950490 102.7079270 117.6655700   8.1776510 102.2599140
 106.4389490  11.8204380  89.3248890 106.7987130  12.4193720  88.6706160
 106.2981830  12.3664270  90.0983920 120.2389710   5.7109460  90.2118590
 119.9511410   6.1722150  90.9996470 121.0341880   5.2507230  90.4802810
 106.4231350  10.0859240 103.7991290 106.5322470   9.1453980 103.6586680
 105.7711910  10.3513990 103.1505020 114.4143940   8.3575130 105.1989410
 114.0940810   7.6384370 105.7435100 113.7402300   9.0330200 105.2725470
 112.4558110   9.2035580  90.1422560 112.4468210   9.9365270  89.5267070
 111.5356470   8.9567160  90.2349520 108.0564750   4.4250470  90.8869320
 107.4492700   5.1649370  90.8964620 108.5314100   4.5149830  90.0607520
 115.4417710   9.2663820  88.8047750 115.5429690   9.0627810  87.8749730
 114.5419450   9.0122100  89.0095530 114.0835820  11.7850140  93.4995420
 114.3377320  11.7471530  92.5774790 113.1348300  11.6583470  93.4923670
 120.0888400   2.7042020  95.0753930 119.1478540   2.7192250  95.2501620
 120.4032470   1.9177980  95.5214230 110.0670040   4.3861620  88.6357890
 110.8333310   4.2742980  89.1983320 110.1444730   3.6899590  87.9834660
 122.0913980   9.8750870  96.7508190 122.2161400  10.6982040  97.2232000
 122.9579540   9.6641600  96.4032340 109.5631510  11.9682080  96.4225320
 110.2993990  11.4197540  96.6933890 109.9472430  12.8338090  96.2831310
 106.4476990   8.0355650  92.2966830 105.5216770   8.2776790  92.2872240
 106.9133420   8.8629910  92.1751580 108.5689790  11.1528150 105.6110900
 109.3702520  11.4740200 106.0246300 108.0541610  10.7923730 106.3330810
 112.6733820  11.1412390  88.2450890 113.4662430  11.4301220  87.7932680
 112.1538170  10.7104560  87.5663370 117.4054420   7.2608020 105.5586310
 116.7992580   7.2839620 104.8182060 117.1008530   6.5291060 106.0953560
 118.8354790  10.9888310 104.1695720 119.7876540  10.9046330 104.1195960
 118.6883010  11.6530020 104.8429510 121.7263990  10.3682520  89.6687630
 121.4405500   9.9547660  88.8541810 121.5283540  11.2970230  89.5488150
 106.2887600   3.6401610 104.5546950 106.7926620   3.0608890 105.1263180
 105.5495020   3.9241840 105.0923320 113.1911220   6.3615800  88.1093240
 113.0861860   5.7468150  88.8354620 113.0235440   5.8381690  87.3256250
 113.3425540   5.0472600 104.0882470 112.5771210   5.6157600 104.0037140
 113.5241500   4.7548810 103.1950700 116.4313950   5.4235830  88.7135230
 115.8824050   5.8705130  89.3577970 117.0533210   4.9185080  89.2372900
 120.4848890   6.7777930 104.6457490 121.2258360   7.1153690 104.1424950
 119.7221570   6.9469990 104.0927260 112.0989070   4.3826750  90.6100530
 112.5205490   4.2166620  91.4531920 112.2239910   3.5726980  90.1155670
 114.6116710   3.4064360  87.8577630 115.1322370   2.6913380  87.4918780
 115.2585110   4.0450230  88.1578140 119.1594550   4.8292760 103.1812700
 119.5735570   4.9837840 104.0303120 118.2245550   4.9547980 103.3438480
 113.9209780   4.7813240 101.1508630 114.3397890   5.6245970 100.9784870
 113.0018410   4.9185280 100.9215410 116.2573680   2.5129420 102.5346470
 116.3769890   1.9170560 103.2741310 117.1167680   2.5499110 102.1147770
 118.5961580   3.0666610 101.1108980 118.0696800   3.5909230 100.5074120
 118.9392920   3.6994000 101.7418710 111.7717200  11.0866250 102.2666360
 111.2338290  11.8112310 101.9475060 112.0251160  10.6096590 101.4763700
 114.6279410  12.3217460 102.5253010 114.5538110  13.2252600 102.8325380
 113.7258250  12.0029360 102.4975080 115.1764740  11.4875970  90.1479370
 116.0715530  11.8260940  90.1698130 115.2082370  10.7655380  89.5203650
 108.8160900   6.8603020  88.3766370 109.2535770   7.4032690  89.0323950
 109.3008630   6.0349970  88.3862710 106.0306700   9.6492050  95.8286630
 106.3609710   8.7813110  95.5965270 106.4597700   9.8550570  96.6591590
 110.6268620   7.9801060  93.4888600 110.3264160   7.8566030  94.3892510
 110.5206110   7.1209650  93.0804330 106.5196910  10.5162640  98.5668260
 106.0827900  10.6963440  99.3992410 107.0874590  11.2737260  98.4249980
 122.1559090  10.0179640 102.8545570 121.5561080  10.0772200 102.1109490
 122.2852990   9.0784620 102.9842420 123.3960540   7.7597460  88.1915280
 122.5653500   7.8274110  88.6622510 123.5732370   8.6501580  87.8882140
 122.8517000   4.5044940  90.6949480 123.6135910   5.0741590  90.8009170
 122.8671370   3.9372140  91.4657790 106.3521340   3.0282870  94.9257140
 105.6970180   2.7594510  94.2816840 107.1899290   2.9187350  94.4759120
 123.8576970   5.3595040  95.5391410 124.2285800   4.5762360  95.1327380
 124.4978900   6.0484140  95.3608710 120.8410730   6.7431620 100.9521730
 120.0270570   7.1728780 101.2147520 121.2484930   7.3550030 100.3390780
 122.9036170   4.7979310  87.8522000 123.1785010   5.7058190  87.7241220
 122.7146910   4.7341840  88.7883990 122.8001510   2.7348300  92.8451430
 122.4245110   1.9676230  92.4132720 122.0704630   3.1171000  93.3326360
 107.3897270   3.4135440  99.4660480 107.7570310   3.3262840 100.3456500
 106.8208090   2.6501990  99.3667340 122.1901130   1.8819820 102.4790950
 121.9587220   1.6532570 101.5788900 122.4505680   2.8019370 102.4335840
 120.8986780  11.4950220  94.4790000 121.4945850  11.1734790  93.8024420
 121.1564930  11.0222040  95.2703270 108.8049350   7.9268130 104.6280630
 108.7618980   7.5561040 105.5095090 108.9360360   8.8645700 104.7682450
 112.5055380   9.4827720 100.2290350 112.2646740   9.7502280  99.3420870
 113.4458020   9.6533450 100.2841210 123.7659540  11.5022100 101.0300990
 123.2717820  11.8990970 100.3128120 123.1572830  10.8771310 101.4238270
 108.6437380  10.8730380 101.7478410 108.0497700  10.7415080 102.4868450
 108.6361220  10.0368520 101.2820510 121.4498990  12.1445520  98.3087730
 120.9901960  12.8961330  97.9345750 120.8211450  11.4251990  98.2502530
 108.2749610   8.2388760 100.6986450 107.5483670   7.6194050 100.6312400
 108.3358760   8.6329370  99.8284530 111.8794710  10.4533760  97.4835860
 112.3959730   9.8421120  96.9584120 112.5292090  10.9562540  97.9746870
 114.6190210  11.3442250  98.3104840 114.9068020  11.0896550  97.4337850
 115.1313430  10.7919610  98.9010410 106.5579610  11.5563150  93.9083210
 106.3901650  10.9233830  94.6065100 105.6914120  11.7622550  93.5577400
 108.1642310  10.2496380  91.3533350 107.6389930  10.6304410  90.6495310
 108.0886890  10.8747150  92.0743060 114.6862570  12.2658350 105.6773040
 115.6129880  12.0302620 105.7209000 114.6713000  13.0930350 105.1959070
 122.9207630  11.8083920  92.6747290 123.0959820  11.1221660  92.0308210
 122.2229200  12.3330970  92.2823960 110.7635280  12.1978760  90.2282600
 111.4954100  11.9138040  89.6806490 111.0228950  11.9592040  91.1181980
 109.9250070   8.3143490  90.2328930 109.2958950   8.7828590  90.7814760
 110.0397900   7.4692710  90.6675120 121.2540130  11.4928210 105.5014080
 122.0465450  10.9977440 105.2940040 121.5473280  12.1718350 106.1089690
 115.5117830   4.1428170  78.2639400 114.7359930   3.6628610  78.5537970
 116.1630760   3.4633820  78.0895560 109.5283660   4.4547980  79.1415160
 108.6968540   4.1996690  79.5411670 110.1364640   4.5258750  79.8773080
 119.5325260   8.5488360  77.0438530 119.0706790   7.7775600  77.3725700
 120.3450810   8.5754430  77.5490980 109.5084920   8.4888070  79.3373180
 109.8112960   7.5985810  79.1583400 110.2528510   9.0458290  79.1095430
 115.7588570  10.8346370  76.6642520 115.1400010  11.2903870  76.0936960
 116.6140350  10.9897830  76.2632220 114.9526820   6.8185360  78.2709560
 114.8835100   5.8775300  78.1098690 115.7146680   6.9086770  78.8432130
 116.6251920   5.7185610  74.0574430 116.0069190   6.1835060  73.4937150
 117.1375170   6.4113090  74.4743940 111.4883680   5.2461480  80.7358030
 111.1553060   5.8730400  81.3779100 111.6650360   5.7723360  79.9559700
 110.7002780   7.2142280  82.5507210 111.3176780   7.8893360  82.2691660
 109.8395900   7.6230260  82.4594710 105.9935120   6.4042140  71.4314060
 105.6163100   6.8929240  70.6998960 106.2508190   7.0767420  72.0620590
 121.6180370   8.6781690  80.4661850 120.9343890   9.3480800  80.4578520
 122.1574660   8.8762340  79.7006710 119.1539110  10.5225820  79.1807030
 119.1666270  10.1188110  78.3129290 118.6014330  11.2973110  79.0768460
 120.4484530   7.2442040  74.2697200 120.3380860   6.3016370  74.3946620
 120.4452780   7.6057680  75.1559960 118.5524550   5.4255660  80.5089640
 118.9693340   5.2115770  79.6743100 119.2764370   5.6828450  81.0798260
 115.9904810   2.8707360  73.6259690 115.0634090   2.8044740  73.8548160
 116.1429630   3.8087490  73.5114930 122.4986650   3.8242880  80.6005880
 121.6705280   3.8935970  80.1256010 123.0937130   4.4097190  80.1321710
 120.0202100   4.4327660  74.1294940 119.4014520   4.0947210  73.4821240
 120.0026550   3.7887420  74.8374130 111.5961450   3.3972100  76.4079420
 111.1918450   2.6849350  75.9125320 111.6824570   3.0525340  77.2967460
 112.0643150   7.0839660  78.5718630 111.7671440   6.4785130  77.8926410
 113.0142970   7.1216970  78.4607990 120.1528760  10.6571530  82.2341730
 119.6759320  11.4643720  82.0414340 119.4690550  10.0049860  82.3867940
 111.1561580   6.8221350  85.2226430 110.2590110   7.0461320  85.4699830
 111.1814450   6.9456290  84.2737830 118.1966800   3.6714470  71.1367690
 118.6360080   2.8336900  70.9905510 118.9095220   4.3043870  71.2231830
 109.9832800   3.6934670  83.7983800 109.8440570   4.5657470  84.1671200
 109.1014160   3.3507480  83.6531740 116.3062180   8.6110540  75.1048930
 116.7458090   9.3534870  74.6904320 116.2449070   8.8537110  76.0287890
 111.7813150   9.6356370  86.0068950 111.7528580  10.0399320  85.1397380
 111.6178120   8.7066730  85.8440550 123.7327970  10.4183470  87.3033120
 124.2087690  10.8966360  87.9822200 124.3535130  10.3500960  86.5778620
 105.9351450   5.4632220  79.7154710 106.0131870   5.5980990  78.7710430
 106.5493130   4.7548110  79.9082830 107.1799080   7.1632410  76.1260890
 106.7727160   7.3047000  75.2714490 108.0712090   6.8792570  75.9232100
 123.1361220   7.6096320  84.4633130 123.2624280   7.3708200  83.5450310
 123.1782600   6.7780860  84.9355210 116.9977960  11.3124320  83.0327940
 117.5122630  11.2232330  83.8350370 116.1547040  11.6584020  83.3255850
 118.9732360  11.5979660  72.4611940 118.8133500  11.3082600  73.3593770
 118.8079070  10.8219790  71.9257170 111.4520740  11.3778190  74.2383560
 111.2763220  10.4613730  74.0251360 110.5976480  11.7365480  74.4781360
 118.6758490   9.1067220  71.0209940 117.9823650   9.1044510  70.3612220
 119.4181350   8.6826540  70.5904110 118.2408420  10.7329930  75.0958430
 118.6965370   9.9519310  75.4097050 118.5800940  11.4436750  75.6399610
 105.9910970   6.5046390  82.2549170 106.1542010   6.0351750  81.4368540
 106.4563420   5.9969950  82.9198010 107.5649950   5.8797820  84.4144980
 107.1804740   5.2391490  85.0127940 107.8762140   6.5833940  84.9839710
 113.7147090   2.7274360  79.8953600 114.0817220   2.2532930  80.6414940
 113.5252150   3.6015930  80.2361940 111.5046460   1.7683000  82.2137810
 111.2003530   2.6474980  82.4388170 112.4592920   1.8282790  82.2495250
 110.0328250   5.9743990  72.8104660 109.2590510   5.4341610  72.6503380
 110.7622880   5.4550600  72.4722420 120.7916230   4.9709350  78.6031050
 121.5115350   5.4664640  78.2127160 120.5898050   4.2927240  77.9584920
 116.1735030   5.0418410  84.4900050 116.1072340   4.1214080  84.2357640
 115.5440170   5.1393850  85.2044690 110.0765650   5.6424370  76.4483470
 110.5944320   4.8392630  76.3940360 109.6249670   5.5803510  77.2900300
 114.9635150   6.9090650  71.7210770 115.3050850   7.6532880  71.2254090
 114.1347860   7.2221770  72.0835600 107.5610190   2.6085740  83.3609170
 107.2025130   3.2739590  83.9482510 107.2664750   1.7769290  83.7321790
 110.7623310   3.0669980  86.2448720 110.4623450   3.2127160  85.3476540
 111.5334550   2.5075270  86.1522110 116.1051760   7.8638980  84.2403850
 116.1196300   6.9319940  84.0222760 115.3976860   7.9498740  84.8793620
 121.2388830   2.0478800  70.5102460 121.1552550   2.4793020  69.6598900
 121.9583020   2.5077150  70.9429280 122.3162970   4.5046320  83.5872430
 121.5911160   5.0975100  83.3901820 122.8438430   4.4969860  82.7885800
 122.2676080   8.9021060  73.2384590 121.6252240   8.2476680  73.5128310
 121.8806740   9.3076150  72.4625260 117.8462560   6.2306490  77.0856280
 118.1986380   5.6334620  76.4257650 116.9624890   5.9050720  77.2564530
 113.9325840   6.9904180  74.4926690 114.6196970   7.5373390  74.8734280
 113.1458260   7.5344910  74.5276300 106.0718240   2.6077000  69.9843770
 106.9413090   2.8901800  70.2679690 105.5808560   3.4212870  69.8692580
 113.2353050   3.9950210  74.1052050 113.6915830   4.8055460  74.3312240
 112.8841260   3.6773350  74.9370540 115.5385660   9.5056550  81.3344350
 116.1827880   9.7115930  82.0117770 115.9015100   8.7444950  80.8815200
 116.8117740   7.5088900  80.0521800 117.4539970   6.8082060  80.1653970
 117.3367090   8.2887340  79.8718690 120.6573460   7.7937520  69.7760940
 120.4311040   7.0767960  70.3685580 120.2669660   7.5449960  68.9382690
 118.5855360   8.3083800  83.2557860 118.9211600   8.8950490  83.9335780
 117.6655700   8.1776510  83.4855650 106.4389490  11.8204380  70.5505400
 106.7987130  12.4193720  69.8962670 106.2981830  12.3664270  71.3240430
 120.2389710   5.7109460  71.4375100 119.9511410   6.1722150  72.2252980
 121.0341880   5.2507230  71.7059320 106.4231350  10.0859240  85.0247800
 106.5322470   9.1453980  84.8843190 105.7711910  10.3513990  84.3761530
 114.4143940   8.3575130  86.4245920 114.0940810   7.6384370  86.9691610
 113.7402300   9.0330200  86.4981980 112.4558110   9.2035580  71.3679070
 112.4468210   9.9365270  70.7523580 111.5356470   8.9567160  71.4606030
 108.0564750   4.4250470  72.1125830 107.4492700   5.1649370  72.1221130
 108.5314100   4.5149830  71.2864030 115.4417710   9.2663820  70.0304260
 115.5429690   9.0627810  69.1006240 114.5419450   9.0122100  70.2352040
 114.0835820  11.7850140  74.7251930 114.3377320  11.7471530  73.8031300
 113.1348300  11.6583470  74.7180180 120.0888400   2.7042020  76.3010440
 119.1478540   2.7192250  76.4758130 120.4032470   1.9177980  76.7470740
 110.0670040   4.3861620  69.8614400 110.8333310   4.2742980  70.4239830
 110.1444730   3.6899590  69.2091170 122.0913980   9.8750870  77.9764700
 122.2161400  10.6982040  78.4488510 122.9579540   9.6641600  77.6288850
 109.5631510  11.9682080  77.6481830 110.2993990  11.4197540  77.9190400
 109.9472430  12.8338090  77.5087820 106.4476990   8.0355650  73.5223340
 105.5216770   8.2776790  73.5128750 106.9133420   8.8629910  73.4008090
 108.5689790  11.1528150  86.8367410 109.3702520  11.4740200  87.2502810
 108.0541610  10.7923730  87.5587320 112.6733820  11.1412390  69.4707400
 113.4662430  11.4301220  69.0189190 112.1538170  10.7104560  68.7919880
 117.4054420   7.2608020  86.7842820 116.7992580   7.2839620  86.0438570
 117.1008530   6.5291060  87.3210070 118.8354790  10.9888310  85.3952230
 119.7876540  10.9046330  85.3452470 118.6883010  11.6530020  86.0686020
 121.7263990  10.3682520  70.8944140 121.4405500   9.9547660  70.0798320
 121.5283540  11.2970230  70.7744660 106.2887600   3.6401610  85.7803460
 106.7926620   3.0608890  86.3519690 105.5495020   3.9241840  86.3179830
 113.1911220   6.3615800  69.3349750 113.0861860   5.7468150  70.0611130
 113.0235440   5.8381690  68.5512760 113.3425540   5.0472600  85.3138980
 112.5771210   5.6157600  85.2293650 113.5241500   4.7548810  84.4207210
 116.4313950   5.4235830  69.9391740 115.8824050   5.8705130  70.5834480
 117.0533210   4.9185080  70.4629410 120.4848890   6.7777930  85.8714000
 121.2258360   7.1153690  85.3681460 119.7221570   6.9469990  85.3183770
 112.0989070   4.3826750  71.8357040 112.5205490   4.2166620  72.6788430
 112.2239910   3.5726980  71.3412180 114.6116710   3.4064360  69.0834140
 115.1322370   2.6913380  68.7175290 115.2585110   4.0450230  69.3834650
 119.1594550   4.8292760  84.4069210 119.5735570   4.9837840  85.2559630
 118.2245550   4.9547980  84.5694990 113.9209780   4.7813240  82.3765140
 114.3397890   5.6245970  82.2041380 113.0018410   4.9185280  82.1471920
 116.2573680   2.5129420  83.7602980 116.3769890   1.9170560  84.4997820
 117.1167680   2.5499110  83.3404280 118.5961580   3.0666610  82.3365490
 118.0696800   3.5909230  81.7330630 118.9392920   3.6994000  82.9675220
 111.7717200  11.0866250  83.4922870 111.2338290  11.8112310  83.1731570
 112.0251160  10.6096590  82.7020210 114.6279410  12.3217460  83.7509520
 114.5538110  13.2252600  84.0581890 113.7258250  12.0029360  83.7231590
 115.1764740  11.4875970  71.3735880 116.0715530  11.8260940  71.3954640
 115.2082370  10.7655380  70.7460160 108.8160900   6.8603020  69.6022880
 109.2535770   7.4032690  70.2580460 109.3008630   6.0349970  69.6119220
 106.0306700   9.6492050  77.0543140 106.3609710   8.7813110  76.8221780
 106.4597700   9.8550570  77.8848100 110.6268620   7.9801060  74.7145110
 110.3264160   7.8566030  75.6149020 110.5206110   7.1209650  74.3060840
 106.5196910  10.5162640  79.7924770 106.0827900  10.6963440  80.6248920
 107.0874590  11.2737260  79.6506490 122.1559090  10.0179640  84.0802080
 121.5561080  10.0772200  83.3366000 122.2852990   9.0784620  84.2098930
 123.3960540   7.7597460  69.4171790 122.5653500   7.8274110  69.8879020
 123.5732370   8.6501580  69.1138650 122.8517000   4.5044940  71.9205990
 123.6135910   5.0741590  72.0265680 122.8671370   3.9372140  72.6914300
 106.3521340   3.0282870  76.1513650 105.6970180   2.7594510  75.5073350
 107.1899290   2.9187350  75.7015630 123.8576970   5.3595040  76.7647920
 124.2285800   4.5762360  76.3583890 124.4978900   6.0484140  76.5865220
 120.8410730   6.7431620  82.1778240 120.0270570   7.1728780  82.4404030
 121.2484930   7.3550030  81.5647290 122.9036170   4.7979310  69.0778510
 123.1785010   5.7058190  68.9497730 122.7146910   4.7341840  70.0140500
 122.8001510   2.7348300  74.0707940 122.4245110   1.9676230  73.6389230
 122.0704630   3.1171000  74.5582870 107.3897270   3.4135440  80.6916990
 107.7570310   3.3262840  81.5713010 106.8208090   2.6501990  80.5923850
 122.1901130   1.8819820  83.7047460 121.9587220   1.6532570  82.8045410
 122.4505680   2.8019370  83.6592350 120.8986780  11.4950220  75.7046510
 121.4945850  11.1734790  75.0280930 121.1564930  11.0222040  76.4959780
 108.8049350   7.9268130  85.8537140 108.7618980   7.5561040  86.7351600
 108.9360360   8.8645700  85.9938960 112.5055380   9.4827720  81.4546860
 112.2646740   9.7502280  80.5677380 113.4458020   9.6533450  81.5097720
 123.7659540  11.5022100  82.2557500 123.2717820  11.8990970  81.5384630
 123.1572830  10.8771310  82.6494780 108.6437380  10.8730380  82.9734920
 108.0497700  10.7415080  83.7124960 108.6361220  10.0368520  82.5077020
 121.4498990  12.1445520  79.5344240 120.9901960  12.8961330  79.1602260
 120.8211450  11.4251990  79.4759040 108.2749610   8.2388760  81.9242960
 107.5483670   7.6194050  81.8568910 108.3358760   8.6329370  81.0541040
 111.8794710  10.4533760  78.7092370 112.3959730   9.8421120  78.1840630
 112.5292090  10.9562540  79.2003380 114.6190210  11.3442250  79.5361350
 114.9068020  11.0896550  78.6594360 115.1313430  10.7919610  80.1266920
 106.5579610  11.5563150  75.1339720 106.3901650  10.9233830  75.8321610
 105.6914120  11.7622550  74.7833910 108.1642310  10.2496380  72.5789860
 107.6389930  10.6304410  71.8751820 108.0886890  10.8747150  73.2999570
 114.6862570  12.2658350  86.9029550 115.6129880  12.0302620  86.9465510
 114.6713000  13.0930350  86.4215580 122.9207630  11.8083920  73.9003800
 123.0959820  11.1221660  73.2564720 122.2229200  12.3330970  73.5080470
 110.7635280  12.1978760  71.4539110 111.4954100  11.9138040  70.9063000
 111.0228950  11.9592040  72.3438490 109.9250070   8.3143490  71.4585440
 109.2958950   8.7828590  72.0071270 110.0397900   7.4692710  71.8931630
 121.2540130  11.4928210  86.7270590 122.0465450  10.9977440  86.5196550
 121.5473280  12.1718350  87.3346200 115.5117830   4.1428170  59.4895910
 114.7359930   3.6628610  59.7794480 116.1630760   3.4633820  59.3152070
 109.5283660   4.4547980  60.3671670 108.6968540   4.1996690  60.7668180
 110.1364640   4.5258750  61.1029590 119.5325260   8.5488360  58.2695040
 119.0706790   7.7775600  58.5982210 120.3450810   8.5754430  58.7747490
 109.5084920   8.4888070  60.5629690 109.8112960   7.5985810  60.3839910
 110.2528510   9.0458290  60.3351940 115.7588570  10.8346370  57.8899030
 115.1400010  11.2903870  57.3193470 116.6140350  10.9897830  57.4888730
 114.9526820   6.8185360  59.4966070 114.8835100   5.8775300  59.3355200
 115.7146680   6.9086770  60.0688640 116.6251920   5.7185610  55.2830940
 116.0069190   6.1835060  54.7193660 117.1375170   6.4113090  55.7000450
 111.4883680   5.2461480  61.9614540 111.1553060   5.8730400  62.6035610
 111.6650360   5.7723360  61.1816210 110.7002780   7.2142280  63.7763720
 111.3176780   7.8893360  63.4948170 109.8395900   7.6230260  63.6851220
 105.9935120   6.4042140  52.6570570 105.6163100   6.8929240  51.9255470
 106.2508190   7.0767420  53.2877100 121.6180370   8.6781690  61.6918360
 120.9343890   9.3480800  61.6835030 122.1574660   8.8762340  60.9263220
 119.1539110  10.5225820  60.4063540 119.1666270  10.1188110  59.5385800
 118.6014330  11.2973110  60.3024970 120.4484530   7.2442040  55.4953710
 120.3380860   6.3016370  55.6203130 120.4452780   7.6057680  56.3816470
 118.5524550   5.4255660  61.7346150 118.9693340   5.2115770  60.8999610
 119.2764370   5.6828450  62.3054770 115.9904810   2.8707360  54.8516200
 115.0634090   2.8044740  55.0804670 116.1429630   3.8087490  54.7371440
 122.4986650   3.8242880  61.8262390 121.6705280   3.8935970  61.3512520
 123.0937130   4.4097190  61.3578220 120.0202100   4.4327660  55.3551450
 119.4014520   4.0947210  54.7077750 120.0026550   3.7887420  56.0630640
 111.5961450   3.3972100  57.6335930 111.1918450   2.6849350  57.1381830
 111.6824570   3.0525340  58.5223970 112.0643150   7.0839660  59.7975140
 111.7671440   6.4785130  59.1182920 113.0142970   7.1216970  59.6864500
 120.1528760  10.6571530  63.4598240 119.6759320  11.4643720  63.2670850
 119.4690550  10.0049860  63.6124450 111.1561580   6.8221350  66.4482940
 110.2590110   7.0461320  66.6956340 111.1814450   6.9456290  65.4994340
 118.1966800   3.6714470  52.3624200 118.6360080   2.8336900  52.2162020
 118.9095220   4.3043870  52.4488340 109.9832800   3.6934670  65.0240310
 109.8440570   4.5657470  65.3927710 109.1014160   3.3507480  64.8788250
 116.3062180   8.6110540  56.3305440 116.7458090   9.3534870  55.9160830
 116.2449070   8.8537110  57.2544400 111.7813150   9.6356370  67.2325460
 111.7528580  10.0399320  66.3653890 111.6178120   8.7066730  67.0697060
 123.7327970  10.4183470  68.5289630 124.2087690  10.8966360  69.2078710
 124.3535130  10.3500960  67.8035130 105.9351450   5.4632220  60.9411220
 106.0131870   5.5980990  59.9966940 106.5493130   4.7548110  61.1339340
 107.1799080   7.1632410  57.3517400 106.7727160   7.3047000  56.4971000
 108.0712090   6.8792570  57.1488610 123.1361220   7.6096320  65.6889640
 123.2624280   7.3708200  64.7706820 123.1782600   6.7780860  66.1611720
 116.9977960  11.3124320  64.2584450 117.5122630  11.2232330  65.0606880
 116.1547040  11.6584020  64.5512360 118.9732360  11.5979660  53.6868450
 118.8133500  11.3082600  54.5850280 118.8079070  10.8219790  53.1513680
 111.4520740  11.3778190  55.4640070 111.2763220  10.4613730  55.2507870
 110.5976480  11.7365480  55.7037870 118.6758490   9.1067220  52.2466450
 117.9823650   9.1044510  51.5868730 119.4181350   8.6826540  51.8160620
 118.2408420  10.7329930  56.3214940 118.6965370   9.9519310  56.6353560
 118.5800940  11.4436750  56.8656120 105.9910970   6.5046390  63.4805680
 106.1542010   6.0351750  62.6625050 106.4563420   5.9969950  64.1454520
 107.5649950   5.8797820  65.6401490 107.1804740   5.2391490  66.2384450
 107.8762140   6.5833940  66.2096220 113.7147090   2.7274360  61.1210110
 114.0817220   2.2532930  61.8671450 113.5252150   3.6015930  61.4618450
 111.5046460   1.7683000  63.4394320 111.2003530   2.6474980  63.6644680
 112.4592920   1.8282790  63.4751760 110.0328250   5.9743990  54.0361170
 109.2590510   5.4341610  53.8759890 110.7622880   5.4550600  53.6978930
 120.7916230   4.9709350  59.8287560 121.5115350   5.4664640  59.4383670
 120.5898050   4.2927240  59.1841430 116.1735030   5.0418410  65.7156560
 116.1072340   4.1214080  65.4614150 115.5440170   5.1393850  66.4301200
 110.0765650   5.6424370  57.6739980 110.5944320   4.8392630  57.6196870
 109.6249670   5.5803510  58.5156810 114.9635150   6.9090650  52.9467280
 115.3050850   7.6532880  52.4510600 114.1347860   7.2221770  53.3092110
 107.5610190   2.6085740  64.5865680 107.2025130   3.2739590  65.1739020
 107.2664750   1.7769290  64.9578300 110.7623310   3.0669980  67.4705230
 110.4623450   3.2127160  66.5733050 111.5334550   2.5075270  67.3778620
 116.1051760   7.8638980  65.4660360 116.1196300   6.9319940  65.2479270
 115.3976860   7.9498740  66.1050130 121.2388830   2.0478800  51.7358970
 121.1552550   2.4793020  50.8855410 121.9583020   2.5077150  52.1685790
 122.3162970   4.5046320  64.8128940 121.5911160   5.0975100  64.6158330
 122.8438430   4.4969860  64.0142310 122.2676080   8.9021060  54.4641100
 121.6252240   8.2476680  54.7384820 121.8806740   9.3076150  53.6881770
 117.8462560   6.2306490  58.3112790 118.1986380   5.6334620  57.6514160
 116.9624890   5.9050720  58.4821040 113.9325840   6.9904180  55.7183200
 114.6196970   7.5373390  56.0990790 113.1458260   7.5344910  55.7532810
 106.0718240   2.6077000  51.2100280 106.9413090   2.8901800  51.4936200
 105.5808560   3.4212870  51.0949090 113.2353050   3.9950210  55.3308560
 113.6915830   4.8055460  55.5568750 112.8841260   3.6773350  56.1627050
 115.5385660   9.5056550  62.5600860 116.1827880   9.7115930  63.2374280
 115.9015100   8.7444950  62.1071710 116.8117740   7.5088900  61.2778310
 117.4539970   6.8082060  61.3910480 117.3367090   8.2887340  61.0975200
 120.6573460   7.7937520  51.0017450 120.4311040   7.0767960  51.5942090
 120.2669660   7.5449960  50.1639200 118.5855360   8.3083800  64.4814370
 118.9211600   8.8950490  65.1592290 117.6655700   8.1776510  64.7112160
 106.4389490  11.8204380  51.7761910 106.7987130  12.4193720  51.1219180
 106.2981830  12.3664270  52.5496940 120.2389710   5.7109460  52.6631610
 119.9511410   6.1722150  53.4509490 121.0341880   5.2507230  52.9315830
 106.4231350  10.0859240  66.2504310 106.5322470   9.1453980  66.1099700
 105.7711910  10.3513990  65.6018040 114.4143940   8.3575130  67.6502430
 114.0940810   7.6384370  68.1948120 113.7402300   9.0330200  67.7238490
 112.4558110   9.2035580  52.5935580 112.4468210   9.9365270  51.9780090
 111.5356470   8.9567160  52.6862540 108.0564750   4.4250470  53.3382340
 107.4492700   5.1649370  53.3477640 108.5314100   4.5149830  52.5120540
 115.4417710   9.2663820  51.2560770 115.5429690   9.0627810  50.3262750
 114.5419450   9.0122100  51.4608550 114.0835820  11.7850140  55.9508440
 114.3377320  11.7471530  55.0287810 113.1348300  11.6583470  55.9436690
 120.0888400   2.7042020  57.5266950 119.1478540   2.7192250  57.7014640
 120.4032470   1.9177980  57.9727250 110.0670040   4.3861620  51.0870910
 110.8333310   4.2742980  51.6496340 110.1444730   3.6899590  50.4347680
 122.0913980   9.8750870  59.2021210 122.2161400  10.6982040  59.6745020
 122.9579540   9.6641600  58.8545360 109.5631510  11.9682080  58.8738340
 110.2993990  11.4197540  59.1446910 109.9472430  12.8338090  58.7344330
 106.4476990   8.0355650  54.7479850 105.5216770   8.2776790  54.7385260
 106.9133420   8.8629910  54.6264600 108.5689790  11.1528150  68.0623920
 109.3702520  11.4740200  68.4759320 108.0541610  10.7923730  68.7843830
 112.6733820  11.1412390  50.6963910 113.4662430  11.4301220  50.2445700
 112.1538170  10.7104560  50.0176390 117.4054420   7.2608020  68.0099330
 116.7992580   7.2839620  67.2695080 117.1008530   6.5291060  68.5466580
 118.8354790  10.9888310  66.6208740 119.7876540  10.9046330  66.5708980
 118.6883010  11.6530020  67.2942530 121.7263990  10.3682520  52.1200650
 121.4405500   9.9547660  51.3054830 121.5283540  11.2970230  52.0001170
 106.2887600   3.6401610  67.0059970 106.7926620   3.0608890  67.5776200
 105.5495020   3.9241840  67.5436340 113.1911220   6.3615800  50.5606260
 113.0861860   5.7468150  51.2867640 113.0235440   5.8381690  49.7769270
 113.3425540   5.0472600  66.5395490 112.5771210   5.6157600  66.4550160
 113.5241500   4.7548810  65.6463720 116.4313950   5.4235830  51.1648250
 115.8824050   5.8705130  51.8090990 117.0533210   4.9185080  51.6885920
 120.4848890   6.7777930  67.0970510 121.2258360   7.1153690  66.5937970
 119.7221570   6.9469990  66.5440280 112.0989070   4.3826750  53.0613550
 112.5205490   4.2166620  53.9044940 112.2239910   3.5726980  52.5668690
 114.6116710   3.4064360  50.3090650 115.1322370   2.6913380  49.9431800
 115.2585110   4.0450230  50.6091160 119.1594550   4.8292760  65.6325720
 119.5735570   4.9837840  66.4816140 118.2245550   4.9547980  65.7951500
 113.9209780   4.7813240  63.6021650 114.3397890   5.6245970  63.4297890
 113.0018410   4.9185280  63.3728430 116.2573680   2.5129420  64.9859490
 116.3769890   1.9170560  65.7254330 117.1167680   2.5499110  64.5660790
 118.5961580   3.0666610  63.5622000 118.0696800   3.5909230  62.9587140
 118.9392920   3.6994000  64.1931730 111.7717200  11.0866250  64.7179380
 111.2338290  11.8112310  64.3988080 112.0251160  10.6096590  63.9276720
 114.6279410  12.3217460  64.9766030 114.5538110  13.2252600  65.2838400
 113.7258250  12.0029360  64.9488100 115.1764740  11.4875970  52.5992390
 116.0715530  11.8260940  52.6211150 115.2082370  10.7655380  51.9716670
 108.8160900   6.8603020  50.8279390 109.2535770   7.4032690  51.4836970
 109.3008630   6.0349970  50.8375730 106.0306700   9.6492050  58.2799650
 106.3609710   8.7813110  58.0478290 106.4597700   9.8550570  59.1104610
 110.6268620   7.9801060  55.9401620 110.3264160   7.8566030  56.8405530
 110.5206110   7.1209650  55.5317350 106.5196910  10.5162640  61.0181280
 106.0827900  10.6963440  61.8505430 107.0874590  11.2737260  60.8763000
 122.1559090  10.0179640  65.3058590 121.5561080  10.0772200  64.5622510
 122.2852990   9.0784620  65.4355440 123.3960540   7.7597460  50.6428300
 122.5653500   7.8274110  51.1135530 123.5732370   8.6501580  50.3395160
 122.8517000   4.5044940  53.1462500 123.6135910   5.0741590  53.2522190
 122.8671370   3.9372140  53.9170810 106.3521340   3.0282870  57.3770160
 105.6970180   2.7594510  56.7329860 107.1899290   2.9187350  56.9272140
 123.8576970   5.3595040  57.9904430 124.2285800   4.5762360  57.5840400
 124.4978900   6.0484140  57.8121730 120.8410730   6.7431620  63.4034750
 120.0270570   7.1728780  63.6660540 121.2484930   7.3550030  62.7903800
 122.9036170   4.7979310  50.3035020 123.1785010   5.7058190  50.1754240
 122.7146910   4.7341840  51.2397010 122.8001510   2.7348300  55.2964450
 122.4245110   1.9676230  54.8645740 122.0704630   3.1171000  55.7839380
 107.3897270   3.4135440  61.9173500 107.7570310   3.3262840  62.7969520
 106.8208090   2.6501990  61.8180360 122.1901130   1.8819820  64.9303970
 121.9587220   1.6532570  64.0301920 122.4505680   2.8019370  64.8848860
 120.8986780  11.4950220  56.9303020 121.4945850  11.1734790  56.2537440
 121.1564930  11.0222040  57.7216290 108.8049350   7.9268130  67.0793650
 108.7618980   7.5561040  67.9608110 108.9360360   8.8645700  67.2195470
 112.5055380   9.4827720  62.6803370 112.2646740   9.7502280  61.7933890
 113.4458020   9.6533450  62.7354230 123.7659540  11.5022100  63.4814010
 123.2717820  11.8990970  62.7641140 123.1572830  10.8771310  63.8751290
 108.6437380  10.8730380  64.1991430 108.0497700  10.7415080  64.9381470
 108.6361220  10.0368520  63.7333530 121.4498990  12.1445520  60.7600750
 120.9901960  12.8961330  60.3858770 120.8211450  11.4251990  60.7015550
 108.2749610   8.2388760  63.1499470 107.5483670   7.6194050  63.0825420
 108.3358760   8.6329370  62.2797550 111.8794710  10.4533760  59.9348880
 112.3959730   9.8421120  59.4097140 112.5292090  10.9562540  60.4259890
 114.6190210  11.3442250  60.7617860 114.9068020  11.0896550  59.8850870
 115.1313430  10.7919610  61.3523430 106.5579610  11.5563150  56.3596230
 106.3901650  10.9233830  57.0578120 105.6914120  11.7622550  56.0090420
 108.1642310  10.2496380  53.8046370 107.6389930  10.6304410  53.1008330
 108.0886890  10.8747150  54.5256080 114.6862570  12.2658350  68.1286060
 115.6129880  12.0302620  68.1722020 114.6713000  13.0930350  67.6472090
 122.9207630  11.8083920  55.1260310 123.0959820  11.1221660  54.4821230
 122.2229200  12.3330970  54.7336980 110.7635280  12.1978760  52.6795620
 111.4954100  11.9138040  52.1319510 111.0228950  11.9592040  53.5695000
 109.9250070   8.3143490  52.6841950 109.2958950   8.7828590  53.2327780
 110.0397900   7.4692710  53.1188140 121.2540130  11.4928210  67.9527100
 122.0465450  10.9977440  67.7453060 121.5473280  12.1718350  68.5602710
 115.5117830   4.1428170  40.7152420 114.7359930   3.6628610  41.0050990
 116.1630760   3.4633820  40.5408580 109.5283660   4.4547980  41.5928180
 108.6968540   4.1996690  41.9924690 110.1364640   4.5258750  42.3286100
 119.5325260   8.5488360  39.4951550 119.0706790   7.7775600  39.8238720
 120.3450810   8.5754430  40.0004000 109.5084920   8.4888070  41.7886200
 109.8112960   7.5985810  41.6096420 110.2528510   9.0458290  41.5608450
 115.7588570  10.8346370  39.1155540 115.1400010  11.2903870  38.5449980
 116.6140350  10.9897830  38.7145240 114.9526820   6.8185360  40.7222580
 114.8835100   5.8775300  40.5611710 115.7146680   6.9086770  41.2945150
 116.6251920   5.7185610  36.5087450 116.0069190   6.1835060  35.9450170
 117.1375170   6.4113090  36.9256960 111.4883680   5.2461480  43.1871050
 111.1553060   5.8730400  43.8292120 111.6650360   5.7723360  42.4072720
 110.7002780   7.2142280  45.0020230 111.3176780   7.8893360  44.7204680
 109.8395900   7.6230260  44.9107730 105.9935120   6.4042140  33.8827080
 105.6163100   6.8929240  33.1511980 106.2508190   7.0767420  34.5133610
 121.6180370   8.6781690  42.9174870 120.9343890   9.3480800  42.9091540
 122.1574660   8.8762340  42.1519730 119.1539110  10.5225820  41.6320050
 119.1666270  10.1188110  40.7642310 118.6014330  11.2973110  41.5281480
 120.4484530   7.2442040  36.7210220 120.3380860   6.3016370  36.8459640
 120.4452780   7.6057680  37.6072980 118.5524550   5.4255660  42.9602660
 118.9693340   5.2115770  42.1256120 119.2764370   5.6828450  43.5311280
 115.9904810   2.8707360  36.0772710 115.0634090   2.8044740  36.3061180
 116.1429630   3.8087490  35.9627950 122.4986650   3.8242880  43.0518900
 121.6705280   3.8935970  42.5769030 123.0937130   4.4097190  42.5834730
 120.0202100   4.4327660  36.5807960 119.4014520   4.0947210  35.9334260
 120.0026550   3.7887420  37.2887150 111.5961450   3.3972100  38.8592440
 111.1918450   2.6849350  38.3638340 111.6824570   3.0525340  39.7480480
 112.0643150   7.0839660  41.0231650 111.7671440   6.4785130  40.3439430
 113.0142970   7.1216970  40.9121010 120.1528760  10.6571530  44.6854750
 119.6759320  11.4643720  44.4927360 119.4690550  10.0049860  44.8380960
 111.1561580   6.8221350  47.6739450 110.2590110   7.0461320  47.9212850
 111.1814450   6.9456290  46.7250850 118.1966800   3.6714470  33.5880710
 118.6360080   2.8336900  33.4418530 118.9095220   4.3043870  33.6744850
 109.9832800   3.6934670  46.2496820 109.8440570   4.5657470  46.6184220
 109.1014160   3.3507480  46.1044760 116.3062180   8.6110540  37.5561950
 116.7458090   9.3534870  37.1417340 116.2449070   8.8537110  38.4800910
 111.7813150   9.6356370  48.4581970 111.7528580  10.0399320  47.5910400
 111.6178120   8.7066730  48.2953570 123.7327970  10.4183470  49.7546140
 124.2087690  10.8966360  50.4335220 124.3535130  10.3500960  49.0291640
 105.9351450   5.4632220  42.1667730 106.0131870   5.5980990  41.2223450
 106.5493130   4.7548110  42.3595850 107.1799080   7.1632410  38.5773910
 106.7727160   7.3047000  37.7227510 108.0712090   6.8792570  38.3745120
 123.1361220   7.6096320  46.9146150 123.2624280   7.3708200  45.9963330
 123.1782600   6.7780860  47.3868230 116.9977960  11.3124320  45.4840960
 117.5122630  11.2232330  46.2863390 116.1547040  11.6584020  45.7768870
 118.9732360  11.5979660  34.9124960 118.8133500  11.3082600  35.8106790
 118.8079070  10.8219790  34.3770190 111.4520740  11.3778190  36.6896580
 111.2763220  10.4613730  36.4764380 110.5976480  11.7365480  36.9294380
 118.6758490   9.1067220  33.4722960 117.9823650   9.1044510  32.8125240
 119.4181350   8.6826540  33.0417130 118.2408420  10.7329930  37.5471450
 118.6965370   9.9519310  37.8610070 118.5800940  11.4436750  38.0912630
 105.9910970   6.5046390  44.7062190 106.1542010   6.0351750  43.8881560
 106.4563420   5.9969950  45.3711030 107.5649950   5.8797820  46.8658000
 107.1804740   5.2391490  47.4640960 107.8762140   6.5833940  47.4352730
 113.7147090   2.7274360  42.3466620 114.0817220   2.2532930  43.0927960
 113.5252150   3.6015930  42.6874960 111.5046460   1.7683000  44.6650830
 111.2003530   2.6474980  44.8901190 112.4592920   1.8282790  44.7008270
 110.0328250   5.9743990  35.2617680 109.2590510   5.4341610  35.1016400
 110.7622880   5.4550600  34.9235440 120.7916230   4.9709350  41.0544070
 121.5115350   5.4664640  40.6640180 120.5898050   4.2927240  40.4097940
 116.1735030   5.0418410  46.9413070 116.1072340   4.1214080  46.6870660
 115.5440170   5.1393850  47.6557710 110.0765650   5.6424370  38.8996490
 110.5944320   4.8392630  38.8453380 109.6249670   5.5803510  39.7413320
 114.9635150   6.9090650  34.1723790 115.3050850   7.6532880  33.6767110
 114.1347860   7.2221770  34.5348620 107.5610190   2.6085740  45.8122190
 107.2025130   3.2739590  46.3995530 107.2664750   1.7769290  46.1834810
 110.7623310   3.0669980  48.6961740 110.4623450   3.2127160  47.7989560
 111.5334550   2.5075270  48.6035130 116.1051760   7.8638980  46.6916870
 116.1196300   6.9319940  46.4735780 115.3976860   7.9498740  47.3306640
 121.2388830   2.0478800  32.9615480 121.1552550   2.4793020  32.1111920
 121.9583020   2.5077150  33.3942300 122.3162970   4.5046320  46.0385450
 121.5911160   5.0975100  45.8414840 122.8438430   4.4969860  45.2398820
 122.2676080   8.9021060  35.6897610 121.6252240   8.2476680  35.9641330
 121.8806740   9.3076150  34.9138280 117.8462560   6.2306490  39.5369300
 118.1986380   5.6334620  38.8770670 116.9624890   5.9050720  39.7077550
 113.9325840   6.9904180  36.9439710 114.6196970   7.5373390  37.3247300
 113.1458260   7.5344910  36.9789320 106.0718240   2.6077000  32.4356790
 106.9413090   2.8901800  32.7192710 105.5808560   3.4212870  32.3205600
 113.2353050   3.9950210  36.5565070 113.6915830   4.8055460  36.7825260
 112.8841260   3.6773350  37.3883560 115.5385660   9.5056550  43.7857370
 116.1827880   9.7115930  44.4630790 115.9015100   8.7444950  43.3328220
 116.8117740   7.5088900  42.5034820 117.4539970   6.8082060  42.6166990
 117.3367090   8.2887340  42.3231710 120.6573460   7.7937520  32.2273960
 120.4311040   7.0767960  32.8198600 120.2669660   7.5449960  31.3895710
 118.5855360   8.3083800  45.7070880 118.9211600   8.8950490  46.3848800
 117.6655700   8.1776510  45.9368670 106.4389490  11.8204380  33.0018420
 106.7987130  12.4193720  32.3475690 106.2981830  12.3664270  33.7753450
 120.2389710   5.7109460  33.8888120 119.9511410   6.1722150  34.6766000
 121.0341880   5.2507230  34.1572340 106.4231350  10.0859240  47.4760820
 106.5322470   9.1453980  47.3356210 105.7711910  10.3513990  46.8274550
 114.4143940   8.3575130  48.8758940 114.0940810   7.6384370  49.4204630
 113.7402300   9.0330200  48.9495000 112.4558110   9.2035580  33.8192090
 112.4468210   9.9365270  33.2036600 111.5356470   8.9567160  33.9119050
 108.0564750   4.4250470  34.5638850 107.4492700   5.1649370  34.5734150
 108.5314100   4.5149830  33.7377050 115.4417710   9.2663820  32.4817280
 115.5429690   9.0627810  31.5519260 114.5419450   9.0122100  32.6865060
 114.0835820  11.7850140  37.1764950 114.3377320  11.7471530  36.2544320
 113.1348300  11.6583470  37.1693200 120.0888400   2.7042020  38.7523460
 119.1478540   2.7192250  38.9271150 120.4032470   1.9177980  39.1983760
 110.0670040   4.3861620  32.3127420 110.8333310   4.2742980  32.8752850
 110.1444730   3.6899590  31.6604190 122.0913980   9.8750870  40.4277720
 122.2161400  10.6982040  40.9001530 122.9579540   9.6641600  40.0801870
 109.5631510  11.9682080  40.0994850 110.2993990  11.4197540  40.3703420
 109.9472430  12.8338090  39.9600840 106.4476990   8.0355650  35.9736360
 105.5216770   8.2776790  35.9641770 106.9133420   8.8629910  35.8521110
 108.5689790  11.1528150  49.2880430 109.3702520  11.4740200  49.7015830
 108.0541610  10.7923730  50.0100340 112.6733820  11.1412390  31.9220420
 113.4662430  11.4301220  31.4702210 112.1538170  10.7104560  31.2432900
 117.4054420   7.2608020  49.2355840 116.7992580   7.2839620  48.4951590
 117.1008530   6.5291060  49.7723090 118.8354790  10.9888310  47.8465250
 119.7876540  10.9046330  47.7965490 118.6883010  11.6530020  48.5199040
 121.7263990  10.3682520  33.3457160 121.4405500   9.9547660  32.5311340
 121.5283540  11.2970230  33.2257680 106.2887600   3.6401610  48.2316480
 106.7926620   3.0608890  48.8032710 105.5495020   3.9241840  48.7692850
 113.1911220   6.3615800  31.7862770 113.0861860   5.7468150  32.5124150
 113.0235440   5.8381690  31.0025780 113.3425540   5.0472600  47.7652000
 112.5771210   5.6157600  47.6806670 113.5241500   4.7548810  46.8720230
 116.4313950   5.4235830  32.3904760 115.8824050   5.8705130  33.0347500
 117.0533210   4.9185080  32.9142430 120.4848890   6.7777930  48.3227020
 121.2258360   7.1153690  47.8194480 119.7221570   6.9469990  47.7696790
 112.0989070   4.3826750  34.2870060 112.5205490   4.2166620  35.1301450
 112.2239910   3.5726980  33.7925200 114.6116710   3.4064360  31.5347160
 115.1322370   2.6913380  31.1688310 115.2585110   4.0450230  31.8347670
 119.1594550   4.8292760  46.8582230 119.5735570   4.9837840  47.7072650
 118.2245550   4.9547980  47.0208010 113.9209780   4.7813240  44.8278160
 114.3397890   5.6245970  44.6554400 113.0018410   4.9185280  44.5984940
 116.2573680   2.5129420  46.2116000 116.3769890   1.9170560  46.9510840
 117.1167680   2.5499110  45.7917300 118.5961580   3.0666610  44.7878510
 118.0696800   3.5909230  44.1843650 118.9392920   3.6994000  45.4188240
 111.7717200  11.0866250  45.9435890 111.2338290  11.8112310  45.6244590
 112.0251160  10.6096590  45.1533230 114.6279410  12.3217460  46.2022540
 114.5538110  13.2252600  46.5094910 113.7258250  12.0029360  46.1744610
 115.1764740  11.4875970  33.8248900 116.0715530  11.8260940  33.8467660
 115.2082370  10.7655380  33.1973180 108.8160900   6.8603020  32.0535900
 109.2535770   7.4032690  32.7093480 109.3008630   6.0349970  32.0632240
 106.0306700   9.6492050  39.5056160 106.3609710   8.7813110  39.2734800
 106.4597700   9.8550570  40.3361120 110.6268620   7.9801060  37.1658130
 110.3264160   7.8566030  38.0662040 110.5206110   7.1209650  36.7573860
 106.5196910  10.5162640  42.2437790 106.0827900  10.6963440  43.0761940
 107.0874590  11.2737260  42.1019510 122.1559090  10.0179640  46.5315100
 121.5561080  10.0772200  45.7879020 122.2852990   9.0784620  46.6611950
 123.3960540   7.7597460  31.8684810 122.5653500   7.8274110  32.3392040
 123.5732370   8.6501580  31.5651670 122.8517000   4.5044940  34.3719010
 123.6135910   5.0741590  34.4778700 122.8671370   3.9372140  35.1427320
 106.3521340   3.0282870  38.6026670 105.6970180   2.7594510  37.9586370
 107.1899290   2.9187350  38.1528650 123.8576970   5.3595040  39.2160940
 124.2285800   4.5762360  38.8096910 124.4978900   6.0484140  39.0378240
 120.8410730   6.7431620  44.6291260 120.0270570   7.1728780  44.8917050
 121.2484930   7.3550030  44.0160310 122.9036170   4.7979310  31.5291530
 123.1785010   5.7058190  31.4010750 122.7146910   4.7341840  32.4653520
 122.8001510   2.7348300  36.5220960 122.4245110   1.9676230  36.0902250
 122.0704630   3.1171000  37.0095890 107.3897270   3.4135440  43.1430010
 107.7570310   3.3262840  44.0226030 106.8208090   2.6501990  43.0436870
 122.1901130   1.8819820  46.1560480 121.9587220   1.6532570  45.2558430
 122.4505680   2.8019370  46.1105370 120.8986780  11.4950220  38.1559530
 121.4945850  11.1734790  37.4793950 121.1564930  11.0222040  38.9472800
 108.8049350   7.9268130  48.3050160 108.7618980   7.5561040  49.1864620
 108.9360360   8.8645700  48.4451980 112.5055380   9.4827720  43.9059880
 112.2646740   9.7502280  43.0190400 113.4458020   9.6533450  43.9610740
 123.7659540  11.5022100  44.7070520 123.2717820  11.8990970  43.9897650
 123.1572830  10.8771310  45.1007800 108.6437380  10.8730380  45.4247940
 108.0497700  10.7415080  46.1637980 108.6361220  10.0368520  44.9590040
 121.4498990  12.1445520  41.9857260 120.9901960  12.8961330  41.6115280
 120.8211450  11.4251990  41.9272060 108.2749610   8.2388760  44.3755980
 107.5483670   7.6194050  44.3081930 108.3358760   8.6329370  43.5054060
 111.8794710  10.4533760  41.1605390 112.3959730   9.8421120  40.6353650
 112.5292090  10.9562540  41.6516400 114.6190210  11.3442250  41.9874370
 114.9068020  11.0896550  41.1107380 115.1313430  10.7919610  42.5779940
 106.5579610  11.5563150  37.5852740 106.3901650  10.9233830  38.2834630
 105.6914120  11.7622550  37.2346930 108.1642310  10.2496380  35.0302880
 107.6389930  10.6304410  34.3264840 108.0886890  10.8747150  35.7512590
 114.6862570  12.2658350  49.3542570 115.6129880  12.0302620  49.3978530
 114.6713000  13.0930350  48.8728600 122.9207630  11.8083920  36.3516820
 123.0959820  11.1221660  35.7077740 122.2229200  12.3330970  35.9593490
 110.7635280  12.1978760  33.9052130 111.4954100  11.9138040  33.3576020
 111.0228950  11.9592040  34.7951510 109.9250070   8.3143490  33.9098460
 109.2958950   8.7828590  34.4584290 110.0397900   7.4692710  34.3444650
 121.2540130  11.4928210  49.1783610 122.0465450  10.9977440  48.9709570
 121.5473280  12.1718350  49.7859220 115.5117830   4.1428170  21.9408930
 114.7359930   3.6628610  22.2307500 116.1630760   3.4633820  21.7665090
 109.5283660   4.4547980  22.8184690 108.6968540   4.1996690  23.2181200
 110.1364640   4.5258750  23.5542610 119.5325260   8.5488360  20.7208060
 119.0706790   7.7775600  21.0495230 120.3450810   8.5754430  21.2260510
 109.5084920   8.4888070  23.0142710 109.8112960   7.5985810  22.8352930
 110.2528510   9.0458290  22.7864960 115.7588570  10.8346370  20.3412050
 115.1400010  11.2903870  19.7706490 116.6140350  10.9897830  19.9401750
 114.9526820   6.8185360  21.9479090 114.8835100   5.8775300  21.7868220
 115.7146680   6.9086770  22.5201660 116.6251920   5.7185610  17.7343960
 116.0069190   6.1835060  17.1706680 117.1375170   6.4113090  18.1513470
 111.4883680   5.2461480  24.4127560 111.1553060   5.8730400  25.0548630
 111.6650360   5.7723360  23.6329230 110.7002780   7.2142280  26.2276740
 111.3176780   7.8893360  25.9461190 109.8395900   7.6230260  26.1364240
 105.9935120   6.4042140  15.1083590 105.6163100   6.8929240  14.3768490
 106.2508190   7.0767420  15.7390120 121.6180370   8.6781690  24.1431380
 120.9343890   9.3480800  24.1348050 122.1574660   8.8762340  23.3776240
 119.1539110  10.5225820  22.8576560 119.1666270  10.1188110  21.9898820
 118.6014330  11.2973110  22.7537990 120.4484530   7.2442040  17.9466730
 120.3380860   6.3016370  18.0716150 120.4452780   7.6057680  18.8329490
 118.5524550   5.4255660  24.1859170 118.9693340   5.2115770  23.3512630
 119.2764370   5.6828450  24.7567790 115.9904810   2.8707360  17.3029220
 115.0634090   2.8044740  17.5317690 116.1429630   3.8087490  17.1884460
 122.4986650   3.8242880  24.2775410 121.6705280   3.8935970  23.8025540
 123.0937130   4.4097190  23.8091240 120.0202100   4.4327660  17.8064470
 119.4014520   4.0947210  17.1590770 120.0026550   3.7887420  18.5143660
 111.5961450   3.3972100  20.0848950 111.1918450   2.6849350  19.5894850
 111.6824570   3.0525340  20.9736990 112.0643150   7.0839660  22.2488160
 111.7671440   6.4785130  21.5695940 113.0142970   7.1216970  22.1377520
 120.1528760  10.6571530  25.9111260 119.6759320  11.4643720  25.7183870
 119.4690550  10.0049860  26.0637470 111.1561580   6.8221350  28.8995960
 110.2590110   7.0461320  29.1469360 111.1814450   6.9456290  27.9507360
 118.1966800   3.6714470  14.8137220 118.6360080   2.8336900  14.6675040
 118.9095220   4.3043870  14.9001360 109.9832800   3.6934670  27.4753330
 109.8440570   4.5657470  27.8440730 109.1014160   3.3507480  27.3301270
 116.3062180   8.6110540  18.7818460 116.7458090   9.3534870  18.3673850
 116.2449070   8.8537110  19.7057420 111.7813150   9.6356370  29.6838480
 111.7528580  10.0399320  28.8166910 111.6178120   8.7066730  29.5210080
 123.7327970  10.4183470  30.9802650 124.2087690  10.8966360  31.6591730
 124.3535130  10.3500960  30.2548150 105.9351450   5.4632220  23.3924240
 106.0131870   5.5980990  22.4479960 106.5493130   4.7548110  23.5852360
 107.1799080   7.1632410  19.8030420 106.7727160   7.3047000  18.9484020
 108.0712090   6.8792570  19.6001630 123.1361220   7.6096320  28.1402660
 123.2624280   7.3708200  27.2219840 123.1782600   6.7780860  28.6124740
 116.9977960  11.3124320  26.7097470 117.5122630  11.2232330  27.5119900
 116.1547040  11.6584020  27.0025380 118.9732360  11.5979660  16.1381470
 118.8133500  11.3082600  17.0363300 118.8079070  10.8219790  15.6026700
 111.4520740  11.3778190  17.9153090 111.2763220  10.4613730  17.7020890
 110.5976480  11.7365480  18.1550890 118.6758490   9.1067220  14.6979470
 117.9823650   9.1044510  14.0381750 119.4181350   8.6826540  14.2673640
 118.2408420  10.7329930  18.7727960 118.6965370   9.9519310  19.0866580
 118.5800940  11.4436750  19.3169140 105.9910970   6.5046390  25.9318700
 106.1542010   6.0351750  25.1138070 106.4563420   5.9969950  26.5967540
 107.5649950   5.8797820  28.0914510 107.1804740   5.2391490  28.6897470
 107.8762140   6.5833940  28.6609240 113.7147090   2.7274360  23.5723130
 114.0817220   2.2532930  24.3184470 113.5252150   3.6015930  23.9131470
 111.5046460   1.7683000  25.8907340 111.2003530   2.6474980  26.1157700
 112.4592920   1.8282790  25.9264780 110.0328250   5.9743990  16.4874190
 109.2590510   5.4341610  16.3272910 110.7622880   5.4550600  16.1491950
 120.7916230   4.9709350  22.2800580 121.5115350   5.4664640  21.8896690
 120.5898050   4.2927240  21.6354450 116.1735030   5.0418410  28.1669580
 116.1072340   4.1214080  27.9127170 115.5440170   5.1393850  28.8814220
 110.0765650   5.6424370  20.1253000 110.5944320   4.8392630  20.0709890
 109.6249670   5.5803510  20.9669830 114.9635150   6.9090650  15.3980300
 115.3050850   7.6532880  14.9023620 114.1347860   7.2221770  15.7605130
 107.5610190   2.6085740  27.0378700 107.2025130   3.2739590  27.6252040
 107.2664750   1.7769290  27.4091320 110.7623310   3.0669980  29.9218250
 110.4623450   3.2127160  29.0246070 111.5334550   2.5075270  29.8291640
 116.1051760   7.8638980  27.9173380 116.1196300   6.9319940  27.6992290
 115.3976860   7.9498740  28.5563150 121.2388830   2.0478800  14.1871990
 121.1552550   2.4793020  13.3368430 121.9583020   2.5077150  14.6198810
 122.3162970   4.5046320  27.2641960 121.5911160   5.0975100  27.0671350
 122.8438430   4.4969860  26.4655330 122.2676080   8.9021060  16.9154120
 121.6252240   8.2476680  17.1897840 121.8806740   9.3076150  16.1394790
 117.8462560   6.2306490  20.7625810 118.1986380   5.6334620  20.1027180
 116.9624890   5.9050720  20.9334060 113.9325840   6.9904180  18.1696220
 114.6196970   7.5373390  18.5503810 113.1458260   7.5344910  18.2045830
 106.0718240   2.6077000  13.6613300 106.9413090   2.8901800  13.9449220
 105.5808560   3.4212870  13.5462110 113.2353050   3.9950210  17.7821580
 113.6915830   4.8055460  18.0081770 112.8841260   3.6773350  18.6140070
 115.5385660   9.5056550  25.0113880 116.1827880   9.7115930  25.6887300
 115.9015100   8.7444950  24.5584730 116.8117740   7.5088900  23.7291330
 117.4539970   6.8082060  23.8423500 117.3367090   8.2887340  23.5488220
 120.6573460   7.7937520  13.4530470 120.4311040   7.0767960  14.0455110
 120.2669660   7.5449960  12.6152220 118.5855360   8.3083800  26.9327390
 118.9211600   8.8950490  27.6105310 117.6655700   8.1776510  27.1625180
 106.4389490  11.8204380  14.2274930 106.7987130  12.4193720  13.5732200
 106.2981830  12.3664270  15.0009960 120.2389710   5.7109460  15.1144630
 119.9511410   6.1722150  15.9022510 121.0341880   5.2507230  15.3828850
 106.4231350  10.0859240  28.7017330 106.5322470   9.1453980  28.5612720
 105.7711910  10.3513990  28.0531060 114.4143940   8.3575130  30.1015450
 114.0940810   7.6384370  30.6461140 113.7402300   9.0330200  30.1751510
 112.4558110   9.2035580  15.0448600 112.4468210   9.9365270  14.4293110
 111.5356470   8.9567160  15.1375560 108.0564750   4.4250470  15.7895360
 107.4492700   5.1649370  15.7990660 108.5314100   4.5149830  14.9633560
 115.4417710   9.2663820  13.7073790 115.5429690   9.0627810  12.7775770
 114.5419450   9.0122100  13.9121570 114.0835820  11.7850140  18.4021460
 114.3377320  11.7471530  17.4800830 113.1348300  11.6583470  18.3949710
 120.0888400   2.7042020  19.9779970 119.1478540   2.7192250  20.1527660
 120.4032470   1.9177980  20.4240270 110.0670040   4.3861620  13.5383930
 110.8333310   4.2742980  14.1009360 110.1444730   3.6899590  12.8860700
 122.0913980   9.8750870  21.6534230 122.2161400  10.6982040  22.1258040
 122.9579540   9.6641600  21.3058380 109.5631510  11.9682080  21.3251360
 110.2993990  11.4197540  21.5959930 109.9472430  12.8338090  21.1857350
 106.4476990   8.0355650  17.1992870 105.5216770   8.2776790  17.1898280
 106.9133420   8.8629910  17.0777620 108.5689790  11.1528150  30.5136940
 109.3702520  11.4740200  30.9272340 108.0541610  10.7923730  31.2356850
 112.6733820  11.1412390  13.1476930 113.4662430  11.4301220  12.6958720
 112.1538170  10.7104560  12.4689410 117.4054420   7.2608020  30.4612350
 116.7992580   7.2839620  29.7208100 117.1008530   6.5291060  30.9979600
 118.8354790  10.9888310  29.0721760 119.7876540  10.9046330  29.0222000
 118.6883010  11.6530020  29.7455550 121.7263990  10.3682520  14.5713670
 121.4405500   9.9547660  13.7567850 121.5283540  11.2970230  14.4514190
 106.2887600   3.6401610  29.4572990 106.7926620   3.0608890  30.0289220
 105.5495020   3.9241840  29.9949360 113.1911220   6.3615800  13.0119280
 113.0861860   5.7468150  13.7380660 113.0235440   5.8381690  12.2282290
 113.3425540   5.0472600  28.9908510 112.5771210   5.6157600  28.9063180
 113.5241500   4.7548810  28.0976740 116.4313950   5.4235830  13.6161270
 115.8824050   5.8705130  14.2604010 117.0533210   4.9185080  14.1398940
 120.4848890   6.7777930  29.5483530 121.2258360   7.1153690  29.0450990
 119.7221570   6.9469990  28.9953300 112.0989070   4.3826750  15.5126570
 112.5205490   4.2166620  16.3557960 112.2239910   3.5726980  15.0181710
 114.6116710   3.4064360  12.7603670 115.1322370   2.6913380  12.3944820
 115.2585110   4.0450230  13.0604180 119.1594550   4.8292760  28.0838740
 119.5735570   4.9837840  28.9329160 118.2245550   4.9547980  28.2464520
 113.9209780   4.7813240  26.0534670 114.3397890   5.6245970  25.8810910
 113.0018410   4.9185280  25.8241450 116.2573680   2.5129420  27.4372510
 116.3769890   1.9170560  28.1767350 117.1167680   2.5499110  27.0173810
 118.5961580   3.0666610  26.0135020 118.0696800   3.5909230  25.4100160
 118.9392920   3.6994000  26.6444750 111.7717200  11.0866250  27.1692400
 111.2338290  11.8112310  26.8501100 112.0251160  10.6096590  26.3789740
 114.6279410  12.3217460  27.4279050 114.5538110  13.2252600  27.7351420
 113.7258250  12.0029360  27.4001120 115.1764740  11.4875970  15.0505410
 116.0715530  11.8260940  15.0724170 115.2082370  10.7655380  14.4229690
 108.8160900   6.8603020  13.2792410 109.2535770   7.4032690  13.9349990
 109.3008630   6.0349970  13.2888750 106.0306700   9.6492050  20.7312670
 106.3609710   8.7813110  20.4991310 106.4597700   9.8550570  21.5617630
 110.6268620   7.9801060  18.3914640 110.3264160   7.8566030  19.2918550
 110.5206110   7.1209650  17.9830370 106.5196910  10.5162640  23.4694300
 106.0827900  10.6963440  24.3018450 107.0874590  11.2737260  23.3276020
 122.1559090  10.0179640  27.7571610 121.5561080  10.0772200  27.0135530
 122.2852990   9.0784620  27.8868460 123.3960540   7.7597460  13.0941320
 122.5653500   7.8274110  13.5648550 123.5732370   8.6501580  12.7908180
 122.8517000   4.5044940  15.5975520 123.6135910   5.0741590  15.7035210
 122.8671370   3.9372140  16.3683830 106.3521340   3.0282870  19.8283180
 105.6970180   2.7594510  19.1842880 107.1899290   2.9187350  19.3785160
 123.8576970   5.3595040  20.4417450 124.2285800   4.5762360  20.0353420
 124.4978900   6.0484140  20.2634750 120.8410730   6.7431620  25.8547770
 120.0270570   7.1728780  26.1173560 121.2484930   7.3550030  25.2416820
 122.9036170   4.7979310  12.7548040 123.1785010   5.7058190  12.6267260
 122.7146910   4.7341840  13.6910030 122.8001510   2.7348300  17.7477470
 122.4245110   1.9676230  17.3158760 122.0704630   3.1171000  18.2352400
 107.3897270   3.4135440  24.3686520 107.7570310   3.3262840  25.2482540
 106.8208090   2.6501990  24.2693380 122.1901130   1.8819820  27.3816990
 121.9587220   1.6532570  26.4814940 122.4505680   2.8019370  27.3361880
 120.8986780  11.4950220  19.3816040 121.4945850  11.1734790  18.7050460
 121.1564930  11.0222040  20.1729310 108.8049350   7.9268130  29.5306670
 108.7618980   7.5561040  30.4121130 108.9360360   8.8645700  29.6708490
 112.5055380   9.4827720  25.1316390 112.2646740   9.7502280  24.2446910
 113.4458020   9.6533450  25.1867250 123.7659540  11.5022100  25.9327030
 123.2717820  11.8990970  25.2154160 123.1572830  10.8771310  26.3264310
 108.6437380  10.8730380  26.6504450 108.0497700  10.7415080  27.3894490
 108.6361220  10.0368520  26.1846550 121.4498990  12.1445520  23.2113770
 120.9901960  12.8961330  22.8371790 120.8211450  11.4251990  23.1528570
 108.2749610   8.2388760  25.6012490 107.5483670   7.6194050  25.5338440
 108.3358760   8.6329370  24.7310570 111.8794710  10.4533760  22.3861900
 112.3959730   9.8421120  21.8610160 112.5292090  10.9562540  22.8772910
 114.6190210  11.3442250  23.2130880 114.9068020  11.0896550  22.3363890
 115.1313430  10.7919610  23.8036450 106.5579610  11.5563150  18.8109250
 106.3901650  10.9233830  19.5091140 105.6914120  11.7622550  18.4603440
 108.1642310  10.2496380  16.2559390 107.6389930  10.6304410  15.5521350
 108.0886890  10.8747150  16.9769100 114.6862570  12.2658350  30.5799080
 115.6129880  12.0302620  30.6235040 114.6713000  13.0930350  30.0985110
 122.9207630  11.8083920  17.5773330 123.0959820  11.1221660  16.9334250
 122.2229200  12.3330970  17.1850000 110.7635280  12.1978760  15.1308640
 111.4954100  11.9138040  14.5832530 111.0228950  11.9592040  16.0208020
 109.9250070   8.3143490  15.1354970 109.2958950   8.7828590  15.6840800
 110.0397900   7.4692710  15.5701160 121.2540130  11.4928210  30.4040120
 122.0465450  10.9977440  30.1966080 121.5473280  12.1718350  31.0115730
 115.5117830   4.1428170   3.1665440 114.7359930   3.6628610   3.4564010
 116.1630760   3.4633820   2.9921600 109.5283660   4.4547980   4.0441200
 108.6968540   4.1996690   4.4437710 110.1364640   4.5258750   4.7799120
 119.5325260   8.5488360   1.9464570 119.0706790   7.7775600   2.2751740
 120.3450810   8.5754430   2.4517020 109.5084920   8.4888070   4.2399220
 109.8112960   7.5985810   4.0609440 110.2528510   9.0458290   4.0121470
 114.9526820   6.8185360   3.1735600 114.8835100   5.8775300   3.0124730
 115.7146680   6.9086770   3.7458170 111.4883680   5.2461480   5.6384070
 111.1553060   5.8730400   6.2805140 111.6650360   5.7723360   4.8585740
 110.7002780   7.2142280   7.4533250 111.3176780   7.8893360   7.1717700
 109.8395900   7.6230260   7.3620750 121.6180370   8.6781690   5.3687890
 120.9343890   9.3480800   5.3604560 122.1574660   8.8762340   4.6032750
 119.1539110  10.5225820   4.0833070 119.1666270  10.1188110   3.2155330
 118.6014330  11.2973110   3.9794500 118.5524550   5.4255660   5.4115680
 118.9693340   5.2115770   4.5769140 119.2764370   5.6828450   5.9824300
 122.4986650   3.8242880   5.5031920 121.6705280   3.8935970   5.0282050
 123.0937130   4.4097190   5.0347750 112.0643150   7.0839660   3.4744670
 111.7671440   6.4785130   2.7952450 113.0142970   7.1216970   3.3634030
 120.1528760  10.6571530   7.1367770 119.6759320  11.4643720   6.9440380
 119.4690550  10.0049860   7.2893980 111.1561580   6.8221350  10.1252470
 110.2590110   7.0461320  10.3725870 111.1814450   6.9456290   9.1763870
 109.9832800   3.6934670   8.7009840 109.8440570   4.5657470   9.0697240
 109.1014160   3.3507480   8.5557780 111.7813150   9.6356370  10.9094990
 111.7528580  10.0399320  10.0423420 111.6178120   8.7066730  10.7466590
 123.7327970  10.4183470  12.2059160 124.2087690  10.8966360  12.8848240
 124.3535130  10.3500960  11.4804660 105.9351450   5.4632220   4.6180750
 106.0131870   5.5980990   3.6736470 106.5493130   4.7548110   4.8108870
 123.1361220   7.6096320   9.3659170 123.2624280   7.3708200   8.4476350
 123.1782600   6.7780860   9.8381250 116.9977960  11.3124320   7.9353980
 117.5122630  11.2232330   8.7376410 116.1547040  11.6584020   8.2281890
 105.9910970   6.5046390   7.1575210 106.1542010   6.0351750   6.3394580
 106.4563420   5.9969950   7.8224050 107.5649950   5.8797820   9.3171020
 107.1804740   5.2391490   9.9153980 107.8762140   6.5833940   9.8865750
 113.7147090   2.7274360   4.7979640 114.0817220   2.2532930   5.5440980
 113.5252150   3.6015930   5.1387980 111.5046460   1.7683000   7.1163850
 111.2003530   2.6474980   7.3414210 112.4592920   1.8282790   7.1521290
 120.7916230   4.9709350   3.5057090 121.5115350   5.4664640   3.1153200
 120.5898050   4.2927240   2.8610960 116.1735030   5.0418410   9.3926090
 116.1072340   4.1214080   9.1383680 115.5440170   5.1393850  10.1070730
 107.5610190   2.6085740   8.2635210 107.2025130   3.2739590   8.8508550
 107.2664750   1.7769290   8.6347830 110.7623310   3.0669980  11.1474760
 110.4623450   3.2127160  10.2502580 111.5334550   2.5075270  11.0548150
 116.1051760   7.8638980   9.1429890 116.1196300   6.9319940   8.9248800
 115.3976860   7.9498740   9.7819660 122.3162970   4.5046320   8.4898470
 121.5911160   5.0975100   8.2927860 122.8438430   4.4969860   7.6911840
 115.5385660   9.5056550   6.2370390 116.1827880   9.7115930   6.9143810
 115.9015100   8.7444950   5.7841240 116.8117740   7.5088900   4.9547840
 117.4539970   6.8082060   5.0680010 117.3367090   8.2887340   4.7744730
 118.5855360   8.3083800   8.1583900 118.9211600   8.8950490   8.8361820
 117.6655700   8.1776510   8.3881690 106.4231350  10.0859240   9.9273840
 106.5322470   9.1453980   9.7869230 105.7711910  10.3513990   9.2787570
 114.4143940   8.3575130  11.3271960 114.0940810   7.6384370  11.8717650
 113.7402300   9.0330200  11.4008020 122.0913980   9.8750870   2.8790740
 122.2161400  10.6982040   3.3514550 122.9579540   9.6641600   2.5314890
 109.5631510  11.9682080   2.5507870 110.2993990  11.4197540   2.8216440
 109.9472430  12.8338090   2.4113860 108.5689790  11.1528150  11.7393450
 109.3702520  11.4740200  12.1528850 108.0541610  10.7923730  12.4613360
 117.4054420   7.2608020  11.6868860 116.7992580   7.2839620  10.9464610
 117.1008530   6.5291060  12.2236110 118.8354790  10.9888310  10.2978270
 119.7876540  10.9046330  10.2478510 118.6883010  11.6530020  10.9712060
 106.2887600   3.6401610  10.6829500 106.7926620   3.0608890  11.2545730
 105.5495020   3.9241840  11.2205870 113.3425540   5.0472600  10.2165020
 112.5771210   5.6157600  10.1319690 113.5241500   4.7548810   9.3233250
 120.4848890   6.7777930  10.7740040 121.2258360   7.1153690  10.2707500
 119.7221570   6.9469990  10.2209810 119.1594550   4.8292760   9.3095250
 119.5735570   4.9837840  10.1585670 118.2245550   4.9547980   9.4721030
 113.9209780   4.7813240   7.2791180 114.3397890   5.6245970   7.1067420
 113.0018410   4.9185280   7.0497960 116.2573680   2.5129420   8.6629020
 116.3769890   1.9170560   9.4023860 117.1167680   2.5499110   8.2430320
 118.5961580   3.0666610   7.2391530 118.0696800   3.5909230   6.6356670
 118.9392920   3.6994000   7.8701260 111.7717200  11.0866250   8.3948910
 111.2338290  11.8112310   8.0757610 112.0251160  10.6096590   7.6046250
 114.6279410  12.3217460   8.6535560 114.5538110  13.2252600   8.9607930
 113.7258250  12.0029360   8.6257630 106.0306700   9.6492050   1.9569180
 106.3609710   8.7813110   1.7247820 106.4597700   9.8550570   2.7874140
 106.5196910  10.5162640   4.6950810 106.0827900  10.6963440   5.5274960
 107.0874590  11.2737260   4.5532530 122.1559090  10.0179640   8.9828120
 121.5561080  10.0772200   8.2392040 122.2852990   9.0784620   9.1124970
 120.8410730   6.7431620   7.0804280 120.0270570   7.1728780   7.3430070
 121.2484930   7.3550030   6.4673330 107.3897270   3.4135440   5.5943030
 107.7570310   3.3262840   6.4739050 106.8208090   2.6501990   5.4949890
 122.1901130   1.8819820   8.6073500 121.9587220   1.6532570   7.7071450
 122.4505680   2.8019370   8.5618390 108.8049350   7.9268130  10.7563180
 108.7618980   7.5561040  11.6377640 108.9360360   8.8645700  10.8965000
 112.5055380   9.4827720   6.3572900 112.2646740   9.7502280   5.4703420
 113.4458020   9.6533450   6.4123760 123.7659540  11.5022100   7.1583540
 123.2717820  11.8990970   6.4410670 123.1572830  10.8771310   7.5520820
 108.6437380  10.8730380   7.8760960 108.0497700  10.7415080   8.6151000
 108.6361220  10.0368520   7.4103060 121.4498990  12.1445520   4.4370280
 120.9901960  12.8961330   4.0628300 120.8211450  11.4251990   4.3785080
 108.2749610   8.2388760   6.8269000 107.5483670   7.6194050   6.7594950
 108.3358760   8.6329370   5.9567080 111.8794710  10.4533760   3.6118410
 112.3959730   9.8421120   3.0866670 112.5292090  10.9562540   4.1029420
 114.6190210  11.3442250   4.4387390 114.9068020  11.0896550   3.5620400
 115.1313430  10.7919610   5.0292960 114.6862570  12.2658350  11.8055590
 115.6129880  12.0302620  11.8491550 114.6713000  13.0930350  11.3241620
 121.2540130  11.4928210  11.6296630 122.0465450  10.9977440  11.4222590
 121.5473280  12.1718350  12.2372240  98.6056300 152.5597070 151.4804090
  98.5250350 151.6451680 151.2095800  98.1920720 153.0564140 150.7743800
  96.7374340 154.3376090 153.3613360  95.9616440 153.8576530 153.6511930
  97.3887270 153.6581740 153.1869520  89.1632120 149.6097790 148.0231510
  88.2748820 149.9513760 147.9211390  89.4473310 149.4098110 147.1312340
  87.1265130 152.2103440 153.9071210  87.6981240 151.4425640 153.9074850
  87.1266670 152.5092200 152.9977820  97.2088500 149.8203660 153.5952450
  97.5853320 148.9475540 153.4826120  97.1108010 150.1562360 152.7042890
  91.3393510 148.1929290 149.0569890  91.4460260 149.0933020 149.3638650
  90.4285870 148.1447260 148.7664540 100.9912620 147.3154100 150.5280790
 101.8122240 146.8250670 150.5706270 101.0246700 147.9051760 151.2812630
  93.1801240 151.1615660 153.3895070  93.6879460 151.6596630 154.0300090
  93.7114480 150.3850860 153.2134430 101.2274100 149.2554480 153.3008330
 100.5229670 149.5439370 153.8811440 101.5886260 150.0654590 152.9407890
 104.2961020 148.7009270 153.6917540 103.3485930 148.7348250 153.8232970
 104.6211010 149.5148220 154.0766900  94.8280560 145.0006450 151.9873530
  95.1355540 144.4453340 151.2709030  93.8981260 145.1350910 151.8046520
  97.2161320 153.0655280 148.7233650  96.2890600 152.9992660 148.9522120
  97.3686140 154.0035410 148.6088890  97.2030400 149.3372280 145.7200810
  96.2634070 149.4986240 145.8053270  97.5213660 150.0557960 145.1736800
 101.2458610 154.6275580 149.2268900 100.6271030 154.2895130 148.5795200
 101.2283060 153.9835340 149.9348090  92.8217960 153.5920020 151.5053380
  92.4174960 152.8797270 151.0099280  92.9081080 153.2473260 152.3941420
  99.4223310 153.8662390 146.2341650  99.8616590 153.0284820 146.0879470
 100.1351730 154.4991790 146.3205790 103.0040450 145.1205200 144.5482690
 102.6913110 145.2132030 145.4481760 103.7652920 145.6986230 144.4980120
  89.5222590 152.4865000 149.0060030  89.4020190 153.2127090 148.3941300
  89.2123480 151.7167910 148.5287940  91.9886250 145.8300070 152.3883700
  91.5454400 146.6109610 152.0568220  92.5471240 146.1529960 153.0954640
  95.1045070 145.4510770 147.2689530  94.4799250 145.4470640 147.9942840
  95.0175190 144.5841730 146.8725500  94.0262150 146.3747400 154.2473300
  94.3234480 147.2810230 154.1665320  94.5747710 145.8866180 153.6332870
  91.7800470 150.9533640 150.1164950  91.5541390 150.7370810 151.0211570
  90.9993000 151.3862100 149.7710920  99.0098230 150.9597010 148.7155600
  98.4107120 151.6832810 148.5319220  99.5577840 150.8973790 147.9332050
  97.6163100 149.5960550 150.7458880  98.0092670 149.9132750 149.9327570
  97.9779950 148.7172430 150.8603400  86.6527270 146.1861350 152.9689080
  86.3640320 146.7564210 153.6814060  87.3973030 145.7065800 153.3320310
  86.8397500 150.1281470 144.1791800  86.7572170 151.0712230 144.3206790
  86.4880560 149.9856380 143.3004150  94.6395630 148.8620500 153.2462150
  94.6431690 148.4210450 152.3966690  95.5346750 149.1837830 153.3533970
  90.4898010 148.7446990 152.2056360  90.1498060 149.2222220 152.9623410
  89.7275330 148.2912110 151.8457460  94.7015780 149.8632580 146.2368910
  94.8228600 149.8219060 147.1854730  94.3164290 150.7256730 146.0815640
  93.7137280 152.1733720 145.6352210  93.1454180 151.7251970 145.0088120
  94.4226280 152.5326500 145.1017360  87.8044090 147.6665970 151.1221030
  87.5191010 147.3021640 151.9599650  87.7422950 146.9346430 150.5084170
  97.4782680 146.5595230 147.8434400  96.6647290 146.0608400 147.7679710
  97.2844630 147.3993480 147.4270750 100.1931070 150.9314880 146.1396560
 101.0810690 151.2432110 145.9647900 100.1636160 150.0587130 145.7477140
 102.4645340 152.2426720 145.6076420 102.3809060 152.6740940 144.7572860
 103.1839530 152.7025070 146.0403240  87.2974750 152.8024920 145.0817730
  88.1669600 153.0849720 145.3653650  86.8065070 153.6160790 144.9666540
  90.3621340 144.5335780 149.6748530  90.2335970 144.5253680 150.6233450
  89.5383360 144.8718870 149.3239540 102.2216080 147.7406150 147.6944240
 101.5929240 147.8451820 146.9802470 101.7268000 147.9602930 148.4838120
  94.1900110 150.0192100 149.1102120  93.4816260 150.4878440 149.5515730
  94.4744590 149.3614110 149.7447310  98.2215540 146.7442760 150.5497910
  98.0983320 146.7628890 149.6007420  99.1700100 146.7921700 150.6696310
  92.3935130 148.3277180 146.4852830  93.2425660 148.7647330 146.4193020
  92.0266400 148.6397440 147.3124890 101.3144910 152.8989940 151.3984400
 100.3735050 152.9140170 151.5732090 101.6288980 152.1125900 151.8444700
  91.2926550 154.5809540 144.9588360  92.0589820 154.4690900 145.5213790
  91.3701240 153.8847510 144.3065130  89.9873310 152.0134610 145.6421250
  90.0676900 151.0662120 145.7538650  90.8793060 152.3441490 145.7481910
  93.3245580 154.5774670 146.9331000  93.7462000 154.4114540 147.7762390
  93.4496420 153.7674900 146.4386140  95.8373220 153.6012280 144.1808100
  96.3578880 152.8861300 143.8149250  96.4841620 154.2398150 144.4808610
  92.2204480 150.6507900 143.8789160  92.0193540 149.7875260 144.2402500
  92.0496530 150.5641260 142.9410760  99.6992790 145.4616130 146.4076040
  99.9795080 144.6184030 146.7635460  98.9258520 145.6939240 146.9214790
  91.0187280 147.7508520 143.8667040  91.3213180 147.7575950 142.9586190
  91.7581870 147.4006380 144.3634700  94.2372210 146.6943140 144.8523240
  93.8894210 146.0167130 144.2725690  94.4384980 146.2332650 145.6666630
  87.5777850 153.2230790 151.2487610  86.9226690 152.9542430 150.6047310
  88.4155800 153.1135270 150.7989590 100.5268290 148.0172080 145.4706100
 100.9453170 147.8303060 144.6302760 100.2204350 147.1651130 145.7809030
 104.0258020 152.9296220 149.1681900 103.6501620 152.1624150 148.7363190
 103.2961140 153.3118920 149.6556830  86.7915930 150.4329720 147.1912940
  85.8880010 150.6959920 147.0164600  87.2756550 150.7040890 146.4112900
 103.3008980 151.1553710 152.4689140 103.8246460 150.6616360 151.8379310
 103.8868400 151.2904070 153.2136710  89.3343140 149.4895260 145.1007320
  90.0434840 149.0678480 144.6154600  88.6183080 149.5570490 144.4690670
  88.9817300 145.5434590 144.1409970  89.7045430 146.0843530 144.4591190
  89.2541820 145.2698010 143.2651510 102.7908950 150.4127060 148.4081550
 103.2868070 150.1797930 149.1930430 102.5925020 149.5738900 147.9919190
 104.2196110 149.0488010 150.9419230 104.1095390 148.8944050 151.8801500
 104.9803700 148.5208950 150.6994640 105.1086380 146.8795930 144.1825370
 106.0335690 146.7477110 143.9743660 105.0862170 146.9588750 145.1361820
 105.1824870 147.6506590 146.8082080 104.3876370 147.5851710 147.3374990
 105.3868150 148.5857230 146.7967430 101.6144800 145.9803470 153.2580910
 102.0552890 145.9248570 152.4102510 101.3452390 146.8961480 153.3291090
 103.4783370 145.6118710 151.2689730 103.4171770 144.6679930 151.1220750
 104.2575400 145.7198800 151.8143190  88.4064140 145.5827850 147.7345540
  89.1643500 145.6956730 147.1609570  87.9441310 146.4197050 147.6888970
  94.9477950 147.6967120 150.7247850  94.1352460 147.3224010 150.3843730
  95.4519590 146.9412200 151.0269040  99.4502930 144.3609570 151.9630920
 100.0532300 144.9329780 152.4379440  98.7095920 144.9249010 151.7404820
 102.5937530 144.7631130 147.2371200 102.7888160 145.6614580 147.5038630
 101.8067400 144.5318210 147.7304150  90.7789290 146.1091900 146.2747510
  91.3082050 145.3221700 146.1455460  91.4117610 146.7883090 146.5083040
  92.9727130 145.8467040 149.3292900  92.3429870 145.1454350 149.4963030
  92.4332270 146.6071170 149.1126060  98.6056300 152.5597070 132.7060600
  98.5250350 151.6451680 132.4352310  98.1920720 153.0564140 132.0000310
  96.7374340 154.3376090 134.5869870  95.9616440 153.8576530 134.8768440
  97.3887270 153.6581740 134.4126030  90.7540170 154.6495900 135.4645630
  89.9225050 154.3944610 135.8642140  91.3621150 154.7206670 136.2003550
  89.1632120 149.6097790 129.2488020  88.2748820 149.9513760 129.1467900
  89.4473310 149.4098110 128.3568850  87.1265130 152.2103440 135.1327720
  87.6981240 151.4425640 135.1331360  87.1266670 152.5092200 134.2234330
  88.3690000 147.6187800 136.9196650  88.1892840 146.7213550 137.1999410
  87.9670080 148.1659670 137.5943600  97.2088500 149.8203660 134.8208960
  97.5853320 148.9475540 134.7082630  97.1108010 150.1562360 133.9299400
  91.3393510 148.1929290 130.2826400  91.4460260 149.0933020 130.5895160
  90.4285870 148.1447260 129.9921050 100.9912620 147.3154100 131.7537300
 101.8122240 146.8250670 131.7962780 101.0246700 147.9051760 132.5069140
  88.9876670 150.1148300 135.5278990  89.6686780 150.3786670 136.1466390
  88.6724720 149.2749170 135.8617000  93.1801240 151.1615660 134.6151580
  93.6879460 151.6596630 135.2556600  93.7114480 150.3850860 134.4390940
 105.2812170 149.3320850 138.3180930 104.5764340 149.7202560 137.7996040
 105.5470090 150.0271140 138.9201860  91.4637340 145.8014220 138.8815000
  91.4655780 146.3186610 138.0760900  90.6341650 145.3244400 138.8584930
 101.2274100 149.2554480 134.5264840 100.5229670 149.5439370 135.1067950
 101.5886260 150.0654590 134.1664400  91.1452670 147.5124180 136.8885450
  91.4869480 148.3566230 136.5939320  90.2068480 147.6607920 137.0050790
 104.2961020 148.7009270 134.9174050 103.3485930 148.7348250 135.0489480
 104.6211010 149.5148220 135.3023410  94.8280560 145.0006450 133.2130040
  95.1355540 144.4453340 132.4965540  93.8981260 145.1350910 133.0303030
  97.2161320 153.0655280 129.9490160  96.2890600 152.9992660 130.1778630
  97.3686140 154.0035410 129.8345400  97.2030400 149.3372280 126.9457320
  96.2634070 149.4986240 127.0309780  97.5213660 150.0557960 126.3993310
 103.7243160 154.0190800 136.9236350 102.8961790 154.0883890 136.4486480
 104.3193640 154.6045110 136.4552180 101.2458610 154.6275580 130.4525410
 100.6271030 154.2895130 129.8051710 101.2283060 153.9835340 131.1604600
 100.6885170 150.8060120 137.8691220 100.2756350 151.6313830 138.1231210
  99.9561120 150.2205160 137.6767580  92.8217960 153.5920020 132.7309890
  92.4174960 152.8797270 132.2355790  92.9081080 153.2473260 133.6197930
  91.5346580 150.3663230 136.5108930  92.0861170 150.4758570 135.7362180
  92.0490090 150.7400830 137.2264160  99.4223310 153.8662390 127.4598160
  99.8616590 153.0284820 127.3135980 100.1351730 154.4991790 127.5462300
  91.2089310 153.8882590 140.1214270  91.0697080 154.7605390 140.4901670
  90.3270670 153.5455400 139.9762210 103.0040450 145.1205200 125.7739200
 102.6913110 145.2132030 126.6738270 103.7652920 145.6986230 125.7236630
  89.5222590 152.4865000 130.2316540  89.4020190 153.2127090 129.6197810
  89.2123480 151.7167910 129.7544450 104.2141740 149.8576700 141.7513340
 103.5986010 150.3656370 141.2228800 103.8938160 148.9575030 141.6939280
  91.9886250 145.8300070 133.6140210  91.5454400 146.6109610 133.2824730
  92.5471240 146.1529960 134.3211150  96.2756060 148.6968590 139.2175530
  95.8135430 148.9051610 140.0295470  95.8734170 147.8827940 138.9146200
 101.2760570 149.9177540 140.3472190 100.4254160 149.6183290 140.6681260
 101.1162360 150.1619550 139.4356010  98.3710280 151.4179290 142.4470980
  98.6963690 150.5843040 142.1073210  99.1590610 151.9407810 142.5949310
  95.1045070 145.4510770 128.4946040  94.4799250 145.4470640 129.2199350
  95.0175190 144.5841730 128.0982010  94.0262150 146.3747400 135.4729810
  94.3234480 147.2810230 135.3921830  94.5747710 145.8866180 134.8589380
  91.7800470 150.9533640 131.3421460  91.5541390 150.7370810 132.2468080
  90.9993000 151.3862100 130.9967430  99.0098230 150.9597010 129.9412110
  98.4107120 151.6832810 129.7575730  99.5577840 150.8973790 129.1588560
  94.2199680 151.8519220 142.0081730  94.1243280 150.9113950 141.8582130
  95.0631660 152.0734290 141.6129800  97.6163100 149.5960550 131.9715390
  98.0092670 149.9132750 131.1584080  97.9779950 148.7172430 132.0859910
  89.3510220 148.2632890 140.1615510  88.9573610 149.1108100 140.3688290
  88.6628620 147.6259260 140.3524150  95.9255270 148.3467860 143.2312250
  95.2353590 148.1540060 143.8658340  96.6687570 148.6302500 143.7636550
  86.6527270 146.1861350 134.1945590  86.3640320 146.7564210 134.9070570
  87.3973030 145.7065800 134.5576820  86.8397500 150.1281470 125.4048310
  86.7572170 151.0712230 125.5463300  86.4880560 149.9856380 124.5260660
  98.2018240 152.1866300 136.0666170  97.4699360 152.6953110 136.4156270
  97.8042580 151.3696280 135.7654950  94.6395630 148.8620500 134.4718660
  94.6431690 148.4210450 133.6223200  95.5346750 149.1837830 134.5790480
  90.4898010 148.7446990 133.4312870  90.1498060 149.2222220 134.1879920
  89.7275330 148.2912110 133.0713970  94.7015780 149.8632580 127.4625420
  94.8228600 149.8219060 128.4111240  94.3164290 150.7256730 127.3072150
  98.6644150 147.6399980 135.4789110  98.6816890 148.0908630 136.3230960
  98.4159730 146.7405620 135.6922550  93.7137280 152.1733720 126.8608720
  93.1454180 151.7251970 126.2344630  94.4226280 152.5326500 126.3273870
 102.0914900 145.0532160 141.3175490 102.4160670 144.3221820 141.8433470
 102.1271410 144.7345800 140.4156480  94.9403600 152.9222280 136.2184070
  95.3073730 152.4480850 136.9645410  94.7508660 153.7963850 136.5592410
  87.8044090 147.6665970 132.3477540  87.5191010 147.3021640 133.1856160
  87.7422950 146.9346430 131.7340680  92.7302970 151.9630920 138.5368280
  92.4260040 152.8422900 138.7618640  93.6849430 152.0230710 138.5725720
  97.4782680 146.5595230 129.0690910  96.6647290 146.0608400 128.9936220
  97.2844630 147.3993480 128.6527260 100.1931070 150.9314880 127.3653070
 101.0810690 151.2432110 127.1904410 100.1636160 150.0587130 126.9733650
  88.7866700 152.8033660 139.6839640  88.4281640 153.4687510 140.2712980
  88.4921260 151.9717210 140.0552260  91.9879820 153.2617900 142.5679190
  91.6879960 153.4075080 141.6707010  92.7591060 152.7023190 142.4752580
 102.4645340 152.2426720 126.8332930 102.3809060 152.6740940 125.9829370
 103.1839530 152.7025070 127.2659750  87.2974750 152.8024920 126.3074240
  88.1669600 153.0849720 126.5910160  86.8065070 153.6160790 126.1923050
  90.3621340 144.5335780 130.9005040  90.2335970 144.5253680 131.8489960
  89.5383360 144.8718870 130.5496050  87.3615270 146.2926900 140.3611740
  86.6473790 146.4923820 140.9664350  87.7810310 145.5166470 140.7326540
  98.8554050 148.7849210 138.1113190  99.2234870 147.9644420 138.4392760
  97.9952250 148.8451100 138.5268840 102.2216080 147.7406150 128.9200750
 101.5929240 147.8451820 128.2058980 101.7268000 147.9602930 129.7094630
  94.1900110 150.0192100 130.3358630  93.4816260 150.4878440 130.7772240
  94.4744590 149.3614110 130.9703820  95.8156040 151.4388800 138.3351160
  96.3141290 151.9134620 139.0003010  95.9578990 150.5152320 138.5421190
  98.2215540 146.7442760 131.7754420  98.0983320 146.7628890 130.8263930
  99.1700100 146.7921700 131.8952820  92.3935130 148.3277180 127.7109340
  93.2425660 148.7647330 127.6449530  92.0266400 148.6397440 128.5381400
 103.0222900 147.6556760 139.1779550 102.5196500 148.3962160 139.5173360
 103.8379560 148.0440760 138.8616340 101.3144910 152.8989940 132.6240910
 100.3735050 152.9140170 132.7988600 101.6288980 152.1125900 133.0701210
  91.2926550 154.5809540 126.1844870  92.0589820 154.4690900 126.7470300
  91.3701240 153.8847510 125.5321640  89.9873310 152.0134610 126.8677760
  90.0676900 151.0662120 126.9795160  90.8793060 152.3441490 126.9738420
  87.5144110 153.8349530 142.1033930  88.0183130 153.2556810 142.6750160
  86.7751530 154.1189760 142.6410300  89.5467190 151.9779120 142.9984000
  89.5872530 151.6792990 143.9069230  90.4012690 152.3786730 142.8391520
  93.3245580 154.5774670 128.1587510  93.7462000 154.4114540 129.0018900
  93.4496420 153.7674900 127.6642650  91.4873000 150.5571220 140.9658490
  90.9569460 150.0662170 140.3381830  92.1561070 150.9855420 140.4316420
  95.8373220 153.6012280 125.4064610  96.3578880 152.8861300 125.0405760
  96.4841620 154.2398150 125.7065120 100.8573230 152.3636840 142.7338830
 101.4394000 151.6089160 142.6459310 101.0335000 152.8944280 141.9570310
  91.9745300 147.5233590 141.0455780  91.8802170 146.9054340 140.3206650
  91.3942690 148.2499880 140.8185690  94.7406740 146.0806830 138.0783170
  94.2924040 146.1031090 137.2328720  94.1071940 145.6825850 138.6753470
  97.4830190 152.7077340 140.0833450  97.6026400 152.1118480 140.8228290
  98.3424190 152.7447030 139.6634750  99.8218090 153.2614530 138.6595960
  99.2953310 153.7857150 138.0561100 100.1649430 153.8941920 139.2905690
  92.2204480 150.6507900 125.1045670  92.0193540 149.7875260 125.4659010
  92.0496530 150.5641260 124.1667270  94.2498960 149.2498690 141.3409270
  94.8398650 148.9414540 142.0287090  93.4319200 148.7778440 141.4969170
  99.0692390 148.8664500 141.5742290  98.3807910 148.2046040 141.5092280
  99.7898410 148.4202770 142.0190750  99.6992790 145.4616130 127.6332550
  99.9795080 144.6184030 127.9891970  98.9258520 145.6939240 128.1471300
  91.0187280 147.7508520 125.0923550  91.3213180 147.7575950 124.1842700
  91.7581870 147.4006380 125.5891210  94.2372210 146.6943140 126.0779750
  93.8894210 146.0167130 125.4982200  94.4384980 146.2332650 126.8923140
  87.5777850 153.2230790 132.4744120  86.9226690 152.9542430 131.8303820
  88.4155800 153.1135270 132.0246100 100.5268290 148.0172080 126.6962610
 100.9453170 147.8303060 125.8559270 100.2204350 147.1651130 127.0065540
 104.0258020 152.9296220 130.3938410 103.6501620 152.1624150 129.9619700
 103.2961140 153.3118920 130.8813340  88.6153780 153.6083360 137.0147460
  88.9826820 153.5210760 137.8943480  88.0464600 152.8449910 136.9154320
 103.4157640 152.0767740 140.0277930 103.1843730 151.8480490 139.1275880
 103.6762190 152.9967290 139.9822820  88.1669780 150.5192450 140.9205880
  87.2725830 150.4859210 141.2599590  88.7067330 150.7179240 141.6857130
 101.8545710 147.3024170 142.8057630 102.7315890 147.3107570 143.1891630
 101.8666550 146.5655010 142.1949980  86.7915930 150.4329720 128.4169450
  85.8880010 150.6959920 128.2421110  87.2756550 150.7040890 127.6369410
 103.3008980 151.1553710 133.6945650 103.8246460 150.6616360 133.0635820
 103.8868400 151.2904070 134.4393220 103.4798700 151.2393580 137.2165200
 102.5301410 151.2057120 137.3310190 103.6611710 152.1493690 136.9814970
  89.3343140 149.4895260 126.3263830  90.0434840 149.0678480 125.8411110
  88.6183080 149.5570490 125.6947180  88.9817300 145.5434590 125.3666480
  89.7045430 146.0843530 125.6847700  89.2541820 145.2698010 124.4908020
 102.7908950 150.4127060 129.6338060 103.2868070 150.1797930 130.4186940
 102.5925020 149.5738900 129.2175700  88.6709490 144.7940780 135.2689100
  89.3185680 144.2438160 134.8284260  89.0911330 145.0483930 136.0904910
 104.2196110 149.0488010 132.1675740 104.1095390 148.8944050 133.1058010
 104.9803700 148.5208950 131.9251150 102.5661830 144.9882140 138.6258740
 103.2034050 145.6016280 138.9917930 102.7136720 145.0242800 137.6807970
 105.1086380 146.8795930 125.4081880 106.0335690 146.7477110 125.2000170
 105.0862170 146.9588750 126.3618330 105.1824870 147.6506590 128.0338590
 104.3876370 147.5851710 128.5631500 105.3868150 148.5857230 128.0223940
  88.4241490 144.9496450 138.0114420  88.0756310 145.4060270 138.7772600
  88.0929190 144.0553580 138.0936850  95.9366310 146.1408330 141.5333840
  95.8755200 146.7330160 142.2829250  96.8766690 146.0334290 141.3884100
  98.5740870 145.7978390 141.1726130  99.1881280 146.1157680 140.5107210
  99.1190430 145.3126980 141.7921990  89.0962130 144.4772650 141.2865190
  89.6445120 144.2960700 140.5231300  89.1617440 143.6866760 141.8221500
  99.3148910 144.3610530 137.4995420  98.4408750 144.6945640 137.2968350
  99.2059660 143.8883710 138.3247290 100.2220890 146.5681400 138.8837140
  99.8934250 145.7533160 138.5038870 101.1703190 146.5251210 138.7602830
  97.0623730 145.2780370 136.4388330  96.2795520 145.7525870 136.7185090
  96.7686660 144.3735200 136.3301510 101.6144800 145.9803470 134.4837420
 102.0552890 145.9248570 133.6359020 101.3452390 146.8961480 134.5547600
 103.4783370 145.6118710 132.4946240 103.4171770 144.6679930 132.3477260
 104.2575400 145.7198800 133.0399700  88.4064140 145.5827850 128.9602050
  89.1643500 145.6956730 128.3866080  87.9441310 146.4197050 128.9145480
  94.9477950 147.6967120 131.9504360  94.1352460 147.3224010 131.6100240
  95.4519590 146.9412200 132.2525550  99.4502930 144.3609570 133.1887430
 100.0532300 144.9329780 133.6635950  98.7095920 144.9249010 132.9661330
 102.5937530 144.7631130 128.4627710 102.7888160 145.6614580 128.7295140
 101.8067400 144.5318210 128.9560660  90.7789290 146.1091900 127.5004020
  91.3082050 145.3221700 127.3711970  91.4117610 146.7883090 127.7339550
  92.9727130 145.8467040 130.5549410  92.3429870 145.1454350 130.7219540
  92.4332270 146.6071170 130.3382570  93.0982690 145.1251020 142.9901900
  92.8166960 145.6284620 142.2262720  93.4802390 144.3272770 142.6244030
  99.6998150 144.5404600 143.5682370  99.5863600 144.8599210 144.4633890
 100.5167890 144.9417110 143.2719650  98.6056300 152.5597070 113.9317110
  98.5250350 151.6451680 113.6608820  98.1920720 153.0564140 113.2256820
  96.7374340 154.3376090 115.8126380  95.9616440 153.8576530 116.1024950
  97.3887270 153.6581740 115.6382540  90.7540170 154.6495900 116.6902140
  89.9225050 154.3944610 117.0898650  91.3621150 154.7206670 117.4260060
  89.1632120 149.6097790 110.4744530  88.2748820 149.9513760 110.3724410
  89.4473310 149.4098110 109.5825360  87.1265130 152.2103440 116.3584230
  87.6981240 151.4425640 116.3587870  87.1266670 152.5092200 115.4490840
  88.3690000 147.6187800 118.1453160  88.1892840 146.7213550 118.4255920
  87.9670080 148.1659670 118.8200110  97.2088500 149.8203660 116.0465470
  97.5853320 148.9475540 115.9339140  97.1108010 150.1562360 115.1555910
  91.3393510 148.1929290 111.5082910  91.4460260 149.0933020 111.8151670
  90.4285870 148.1447260 111.2177560 100.9912620 147.3154100 112.9793810
 101.8122240 146.8250670 113.0219290 101.0246700 147.9051760 113.7325650
  88.9876670 150.1148300 116.7535500  89.6686780 150.3786670 117.3722900
  88.6724720 149.2749170 117.0873510  93.1801240 151.1615660 115.8408090
  93.6879460 151.6596630 116.4813110  93.7114480 150.3850860 115.6647450
 105.2812170 149.3320850 119.5437440 104.5764340 149.7202560 119.0252550
 105.5470090 150.0271140 120.1458370  91.4637340 145.8014220 120.1071510
  91.4655780 146.3186610 119.3017410  90.6341650 145.3244400 120.0841440
 101.2274100 149.2554480 115.7521350 100.5229670 149.5439370 116.3324460
 101.5886260 150.0654590 115.3920910  91.1452670 147.5124180 118.1141960
  91.4869480 148.3566230 117.8195830  90.2068480 147.6607920 118.2307300
 104.2961020 148.7009270 116.1430560 103.3485930 148.7348250 116.2745990
 104.6211010 149.5148220 116.5279920  94.8280560 145.0006450 114.4386550
  95.1355540 144.4453340 113.7222050  93.8981260 145.1350910 114.2559540
  97.2161320 153.0655280 111.1746670  96.2890600 152.9992660 111.4035140
  97.3686140 154.0035410 111.0601910  97.2030400 149.3372280 108.1713830
  96.2634070 149.4986240 108.2566290  97.5213660 150.0557960 107.6249820
 103.7243160 154.0190800 118.1492860 102.8961790 154.0883890 117.6742990
 104.3193640 154.6045110 117.6808690 101.2458610 154.6275580 111.6781920
 100.6271030 154.2895130 111.0308220 101.2283060 153.9835340 112.3861110
 100.6885170 150.8060120 119.0947730 100.2756350 151.6313830 119.3487720
  99.9561120 150.2205160 118.9024090  92.8217960 153.5920020 113.9566400
  92.4174960 152.8797270 113.4612300  92.9081080 153.2473260 114.8454440
  91.5346580 150.3663230 117.7365440  92.0861170 150.4758570 116.9618690
  92.0490090 150.7400830 118.4520670  99.4223310 153.8662390 108.6854670
  99.8616590 153.0284820 108.5392490 100.1351730 154.4991790 108.7718810
  91.2089310 153.8882590 121.3470780  91.0697080 154.7605390 121.7158180
  90.3270670 153.5455400 121.2018720 103.0040450 145.1205200 106.9995710
 102.6913110 145.2132030 107.8994780 103.7652920 145.6986230 106.9493140
  89.5222590 152.4865000 111.4573050  89.4020190 153.2127090 110.8454320
  89.2123480 151.7167910 110.9800960 104.2141740 149.8576700 122.9769850
 103.5986010 150.3656370 122.4485310 103.8938160 148.9575030 122.9195790
  91.9886250 145.8300070 114.8396720  91.5454400 146.6109610 114.5081240
  92.5471240 146.1529960 115.5467660  96.2756060 148.6968590 120.4432040
  95.8135430 148.9051610 121.2551980  95.8734170 147.8827940 120.1402710
 101.2760570 149.9177540 121.5728700 100.4254160 149.6183290 121.8937770
 101.1162360 150.1619550 120.6612520  98.3710280 151.4179290 123.6727490
  98.6963690 150.5843040 123.3329720  99.1590610 151.9407810 123.8205820
  95.1045070 145.4510770 109.7202550  94.4799250 145.4470640 110.4455860
  95.0175190 144.5841730 109.3238520  94.0262150 146.3747400 116.6986320
  94.3234480 147.2810230 116.6178340  94.5747710 145.8866180 116.0845890
  91.7800470 150.9533640 112.5677970  91.5541390 150.7370810 113.4724590
  90.9993000 151.3862100 112.2223940  99.0098230 150.9597010 111.1668620
  98.4107120 151.6832810 110.9832240  99.5577840 150.8973790 110.3845070
  94.2199680 151.8519220 123.2338240  94.1243280 150.9113950 123.0838640
  95.0631660 152.0734290 122.8386310  97.6163100 149.5960550 113.1971900
  98.0092670 149.9132750 112.3840590  97.9779950 148.7172430 113.3116420
  89.3510220 148.2632890 121.3872020  88.9573610 149.1108100 121.5944800
  88.6628620 147.6259260 121.5780660  95.9255270 148.3467860 124.4568760
  95.2353590 148.1540060 125.0914850  96.6687570 148.6302500 124.9893060
  86.6527270 146.1861350 115.4202100  86.3640320 146.7564210 116.1327080
  87.3973030 145.7065800 115.7833330  86.8397500 150.1281470 106.6304820
  86.7572170 151.0712230 106.7719810  86.4880560 149.9856380 105.7517170
  98.2018240 152.1866300 117.2922680  97.4699360 152.6953110 117.6412780
  97.8042580 151.3696280 116.9911460  94.6395630 148.8620500 115.6975170
  94.6431690 148.4210450 114.8479710  95.5346750 149.1837830 115.8046990
  90.4898010 148.7446990 114.6569380  90.1498060 149.2222220 115.4136430
  89.7275330 148.2912110 114.2970480  94.7015780 149.8632580 108.6881930
  94.8228600 149.8219060 109.6367750  94.3164290 150.7256730 108.5328660
  98.6644150 147.6399980 116.7045620  98.6816890 148.0908630 117.5487470
  98.4159730 146.7405620 116.9179060  93.7137280 152.1733720 108.0865230
  93.1454180 151.7251970 107.4601140  94.4226280 152.5326500 107.5530380
 102.0914900 145.0532160 122.5432000 102.4160670 144.3221820 123.0689980
 102.1271410 144.7345800 121.6412990  94.9403600 152.9222280 117.4440580
  95.3073730 152.4480850 118.1901920  94.7508660 153.7963850 117.7848920
  87.8044090 147.6665970 113.5734050  87.5191010 147.3021640 114.4112670
  87.7422950 146.9346430 112.9597190  92.7302970 151.9630920 119.7624790
  92.4260040 152.8422900 119.9875150  93.6849430 152.0230710 119.7982230
  97.4782680 146.5595230 110.2947420  96.6647290 146.0608400 110.2192730
  97.2844630 147.3993480 109.8783770 100.1931070 150.9314880 108.5909580
 101.0810690 151.2432110 108.4160920 100.1636160 150.0587130 108.1990160
  88.7866700 152.8033660 120.9096150  88.4281640 153.4687510 121.4969490
  88.4921260 151.9717210 121.2808770  91.9879820 153.2617900 123.7935700
  91.6879960 153.4075080 122.8963520  92.7591060 152.7023190 123.7009090
 102.4645340 152.2426720 108.0589440 102.3809060 152.6740940 107.2085880
 103.1839530 152.7025070 108.4916260  87.2974750 152.8024920 107.5330750
  88.1669600 153.0849720 107.8166670  86.8065070 153.6160790 107.4179560
  90.3621340 144.5335780 112.1261550  90.2335970 144.5253680 113.0746470
  89.5383360 144.8718870 111.7752560  87.3615270 146.2926900 121.5868250
  86.6473790 146.4923820 122.1920860  87.7810310 145.5166470 121.9583050
  98.8554050 148.7849210 119.3369700  99.2234870 147.9644420 119.6649270
  97.9952250 148.8451100 119.7525350 102.2216080 147.7406150 110.1457260
 101.5929240 147.8451820 109.4315490 101.7268000 147.9602930 110.9351140
  94.1900110 150.0192100 111.5615140  93.4816260 150.4878440 112.0028750
  94.4744590 149.3614110 112.1960330  95.8156040 151.4388800 119.5607670
  96.3141290 151.9134620 120.2259520  95.9578990 150.5152320 119.7677700
  98.2215540 146.7442760 113.0010930  98.0983320 146.7628890 112.0520440
  99.1700100 146.7921700 113.1209330  92.3935130 148.3277180 108.9365850
  93.2425660 148.7647330 108.8706040  92.0266400 148.6397440 109.7637910
 103.0222900 147.6556760 120.4036060 102.5196500 148.3962160 120.7429870
 103.8379560 148.0440760 120.0872850 101.3144910 152.8989940 113.8497420
 100.3735050 152.9140170 114.0245110 101.6288980 152.1125900 114.2957720
  91.2926550 154.5809540 107.4101380  92.0589820 154.4690900 107.9726810
  91.3701240 153.8847510 106.7578150  89.9873310 152.0134610 108.0934270
  90.0676900 151.0662120 108.2051670  90.8793060 152.3441490 108.1994930
  87.5144110 153.8349530 123.3290440  88.0183130 153.2556810 123.9006670
  86.7751530 154.1189760 123.8666810  89.5467190 151.9779120 124.2240510
  89.5872530 151.6792990 125.1325740  90.4012690 152.3786730 124.0648030
  93.3245580 154.5774670 109.3844020  93.7462000 154.4114540 110.2275410
  93.4496420 153.7674900 108.8899160  91.4873000 150.5571220 122.1915000
  90.9569460 150.0662170 121.5638340  92.1561070 150.9855420 121.6572930
  95.8373220 153.6012280 106.6321120  96.3578880 152.8861300 106.2662270
  96.4841620 154.2398150 106.9321630 100.8573230 152.3636840 123.9595340
 101.4394000 151.6089160 123.8715820 101.0335000 152.8944280 123.1826820
  91.9745300 147.5233590 122.2712290  91.8802170 146.9054340 121.5463160
  91.3942690 148.2499880 122.0442200  94.7406740 146.0806830 119.3039680
  94.2924040 146.1031090 118.4585230  94.1071940 145.6825850 119.9009980
  97.4830190 152.7077340 121.3089960  97.6026400 152.1118480 122.0484800
  98.3424190 152.7447030 120.8891260  99.8218090 153.2614530 119.8852470
  99.2953310 153.7857150 119.2817610 100.1649430 153.8941920 120.5162200
  92.2204480 150.6507900 106.3302180  92.0193540 149.7875260 106.6915520
  92.0496530 150.5641260 105.3923780  94.2498960 149.2498690 122.5665780
  94.8398650 148.9414540 123.2543600  93.4319200 148.7778440 122.7225680
  99.0692390 148.8664500 122.7998800  98.3807910 148.2046040 122.7348790
  99.7898410 148.4202770 123.2447260  99.6992790 145.4616130 108.8589060
  99.9795080 144.6184030 109.2148480  98.9258520 145.6939240 109.3727810
  91.0187280 147.7508520 106.3180060  91.3213180 147.7575950 105.4099210
  91.7581870 147.4006380 106.8147720  94.2372210 146.6943140 107.3036260
  93.8894210 146.0167130 106.7238710  94.4384980 146.2332650 108.1179650
  87.5777850 153.2230790 113.7000630  86.9226690 152.9542430 113.0560330
  88.4155800 153.1135270 113.2502610 100.5268290 148.0172080 107.9219120
 100.9453170 147.8303060 107.0815780 100.2204350 147.1651130 108.2322050
 104.0258020 152.9296220 111.6194920 103.6501620 152.1624150 111.1876210
 103.2961140 153.3118920 112.1069850  88.6153780 153.6083360 118.2403970
  88.9826820 153.5210760 119.1199990  88.0464600 152.8449910 118.1410830
 103.4157640 152.0767740 121.2534440 103.1843730 151.8480490 120.3532390
 103.6762190 152.9967290 121.2079330  88.1669780 150.5192450 122.1462390
  87.2725830 150.4859210 122.4856100  88.7067330 150.7179240 122.9113640
 101.8545710 147.3024170 124.0314140 102.7315890 147.3107570 124.4148140
 101.8666550 146.5655010 123.4206490  86.7915930 150.4329720 109.6425960
  85.8880010 150.6959920 109.4677620  87.2756550 150.7040890 108.8625920
 103.3008980 151.1553710 114.9202160 103.8246460 150.6616360 114.2892330
 103.8868400 151.2904070 115.6649730 103.4798700 151.2393580 118.4421710
 102.5301410 151.2057120 118.5566700 103.6611710 152.1493690 118.2071480
  89.3343140 149.4895260 107.5520340  90.0434840 149.0678480 107.0667620
  88.6183080 149.5570490 106.9203690  88.9817300 145.5434590 106.5922990
  89.7045430 146.0843530 106.9104210  89.2541820 145.2698010 105.7164530
 102.7908950 150.4127060 110.8594570 103.2868070 150.1797930 111.6443450
 102.5925020 149.5738900 110.4432210  88.6709490 144.7940780 116.4945610
  89.3185680 144.2438160 116.0540770  89.0911330 145.0483930 117.3161420
 104.2196110 149.0488010 113.3932250 104.1095390 148.8944050 114.3314520
 104.9803700 148.5208950 113.1507660 102.5661830 144.9882140 119.8515250
 103.2034050 145.6016280 120.2174440 102.7136720 145.0242800 118.9064480
 105.1086380 146.8795930 106.6338390 106.0335690 146.7477110 106.4256680
 105.0862170 146.9588750 107.5874840 105.1824870 147.6506590 109.2595100
 104.3876370 147.5851710 109.7888010 105.3868150 148.5857230 109.2480450
  88.4241490 144.9496450 119.2370930  88.0756310 145.4060270 120.0029110
  88.0929190 144.0553580 119.3193360  95.9366310 146.1408330 122.7590350
  95.8755200 146.7330160 123.5085760  96.8766690 146.0334290 122.6140610
  98.5740870 145.7978390 122.3982640  99.1881280 146.1157680 121.7363720
  99.1190430 145.3126980 123.0178500  89.0962130 144.4772650 122.5121700
  89.6445120 144.2960700 121.7487810  89.1617440 143.6866760 123.0478010
  99.3148910 144.3610530 118.7251930  98.4408750 144.6945640 118.5224860
  99.2059660 143.8883710 119.5503800 100.2220890 146.5681400 120.1093650
  99.8934250 145.7533160 119.7295380 101.1703190 146.5251210 119.9859340
  97.0623730 145.2780370 117.6644840  96.2795520 145.7525870 117.9441600
  96.7686660 144.3735200 117.5558020 101.6144800 145.9803470 115.7093930
 102.0552890 145.9248570 114.8615530 101.3452390 146.8961480 115.7804110
 103.4783370 145.6118710 113.7202750 103.4171770 144.6679930 113.5733770
 104.2575400 145.7198800 114.2656210  88.4064140 145.5827850 110.1858560
  89.1643500 145.6956730 109.6122590  87.9441310 146.4197050 110.1401990
  94.9477950 147.6967120 113.1760870  94.1352460 147.3224010 112.8356750
  95.4519590 146.9412200 113.4782060  99.4502930 144.3609570 114.4143940
 100.0532300 144.9329780 114.8892460  98.7095920 144.9249010 114.1917840
 102.5937530 144.7631130 109.6884220 102.7888160 145.6614580 109.9551650
 101.8067400 144.5318210 110.1817170  90.7789290 146.1091900 108.7260530
  91.3082050 145.3221700 108.5968480  91.4117610 146.7883090 108.9596060
  92.9727130 145.8467040 111.7805920  92.3429870 145.1454350 111.9476050
  92.4332270 146.6071170 111.5639080  93.0982690 145.1251020 124.2158410
  92.8166960 145.6284620 123.4519230  93.4802390 144.3272770 123.8500540
  99.6998150 144.5404600 124.7938880  99.5863600 144.8599210 125.6890400
 100.5167890 144.9417110 124.4976160  98.6056300 152.5597070  95.1573620
  98.5250350 151.6451680  94.8865330  98.1920720 153.0564140  94.4513330
  96.7374340 154.3376090  97.0382890  95.9616440 153.8576530  97.3281460
  97.3887270 153.6581740  96.8639050  90.7540170 154.6495900  97.9158650
  89.9225050 154.3944610  98.3155160  91.3621150 154.7206670  98.6516570
  89.1632120 149.6097790  91.7001040  88.2748820 149.9513760  91.5980920
  89.4473310 149.4098110  90.8081870  87.1265130 152.2103440  97.5840740
  87.6981240 151.4425640  97.5844380  87.1266670 152.5092200  96.6747350
  88.3690000 147.6187800  99.3709670  88.1892840 146.7213550  99.6512430
  87.9670080 148.1659670 100.0456620  97.2088500 149.8203660  97.2721980
  97.5853320 148.9475540  97.1595650  97.1108010 150.1562360  96.3812420
  91.3393510 148.1929290  92.7339420  91.4460260 149.0933020  93.0408180
  90.4285870 148.1447260  92.4434070 100.9912620 147.3154100  94.2050320
 101.8122240 146.8250670  94.2475800 101.0246700 147.9051760  94.9582160
  88.9876670 150.1148300  97.9792010  89.6686780 150.3786670  98.5979410
  88.6724720 149.2749170  98.3130020  93.1801240 151.1615660  97.0664600
  93.6879460 151.6596630  97.7069620  93.7114480 150.3850860  96.8903960
 105.2812170 149.3320850 100.7693950 104.5764340 149.7202560 100.2509060
 105.5470090 150.0271140 101.3714880  91.4637340 145.8014220 101.3328020
  91.4655780 146.3186610 100.5273920  90.6341650 145.3244400 101.3097950
 101.2274100 149.2554480  96.9777860 100.5229670 149.5439370  97.5580970
 101.5886260 150.0654590  96.6177420  91.1452670 147.5124180  99.3398470
  91.4869480 148.3566230  99.0452340  90.2068480 147.6607920  99.4563810
 104.2961020 148.7009270  97.3687070 103.3485930 148.7348250  97.5002500
 104.6211010 149.5148220  97.7536430  94.8280560 145.0006450  95.6643060
  95.1355540 144.4453340  94.9478560  93.8981260 145.1350910  95.4816050
  97.2161320 153.0655280  92.4003180  96.2890600 152.9992660  92.6291650
  97.3686140 154.0035410  92.2858420  97.2030400 149.3372280  89.3970340
  96.2634070 149.4986240  89.4822800  97.5213660 150.0557960  88.8506330
 103.7243160 154.0190800  99.3749370 102.8961790 154.0883890  98.8999500
 104.3193640 154.6045110  98.9065200 101.2458610 154.6275580  92.9038430
 100.6271030 154.2895130  92.2564730 101.2283060 153.9835340  93.6117620
 100.6885170 150.8060120 100.3204240 100.2756350 151.6313830 100.5744230
  99.9561120 150.2205160 100.1280600  92.8217960 153.5920020  95.1822910
  92.4174960 152.8797270  94.6868810  92.9081080 153.2473260  96.0710950
  91.5346580 150.3663230  98.9621950  92.0861170 150.4758570  98.1875200
  92.0490090 150.7400830  99.6777180  99.4223310 153.8662390  89.9111180
  99.8616590 153.0284820  89.7649000 100.1351730 154.4991790  89.9975320
  91.2089310 153.8882590 102.5727290  91.0697080 154.7605390 102.9414690
  90.3270670 153.5455400 102.4275230 103.0040450 145.1205200  88.2252220
 102.6913110 145.2132030  89.1251290 103.7652920 145.6986230  88.1749650
  89.5222590 152.4865000  92.6829560  89.4020190 153.2127090  92.0710830
  89.2123480 151.7167910  92.2057470 104.2141740 149.8576700 104.2026360
 103.5986010 150.3656370 103.6741820 103.8938160 148.9575030 104.1452300
  91.9886250 145.8300070  96.0653230  91.5454400 146.6109610  95.7337750
  92.5471240 146.1529960  96.7724170  96.2756060 148.6968590 101.6688550
  95.8135430 148.9051610 102.4808490  95.8734170 147.8827940 101.3659220
 101.2760570 149.9177540 102.7985210 100.4254160 149.6183290 103.1194280
 101.1162360 150.1619550 101.8869030  98.3710280 151.4179290 104.8984000
  98.6963690 150.5843040 104.5586230  99.1590610 151.9407810 105.0462330
  95.1045070 145.4510770  90.9459060  94.4799250 145.4470640  91.6712370
  95.0175190 144.5841730  90.5495030  94.0262150 146.3747400  97.9242830
  94.3234480 147.2810230  97.8434850  94.5747710 145.8866180  97.3102400
  91.7800470 150.9533640  93.7934480  91.5541390 150.7370810  94.6981100
  90.9993000 151.3862100  93.4480450  99.0098230 150.9597010  92.3925130
  98.4107120 151.6832810  92.2088750  99.5577840 150.8973790  91.6101580
  94.2199680 151.8519220 104.4594750  94.1243280 150.9113950 104.3095150
  95.0631660 152.0734290 104.0642820  97.6163100 149.5960550  94.4228410
  98.0092670 149.9132750  93.6097100  97.9779950 148.7172430  94.5372930
  89.3510220 148.2632890 102.6128530  88.9573610 149.1108100 102.8201310
  88.6628620 147.6259260 102.8037170  95.9255270 148.3467860 105.6825270
  95.2353590 148.1540060 106.3171360  96.6687570 148.6302500 106.2149570
  86.6527270 146.1861350  96.6458610  86.3640320 146.7564210  97.3583590
  87.3973030 145.7065800  97.0089840  86.8397500 150.1281470  87.8561330
  86.7572170 151.0712230  87.9976320  86.4880560 149.9856380  86.9773680
  98.2018240 152.1866300  98.5179190  97.4699360 152.6953110  98.8669290
  97.8042580 151.3696280  98.2167970  94.6395630 148.8620500  96.9231680
  94.6431690 148.4210450  96.0736220  95.5346750 149.1837830  97.0303500
  90.4898010 148.7446990  95.8825890  90.1498060 149.2222220  96.6392940
  89.7275330 148.2912110  95.5226990  94.7015780 149.8632580  89.9138440
  94.8228600 149.8219060  90.8624260  94.3164290 150.7256730  89.7585170
  98.6644150 147.6399980  97.9302130  98.6816890 148.0908630  98.7743980
  98.4159730 146.7405620  98.1435570  93.7137280 152.1733720  89.3121740
  93.1454180 151.7251970  88.6857650  94.4226280 152.5326500  88.7786890
 102.0914900 145.0532160 103.7688510 102.4160670 144.3221820 104.2946490
 102.1271410 144.7345800 102.8669500  94.9403600 152.9222280  98.6697090
  95.3073730 152.4480850  99.4158430  94.7508660 153.7963850  99.0105430
  87.8044090 147.6665970  94.7990560  87.5191010 147.3021640  95.6369180
  87.7422950 146.9346430  94.1853700  92.7302970 151.9630920 100.9881300
  92.4260040 152.8422900 101.2131660  93.6849430 152.0230710 101.0238740
  97.4782680 146.5595230  91.5203930  96.6647290 146.0608400  91.4449240
  97.2844630 147.3993480  91.1040280 100.1931070 150.9314880  89.8166090
 101.0810690 151.2432110  89.6417430 100.1636160 150.0587130  89.4246670
  88.7866700 152.8033660 102.1352660  88.4281640 153.4687510 102.7226000
  88.4921260 151.9717210 102.5065280  91.9879820 153.2617900 105.0192210
  91.6879960 153.4075080 104.1220030  92.7591060 152.7023190 104.9265600
 102.4645340 152.2426720  89.2845950 102.3809060 152.6740940  88.4342390
 103.1839530 152.7025070  89.7172770  87.2974750 152.8024920  88.7587260
  88.1669600 153.0849720  89.0423180  86.8065070 153.6160790  88.6436070
  90.3621340 144.5335780  93.3518060  90.2335970 144.5253680  94.3002980
  89.5383360 144.8718870  93.0009070  87.3615270 146.2926900 102.8124760
  86.6473790 146.4923820 103.4177370  87.7810310 145.5166470 103.1839560
  98.8554050 148.7849210 100.5626210  99.2234870 147.9644420 100.8905780
  97.9952250 148.8451100 100.9781860 102.2216080 147.7406150  91.3713770
 101.5929240 147.8451820  90.6572000 101.7268000 147.9602930  92.1607650
  94.1900110 150.0192100  92.7871650  93.4816260 150.4878440  93.2285260
  94.4744590 149.3614110  93.4216840  95.8156040 151.4388800 100.7864180
  96.3141290 151.9134620 101.4516030  95.9578990 150.5152320 100.9934210
  98.2215540 146.7442760  94.2267440  98.0983320 146.7628890  93.2776950
  99.1700100 146.7921700  94.3465840  92.3935130 148.3277180  90.1622360
  93.2425660 148.7647330  90.0962550  92.0266400 148.6397440  90.9894420
 103.0222900 147.6556760 101.6292570 102.5196500 148.3962160 101.9686380
 103.8379560 148.0440760 101.3129360 101.3144910 152.8989940  95.0753930
 100.3735050 152.9140170  95.2501620 101.6288980 152.1125900  95.5214230
  91.2926550 154.5809540  88.6357890  92.0589820 154.4690900  89.1983320
  91.3701240 153.8847510  87.9834660  89.9873310 152.0134610  89.3190780
  90.0676900 151.0662120  89.4308180  90.8793060 152.3441490  89.4251440
  87.5144110 153.8349530 104.5546950  88.0183130 153.2556810 105.1263180
  86.7751530 154.1189760 105.0923320  89.5467190 151.9779120 105.4497020
  89.5872530 151.6792990 106.3582250  90.4012690 152.3786730 105.2904540
  93.3245580 154.5774670  90.6100530  93.7462000 154.4114540  91.4531920
  93.4496420 153.7674900  90.1155670  91.4873000 150.5571220 103.4171510
  90.9569460 150.0662170 102.7894850  92.1561070 150.9855420 102.8829440
  95.8373220 153.6012280  87.8577630  96.3578880 152.8861300  87.4918780
  96.4841620 154.2398150  88.1578140 100.8573230 152.3636840 105.1851850
 101.4394000 151.6089160 105.0972330 101.0335000 152.8944280 104.4083330
  91.9745300 147.5233590 103.4968800  91.8802170 146.9054340 102.7719670
  91.3942690 148.2499880 103.2698710  94.7406740 146.0806830 100.5296190
  94.2924040 146.1031090  99.6841740  94.1071940 145.6825850 101.1266490
  97.4830190 152.7077340 102.5346470  97.6026400 152.1118480 103.2741310
  98.3424190 152.7447030 102.1147770  99.8218090 153.2614530 101.1108980
  99.2953310 153.7857150 100.5074120 100.1649430 153.8941920 101.7418710
  92.2204480 150.6507900  87.5558690  92.0193540 149.7875260  87.9172030
  92.0496530 150.5641260  86.6180290  94.2498960 149.2498690 103.7922290
  94.8398650 148.9414540 104.4800110  93.4319200 148.7778440 103.9482190
  99.0692390 148.8664500 104.0255310  98.3807910 148.2046040 103.9605300
  99.7898410 148.4202770 104.4703770  99.6992790 145.4616130  90.0845570
  99.9795080 144.6184030  90.4404990  98.9258520 145.6939240  90.5984320
  91.0187280 147.7508520  87.5436570  91.3213180 147.7575950  86.6355720
  91.7581870 147.4006380  88.0404230  94.2372210 146.6943140  88.5292770
  93.8894210 146.0167130  87.9495220  94.4384980 146.2332650  89.3436160
  87.5777850 153.2230790  94.9257140  86.9226690 152.9542430  94.2816840
  88.4155800 153.1135270  94.4759120 100.5268290 148.0172080  89.1475630
 100.9453170 147.8303060  88.3072290 100.2204350 147.1651130  89.4578560
 104.0258020 152.9296220  92.8451430 103.6501620 152.1624150  92.4132720
 103.2961140 153.3118920  93.3326360  88.6153780 153.6083360  99.4660480
  88.9826820 153.5210760 100.3456500  88.0464600 152.8449910  99.3667340
 103.4157640 152.0767740 102.4790950 103.1843730 151.8480490 101.5788900
 103.6762190 152.9967290 102.4335840  88.1669780 150.5192450 103.3718900
  87.2725830 150.4859210 103.7112610  88.7067330 150.7179240 104.1370150
 101.8545710 147.3024170 105.2570650 102.7315890 147.3107570 105.6404650
 101.8666550 146.5655010 104.6463000  86.7915930 150.4329720  90.8682470
  85.8880010 150.6959920  90.6934130  87.2756550 150.7040890  90.0882430
 103.3008980 151.1553710  96.1458670 103.8246460 150.6616360  95.5148840
 103.8868400 151.2904070  96.8906240 103.4798700 151.2393580  99.6678220
 102.5301410 151.2057120  99.7823210 103.6611710 152.1493690  99.4327990
  89.3343140 149.4895260  88.7776850  90.0434840 149.0678480  88.2924130
  88.6183080 149.5570490  88.1460200 102.7908950 150.4127060  92.0851080
 103.2868070 150.1797930  92.8699960 102.5925020 149.5738900  91.6688720
  88.6709490 144.7940780  97.7202120  89.3185680 144.2438160  97.2797280
  89.0911330 145.0483930  98.5417930 104.2196110 149.0488010  94.6188760
 104.1095390 148.8944050  95.5571030 104.9803700 148.5208950  94.3764170
 102.5661830 144.9882140 101.0771760 103.2034050 145.6016280 101.4430950
 102.7136720 145.0242800 100.1320990 105.1086380 146.8795930  87.8594900
 106.0335690 146.7477110  87.6513190 105.0862170 146.9588750  88.8131350
 105.1824870 147.6506590  90.4851610 104.3876370 147.5851710  91.0144520
 105.3868150 148.5857230  90.4736960  88.4241490 144.9496450 100.4627440
  88.0756310 145.4060270 101.2285620  88.0929190 144.0553580 100.5449870
  95.9366310 146.1408330 103.9846860  95.8755200 146.7330160 104.7342270
  96.8766690 146.0334290 103.8397120  98.5740870 145.7978390 103.6239150
  99.1881280 146.1157680 102.9620230  99.1190430 145.3126980 104.2435010
  89.0962130 144.4772650 103.7378210  89.6445120 144.2960700 102.9744320
  89.1617440 143.6866760 104.2734520  99.3148910 144.3610530  99.9508440
  98.4408750 144.6945640  99.7481370  99.2059660 143.8883710 100.7760310
 100.2220890 146.5681400 101.3350160  99.8934250 145.7533160 100.9551890
 101.1703190 146.5251210 101.2115850  97.0623730 145.2780370  98.8901350
  96.2795520 145.7525870  99.1698110  96.7686660 144.3735200  98.7814530
 101.6144800 145.9803470  96.9350440 102.0552890 145.9248570  96.0872040
 101.3452390 146.8961480  97.0060620 103.4783370 145.6118710  94.9459260
 103.4171770 144.6679930  94.7990280 104.2575400 145.7198800  95.4912720
  88.4064140 145.5827850  91.4115070  89.1643500 145.6956730  90.8379100
  87.9441310 146.4197050  91.3658500  94.9477950 147.6967120  94.4017380
  94.1352460 147.3224010  94.0613260  95.4519590 146.9412200  94.7038570
  99.4502930 144.3609570  95.6400450 100.0532300 144.9329780  96.1148970
  98.7095920 144.9249010  95.4174350 102.5937530 144.7631130  90.9140730
 102.7888160 145.6614580  91.1808160 101.8067400 144.5318210  91.4073680
  90.7789290 146.1091900  89.9517040  91.3082050 145.3221700  89.8224990
  91.4117610 146.7883090  90.1852570  92.9727130 145.8467040  93.0062430
  92.3429870 145.1454350  93.1732560  92.4332270 146.6071170  92.7895590
  93.0982690 145.1251020 105.4414920  92.8166960 145.6284620 104.6775740
  93.4802390 144.3272770 105.0757050  99.6998150 144.5404600 106.0195390
  99.5863600 144.8599210 106.9146910 100.5167890 144.9417110 105.7232670
  98.6056300 152.5597070  76.3830130  98.5250350 151.6451680  76.1121840
  98.1920720 153.0564140  75.6769840  96.7374340 154.3376090  78.2639400
  95.9616440 153.8576530  78.5537970  97.3887270 153.6581740  78.0895560
  90.7540170 154.6495900  79.1415160  89.9225050 154.3944610  79.5411670
  91.3621150 154.7206670  79.8773080  89.1632120 149.6097790  72.9257550
  88.2748820 149.9513760  72.8237430  89.4473310 149.4098110  72.0338380
  87.1265130 152.2103440  78.8097250  87.6981240 151.4425640  78.8100890
  87.1266670 152.5092200  77.9003860  88.3690000 147.6187800  80.5966180
  88.1892840 146.7213550  80.8768940  87.9670080 148.1659670  81.2713130
  97.2088500 149.8203660  78.4978490  97.5853320 148.9475540  78.3852160
  97.1108010 150.1562360  77.6068930  91.3393510 148.1929290  73.9595930
  91.4460260 149.0933020  74.2664690  90.4285870 148.1447260  73.6690580
 100.9912620 147.3154100  75.4306830 101.8122240 146.8250670  75.4732310
 101.0246700 147.9051760  76.1838670  88.9876670 150.1148300  79.2048520
  89.6686780 150.3786670  79.8235920  88.6724720 149.2749170  79.5386530
  93.1801240 151.1615660  78.2921110  93.6879460 151.6596630  78.9326130
  93.7114480 150.3850860  78.1160470 105.2812170 149.3320850  81.9950460
 104.5764340 149.7202560  81.4765570 105.5470090 150.0271140  82.5971390
  91.4637340 145.8014220  82.5584530  91.4655780 146.3186610  81.7530430
  90.6341650 145.3244400  82.5354460 101.2274100 149.2554480  78.2034370
 100.5229670 149.5439370  78.7837480 101.5886260 150.0654590  77.8433930
  91.1452670 147.5124180  80.5654980  91.4869480 148.3566230  80.2708850
  90.2068480 147.6607920  80.6820320 104.2961020 148.7009270  78.5943580
 103.3485930 148.7348250  78.7259010 104.6211010 149.5148220  78.9792940
  94.8280560 145.0006450  76.8899570  95.1355540 144.4453340  76.1735070
  93.8981260 145.1350910  76.7072560  97.2161320 153.0655280  73.6259690
  96.2890600 152.9992660  73.8548160  97.3686140 154.0035410  73.5114930
  97.2030400 149.3372280  70.6226850  96.2634070 149.4986240  70.7079310
  97.5213660 150.0557960  70.0762840 103.7243160 154.0190800  80.6005880
 102.8961790 154.0883890  80.1256010 104.3193640 154.6045110  80.1321710
 101.2458610 154.6275580  74.1294940 100.6271030 154.2895130  73.4821240
 101.2283060 153.9835340  74.8374130 100.6885170 150.8060120  81.5460750
 100.2756350 151.6313830  81.8000740  99.9561120 150.2205160  81.3537110
  92.8217960 153.5920020  76.4079420  92.4174960 152.8797270  75.9125320
  92.9081080 153.2473260  77.2967460  91.5346580 150.3663230  80.1878460
  92.0861170 150.4758570  79.4131710  92.0490090 150.7400830  80.9033690
  99.4223310 153.8662390  71.1367690  99.8616590 153.0284820  70.9905510
 100.1351730 154.4991790  71.2231830  91.2089310 153.8882590  83.7983800
  91.0697080 154.7605390  84.1671200  90.3270670 153.5455400  83.6531740
 103.0040450 145.1205200  69.4508730 102.6913110 145.2132030  70.3507800
 103.7652920 145.6986230  69.4006160  89.5222590 152.4865000  73.9086070
  89.4020190 153.2127090  73.2967340  89.2123480 151.7167910  73.4313980
 104.2141740 149.8576700  85.4282870 103.5986010 150.3656370  84.8998330
 103.8938160 148.9575030  85.3708810  91.9886250 145.8300070  77.2909740
  91.5454400 146.6109610  76.9594260  92.5471240 146.1529960  77.9980680
  96.2756060 148.6968590  82.8945060  95.8135430 148.9051610  83.7065000
  95.8734170 147.8827940  82.5915730 101.2760570 149.9177540  84.0241720
 100.4254160 149.6183290  84.3450790 101.1162360 150.1619550  83.1125540
  98.3710280 151.4179290  86.1240510  98.6963690 150.5843040  85.7842740
  99.1590610 151.9407810  86.2718840  95.1045070 145.4510770  72.1715570
  94.4799250 145.4470640  72.8968880  95.0175190 144.5841730  71.7751540
  94.0262150 146.3747400  79.1499340  94.3234480 147.2810230  79.0691360
  94.5747710 145.8866180  78.5358910  91.7800470 150.9533640  75.0190990
  91.5541390 150.7370810  75.9237610  90.9993000 151.3862100  74.6736960
  99.0098230 150.9597010  73.6181640  98.4107120 151.6832810  73.4345260
  99.5577840 150.8973790  72.8358090  94.2199680 151.8519220  85.6851260
  94.1243280 150.9113950  85.5351660  95.0631660 152.0734290  85.2899330
  97.6163100 149.5960550  75.6484920  98.0092670 149.9132750  74.8353610
  97.9779950 148.7172430  75.7629440  89.3510220 148.2632890  83.8385040
  88.9573610 149.1108100  84.0457820  88.6628620 147.6259260  84.0293680
  95.9255270 148.3467860  86.9081780  95.2353590 148.1540060  87.5427870
  96.6687570 148.6302500  87.4406080  86.6527270 146.1861350  77.8715120
  86.3640320 146.7564210  78.5840100  87.3973030 145.7065800  78.2346350
  86.8397500 150.1281470  69.0817840  86.7572170 151.0712230  69.2232830
  86.4880560 149.9856380  68.2030190  98.2018240 152.1866300  79.7435700
  97.4699360 152.6953110  80.0925800  97.8042580 151.3696280  79.4424480
  94.6395630 148.8620500  78.1488190  94.6431690 148.4210450  77.2992730
  95.5346750 149.1837830  78.2560010  90.4898010 148.7446990  77.1082400
  90.1498060 149.2222220  77.8649450  89.7275330 148.2912110  76.7483500
  94.7015780 149.8632580  71.1394950  94.8228600 149.8219060  72.0880770
  94.3164290 150.7256730  70.9841680  98.6644150 147.6399980  79.1558640
  98.6816890 148.0908630  80.0000490  98.4159730 146.7405620  79.3692080
  93.7137280 152.1733720  70.5378250  93.1454180 151.7251970  69.9114160
  94.4226280 152.5326500  70.0043400 102.0914900 145.0532160  84.9945020
 102.4160670 144.3221820  85.5203000 102.1271410 144.7345800  84.0926010
  94.9403600 152.9222280  79.8953600  95.3073730 152.4480850  80.6414940
  94.7508660 153.7963850  80.2361940  87.8044090 147.6665970  76.0247070
  87.5191010 147.3021640  76.8625690  87.7422950 146.9346430  75.4110210
  92.7302970 151.9630920  82.2137810  92.4260040 152.8422900  82.4388170
  93.6849430 152.0230710  82.2495250  97.4782680 146.5595230  72.7460440
  96.6647290 146.0608400  72.6705750  97.2844630 147.3993480  72.3296790
 100.1931070 150.9314880  71.0422600 101.0810690 151.2432110  70.8673940
 100.1636160 150.0587130  70.6503180  88.7866700 152.8033660  83.3609170
  88.4281640 153.4687510  83.9482510  88.4921260 151.9717210  83.7321790
  91.9879820 153.2617900  86.2448720  91.6879960 153.4075080  85.3476540
  92.7591060 152.7023190  86.1522110 102.4645340 152.2426720  70.5102460
 102.3809060 152.6740940  69.6598900 103.1839530 152.7025070  70.9429280
  87.2974750 152.8024920  69.9843770  88.1669600 153.0849720  70.2679690
  86.8065070 153.6160790  69.8692580  90.3621340 144.5335780  74.5774570
  90.2335970 144.5253680  75.5259490  89.5383360 144.8718870  74.2265580
  87.3615270 146.2926900  84.0381270  86.6473790 146.4923820  84.6433880
  87.7810310 145.5166470  84.4096070  98.8554050 148.7849210  81.7882720
  99.2234870 147.9644420  82.1162290  97.9952250 148.8451100  82.2038370
 102.2216080 147.7406150  72.5970280 101.5929240 147.8451820  71.8828510
 101.7268000 147.9602930  73.3864160  94.1900110 150.0192100  74.0128160
  93.4816260 150.4878440  74.4541770  94.4744590 149.3614110  74.6473350
  95.8156040 151.4388800  82.0120690  96.3141290 151.9134620  82.6772540
  95.9578990 150.5152320  82.2190720  98.2215540 146.7442760  75.4523950
  98.0983320 146.7628890  74.5033460  99.1700100 146.7921700  75.5722350
  92.3935130 148.3277180  71.3878870  93.2425660 148.7647330  71.3219060
  92.0266400 148.6397440  72.2150930 103.0222900 147.6556760  82.8549080
 102.5196500 148.3962160  83.1942890 103.8379560 148.0440760  82.5385870
 101.3144910 152.8989940  76.3010440 100.3735050 152.9140170  76.4758130
 101.6288980 152.1125900  76.7470740  91.2926550 154.5809540  69.8614400
  92.0589820 154.4690900  70.4239830  91.3701240 153.8847510  69.2091170
  89.9873310 152.0134610  70.5447290  90.0676900 151.0662120  70.6564690
  90.8793060 152.3441490  70.6507950  87.5144110 153.8349530  85.7803460
  88.0183130 153.2556810  86.3519690  86.7751530 154.1189760  86.3179830
  89.5467190 151.9779120  86.6753530  89.5872530 151.6792990  87.5838760
  90.4012690 152.3786730  86.5161050  93.3245580 154.5774670  71.8357040
  93.7462000 154.4114540  72.6788430  93.4496420 153.7674900  71.3412180
  91.4873000 150.5571220  84.6428020  90.9569460 150.0662170  84.0151360
  92.1561070 150.9855420  84.1085950  95.8373220 153.6012280  69.0834140
  96.3578880 152.8861300  68.7175290  96.4841620 154.2398150  69.3834650
 100.8573230 152.3636840  86.4108360 101.4394000 151.6089160  86.3228840
 101.0335000 152.8944280  85.6339840  91.9745300 147.5233590  84.7225310
  91.8802170 146.9054340  83.9976180  91.3942690 148.2499880  84.4955220
  94.7406740 146.0806830  81.7552700  94.2924040 146.1031090  80.9098250
  94.1071940 145.6825850  82.3523000  97.4830190 152.7077340  83.7602980
  97.6026400 152.1118480  84.4997820  98.3424190 152.7447030  83.3404280
  99.8218090 153.2614530  82.3365490  99.2953310 153.7857150  81.7330630
 100.1649430 153.8941920  82.9675220  92.2204480 150.6507900  68.7815200
  92.0193540 149.7875260  69.1428540  92.0496530 150.5641260  67.8436800
  94.2498960 149.2498690  85.0178800  94.8398650 148.9414540  85.7056620
  93.4319200 148.7778440  85.1738700  99.0692390 148.8664500  85.2511820
  98.3807910 148.2046040  85.1861810  99.7898410 148.4202770  85.6960280
  99.6992790 145.4616130  71.3102080  99.9795080 144.6184030  71.6661500
  98.9258520 145.6939240  71.8240830  91.0187280 147.7508520  68.7693080
  91.3213180 147.7575950  67.8612230  91.7581870 147.4006380  69.2660740
  94.2372210 146.6943140  69.7549280  93.8894210 146.0167130  69.1751730
  94.4384980 146.2332650  70.5692670  87.5777850 153.2230790  76.1513650
  86.9226690 152.9542430  75.5073350  88.4155800 153.1135270  75.7015630
 100.5268290 148.0172080  70.3732140 100.9453170 147.8303060  69.5328800
 100.2204350 147.1651130  70.6835070 104.0258020 152.9296220  74.0707940
 103.6501620 152.1624150  73.6389230 103.2961140 153.3118920  74.5582870
  88.6153780 153.6083360  80.6916990  88.9826820 153.5210760  81.5713010
  88.0464600 152.8449910  80.5923850 103.4157640 152.0767740  83.7047460
 103.1843730 151.8480490  82.8045410 103.6762190 152.9967290  83.6592350
  88.1669780 150.5192450  84.5975410  87.2725830 150.4859210  84.9369120
  88.7067330 150.7179240  85.3626660 101.8545710 147.3024170  86.4827160
 102.7315890 147.3107570  86.8661160 101.8666550 146.5655010  85.8719510
  86.7915930 150.4329720  72.0938980  85.8880010 150.6959920  71.9190640
  87.2756550 150.7040890  71.3138940 103.3008980 151.1553710  77.3715180
 103.8246460 150.6616360  76.7405350 103.8868400 151.2904070  78.1162750
 103.4798700 151.2393580  80.8934730 102.5301410 151.2057120  81.0079720
 103.6611710 152.1493690  80.6584500  89.3343140 149.4895260  70.0033360
  90.0434840 149.0678480  69.5180640  88.6183080 149.5570490  69.3716710
  88.9817300 145.5434590  69.0436010  89.7045430 146.0843530  69.3617230
  89.2541820 145.2698010  68.1677550 102.7908950 150.4127060  73.3107590
 103.2868070 150.1797930  74.0956470 102.5925020 149.5738900  72.8945230
  88.6709490 144.7940780  78.9458630  89.3185680 144.2438160  78.5053790
  89.0911330 145.0483930  79.7674440 104.2196110 149.0488010  75.8445270
 104.1095390 148.8944050  76.7827540 104.9803700 148.5208950  75.6020680
 102.5661830 144.9882140  82.3028270 103.2034050 145.6016280  82.6687460
 102.7136720 145.0242800  81.3577500 105.1086380 146.8795930  69.0851410
 106.0335690 146.7477110  68.8769700 105.0862170 146.9588750  70.0387860
 105.1824870 147.6506590  71.7108120 104.3876370 147.5851710  72.2401030
 105.3868150 148.5857230  71.6993470  88.4241490 144.9496450  81.6883950
  88.0756310 145.4060270  82.4542130  88.0929190 144.0553580  81.7706380
  95.9366310 146.1408330  85.2103370  95.8755200 146.7330160  85.9598780
  96.8766690 146.0334290  85.0653630  98.5740870 145.7978390  84.8495660
  99.1881280 146.1157680  84.1876740  99.1190430 145.3126980  85.4691520
  99.3148910 144.3610530  81.1764950  98.4408750 144.6945640  80.9737880
  99.2059660 143.8883710  82.0016820 100.2220890 146.5681400  82.5606670
  99.8934250 145.7533160  82.1808400 101.1703190 146.5251210  82.4372360
  97.0623730 145.2780370  80.1157860  96.2795520 145.7525870  80.3954620
  96.7686660 144.3735200  80.0071040 101.6144800 145.9803470  78.1606950
 102.0552890 145.9248570  77.3128550 101.3452390 146.8961480  78.2317130
 103.4783370 145.6118710  76.1715770 103.4171770 144.6679930  76.0246790
 104.2575400 145.7198800  76.7169230  88.4064140 145.5827850  72.6371580
  89.1643500 145.6956730  72.0635610  87.9441310 146.4197050  72.5915010
  94.9477950 147.6967120  75.6273890  94.1352460 147.3224010  75.2869770
  95.4519590 146.9412200  75.9295080  99.4502930 144.3609570  76.8656960
 100.0532300 144.9329780  77.3405480  98.7095920 144.9249010  76.6430860
 102.5937530 144.7631130  72.1397240 102.7888160 145.6614580  72.4064670
 101.8067400 144.5318210  72.6330190  90.7789290 146.1091900  71.1773550
  91.3082050 145.3221700  71.0481500  91.4117610 146.7883090  71.4109080
  92.9727130 145.8467040  74.2318940  92.3429870 145.1454350  74.3989070
  92.4332270 146.6071170  74.0152100  93.0982690 145.1251020  86.6671430
  92.8166960 145.6284620  85.9032250  93.4802390 144.3272770  86.3013560
  99.6998150 144.5404600  87.2451900  99.5863600 144.8599210  88.1403420
 100.5167890 144.9417110  86.9489180  98.6056300 152.5597070  57.6086640
  98.5250350 151.6451680  57.3378350  98.1920720 153.0564140  56.9026350
  96.7374340 154.3376090  59.4895910  95.9616440 153.8576530  59.7794480
  97.3887270 153.6581740  59.3152070  90.7540170 154.6495900  60.3671670
  89.9225050 154.3944610  60.7668180  91.3621150 154.7206670  61.1029590
  89.1632120 149.6097790  54.1514060  88.2748820 149.9513760  54.0493940
  89.4473310 149.4098110  53.2594890  87.1265130 152.2103440  60.0353760
  87.6981240 151.4425640  60.0357400  87.1266670 152.5092200  59.1260370
  88.3690000 147.6187800  61.8222690  88.1892840 146.7213550  62.1025450
  87.9670080 148.1659670  62.4969640  97.2088500 149.8203660  59.7235000
  97.5853320 148.9475540  59.6108670  97.1108010 150.1562360  58.8325440
  91.3393510 148.1929290  55.1852440  91.4460260 149.0933020  55.4921200
  90.4285870 148.1447260  54.8947090 100.9912620 147.3154100  56.6563340
 101.8122240 146.8250670  56.6988820 101.0246700 147.9051760  57.4095180
  88.9876670 150.1148300  60.4305030  89.6686780 150.3786670  61.0492430
  88.6724720 149.2749170  60.7643040  93.1801240 151.1615660  59.5177620
  93.6879460 151.6596630  60.1582640  93.7114480 150.3850860  59.3416980
 105.2812170 149.3320850  63.2206970 104.5764340 149.7202560  62.7022080
 105.5470090 150.0271140  63.8227900  91.4637340 145.8014220  63.7841040
  91.4655780 146.3186610  62.9786940  90.6341650 145.3244400  63.7610970
 101.2274100 149.2554480  59.4290880 100.5229670 149.5439370  60.0093990
 101.5886260 150.0654590  59.0690440  91.1452670 147.5124180  61.7911490
  91.4869480 148.3566230  61.4965360  90.2068480 147.6607920  61.9076830
 104.2961020 148.7009270  59.8200090 103.3485930 148.7348250  59.9515520
 104.6211010 149.5148220  60.2049450  94.8280560 145.0006450  58.1156080
  95.1355540 144.4453340  57.3991580  93.8981260 145.1350910  57.9329070
  97.2161320 153.0655280  54.8516200  96.2890600 152.9992660  55.0804670
  97.3686140 154.0035410  54.7371440  97.2030400 149.3372280  51.8483360
  96.2634070 149.4986240  51.9335820  97.5213660 150.0557960  51.3019350
 103.7243160 154.0190800  61.8262390 102.8961790 154.0883890  61.3512520
 104.3193640 154.6045110  61.3578220 101.2458610 154.6275580  55.3551450
 100.6271030 154.2895130  54.7077750 101.2283060 153.9835340  56.0630640
 100.6885170 150.8060120  62.7717260 100.2756350 151.6313830  63.0257250
  99.9561120 150.2205160  62.5793620  92.8217960 153.5920020  57.6335930
  92.4174960 152.8797270  57.1381830  92.9081080 153.2473260  58.5223970
  91.5346580 150.3663230  61.4134970  92.0861170 150.4758570  60.6388220
  92.0490090 150.7400830  62.1290200  99.4223310 153.8662390  52.3624200
  99.8616590 153.0284820  52.2162020 100.1351730 154.4991790  52.4488340
  91.2089310 153.8882590  65.0240310  91.0697080 154.7605390  65.3927710
  90.3270670 153.5455400  64.8788250 103.0040450 145.1205200  50.6765240
 102.6913110 145.2132030  51.5764310 103.7652920 145.6986230  50.6262670
  89.5222590 152.4865000  55.1342580  89.4020190 153.2127090  54.5223850
  89.2123480 151.7167910  54.6570490 104.2141740 149.8576700  66.6539380
 103.5986010 150.3656370  66.1254840 103.8938160 148.9575030  66.5965320
  91.9886250 145.8300070  58.5166250  91.5454400 146.6109610  58.1850770
  92.5471240 146.1529960  59.2237190  96.2756060 148.6968590  64.1201570
  95.8135430 148.9051610  64.9321510  95.8734170 147.8827940  63.8172240
 101.2760570 149.9177540  65.2498230 100.4254160 149.6183290  65.5707300
 101.1162360 150.1619550  64.3382050  98.3710280 151.4179290  67.3497020
  98.6963690 150.5843040  67.0099250  99.1590610 151.9407810  67.4975350
  95.1045070 145.4510770  53.3972080  94.4799250 145.4470640  54.1225390
  95.0175190 144.5841730  53.0008050  94.0262150 146.3747400  60.3755850
  94.3234480 147.2810230  60.2947870  94.5747710 145.8866180  59.7615420
  91.7800470 150.9533640  56.2447500  91.5541390 150.7370810  57.1494120
  90.9993000 151.3862100  55.8993470  99.0098230 150.9597010  54.8438150
  98.4107120 151.6832810  54.6601770  99.5577840 150.8973790  54.0614600
  94.2199680 151.8519220  66.9107770  94.1243280 150.9113950  66.7608170
  95.0631660 152.0734290  66.5155840  97.6163100 149.5960550  56.8741430
  98.0092670 149.9132750  56.0610120  97.9779950 148.7172430  56.9885950
  89.3510220 148.2632890  65.0641550  88.9573610 149.1108100  65.2714330
  88.6628620 147.6259260  65.2550190  95.9255270 148.3467860  68.1338290
  95.2353590 148.1540060  68.7684380  96.6687570 148.6302500  68.6662590
  86.6527270 146.1861350  59.0971630  86.3640320 146.7564210  59.8096610
  87.3973030 145.7065800  59.4602860  86.8397500 150.1281470  50.3074350
  86.7572170 151.0712230  50.4489340  86.4880560 149.9856380  49.4286700
  98.2018240 152.1866300  60.9692210  97.4699360 152.6953110  61.3182310
  97.8042580 151.3696280  60.6680990  94.6395630 148.8620500  59.3744700
  94.6431690 148.4210450  58.5249240  95.5346750 149.1837830  59.4816520
  90.4898010 148.7446990  58.3338910  90.1498060 149.2222220  59.0905960
  89.7275330 148.2912110  57.9740010  94.7015780 149.8632580  52.3651460
  94.8228600 149.8219060  53.3137280  94.3164290 150.7256730  52.2098190
  98.6644150 147.6399980  60.3815150  98.6816890 148.0908630  61.2257000
  98.4159730 146.7405620  60.5948590  93.7137280 152.1733720  51.7634760
  93.1454180 151.7251970  51.1370670  94.4226280 152.5326500  51.2299910
 102.0914900 145.0532160  66.2201530 102.4160670 144.3221820  66.7459510
 102.1271410 144.7345800  65.3182520  94.9403600 152.9222280  61.1210110
  95.3073730 152.4480850  61.8671450  94.7508660 153.7963850  61.4618450
  87.8044090 147.6665970  57.2503580  87.5191010 147.3021640  58.0882200
  87.7422950 146.9346430  56.6366720  92.7302970 151.9630920  63.4394320
  92.4260040 152.8422900  63.6644680  93.6849430 152.0230710  63.4751760
  97.4782680 146.5595230  53.9716950  96.6647290 146.0608400  53.8962260
  97.2844630 147.3993480  53.5553300 100.1931070 150.9314880  52.2679110
 101.0810690 151.2432110  52.0930450 100.1636160 150.0587130  51.8759690
  88.7866700 152.8033660  64.5865680  88.4281640 153.4687510  65.1739020
  88.4921260 151.9717210  64.9578300  91.9879820 153.2617900  67.4705230
  91.6879960 153.4075080  66.5733050  92.7591060 152.7023190  67.3778620
 102.4645340 152.2426720  51.7358970 102.3809060 152.6740940  50.8855410
 103.1839530 152.7025070  52.1685790  87.2974750 152.8024920  51.2100280
  88.1669600 153.0849720  51.4936200  86.8065070 153.6160790  51.0949090
  90.3621340 144.5335780  55.8031080  90.2335970 144.5253680  56.7516000
  89.5383360 144.8718870  55.4522090  87.3615270 146.2926900  65.2637780
  86.6473790 146.4923820  65.8690390  87.7810310 145.5166470  65.6352580
  98.8554050 148.7849210  63.0139230  99.2234870 147.9644420  63.3418800
  97.9952250 148.8451100  63.4294880 102.2216080 147.7406150  53.8226790
 101.5929240 147.8451820  53.1085020 101.7268000 147.9602930  54.6120670
  94.1900110 150.0192100  55.2384670  93.4816260 150.4878440  55.6798280
  94.4744590 149.3614110  55.8729860  95.8156040 151.4388800  63.2377200
  96.3141290 151.9134620  63.9029050  95.9578990 150.5152320  63.4447230
  98.2215540 146.7442760  56.6780460  98.0983320 146.7628890  55.7289970
  99.1700100 146.7921700  56.7978860  92.3935130 148.3277180  52.6135380
  93.2425660 148.7647330  52.5475570  92.0266400 148.6397440  53.4407440
 103.0222900 147.6556760  64.0805590 102.5196500 148.3962160  64.4199400
 103.8379560 148.0440760  63.7642380 101.3144910 152.8989940  57.5266950
 100.3735050 152.9140170  57.7014640 101.6288980 152.1125900  57.9727250
  91.2926550 154.5809540  51.0870910  92.0589820 154.4690900  51.6496340
  91.3701240 153.8847510  50.4347680  89.9873310 152.0134610  51.7703800
  90.0676900 151.0662120  51.8821200  90.8793060 152.3441490  51.8764460
  87.5144110 153.8349530  67.0059970  88.0183130 153.2556810  67.5776200
  86.7751530 154.1189760  67.5436340  89.5467190 151.9779120  67.9010040
  89.5872530 151.6792990  68.8095270  90.4012690 152.3786730  67.7417560
  93.3245580 154.5774670  53.0613550  93.7462000 154.4114540  53.9044940
  93.4496420 153.7674900  52.5668690  91.4873000 150.5571220  65.8684530
  90.9569460 150.0662170  65.2407870  92.1561070 150.9855420  65.3342460
  95.8373220 153.6012280  50.3090650  96.3578880 152.8861300  49.9431800
  96.4841620 154.2398150  50.6091160 100.8573230 152.3636840  67.6364870
 101.4394000 151.6089160  67.5485350 101.0335000 152.8944280  66.8596350
  91.9745300 147.5233590  65.9481820  91.8802170 146.9054340  65.2232690
  91.3942690 148.2499880  65.7211730  94.7406740 146.0806830  62.9809210
  94.2924040 146.1031090  62.1354760  94.1071940 145.6825850  63.5779510
  97.4830190 152.7077340  64.9859490  97.6026400 152.1118480  65.7254330
  98.3424190 152.7447030  64.5660790  99.8218090 153.2614530  63.5622000
  99.2953310 153.7857150  62.9587140 100.1649430 153.8941920  64.1931730
  92.2204480 150.6507900  50.0071710  92.0193540 149.7875260  50.3685050
  92.0496530 150.5641260  49.0693310  94.2498960 149.2498690  66.2435310
  94.8398650 148.9414540  66.9313130  93.4319200 148.7778440  66.3995210
  99.0692390 148.8664500  66.4768330  98.3807910 148.2046040  66.4118320
  99.7898410 148.4202770  66.9216790  99.6992790 145.4616130  52.5358590
  99.9795080 144.6184030  52.8918010  98.9258520 145.6939240  53.0497340
  91.0187280 147.7508520  49.9949590  91.3213180 147.7575950  49.0868740
  91.7581870 147.4006380  50.4917250  94.2372210 146.6943140  50.9805790
  93.8894210 146.0167130  50.4008240  94.4384980 146.2332650  51.7949180
  87.5777850 153.2230790  57.3770160  86.9226690 152.9542430  56.7329860
  88.4155800 153.1135270  56.9272140 100.5268290 148.0172080  51.5988650
 100.9453170 147.8303060  50.7585310 100.2204350 147.1651130  51.9091580
 104.0258020 152.9296220  55.2964450 103.6501620 152.1624150  54.8645740
 103.2961140 153.3118920  55.7839380  88.6153780 153.6083360  61.9173500
  88.9826820 153.5210760  62.7969520  88.0464600 152.8449910  61.8180360
 103.4157640 152.0767740  64.9303970 103.1843730 151.8480490  64.0301920
 103.6762190 152.9967290  64.8848860  88.1669780 150.5192450  65.8231920
  87.2725830 150.4859210  66.1625630  88.7067330 150.7179240  66.5883170
 101.8545710 147.3024170  67.7083670 102.7315890 147.3107570  68.0917670
 101.8666550 146.5655010  67.0976020  86.7915930 150.4329720  53.3195490
  85.8880010 150.6959920  53.1447150  87.2756550 150.7040890  52.5395450
 103.3008980 151.1553710  58.5971690 103.8246460 150.6616360  57.9661860
 103.8868400 151.2904070  59.3419260 103.4798700 151.2393580  62.1191240
 102.5301410 151.2057120  62.2336230 103.6611710 152.1493690  61.8841010
  89.3343140 149.4895260  51.2289870  90.0434840 149.0678480  50.7437150
  88.6183080 149.5570490  50.5973220  88.9817300 145.5434590  50.2692520
  89.7045430 146.0843530  50.5873740  89.2541820 145.2698010  49.3934060
 102.7908950 150.4127060  54.5364100 103.2868070 150.1797930  55.3212980
 102.5925020 149.5738900  54.1201740  88.6709490 144.7940780  60.1715140
  89.3185680 144.2438160  59.7310300  89.0911330 145.0483930  60.9930950
 104.2196110 149.0488010  57.0701780 104.1095390 148.8944050  58.0084050
 104.9803700 148.5208950  56.8277190 102.5661830 144.9882140  63.5284780
 103.2034050 145.6016280  63.8943970 102.7136720 145.0242800  62.5834010
 105.1086380 146.8795930  50.3107920 106.0335690 146.7477110  50.1026210
 105.0862170 146.9588750  51.2644370 105.1824870 147.6506590  52.9364630
 104.3876370 147.5851710  53.4657540 105.3868150 148.5857230  52.9249980
  88.4241490 144.9496450  62.9140460  88.0756310 145.4060270  63.6798640
  88.0929190 144.0553580  62.9962890  95.9366310 146.1408330  66.4359880
  95.8755200 146.7330160  67.1855290  96.8766690 146.0334290  66.2910140
  98.5740870 145.7978390  66.0752170  99.1881280 146.1157680  65.4133250
  99.1190430 145.3126980  66.6948030  89.0962130 144.4772650  66.1891230
  89.6445120 144.2960700  65.4257340  89.1617440 143.6866760  66.7247540
  99.3148910 144.3610530  62.4021460  98.4408750 144.6945640  62.1994390
  99.2059660 143.8883710  63.2273330 100.2220890 146.5681400  63.7863180
  99.8934250 145.7533160  63.4064910 101.1703190 146.5251210  63.6628870
  97.0623730 145.2780370  61.3414370  96.2795520 145.7525870  61.6211130
  96.7686660 144.3735200  61.2327550 101.6144800 145.9803470  59.3863460
 102.0552890 145.9248570  58.5385060 101.3452390 146.8961480  59.4573640
 103.4783370 145.6118710  57.3972280 103.4171770 144.6679930  57.2503300
 104.2575400 145.7198800  57.9425740  88.4064140 145.5827850  53.8628090
  89.1643500 145.6956730  53.2892120  87.9441310 146.4197050  53.8171520
  94.9477950 147.6967120  56.8530400  94.1352460 147.3224010  56.5126280
  95.4519590 146.9412200  57.1551590  99.4502930 144.3609570  58.0913470
 100.0532300 144.9329780  58.5661990  98.7095920 144.9249010  57.8687370
 102.5937530 144.7631130  53.3653750 102.7888160 145.6614580  53.6321180
 101.8067400 144.5318210  53.8586700  90.7789290 146.1091900  52.4030060
  91.3082050 145.3221700  52.2738010  91.4117610 146.7883090  52.6365590
  92.9727130 145.8467040  55.4575450  92.3429870 145.1454350  55.6245580
  92.4332270 146.6071170  55.2408610  93.0982690 145.1251020  67.8927940
  92.8166960 145.6284620  67.1288760  93.4802390 144.3272770  67.5270070
  99.6998150 144.5404600  68.4708410  99.5863600 144.8599210  69.3659930
 100.5167890 144.9417110  68.1745690  98.6056300 152.5597070  38.8343150
  98.5250350 151.6451680  38.5634860  98.1920720 153.0564140  38.1282860
  96.7374340 154.3376090  40.7152420  95.9616440 153.8576530  41.0050990
  97.3887270 153.6581740  40.5408580  90.7540170 154.6495900  41.5928180
  89.9225050 154.3944610  41.9924690  91.3621150 154.7206670  42.3286100
  89.1632120 149.6097790  35.3770570  88.2748820 149.9513760  35.2750450
  89.4473310 149.4098110  34.4851400  87.1265130 152.2103440  41.2610270
  87.6981240 151.4425640  41.2613910  87.1266670 152.5092200  40.3516880
  88.3690000 147.6187800  43.0479200  88.1892840 146.7213550  43.3281960
  87.9670080 148.1659670  43.7226150  97.2088500 149.8203660  40.9491510
  97.5853320 148.9475540  40.8365180  97.1108010 150.1562360  40.0581950
  91.3393510 148.1929290  36.4108950  91.4460260 149.0933020  36.7177710
  90.4285870 148.1447260  36.1203600 100.9912620 147.3154100  37.8819850
 101.8122240 146.8250670  37.9245330 101.0246700 147.9051760  38.6351690
  88.9876670 150.1148300  41.6561540  89.6686780 150.3786670  42.2748940
  88.6724720 149.2749170  41.9899550  93.1801240 151.1615660  40.7434130
  93.6879460 151.6596630  41.3839150  93.7114480 150.3850860  40.5673490
 105.2812170 149.3320850  44.4463480 104.5764340 149.7202560  43.9278590
 105.5470090 150.0271140  45.0484410  91.4637340 145.8014220  45.0097550
  91.4655780 146.3186610  44.2043450  90.6341650 145.3244400  44.9867480
 101.2274100 149.2554480  40.6547390 100.5229670 149.5439370  41.2350500
 101.5886260 150.0654590  40.2946950  91.1452670 147.5124180  43.0168000
  91.4869480 148.3566230  42.7221870  90.2068480 147.6607920  43.1333340
 104.2961020 148.7009270  41.0456600 103.3485930 148.7348250  41.1772030
 104.6211010 149.5148220  41.4305960  94.8280560 145.0006450  39.3412590
  95.1355540 144.4453340  38.6248090  93.8981260 145.1350910  39.1585580
  97.2161320 153.0655280  36.0772710  96.2890600 152.9992660  36.3061180
  97.3686140 154.0035410  35.9627950  97.2030400 149.3372280  33.0739870
  96.2634070 149.4986240  33.1592330  97.5213660 150.0557960  32.5275860
 103.7243160 154.0190800  43.0518900 102.8961790 154.0883890  42.5769030
 104.3193640 154.6045110  42.5834730 101.2458610 154.6275580  36.5807960
 100.6271030 154.2895130  35.9334260 101.2283060 153.9835340  37.2887150
 100.6885170 150.8060120  43.9973770 100.2756350 151.6313830  44.2513760
  99.9561120 150.2205160  43.8050130  92.8217960 153.5920020  38.8592440
  92.4174960 152.8797270  38.3638340  92.9081080 153.2473260  39.7480480
  91.5346580 150.3663230  42.6391480  92.0861170 150.4758570  41.8644730
  92.0490090 150.7400830  43.3546710  99.4223310 153.8662390  33.5880710
  99.8616590 153.0284820  33.4418530 100.1351730 154.4991790  33.6744850
  91.2089310 153.8882590  46.2496820  91.0697080 154.7605390  46.6184220
  90.3270670 153.5455400  46.1044760 103.0040450 145.1205200  31.9021750
 102.6913110 145.2132030  32.8020820 103.7652920 145.6986230  31.8519180
  89.5222590 152.4865000  36.3599090  89.4020190 153.2127090  35.7480360
  89.2123480 151.7167910  35.8827000 104.2141740 149.8576700  47.8795890
 103.5986010 150.3656370  47.3511350 103.8938160 148.9575030  47.8221830
  91.9886250 145.8300070  39.7422760  91.5454400 146.6109610  39.4107280
  92.5471240 146.1529960  40.4493700  96.2756060 148.6968590  45.3458080
  95.8135430 148.9051610  46.1578020  95.8734170 147.8827940  45.0428750
 101.2760570 149.9177540  46.4754740 100.4254160 149.6183290  46.7963810
 101.1162360 150.1619550  45.5638560  98.3710280 151.4179290  48.5753530
  98.6963690 150.5843040  48.2355760  99.1590610 151.9407810  48.7231860
  95.1045070 145.4510770  34.6228590  94.4799250 145.4470640  35.3481900
  95.0175190 144.5841730  34.2264560  94.0262150 146.3747400  41.6012360
  94.3234480 147.2810230  41.5204380  94.5747710 145.8866180  40.9871930
  91.7800470 150.9533640  37.4704010  91.5541390 150.7370810  38.3750630
  90.9993000 151.3862100  37.1249980  99.0098230 150.9597010  36.0694660
  98.4107120 151.6832810  35.8858280  99.5577840 150.8973790  35.2871110
  94.2199680 151.8519220  48.1364280  94.1243280 150.9113950  47.9864680
  95.0631660 152.0734290  47.7412350  97.6163100 149.5960550  38.0997940
  98.0092670 149.9132750  37.2866630  97.9779950 148.7172430  38.2142460
  89.3510220 148.2632890  46.2898060  88.9573610 149.1108100  46.4970840
  88.6628620 147.6259260  46.4806700  95.9255270 148.3467860  49.3594800
  95.2353590 148.1540060  49.9940890  96.6687570 148.6302500  49.8919100
  86.6527270 146.1861350  40.3228140  86.3640320 146.7564210  41.0353120
  87.3973030 145.7065800  40.6859370  86.8397500 150.1281470  31.5330860
  86.7572170 151.0712230  31.6745850  86.4880560 149.9856380  30.6543210
  98.2018240 152.1866300  42.1948720  97.4699360 152.6953110  42.5438820
  97.8042580 151.3696280  41.8937500  94.6395630 148.8620500  40.6001210
  94.6431690 148.4210450  39.7505750  95.5346750 149.1837830  40.7073030
  90.4898010 148.7446990  39.5595420  90.1498060 149.2222220  40.3162470
  89.7275330 148.2912110  39.1996520  94.7015780 149.8632580  33.5907970
  94.8228600 149.8219060  34.5393790  94.3164290 150.7256730  33.4354700
  98.6644150 147.6399980  41.6071660  98.6816890 148.0908630  42.4513510
  98.4159730 146.7405620  41.8205100  93.7137280 152.1733720  32.9891270
  93.1454180 151.7251970  32.3627180  94.4226280 152.5326500  32.4556420
 102.0914900 145.0532160  47.4458040 102.4160670 144.3221820  47.9716020
 102.1271410 144.7345800  46.5439030  94.9403600 152.9222280  42.3466620
  95.3073730 152.4480850  43.0927960  94.7508660 153.7963850  42.6874960
  87.8044090 147.6665970  38.4760090  87.5191010 147.3021640  39.3138710
  87.7422950 146.9346430  37.8623230  92.7302970 151.9630920  44.6650830
  92.4260040 152.8422900  44.8901190  93.6849430 152.0230710  44.7008270
  97.4782680 146.5595230  35.1973460  96.6647290 146.0608400  35.1218770
  97.2844630 147.3993480  34.7809810 100.1931070 150.9314880  33.4935620
 101.0810690 151.2432110  33.3186960 100.1636160 150.0587130  33.1016200
  88.7866700 152.8033660  45.8122190  88.4281640 153.4687510  46.3995530
  88.4921260 151.9717210  46.1834810  91.9879820 153.2617900  48.6961740
  91.6879960 153.4075080  47.7989560  92.7591060 152.7023190  48.6035130
 102.4645340 152.2426720  32.9615480 102.3809060 152.6740940  32.1111920
 103.1839530 152.7025070  33.3942300  87.2974750 152.8024920  32.4356790
  88.1669600 153.0849720  32.7192710  86.8065070 153.6160790  32.3205600
  90.3621340 144.5335780  37.0287590  90.2335970 144.5253680  37.9772510
  89.5383360 144.8718870  36.6778600  87.3615270 146.2926900  46.4894290
  86.6473790 146.4923820  47.0946900  87.7810310 145.5166470  46.8609090
  98.8554050 148.7849210  44.2395740  99.2234870 147.9644420  44.5675310
  97.9952250 148.8451100  44.6551390 102.2216080 147.7406150  35.0483300
 101.5929240 147.8451820  34.3341530 101.7268000 147.9602930  35.8377180
  94.1900110 150.0192100  36.4641180  93.4816260 150.4878440  36.9054790
  94.4744590 149.3614110  37.0986370  95.8156040 151.4388800  44.4633710
  96.3141290 151.9134620  45.1285560  95.9578990 150.5152320  44.6703740
  98.2215540 146.7442760  37.9036970  98.0983320 146.7628890  36.9546480
  99.1700100 146.7921700  38.0235370  92.3935130 148.3277180  33.8391890
  93.2425660 148.7647330  33.7732080  92.0266400 148.6397440  34.6663950
 103.0222900 147.6556760  45.3062100 102.5196500 148.3962160  45.6455910
 103.8379560 148.0440760  44.9898890 101.3144910 152.8989940  38.7523460
 100.3735050 152.9140170  38.9271150 101.6288980 152.1125900  39.1983760
  91.2926550 154.5809540  32.3127420  92.0589820 154.4690900  32.8752850
  91.3701240 153.8847510  31.6604190  89.9873310 152.0134610  32.9960310
  90.0676900 151.0662120  33.1077710  90.8793060 152.3441490  33.1020970
  87.5144110 153.8349530  48.2316480  88.0183130 153.2556810  48.8032710
  86.7751530 154.1189760  48.7692850  89.5467190 151.9779120  49.1266550
  89.5872530 151.6792990  50.0351780  90.4012690 152.3786730  48.9674070
  93.3245580 154.5774670  34.2870060  93.7462000 154.4114540  35.1301450
  93.4496420 153.7674900  33.7925200  91.4873000 150.5571220  47.0941040
  90.9569460 150.0662170  46.4664380  92.1561070 150.9855420  46.5598970
  95.8373220 153.6012280  31.5347160  96.3578880 152.8861300  31.1688310
  96.4841620 154.2398150  31.8347670 100.8573230 152.3636840  48.8621380
 101.4394000 151.6089160  48.7741860 101.0335000 152.8944280  48.0852860
  91.9745300 147.5233590  47.1738330  91.8802170 146.9054340  46.4489200
  91.3942690 148.2499880  46.9468240  94.7406740 146.0806830  44.2065720
  94.2924040 146.1031090  43.3611270  94.1071940 145.6825850  44.8036020
  97.4830190 152.7077340  46.2116000  97.6026400 152.1118480  46.9510840
  98.3424190 152.7447030  45.7917300  99.8218090 153.2614530  44.7878510
  99.2953310 153.7857150  44.1843650 100.1649430 153.8941920  45.4188240
  92.2204480 150.6507900  31.2328220  92.0193540 149.7875260  31.5941560
  92.0496530 150.5641260  30.2949820  94.2498960 149.2498690  47.4691820
  94.8398650 148.9414540  48.1569640  93.4319200 148.7778440  47.6251720
  99.0692390 148.8664500  47.7024840  98.3807910 148.2046040  47.6374830
  99.7898410 148.4202770  48.1473300  99.6992790 145.4616130  33.7615100
  99.9795080 144.6184030  34.1174520  98.9258520 145.6939240  34.2753850
  91.0187280 147.7508520  31.2206100  91.3213180 147.7575950  30.3125250
  91.7581870 147.4006380  31.7173760  94.2372210 146.6943140  32.2062300
  93.8894210 146.0167130  31.6264750  94.4384980 146.2332650  33.0205690
  87.5777850 153.2230790  38.6026670  86.9226690 152.9542430  37.9586370
  88.4155800 153.1135270  38.1528650 100.5268290 148.0172080  32.8245160
 100.9453170 147.8303060  31.9841820 100.2204350 147.1651130  33.1348090
 104.0258020 152.9296220  36.5220960 103.6501620 152.1624150  36.0902250
 103.2961140 153.3118920  37.0095890  88.6153780 153.6083360  43.1430010
  88.9826820 153.5210760  44.0226030  88.0464600 152.8449910  43.0436870
 103.4157640 152.0767740  46.1560480 103.1843730 151.8480490  45.2558430
 103.6762190 152.9967290  46.1105370  88.1669780 150.5192450  47.0488430
  87.2725830 150.4859210  47.3882140  88.7067330 150.7179240  47.8139680
 101.8545710 147.3024170  48.9340180 102.7315890 147.3107570  49.3174180
 101.8666550 146.5655010  48.3232530  86.7915930 150.4329720  34.5452000
  85.8880010 150.6959920  34.3703660  87.2756550 150.7040890  33.7651960
 103.3008980 151.1553710  39.8228200 103.8246460 150.6616360  39.1918370
 103.8868400 151.2904070  40.5675770 103.4798700 151.2393580  43.3447750
 102.5301410 151.2057120  43.4592740 103.6611710 152.1493690  43.1097520
  89.3343140 149.4895260  32.4546380  90.0434840 149.0678480  31.9693660
  88.6183080 149.5570490  31.8229730  88.9817300 145.5434590  31.4949030
  89.7045430 146.0843530  31.8130250  89.2541820 145.2698010  30.6190570
 102.7908950 150.4127060  35.7620610 103.2868070 150.1797930  36.5469490
 102.5925020 149.5738900  35.3458250  88.6709490 144.7940780  41.3971650
  89.3185680 144.2438160  40.9566810  89.0911330 145.0483930  42.2187460
 104.2196110 149.0488010  38.2958290 104.1095390 148.8944050  39.2340560
 104.9803700 148.5208950  38.0533700 102.5661830 144.9882140  44.7541290
 103.2034050 145.6016280  45.1200480 102.7136720 145.0242800  43.8090520
 105.1086380 146.8795930  31.5364430 106.0335690 146.7477110  31.3282720
 105.0862170 146.9588750  32.4900880 105.1824870 147.6506590  34.1621140
 104.3876370 147.5851710  34.6914050 105.3868150 148.5857230  34.1506490
  88.4241490 144.9496450  44.1396970  88.0756310 145.4060270  44.9055150
  88.0929190 144.0553580  44.2219400  95.9366310 146.1408330  47.6616390
  95.8755200 146.7330160  48.4111800  96.8766690 146.0334290  47.5166650
  98.5740870 145.7978390  47.3008680  99.1881280 146.1157680  46.6389760
  99.1190430 145.3126980  47.9204540  89.0962130 144.4772650  47.4147740
  89.6445120 144.2960700  46.6513850  89.1617440 143.6866760  47.9504050
  99.3148910 144.3610530  43.6277970  98.4408750 144.6945640  43.4250900
  99.2059660 143.8883710  44.4529840 100.2220890 146.5681400  45.0119690
  99.8934250 145.7533160  44.6321420 101.1703190 146.5251210  44.8885380
  97.0623730 145.2780370  42.5670880  96.2795520 145.7525870  42.8467640
  96.7686660 144.3735200  42.4584060 101.6144800 145.9803470  40.6119970
 102.0552890 145.9248570  39.7641570 101.3452390 146.8961480  40.6830150
 103.4783370 145.6118710  38.6228790 103.4171770 144.6679930  38.4759810
 104.2575400 145.7198800  39.1682250  88.4064140 145.5827850  35.0884600
  89.1643500 145.6956730  34.5148630  87.9441310 146.4197050  35.0428030
  94.9477950 147.6967120  38.0786910  94.1352460 147.3224010  37.7382790
  95.4519590 146.9412200  38.3808100  99.4502930 144.3609570  39.3169980
 100.0532300 144.9329780  39.7918500  98.7095920 144.9249010  39.0943880
 102.5937530 144.7631130  34.5910260 102.7888160 145.6614580  34.8577690
 101.8067400 144.5318210  35.0843210  90.7789290 146.1091900  33.6286570
  91.3082050 145.3221700  33.4994520  91.4117610 146.7883090  33.8622100
  92.9727130 145.8467040  36.6831960  92.3429870 145.1454350  36.8502090
  92.4332270 146.6071170  36.4665120  93.0982690 145.1251020  49.1184450
  92.8166960 145.6284620  48.3545270  93.4802390 144.3272770  48.7526580
  99.6998150 144.5404600  49.6964920  99.5863600 144.8599210  50.5916440
 100.5167890 144.9417110  49.4002200  98.6056300 152.5597070  20.0599660
  98.5250350 151.6451680  19.7891370  98.1920720 153.0564140  19.3539370
  96.7374340 154.3376090  21.9408930  95.9616440 153.8576530  22.2307500
  97.3887270 153.6581740  21.7665090  90.7540170 154.6495900  22.8184690
  89.9225050 154.3944610  23.2181200  91.3621150 154.7206670  23.5542610
  89.1632120 149.6097790  16.6027080  88.2748820 149.9513760  16.5006960
  89.4473310 149.4098110  15.7107910  87.1265130 152.2103440  22.4866780
  87.6981240 151.4425640  22.4870420  87.1266670 152.5092200  21.5773390
  88.3690000 147.6187800  24.2735710  88.1892840 146.7213550  24.5538470
  87.9670080 148.1659670  24.9482660  97.2088500 149.8203660  22.1748020
  97.5853320 148.9475540  22.0621690  97.1108010 150.1562360  21.2838460
  91.3393510 148.1929290  17.6365460  91.4460260 149.0933020  17.9434220
  90.4285870 148.1447260  17.3460110 100.9912620 147.3154100  19.1076360
 101.8122240 146.8250670  19.1501840 101.0246700 147.9051760  19.8608200
  88.9876670 150.1148300  22.8818050  89.6686780 150.3786670  23.5005450
  88.6724720 149.2749170  23.2156060  93.1801240 151.1615660  21.9690640
  93.6879460 151.6596630  22.6095660  93.7114480 150.3850860  21.7930000
 105.2812170 149.3320850  25.6719990 104.5764340 149.7202560  25.1535100
 105.5470090 150.0271140  26.2740920  91.4637340 145.8014220  26.2354060
  91.4655780 146.3186610  25.4299960  90.6341650 145.3244400  26.2123990
 101.2274100 149.2554480  21.8803900 100.5229670 149.5439370  22.4607010
 101.5886260 150.0654590  21.5203460  91.1452670 147.5124180  24.2424510
  91.4869480 148.3566230  23.9478380  90.2068480 147.6607920  24.3589850
 104.2961020 148.7009270  22.2713110 103.3485930 148.7348250  22.4028540
 104.6211010 149.5148220  22.6562470  94.8280560 145.0006450  20.5669100
  95.1355540 144.4453340  19.8504600  93.8981260 145.1350910  20.3842090
  97.2161320 153.0655280  17.3029220  96.2890600 152.9992660  17.5317690
  97.3686140 154.0035410  17.1884460  97.2030400 149.3372280  14.2996380
  96.2634070 149.4986240  14.3848840  97.5213660 150.0557960  13.7532370
 103.7243160 154.0190800  24.2775410 102.8961790 154.0883890  23.8025540
 104.3193640 154.6045110  23.8091240 101.2458610 154.6275580  17.8064470
 100.6271030 154.2895130  17.1590770 101.2283060 153.9835340  18.5143660
 100.6885170 150.8060120  25.2230280 100.2756350 151.6313830  25.4770270
  99.9561120 150.2205160  25.0306640  92.8217960 153.5920020  20.0848950
  92.4174960 152.8797270  19.5894850  92.9081080 153.2473260  20.9736990
  91.5346580 150.3663230  23.8647990  92.0861170 150.4758570  23.0901240
  92.0490090 150.7400830  24.5803220  99.4223310 153.8662390  14.8137220
  99.8616590 153.0284820  14.6675040 100.1351730 154.4991790  14.9001360
  91.2089310 153.8882590  27.4753330  91.0697080 154.7605390  27.8440730
  90.3270670 153.5455400  27.3301270 103.0040450 145.1205200  13.1278260
 102.6913110 145.2132030  14.0277330 103.7652920 145.6986230  13.0775690
  89.5222590 152.4865000  17.5855600  89.4020190 153.2127090  16.9736870
  89.2123480 151.7167910  17.1083510 104.2141740 149.8576700  29.1052400
 103.5986010 150.3656370  28.5767860 103.8938160 148.9575030  29.0478340
  91.9886250 145.8300070  20.9679270  91.5454400 146.6109610  20.6363790
  92.5471240 146.1529960  21.6750210  96.2756060 148.6968590  26.5714590
  95.8135430 148.9051610  27.3834530  95.8734170 147.8827940  26.2685260
 101.2760570 149.9177540  27.7011250 100.4254160 149.6183290  28.0220320
 101.1162360 150.1619550  26.7895070  98.3710280 151.4179290  29.8010040
  98.6963690 150.5843040  29.4612270  99.1590610 151.9407810  29.9488370
  95.1045070 145.4510770  15.8485100  94.4799250 145.4470640  16.5738410
  95.0175190 144.5841730  15.4521070  94.0262150 146.3747400  22.8268870
  94.3234480 147.2810230  22.7460890  94.5747710 145.8866180  22.2128440
  91.7800470 150.9533640  18.6960520  91.5541390 150.7370810  19.6007140
  90.9993000 151.3862100  18.3506490  99.0098230 150.9597010  17.2951170
  98.4107120 151.6832810  17.1114790  99.5577840 150.8973790  16.5127620
  94.2199680 151.8519220  29.3620790  94.1243280 150.9113950  29.2121190
  95.0631660 152.0734290  28.9668860  97.6163100 149.5960550  19.3254450
  98.0092670 149.9132750  18.5123140  97.9779950 148.7172430  19.4398970
  89.3510220 148.2632890  27.5154570  88.9573610 149.1108100  27.7227350
  88.6628620 147.6259260  27.7063210  95.9255270 148.3467860  30.5851310
  95.2353590 148.1540060  31.2197400  96.6687570 148.6302500  31.1175610
  86.6527270 146.1861350  21.5484650  86.3640320 146.7564210  22.2609630
  87.3973030 145.7065800  21.9115880  86.8397500 150.1281470  12.7587370
  86.7572170 151.0712230  12.9002360  86.4880560 149.9856380  11.8799720
  98.2018240 152.1866300  23.4205230  97.4699360 152.6953110  23.7695330
  97.8042580 151.3696280  23.1194010  94.6395630 148.8620500  21.8257720
  94.6431690 148.4210450  20.9762260  95.5346750 149.1837830  21.9329540
  90.4898010 148.7446990  20.7851930  90.1498060 149.2222220  21.5418980
  89.7275330 148.2912110  20.4253030  94.7015780 149.8632580  14.8164480
  94.8228600 149.8219060  15.7650300  94.3164290 150.7256730  14.6611210
  98.6644150 147.6399980  22.8328170  98.6816890 148.0908630  23.6770020
  98.4159730 146.7405620  23.0461610  93.7137280 152.1733720  14.2147780
  93.1454180 151.7251970  13.5883690  94.4226280 152.5326500  13.6812930
 102.0914900 145.0532160  28.6714550 102.4160670 144.3221820  29.1972530
 102.1271410 144.7345800  27.7695540  94.9403600 152.9222280  23.5723130
  95.3073730 152.4480850  24.3184470  94.7508660 153.7963850  23.9131470
  87.8044090 147.6665970  19.7016600  87.5191010 147.3021640  20.5395220
  87.7422950 146.9346430  19.0879740  92.7302970 151.9630920  25.8907340
  92.4260040 152.8422900  26.1157700  93.6849430 152.0230710  25.9264780
  97.4782680 146.5595230  16.4229970  96.6647290 146.0608400  16.3475280
  97.2844630 147.3993480  16.0066320 100.1931070 150.9314880  14.7192130
 101.0810690 151.2432110  14.5443470 100.1636160 150.0587130  14.3272710
  88.7866700 152.8033660  27.0378700  88.4281640 153.4687510  27.6252040
  88.4921260 151.9717210  27.4091320  91.9879820 153.2617900  29.9218250
  91.6879960 153.4075080  29.0246070  92.7591060 152.7023190  29.8291640
 102.4645340 152.2426720  14.1871990 102.3809060 152.6740940  13.3368430
 103.1839530 152.7025070  14.6198810  87.2974750 152.8024920  13.6613300
  88.1669600 153.0849720  13.9449220  86.8065070 153.6160790  13.5462110
  90.3621340 144.5335780  18.2544100  90.2335970 144.5253680  19.2029020
  89.5383360 144.8718870  17.9035110  87.3615270 146.2926900  27.7150800
  86.6473790 146.4923820  28.3203410  87.7810310 145.5166470  28.0865600
  98.8554050 148.7849210  25.4652250  99.2234870 147.9644420  25.7931820
  97.9952250 148.8451100  25.8807900 102.2216080 147.7406150  16.2739810
 101.5929240 147.8451820  15.5598040 101.7268000 147.9602930  17.0633690
  94.1900110 150.0192100  17.6897690  93.4816260 150.4878440  18.1311300
  94.4744590 149.3614110  18.3242880  95.8156040 151.4388800  25.6890220
  96.3141290 151.9134620  26.3542070  95.9578990 150.5152320  25.8960250
  98.2215540 146.7442760  19.1293480  98.0983320 146.7628890  18.1802990
  99.1700100 146.7921700  19.2491880  92.3935130 148.3277180  15.0648400
  93.2425660 148.7647330  14.9988590  92.0266400 148.6397440  15.8920460
 103.0222900 147.6556760  26.5318610 102.5196500 148.3962160  26.8712420
 103.8379560 148.0440760  26.2155400 101.3144910 152.8989940  19.9779970
 100.3735050 152.9140170  20.1527660 101.6288980 152.1125900  20.4240270
  91.2926550 154.5809540  13.5383930  92.0589820 154.4690900  14.1009360
  91.3701240 153.8847510  12.8860700  89.9873310 152.0134610  14.2216820
  90.0676900 151.0662120  14.3334220  90.8793060 152.3441490  14.3277480
  87.5144110 153.8349530  29.4572990  88.0183130 153.2556810  30.0289220
  86.7751530 154.1189760  29.9949360  89.5467190 151.9779120  30.3523060
  89.5872530 151.6792990  31.2608290  90.4012690 152.3786730  30.1930580
  93.3245580 154.5774670  15.5126570  93.7462000 154.4114540  16.3557960
  93.4496420 153.7674900  15.0181710  91.4873000 150.5571220  28.3197550
  90.9569460 150.0662170  27.6920890  92.1561070 150.9855420  27.7855480
  95.8373220 153.6012280  12.7603670  96.3578880 152.8861300  12.3944820
  96.4841620 154.2398150  13.0604180 100.8573230 152.3636840  30.0877890
 101.4394000 151.6089160  29.9998370 101.0335000 152.8944280  29.3109370
  91.9745300 147.5233590  28.3994840  91.8802170 146.9054340  27.6745710
  91.3942690 148.2499880  28.1724750  94.7406740 146.0806830  25.4322230
  94.2924040 146.1031090  24.5867780  94.1071940 145.6825850  26.0292530
  97.4830190 152.7077340  27.4372510  97.6026400 152.1118480  28.1767350
  98.3424190 152.7447030  27.0173810  99.8218090 153.2614530  26.0135020
  99.2953310 153.7857150  25.4100160 100.1649430 153.8941920  26.6444750
  92.2204480 150.6507900  12.4584730  92.0193540 149.7875260  12.8198070
  92.0496530 150.5641260  11.5206330  94.2498960 149.2498690  28.6948330
  94.8398650 148.9414540  29.3826150  93.4319200 148.7778440  28.8508230
  99.0692390 148.8664500  28.9281350  98.3807910 148.2046040  28.8631340
  99.7898410 148.4202770  29.3729810  99.6992790 145.4616130  14.9871610
  99.9795080 144.6184030  15.3431030  98.9258520 145.6939240  15.5010360
  91.0187280 147.7508520  12.4462610  91.3213180 147.7575950  11.5381760
  91.7581870 147.4006380  12.9430270  94.2372210 146.6943140  13.4318810
  93.8894210 146.0167130  12.8521260  94.4384980 146.2332650  14.2462200
  87.5777850 153.2230790  19.8283180  86.9226690 152.9542430  19.1842880
  88.4155800 153.1135270  19.3785160 100.5268290 148.0172080  14.0501670
 100.9453170 147.8303060  13.2098330 100.2204350 147.1651130  14.3604600
 104.0258020 152.9296220  17.7477470 103.6501620 152.1624150  17.3158760
 103.2961140 153.3118920  18.2352400  88.6153780 153.6083360  24.3686520
  88.9826820 153.5210760  25.2482540  88.0464600 152.8449910  24.2693380
 103.4157640 152.0767740  27.3816990 103.1843730 151.8480490  26.4814940
 103.6762190 152.9967290  27.3361880  88.1669780 150.5192450  28.2744940
  87.2725830 150.4859210  28.6138650  88.7067330 150.7179240  29.0396190
 101.8545710 147.3024170  30.1596690 102.7315890 147.3107570  30.5430690
 101.8666550 146.5655010  29.5489040  86.7915930 150.4329720  15.7708510
  85.8880010 150.6959920  15.5960170  87.2756550 150.7040890  14.9908470
 103.3008980 151.1553710  21.0484710 103.8246460 150.6616360  20.4174880
 103.8868400 151.2904070  21.7932280 103.4798700 151.2393580  24.5704260
 102.5301410 151.2057120  24.6849250 103.6611710 152.1493690  24.3354030
  89.3343140 149.4895260  13.6802890  90.0434840 149.0678480  13.1950170
  88.6183080 149.5570490  13.0486240  88.9817300 145.5434590  12.7205540
  89.7045430 146.0843530  13.0386760  89.2541820 145.2698010  11.8447080
 102.7908950 150.4127060  16.9877120 103.2868070 150.1797930  17.7726000
 102.5925020 149.5738900  16.5714760  88.6709490 144.7940780  22.6228160
  89.3185680 144.2438160  22.1823320  89.0911330 145.0483930  23.4443970
 104.2196110 149.0488010  19.5214800 104.1095390 148.8944050  20.4597070
 104.9803700 148.5208950  19.2790210 102.5661830 144.9882140  25.9797800
 103.2034050 145.6016280  26.3456990 102.7136720 145.0242800  25.0347030
 105.1086380 146.8795930  12.7620940 106.0335690 146.7477110  12.5539230
 105.0862170 146.9588750  13.7157390 105.1824870 147.6506590  15.3877650
 104.3876370 147.5851710  15.9170560 105.3868150 148.5857230  15.3763000
  88.4241490 144.9496450  25.3653480  88.0756310 145.4060270  26.1311660
  88.0929190 144.0553580  25.4475910  95.9366310 146.1408330  28.8872900
  95.8755200 146.7330160  29.6368310  96.8766690 146.0334290  28.7423160
  98.5740870 145.7978390  28.5265190  99.1881280 146.1157680  27.8646270
  99.1190430 145.3126980  29.1461050  89.0962130 144.4772650  28.6404250
  89.6445120 144.2960700  27.8770360  89.1617440 143.6866760  29.1760560
  99.3148910 144.3610530  24.8534480  98.4408750 144.6945640  24.6507410
  99.2059660 143.8883710  25.6786350 100.2220890 146.5681400  26.2376200
  99.8934250 145.7533160  25.8577930 101.1703190 146.5251210  26.1141890
  97.0623730 145.2780370  23.7927390  96.2795520 145.7525870  24.0724150
  96.7686660 144.3735200  23.6840570 101.6144800 145.9803470  21.8376480
 102.0552890 145.9248570  20.9898080 101.3452390 146.8961480  21.9086660
 103.4783370 145.6118710  19.8485300 103.4171770 144.6679930  19.7016320
 104.2575400 145.7198800  20.3938760  88.4064140 145.5827850  16.3141110
  89.1643500 145.6956730  15.7405140  87.9441310 146.4197050  16.2684540
  94.9477950 147.6967120  19.3043420  94.1352460 147.3224010  18.9639300
  95.4519590 146.9412200  19.6064610  99.4502930 144.3609570  20.5426490
 100.0532300 144.9329780  21.0175010  98.7095920 144.9249010  20.3200390
 102.5937530 144.7631130  15.8166770 102.7888160 145.6614580  16.0834200
 101.8067400 144.5318210  16.3099720  90.7789290 146.1091900  14.8543080
  91.3082050 145.3221700  14.7251030  91.4117610 146.7883090  15.0878610
  92.9727130 145.8467040  17.9088470  92.3429870 145.1454350  18.0758600
  92.4332270 146.6071170  17.6921630  93.0982690 145.1251020  30.3440960
  92.8166960 145.6284620  29.5801780  93.4802390 144.3272770  29.9783090
  99.6998150 144.5404600  30.9221430  99.5863600 144.8599210  31.8172950
 100.5167890 144.9417110  30.6258710  96.7374340 154.3376090   3.1665440
  95.9616440 153.8576530   3.4564010  97.3887270 153.6581740   2.9921600
  90.7540170 154.6495900   4.0441200  89.9225050 154.3944610   4.4437710
  91.3621150 154.7206670   4.7799120  87.1265130 152.2103440   3.7123290
  87.6981240 151.4425640   3.7126930  87.1266670 152.5092200   2.8029900
  88.3690000 147.6187800   5.4992220  88.1892840 146.7213550   5.7794980
  87.9670080 148.1659670   6.1739170  97.2088500 149.8203660   3.4004530
  97.5853320 148.9475540   3.2878200  97.1108010 150.1562360   2.5094970
  88.9876670 150.1148300   4.1074560  89.6686780 150.3786670   4.7261960
  88.6724720 149.2749170   4.4412570  93.1801240 151.1615660   3.1947150
  93.6879460 151.6596630   3.8352170  93.7114480 150.3850860   3.0186510
 105.2812170 149.3320850   6.8976500 104.5764340 149.7202560   6.3791610
 105.5470090 150.0271140   7.4997430  91.4637340 145.8014220   7.4610570
  91.4655780 146.3186610   6.6556470  90.6341650 145.3244400   7.4380500
 101.2274100 149.2554480   3.1060410 100.5229670 149.5439370   3.6863520
 101.5886260 150.0654590   2.7459970  91.1452670 147.5124180   5.4681020
  91.4869480 148.3566230   5.1734890  90.2068480 147.6607920   5.5846360
 104.2961020 148.7009270   3.4969620 103.3485930 148.7348250   3.6285050
 104.6211010 149.5148220   3.8818980 103.7243160 154.0190800   5.5031920
 102.8961790 154.0883890   5.0282050 104.3193640 154.6045110   5.0347750
 100.6885170 150.8060120   6.4486790 100.2756350 151.6313830   6.7026780
  99.9561120 150.2205160   6.2563150  91.5346580 150.3663230   5.0904500
  92.0861170 150.4758570   4.3157750  92.0490090 150.7400830   5.8059730
  91.2089310 153.8882590   8.7009840  91.0697080 154.7605390   9.0697240
  90.3270670 153.5455400   8.5557780 104.2141740 149.8576700  10.3308910
 103.5986010 150.3656370   9.8024370 103.8938160 148.9575030  10.2734850
  91.9886250 145.8300070   2.1935780  91.5454400 146.6109610   1.8620300
  92.5471240 146.1529960   2.9006720  96.2756060 148.6968590   7.7971100
  95.8135430 148.9051610   8.6091040  95.8734170 147.8827940   7.4941770
 101.2760570 149.9177540   8.9267760 100.4254160 149.6183290   9.2476830
 101.1162360 150.1619550   8.0151580  98.3710280 151.4179290  11.0266550
  98.6963690 150.5843040  10.6868780  99.1590610 151.9407810  11.1744880
  94.0262150 146.3747400   4.0525380  94.3234480 147.2810230   3.9717400
  94.5747710 145.8866180   3.4384950  94.2199680 151.8519220  10.5877300
  94.1243280 150.9113950  10.4377700  95.0631660 152.0734290  10.1925370
  89.3510220 148.2632890   8.7411080  88.9573610 149.1108100   8.9483860
  88.6628620 147.6259260   8.9319720  95.9255270 148.3467860  11.8107820
  95.2353590 148.1540060  12.4453910  96.6687570 148.6302500  12.3432120
  86.6527270 146.1861350   2.7741160  86.3640320 146.7564210   3.4866140
  87.3973030 145.7065800   3.1372390  98.2018240 152.1866300   4.6461740
  97.4699360 152.6953110   4.9951840  97.8042580 151.3696280   4.3450520
  94.6395630 148.8620500   3.0514230  94.6431690 148.4210450   2.2018770
  95.5346750 149.1837830   3.1586050  90.4898010 148.7446990   2.0108440
  90.1498060 149.2222220   2.7675490  89.7275330 148.2912110   1.6509540
  98.6644150 147.6399980   4.0584680  98.6816890 148.0908630   4.9026530
  98.4159730 146.7405620   4.2718120 102.0914900 145.0532160   9.8971060
 102.4160670 144.3221820  10.4229040 102.1271410 144.7345800   8.9952050
  94.9403600 152.9222280   4.7979640  95.3073730 152.4480850   5.5440980
  94.7508660 153.7963850   5.1387980  92.7302970 151.9630920   7.1163850
  92.4260040 152.8422900   7.3414210  93.6849430 152.0230710   7.1521290
  88.7866700 152.8033660   8.2635210  88.4281640 153.4687510   8.8508550
  88.4921260 151.9717210   8.6347830  91.9879820 153.2617900  11.1474760
  91.6879960 153.4075080  10.2502580  92.7591060 152.7023190  11.0548150
  87.3615270 146.2926900   8.9407310  86.6473790 146.4923820   9.5459920
  87.7810310 145.5166470   9.3122110  98.8554050 148.7849210   6.6908760
  99.2234870 147.9644420   7.0188330  97.9952250 148.8451100   7.1064410
  95.8156040 151.4388800   6.9146730  96.3141290 151.9134620   7.5798580
  95.9578990 150.5152320   7.1216760 103.0222900 147.6556760   7.7575120
 102.5196500 148.3962160   8.0968930 103.8379560 148.0440760   7.4411910
  87.5144110 153.8349530  10.6829500  88.0183130 153.2556810  11.2545730
  86.7751530 154.1189760  11.2205870  89.5467190 151.9779120  11.5779570
  89.5872530 151.6792990  12.4864800  90.4012690 152.3786730  11.4187090
  91.4873000 150.5571220   9.5454060  90.9569460 150.0662170   8.9177400
  92.1561070 150.9855420   9.0111990 100.8573230 152.3636840  11.3134400
 101.4394000 151.6089160  11.2254880 101.0335000 152.8944280  10.5365880
  91.9745300 147.5233590   9.6251350  91.8802170 146.9054340   8.9002220
  91.3942690 148.2499880   9.3981260  94.7406740 146.0806830   6.6578740
  94.2924040 146.1031090   5.8124290  94.1071940 145.6825850   7.2549040
  97.4830190 152.7077340   8.6629020  97.6026400 152.1118480   9.4023860
  98.3424190 152.7447030   8.2430320  99.8218090 153.2614530   7.2391530
  99.2953310 153.7857150   6.6356670 100.1649430 153.8941920   7.8701260
  94.2498960 149.2498690   9.9204840  94.8398650 148.9414540  10.6082660
  93.4319200 148.7778440  10.0764740  99.0692390 148.8664500  10.1537860
  98.3807910 148.2046040  10.0887850  99.7898410 148.4202770  10.5986320
  88.6153780 153.6083360   5.5943030  88.9826820 153.5210760   6.4739050
  88.0464600 152.8449910   5.4949890 103.4157640 152.0767740   8.6073500
 103.1843730 151.8480490   7.7071450 103.6762190 152.9967290   8.5618390
  88.1669780 150.5192450   9.5001450  87.2725830 150.4859210   9.8395160
  88.7067330 150.7179240  10.2652700 101.8545710 147.3024170  11.3853200
 102.7315890 147.3107570  11.7687200 101.8666550 146.5655010  10.7745550
 103.3008980 151.1553710   2.2741220 103.8246460 150.6616360   1.6431390
 103.8868400 151.2904070   3.0188790 103.4798700 151.2393580   5.7960770
 102.5301410 151.2057120   5.9105760 103.6611710 152.1493690   5.5610540
  88.6709490 144.7940780   3.8484670  89.3185680 144.2438160   3.4079830
  89.0911330 145.0483930   4.6700480 102.5661830 144.9882140   7.2054310
 103.2034050 145.6016280   7.5713500 102.7136720 145.0242800   6.2603540
  88.4241490 144.9496450   6.5909990  88.0756310 145.4060270   7.3568170
  88.0929190 144.0553580   6.6732420  95.9366310 146.1408330  10.1129410
  95.8755200 146.7330160  10.8624820  96.8766690 146.0334290   9.9679670
  98.5740870 145.7978390   9.7521700  99.1881280 146.1157680   9.0902780
  99.1190430 145.3126980  10.3717560  89.0962130 144.4772650   9.8660760
  89.6445120 144.2960700   9.1026870  89.1617440 143.6866760  10.4017070
  99.3148910 144.3610530   6.0790990  98.4408750 144.6945640   5.8763920
  99.2059660 143.8883710   6.9042860 100.2220890 146.5681400   7.4632710
  99.8934250 145.7533160   7.0834440 101.1703190 146.5251210   7.3398400
  97.0623730 145.2780370   5.0183900  96.2795520 145.7525870   5.2980660
  96.7686660 144.3735200   4.9097080 101.6144800 145.9803470   3.0632990
 102.0552890 145.9248570   2.2154590 101.3452390 146.8961480   3.1343170
  99.4502930 144.3609570   1.7683000 100.0532300 144.9329780   2.2431520
  98.7095920 144.9249010   1.5456900  93.0982690 145.1251020  11.5697470
  92.8166960 145.6284620  10.8058290  93.4802390 144.3272770  11.2039600
  99.6998150 144.5404600  12.1477940  99.5863600 144.8599210  13.0429460
 100.5167890 144.9417110  11.8515220  98.6056300 133.7853580 151.4804090
  98.5250350 132.8708190 151.2095800  98.1920720 134.2820650 150.7743800
  96.7374340 135.5632600 153.3613360  95.9616440 135.0833040 153.6511930
  97.3887270 134.8838250 153.1869520 100.7581770 139.9692790 152.1412490
 100.2963300 139.1980030 152.4699660 101.5707320 139.9958860 152.6464940
  90.7341430 139.9092500 154.4347140  91.0369470 139.0190240 154.2557360
  91.4785020 140.4662720 154.2069390  89.1632120 130.8354300 148.0231510
  88.2748820 131.1770270 147.9211390  89.4473310 130.6354620 147.1312340
  87.1265130 133.4359950 153.9071210  87.6981240 132.6682150 153.9074850
  87.1266670 133.7348710 152.9977820  96.9845080 142.2550800 151.7616480
  96.3656520 142.7108300 151.1910920  97.8396860 142.4102260 151.3606180
  96.1783330 138.2389790 153.3683520  96.1091610 137.2979730 153.2072650
  96.9403190 138.3291200 153.9406090  97.2088500 131.0460170 153.5952450
  97.5853320 130.1732050 153.4826120  97.1108010 131.3818870 152.7042890
  91.3393510 129.4185800 149.0569890  91.4460260 130.3189530 149.3638650
  90.4285870 129.3703770 148.7664540 100.9912620 128.5410610 150.5280790
 101.8122240 128.0507180 150.5706270 101.0246700 129.1308270 151.2812630
  93.1801240 132.3872170 153.3895070  93.6879460 132.8853140 154.0300090
  93.7114480 131.6107370 153.2134430  97.8508430 137.1390040 149.1548390
  97.2325700 137.6039490 148.5911110  98.3631680 137.8317520 149.5717900
 101.2274100 130.4810990 153.3008330 100.5229670 130.7695880 153.8811440
 101.5886260 131.2911100 152.9407890  87.2191630 137.8246570 146.5288020
  86.8419610 138.3133670 145.7972920  87.4764700 138.4971850 147.1594550
 104.2961020 129.9265780 153.6917540 103.3485930 129.9604760 153.8232970
 104.6211010 130.7404730 154.0766900  94.8280560 126.2262960 151.9873530
  95.1355540 125.6709850 151.2709030  93.8981260 126.3607420 151.8046520
 100.3795620 141.9430250 154.2780990 100.3922780 141.5392540 153.4103250
  99.8270840 142.7177540 154.1742420 101.6741040 138.6646470 149.3671160
 101.5637370 137.7220800 149.4920580 101.6709290 139.0262110 150.2533920
  97.2161320 134.2911790 148.7233650  96.2890600 134.2249170 148.9522120
  97.3686140 135.2291920 148.6088890  97.2030400 130.5628790 145.7200810
  96.2634070 130.7242750 145.8053270  97.5213660 131.2814470 145.1736800
 101.2458610 135.8532090 149.2268900 100.6271030 135.5151640 148.5795200
 101.2283060 135.2091850 149.9348090  92.8217960 134.8176530 151.5053380
  92.4174960 134.1053780 151.0099280  92.9081080 134.4729770 152.3941420
  93.2899660 138.5044090 153.6692590  92.9927950 137.8989560 152.9900370
  94.2399480 138.5421400 153.5581950  99.4223310 135.0918900 146.2341650
  99.8616590 134.2541330 146.0879470 100.1351730 135.7248300 146.3205790
  97.5318690 140.0314970 150.2022890  97.9714600 140.7739300 149.7878280
  97.4705580 140.2741540 151.1261850 103.0040450 126.3461710 144.5482690
 102.6913110 126.4388540 145.4481760 103.7652920 126.9242740 144.4980120
  89.5222590 133.7121510 149.0060030  89.4020190 134.4383600 148.3941300
  89.2123480 132.9424420 148.5287940  88.4055590 138.5836840 151.2234850
  87.9983670 138.7251430 150.3688450  89.2968600 138.2997000 151.0206060
 100.1988870 143.0184090 147.5585900 100.0390010 142.7287030 148.4567730
 100.0335580 142.2424220 147.0231130  92.6777250 142.7982620 149.3357520
  92.5019730 141.8818160 149.1225320  91.8232990 143.1569910 149.5755320
  99.9015000 140.5271650 146.1183900  99.2080160 140.5248940 145.4586180
 100.6437860 140.1030970 145.6878070  99.4664930 142.1534360 150.1932390
  99.9221880 141.3723740 150.5071010  99.8057450 142.8641180 150.7373570
  91.9886250 127.0556580 152.3883700  91.5454400 127.8366120 152.0568220
  92.5471240 127.3786470 153.0954640  95.1045070 126.6767280 147.2689530
  94.4799250 126.6727150 147.9942840  95.0175190 125.8098240 146.8725500
  94.0262150 127.6003910 154.2473300  94.3234480 128.5066740 154.1665320
  94.5747710 127.1122690 153.6332870  91.7800470 132.1790150 150.1164950
  91.5541390 131.9627320 151.0211570  90.9993000 132.6118610 149.7710920
  99.0098230 132.1853520 148.7155600  98.4107120 132.9089320 148.5319220
  99.5577840 132.1230300 147.9332050  97.6163100 130.8217060 150.7458880
  98.0092670 131.1389260 149.9327570  97.9779950 129.9428940 150.8603400
  86.6527270 127.4117860 152.9689080  86.3640320 127.9820720 153.6814060
  87.3973030 126.9322310 153.3320310  86.8397500 131.3537980 144.1791800
  86.7572170 132.2968740 144.3206790  86.4880560 131.2112890 143.3004150
  94.6395630 130.0877010 153.2462150  94.6431690 129.6466960 152.3966690
  95.5346750 130.4094340 153.3533970  90.4898010 129.9703500 152.2056360
  90.1498060 130.4478730 152.9623410  89.7275330 129.5168620 151.8457460
  94.7015780 131.0889090 146.2368910  94.8228600 131.0475570 147.1854730
  94.3164290 131.9513240 146.0815640  93.7137280 133.3990230 145.6352210
  93.1454180 132.9508480 145.0088120  94.4226280 133.7583010 145.1017360
  87.8044090 128.8922480 151.1221030  87.5191010 128.5278150 151.9599650
  87.7422950 128.1602940 150.5084170  91.2584760 137.3948420 147.9078620
  90.4847020 136.8546040 147.7477340  91.9879390 136.8755030 147.5696380
 102.0172740 136.3913780 153.7005010 102.7371860 136.8869070 153.3101120
 101.8154560 135.7131670 153.0558880  97.4782680 127.7851740 147.8434400
  96.6647290 127.2864910 147.7679710  97.2844630 128.6249990 147.4270750
 100.1931070 132.1571390 146.1396560 101.0810690 132.4688620 145.9647900
 100.1636160 131.2843640 145.7477140  91.3022160 137.0628800 151.5457430
  91.8200830 136.2597060 151.4914320  90.8506180 137.0007940 152.3874260
  96.1891660 138.3295080 146.8184730  96.5307360 139.0737310 146.3228050
  95.3604370 138.6426200 147.1809560 102.4645340 133.4683230 145.6076420
 102.3809060 133.8997450 144.7572860 103.1839530 133.9281580 146.0403240
 103.4932590 140.3225490 148.3358550 102.8508750 139.6681110 148.6102270
 103.1063250 140.7280580 147.5599220  99.0719070 137.6510920 152.1830240
  99.4242890 137.0539050 151.5231610  98.1881400 137.3255150 152.3538490
  95.1582350 138.4108610 149.5900650  95.8453480 138.9577820 149.9708240
  94.3714770 138.9549340 149.6250260  87.2974750 134.0281430 145.0817730
  88.1669600 134.3106230 145.3653650  86.8065070 134.8417300 144.9666540
  94.4609560 135.4154640 149.2026010  94.9172340 136.2259890 149.4286200
  94.1097770 135.0977780 150.0344500  90.3621340 125.7592290 149.6748530
  90.2335970 125.7510190 150.6233450  89.5383360 126.0975380 149.3239540
 101.8829970 139.2141950 144.8734900 101.6567550 138.4972390 145.4659540
 101.4926170 138.9654390 144.0356650  87.6646000 143.2408810 145.6479360
  88.0243640 143.8398150 144.9936630  87.5238340 143.7868700 146.4214390
 101.4646220 137.1313890 146.5349060 101.1767920 137.5926580 147.3226940
 102.2598390 136.6711660 146.8033280  93.6814620 140.6240010 146.4653030
  93.6724720 141.3569700 145.8497540  92.7612980 140.3771590 146.5579990
  89.2821260 135.8454900 147.2099790  88.6749210 136.5853800 147.2195090
  89.7570610 135.9354260 146.3837990 102.2216080 128.9662660 147.6944240
 101.5929240 129.0708330 146.9802470 101.7268000 129.1859440 148.4838120
  96.6674220 140.6868250 145.1278220  96.7686200 140.4832240 144.1980200
  95.7675960 140.4326530 145.3326000  94.1900110 131.2448610 149.1102120
  93.4816260 131.7134950 149.5515730  94.4744590 130.5870620 149.7447310
  98.2215540 127.9699270 150.5497910  98.0983320 127.9885400 149.6007420
  99.1700100 128.0178210 150.6696310  95.3092330 143.2054570 149.8225890
  95.5633830 143.1675960 148.9005260  94.3604810 143.0787900 149.8154140
  92.3935130 129.5533690 146.4852830  93.2425660 129.9903840 146.4193020
  92.0266400 129.8653950 147.3124890 101.3144910 134.1246450 151.3984400
 100.3735050 134.1396680 151.5732090 101.6288980 133.3382410 151.8444700
  91.2926550 135.8066050 144.9588360  92.0589820 135.6947410 145.5213790
  91.3701240 135.1104020 144.3065130  89.9873310 133.2391120 145.6421250
  90.0676900 132.2918630 145.7538650  90.8793060 133.5698000 145.7481910
 103.3170490 141.2955300 153.0738660 103.4417910 142.1186470 153.5462470
 104.1836050 141.0846030 152.7262810  90.7888020 143.3886510 152.7455790
  91.5250500 142.8401970 153.0164360  91.1728940 144.2542520 152.6061780
  87.6733500 139.4560080 148.6197300  86.7473280 139.6981220 148.6102710
  88.1389930 140.2834340 148.4982050  93.8990330 142.5616820 144.5681360
  94.6918940 142.8505650 144.1163150  93.3794680 142.1308990 143.8893840
 102.9520500 141.7886950 145.9918100 102.6662010 141.3752090 145.1772280
 102.7540050 142.7174660 145.8718620  94.4167730 137.7820230 144.4323710
  94.3118370 137.1672580 145.1585090  94.2491950 137.2586120 143.6486720
  97.6570460 136.8440260 145.0365700  97.1080560 137.2909560 145.6808440
  98.2789720 136.3389510 145.5603370  93.3245580 135.8031180 146.9331000
  93.7462000 135.6371050 147.7762390  93.4496420 134.9931410 146.4386140
  95.8373220 134.8268790 144.1808100  96.3578880 134.1117810 143.8149250
  96.4841620 135.4654660 144.4808610  92.2204480 131.8764410 143.8789160
  92.0193540 131.0131770 144.2402500  92.0496530 131.7897770 142.9410760
  99.6992790 126.6872640 146.4076040  99.9795080 125.8440540 146.7635460
  98.9258520 126.9195750 146.9214790  91.0187280 128.9765030 143.8667040
  91.3213180 128.9832460 142.9586190  91.7581870 128.6262890 144.3634700
  94.2372210 127.9199650 144.8523240  93.8894210 127.2423640 144.2725690
  94.4384980 127.4589160 145.6666630  96.4021250 142.9080400 146.4709840
  97.2972040 143.2465370 146.4928600  96.4338880 142.1859810 145.8434120
  90.0417410 138.2807450 144.6996840  90.4792280 138.8237120 145.3554420
  90.5265140 137.4554400 144.7093180  87.2563210 141.0696480 152.1517100
  87.5866220 140.2017540 151.9195740  87.6854210 141.2755000 152.9822060
  91.8525130 139.4005490 149.8119070  91.5520670 139.2770460 150.7122980
  91.7462620 138.5414080 149.4034800 104.6217050 139.1801890 144.5145750
 103.7910010 139.2478540 144.9852980 104.7988880 140.0706010 144.2112610
 104.0773510 135.9249370 147.0179950 104.8392420 136.4946020 147.1239640
 104.0927880 135.3576570 147.7888260  87.5777850 134.4487300 151.2487610
  86.9226690 134.1798940 150.6047310  88.4155800 134.3391780 150.7989590
 105.0833480 136.7799470 151.8621880 105.4542310 135.9966790 151.4557850
 105.7235410 137.4688570 151.6839180 104.1292680 136.2183740 144.1752470
 104.4041520 137.1262620 144.0471690 103.9403420 136.1546270 145.1114460
 100.5268290 129.2428590 145.4706100 100.9453170 129.0559570 144.6302760
 100.2204350 128.3907640 145.7809030 104.0258020 134.1552730 149.1681900
 103.6501620 133.3880660 148.7363190 103.2961140 134.5375430 149.6556830
  86.7915930 131.6586230 147.1912940  85.8880010 131.9216430 147.0164600
  87.2756550 131.9297400 146.4112900 103.3008980 132.3810220 152.4689140
 103.8246460 131.8872870 151.8379310 103.8868400 132.5160580 153.2136710
  89.3343140 130.7151770 145.1007320  90.0434840 130.2934990 144.6154600
  88.6183080 130.7827000 144.4690670  88.9817300 126.7691100 144.1409970
  89.7045430 127.3100040 144.4591190  89.2541820 126.4954520 143.2651510
 102.7908950 131.6383570 148.4081550 103.2868070 131.4054440 149.1930430
 102.5925020 130.7995410 147.9919190 104.2196110 130.2744520 150.9419230
 104.1095390 130.1200560 151.8801500 104.9803700 129.7465460 150.6994640
 105.1086380 128.1052440 144.1825370 106.0335690 127.9733620 143.9743660
 105.0862170 128.1845260 145.1361820 105.1824870 128.8763100 146.8082080
 104.3876370 128.8108220 147.3374990 105.3868150 129.8113740 146.7967430
 102.1243290 142.9154650 150.8020470 102.7202360 142.5939220 150.1254890
 102.3821440 142.4426470 151.5933740  93.1051220 141.8738190 153.8066330
  93.6216240 141.2625550 153.2814590  93.7548600 142.3766970 154.2977340
 101.6144800 127.2059980 153.2580910 102.0552890 127.1505080 152.4102510
 101.3452390 128.1217990 153.3291090 103.4783370 126.8375220 151.2689730
 103.4171770 125.8936440 151.1220750 104.2575400 126.9455310 151.8143190
  87.7836120 142.9767580 150.2313680  87.6158160 142.3438260 150.9295570
  86.9170630 143.1826980 149.8807870  88.4064140 126.8084360 147.7345540
  89.1643500 126.9213240 147.1609570  87.9441310 127.6453560 147.6888970
  94.9477950 128.9223630 150.7247850  94.1352460 128.5480520 150.3843730
  95.4519590 128.1668710 151.0269040  99.4502930 125.5866080 151.9630920
 100.0532300 126.1586290 152.4379440  98.7095920 126.1505520 151.7404820
 102.5937530 125.9887640 147.2371200 102.7888160 126.8871090 147.5038630
 101.8067400 125.7574720 147.7304150  89.3898820 141.6700810 147.6763820
  88.8646440 142.0508840 146.9725780  89.3143400 142.2951580 148.3973530
  90.7789290 127.3348410 146.2747510  91.3082050 126.5478210 146.1455460
  91.4117610 128.0139600 146.5083040  92.9727130 127.0723550 149.3292900
  92.3429870 126.3710860 149.4963030  92.4332270 127.8327680 149.1126060
 104.1464140 143.2288350 148.9977760 104.3216330 142.5426090 148.3538680
 103.4485710 143.7535400 148.6054430  91.9891790 143.6183190 146.5513070
  92.7210610 143.3342470 146.0036960  92.2485460 143.3796470 147.4412450
  91.1506580 139.7347920 146.5559400  90.5215460 140.2033020 147.1045230
  91.2654410 138.8897140 146.9905590  98.6056300 133.7853580 132.7060600
  98.5250350 132.8708190 132.4352310  98.1920720 134.2820650 132.0000310
  96.7374340 135.5632600 134.5869870  95.9616440 135.0833040 134.8768440
  97.3887270 134.8838250 134.4126030  90.7540170 135.8752410 135.4645630
  89.9225050 135.6201120 135.8642140  91.3621150 135.9463180 136.2003550
 100.7581770 139.9692790 133.3669000 100.2963300 139.1980030 133.6956170
 101.5707320 139.9958860 133.8721450  90.7341430 139.9092500 135.6603650
  91.0369470 139.0190240 135.4813870  91.4785020 140.4662720 135.4325900
  89.1632120 130.8354300 129.2488020  88.2748820 131.1770270 129.1467900
  89.4473310 130.6354620 128.3568850  87.1265130 133.4359950 135.1327720
  87.6981240 132.6682150 135.1331360  87.1266670 133.7348710 134.2234330
  96.9845080 142.2550800 132.9872990  96.3656520 142.7108300 132.4167430
  97.8396860 142.4102260 132.5862690  96.1783330 138.2389790 134.5940030
  96.1091610 137.2979730 134.4329160  96.9403190 138.3291200 135.1662600
  88.3690000 128.8444310 136.9196650  88.1892840 127.9470060 137.1999410
  87.9670080 129.3916180 137.5943600  97.2088500 131.0460170 134.8208960
  97.5853320 130.1732050 134.7082630  97.1108010 131.3818870 133.9299400
  91.3393510 129.4185800 130.2826400  91.4460260 130.3189530 130.5895160
  90.4285870 129.3703770 129.9921050 100.9912620 128.5410610 131.7537300
 101.8122240 128.0507180 131.7962780 101.0246700 129.1308270 132.5069140
  88.9876670 131.3404810 135.5278990  89.6686780 131.6043180 136.1466390
  88.6724720 130.5005680 135.8617000  93.1801240 132.3872170 134.6151580
  93.6879460 132.8853140 135.2556600  93.7114480 131.6107370 134.4390940
 105.2812170 130.5577360 138.3180930 104.5764340 130.9459070 137.7996040
 105.5470090 131.2527650 138.9201860  91.4637340 127.0270730 138.8815000
  91.4655780 127.5443120 138.0760900  90.6341650 126.5500910 138.8584930
  97.8508430 137.1390040 130.3804900  97.2325700 137.6039490 129.8167620
  98.3631680 137.8317520 130.7974410  92.7140190 136.6665910 137.0588500
  92.3809570 137.2934830 137.7009570  92.8906870 137.1927790 136.2790170
 101.2274100 130.4810990 134.5264840 100.5229670 130.7695880 135.1067950
 101.5886260 131.2911100 134.1664400  91.1452670 128.7380690 136.8885450
  91.4869480 129.5822740 136.5939320  90.2068480 128.8864430 137.0050790
  91.9259290 138.6346710 138.8737680  92.5433290 139.3097790 138.5922130
  91.0652410 139.0434690 138.7825180  87.2191630 137.8246570 127.7544530
  86.8419610 138.3133670 127.0229430  87.4764700 138.4971850 128.3851060
 102.8436880 140.0986120 136.7892320 102.1600400 140.7685230 136.7808990
 103.3831170 140.2966770 136.0237180 104.2961020 129.9265780 134.9174050
 103.3485930 129.9604760 135.0489480 104.6211010 130.7404730 135.3023410
  94.8280560 126.2262960 133.2130040  95.1355540 125.6709850 132.4965540
  93.8981260 126.3607420 133.0303030 100.3795620 141.9430250 135.5037500
 100.3922780 141.5392540 134.6359760  99.8270840 142.7177540 135.3998930
 101.6741040 138.6646470 130.5927670 101.5637370 137.7220800 130.7177090
 101.6709290 139.0262110 131.4790430  99.7781060 136.8460090 136.8320110
 100.1949850 136.6320200 135.9973570 100.5020880 137.1032880 137.4028730
  97.2161320 134.2911790 129.9490160  96.2890600 134.2249170 130.1778630
  97.3686140 135.2291920 129.8345400  97.2030400 130.5628790 126.9457320
  96.2634070 130.7242750 127.0309780  97.5213660 131.2814470 126.3993310
 103.7243160 135.2447310 136.9236350 102.8961790 135.3140400 136.4486480
 104.3193640 135.8301620 136.4552180 101.2458610 135.8532090 130.4525410
 100.6271030 135.5151640 129.8051710 101.2283060 135.2091850 131.1604600
 100.6885170 132.0316630 137.8691220 100.2756350 132.8570340 138.1231210
  99.9561120 131.4461670 137.6767580  92.8217960 134.8176530 132.7309890
  92.4174960 134.1053780 132.2355790  92.9081080 134.4729770 133.6197930
  93.2899660 138.5044090 134.8949100  92.9927950 137.8989560 134.2156880
  94.2399480 138.5421400 134.7838460  91.5346580 131.5919740 136.5108930
  92.0861170 131.7015080 135.7362180  92.0490090 131.9657340 137.2264160
 101.3785270 142.0775960 138.5572200 100.9015830 142.8848150 138.3644810
 100.6947060 141.4254290 138.7098410  92.3818090 138.2425780 141.5456900
  91.4846620 138.4665750 141.7930300  92.4070960 138.3660720 140.5968300
  99.4223310 135.0918900 127.4598160  99.8616590 134.2541330 127.3135980
 100.1351730 135.7248300 127.5462300  91.2089310 135.1139100 140.1214270
  91.0697080 135.9861900 140.4901670  90.3270670 134.7711910 139.9762210
  97.5318690 140.0314970 131.4279400  97.9714600 140.7739300 131.0134790
  97.4705580 140.2741540 132.3518360  93.0069660 141.0560800 142.3299420
  92.9785090 141.4603750 141.4627850  92.8434630 140.1271160 142.1671020
 103.0040450 126.3461710 125.7739200 102.6913110 126.4388540 126.6738270
 103.7652920 126.9242740 125.7236630  89.5222590 133.7121510 130.2316540
  89.4020190 134.4383600 129.6197810  89.2123480 132.9424420 129.7544450
 104.9584480 141.8387900 143.6263590 105.4344200 142.3170790 144.3052670
 105.5791640 141.7705390 142.9009090  87.1607960 136.8836650 136.0385180
  87.2388380 137.0185420 135.0940900  87.7749640 136.1752540 136.2313300
  88.4055590 138.5836840 132.4491360  87.9983670 138.7251430 131.5944960
  89.2968600 138.2997000 132.2462570 104.3617730 139.0300750 140.7863600
 104.4880790 138.7912630 139.8680780 104.4039110 138.1985290 141.2585680
  98.2234470 142.7328750 139.3558410  98.7379140 142.6436760 140.1580840
  97.3803550 143.0788450 139.6486320 100.1988870 143.0184090 128.7842410
 100.0390010 142.7287030 129.6824240 100.0335580 142.2424220 128.2487640
  92.6777250 142.7982620 130.5614030  92.5019730 141.8818160 130.3481830
  91.8232990 143.1569910 130.8011830  99.9015000 140.5271650 127.3440410
  99.2080160 140.5248940 126.6842690 100.6437860 140.1030970 126.9134580
  99.4664930 142.1534360 131.4188900  99.9221880 141.3723740 131.7327520
  99.8057450 142.8641180 131.9630080 104.2141740 131.0833210 141.7513340
 103.5986010 131.5912880 141.2228800 103.8938160 130.1831540 141.6939280
  87.2167480 137.9250820 138.5779640  87.3798520 137.4556180 137.7599010
  87.6819930 137.4174380 139.2428480  91.9886250 127.0556580 133.6140210
  91.5454400 127.8366120 133.2824730  92.5471240 127.3786470 134.3211150
  96.2756060 129.9225100 139.2175530  95.8135430 130.1308120 140.0295470
  95.8734170 129.1084450 138.9146200 101.2760570 131.1434050 140.3472190
 100.4254160 130.8439800 140.6681260 101.1162360 131.3876060 139.4356010
  98.3710280 132.6435800 142.4470980  98.6963690 131.8099550 142.1073210
  99.1590610 133.1664320 142.5949310  95.1045070 126.6767280 128.4946040
  94.4799250 126.6727150 129.2199350  95.0175190 125.8098240 128.0982010
  94.0262150 127.6003910 135.4729810  94.3234480 128.5066740 135.3921830
  94.5747710 127.1122690 134.8589380  91.7800470 132.1790150 131.3421460
  91.5541390 131.9627320 132.2468080  90.9993000 132.6118610 130.9967430
  99.0098230 132.1853520 129.9412110  98.4107120 132.9089320 129.7575730
  99.5577840 132.1230300 129.1588560  94.2199680 133.0775730 142.0081730
  94.1243280 132.1370460 141.8582130  95.0631660 133.2990800 141.6129800
  97.6163100 130.8217060 131.9715390  98.0092670 131.1389260 131.1584080
  97.9779950 129.9428940 132.0859910  89.3510220 129.4889400 140.1615510
  88.9573610 130.3364610 140.3688290  88.6628620 128.8515770 140.3524150
  95.9255270 129.5724370 143.2312250  95.2353590 129.3796570 143.8658340
  96.6687570 129.8559010 143.7636550  86.6527270 127.4117860 134.1945590
  86.3640320 127.9820720 134.9070570  87.3973030 126.9322310 134.5576820
  86.8397500 131.3537980 125.4048310  86.7572170 132.2968740 125.5463300
  86.4880560 131.2112890 124.5260660  98.2018240 133.4122810 136.0666170
  97.4699360 133.9209620 136.4156270  97.8042580 132.5952790 135.7654950
  94.6395630 130.0877010 134.4718660  94.6431690 129.6466960 133.6223200
  95.5346750 130.4094340 134.5790480  90.4898010 129.9703500 133.4312870
  90.1498060 130.4478730 134.1879920  89.7275330 129.5168620 133.0713970
  94.7015780 131.0889090 127.4625420  94.8228600 131.0475570 128.4111240
  94.3164290 131.9513240 127.3072150  98.6644150 128.8656490 135.4789110
  98.6816890 129.3165140 136.3230960  98.4159730 127.9662130 135.6922550
  93.7137280 133.3990230 126.8608720  93.1454180 132.9508480 126.2344630
  94.4226280 133.7583010 126.3273870 102.0914900 126.2788670 141.3175490
 102.4160670 125.5478330 141.8433470 102.1271410 125.9602310 140.4156480
  88.7906460 137.3002250 140.7375450  88.4061250 136.6595920 141.3358410
  89.1018650 138.0038370 141.3070180  94.9403600 134.1478790 136.2184070
  95.3073730 133.6737360 136.9645410  94.7508660 135.0220360 136.5592410
  87.8044090 128.8922480 132.3477540  87.5191010 128.5278150 133.1856160
  87.7422950 128.1602940 131.7340680  92.7302970 133.1887430 138.5368280
  92.4260040 134.0679410 138.7618640  93.6849430 133.2487220 138.5725720
  91.2584760 137.3948420 129.1335130  90.4847020 136.8546040 128.9733850
  91.9879390 136.8755030 128.7952890 102.0172740 136.3913780 134.9261520
 102.7371860 136.8869070 134.5357630 101.8154560 135.7131670 134.2815390
  97.4782680 127.7851740 129.0690910  96.6647290 127.2864910 128.9936220
  97.2844630 128.6249990 128.6527260  97.3991540 136.4622840 140.8130520
  97.3328850 135.5418510 140.5588110  96.7696680 136.5598280 141.5275160
 100.1931070 132.1571390 127.3653070 101.0810690 132.4688620 127.1904410
 100.1636160 131.2843640 126.9733650  91.3022160 137.0628800 132.7713940
  91.8200830 136.2597060 132.7170830  90.8506180 137.0007940 133.6130770
  96.1891660 138.3295080 128.0441240  96.5307360 139.0737310 127.5484560
  95.3604370 138.6426200 128.4066070  88.7866700 134.0290170 139.6839640
  88.4281640 134.6944020 140.2712980  88.4921260 133.1973720 140.0552260
  91.9879820 134.4874410 142.5679190  91.6879960 134.6331590 141.6707010
  92.7591060 133.9279700 142.4752580  97.3308270 139.2843410 140.5634320
  97.3452810 138.3524370 140.3453230  96.6233370 139.3703170 141.2024090
 102.4645340 133.4683230 126.8332930 102.3809060 133.8997450 125.9829370
 103.1839530 133.9281580 127.2659750 103.5419480 135.9250750 139.9102900
 102.8167670 136.5179530 139.7132290 104.0694940 135.9174290 139.1116270
 103.4932590 140.3225490 129.5615060 102.8508750 139.6681110 129.8358780
 103.1063250 140.7280580 128.7855730  99.0719070 137.6510920 133.4086750
  99.4242890 137.0539050 132.7488120  98.1881400 137.3255150 133.5795000
  95.1582350 138.4108610 130.8157160  95.8453480 138.9577820 131.1964750
  94.3714770 138.9549340 130.8506770  87.2974750 134.0281430 126.3074240
  88.1669600 134.3106230 126.5910160  86.8065070 134.8417300 126.1923050
  94.4609560 135.4154640 130.4282520  94.9172340 136.2259890 130.6542710
  94.1097770 135.0977780 131.2601010  96.7642170 140.9260980 137.6574820
  97.4084390 141.1320360 138.3348240  97.1271610 140.1649380 137.2045670
  90.3621340 125.7592290 130.9005040  90.2335970 125.7510190 131.8489960
  89.5383360 126.0975380 130.5496050  98.0374250 138.9293330 136.3752270
  98.6796480 138.2286490 136.4884440  98.5623600 139.7091770 136.1949160
 101.8829970 139.2141950 126.0991410 101.6567550 138.4972390 126.6916050
 101.4926170 138.9654390 125.2613160  99.8111870 139.7288230 139.5788330
 100.1468110 140.3154920 140.2566250  98.8912210 139.5980940 139.8086120
  87.6646000 143.2408810 126.8735870  88.0243640 143.8398150 126.2193140
  87.5238340 143.7868700 127.6470900  87.3615270 127.5183410 140.3611740
  86.6473790 127.7180330 140.9664350  87.7810310 126.7422980 140.7326540
 101.4646220 137.1313890 127.7605570 101.1767920 137.5926580 128.5483450
 102.2598390 136.6711660 128.0289790  87.6487860 141.5063670 141.3478270
  87.7578980 140.5658410 141.2073660  86.9968420 141.7718420 140.6992000
  95.6400450 139.7779560 142.7476390  95.3197320 139.0588800 143.2922080
  94.9658810 140.4534630 142.8212450  93.6814620 140.6240010 127.6909540
  93.6724720 141.3569700 127.0754050  92.7612980 140.3771590 127.7836500
  89.2821260 135.8454900 128.4356300  88.6749210 136.5853800 128.4451600
  89.7570610 135.9354260 127.6094500  98.8554050 130.0105720 138.1113190
  99.2234870 129.1900930 138.4392760  97.9952250 130.0707610 138.5268840
 102.2216080 128.9662660 128.9200750 101.5929240 129.0708330 128.2058980
 101.7268000 129.1859440 129.7094630  96.6674220 140.6868250 126.3534730
  96.7686200 140.4832240 125.4236710  95.7675960 140.4326530 126.5582510
  94.1900110 131.2448610 130.3358630  93.4816260 131.7134950 130.7772240
  94.4744590 130.5870620 130.9703820  95.8156040 132.6645310 138.3351160
  96.3141290 133.1391130 139.0003010  95.9578990 131.7408830 138.5421190
  98.2215540 127.9699270 131.7754420  98.0983320 127.9885400 130.8263930
  99.1700100 128.0178210 131.8952820  95.3092330 143.2054570 131.0482400
  95.5633830 143.1675960 130.1261770  94.3604810 143.0787900 131.0410650
  92.3935130 129.5533690 127.7109340  93.2425660 129.9903840 127.6449530
  92.0266400 129.8653950 128.5381400 103.0222900 128.8813270 139.1779550
 102.5196500 129.6218670 139.5173360 103.8379560 129.2697270 138.8616340
 101.3144910 134.1246450 132.6240910 100.3735050 134.1396680 132.7988600
 101.6288980 133.3382410 133.0701210  91.2926550 135.8066050 126.1844870
  92.0589820 135.6947410 126.7470300  91.3701240 135.1104020 125.5321640
  89.9873310 133.2391120 126.8677760  90.0676900 132.2918630 126.9795160
  90.8793060 133.5698000 126.9738420 103.3170490 141.2955300 134.2995170
 103.4417910 142.1186470 134.7718980 104.1836050 141.0846030 133.9519320
  90.7888020 143.3886510 133.9712300  91.5250500 142.8401970 134.2420870
  91.1728940 144.2542520 133.8318290  87.6733500 139.4560080 129.8453810
  86.7473280 139.6981220 129.8359220  88.1389930 140.2834340 129.7238560
  89.7946300 142.5732580 143.1597880  90.5959030 142.8944630 143.5733280
  89.2798120 142.2128160 143.8817790  93.8990330 142.5616820 125.7937870
  94.6918940 142.8505650 125.3419660  93.3794680 142.1308990 125.1150350
  98.6310930 138.6812450 143.1073290  98.0249090 138.7044050 142.3669040
  98.3265040 137.9495490 143.6440540 100.0611300 142.4092740 141.7182700
 101.0133050 142.3250760 141.6682940  99.9139520 143.0734450 142.3916490
 102.9520500 141.7886950 127.2174610 102.6662010 141.3752090 126.4028790
 102.7540050 142.7174660 127.0975130  87.5144110 135.0606040 142.1033930
  88.0183130 134.4813320 142.6750160  86.7751530 135.3446270 142.6410300
  94.4167730 137.7820230 125.6580220  94.3118370 137.1672580 126.3841600
  94.2491950 137.2586120 124.8743230  94.5682050 136.4677030 141.6369450
  93.8027720 137.0362030 141.5524120  94.7498010 136.1753240 140.7437680
  97.6570460 136.8440260 126.2622210  97.1080560 137.2909560 126.9064950
  98.2789720 136.3389510 126.7859880 101.7105400 138.1982360 142.1944470
 102.4514870 138.5358120 141.6911930 100.9478080 138.3674420 141.6414240
  89.5467190 133.2035630 142.9984000  89.5872530 132.9049500 143.9069230
  90.4012690 133.6043240 142.8391520  93.3245580 135.8031180 128.1587510
  93.7462000 135.6371050 129.0018900  93.4496420 134.9931410 127.6642650
  91.4873000 131.7827730 140.9658490  90.9569460 131.2918680 140.3381830
  92.1561070 132.2111930 140.4316420  95.8373220 134.8268790 125.4064610
  96.3578880 134.1117810 125.0405760  96.4841620 135.4654660 125.7065120
 100.3851060 136.2497190 140.7299680 100.7992080 136.4042270 141.5790100
  99.4502060 136.3752410 140.8925460 100.8573230 133.5893350 142.7338830
 101.4394000 132.8345670 142.6459310 101.0335000 134.1200790 141.9570310
  91.9745300 128.7490100 141.0455780  91.8802170 128.1310850 140.3206650
  91.3942690 129.4756390 140.8185690  94.7406740 127.3063340 138.0783170
  94.2924040 127.3287600 137.2328720  94.1071940 126.9082360 138.6753470
  95.1466290 136.2017670 138.6995610  95.5654400 137.0450400 138.5271850
  94.2274920 136.3389710 138.4702390  97.4830190 133.9333850 140.0833450
  97.6026400 133.3374990 140.8228290  98.3424190 133.9703540 139.6634750
  99.8218090 134.4871040 138.6595960  99.2953310 135.0113660 138.0561100
 100.1649430 135.1198430 139.2905690  92.2204480 131.8764410 125.1045670
  92.0193540 131.0131770 125.4659010  92.0496530 131.7897770 124.1667270
  92.9973710 142.5070680 139.8153340  92.4594800 143.2316740 139.4962040
  93.2507670 142.0301020 139.0250680  94.2498960 130.4755200 141.3409270
  94.8398650 130.1671050 142.0287090  93.4319200 130.0034950 141.4969170
  99.0692390 130.0921010 141.5742290  98.3807910 129.4302550 141.5092280
  99.7898410 129.6459280 142.0190750  99.6992790 126.6872640 127.6332550
  99.9795080 125.8440540 127.9891970  98.9258520 126.9195750 128.1471300
  91.0187280 128.9765030 125.0923550  91.3213180 128.9832460 124.1842700
  91.7581870 128.6262890 125.5891210  95.8535920 143.7421890 140.0739990
  95.7794620 144.6457030 140.3812360  94.9514760 143.4233790 140.0462060
  94.2372210 127.9199650 126.0779750  93.8894210 127.2423640 125.4982200
  94.4384980 127.4589160 126.8923140  96.4021250 142.9080400 127.6966350
  97.2972040 143.2465370 127.7185110  96.4338880 142.1859810 127.0690630
  90.0417410 138.2807450 125.9253350  90.4792280 138.8237120 126.5810930
  90.5265140 137.4554400 125.9349690  87.2563210 141.0696480 133.3773610
  87.5866220 140.2017540 133.1452250  87.6854210 141.2755000 134.2078570
  91.8525130 139.4005490 131.0375580  91.5520670 139.2770460 131.9379490
  91.7462620 138.5414080 130.6291310  87.7453420 141.9367070 136.1155240
  87.3084410 142.1167870 136.9479390  88.3131100 142.6941690 135.9736960
 103.3815600 141.4384070 140.4032550 102.7817590 141.4976630 139.6596470
 103.5109500 140.4989050 140.5329400 104.6217050 139.1801890 125.7402260
 103.7910010 139.2478540 126.2109490 104.7988880 140.0706010 125.4369120
 104.0773510 135.9249370 128.2436460 104.8392420 136.4946020 128.3496150
 104.0927880 135.3576570 129.0144770  87.5777850 134.4487300 132.4744120
  86.9226690 134.1798940 131.8303820  88.4155800 134.3391780 132.0246100
 105.0833480 136.7799470 133.0878390 105.4542310 135.9966790 132.6814360
 105.7235410 137.4688570 132.9095690 102.0667240 138.1636050 138.5008710
 101.2527080 138.5933210 138.7634500 102.4741440 138.7754460 137.8877760
 104.1292680 136.2183740 125.4008980 104.4041520 137.1262620 125.2728200
 103.9403420 136.1546270 126.3370970 100.5268290 129.2428590 126.6962610
 100.9453170 129.0559570 125.8559270 100.2204350 128.3907640 127.0065540
 104.0258020 134.1552730 130.3938410 103.6501620 133.3880660 129.9619700
 103.2961140 134.5375430 130.8813340  88.6153780 134.8339870 137.0147460
  88.9826820 134.7467270 137.8943480  88.0464600 134.0706420 136.9154320
 103.4157640 133.3024250 140.0277930 103.1843730 133.0737000 139.1275880
 103.6762190 134.2223800 139.9822820  88.1669780 131.7448960 140.9205880
  87.2725830 131.7115720 141.2599590  88.7067330 131.9435750 141.6857130
 101.8545710 128.5280680 142.8057630 102.7315890 128.5364080 143.1891630
 101.8666550 127.7911520 142.1949980  86.7915930 131.6586230 128.4169450
  85.8880010 131.9216430 128.2421110  87.2756550 131.9297400 127.6369410
 103.3008980 132.3810220 133.6945650 103.8246460 131.8872870 133.0635820
 103.8868400 132.5160580 134.4393220 103.4798700 132.4650090 137.2165200
 102.5301410 132.4313630 137.3310190 103.6611710 133.3750200 136.9814970
  89.3343140 130.7151770 126.3263830  90.0434840 130.2934990 125.8411110
  88.6183080 130.7827000 125.6947180  88.9817300 126.7691100 125.3666480
  89.7045430 127.3100040 125.6847700  89.2541820 126.4954520 124.4908020
 102.7908950 131.6383570 129.6338060 103.2868070 131.4054440 130.4186940
 102.5925020 130.7995410 129.2175700  88.6709490 126.0197290 135.2689100
  89.3185680 125.4694670 134.8284260  89.0911330 126.2740440 136.0904910
 104.2196110 130.2744520 132.1675740 104.1095390 130.1200560 133.1058010
 104.9803700 129.7465460 131.9251150 102.5661830 126.2138650 138.6258740
 103.2034050 126.8272790 138.9917930 102.7136720 126.2499310 137.6807970
 105.1086380 128.1052440 125.4081880 106.0335690 127.9733620 125.2000170
 105.0862170 128.1845260 126.3618330 105.1824870 128.8763100 128.0338590
 104.3876370 128.8108220 128.5631500 105.3868150 129.8113740 128.0223940
 102.1243290 142.9154650 132.0276980 102.7202360 142.5939220 131.3511400
 102.3821440 142.4426470 132.8190250  88.4241490 126.1752960 138.0114420
  88.0756310 126.6316780 138.7772600  88.0929190 125.2810090 138.0936850
  90.0305860 139.3472560 142.1767610  89.9875490 138.9765470 143.0582070
  90.1616870 140.2850130 142.3169430  93.7311890 140.9032150 137.7777330
  93.4903250 141.1706710 136.8907850  94.6714530 141.0737880 137.8328190
  95.9366310 127.3664840 141.5333840  95.8755200 127.9586670 142.2829250
  96.8766690 127.2590800 141.3884100  98.5740870 127.0234900 141.1726130
  99.1881280 127.3414190 140.5107210  99.1190430 126.5383490 141.7921990
 104.9916050 142.9226530 138.5787970 104.4974330 143.3195400 137.8615100
 104.3829340 142.2975740 138.9725250  89.0962130 125.7029160 141.2865190
  89.6445120 125.5217210 140.5231300  89.1617440 124.9123270 141.8221500
  89.8693890 142.2934810 139.2965390  89.2754210 142.1619510 140.0355430
  89.8617730 141.4572950 138.8307490  99.3148910 125.5867040 137.4995420
  98.4408750 125.9202150 137.2968350  99.2059660 125.1140220 138.3247290
 100.2220890 127.7937910 138.8837140  99.8934250 126.9789670 138.5038870
 101.1703190 127.7507720 138.7602830 102.6755500 143.5649950 135.8574710
 102.2158470 144.3165760 135.4832730 102.0467960 142.8456420 135.7989510
  89.5006120 139.6593190 138.2473430  88.7740180 139.0398480 138.1799380
  89.5615270 140.0533800 137.3771510  93.1051220 141.8738190 135.0322840
  93.6216240 141.2625550 134.5071100  93.7548600 142.3766970 135.5233850
  95.8446720 142.7646680 135.8591820  96.1324530 142.5100980 134.9824830
  96.3569940 142.2124040 136.4497390  97.0623730 126.5036880 136.4388330
  96.2795520 126.9782380 136.7185090  96.7686660 125.5991710 136.3301510
 101.6144800 127.2059980 134.4837420 102.0552890 127.1505080 133.6359020
 101.3452390 128.1217990 134.5547600 103.4783370 126.8375220 132.4946240
 103.4171770 125.8936440 132.3477260 104.2575400 126.9455310 133.0399700
  87.7836120 142.9767580 131.4570190  87.6158160 142.3438260 132.1552080
  86.9170630 143.1826980 131.1064380  88.4064140 126.8084360 128.9602050
  89.1643500 126.9213240 128.3866080  87.9441310 127.6453560 128.9145480
  94.9477950 128.9223630 131.9504360  94.1352460 128.5480520 131.6100240
  95.4519590 128.1668710 132.2525550  99.4502930 125.5866080 133.1887430
 100.0532300 126.1586290 133.6635950  98.7095920 126.1505520 132.9661330
 102.5937530 125.9887640 128.4627710 102.7888160 126.8871090 128.7295140
 101.8067400 125.7574720 128.9560660  89.3898820 141.6700810 128.9020330
  88.8646440 142.0508840 128.1982290  89.3143400 142.2951580 129.6230040
  90.7789290 127.3348410 127.5004020  91.3082050 126.5478210 127.3711970
  91.4117610 128.0139600 127.7339550  92.9727130 127.0723550 130.5549410
  92.3429870 126.3710860 130.7219540  92.4332270 127.8327680 130.3382570
  95.9119080 143.6862780 143.2260020  96.8386390 143.4507050 143.2695980
  95.8969510 144.5134780 142.7446050 104.1464140 143.2288350 130.2234270
 104.3216330 142.5426090 129.5795190 103.4485710 143.7535400 129.8310940
  93.0982690 126.3507530 142.9901900  92.8166960 126.8541130 142.2262720
  93.4802390 125.5529280 142.6244030  91.9891790 143.6183190 127.7769580
  92.7210610 143.3342470 127.2293470  92.2485460 143.3796470 128.6668960
  91.1506580 139.7347920 127.7815910  90.5215460 140.2033020 128.3301740
  91.2654410 138.8897140 128.2162100  99.6998150 125.7661110 143.5682370
  99.5863600 126.0855720 144.4633890 100.5167890 126.1673620 143.2719650
 102.4796640 142.9132640 143.0501060 103.2721960 142.4181870 142.8427020
 102.7729790 143.5922780 143.6576670  98.6056300 133.7853580 113.9317110
  98.5250350 132.8708190 113.6608820  98.1920720 134.2820650 113.2256820
  96.7374340 135.5632600 115.8126380  95.9616440 135.0833040 116.1024950
  97.3887270 134.8838250 115.6382540  90.7540170 135.8752410 116.6902140
  89.9225050 135.6201120 117.0898650  91.3621150 135.9463180 117.4260060
 100.7581770 139.9692790 114.5925510 100.2963300 139.1980030 114.9212680
 101.5707320 139.9958860 115.0977960  90.7341430 139.9092500 116.8860160
  91.0369470 139.0190240 116.7070380  91.4785020 140.4662720 116.6582410
  89.1632120 130.8354300 110.4744530  88.2748820 131.1770270 110.3724410
  89.4473310 130.6354620 109.5825360  87.1265130 133.4359950 116.3584230
  87.6981240 132.6682150 116.3587870  87.1266670 133.7348710 115.4490840
  96.9845080 142.2550800 114.2129500  96.3656520 142.7108300 113.6423940
  97.8396860 142.4102260 113.8119200  96.1783330 138.2389790 115.8196540
  96.1091610 137.2979730 115.6585670  96.9403190 138.3291200 116.3919110
  88.3690000 128.8444310 118.1453160  88.1892840 127.9470060 118.4255920
  87.9670080 129.3916180 118.8200110  97.2088500 131.0460170 116.0465470
  97.5853320 130.1732050 115.9339140  97.1108010 131.3818870 115.1555910
  91.3393510 129.4185800 111.5082910  91.4460260 130.3189530 111.8151670
  90.4285870 129.3703770 111.2177560 100.9912620 128.5410610 112.9793810
 101.8122240 128.0507180 113.0219290 101.0246700 129.1308270 113.7325650
  88.9876670 131.3404810 116.7535500  89.6686780 131.6043180 117.3722900
  88.6724720 130.5005680 117.0873510  93.1801240 132.3872170 115.8408090
  93.6879460 132.8853140 116.4813110  93.7114480 131.6107370 115.6647450
 105.2812170 130.5577360 119.5437440 104.5764340 130.9459070 119.0252550
 105.5470090 131.2527650 120.1458370  97.8508430 137.1390040 111.6061410
  97.2325700 137.6039490 111.0424130  98.3631680 137.8317520 112.0230920
  92.7140190 136.6665910 118.2845010  92.3809570 137.2934830 118.9266080
  92.8906870 137.1927790 117.5046680 101.2274100 130.4810990 115.7521350
 100.5229670 130.7695880 116.3324460 101.5886260 131.2911100 115.3920910
  91.1452670 128.7380690 118.1141960  91.4869480 129.5822740 117.8195830
  90.2068480 128.8864430 118.2307300  91.9259290 138.6346710 120.0994190
  92.5433290 139.3097790 119.8178640  91.0652410 139.0434690 120.0081690
  87.2191630 137.8246570 108.9801040  86.8419610 138.3133670 108.2485940
  87.4764700 138.4971850 109.6107570 102.8436880 140.0986120 118.0148830
 102.1600400 140.7685230 118.0065500 103.3831170 140.2966770 117.2493690
 104.2961020 129.9265780 116.1430560 103.3485930 129.9604760 116.2745990
 104.6211010 130.7404730 116.5279920  94.8280560 126.2262960 114.4386550
  95.1355540 125.6709850 113.7222050  93.8981260 126.3607420 114.2559540
 100.3795620 141.9430250 116.7294010 100.3922780 141.5392540 115.8616270
  99.8270840 142.7177540 116.6255440 101.6741040 138.6646470 111.8184180
 101.5637370 137.7220800 111.9433600 101.6709290 139.0262110 112.7046940
  99.7781060 136.8460090 118.0576620 100.1949850 136.6320200 117.2230080
 100.5020880 137.1032880 118.6285240 103.7243160 135.2447310 118.1492860
 102.8961790 135.3140400 117.6742990 104.3193640 135.8301620 117.6808690
 101.2458610 135.8532090 111.6781920 100.6271030 135.5151640 111.0308220
 101.2283060 135.2091850 112.3861110 100.6885170 132.0316630 119.0947730
 100.2756350 132.8570340 119.3487720  99.9561120 131.4461670 118.9024090
  92.8217960 134.8176530 113.9566400  92.4174960 134.1053780 113.4612300
  92.9081080 134.4729770 114.8454440  93.2899660 138.5044090 116.1205610
  92.9927950 137.8989560 115.4413390  94.2399480 138.5421400 116.0094970
  91.5346580 131.5919740 117.7365440  92.0861170 131.7015080 116.9618690
  92.0490090 131.9657340 118.4520670 101.3785270 142.0775960 119.7828710
 100.9015830 142.8848150 119.5901320 100.6947060 141.4254290 119.9354920
  92.3818090 138.2425780 122.7713410  91.4846620 138.4665750 123.0186810
  92.4070960 138.3660720 121.8224810  99.4223310 135.0918900 108.6854670
  99.8616590 134.2541330 108.5392490 100.1351730 135.7248300 108.7718810
  91.2089310 135.1139100 121.3470780  91.0697080 135.9861900 121.7158180
  90.3270670 134.7711910 121.2018720  97.5318690 140.0314970 112.6535910
  97.9714600 140.7739300 112.2391300  97.4705580 140.2741540 113.5774870
  93.0069660 141.0560800 123.5555930  92.9785090 141.4603750 122.6884360
  92.8434630 140.1271160 123.3927530  89.5222590 133.7121510 111.4573050
  89.4020190 134.4383600 110.8454320  89.2123480 132.9424420 110.9800960
 104.9584480 141.8387900 124.8520100 105.4344200 142.3170790 125.5309180
 105.5791640 141.7705390 124.1265600  87.1607960 136.8836650 117.2641690
  87.2388380 137.0185420 116.3197410  87.7749640 136.1752540 117.4569810
  88.4055590 138.5836840 113.6747870  87.9983670 138.7251430 112.8201470
  89.2968600 138.2997000 113.4719080 104.3617730 139.0300750 122.0120110
 104.4880790 138.7912630 121.0937290 104.4039110 138.1985290 122.4842190
  98.2234470 142.7328750 120.5814920  98.7379140 142.6436760 121.3837350
  97.3803550 143.0788450 120.8742830 100.1988870 143.0184090 110.0098920
 100.0390010 142.7287030 110.9080750 100.0335580 142.2424220 109.4744150
  92.6777250 142.7982620 111.7870540  92.5019730 141.8818160 111.5738340
  91.8232990 143.1569910 112.0268340  99.9015000 140.5271650 108.5696920
  99.2080160 140.5248940 107.9099200 100.6437860 140.1030970 108.1391090
  99.4664930 142.1534360 112.6445410  99.9221880 141.3723740 112.9584030
  99.8057450 142.8641180 113.1886590 104.2141740 131.0833210 122.9769850
 103.5986010 131.5912880 122.4485310 103.8938160 130.1831540 122.9195790
  87.2167480 137.9250820 119.8036150  87.3798520 137.4556180 118.9855520
  87.6819930 137.4174380 120.4684990  91.9886250 127.0556580 114.8396720
  91.5454400 127.8366120 114.5081240  92.5471240 127.3786470 115.5467660
  96.2756060 129.9225100 120.4432040  95.8135430 130.1308120 121.2551980
  95.8734170 129.1084450 120.1402710 101.2760570 131.1434050 121.5728700
 100.4254160 130.8439800 121.8937770 101.1162360 131.3876060 120.6612520
  98.3710280 132.6435800 123.6727490  98.6963690 131.8099550 123.3329720
  99.1590610 133.1664320 123.8205820  94.0262150 127.6003910 116.6986320
  94.3234480 128.5066740 116.6178340  94.5747710 127.1122690 116.0845890
  91.7800470 132.1790150 112.5677970  91.5541390 131.9627320 113.4724590
  90.9993000 132.6118610 112.2223940  99.0098230 132.1853520 111.1668620
  98.4107120 132.9089320 110.9832240  99.5577840 132.1230300 110.3845070
  94.2199680 133.0775730 123.2338240  94.1243280 132.1370460 123.0838640
  95.0631660 133.2990800 122.8386310  97.6163100 130.8217060 113.1971900
  98.0092670 131.1389260 112.3840590  97.9779950 129.9428940 113.3116420
  89.3510220 129.4889400 121.3872020  88.9573610 130.3364610 121.5944800
  88.6628620 128.8515770 121.5780660  95.9255270 129.5724370 124.4568760
  95.2353590 129.3796570 125.0914850  96.6687570 129.8559010 124.9893060
  86.6527270 127.4117860 115.4202100  86.3640320 127.9820720 116.1327080
  87.3973030 126.9322310 115.7833330  86.8397500 131.3537980 106.6304820
  86.7572170 132.2968740 106.7719810  86.4880560 131.2112890 105.7517170
  98.2018240 133.4122810 117.2922680  97.4699360 133.9209620 117.6412780
  97.8042580 132.5952790 116.9911460  94.6395630 130.0877010 115.6975170
  94.6431690 129.6466960 114.8479710  95.5346750 130.4094340 115.8046990
  90.4898010 129.9703500 114.6569380  90.1498060 130.4478730 115.4136430
  89.7275330 129.5168620 114.2970480  98.6644150 128.8656490 116.7045620
  98.6816890 129.3165140 117.5487470  98.4159730 127.9662130 116.9179060
 102.0914900 126.2788670 122.5432000 102.4160670 125.5478330 123.0689980
 102.1271410 125.9602310 121.6412990  88.7906460 137.3002250 121.9631960
  88.4061250 136.6595920 122.5614920  89.1018650 138.0038370 122.5326690
  94.9403600 134.1478790 117.4440580  95.3073730 133.6737360 118.1901920
  94.7508660 135.0220360 117.7848920  87.8044090 128.8922480 113.5734050
  87.5191010 128.5278150 114.4112670  87.7422950 128.1602940 112.9597190
  92.7302970 133.1887430 119.7624790  92.4260040 134.0679410 119.9875150
  93.6849430 133.2487220 119.7982230  91.2584760 137.3948420 110.3591640
  90.4847020 136.8546040 110.1990360  91.9879390 136.8755030 110.0209400
 102.0172740 136.3913780 116.1518030 102.7371860 136.8869070 115.7614140
 101.8154560 135.7131670 115.5071900  97.3991540 136.4622840 122.0387030
  97.3328850 135.5418510 121.7844620  96.7696680 136.5598280 122.7531670
  91.3022160 137.0628800 113.9970450  91.8200830 136.2597060 113.9427340
  90.8506180 137.0007940 114.8387280  96.1891660 138.3295080 109.2697750
  96.5307360 139.0737310 108.7741070  95.3604370 138.6426200 109.6322580
  88.7866700 134.0290170 120.9096150  88.4281640 134.6944020 121.4969490
  88.4921260 133.1973720 121.2808770  91.9879820 134.4874410 123.7935700
  91.6879960 134.6331590 122.8963520  92.7591060 133.9279700 123.7009090
  97.3308270 139.2843410 121.7890830  97.3452810 138.3524370 121.5709740
  96.6233370 139.3703170 122.4280600 103.5419480 135.9250750 121.1359410
 102.8167670 136.5179530 120.9388800 104.0694940 135.9174290 120.3372780
 103.4932590 140.3225490 110.7871570 102.8508750 139.6681110 111.0615290
 103.1063250 140.7280580 110.0112240  99.0719070 137.6510920 114.6343260
  99.4242890 137.0539050 113.9744630  98.1881400 137.3255150 114.8051510
  95.1582350 138.4108610 112.0413670  95.8453480 138.9577820 112.4221260
  94.3714770 138.9549340 112.0763280  87.2974750 134.0281430 107.5330750
  88.1669600 134.3106230 107.8166670  86.8065070 134.8417300 107.4179560
  94.4609560 135.4154640 111.6539030  94.9172340 136.2259890 111.8799220
  94.1097770 135.0977780 112.4857520  96.7642170 140.9260980 118.8831330
  97.4084390 141.1320360 119.5604750  97.1271610 140.1649380 118.4302180
  90.3621340 125.7592290 112.1261550  90.2335970 125.7510190 113.0746470
  89.5383360 126.0975380 111.7752560  98.0374250 138.9293330 117.6008780
  98.6796480 138.2286490 117.7140950  98.5623600 139.7091770 117.4205670
 101.8829970 139.2141950 107.3247920 101.6567550 138.4972390 107.9172560
 101.4926170 138.9654390 106.4869670  99.8111870 139.7288230 120.8044840
 100.1468110 140.3154920 121.4822760  98.8912210 139.5980940 121.0342630
  87.6646000 143.2408810 108.0992380  88.0243640 143.8398150 107.4449650
  87.5238340 143.7868700 108.8727410  87.3615270 127.5183410 121.5868250
  86.6473790 127.7180330 122.1920860  87.7810310 126.7422980 121.9583050
 101.4646220 137.1313890 108.9862080 101.1767920 137.5926580 109.7739960
 102.2598390 136.6711660 109.2546300  87.6487860 141.5063670 122.5734780
  87.7578980 140.5658410 122.4330170  86.9968420 141.7718420 121.9248510
  95.6400450 139.7779560 123.9732900  95.3197320 139.0588800 124.5178590
  94.9658810 140.4534630 124.0468960  93.6814620 140.6240010 108.9166050
  93.6724720 141.3569700 108.3010560  92.7612980 140.3771590 109.0093010
  89.2821260 135.8454900 109.6612810  88.6749210 136.5853800 109.6708110
  89.7570610 135.9354260 108.8351010  98.8554050 130.0105720 119.3369700
  99.2234870 129.1900930 119.6649270  97.9952250 130.0707610 119.7525350
  96.6674220 140.6868250 107.5791240  96.7686200 140.4832240 106.6493220
  95.7675960 140.4326530 107.7839020  95.8156040 132.6645310 119.5607670
  96.3141290 133.1391130 120.2259520  95.9578990 131.7408830 119.7677700
  98.2215540 127.9699270 113.0010930  98.0983320 127.9885400 112.0520440
  99.1700100 128.0178210 113.1209330  95.3092330 143.2054570 112.2738910
  95.5633830 143.1675960 111.3518280  94.3604810 143.0787900 112.2667160
 103.0222900 128.8813270 120.4036060 102.5196500 129.6218670 120.7429870
 103.8379560 129.2697270 120.0872850 101.3144910 134.1246450 113.8497420
 100.3735050 134.1396680 114.0245110 101.6288980 133.3382410 114.2957720
  91.2926550 135.8066050 107.4101380  92.0589820 135.6947410 107.9726810
  91.3701240 135.1104020 106.7578150  89.9873310 133.2391120 108.0934270
  90.0676900 132.2918630 108.2051670  90.8793060 133.5698000 108.1994930
 103.3170490 141.2955300 115.5251680 103.4417910 142.1186470 115.9975490
 104.1836050 141.0846030 115.1775830  90.7888020 143.3886510 115.1968810
  91.5250500 142.8401970 115.4677380  91.1728940 144.2542520 115.0574800
  87.6733500 139.4560080 111.0710320  86.7473280 139.6981220 111.0615730
  88.1389930 140.2834340 110.9495070  89.7946300 142.5732580 124.3854390
  90.5959030 142.8944630 124.7989790  89.2798120 142.2128160 125.1074300
  93.8990330 142.5616820 107.0194380  94.6918940 142.8505650 106.5676170
  93.3794680 142.1308990 106.3406860  98.6310930 138.6812450 124.3329800
  98.0249090 138.7044050 123.5925550  98.3265040 137.9495490 124.8697050
 100.0611300 142.4092740 122.9439210 101.0133050 142.3250760 122.8939450
  99.9139520 143.0734450 123.6173000 102.9520500 141.7886950 108.4431120
 102.6662010 141.3752090 107.6285300 102.7540050 142.7174660 108.3231640
  87.5144110 135.0606040 123.3290440  88.0183130 134.4813320 123.9006670
  86.7751530 135.3446270 123.8666810  94.4167730 137.7820230 106.8836730
  94.3118370 137.1672580 107.6098110  94.2491950 137.2586120 106.0999740
  94.5682050 136.4677030 122.8625960  93.8027720 137.0362030 122.7780630
  94.7498010 136.1753240 121.9694190  97.6570460 136.8440260 107.4878720
  97.1080560 137.2909560 108.1321460  98.2789720 136.3389510 108.0116390
 101.7105400 138.1982360 123.4200980 102.4514870 138.5358120 122.9168440
 100.9478080 138.3674420 122.8670750  89.5467190 133.2035630 124.2240510
  89.5872530 132.9049500 125.1325740  90.4012690 133.6043240 124.0648030
  93.3245580 135.8031180 109.3844020  93.7462000 135.6371050 110.2275410
  93.4496420 134.9931410 108.8899160  91.4873000 131.7827730 122.1915000
  90.9569460 131.2918680 121.5638340  92.1561070 132.2111930 121.6572930
  95.8373220 134.8268790 106.6321120  96.3578880 134.1117810 106.2662270
  96.4841620 135.4654660 106.9321630 100.3851060 136.2497190 121.9556190
 100.7992080 136.4042270 122.8046610  99.4502060 136.3752410 122.1181970
 100.8573230 133.5893350 123.9595340 101.4394000 132.8345670 123.8715820
 101.0335000 134.1200790 123.1826820  91.9745300 128.7490100 122.2712290
  91.8802170 128.1310850 121.5463160  91.3942690 129.4756390 122.0442200
  94.7406740 127.3063340 119.3039680  94.2924040 127.3287600 118.4585230
  94.1071940 126.9082360 119.9009980  95.1466290 136.2017670 119.9252120
  95.5654400 137.0450400 119.7528360  94.2274920 136.3389710 119.6958900
  97.4830190 133.9333850 121.3089960  97.6026400 133.3374990 122.0484800
  98.3424190 133.9703540 120.8891260  99.8218090 134.4871040 119.8852470
  99.2953310 135.0113660 119.2817610 100.1649430 135.1198430 120.5162200
  92.9973710 142.5070680 121.0409850  92.4594800 143.2316740 120.7218550
  93.2507670 142.0301020 120.2507190  94.2498960 130.4755200 122.5665780
  94.8398650 130.1671050 123.2543600  93.4319200 130.0034950 122.7225680
  99.0692390 130.0921010 122.7998800  98.3807910 129.4302550 122.7348790
  99.7898410 129.6459280 123.2447260  91.0187280 128.9765030 106.3180060
  91.3213180 128.9832460 105.4099210  91.7581870 128.6262890 106.8147720
  95.8535920 143.7421890 121.2996500  95.7794620 144.6457030 121.6068870
  94.9514760 143.4233790 121.2718570  96.4021250 142.9080400 108.9222860
  97.2972040 143.2465370 108.9441620  96.4338880 142.1859810 108.2947140
  90.0417410 138.2807450 107.1509860  90.4792280 138.8237120 107.8067440
  90.5265140 137.4554400 107.1606200  87.2563210 141.0696480 114.6030120
  87.5866220 140.2017540 114.3708760  87.6854210 141.2755000 115.4335080
  91.8525130 139.4005490 112.2632090  91.5520670 139.2770460 113.1636000
  91.7462620 138.5414080 111.8547820  87.7453420 141.9367070 117.3411750
  87.3084410 142.1167870 118.1735900  88.3131100 142.6941690 117.1993470
 103.3815600 141.4384070 121.6289060 102.7817590 141.4976630 120.8852980
 103.5109500 140.4989050 121.7585910 104.6217050 139.1801890 106.9658770
 103.7910010 139.2478540 107.4366000 104.7988880 140.0706010 106.6625630
 104.0773510 135.9249370 109.4692970 104.8392420 136.4946020 109.5752660
 104.0927880 135.3576570 110.2401280  87.5777850 134.4487300 113.7000630
  86.9226690 134.1798940 113.0560330  88.4155800 134.3391780 113.2502610
 105.0833480 136.7799470 114.3134900 105.4542310 135.9966790 113.9070870
 105.7235410 137.4688570 114.1352200 102.0667240 138.1636050 119.7265220
 101.2527080 138.5933210 119.9891010 102.4741440 138.7754460 119.1134270
 104.1292680 136.2183740 106.6265490 104.4041520 137.1262620 106.4984710
 103.9403420 136.1546270 107.5627480 104.0258020 134.1552730 111.6194920
 103.6501620 133.3880660 111.1876210 103.2961140 134.5375430 112.1069850
  88.6153780 134.8339870 118.2403970  88.9826820 134.7467270 119.1199990
  88.0464600 134.0706420 118.1410830 103.4157640 133.3024250 121.2534440
 103.1843730 133.0737000 120.3532390 103.6762190 134.2223800 121.2079330
  88.1669780 131.7448960 122.1462390  87.2725830 131.7115720 122.4856100
  88.7067330 131.9435750 122.9113640 101.8545710 128.5280680 124.0314140
 102.7315890 128.5364080 124.4148140 101.8666550 127.7911520 123.4206490
  86.7915930 131.6586230 109.6425960  85.8880010 131.9216430 109.4677620
  87.2756550 131.9297400 108.8625920 103.3008980 132.3810220 114.9202160
 103.8246460 131.8872870 114.2892330 103.8868400 132.5160580 115.6649730
 103.4798700 132.4650090 118.4421710 102.5301410 132.4313630 118.5566700
 103.6611710 133.3750200 118.2071480  89.3343140 130.7151770 107.5520340
  90.0434840 130.2934990 107.0667620  88.6183080 130.7827000 106.9203690
 104.2196110 130.2744520 113.3932250 104.1095390 130.1200560 114.3314520
 104.9803700 129.7465460 113.1507660 102.5661830 126.2138650 119.8515250
 103.2034050 126.8272790 120.2174440 102.7136720 126.2499310 118.9064480
 102.1243290 142.9154650 113.2533490 102.7202360 142.5939220 112.5767910
 102.3821440 142.4426470 114.0446760  90.0305860 139.3472560 123.4024120
  89.9875490 138.9765470 124.2838580  90.1616870 140.2850130 123.5425940
  93.7311890 140.9032150 119.0033840  93.4903250 141.1706710 118.1164360
  94.6714530 141.0737880 119.0584700  95.9366310 127.3664840 122.7590350
  95.8755200 127.9586670 123.5085760  96.8766690 127.2590800 122.6140610
  98.5740870 127.0234900 122.3982640  99.1881280 127.3414190 121.7363720
  99.1190430 126.5383490 123.0178500 104.9916050 142.9226530 119.8044480
 104.4974330 143.3195400 119.0871610 104.3829340 142.2975740 120.1981760
  89.0962130 125.7029160 122.5121700  89.6445120 125.5217210 121.7487810
  89.1617440 124.9123270 123.0478010  89.8693890 142.2934810 120.5221900
  89.2754210 142.1619510 121.2611940  89.8617730 141.4572950 120.0564000
  99.3148910 125.5867040 118.7251930  98.4408750 125.9202150 118.5224860
  99.2059660 125.1140220 119.5503800 100.2220890 127.7937910 120.1093650
  99.8934250 126.9789670 119.7295380 101.1703190 127.7507720 119.9859340
 102.6755500 143.5649950 117.0831220 102.2158470 144.3165760 116.7089240
 102.0467960 142.8456420 117.0246020  89.5006120 139.6593190 119.4729940
  88.7740180 139.0398480 119.4055890  89.5615270 140.0533800 118.6028020
  93.1051220 141.8738190 116.2579350  93.6216240 141.2625550 115.7327610
  93.7548600 142.3766970 116.7490360  95.8446720 142.7646680 117.0848330
  96.1324530 142.5100980 116.2081340  96.3569940 142.2124040 117.6753900
  97.0623730 126.5036880 117.6644840  96.2795520 126.9782380 117.9441600
  96.7686660 125.5991710 117.5558020 101.6144800 127.2059980 115.7093930
 102.0552890 127.1505080 114.8615530 101.3452390 128.1217990 115.7804110
  87.7836120 142.9767580 112.6826700  87.6158160 142.3438260 113.3808590
  86.9170630 143.1826980 112.3320890  88.4064140 126.8084360 110.1858560
  89.1643500 126.9213240 109.6122590  87.9441310 127.6453560 110.1401990
  99.4502930 125.5866080 114.4143940 100.0532300 126.1586290 114.8892460
  98.7095920 126.1505520 114.1917840  89.3898820 141.6700810 110.1276840
  88.8646440 142.0508840 109.4238800  89.3143400 142.2951580 110.8486550
  90.7789290 127.3348410 108.7260530  91.3082050 126.5478210 108.5968480
  91.4117610 128.0139600 108.9596060  95.9119080 143.6862780 124.4516530
  96.8386390 143.4507050 124.4952490  95.8969510 144.5134780 123.9702560
 104.1464140 143.2288350 111.4490780 104.3216330 142.5426090 110.8051700
 103.4485710 143.7535400 111.0567450  93.0982690 126.3507530 124.2158410
  92.8166960 126.8541130 123.4519230  93.4802390 125.5529280 123.8500540
  91.9891790 143.6183190 109.0026090  92.7210610 143.3342470 108.4549980
  92.2485460 143.3796470 109.8925470  91.1506580 139.7347920 109.0072420
  90.5215460 140.2033020 109.5558250  91.2654410 138.8897140 109.4418610
  99.6998150 125.7661110 124.7938880  99.5863600 126.0855720 125.6890400
 100.5167890 126.1673620 124.4976160 102.4796640 142.9132640 124.2757570
 103.2721960 142.4181870 124.0683530 102.7729790 143.5922780 124.8833180
  98.6056300 133.7853580  95.1573620  98.5250350 132.8708190  94.8865330
  98.1920720 134.2820650  94.4513330  96.7374340 135.5632600  97.0382890
  95.9616440 135.0833040  97.3281460  97.3887270 134.8838250  96.8639050
 100.7581770 139.9692790  95.8182020 100.2963300 139.1980030  96.1469190
 101.5707320 139.9958860  96.3234470  90.7341430 139.9092500  98.1116670
  91.0369470 139.0190240  97.9326890  91.4785020 140.4662720  97.8838920
  89.1632120 130.8354300  91.7001040  88.2748820 131.1770270  91.5980920
  89.4473310 130.6354620  90.8081870  87.1265130 133.4359950  97.5840740
  87.6981240 132.6682150  97.5844380  87.1266670 133.7348710  96.6747350
  96.9845080 142.2550800  95.4386010  96.3656520 142.7108300  94.8680450
  97.8396860 142.4102260  95.0375710  96.1783330 138.2389790  97.0453050
  96.1091610 137.2979730  96.8842180  96.9403190 138.3291200  97.6175620
  97.2088500 131.0460170  97.2721980  97.5853320 130.1732050  97.1595650
  97.1108010 131.3818870  96.3812420  91.3393510 129.4185800  92.7339420
  91.4460260 130.3189530  93.0408180  90.4285870 129.3703770  92.4434070
 100.9912620 128.5410610  94.2050320 101.8122240 128.0507180  94.2475800
 101.0246700 129.1308270  94.9582160  88.9876670 131.3404810  97.9792010
  89.6686780 131.6043180  98.5979410  88.6724720 130.5005680  98.3130020
  93.1801240 132.3872170  97.0664600  93.6879460 132.8853140  97.7069620
  93.7114480 131.6107370  96.8903960  97.8508430 137.1390040  92.8317920
  97.2325700 137.6039490  92.2680640  98.3631680 137.8317520  93.2487430
  92.7140190 136.6665910  99.5101520  92.3809570 137.2934830 100.1522590
  92.8906870 137.1927790  98.7303190 101.2274100 130.4810990  96.9777860
 100.5229670 130.7695880  97.5580970 101.5886260 131.2911100  96.6177420
  91.9259290 138.6346710 101.3250700  92.5433290 139.3097790 101.0435150
  91.0652410 139.0434690 101.2338200  87.2191630 137.8246570  90.2057550
  86.8419610 138.3133670  89.4742450  87.4764700 138.4971850  90.8364080
 102.8436880 140.0986120  99.2405340 102.1600400 140.7685230  99.2322010
 103.3831170 140.2966770  98.4750200 104.2961020 129.9265780  97.3687070
 103.3485930 129.9604760  97.5002500 104.6211010 130.7404730  97.7536430
 100.3795620 141.9430250  97.9550520 100.3922780 141.5392540  97.0872780
  99.8270840 142.7177540  97.8511950 101.6741040 138.6646470  93.0440690
 101.5637370 137.7220800  93.1690110 101.6709290 139.0262110  93.9303450
  99.7781060 136.8460090  99.2833130 100.1949850 136.6320200  98.4486590
 100.5020880 137.1032880  99.8541750  97.2161320 134.2911790  92.4003180
  96.2890600 134.2249170  92.6291650  97.3686140 135.2291920  92.2858420
  97.2030400 130.5628790  89.3970340  96.2634070 130.7242750  89.4822800
  97.5213660 131.2814470  88.8506330 103.7243160 135.2447310  99.3749370
 102.8961790 135.3140400  98.8999500 104.3193640 135.8301620  98.9065200
 101.2458610 135.8532090  92.9038430 100.6271030 135.5151640  92.2564730
 101.2283060 135.2091850  93.6117620 100.6885170 132.0316630 100.3204240
 100.2756350 132.8570340 100.5744230  99.9561120 131.4461670 100.1280600
  91.5346580 131.5919740  98.9621950  92.0861170 131.7015080  98.1875200
  92.0490090 131.9657340  99.6777180 101.3785270 142.0775960 101.0085220
 100.9015830 142.8848150 100.8157830 100.6947060 141.4254290 101.1611430
  92.3818090 138.2425780 103.9969920  91.4846620 138.4665750 104.2443320
  92.4070960 138.3660720 103.0481320  99.4223310 135.0918900  89.9111180
  99.8616590 134.2541330  89.7649000 100.1351730 135.7248300  89.9975320
  97.5318690 140.0314970  93.8792420  97.9714600 140.7739300  93.4647810
  97.4705580 140.2741540  94.8031380  93.0069660 141.0560800 104.7812440
  92.9785090 141.4603750 103.9140870  92.8434630 140.1271160 104.6184040
 103.0040450 126.3461710  88.2252220 102.6913110 126.4388540  89.1251290
 103.7652920 126.9242740  88.1749650  89.5222590 133.7121510  92.6829560
  89.4020190 134.4383600  92.0710830  89.2123480 132.9424420  92.2057470
 104.9584480 141.8387900 106.0776610 105.4344200 142.3170790 106.7565690
 105.5791640 141.7705390 105.3522110 104.3617730 139.0300750 103.2376620
 104.4880790 138.7912630 102.3193800 104.4039110 138.1985290 103.7098700
  98.2234470 142.7328750 101.8071430  98.7379140 142.6436760 102.6093860
  97.3803550 143.0788450 102.0999340 100.1988870 143.0184090  91.2355430
 100.0390010 142.7287030  92.1337260 100.0335580 142.2424220  90.7000660
  92.6777250 142.7982620  93.0127050  92.5019730 141.8818160  92.7994850
  91.8232990 143.1569910  93.2524850  99.9015000 140.5271650  89.7953430
  99.2080160 140.5248940  89.1355710 100.6437860 140.1030970  89.3647600
  99.4664930 142.1534360  93.8701920  99.9221880 141.3723740  94.1840540
  99.8057450 142.8641180  94.4143100  91.9886250 127.0556580  96.0653230
  91.5454400 127.8366120  95.7337750  92.5471240 127.3786470  96.7724170
  95.1045070 126.6767280  90.9459060  94.4799250 126.6727150  91.6712370
  95.0175190 125.8098240  90.5495030  94.0262150 127.6003910  97.9242830
  94.3234480 128.5066740  97.8434850  94.5747710 127.1122690  97.3102400
  91.7800470 132.1790150  93.7934480  91.5541390 131.9627320  94.6981100
  90.9993000 132.6118610  93.4480450  99.0098230 132.1853520  92.3925130
  98.4107120 132.9089320  92.2088750  99.5577840 132.1230300  91.6101580
  97.6163100 130.8217060  94.4228410  98.0092670 131.1389260  93.6097100
  97.9779950 129.9428940  94.5372930  86.8397500 131.3537980  87.8561330
  86.7572170 132.2968740  87.9976320  86.4880560 131.2112890  86.9773680
  98.2018240 133.4122810  98.5179190  97.4699360 133.9209620  98.8669290
  97.8042580 132.5952790  98.2167970  94.6395630 130.0877010  96.9231680
  94.6431690 129.6466960  96.0736220  95.5346750 130.4094340  97.0303500
  90.4898010 129.9703500  95.8825890  90.1498060 130.4478730  96.6392940
  89.7275330 129.5168620  95.5226990  94.7015780 131.0889090  89.9138440
  94.8228600 131.0475570  90.8624260  94.3164290 131.9513240  89.7585170
  98.6644150 128.8656490  97.9302130  98.6816890 129.3165140  98.7743980
  98.4159730 127.9662130  98.1435570  93.7137280 133.3990230  89.3121740
  93.1454180 132.9508480  88.6857650  94.4226280 133.7583010  88.7786890
  94.9403600 134.1478790  98.6697090  95.3073730 133.6737360  99.4158430
  94.7508660 135.0220360  99.0105430 102.0172740 136.3913780  97.3774540
 102.7371860 136.8869070  96.9870650 101.8154560 135.7131670  96.7328410
  97.4782680 127.7851740  91.5203930  96.6647290 127.2864910  91.4449240
  97.2844630 128.6249990  91.1040280  97.3991540 136.4622840 103.2643540
  97.3328850 135.5418510 103.0101130  96.7696680 136.5598280 103.9788180
 100.1931070 132.1571390  89.8166090 101.0810690 132.4688620  89.6417430
 100.1636160 131.2843640  89.4246670  96.1891660 138.3295080  90.4954260
  96.5307360 139.0737310  89.9997580  95.3604370 138.6426200  90.8579090
  97.3308270 139.2843410 103.0147340  97.3452810 138.3524370 102.7966250
  96.6233370 139.3703170 103.6537110 102.4645340 133.4683230  89.2845950
 102.3809060 133.8997450  88.4342390 103.1839530 133.9281580  89.7172770
 103.5419480 135.9250750 102.3615920 102.8167670 136.5179530 102.1645310
 104.0694940 135.9174290 101.5629290 103.4932590 140.3225490  92.0128080
 102.8508750 139.6681110  92.2871800 103.1063250 140.7280580  91.2368750
  99.0719070 137.6510920  95.8599770  99.4242890 137.0539050  95.2001140
  98.1881400 137.3255150  96.0308020  87.2974750 134.0281430  88.7587260
  88.1669600 134.3106230  89.0423180  86.8065070 134.8417300  88.6436070
  96.7642170 140.9260980 100.1087840  97.4084390 141.1320360 100.7861260
  97.1271610 140.1649380  99.6558690  90.3621340 125.7592290  93.3518060
  90.2335970 125.7510190  94.3002980  89.5383360 126.0975380  93.0009070
  98.0374250 138.9293330  98.8265290  98.6796480 138.2286490  98.9397460
  98.5623600 139.7091770  98.6462180 101.8829970 139.2141950  88.5504430
 101.6567550 138.4972390  89.1429070 101.4926170 138.9654390  87.7126180
  99.8111870 139.7288230 102.0301350 100.1468110 140.3154920 102.7079270
  98.8912210 139.5980940 102.2599140 101.4646220 137.1313890  90.2118590
 101.1767920 137.5926580  90.9996470 102.2598390 136.6711660  90.4802810
  87.6487860 141.5063670 103.7991290  87.7578980 140.5658410 103.6586680
  86.9968420 141.7718420 103.1505020  95.6400450 139.7779560 105.1989410
  95.3197320 139.0588800 105.7435100  94.9658810 140.4534630 105.2725470
  93.6814620 140.6240010  90.1422560  93.6724720 141.3569700  89.5267070
  92.7612980 140.3771590  90.2349520  89.2821260 135.8454900  90.8869320
  88.6749210 136.5853800  90.8964620  89.7570610 135.9354260  90.0607520
 102.2216080 128.9662660  91.3713770 101.5929240 129.0708330  90.6572000
 101.7268000 129.1859440  92.1607650  96.6674220 140.6868250  88.8047750
  96.7686200 140.4832240  87.8749730  95.7675960 140.4326530  89.0095530
  94.1900110 131.2448610  92.7871650  93.4816260 131.7134950  93.2285260
  94.4744590 130.5870620  93.4216840  95.8156040 132.6645310 100.7864180
  96.3141290 133.1391130 101.4516030  95.9578990 131.7408830 100.9934210
  98.2215540 127.9699270  94.2267440  98.0983320 127.9885400  93.2776950
  99.1700100 128.0178210  94.3465840  95.3092330 143.2054570  93.4995420
  95.5633830 143.1675960  92.5774790  94.3604810 143.0787900  93.4923670
  92.3935130 129.5533690  90.1622360  93.2425660 129.9903840  90.0962550
  92.0266400 129.8653950  90.9894420 101.3144910 134.1246450  95.0753930
 100.3735050 134.1396680  95.2501620 101.6288980 133.3382410  95.5214230
  91.2926550 135.8066050  88.6357890  92.0589820 135.6947410  89.1983320
  91.3701240 135.1104020  87.9834660  89.9873310 133.2391120  89.3190780
  90.0676900 132.2918630  89.4308180  90.8793060 133.5698000  89.4251440
 103.3170490 141.2955300  96.7508190 103.4417910 142.1186470  97.2232000
 104.1836050 141.0846030  96.4032340  90.7888020 143.3886510  96.4225320
  91.5250500 142.8401970  96.6933890  91.1728940 144.2542520  96.2831310
  87.6733500 139.4560080  92.2966830  86.7473280 139.6981220  92.2872240
  88.1389930 140.2834340  92.1751580  89.7946300 142.5732580 105.6110900
  90.5959030 142.8944630 106.0246300  89.2798120 142.2128160 106.3330810
  93.8990330 142.5616820  88.2450890  94.6918940 142.8505650  87.7932680
  93.3794680 142.1308990  87.5663370  98.6310930 138.6812450 105.5586310
  98.0249090 138.7044050 104.8182060  98.3265040 137.9495490 106.0953560
 100.0611300 142.4092740 104.1695720 101.0133050 142.3250760 104.1195960
  99.9139520 143.0734450 104.8429510 102.9520500 141.7886950  89.6687630
 102.6662010 141.3752090  88.8541810 102.7540050 142.7174660  89.5488150
  94.4167730 137.7820230  88.1093240  94.3118370 137.1672580  88.8354620
  94.2491950 137.2586120  87.3256250  94.5682050 136.4677030 104.0882470
  93.8027720 137.0362030 104.0037140  94.7498010 136.1753240 103.1950700
  97.6570460 136.8440260  88.7135230  97.1080560 137.2909560  89.3577970
  98.2789720 136.3389510  89.2372900 101.7105400 138.1982360 104.6457490
 102.4514870 138.5358120 104.1424950 100.9478080 138.3674420 104.0927260
  93.3245580 135.8031180  90.6100530  93.7462000 135.6371050  91.4531920
  93.4496420 134.9931410  90.1155670  95.8373220 134.8268790  87.8577630
  96.3578880 134.1117810  87.4918780  96.4841620 135.4654660  88.1578140
 100.3851060 136.2497190 103.1812700 100.7992080 136.4042270 104.0303120
  99.4502060 136.3752410 103.3438480 100.8573230 133.5893350 105.1851850
 101.4394000 132.8345670 105.0972330 101.0335000 134.1200790 104.4083330
  94.7406740 127.3063340 100.5296190  94.2924040 127.3287600  99.6841740
  94.1071940 126.9082360 101.1266490  95.1466290 136.2017670 101.1508630
  95.5654400 137.0450400 100.9784870  94.2274920 136.3389710 100.9215410
  97.4830190 133.9333850 102.5346470  97.6026400 133.3374990 103.2741310
  98.3424190 133.9703540 102.1147770  99.8218090 134.4871040 101.1108980
  99.2953310 135.0113660 100.5074120 100.1649430 135.1198430 101.7418710
  92.2204480 131.8764410  87.5558690  92.0193540 131.0131770  87.9172030
  92.0496530 131.7897770  86.6180290  92.9973710 142.5070680 102.2666360
  92.4594800 143.2316740 101.9475060  93.2507670 142.0301020 101.4763700
  99.6992790 126.6872640  90.0845570  99.9795080 125.8440540  90.4404990
  98.9258520 126.9195750  90.5984320  91.0187280 128.9765030  87.5436570
  91.3213180 128.9832460  86.6355720  91.7581870 128.6262890  88.0404230
  95.8535920 143.7421890 102.5253010  95.7794620 144.6457030 102.8325380
  94.9514760 143.4233790 102.4975080  94.2372210 127.9199650  88.5292770
  93.8894210 127.2423640  87.9495220  94.4384980 127.4589160  89.3436160
  96.4021250 142.9080400  90.1479370  97.2972040 143.2465370  90.1698130
  96.4338880 142.1859810  89.5203650  90.0417410 138.2807450  88.3766370
  90.4792280 138.8237120  89.0323950  90.5265140 137.4554400  88.3862710
  87.2563210 141.0696480  95.8286630  87.5866220 140.2017540  95.5965270
  87.6854210 141.2755000  96.6591590  87.7453420 141.9367070  98.5668260
  87.3084410 142.1167870  99.3992410  88.3131100 142.6941690  98.4249980
 103.3815600 141.4384070 102.8545570 102.7817590 141.4976630 102.1109490
 103.5109500 140.4989050 102.9842420 104.6217050 139.1801890  88.1915280
 103.7910010 139.2478540  88.6622510 104.7988880 140.0706010  87.8882140
 104.0773510 135.9249370  90.6949480 104.8392420 136.4946020  90.8009170
 104.0927880 135.3576570  91.4657790  87.5777850 134.4487300  94.9257140
  86.9226690 134.1798940  94.2816840  88.4155800 134.3391780  94.4759120
 105.0833480 136.7799470  95.5391410 105.4542310 135.9966790  95.1327380
 105.7235410 137.4688570  95.3608710 102.0667240 138.1636050 100.9521730
 101.2527080 138.5933210 101.2147520 102.4741440 138.7754460 100.3390780
 104.1292680 136.2183740  87.8522000 104.4041520 137.1262620  87.7241220
 103.9403420 136.1546270  88.7883990 100.5268290 129.2428590  89.1475630
 100.9453170 129.0559570  88.3072290 100.2204350 128.3907640  89.4578560
 104.0258020 134.1552730  92.8451430 103.6501620 133.3880660  92.4132720
 103.2961140 134.5375430  93.3326360 103.4157640 133.3024250 102.4790950
 103.1843730 133.0737000 101.5788900 103.6762190 134.2223800 102.4335840
 103.3008980 132.3810220  96.1458670 103.8246460 131.8872870  95.5148840
 103.8868400 132.5160580  96.8906240  89.3343140 130.7151770  88.7776850
  90.0434840 130.2934990  88.2924130  88.6183080 130.7827000  88.1460200
  88.9817300 126.7691100  87.8179500  89.7045430 127.3100040  88.1360720
  89.2541820 126.4954520  86.9421040 102.7908950 131.6383570  92.0851080
 103.2868070 131.4054440  92.8699960 102.5925020 130.7995410  91.6688720
 104.2196110 130.2744520  94.6188760 104.1095390 130.1200560  95.5571030
 104.9803700 129.7465460  94.3764170 105.1086380 128.1052440  87.8594900
 106.0335690 127.9733620  87.6513190 105.0862170 128.1845260  88.8131350
 105.1824870 128.8763100  90.4851610 104.3876370 128.8108220  91.0144520
 105.3868150 129.8113740  90.4736960 102.1243290 142.9154650  94.4790000
 102.7202360 142.5939220  93.8024420 102.3821440 142.4426470  95.2703270
  93.7311890 140.9032150 100.2290350  93.4903250 141.1706710  99.3420870
  94.6714530 141.0737880 100.2841210 104.9916050 142.9226530 101.0300990
 104.4974330 143.3195400 100.3128120 104.3829340 142.2975740 101.4238270
  89.8693890 142.2934810 101.7478410  89.2754210 142.1619510 102.4868450
  89.8617730 141.4572950 101.2820510 102.6755500 143.5649950  98.3087730
 102.2158470 144.3165760  97.9345750 102.0467960 142.8456420  98.2502530
  93.1051220 141.8738190  97.4835860  93.6216240 141.2625550  96.9584120
  93.7548600 142.3766970  97.9746870  95.8446720 142.7646680  98.3104840
  96.1324530 142.5100980  97.4337850  96.3569940 142.2124040  98.9010410
 101.6144800 127.2059980  96.9350440 102.0552890 127.1505080  96.0872040
 101.3452390 128.1217990  97.0060620 103.4783370 126.8375220  94.9459260
 103.4171770 125.8936440  94.7990280 104.2575400 126.9455310  95.4912720
  87.7836120 142.9767580  93.9083210  87.6158160 142.3438260  94.6065100
  86.9170630 143.1826980  93.5577400  88.4064140 126.8084360  91.4115070
  89.1643500 126.9213240  90.8379100  87.9441310 127.6453560  91.3658500
  94.9477950 128.9223630  94.4017380  94.1352460 128.5480520  94.0613260
  95.4519590 128.1668710  94.7038570  99.4502930 125.5866080  95.6400450
 100.0532300 126.1586290  96.1148970  98.7095920 126.1505520  95.4174350
 102.5937530 125.9887640  90.9140730 102.7888160 126.8871090  91.1808160
 101.8067400 125.7574720  91.4073680  89.3898820 141.6700810  91.3533350
  88.8646440 142.0508840  90.6495310  89.3143400 142.2951580  92.0743060
  90.7789290 127.3348410  89.9517040  91.3082050 126.5478210  89.8224990
  91.4117610 128.0139600  90.1852570  92.9727130 127.0723550  93.0062430
  92.3429870 126.3710860  93.1732560  92.4332270 127.8327680  92.7895590
  95.9119080 143.6862780 105.6773040  96.8386390 143.4507050 105.7209000
  95.8969510 144.5134780 105.1959070 104.1464140 143.2288350  92.6747290
 104.3216330 142.5426090  92.0308210 103.4485710 143.7535400  92.2823960
  91.9891790 143.6183190  90.2282600  92.7210610 143.3342470  89.6806490
  92.2485460 143.3796470  91.1181980  91.1506580 139.7347920  90.2328930
  90.5215460 140.2033020  90.7814760  91.2654410 138.8897140  90.6675120
 102.4796640 142.9132640 105.5014080 103.2721960 142.4181870 105.2940040
 102.7729790 143.5922780 106.1089690  96.7374340 135.5632600  78.2639400
  95.9616440 135.0833040  78.5537970  97.3887270 134.8838250  78.0895560
  90.7540170 135.8752410  79.1415160  89.9225050 135.6201120  79.5411670
  91.3621150 135.9463180  79.8773080 100.7581770 139.9692790  77.0438530
 100.2963300 139.1980030  77.3725700 101.5707320 139.9958860  77.5490980
  90.7341430 139.9092500  79.3373180  91.0369470 139.0190240  79.1583400
  91.4785020 140.4662720  79.1095430  87.1265130 133.4359950  78.8097250
  87.6981240 132.6682150  78.8100890  87.1266670 133.7348710  77.9003860
  96.9845080 142.2550800  76.6642520  96.3656520 142.7108300  76.0936960
  97.8396860 142.4102260  76.2632220  96.1783330 138.2389790  78.2709560
  96.1091610 137.2979730  78.1098690  96.9403190 138.3291200  78.8432130
  88.3690000 128.8444310  80.5966180  88.1892840 127.9470060  80.8768940
  87.9670080 129.3916180  81.2713130  97.2088500 131.0460170  78.4978490
  97.5853320 130.1732050  78.3852160  97.1108010 131.3818870  77.6068930
  91.3393510 129.4185800  73.9595930  91.4460260 130.3189530  74.2664690
  90.4285870 129.3703770  73.6690580  88.9876670 131.3404810  79.2048520
  89.6686780 131.6043180  79.8235920  88.6724720 130.5005680  79.5386530
  93.1801240 132.3872170  78.2921110  93.6879460 132.8853140  78.9326130
  93.7114480 131.6107370  78.1160470 105.2812170 130.5577360  81.9950460
 104.5764340 130.9459070  81.4765570 105.5470090 131.2527650  82.5971390
  92.7140190 136.6665910  80.7358030  92.3809570 137.2934830  81.3779100
  92.8906870 137.1927790  79.9559700  91.1452670 128.7380690  80.5654980
  91.4869480 129.5822740  80.2708850  90.2068480 128.8864430  80.6820320
  91.9259290 138.6346710  82.5507210  92.5433290 139.3097790  82.2691660
  91.0652410 139.0434690  82.4594710  87.2191630 137.8246570  71.4314060
  86.8419610 138.3133670  70.6998960  87.4764700 138.4971850  72.0620590
 102.8436880 140.0986120  80.4661850 102.1600400 140.7685230  80.4578520
 103.3831170 140.2966770  79.7006710  94.8280560 126.2262960  76.8899570
  95.1355540 125.6709850  76.1735070  93.8981260 126.3607420  76.7072560
 100.3795620 141.9430250  79.1807030 100.3922780 141.5392540  78.3129290
  99.8270840 142.7177540  79.0768460  99.7781060 136.8460090  80.5089640
 100.1949850 136.6320200  79.6743100 100.5020880 137.1032880  81.0798260
 103.7243160 135.2447310  80.6005880 102.8961790 135.3140400  80.1256010
 104.3193640 135.8301620  80.1321710 100.6885170 132.0316630  81.5460750
 100.2756350 132.8570340  81.8000740  99.9561120 131.4461670  81.3537110
  92.8217960 134.8176530  76.4079420  92.4174960 134.1053780  75.9125320
  92.9081080 134.4729770  77.2967460  93.2899660 138.5044090  78.5718630
  92.9927950 137.8989560  77.8926410  94.2399480 138.5421400  78.4607990
  91.5346580 131.5919740  80.1878460  92.0861170 131.7015080  79.4131710
  92.0490090 131.9657340  80.9033690 101.3785270 142.0775960  82.2341730
 100.9015830 142.8848150  82.0414340 100.6947060 141.4254290  82.3867940
  92.3818090 138.2425780  85.2226430  91.4846620 138.4665750  85.4699830
  92.4070960 138.3660720  84.2737830  91.2089310 135.1139100  83.7983800
  91.0697080 135.9861900  84.1671200  90.3270670 134.7711910  83.6531740
  97.5318690 140.0314970  75.1048930  97.9714600 140.7739300  74.6904320
  97.4705580 140.2741540  76.0287890  93.0069660 141.0560800  86.0068950
  92.9785090 141.4603750  85.1397380  92.8434630 140.1271160  85.8440550
 104.9584480 141.8387900  87.3033120 105.4344200 142.3170790  87.9822200
 105.5791640 141.7705390  86.5778620  87.1607960 136.8836650  79.7154710
  87.2388380 137.0185420  78.7710430  87.7749640 136.1752540  79.9082830
  88.4055590 138.5836840  76.1260890  87.9983670 138.7251430  75.2714490
  89.2968600 138.2997000  75.9232100 104.3617730 139.0300750  84.4633130
 104.4880790 138.7912630  83.5450310 104.4039110 138.1985290  84.9355210
  98.2234470 142.7328750  83.0327940  98.7379140 142.6436760  83.8350370
  97.3803550 143.0788450  83.3255850 100.1988870 143.0184090  72.4611940
 100.0390010 142.7287030  73.3593770 100.0335580 142.2424220  71.9257170
  92.6777250 142.7982620  74.2383560  92.5019730 141.8818160  74.0251360
  91.8232990 143.1569910  74.4781360  99.4664930 142.1534360  75.0958430
  99.9221880 141.3723740  75.4097050  99.8057450 142.8641180  75.6399610
 104.2141740 131.0833210  85.4282870 103.5986010 131.5912880  84.8998330
 103.8938160 130.1831540  85.3708810  87.2167480 137.9250820  82.2549170
  87.3798520 137.4556180  81.4368540  87.6819930 137.4174380  82.9198010
  91.9886250 127.0556580  77.2909740  91.5454400 127.8366120  76.9594260
  92.5471240 127.3786470  77.9980680  96.2756060 129.9225100  82.8945060
  95.8135430 130.1308120  83.7065000  95.8734170 129.1084450  82.5915730
 101.2760570 131.1434050  84.0241720 100.4254160 130.8439800  84.3450790
 101.1162360 131.3876060  83.1125540  98.3710280 132.6435800  86.1240510
  98.6963690 131.8099550  85.7842740  99.1590610 133.1664320  86.2718840
  95.1045070 126.6767280  72.1715570  94.4799250 126.6727150  72.8968880
  95.0175190 125.8098240  71.7751540  94.0262150 127.6003910  79.1499340
  94.3234480 128.5066740  79.0691360  94.5747710 127.1122690  78.5358910
  91.7800470 132.1790150  75.0190990  91.5541390 131.9627320  75.9237610
  90.9993000 132.6118610  74.6736960  94.2199680 133.0775730  85.6851260
  94.1243280 132.1370460  85.5351660  95.0631660 133.2990800  85.2899330
  89.3510220 129.4889400  83.8385040  88.9573610 130.3364610  84.0457820
  88.6628620 128.8515770  84.0293680  95.9255270 129.5724370  86.9081780
  95.2353590 129.3796570  87.5427870  96.6687570 129.8559010  87.4406080
  86.6527270 127.4117860  77.8715120  86.3640320 127.9820720  78.5840100
  87.3973030 126.9322310  78.2346350  98.2018240 133.4122810  79.7435700
  97.4699360 133.9209620  80.0925800  97.8042580 132.5952790  79.4424480
  94.6395630 130.0877010  78.1488190  94.6431690 129.6466960  77.2992730
  95.5346750 130.4094340  78.2560010  90.4898010 129.9703500  77.1082400
  90.1498060 130.4478730  77.8649450  89.7275330 129.5168620  76.7483500
 102.0914900 126.2788670  84.9945020 102.4160670 125.5478330  85.5203000
 102.1271410 125.9602310  84.0926010  88.7906460 137.3002250  84.4144980
  88.4061250 136.6595920  85.0127940  89.1018650 138.0038370  84.9839710
  94.9403600 134.1478790  79.8953600  95.3073730 133.6737360  80.6414940
  94.7508660 135.0220360  80.2361940  87.8044090 128.8922480  76.0247070
  87.5191010 128.5278150  76.8625690  87.7422950 128.1602940  75.4110210
  92.7302970 133.1887430  82.2137810  92.4260040 134.0679410  82.4388170
  93.6849430 133.2487220  82.2495250  91.2584760 137.3948420  72.8104660
  90.4847020 136.8546040  72.6503380  91.9879390 136.8755030  72.4722420
 102.0172740 136.3913780  78.6031050 102.7371860 136.8869070  78.2127160
 101.8154560 135.7131670  77.9584920  97.4782680 127.7851740  72.7460440
  96.6647290 127.2864910  72.6705750  97.2844630 128.6249990  72.3296790
  97.3991540 136.4622840  84.4900050  97.3328850 135.5418510  84.2357640
  96.7696680 136.5598280  85.2044690  91.3022160 137.0628800  76.4483470
  91.8200830 136.2597060  76.3940360  90.8506180 137.0007940  77.2900300
  88.7866700 134.0290170  83.3609170  88.4281640 134.6944020  83.9482510
  88.4921260 133.1973720  83.7321790  91.9879820 134.4874410  86.2448720
  91.6879960 134.6331590  85.3476540  92.7591060 133.9279700  86.1522110
  97.3308270 139.2843410  84.2403850  97.3452810 138.3524370  84.0222760
  96.6233370 139.3703170  84.8793620 103.5419480 135.9250750  83.5872430
 102.8167670 136.5179530  83.3901820 104.0694940 135.9174290  82.7885800
  99.0719070 137.6510920  77.0856280  99.4242890 137.0539050  76.4257650
  98.1881400 137.3255150  77.2564530  95.1582350 138.4108610  74.4926690
  95.8453480 138.9577820  74.8734280  94.3714770 138.9549340  74.5276300
  96.7642170 140.9260980  81.3344350  97.4084390 141.1320360  82.0117770
  97.1271610 140.1649380  80.8815200  90.3621340 125.7592290  74.5774570
  90.2335970 125.7510190  75.5259490  89.5383360 126.0975380  74.2265580
  98.0374250 138.9293330  80.0521800  98.6796480 138.2286490  80.1653970
  98.5623600 139.7091770  79.8718690  99.8111870 139.7288230  83.2557860
 100.1468110 140.3154920  83.9335780  98.8912210 139.5980940  83.4855650
  87.6646000 143.2408810  70.5505400  88.0243640 143.8398150  69.8962670
  87.5238340 143.7868700  71.3240430  87.3615270 127.5183410  84.0381270
  86.6473790 127.7180330  84.6433880  87.7810310 126.7422980  84.4096070
  95.6400450 139.7779560  86.4245920  95.3197320 139.0588800  86.9691610
  94.9658810 140.4534630  86.4981980  93.6814620 140.6240010  71.3679070
  93.6724720 141.3569700  70.7523580  92.7612980 140.3771590  71.4606030
  98.8554050 130.0105720  81.7882720  99.2234870 129.1900930  82.1162290
  97.9952250 130.0707610  82.2038370  96.6674220 140.6868250  70.0304260
  96.7686200 140.4832240  69.1006240  95.7675960 140.4326530  70.2352040
  95.8156040 132.6645310  82.0120690  96.3141290 133.1391130  82.6772540
  95.9578990 131.7408830  82.2190720  95.3092330 143.2054570  74.7251930
  95.5633830 143.1675960  73.8031300  94.3604810 143.0787900  74.7180180
  92.3935130 129.5533690  71.3878870  93.2425660 129.9903840  71.3219060
  92.0266400 129.8653950  72.2150930 103.0222900 128.8813270  82.8549080
 102.5196500 129.6218670  83.1942890 103.8379560 129.2697270  82.5385870
  91.2926550 135.8066050  69.8614400  92.0589820 135.6947410  70.4239830
  91.3701240 135.1104020  69.2091170 103.3170490 141.2955300  77.9764700
 103.4417910 142.1186470  78.4488510 104.1836050 141.0846030  77.6288850
  90.7888020 143.3886510  77.6481830  91.5250500 142.8401970  77.9190400
  91.1728940 144.2542520  77.5087820  87.6733500 139.4560080  73.5223340
  86.7473280 139.6981220  73.5128750  88.1389930 140.2834340  73.4008090
  93.8990330 142.5616820  69.4707400  94.6918940 142.8505650  69.0189190
  93.3794680 142.1308990  68.7919880  98.6310930 138.6812450  86.7842820
  98.0249090 138.7044050  86.0438570  98.3265040 137.9495490  87.3210070
 100.0611300 142.4092740  85.3952230 101.0133050 142.3250760  85.3452470
  99.9139520 143.0734450  86.0686020 102.9520500 141.7886950  70.8944140
 102.6662010 141.3752090  70.0798320 102.7540050 142.7174660  70.7744660
  87.5144110 135.0606040  85.7803460  88.0183130 134.4813320  86.3519690
  86.7751530 135.3446270  86.3179830  94.4167730 137.7820230  69.3349750
  94.3118370 137.1672580  70.0611130  94.2491950 137.2586120  68.5512760
  94.5682050 136.4677030  85.3138980  93.8027720 137.0362030  85.2293650
  94.7498010 136.1753240  84.4207210 101.7105400 138.1982360  85.8714000
 102.4514870 138.5358120  85.3681460 100.9478080 138.3674420  85.3183770
  89.5467190 133.2035630  86.6753530  89.5872530 132.9049500  87.5838760
  90.4012690 133.6043240  86.5161050  91.4873000 131.7827730  84.6428020
  90.9569460 131.2918680  84.0151360  92.1561070 132.2111930  84.1085950
 100.3851060 136.2497190  84.4069210 100.7992080 136.4042270  85.2559630
  99.4502060 136.3752410  84.5694990 100.8573230 133.5893350  86.4108360
 101.4394000 132.8345670  86.3228840 101.0335000 134.1200790  85.6339840
  91.9745300 128.7490100  84.7225310  91.8802170 128.1310850  83.9976180
  91.3942690 129.4756390  84.4955220  95.1466290 136.2017670  82.3765140
  95.5654400 137.0450400  82.2041380  94.2274920 136.3389710  82.1471920
  97.4830190 133.9333850  83.7602980  97.6026400 133.3374990  84.4997820
  98.3424190 133.9703540  83.3404280  99.8218090 134.4871040  82.3365490
  99.2953310 135.0113660  81.7330630 100.1649430 135.1198430  82.9675220
  92.2204480 131.8764410  68.7815200  92.0193540 131.0131770  69.1428540
  92.0496530 131.7897770  67.8436800  92.9973710 142.5070680  83.4922870
  92.4594800 143.2316740  83.1731570  93.2507670 142.0301020  82.7020210
  94.2498960 130.4755200  85.0178800  94.8398650 130.1671050  85.7056620
  93.4319200 130.0034950  85.1738700  99.0692390 130.0921010  85.2511820
  98.3807910 129.4302550  85.1861810  99.7898410 129.6459280  85.6960280
  95.8535920 143.7421890  83.7509520  95.7794620 144.6457030  84.0581890
  94.9514760 143.4233790  83.7231590  96.4021250 142.9080400  71.3735880
  97.2972040 143.2465370  71.3954640  96.4338880 142.1859810  70.7460160
  90.0417410 138.2807450  69.6022880  90.4792280 138.8237120  70.2580460
  90.5265140 137.4554400  69.6119220  87.2563210 141.0696480  77.0543140
  87.5866220 140.2017540  76.8221780  87.6854210 141.2755000  77.8848100
  91.8525130 139.4005490  74.7145110  91.5520670 139.2770460  75.6149020
  91.7462620 138.5414080  74.3060840  87.7453420 141.9367070  79.7924770
  87.3084410 142.1167870  80.6248920  88.3131100 142.6941690  79.6506490
 103.3815600 141.4384070  84.0802080 102.7817590 141.4976630  83.3366000
 103.5109500 140.4989050  84.2098930 104.6217050 139.1801890  69.4171790
 103.7910010 139.2478540  69.8879020 104.7988880 140.0706010  69.1138650
  87.5777850 134.4487300  76.1513650  86.9226690 134.1798940  75.5073350
  88.4155800 134.3391780  75.7015630 105.0833480 136.7799470  76.7647920
 105.4542310 135.9966790  76.3583890 105.7235410 137.4688570  76.5865220
 102.0667240 138.1636050  82.1778240 101.2527080 138.5933210  82.4404030
 102.4741440 138.7754460  81.5647290 104.0258020 134.1552730  74.0707940
 103.6501620 133.3880660  73.6389230 103.2961140 134.5375430  74.5582870
  88.6153780 134.8339870  80.6916990  88.9826820 134.7467270  81.5713010
  88.0464600 134.0706420  80.5923850 103.4157640 133.3024250  83.7047460
 103.1843730 133.0737000  82.8045410 103.6762190 134.2223800  83.6592350
  88.1669780 131.7448960  84.5975410  87.2725830 131.7115720  84.9369120
  88.7067330 131.9435750  85.3626660 101.8545710 128.5280680  86.4827160
 102.7315890 128.5364080  86.8661160 101.8666550 127.7911520  85.8719510
 103.4798700 132.4650090  80.8934730 102.5301410 132.4313630  81.0079720
 103.6611710 133.3750200  80.6584500  88.6709490 126.0197290  78.9458630
  89.3185680 125.4694670  78.5053790  89.0911330 126.2740440  79.7674440
 102.5661830 126.2138650  82.3028270 103.2034050 126.8272790  82.6687460
 102.7136720 126.2499310  81.3577500 102.1243290 142.9154650  75.7046510
 102.7202360 142.5939220  75.0280930 102.3821440 142.4426470  76.4959780
  93.7311890 140.9032150  81.4546860  93.4903250 141.1706710  80.5677380
  94.6714530 141.0737880  81.5097720  95.9366310 127.3664840  85.2103370
  95.8755200 127.9586670  85.9598780  96.8766690 127.2590800  85.0653630
  98.5740870 127.0234900  84.8495660  99.1881280 127.3414190  84.1876740
  99.1190430 126.5383490  85.4691520 104.9916050 142.9226530  82.2557500
 104.4974330 143.3195400  81.5384630 104.3829340 142.2975740  82.6494780
  89.0962130 125.7029160  84.9634720  89.6445120 125.5217210  84.2000830
  89.1617440 124.9123270  85.4991030  99.3148910 125.5867040  81.1764950
  98.4408750 125.9202150  80.9737880  99.2059660 125.1140220  82.0016820
 100.2220890 127.7937910  82.5606670  99.8934250 126.9789670  82.1808400
 101.1703190 127.7507720  82.4372360 102.6755500 143.5649950  79.5344240
 102.2158470 144.3165760  79.1602260 102.0467960 142.8456420  79.4759040
  89.5006120 139.6593190  81.9242960  88.7740180 139.0398480  81.8568910
  89.5615270 140.0533800  81.0541040  93.1051220 141.8738190  78.7092370
  93.6216240 141.2625550  78.1840630  93.7548600 142.3766970  79.2003380
  95.8446720 142.7646680  79.5361350  96.1324530 142.5100980  78.6594360
  96.3569940 142.2124040  80.1266920  87.7836120 142.9767580  75.1339720
  87.6158160 142.3438260  75.8321610  86.9170630 143.1826980  74.7833910
  99.4502930 125.5866080  76.8656960 100.0532300 126.1586290  77.3405480
  98.7095920 126.1505520  76.6430860  89.3898820 141.6700810  72.5789860
  88.8646440 142.0508840  71.8751820  89.3143400 142.2951580  73.2999570
  92.9727130 127.0723550  74.2318940  92.3429870 126.3710860  74.3989070
  92.4332270 127.8327680  74.0152100  95.9119080 143.6862780  86.9029550
  96.8386390 143.4507050  86.9465510  95.8969510 144.5134780  86.4215580
 104.1464140 143.2288350  73.9003800 104.3216330 142.5426090  73.2564720
 103.4485710 143.7535400  73.5080470  93.0982690 126.3507530  86.6671430
  92.8166960 126.8541130  85.9032250  93.4802390 125.5529280  86.3013560
  91.9891790 143.6183190  71.4539110  92.7210610 143.3342470  70.9063000
  92.2485460 143.3796470  72.3438490  91.1506580 139.7347920  71.4585440
  90.5215460 140.2033020  72.0071270  91.2654410 138.8897140  71.8931630
  99.6998150 125.7661110  87.2451900  99.5863600 126.0855720  88.1403420
 100.5167890 126.1673620  86.9489180 102.4796640 142.9132640  86.7270590
 103.2721960 142.4181870  86.5196550 102.7729790 143.5922780  87.3346200
  90.7540170 135.8752410  60.3671670  89.9225050 135.6201120  60.7668180
  91.3621150 135.9463180  61.1029590 100.7581770 139.9692790  58.2695040
 100.2963300 139.1980030  58.5982210 101.5707320 139.9958860  58.7747490
  90.7341430 139.9092500  60.5629690  91.0369470 139.0190240  60.3839910
  91.4785020 140.4662720  60.3351940  89.1632120 130.8354300  54.1514060
  88.2748820 131.1770270  54.0493940  89.4473310 130.6354620  53.2594890
  87.1265130 133.4359950  60.0353760  87.6981240 132.6682150  60.0357400
  87.1266670 133.7348710  59.1260370  96.9845080 142.2550800  57.8899030
  96.3656520 142.7108300  57.3193470  97.8396860 142.4102260  57.4888730
  96.1783330 138.2389790  59.4966070  96.1091610 137.2979730  59.3355200
  96.9403190 138.3291200  60.0688640  88.3690000 128.8444310  61.8222690
  88.1892840 127.9470060  62.1025450  87.9670080 129.3916180  62.4969640
  91.3393510 129.4185800  55.1852440  91.4460260 130.3189530  55.4921200
  90.4285870 129.3703770  54.8947090 100.9912620 128.5410610  56.6563340
 101.8122240 128.0507180  56.6988820 101.0246700 129.1308270  57.4095180
  88.9876670 131.3404810  60.4305030  89.6686780 131.6043180  61.0492430
  88.6724720 130.5005680  60.7643040  93.1801240 132.3872170  59.5177620
  93.6879460 132.8853140  60.1582640  93.7114480 131.6107370  59.3416980
 105.2812170 130.5577360  63.2206970 104.5764340 130.9459070  62.7022080
 105.5470090 131.2527650  63.8227900  97.8508430 137.1390040  55.2830940
  97.2325700 137.6039490  54.7193660  98.3631680 137.8317520  55.7000450
  92.7140190 136.6665910  61.9614540  92.3809570 137.2934830  62.6035610
  92.8906870 137.1927790  61.1816210  91.1452670 128.7380690  61.7911490
  91.4869480 129.5822740  61.4965360  90.2068480 128.8864430  61.9076830
  91.9259290 138.6346710  63.7763720  92.5433290 139.3097790  63.4948170
  91.0652410 139.0434690  63.6851220  87.2191630 137.8246570  52.6570570
  86.8419610 138.3133670  51.9255470  87.4764700 138.4971850  53.2877100
 102.8436880 140.0986120  61.6918360 102.1600400 140.7685230  61.6835030
 103.3831170 140.2966770  60.9263220  94.8280560 126.2262960  58.1156080
  95.1355540 125.6709850  57.3991580  93.8981260 126.3607420  57.9329070
 100.3795620 141.9430250  60.4063540 100.3922780 141.5392540  59.5385800
  99.8270840 142.7177540  60.3024970 101.6741040 138.6646470  55.4953710
 101.5637370 137.7220800  55.6203130 101.6709290 139.0262110  56.3816470
  97.2161320 134.2911790  54.8516200  96.2890600 134.2249170  55.0804670
  97.3686140 135.2291920  54.7371440 103.7243160 135.2447310  61.8262390
 102.8961790 135.3140400  61.3512520 104.3193640 135.8301620  61.3578220
 101.2458610 135.8532090  55.3551450 100.6271030 135.5151640  54.7077750
 101.2283060 135.2091850  56.0630640  92.8217960 134.8176530  57.6335930
  92.4174960 134.1053780  57.1381830  92.9081080 134.4729770  58.5223970
  93.2899660 138.5044090  59.7975140  92.9927950 137.8989560  59.1182920
  94.2399480 138.5421400  59.6864500  91.5346580 131.5919740  61.4134970
  92.0861170 131.7015080  60.6388220  92.0490090 131.9657340  62.1290200
 101.3785270 142.0775960  63.4598240 100.9015830 142.8848150  63.2670850
 100.6947060 141.4254290  63.6124450  92.3818090 138.2425780  66.4482940
  91.4846620 138.4665750  66.6956340  92.4070960 138.3660720  65.4994340
  99.4223310 135.0918900  52.3624200  99.8616590 134.2541330  52.2162020
 100.1351730 135.7248300  52.4488340  91.2089310 135.1139100  65.0240310
  91.0697080 135.9861900  65.3927710  90.3270670 134.7711910  64.8788250
  97.5318690 140.0314970  56.3305440  97.9714600 140.7739300  55.9160830
  97.4705580 140.2741540  57.2544400  93.0069660 141.0560800  67.2325460
  92.9785090 141.4603750  66.3653890  92.8434630 140.1271160  67.0697060
 103.0040450 126.3461710  50.6765240 102.6913110 126.4388540  51.5764310
 103.7652920 126.9242740  50.6262670  89.5222590 133.7121510  55.1342580
  89.4020190 134.4383600  54.5223850  89.2123480 132.9424420  54.6570490
 104.9584480 141.8387900  68.5289630 105.4344200 142.3170790  69.2078710
 105.5791640 141.7705390  67.8035130  87.1607960 136.8836650  60.9411220
  87.2388380 137.0185420  59.9966940  87.7749640 136.1752540  61.1339340
  88.4055590 138.5836840  57.3517400  87.9983670 138.7251430  56.4971000
  89.2968600 138.2997000  57.1488610 104.3617730 139.0300750  65.6889640
 104.4880790 138.7912630  64.7706820 104.4039110 138.1985290  66.1611720
  98.2234470 142.7328750  64.2584450  98.7379140 142.6436760  65.0606880
  97.3803550 143.0788450  64.5512360 100.1988870 143.0184090  53.6868450
 100.0390010 142.7287030  54.5850280 100.0335580 142.2424220  53.1513680
  92.6777250 142.7982620  55.4640070  92.5019730 141.8818160  55.2507870
  91.8232990 143.1569910  55.7037870  99.9015000 140.5271650  52.2466450
  99.2080160 140.5248940  51.5868730 100.6437860 140.1030970  51.8160620
  99.4664930 142.1534360  56.3214940  99.9221880 141.3723740  56.6353560
  99.8057450 142.8641180  56.8656120  87.2167480 137.9250820  63.4805680
  87.3798520 137.4556180  62.6625050  87.6819930 137.4174380  64.1454520
  96.2756060 129.9225100  64.1201570  95.8135430 130.1308120  64.9321510
  95.8734170 129.1084450  63.8172240  94.0262150 127.6003910  60.3755850
  94.3234480 128.5066740  60.2947870  94.5747710 127.1122690  59.7615420
  91.7800470 132.1790150  56.2447500  91.5541390 131.9627320  57.1494120
  90.9993000 132.6118610  55.8993470  99.0098230 132.1853520  54.8438150
  98.4107120 132.9089320  54.6601770  99.5577840 132.1230300  54.0614600
  94.2199680 133.0775730  66.9107770  94.1243280 132.1370460  66.7608170
  95.0631660 133.2990800  66.5155840  97.6163100 130.8217060  56.8741430
  98.0092670 131.1389260  56.0610120  97.9779950 129.9428940  56.9885950
  89.3510220 129.4889400  65.0641550  88.9573610 130.3364610  65.2714330
  88.6628620 128.8515770  65.2550190  95.9255270 129.5724370  68.1338290
  95.2353590 129.3796570  68.7684380  96.6687570 129.8559010  68.6662590
  86.8397500 131.3537980  50.3074350  86.7572170 132.2968740  50.4489340
  86.4880560 131.2112890  49.4286700  94.6395630 130.0877010  59.3744700
  94.6431690 129.6466960  58.5249240  95.5346750 130.4094340  59.4816520
  90.4898010 129.9703500  58.3338910  90.1498060 130.4478730  59.0905960
  89.7275330 129.5168620  57.9740010  94.7015780 131.0889090  52.3651460
  94.8228600 131.0475570  53.3137280  94.3164290 131.9513240  52.2098190
  98.6644150 128.8656490  60.3815150  98.6816890 129.3165140  61.2257000
  98.4159730 127.9662130  60.5948590  93.7137280 133.3990230  51.7634760
  93.1454180 132.9508480  51.1370670  94.4226280 133.7583010  51.2299910
  88.7906460 137.3002250  65.6401490  88.4061250 136.6595920  66.2384450
  89.1018650 138.0038370  66.2096220  92.7302970 133.1887430  63.4394320
  92.4260040 134.0679410  63.6644680  93.6849430 133.2487220  63.4751760
  91.2584760 137.3948420  54.0361170  90.4847020 136.8546040  53.8759890
  91.9879390 136.8755030  53.6978930 102.0172740 136.3913780  59.8287560
 102.7371860 136.8869070  59.4383670 101.8154560 135.7131670  59.1841430
 100.1931070 132.1571390  52.2679110 101.0810690 132.4688620  52.0930450
 100.1636160 131.2843640  51.8759690  91.3022160 137.0628800  57.6739980
  91.8200830 136.2597060  57.6196870  90.8506180 137.0007940  58.5156810
  96.1891660 138.3295080  52.9467280  96.5307360 139.0737310  52.4510600
  95.3604370 138.6426200  53.3092110  88.7866700 134.0290170  64.5865680
  88.4281640 134.6944020  65.1739020  88.4921260 133.1973720  64.9578300
  91.9879820 134.4874410  67.4705230  91.6879960 134.6331590  66.5733050
  92.7591060 133.9279700  67.3778620  97.3308270 139.2843410  65.4660360
  97.3452810 138.3524370  65.2479270  96.6233370 139.3703170  66.1050130
 102.4645340 133.4683230  51.7358970 102.3809060 133.8997450  50.8855410
 103.1839530 133.9281580  52.1685790 103.5419480 135.9250750  64.8128940
 102.8167670 136.5179530  64.6158330 104.0694940 135.9174290  64.0142310
 103.4932590 140.3225490  54.4641100 102.8508750 139.6681110  54.7384820
 103.1063250 140.7280580  53.6881770  99.0719070 137.6510920  58.3112790
  99.4242890 137.0539050  57.6514160  98.1881400 137.3255150  58.4821040
  95.1582350 138.4108610  55.7183200  95.8453480 138.9577820  56.0990790
  94.3714770 138.9549340  55.7532810  87.2974750 134.0281430  51.2100280
  88.1669600 134.3106230  51.4936200  86.8065070 134.8417300  51.0949090
  94.4609560 135.4154640  55.3308560  94.9172340 136.2259890  55.5568750
  94.1097770 135.0977780  56.1627050  96.7642170 140.9260980  62.5600860
  97.4084390 141.1320360  63.2374280  97.1271610 140.1649380  62.1071710
  98.0374250 138.9293330  61.2778310  98.6796480 138.2286490  61.3910480
  98.5623600 139.7091770  61.0975200 101.8829970 139.2141950  51.0017450
 101.6567550 138.4972390  51.5942090 101.4926170 138.9654390  50.1639200
  99.8111870 139.7288230  64.4814370 100.1468110 140.3154920  65.1592290
  98.8912210 139.5980940  64.7112160  87.6646000 143.2408810  51.7761910
  88.0243640 143.8398150  51.1219180  87.5238340 143.7868700  52.5496940
 101.4646220 137.1313890  52.6631610 101.1767920 137.5926580  53.4509490
 102.2598390 136.6711660  52.9315830  87.6487860 141.5063670  66.2504310
  87.7578980 140.5658410  66.1099700  86.9968420 141.7718420  65.6018040
  95.6400450 139.7779560  67.6502430  95.3197320 139.0588800  68.1948120
  94.9658810 140.4534630  67.7238490  93.6814620 140.6240010  52.5935580
  93.6724720 141.3569700  51.9780090  92.7612980 140.3771590  52.6862540
  89.2821260 135.8454900  53.3382340  88.6749210 136.5853800  53.3477640
  89.7570610 135.9354260  52.5120540 102.2216080 128.9662660  53.8226790
 101.5929240 129.0708330  53.1085020 101.7268000 129.1859440  54.6120670
  96.6674220 140.6868250  51.2560770  96.7686200 140.4832240  50.3262750
  95.7675960 140.4326530  51.4608550  94.1900110 131.2448610  55.2384670
  93.4816260 131.7134950  55.6798280  94.4744590 130.5870620  55.8729860
  98.2215540 127.9699270  56.6780460  98.0983320 127.9885400  55.7289970
  99.1700100 128.0178210  56.7978860  95.3092330 143.2054570  55.9508440
  95.5633830 143.1675960  55.0287810  94.3604810 143.0787900  55.9436690
  92.3935130 129.5533690  52.6135380  93.2425660 129.9903840  52.5475570
  92.0266400 129.8653950  53.4407440 101.3144910 134.1246450  57.5266950
 100.3735050 134.1396680  57.7014640 101.6288980 133.3382410  57.9727250
  91.2926550 135.8066050  51.0870910  92.0589820 135.6947410  51.6496340
  91.3701240 135.1104020  50.4347680  89.9873310 133.2391120  51.7703800
  90.0676900 132.2918630  51.8821200  90.8793060 133.5698000  51.8764460
 103.3170490 141.2955300  59.2021210 103.4417910 142.1186470  59.6745020
 104.1836050 141.0846030  58.8545360  90.7888020 143.3886510  58.8738340
  91.5250500 142.8401970  59.1446910  91.1728940 144.2542520  58.7344330
  87.6733500 139.4560080  54.7479850  86.7473280 139.6981220  54.7385260
  88.1389930 140.2834340  54.6264600  89.7946300 142.5732580  68.0623920
  90.5959030 142.8944630  68.4759320  89.2798120 142.2128160  68.7843830
  93.8990330 142.5616820  50.6963910  94.6918940 142.8505650  50.2445700
  93.3794680 142.1308990  50.0176390  98.6310930 138.6812450  68.0099330
  98.0249090 138.7044050  67.2695080  98.3265040 137.9495490  68.5466580
 100.0611300 142.4092740  66.6208740 101.0133050 142.3250760  66.5708980
  99.9139520 143.0734450  67.2942530 102.9520500 141.7886950  52.1200650
 102.6662010 141.3752090  51.3054830 102.7540050 142.7174660  52.0001170
  87.5144110 135.0606040  67.0059970  88.0183130 134.4813320  67.5776200
  86.7751530 135.3446270  67.5436340  94.4167730 137.7820230  50.5606260
  94.3118370 137.1672580  51.2867640  94.2491950 137.2586120  49.7769270
  94.5682050 136.4677030  66.5395490  93.8027720 137.0362030  66.4550160
  94.7498010 136.1753240  65.6463720  97.6570460 136.8440260  51.1648250
  97.1080560 137.2909560  51.8090990  98.2789720 136.3389510  51.6885920
 101.7105400 138.1982360  67.0970510 102.4514870 138.5358120  66.5937970
 100.9478080 138.3674420  66.5440280  89.5467190 133.2035630  67.9010040
  89.5872530 132.9049500  68.8095270  90.4012690 133.6043240  67.7417560
  93.3245580 135.8031180  53.0613550  93.7462000 135.6371050  53.9044940
  93.4496420 134.9931410  52.5668690  91.4873000 131.7827730  65.8684530
  90.9569460 131.2918680  65.2407870  92.1561070 132.2111930  65.3342460
  95.8373220 134.8268790  50.3090650  96.3578880 134.1117810  49.9431800
  96.4841620 135.4654660  50.6091160  92.2204480 131.8764410  50.0071710
  92.0193540 131.0131770  50.3685050  92.0496530 131.7897770  49.0693310
  92.9973710 142.5070680  64.7179380  92.4594800 143.2316740  64.3988080
  93.2507670 142.0301020  63.9276720  91.0187280 128.9765030  49.9949590
  91.3213180 128.9832460  49.0868740  91.7581870 128.6262890  50.4917250
  95.8535920 143.7421890  64.9766030  95.7794620 144.6457030  65.2838400
  94.9514760 143.4233790  64.9488100  96.4021250 142.9080400  52.5992390
  97.2972040 143.2465370  52.6211150  96.4338880 142.1859810  51.9716670
  90.0417410 138.2807450  50.8279390  90.4792280 138.8237120  51.4836970
  90.5265140 137.4554400  50.8375730  87.2563210 141.0696480  58.2799650
  87.5866220 140.2017540  58.0478290  87.6854210 141.2755000  59.1104610
  91.8525130 139.4005490  55.9401620  91.5520670 139.2770460  56.8405530
  91.7462620 138.5414080  55.5317350  87.7453420 141.9367070  61.0181280
  87.3084410 142.1167870  61.8505430  88.3131100 142.6941690  60.8763000
 103.3815600 141.4384070  65.3058590 102.7817590 141.4976630  64.5622510
 103.5109500 140.4989050  65.4355440 104.6217050 139.1801890  50.6428300
 103.7910010 139.2478540  51.1135530 104.7988880 140.0706010  50.3395160
 104.0773510 135.9249370  53.1462500 104.8392420 136.4946020  53.2522190
 104.0927880 135.3576570  53.9170810  87.5777850 134.4487300  57.3770160
  86.9226690 134.1798940  56.7329860  88.4155800 134.3391780  56.9272140
 105.0833480 136.7799470  57.9904430 105.4542310 135.9966790  57.5840400
 105.7235410 137.4688570  57.8121730 102.0667240 138.1636050  63.4034750
 101.2527080 138.5933210  63.6660540 102.4741440 138.7754460  62.7903800
 104.1292680 136.2183740  50.3035020 104.4041520 137.1262620  50.1754240
 103.9403420 136.1546270  51.2397010 104.0258020 134.1552730  55.2964450
 103.6501620 133.3880660  54.8645740 103.2961140 134.5375430  55.7839380
  88.6153780 134.8339870  61.9173500  88.9826820 134.7467270  62.7969520
  88.0464600 134.0706420  61.8180360 103.4157640 133.3024250  64.9303970
 103.1843730 133.0737000  64.0301920 103.6762190 134.2223800  64.8848860
  88.1669780 131.7448960  65.8231920  87.2725830 131.7115720  66.1625630
  88.7067330 131.9435750  66.5883170  86.7915930 131.6586230  53.3195490
  85.8880010 131.9216430  53.1447150  87.2756550 131.9297400  52.5395450
  89.3343140 130.7151770  51.2289870  90.0434840 130.2934990  50.7437150
  88.6183080 130.7827000  50.5973220  88.9817300 126.7691100  50.2692520
  89.7045430 127.3100040  50.5873740  89.2541820 126.4954520  49.3934060
 102.7908950 131.6383570  54.5364100 103.2868070 131.4054440  55.3212980
 102.5925020 130.7995410  54.1201740 102.5661830 126.2138650  63.5284780
 103.2034050 126.8272790  63.8943970 102.7136720 126.2499310  62.5834010
 105.1086380 128.1052440  50.3107920 106.0335690 127.9733620  50.1026210
 105.0862170 128.1845260  51.2644370 105.1824870 128.8763100  52.9364630
 104.3876370 128.8108220  53.4657540 105.3868150 129.8113740  52.9249980
 102.1243290 142.9154650  56.9303020 102.7202360 142.5939220  56.2537440
 102.3821440 142.4426470  57.7216290  90.0305860 139.3472560  67.0793650
  89.9875490 138.9765470  67.9608110  90.1616870 140.2850130  67.2195470
  93.7311890 140.9032150  62.6803370  93.4903250 141.1706710  61.7933890
  94.6714530 141.0737880  62.7354230  98.5740870 127.0234900  66.0752170
  99.1881280 127.3414190  65.4133250  99.1190430 126.5383490  66.6948030
 104.9916050 142.9226530  63.4814010 104.4974330 143.3195400  62.7641140
 104.3829340 142.2975740  63.8751290  89.8693890 142.2934810  64.1991430
  89.2754210 142.1619510  64.9381470  89.8617730 141.4572950  63.7333530
  99.3148910 125.5867040  62.4021460  98.4408750 125.9202150  62.1994390
  99.2059660 125.1140220  63.2273330 100.2220890 127.7937910  63.7863180
  99.8934250 126.9789670  63.4064910 101.1703190 127.7507720  63.6628870
 102.6755500 143.5649950  60.7600750 102.2158470 144.3165760  60.3858770
 102.0467960 142.8456420  60.7015550  89.5006120 139.6593190  63.1499470
  88.7740180 139.0398480  63.0825420  89.5615270 140.0533800  62.2797550
  93.1051220 141.8738190  59.9348880  93.6216240 141.2625550  59.4097140
  93.7548600 142.3766970  60.4259890  95.8446720 142.7646680  60.7617860
  96.1324530 142.5100980  59.8850870  96.3569940 142.2124040  61.3523430
  97.0623730 126.5036880  61.3414370  96.2795520 126.9782380  61.6211130
  96.7686660 125.5991710  61.2327550 101.6144800 127.2059980  59.3863460
 102.0552890 127.1505080  58.5385060 101.3452390 128.1217990  59.4573640
  87.7836120 142.9767580  56.3596230  87.6158160 142.3438260  57.0578120
  86.9170630 143.1826980  56.0090420  94.9477950 128.9223630  56.8530400
  94.1352460 128.5480520  56.5126280  95.4519590 128.1668710  57.1551590
 102.5937530 125.9887640  53.3653750 102.7888160 126.8871090  53.6321180
 101.8067400 125.7574720  53.8586700  89.3898820 141.6700810  53.8046370
  88.8646440 142.0508840  53.1008330  89.3143400 142.2951580  54.5256080
  95.9119080 143.6862780  68.1286060  96.8386390 143.4507050  68.1722020
  95.8969510 144.5134780  67.6472090 104.1464140 143.2288350  55.1260310
 104.3216330 142.5426090  54.4821230 103.4485710 143.7535400  54.7336980
  91.9891790 143.6183190  52.6795620  92.7210610 143.3342470  52.1319510
  92.2485460 143.3796470  53.5695000  91.1506580 139.7347920  52.6841950
  90.5215460 140.2033020  53.2327780  91.2654410 138.8897140  53.1188140
 102.4796640 142.9132640  67.9527100 103.2721960 142.4181870  67.7453060
 102.7729790 143.5922780  68.5602710  98.6056300 133.7853580  38.8343150
  98.5250350 132.8708190  38.5634860  98.1920720 134.2820650  38.1282860
  96.7374340 135.5632600  40.7152420  95.9616440 135.0833040  41.0050990
  97.3887270 134.8838250  40.5408580  90.7540170 135.8752410  41.5928180
  89.9225050 135.6201120  41.9924690  91.3621150 135.9463180  42.3286100
 100.7581770 139.9692790  39.4951550 100.2963300 139.1980030  39.8238720
 101.5707320 139.9958860  40.0004000  90.7341430 139.9092500  41.7886200
  91.0369470 139.0190240  41.6096420  91.4785020 140.4662720  41.5608450
  89.1632120 130.8354300  35.3770570  88.2748820 131.1770270  35.2750450
  89.4473310 130.6354620  34.4851400  96.9845080 142.2550800  39.1155540
  96.3656520 142.7108300  38.5449980  97.8396860 142.4102260  38.7145240
  96.1783330 138.2389790  40.7222580  96.1091610 137.2979730  40.5611710
  96.9403190 138.3291200  41.2945150  88.3690000 128.8444310  43.0479200
  88.1892840 127.9470060  43.3281960  87.9670080 129.3916180  43.7226150
  91.3393510 129.4185800  36.4108950  91.4460260 130.3189530  36.7177710
  90.4285870 129.3703770  36.1203600 100.9912620 128.5410610  37.8819850
 101.8122240 128.0507180  37.9245330 101.0246700 129.1308270  38.6351690
  93.1801240 132.3872170  40.7434130  93.6879460 132.8853140  41.3839150
  93.7114480 131.6107370  40.5673490 105.2812170 130.5577360  44.4463480
 104.5764340 130.9459070  43.9278590 105.5470090 131.2527650  45.0484410
  97.8508430 137.1390040  36.5087450  97.2325700 137.6039490  35.9450170
  98.3631680 137.8317520  36.9256960  92.7140190 136.6665910  43.1871050
  92.3809570 137.2934830  43.8292120  92.8906870 137.1927790  42.4072720
 101.2274100 130.4810990  40.6547390 100.5229670 130.7695880  41.2350500
 101.5886260 131.2911100  40.2946950  91.9259290 138.6346710  45.0020230
  92.5433290 139.3097790  44.7204680  91.0652410 139.0434690  44.9107730
  87.2191630 137.8246570  33.8827080  86.8419610 138.3133670  33.1511980
  87.4764700 138.4971850  34.5133610 102.8436880 140.0986120  42.9174870
 102.1600400 140.7685230  42.9091540 103.3831170 140.2966770  42.1519730
 104.2961020 129.9265780  41.0456600 103.3485930 129.9604760  41.1772030
 104.6211010 130.7404730  41.4305960 100.3795620 141.9430250  41.6320050
 100.3922780 141.5392540  40.7642310  99.8270840 142.7177540  41.5281480
 101.6741040 138.6646470  36.7210220 101.5637370 137.7220800  36.8459640
 101.6709290 139.0262110  37.6072980  99.7781060 136.8460090  42.9602660
 100.1949850 136.6320200  42.1256120 100.5020880 137.1032880  43.5311280
  97.2161320 134.2911790  36.0772710  96.2890600 134.2249170  36.3061180
  97.3686140 135.2291920  35.9627950  97.2030400 130.5628790  33.0739870
  96.2634070 130.7242750  33.1592330  97.5213660 131.2814470  32.5275860
 103.7243160 135.2447310  43.0518900 102.8961790 135.3140400  42.5769030
 104.3193640 135.8301620  42.5834730 101.2458610 135.8532090  36.5807960
 100.6271030 135.5151640  35.9334260 101.2283060 135.2091850  37.2887150
 100.6885170 132.0316630  43.9973770 100.2756350 132.8570340  44.2513760
  99.9561120 131.4461670  43.8050130  92.8217960 134.8176530  38.8592440
  92.4174960 134.1053780  38.3638340  92.9081080 134.4729770  39.7480480
  93.2899660 138.5044090  41.0231650  92.9927950 137.8989560  40.3439430
  94.2399480 138.5421400  40.9121010  91.5346580 131.5919740  42.6391480
  92.0861170 131.7015080  41.8644730  92.0490090 131.9657340  43.3546710
 101.3785270 142.0775960  44.6854750 100.9015830 142.8848150  44.4927360
 100.6947060 141.4254290  44.8380960  92.3818090 138.2425780  47.6739450
  91.4846620 138.4665750  47.9212850  92.4070960 138.3660720  46.7250850
  99.4223310 135.0918900  33.5880710  99.8616590 134.2541330  33.4418530
 100.1351730 135.7248300  33.6744850  91.2089310 135.1139100  46.2496820
  91.0697080 135.9861900  46.6184220  90.3270670 134.7711910  46.1044760
  97.5318690 140.0314970  37.5561950  97.9714600 140.7739300  37.1417340
  97.4705580 140.2741540  38.4800910  93.0069660 141.0560800  48.4581970
  92.9785090 141.4603750  47.5910400  92.8434630 140.1271160  48.2953570
 103.0040450 126.3461710  31.9021750 102.6913110 126.4388540  32.8020820
 103.7652920 126.9242740  31.8519180  89.5222590 133.7121510  36.3599090
  89.4020190 134.4383600  35.7480360  89.2123480 132.9424420  35.8827000
 104.9584480 141.8387900  49.7546140 105.4344200 142.3170790  50.4335220
 105.5791640 141.7705390  49.0291640  88.4055590 138.5836840  38.5773910
  87.9983670 138.7251430  37.7227510  89.2968600 138.2997000  38.3745120
 104.3617730 139.0300750  46.9146150 104.4880790 138.7912630  45.9963330
 104.4039110 138.1985290  47.3868230  98.2234470 142.7328750  45.4840960
  98.7379140 142.6436760  46.2863390  97.3803550 143.0788450  45.7768870
 100.1988870 143.0184090  34.9124960 100.0390010 142.7287030  35.8106790
 100.0335580 142.2424220  34.3770190  92.6777250 142.7982620  36.6896580
  92.5019730 141.8818160  36.4764380  91.8232990 143.1569910  36.9294380
  99.9015000 140.5271650  33.4722960  99.2080160 140.5248940  32.8125240
 100.6437860 140.1030970  33.0417130  99.4664930 142.1534360  37.5471450
  99.9221880 141.3723740  37.8610070  99.8057450 142.8641180  38.0912630
 104.2141740 131.0833210  47.8795890 103.5986010 131.5912880  47.3511350
 103.8938160 130.1831540  47.8221830  87.2167480 137.9250820  44.7062190
  87.3798520 137.4556180  43.8881560  87.6819930 137.4174380  45.3711030
  91.9886250 127.0556580  39.7422760  91.5454400 127.8366120  39.4107280
  92.5471240 127.3786470  40.4493700 101.2760570 131.1434050  46.4754740
 100.4254160 130.8439800  46.7963810 101.1162360 131.3876060  45.5638560
  98.3710280 132.6435800  48.5753530  98.6963690 131.8099550  48.2355760
  99.1590610 133.1664320  48.7231860  95.1045070 126.6767280  34.6228590
  94.4799250 126.6727150  35.3481900  95.0175190 125.8098240  34.2264560
  91.7800470 132.1790150  37.4704010  91.5541390 131.9627320  38.3750630
  90.9993000 132.6118610  37.1249980  99.0098230 132.1853520  36.0694660
  98.4107120 132.9089320  35.8858280  99.5577840 132.1230300  35.2871110
  94.2199680 133.0775730  48.1364280  94.1243280 132.1370460  47.9864680
  95.0631660 133.2990800  47.7412350  97.6163100 130.8217060  38.0997940
  98.0092670 131.1389260  37.2866630  97.9779950 129.9428940  38.2142460
  86.8397500 131.3537980  31.5330860  86.7572170 132.2968740  31.6745850
  86.4880560 131.2112890  30.6543210  98.2018240 133.4122810  42.1948720
  97.4699360 133.9209620  42.5438820  97.8042580 132.5952790  41.8937500
  94.6395630 130.0877010  40.6001210  94.6431690 129.6466960  39.7505750
  95.5346750 130.4094340  40.7073030  90.4898010 129.9703500  39.5595420
  90.1498060 130.4478730  40.3162470  89.7275330 129.5168620  39.1996520
  94.7015780 131.0889090  33.5907970  94.8228600 131.0475570  34.5393790
  94.3164290 131.9513240  33.4354700  93.7137280 133.3990230  32.9891270
  93.1454180 132.9508480  32.3627180  94.4226280 133.7583010  32.4556420
  88.7906460 137.3002250  46.8658000  88.4061250 136.6595920  47.4640960
  89.1018650 138.0038370  47.4352730  94.9403600 134.1478790  42.3466620
  95.3073730 133.6737360  43.0927960  94.7508660 135.0220360  42.6874960
  92.7302970 133.1887430  44.6650830  92.4260040 134.0679410  44.8901190
  93.6849430 133.2487220  44.7008270  91.2584760 137.3948420  35.2617680
  90.4847020 136.8546040  35.1016400  91.9879390 136.8755030  34.9235440
 102.0172740 136.3913780  41.0544070 102.7371860 136.8869070  40.6640180
 101.8154560 135.7131670  40.4097940  97.4782680 127.7851740  35.1973460
  96.6647290 127.2864910  35.1218770  97.2844630 128.6249990  34.7809810
  97.3991540 136.4622840  46.9413070  97.3328850 135.5418510  46.6870660
  96.7696680 136.5598280  47.6557710 100.1931070 132.1571390  33.4935620
 101.0810690 132.4688620  33.3186960 100.1636160 131.2843640  33.1016200
  91.3022160 137.0628800  38.8996490  91.8200830 136.2597060  38.8453380
  90.8506180 137.0007940  39.7413320  96.1891660 138.3295080  34.1723790
  96.5307360 139.0737310  33.6767110  95.3604370 138.6426200  34.5348620
  91.9879820 134.4874410  48.6961740  91.6879960 134.6331590  47.7989560
  92.7591060 133.9279700  48.6035130  97.3308270 139.2843410  46.6916870
  97.3452810 138.3524370  46.4735780  96.6233370 139.3703170  47.3306640
 102.4645340 133.4683230  32.9615480 102.3809060 133.8997450  32.1111920
 103.1839530 133.9281580  33.3942300 103.5419480 135.9250750  46.0385450
 102.8167670 136.5179530  45.8414840 104.0694940 135.9174290  45.2398820
 103.4932590 140.3225490  35.6897610 102.8508750 139.6681110  35.9641330
 103.1063250 140.7280580  34.9138280  99.0719070 137.6510920  39.5369300
  99.4242890 137.0539050  38.8770670  98.1881400 137.3255150  39.7077550
  95.1582350 138.4108610  36.9439710  95.8453480 138.9577820  37.3247300
  94.3714770 138.9549340  36.9789320  87.2974750 134.0281430  32.4356790
  88.1669600 134.3106230  32.7192710  86.8065070 134.8417300  32.3205600
  94.4609560 135.4154640  36.5565070  94.9172340 136.2259890  36.7825260
  94.1097770 135.0977780  37.3883560  96.7642170 140.9260980  43.7857370
  97.4084390 141.1320360  44.4630790  97.1271610 140.1649380  43.3328220
  98.0374250 138.9293330  42.5034820  98.6796480 138.2286490  42.6166990
  98.5623600 139.7091770  42.3231710 101.8829970 139.2141950  32.2273960
 101.6567550 138.4972390  32.8198600 101.4926170 138.9654390  31.3895710
  99.8111870 139.7288230  45.7070880 100.1468110 140.3154920  46.3848800
  98.8912210 139.5980940  45.9368670  87.6646000 143.2408810  33.0018420
  88.0243640 143.8398150  32.3475690  87.5238340 143.7868700  33.7753450
  87.3615270 127.5183410  46.4894290  86.6473790 127.7180330  47.0946900
  87.7810310 126.7422980  46.8609090 101.4646220 137.1313890  33.8888120
 101.1767920 137.5926580  34.6766000 102.2598390 136.6711660  34.1572340
  87.6487860 141.5063670  47.4760820  87.7578980 140.5658410  47.3356210
  86.9968420 141.7718420  46.8274550  95.6400450 139.7779560  48.8758940
  95.3197320 139.0588800  49.4204630  94.9658810 140.4534630  48.9495000
  93.6814620 140.6240010  33.8192090  93.6724720 141.3569700  33.2036600
  92.7612980 140.3771590  33.9119050  89.2821260 135.8454900  34.5638850
  88.6749210 136.5853800  34.5734150  89.7570610 135.9354260  33.7377050
 102.2216080 128.9662660  35.0483300 101.5929240 129.0708330  34.3341530
 101.7268000 129.1859440  35.8377180  96.6674220 140.6868250  32.4817280
  96.7686200 140.4832240  31.5519260  95.7675960 140.4326530  32.6865060
  94.1900110 131.2448610  36.4641180  93.4816260 131.7134950  36.9054790
  94.4744590 130.5870620  37.0986370  95.8156040 132.6645310  44.4633710
  96.3141290 133.1391130  45.1285560  95.9578990 131.7408830  44.6703740
  95.3092330 143.2054570  37.1764950  95.5633830 143.1675960  36.2544320
  94.3604810 143.0787900  37.1693200  92.3935130 129.5533690  33.8391890
  93.2425660 129.9903840  33.7732080  92.0266400 129.8653950  34.6663950
 103.0222900 128.8813270  45.3062100 102.5196500 129.6218670  45.6455910
 103.8379560 129.2697270  44.9898890 101.3144910 134.1246450  38.7523460
 100.3735050 134.1396680  38.9271150 101.6288980 133.3382410  39.1983760
  91.2926550 135.8066050  32.3127420  92.0589820 135.6947410  32.8752850
  91.3701240 135.1104020  31.6604190  89.9873310 133.2391120  32.9960310
  90.0676900 132.2918630  33.1077710  90.8793060 133.5698000  33.1020970
 103.3170490 141.2955300  40.4277720 103.4417910 142.1186470  40.9001530
 104.1836050 141.0846030  40.0801870  90.7888020 143.3886510  40.0994850
  91.5250500 142.8401970  40.3703420  91.1728940 144.2542520  39.9600840
  87.6733500 139.4560080  35.9736360  86.7473280 139.6981220  35.9641770
  88.1389930 140.2834340  35.8521110  89.7946300 142.5732580  49.2880430
  90.5959030 142.8944630  49.7015830  89.2798120 142.2128160  50.0100340
  93.8990330 142.5616820  31.9220420  94.6918940 142.8505650  31.4702210
  93.3794680 142.1308990  31.2432900  98.6310930 138.6812450  49.2355840
  98.0249090 138.7044050  48.4951590  98.3265040 137.9495490  49.7723090
 100.0611300 142.4092740  47.8465250 101.0133050 142.3250760  47.7965490
  99.9139520 143.0734450  48.5199040 102.9520500 141.7886950  33.3457160
 102.6662010 141.3752090  32.5311340 102.7540050 142.7174660  33.2257680
  94.4167730 137.7820230  31.7862770  94.3118370 137.1672580  32.5124150
  94.2491950 137.2586120  31.0025780  94.5682050 136.4677030  47.7652000
  93.8027720 137.0362030  47.6806670  94.7498010 136.1753240  46.8720230
  97.6570460 136.8440260  32.3904760  97.1080560 137.2909560  33.0347500
  98.2789720 136.3389510  32.9142430 101.7105400 138.1982360  48.3227020
 102.4514870 138.5358120  47.8194480 100.9478080 138.3674420  47.7696790
  93.3245580 135.8031180  34.2870060  93.7462000 135.6371050  35.1301450
  93.4496420 134.9931410  33.7925200  91.4873000 131.7827730  47.0941040
  90.9569460 131.2918680  46.4664380  92.1561070 132.2111930  46.5598970
  95.8373220 134.8268790  31.5347160  96.3578880 134.1117810  31.1688310
  96.4841620 135.4654660  31.8347670 100.3851060 136.2497190  46.8582230
 100.7992080 136.4042270  47.7072650  99.4502060 136.3752410  47.0208010
 100.8573230 133.5893350  48.8621380 101.4394000 132.8345670  48.7741860
 101.0335000 134.1200790  48.0852860  95.1466290 136.2017670  44.8278160
  95.5654400 137.0450400  44.6554400  94.2274920 136.3389710  44.5984940
  97.4830190 133.9333850  46.2116000  97.6026400 133.3374990  46.9510840
  98.3424190 133.9703540  45.7917300  99.8218090 134.4871040  44.7878510
  99.2953310 135.0113660  44.1843650 100.1649430 135.1198430  45.4188240
  92.2204480 131.8764410  31.2328220  92.0193540 131.0131770  31.5941560
  92.0496530 131.7897770  30.2949820  92.9973710 142.5070680  45.9435890
  92.4594800 143.2316740  45.6244590  93.2507670 142.0301020  45.1533230
  99.6992790 126.6872640  33.7615100  99.9795080 125.8440540  34.1174520
  98.9258520 126.9195750  34.2753850  91.0187280 128.9765030  31.2206100
  91.3213180 128.9832460  30.3125250  91.7581870 128.6262890  31.7173760
  95.8535920 143.7421890  46.2022540  95.7794620 144.6457030  46.5094910
  94.9514760 143.4233790  46.1744610  94.2372210 127.9199650  32.2062300
  93.8894210 127.2423640  31.6264750  94.4384980 127.4589160  33.0205690
  96.4021250 142.9080400  33.8248900  97.2972040 143.2465370  33.8467660
  96.4338880 142.1859810  33.1973180  90.0417410 138.2807450  32.0535900
  90.4792280 138.8237120  32.7093480  90.5265140 137.4554400  32.0632240
  87.2563210 141.0696480  39.5056160  87.5866220 140.2017540  39.2734800
  87.6854210 141.2755000  40.3361120  91.8525130 139.4005490  37.1658130
  91.5520670 139.2770460  38.0662040  91.7462620 138.5414080  36.7573860
  87.7453420 141.9367070  42.2437790  87.3084410 142.1167870  43.0761940
  88.3131100 142.6941690  42.1019510 103.3815600 141.4384070  46.5315100
 102.7817590 141.4976630  45.7879020 103.5109500 140.4989050  46.6611950
 104.6217050 139.1801890  31.8684810 103.7910010 139.2478540  32.3392040
 104.7988880 140.0706010  31.5651670 104.0773510 135.9249370  34.3719010
 104.8392420 136.4946020  34.4778700 104.0927880 135.3576570  35.1427320
  87.5777850 134.4487300  38.6026670  86.9226690 134.1798940  37.9586370
  88.4155800 134.3391780  38.1528650 105.0833480 136.7799470  39.2160940
 105.4542310 135.9966790  38.8096910 105.7235410 137.4688570  39.0378240
 102.0667240 138.1636050  44.6291260 101.2527080 138.5933210  44.8917050
 102.4741440 138.7754460  44.0160310 104.1292680 136.2183740  31.5291530
 104.4041520 137.1262620  31.4010750 103.9403420 136.1546270  32.4653520
 100.5268290 129.2428590  32.8245160 100.9453170 129.0559570  31.9841820
 100.2204350 128.3907640  33.1348090 104.0258020 134.1552730  36.5220960
 103.6501620 133.3880660  36.0902250 103.2961140 134.5375430  37.0095890
 103.4157640 133.3024250  46.1560480 103.1843730 133.0737000  45.2558430
 103.6762190 134.2223800  46.1105370  86.7915930 131.6586230  34.5452000
  85.8880010 131.9216430  34.3703660  87.2756550 131.9297400  33.7651960
 103.3008980 132.3810220  39.8228200 103.8246460 131.8872870  39.1918370
 103.8868400 132.5160580  40.5675770 103.4798700 132.4650090  43.3447750
 102.5301410 132.4313630  43.4592740 103.6611710 133.3750200  43.1097520
  89.3343140 130.7151770  32.4546380  90.0434840 130.2934990  31.9693660
  88.6183080 130.7827000  31.8229730  88.9817300 126.7691100  31.4949030
  89.7045430 127.3100040  31.8130250  89.2541820 126.4954520  30.6190570
 102.7908950 131.6383570  35.7620610 103.2868070 131.4054440  36.5469490
 102.5925020 130.7995410  35.3458250 104.2196110 130.2744520  38.2958290
 104.1095390 130.1200560  39.2340560 104.9803700 129.7465460  38.0533700
 102.5661830 126.2138650  44.7541290 103.2034050 126.8272790  45.1200480
 102.7136720 126.2499310  43.8090520 105.1086380 128.1052440  31.5364430
 106.0335690 127.9733620  31.3282720 105.0862170 128.1845260  32.4900880
 105.1824870 128.8763100  34.1621140 104.3876370 128.8108220  34.6914050
 105.3868150 129.8113740  34.1506490 102.1243290 142.9154650  38.1559530
 102.7202360 142.5939220  37.4793950 102.3821440 142.4426470  38.9472800
  90.0305860 139.3472560  48.3050160  89.9875490 138.9765470  49.1864620
  90.1616870 140.2850130  48.4451980  93.7311890 140.9032150  43.9059880
  93.4903250 141.1706710  43.0190400  94.6714530 141.0737880  43.9610740
 104.9916050 142.9226530  44.7070520 104.4974330 143.3195400  43.9897650
 104.3829340 142.2975740  45.1007800  89.8693890 142.2934810  45.4247940
  89.2754210 142.1619510  46.1637980  89.8617730 141.4572950  44.9590040
 102.6755500 143.5649950  41.9857260 102.2158470 144.3165760  41.6115280
 102.0467960 142.8456420  41.9272060  89.5006120 139.6593190  44.3755980
  88.7740180 139.0398480  44.3081930  89.5615270 140.0533800  43.5054060
  93.1051220 141.8738190  41.1605390  93.6216240 141.2625550  40.6353650
  93.7548600 142.3766970  41.6516400  95.8446720 142.7646680  41.9874370
  96.1324530 142.5100980  41.1107380  96.3569940 142.2124040  42.5779940
 103.4783370 126.8375220  38.6228790 103.4171770 125.8936440  38.4759810
 104.2575400 126.9455310  39.1682250  87.7836120 142.9767580  37.5852740
  87.6158160 142.3438260  38.2834630  86.9170630 143.1826980  37.2346930
  94.9477950 128.9223630  38.0786910  94.1352460 128.5480520  37.7382790
  95.4519590 128.1668710  38.3808100 102.5937530 125.9887640  34.5910260
 102.7888160 126.8871090  34.8577690 101.8067400 125.7574720  35.0843210
  89.3898820 141.6700810  35.0302880  88.8646440 142.0508840  34.3264840
  89.3143400 142.2951580  35.7512590  90.7789290 127.3348410  33.6286570
  91.3082050 126.5478210  33.4994520  91.4117610 128.0139600  33.8622100
  92.9727130 127.0723550  36.6831960  92.3429870 126.3710860  36.8502090
  92.4332270 127.8327680  36.4665120  95.9119080 143.6862780  49.3542570
  96.8386390 143.4507050  49.3978530  95.8969510 144.5134780  48.8728600
 104.1464140 143.2288350  36.3516820 104.3216330 142.5426090  35.7077740
 103.4485710 143.7535400  35.9593490  91.9891790 143.6183190  33.9052130
  92.7210610 143.3342470  33.3576020  92.2485460 143.3796470  34.7951510
  91.1506580 139.7347920  33.9098460  90.5215460 140.2033020  34.4584290
  91.2654410 138.8897140  34.3444650 102.4796640 142.9132640  49.1783610
 103.2721960 142.4181870  48.9709570 102.7729790 143.5922780  49.7859220
  98.6056300 133.7853580  20.0599660  98.5250350 132.8708190  19.7891370
  98.1920720 134.2820650  19.3539370  96.7374340 135.5632600  21.9408930
  95.9616440 135.0833040  22.2307500  97.3887270 134.8838250  21.7665090
  90.7540170 135.8752410  22.8184690  89.9225050 135.6201120  23.2181200
  91.3621150 135.9463180  23.5542610 100.7581770 139.9692790  20.7208060
 100.2963300 139.1980030  21.0495230 101.5707320 139.9958860  21.2260510
  90.7341430 139.9092500  23.0142710  91.0369470 139.0190240  22.8352930
  91.4785020 140.4662720  22.7864960  89.1632120 130.8354300  16.6027080
  88.2748820 131.1770270  16.5006960  89.4473310 130.6354620  15.7107910
  87.1265130 133.4359950  22.4866780  87.6981240 132.6682150  22.4870420
  87.1266670 133.7348710  21.5773390  96.9845080 142.2550800  20.3412050
  96.3656520 142.7108300  19.7706490  97.8396860 142.4102260  19.9401750
  96.1783330 138.2389790  21.9479090  96.1091610 137.2979730  21.7868220
  96.9403190 138.3291200  22.5201660  88.3690000 128.8444310  24.2735710
  88.1892840 127.9470060  24.5538470  87.9670080 129.3916180  24.9482660
  97.2088500 131.0460170  22.1748020  97.5853320 130.1732050  22.0621690
  97.1108010 131.3818870  21.2838460  91.3393510 129.4185800  17.6365460
  91.4460260 130.3189530  17.9434220  90.4285870 129.3703770  17.3460110
 100.9912620 128.5410610  19.1076360 101.8122240 128.0507180  19.1501840
 101.0246700 129.1308270  19.8608200  88.9876670 131.3404810  22.8818050
  89.6686780 131.6043180  23.5005450  88.6724720 130.5005680  23.2156060
  93.1801240 132.3872170  21.9690640  93.6879460 132.8853140  22.6095660
  93.7114480 131.6107370  21.7930000 105.2812170 130.5577360  25.6719990
 104.5764340 130.9459070  25.1535100 105.5470090 131.2527650  26.2740920
  91.4637340 127.0270730  26.2354060  91.4655780 127.5443120  25.4299960
  90.6341650 126.5500910  26.2123990  97.8508430 137.1390040  17.7343960
  97.2325700 137.6039490  17.1706680  98.3631680 137.8317520  18.1513470
  92.7140190 136.6665910  24.4127560  92.3809570 137.2934830  25.0548630
  92.8906870 137.1927790  23.6329230 101.2274100 130.4810990  21.8803900
 100.5229670 130.7695880  22.4607010 101.5886260 131.2911100  21.5203460
  91.1452670 128.7380690  24.2424510  91.4869480 129.5822740  23.9478380
  90.2068480 128.8864430  24.3589850  91.9259290 138.6346710  26.2276740
  92.5433290 139.3097790  25.9461190  91.0652410 139.0434690  26.1364240
  87.2191630 137.8246570  15.1083590  86.8419610 138.3133670  14.3768490
  87.4764700 138.4971850  15.7390120 102.8436880 140.0986120  24.1431380
 102.1600400 140.7685230  24.1348050 103.3831170 140.2966770  23.3776240
 104.2961020 129.9265780  22.2713110 103.3485930 129.9604760  22.4028540
 104.6211010 130.7404730  22.6562470  94.8280560 126.2262960  20.5669100
  95.1355540 125.6709850  19.8504600  93.8981260 126.3607420  20.3842090
 100.3795620 141.9430250  22.8576560 100.3922780 141.5392540  21.9898820
  99.8270840 142.7177540  22.7537990 101.6741040 138.6646470  17.9466730
 101.5637370 137.7220800  18.0716150 101.6709290 139.0262110  18.8329490
  99.7781060 136.8460090  24.1859170 100.1949850 136.6320200  23.3512630
 100.5020880 137.1032880  24.7567790  97.2161320 134.2911790  17.3029220
  96.2890600 134.2249170  17.5317690  97.3686140 135.2291920  17.1884460
  97.2030400 130.5628790  14.2996380  96.2634070 130.7242750  14.3848840
  97.5213660 131.2814470  13.7532370 103.7243160 135.2447310  24.2775410
 102.8961790 135.3140400  23.8025540 104.3193640 135.8301620  23.8091240
 101.2458610 135.8532090  17.8064470 100.6271030 135.5151640  17.1590770
 101.2283060 135.2091850  18.5143660 100.6885170 132.0316630  25.2230280
 100.2756350 132.8570340  25.4770270  99.9561120 131.4461670  25.0306640
  92.8217960 134.8176530  20.0848950  92.4174960 134.1053780  19.5894850
  92.9081080 134.4729770  20.9736990  93.2899660 138.5044090  22.2488160
  92.9927950 137.8989560  21.5695940  94.2399480 138.5421400  22.1377520
  91.5346580 131.5919740  23.8647990  92.0861170 131.7015080  23.0901240
  92.0490090 131.9657340  24.5803220 101.3785270 142.0775960  25.9111260
 100.9015830 142.8848150  25.7183870 100.6947060 141.4254290  26.0637470
  92.3818090 138.2425780  28.8995960  91.4846620 138.4665750  29.1469360
  92.4070960 138.3660720  27.9507360  99.4223310 135.0918900  14.8137220
  99.8616590 134.2541330  14.6675040 100.1351730 135.7248300  14.9001360
  91.2089310 135.1139100  27.4753330  91.0697080 135.9861900  27.8440730
  90.3270670 134.7711910  27.3301270  97.5318690 140.0314970  18.7818460
  97.9714600 140.7739300  18.3673850  97.4705580 140.2741540  19.7057420
  93.0069660 141.0560800  29.6838480  92.9785090 141.4603750  28.8166910
  92.8434630 140.1271160  29.5210080 103.0040450 126.3461710  13.1278260
 102.6913110 126.4388540  14.0277330 103.7652920 126.9242740  13.0775690
  89.5222590 133.7121510  17.5855600  89.4020190 134.4383600  16.9736870
  89.2123480 132.9424420  17.1083510 104.9584480 141.8387900  30.9802650
 105.4344200 142.3170790  31.6591730 105.5791640 141.7705390  30.2548150
  87.1607960 136.8836650  23.3924240  87.2388380 137.0185420  22.4479960
  87.7749640 136.1752540  23.5852360  88.4055590 138.5836840  19.8030420
  87.9983670 138.7251430  18.9484020  89.2968600 138.2997000  19.6001630
 104.3617730 139.0300750  28.1402660 104.4880790 138.7912630  27.2219840
 104.4039110 138.1985290  28.6124740  98.2234470 142.7328750  26.7097470
  98.7379140 142.6436760  27.5119900  97.3803550 143.0788450  27.0025380
 100.1988870 143.0184090  16.1381470 100.0390010 142.7287030  17.0363300
 100.0335580 142.2424220  15.6026700  92.6777250 142.7982620  17.9153090
  92.5019730 141.8818160  17.7020890  91.8232990 143.1569910  18.1550890
  99.9015000 140.5271650  14.6979470  99.2080160 140.5248940  14.0381750
 100.6437860 140.1030970  14.2673640  99.4664930 142.1534360  18.7727960
  99.9221880 141.3723740  19.0866580  99.8057450 142.8641180  19.3169140
 104.2141740 131.0833210  29.1052400 103.5986010 131.5912880  28.5767860
 103.8938160 130.1831540  29.0478340  87.2167480 137.9250820  25.9318700
  87.3798520 137.4556180  25.1138070  87.6819930 137.4174380  26.5967540
  91.9886250 127.0556580  20.9679270  91.5454400 127.8366120  20.6363790
  92.5471240 127.3786470  21.6750210  96.2756060 129.9225100  26.5714590
  95.8135430 130.1308120  27.3834530  95.8734170 129.1084450  26.2685260
 101.2760570 131.1434050  27.7011250 100.4254160 130.8439800  28.0220320
 101.1162360 131.3876060  26.7895070  98.3710280 132.6435800  29.8010040
  98.6963690 131.8099550  29.4612270  99.1590610 133.1664320  29.9488370
  95.1045070 126.6767280  15.8485100  94.4799250 126.6727150  16.5738410
  95.0175190 125.8098240  15.4521070  94.0262150 127.6003910  22.8268870
  94.3234480 128.5066740  22.7460890  94.5747710 127.1122690  22.2128440
  91.7800470 132.1790150  18.6960520  91.5541390 131.9627320  19.6007140
  90.9993000 132.6118610  18.3506490  99.0098230 132.1853520  17.2951170
  98.4107120 132.9089320  17.1114790  99.5577840 132.1230300  16.5127620
  94.2199680 133.0775730  29.3620790  94.1243280 132.1370460  29.2121190
  95.0631660 133.2990800  28.9668860  97.6163100 130.8217060  19.3254450
  98.0092670 131.1389260  18.5123140  97.9779950 129.9428940  19.4398970
  89.3510220 129.4889400  27.5154570  88.9573610 130.3364610  27.7227350
  88.6628620 128.8515770  27.7063210  95.9255270 129.5724370  30.5851310
  95.2353590 129.3796570  31.2197400  96.6687570 129.8559010  31.1175610
  86.6527270 127.4117860  21.5484650  86.3640320 127.9820720  22.2609630
  87.3973030 126.9322310  21.9115880  86.8397500 131.3537980  12.7587370
  86.7572170 132.2968740  12.9002360  86.4880560 131.2112890  11.8799720
  98.2018240 133.4122810  23.4205230  97.4699360 133.9209620  23.7695330
  97.8042580 132.5952790  23.1194010  94.6395630 130.0877010  21.8257720
  94.6431690 129.6466960  20.9762260  95.5346750 130.4094340  21.9329540
  90.4898010 129.9703500  20.7851930  90.1498060 130.4478730  21.5418980
  89.7275330 129.5168620  20.4253030  94.7015780 131.0889090  14.8164480
  94.8228600 131.0475570  15.7650300  94.3164290 131.9513240  14.6611210
  98.6644150 128.8656490  22.8328170  98.6816890 129.3165140  23.6770020
  98.4159730 127.9662130  23.0461610  93.7137280 133.3990230  14.2147780
  93.1454180 132.9508480  13.5883690  94.4226280 133.7583010  13.6812930
 102.0914900 126.2788670  28.6714550 102.4160670 125.5478330  29.1972530
 102.1271410 125.9602310  27.7695540  88.7906460 137.3002250  28.0914510
  88.4061250 136.6595920  28.6897470  89.1018650 138.0038370  28.6609240
  94.9403600 134.1478790  23.5723130  95.3073730 133.6737360  24.3184470
  94.7508660 135.0220360  23.9131470  87.8044090 128.8922480  19.7016600
  87.5191010 128.5278150  20.5395220  87.7422950 128.1602940  19.0879740
  92.7302970 133.1887430  25.8907340  92.4260040 134.0679410  26.1157700
  93.6849430 133.2487220  25.9264780  91.2584760 137.3948420  16.4874190
  90.4847020 136.8546040  16.3272910  91.9879390 136.8755030  16.1491950
 102.0172740 136.3913780  22.2800580 102.7371860 136.8869070  21.8896690
 101.8154560 135.7131670  21.6354450  97.4782680 127.7851740  16.4229970
  96.6647290 127.2864910  16.3475280  97.2844630 128.6249990  16.0066320
  97.3991540 136.4622840  28.1669580  97.3328850 135.5418510  27.9127170
  96.7696680 136.5598280  28.8814220 100.1931070 132.1571390  14.7192130
 101.0810690 132.4688620  14.5443470 100.1636160 131.2843640  14.3272710
  91.3022160 137.0628800  20.1253000  91.8200830 136.2597060  20.0709890
  90.8506180 137.0007940  20.9669830  96.1891660 138.3295080  15.3980300
  96.5307360 139.0737310  14.9023620  95.3604370 138.6426200  15.7605130
  88.7866700 134.0290170  27.0378700  88.4281640 134.6944020  27.6252040
  88.4921260 133.1973720  27.4091320  91.9879820 134.4874410  29.9218250
  91.6879960 134.6331590  29.0246070  92.7591060 133.9279700  29.8291640
  97.3308270 139.2843410  27.9173380  97.3452810 138.3524370  27.6992290
  96.6233370 139.3703170  28.5563150 102.4645340 133.4683230  14.1871990
 102.3809060 133.8997450  13.3368430 103.1839530 133.9281580  14.6198810
 103.5419480 135.9250750  27.2641960 102.8167670 136.5179530  27.0671350
 104.0694940 135.9174290  26.4655330 103.4932590 140.3225490  16.9154120
 102.8508750 139.6681110  17.1897840 103.1063250 140.7280580  16.1394790
  99.0719070 137.6510920  20.7625810  99.4242890 137.0539050  20.1027180
  98.1881400 137.3255150  20.9334060  95.1582350 138.4108610  18.1696220
  95.8453480 138.9577820  18.5503810  94.3714770 138.9549340  18.2045830
  87.2974750 134.0281430  13.6613300  88.1669600 134.3106230  13.9449220
  86.8065070 134.8417300  13.5462110  94.4609560 135.4154640  17.7821580
  94.9172340 136.2259890  18.0081770  94.1097770 135.0977780  18.6140070
  96.7642170 140.9260980  25.0113880  97.4084390 141.1320360  25.6887300
  97.1271610 140.1649380  24.5584730  90.3621340 125.7592290  18.2544100
  90.2335970 125.7510190  19.2029020  89.5383360 126.0975380  17.9035110
  98.0374250 138.9293330  23.7291330  98.6796480 138.2286490  23.8423500
  98.5623600 139.7091770  23.5488220 101.8829970 139.2141950  13.4530470
 101.6567550 138.4972390  14.0455110 101.4926170 138.9654390  12.6152220
  99.8111870 139.7288230  26.9327390 100.1468110 140.3154920  27.6105310
  98.8912210 139.5980940  27.1625180  87.6646000 143.2408810  14.2274930
  88.0243640 143.8398150  13.5732200  87.5238340 143.7868700  15.0009960
  87.3615270 127.5183410  27.7150800  86.6473790 127.7180330  28.3203410
  87.7810310 126.7422980  28.0865600 101.4646220 137.1313890  15.1144630
 101.1767920 137.5926580  15.9022510 102.2598390 136.6711660  15.3828850
  87.6487860 141.5063670  28.7017330  87.7578980 140.5658410  28.5612720
  86.9968420 141.7718420  28.0531060  95.6400450 139.7779560  30.1015450
  95.3197320 139.0588800  30.6461140  94.9658810 140.4534630  30.1751510
  93.6814620 140.6240010  15.0448600  93.6724720 141.3569700  14.4293110
  92.7612980 140.3771590  15.1375560  89.2821260 135.8454900  15.7895360
  88.6749210 136.5853800  15.7990660  89.7570610 135.9354260  14.9633560
  98.8554050 130.0105720  25.4652250  99.2234870 129.1900930  25.7931820
  97.9952250 130.0707610  25.8807900 102.2216080 128.9662660  16.2739810
 101.5929240 129.0708330  15.5598040 101.7268000 129.1859440  17.0633690
  96.6674220 140.6868250  13.7073790  96.7686200 140.4832240  12.7775770
  95.7675960 140.4326530  13.9121570  94.1900110 131.2448610  17.6897690
  93.4816260 131.7134950  18.1311300  94.4744590 130.5870620  18.3242880
  95.8156040 132.6645310  25.6890220  96.3141290 133.1391130  26.3542070
  95.9578990 131.7408830  25.8960250  98.2215540 127.9699270  19.1293480
  98.0983320 127.9885400  18.1802990  99.1700100 128.0178210  19.2491880
  95.3092330 143.2054570  18.4021460  95.5633830 143.1675960  17.4800830
  94.3604810 143.0787900  18.3949710  92.3935130 129.5533690  15.0648400
  93.2425660 129.9903840  14.9988590  92.0266400 129.8653950  15.8920460
 103.0222900 128.8813270  26.5318610 102.5196500 129.6218670  26.8712420
 103.8379560 129.2697270  26.2155400 101.3144910 134.1246450  19.9779970
 100.3735050 134.1396680  20.1527660 101.6288980 133.3382410  20.4240270
  91.2926550 135.8066050  13.5383930  92.0589820 135.6947410  14.1009360
  91.3701240 135.1104020  12.8860700  89.9873310 133.2391120  14.2216820
  90.0676900 132.2918630  14.3334220  90.8793060 133.5698000  14.3277480
 103.3170490 141.2955300  21.6534230 103.4417910 142.1186470  22.1258040
 104.1836050 141.0846030  21.3058380  90.7888020 143.3886510  21.3251360
  91.5250500 142.8401970  21.5959930  91.1728940 144.2542520  21.1857350
  87.6733500 139.4560080  17.1992870  86.7473280 139.6981220  17.1898280
  88.1389930 140.2834340  17.0777620  89.7946300 142.5732580  30.5136940
  90.5959030 142.8944630  30.9272340  89.2798120 142.2128160  31.2356850
  93.8990330 142.5616820  13.1476930  94.6918940 142.8505650  12.6958720
  93.3794680 142.1308990  12.4689410  98.6310930 138.6812450  30.4612350
  98.0249090 138.7044050  29.7208100  98.3265040 137.9495490  30.9979600
 100.0611300 142.4092740  29.0721760 101.0133050 142.3250760  29.0222000
  99.9139520 143.0734450  29.7455550 102.9520500 141.7886950  14.5713670
 102.6662010 141.3752090  13.7567850 102.7540050 142.7174660  14.4514190
  87.5144110 135.0606040  29.4572990  88.0183130 134.4813320  30.0289220
  86.7751530 135.3446270  29.9949360  94.4167730 137.7820230  13.0119280
  94.3118370 137.1672580  13.7380660  94.2491950 137.2586120  12.2282290
  94.5682050 136.4677030  28.9908510  93.8027720 137.0362030  28.9063180
  94.7498010 136.1753240  28.0976740  97.6570460 136.8440260  13.6161270
  97.1080560 137.2909560  14.2604010  98.2789720 136.3389510  14.1398940
 101.7105400 138.1982360  29.5483530 102.4514870 138.5358120  29.0450990
 100.9478080 138.3674420  28.9953300  89.5467190 133.2035630  30.3523060
  89.5872530 132.9049500  31.2608290  90.4012690 133.6043240  30.1930580
  93.3245580 135.8031180  15.5126570  93.7462000 135.6371050  16.3557960
  93.4496420 134.9931410  15.0181710  91.4873000 131.7827730  28.3197550
  90.9569460 131.2918680  27.6920890  92.1561070 132.2111930  27.7855480
  95.8373220 134.8268790  12.7603670  96.3578880 134.1117810  12.3944820
  96.4841620 135.4654660  13.0604180 100.3851060 136.2497190  28.0838740
 100.7992080 136.4042270  28.9329160  99.4502060 136.3752410  28.2464520
 100.8573230 133.5893350  30.0877890 101.4394000 132.8345670  29.9998370
 101.0335000 134.1200790  29.3109370  91.9745300 128.7490100  28.3994840
  91.8802170 128.1310850  27.6745710  91.3942690 129.4756390  28.1724750
  94.7406740 127.3063340  25.4322230  94.2924040 127.3287600  24.5867780
  94.1071940 126.9082360  26.0292530  95.1466290 136.2017670  26.0534670
  95.5654400 137.0450400  25.8810910  94.2274920 136.3389710  25.8241450
  97.4830190 133.9333850  27.4372510  97.6026400 133.3374990  28.1767350
  98.3424190 133.9703540  27.0173810  99.8218090 134.4871040  26.0135020
  99.2953310 135.0113660  25.4100160 100.1649430 135.1198430  26.6444750
  92.2204480 131.8764410  12.4584730  92.0193540 131.0131770  12.8198070
  92.0496530 131.7897770  11.5206330  92.9973710 142.5070680  27.1692400
  92.4594800 143.2316740  26.8501100  93.2507670 142.0301020  26.3789740
  94.2498960 130.4755200  28.6948330  94.8398650 130.1671050  29.3826150
  93.4319200 130.0034950  28.8508230  99.0692390 130.0921010  28.9281350
  98.3807910 129.4302550  28.8631340  99.7898410 129.6459280  29.3729810
  99.6992790 126.6872640  14.9871610  99.9795080 125.8440540  15.3431030
  98.9258520 126.9195750  15.5010360  91.0187280 128.9765030  12.4462610
  91.3213180 128.9832460  11.5381760  91.7581870 128.6262890  12.9430270
  95.8535920 143.7421890  27.4279050  95.7794620 144.6457030  27.7351420
  94.9514760 143.4233790  27.4001120  94.2372210 127.9199650  13.4318810
  93.8894210 127.2423640  12.8521260  94.4384980 127.4589160  14.2462200
  96.4021250 142.9080400  15.0505410  97.2972040 143.2465370  15.0724170
  96.4338880 142.1859810  14.4229690  90.0417410 138.2807450  13.2792410
  90.4792280 138.8237120  13.9349990  90.5265140 137.4554400  13.2888750
  87.2563210 141.0696480  20.7312670  87.5866220 140.2017540  20.4991310
  87.6854210 141.2755000  21.5617630  91.8525130 139.4005490  18.3914640
  91.5520670 139.2770460  19.2918550  91.7462620 138.5414080  17.9830370
  87.7453420 141.9367070  23.4694300  87.3084410 142.1167870  24.3018450
  88.3131100 142.6941690  23.3276020 103.3815600 141.4384070  27.7571610
 102.7817590 141.4976630  27.0135530 103.5109500 140.4989050  27.8868460
 104.6217050 139.1801890  13.0941320 103.7910010 139.2478540  13.5648550
 104.7988880 140.0706010  12.7908180 104.0773510 135.9249370  15.5975520
 104.8392420 136.4946020  15.7035210 104.0927880 135.3576570  16.3683830
  87.5777850 134.4487300  19.8283180  86.9226690 134.1798940  19.1842880
  88.4155800 134.3391780  19.3785160 105.0833480 136.7799470  20.4417450
 105.4542310 135.9966790  20.0353420 105.7235410 137.4688570  20.2634750
 102.0667240 138.1636050  25.8547770 101.2527080 138.5933210  26.1173560
 102.4741440 138.7754460  25.2416820 104.1292680 136.2183740  12.7548040
 104.4041520 137.1262620  12.6267260 103.9403420 136.1546270  13.6910030
 100.5268290 129.2428590  14.0501670 100.9453170 129.0559570  13.2098330
 100.2204350 128.3907640  14.3604600 104.0258020 134.1552730  17.7477470
 103.6501620 133.3880660  17.3158760 103.2961140 134.5375430  18.2352400
  88.6153780 134.8339870  24.3686520  88.9826820 134.7467270  25.2482540
  88.0464600 134.0706420  24.2693380 103.4157640 133.3024250  27.3816990
 103.1843730 133.0737000  26.4814940 103.6762190 134.2223800  27.3361880
  88.1669780 131.7448960  28.2744940  87.2725830 131.7115720  28.6138650
  88.7067330 131.9435750  29.0396190 101.8545710 128.5280680  30.1596690
 102.7315890 128.5364080  30.5430690 101.8666550 127.7911520  29.5489040
  86.7915930 131.6586230  15.7708510  85.8880010 131.9216430  15.5960170
  87.2756550 131.9297400  14.9908470 103.3008980 132.3810220  21.0484710
 103.8246460 131.8872870  20.4174880 103.8868400 132.5160580  21.7932280
 103.4798700 132.4650090  24.5704260 102.5301410 132.4313630  24.6849250
 103.6611710 133.3750200  24.3354030  89.3343140 130.7151770  13.6802890
  90.0434840 130.2934990  13.1950170  88.6183080 130.7827000  13.0486240
  88.9817300 126.7691100  12.7205540  89.7045430 127.3100040  13.0386760
  89.2541820 126.4954520  11.8447080 102.7908950 131.6383570  16.9877120
 103.2868070 131.4054440  17.7726000 102.5925020 130.7995410  16.5714760
  88.6709490 126.0197290  22.6228160  89.3185680 125.4694670  22.1823320
  89.0911330 126.2740440  23.4443970 104.2196110 130.2744520  19.5214800
 104.1095390 130.1200560  20.4597070 104.9803700 129.7465460  19.2790210
 102.5661830 126.2138650  25.9797800 103.2034050 126.8272790  26.3456990
 102.7136720 126.2499310  25.0347030 105.1086380 128.1052440  12.7620940
 106.0335690 127.9733620  12.5539230 105.0862170 128.1845260  13.7157390
 105.1824870 128.8763100  15.3877650 104.3876370 128.8108220  15.9170560
 105.3868150 129.8113740  15.3763000 102.1243290 142.9154650  19.3816040
 102.7202360 142.5939220  18.7050460 102.3821440 142.4426470  20.1729310
  88.4241490 126.1752960  25.3653480  88.0756310 126.6316780  26.1311660
  88.0929190 125.2810090  25.4475910  90.0305860 139.3472560  29.5306670
  89.9875490 138.9765470  30.4121130  90.1616870 140.2850130  29.6708490
  93.7311890 140.9032150  25.1316390  93.4903250 141.1706710  24.2446910
  94.6714530 141.0737880  25.1867250  95.9366310 127.3664840  28.8872900
  95.8755200 127.9586670  29.6368310  96.8766690 127.2590800  28.7423160
  98.5740870 127.0234900  28.5265190  99.1881280 127.3414190  27.8646270
  99.1190430 126.5383490  29.1461050 104.9916050 142.9226530  25.9327030
 104.4974330 143.3195400  25.2154160 104.3829340 142.2975740  26.3264310
  89.0962130 125.7029160  28.6404250  89.6445120 125.5217210  27.8770360
  89.1617440 124.9123270  29.1760560  89.8693890 142.2934810  26.6504450
  89.2754210 142.1619510  27.3894490  89.8617730 141.4572950  26.1846550
  99.3148910 125.5867040  24.8534480  98.4408750 125.9202150  24.6507410
  99.2059660 125.1140220  25.6786350 100.2220890 127.7937910  26.2376200
  99.8934250 126.9789670  25.8577930 101.1703190 127.7507720  26.1141890
 102.6755500 143.5649950  23.2113770 102.2158470 144.3165760  22.8371790
 102.0467960 142.8456420  23.1528570  89.5006120 139.6593190  25.6012490
  88.7740180 139.0398480  25.5338440  89.5615270 140.0533800  24.7310570
  93.1051220 141.8738190  22.3861900  93.6216240 141.2625550  21.8610160
  93.7548600 142.3766970  22.8772910  95.8446720 142.7646680  23.2130880
  96.1324530 142.5100980  22.3363890  96.3569940 142.2124040  23.8036450
  97.0623730 126.5036880  23.7927390  96.2795520 126.9782380  24.0724150
  96.7686660 125.5991710  23.6840570 101.6144800 127.2059980  21.8376480
 102.0552890 127.1505080  20.9898080 101.3452390 128.1217990  21.9086660
 103.4783370 126.8375220  19.8485300 103.4171770 125.8936440  19.7016320
 104.2575400 126.9455310  20.3938760  87.7836120 142.9767580  18.8109250
  87.6158160 142.3438260  19.5091140  86.9170630 143.1826980  18.4603440
  88.4064140 126.8084360  16.3141110  89.1643500 126.9213240  15.7405140
  87.9441310 127.6453560  16.2684540  94.9477950 128.9223630  19.3043420
  94.1352460 128.5480520  18.9639300  95.4519590 128.1668710  19.6064610
  99.4502930 125.5866080  20.5426490 100.0532300 126.1586290  21.0175010
  98.7095920 126.1505520  20.3200390 102.5937530 125.9887640  15.8166770
 102.7888160 126.8871090  16.0834200 101.8067400 125.7574720  16.3099720
  89.3898820 141.6700810  16.2559390  88.8646440 142.0508840  15.5521350
  89.3143400 142.2951580  16.9769100  90.7789290 127.3348410  14.8543080
  91.3082050 126.5478210  14.7251030  91.4117610 128.0139600  15.0878610
  92.9727130 127.0723550  17.9088470  92.3429870 126.3710860  18.0758600
  92.4332270 127.8327680  17.6921630  95.9119080 143.6862780  30.5799080
  96.8386390 143.4507050  30.6235040  95.8969510 144.5134780  30.0985110
 104.1464140 143.2288350  17.5773330 104.3216330 142.5426090  16.9334250
 103.4485710 143.7535400  17.1850000  93.0982690 126.3507530  30.3440960
  92.8166960 126.8541130  29.5801780  93.4802390 125.5529280  29.9783090
  91.9891790 143.6183190  15.1308640  92.7210610 143.3342470  14.5832530
  92.2485460 143.3796470  16.0208020  91.1506580 139.7347920  15.1354970
  90.5215460 140.2033020  15.6840800  91.2654410 138.8897140  15.5701160
  99.6998150 125.7661110  30.9221430  99.5863600 126.0855720  31.8172950
 100.5167890 126.1673620  30.6258710 102.4796640 142.9132640  30.4040120
 103.2721960 142.4181870  30.1966080 102.7729790 143.5922780  31.0115730
  96.7374340 135.5632600   3.1665440  95.9616440 135.0833040   3.4564010
  97.3887270 134.8838250   2.9921600  90.7540170 135.8752410   4.0441200
  89.9225050 135.6201120   4.4437710  91.3621150 135.9463180   4.7799120
 100.7581770 139.9692790   1.9464570 100.2963300 139.1980030   2.2751740
 101.5707320 139.9958860   2.4517020  90.7341430 139.9092500   4.2399220
  91.0369470 139.0190240   4.0609440  91.4785020 140.4662720   4.0121470
  87.1265130 133.4359950   3.7123290  87.6981240 132.6682150   3.7126930
  87.1266670 133.7348710   2.8029900  96.1783330 138.2389790   3.1735600
  96.1091610 137.2979730   3.0124730  96.9403190 138.3291200   3.7458170
  88.3690000 128.8444310   5.4992220  88.1892840 127.9470060   5.7794980
  87.9670080 129.3916180   6.1739170  97.2088500 131.0460170   3.4004530
  97.5853320 130.1732050   3.2878200  97.1108010 131.3818870   2.5094970
  88.9876670 131.3404810   4.1074560  89.6686780 131.6043180   4.7261960
  88.6724720 130.5005680   4.4412570  93.1801240 132.3872170   3.1947150
  93.6879460 132.8853140   3.8352170  93.7114480 131.6107370   3.0186510
 105.2812170 130.5577360   6.8976500 104.5764340 130.9459070   6.3791610
 105.5470090 131.2527650   7.4997430  91.4637340 127.0270730   7.4610570
  91.4655780 127.5443120   6.6556470  90.6341650 126.5500910   7.4380500
  92.7140190 136.6665910   5.6384070  92.3809570 137.2934830   6.2805140
  92.8906870 137.1927790   4.8585740 101.2274100 130.4810990   3.1060410
 100.5229670 130.7695880   3.6863520 101.5886260 131.2911100   2.7459970
  91.1452670 128.7380690   5.4681020  91.4869480 129.5822740   5.1734890
  90.2068480 128.8864430   5.5846360  91.9259290 138.6346710   7.4533250
  92.5433290 139.3097790   7.1717700  91.0652410 139.0434690   7.3620750
 102.8436880 140.0986120   5.3687890 102.1600400 140.7685230   5.3604560
 103.3831170 140.2966770   4.6032750 104.2961020 129.9265780   3.4969620
 103.3485930 129.9604760   3.6285050 104.6211010 130.7404730   3.8818980
 100.3795620 141.9430250   4.0833070 100.3922780 141.5392540   3.2155330
  99.8270840 142.7177540   3.9794500  99.7781060 136.8460090   5.4115680
 100.1949850 136.6320200   4.5769140 100.5020880 137.1032880   5.9824300
 103.7243160 135.2447310   5.5031920 102.8961790 135.3140400   5.0282050
 104.3193640 135.8301620   5.0347750 100.6885170 132.0316630   6.4486790
 100.2756350 132.8570340   6.7026780  99.9561120 131.4461670   6.2563150
  93.2899660 138.5044090   3.4744670  92.9927950 137.8989560   2.7952450
  94.2399480 138.5421400   3.3634030  91.5346580 131.5919740   5.0904500
  92.0861170 131.7015080   4.3157750  92.0490090 131.9657340   5.8059730
 101.3785270 142.0775960   7.1367770 100.9015830 142.8848150   6.9440380
 100.6947060 141.4254290   7.2893980  92.3818090 138.2425780  10.1252470
  91.4846620 138.4665750  10.3725870  92.4070960 138.3660720   9.1763870
  91.2089310 135.1139100   8.7009840  91.0697080 135.9861900   9.0697240
  90.3270670 134.7711910   8.5557780  93.0069660 141.0560800  10.9094990
  92.9785090 141.4603750  10.0423420  92.8434630 140.1271160  10.7466590
 104.9584480 141.8387900  12.2059160 105.4344200 142.3170790  12.8848240
 105.5791640 141.7705390  11.4804660  87.1607960 136.8836650   4.6180750
  87.2388380 137.0185420   3.6736470  87.7749640 136.1752540   4.8108870
 104.3617730 139.0300750   9.3659170 104.4880790 138.7912630   8.4476350
 104.4039110 138.1985290   9.8381250  98.2234470 142.7328750   7.9353980
  98.7379140 142.6436760   8.7376410  97.3803550 143.0788450   8.2281890
 104.2141740 131.0833210  10.3308910 103.5986010 131.5912880   9.8024370
 103.8938160 130.1831540  10.2734850  87.2167480 137.9250820   7.1575210
  87.3798520 137.4556180   6.3394580  87.6819930 137.4174380   7.8224050
  91.9886250 127.0556580   2.1935780  91.5454400 127.8366120   1.8620300
  92.5471240 127.3786470   2.9006720  96.2756060 129.9225100   7.7971100
  95.8135430 130.1308120   8.6091040  95.8734170 129.1084450   7.4941770
 101.2760570 131.1434050   8.9267760 100.4254160 130.8439800   9.2476830
 101.1162360 131.3876060   8.0151580  98.3710280 132.6435800  11.0266550
  98.6963690 131.8099550  10.6868780  99.1590610 133.1664320  11.1744880
  94.0262150 127.6003910   4.0525380  94.3234480 128.5066740   3.9717400
  94.5747710 127.1122690   3.4384950  94.2199680 133.0775730  10.5877300
  94.1243280 132.1370460  10.4377700  95.0631660 133.2990800  10.1925370
  89.3510220 129.4889400   8.7411080  88.9573610 130.3364610   8.9483860
  88.6628620 128.8515770   8.9319720  95.9255270 129.5724370  11.8107820
  95.2353590 129.3796570  12.4453910  96.6687570 129.8559010  12.3432120
  86.6527270 127.4117860   2.7741160  86.3640320 127.9820720   3.4866140
  87.3973030 126.9322310   3.1372390  98.2018240 133.4122810   4.6461740
  97.4699360 133.9209620   4.9951840  97.8042580 132.5952790   4.3450520
  94.6395630 130.0877010   3.0514230  94.6431690 129.6466960   2.2018770
  95.5346750 130.4094340   3.1586050  90.4898010 129.9703500   2.0108440
  90.1498060 130.4478730   2.7675490  89.7275330 129.5168620   1.6509540
  98.6644150 128.8656490   4.0584680  98.6816890 129.3165140   4.9026530
  98.4159730 127.9662130   4.2718120 102.0914900 126.2788670   9.8971060
 102.4160670 125.5478330  10.4229040 102.1271410 125.9602310   8.9952050
  88.7906460 137.3002250   9.3171020  88.4061250 136.6595920   9.9153980
  89.1018650 138.0038370   9.8865750  94.9403600 134.1478790   4.7979640
  95.3073730 133.6737360   5.5440980  94.7508660 135.0220360   5.1387980
  92.7302970 133.1887430   7.1163850  92.4260040 134.0679410   7.3414210
  93.6849430 133.2487220   7.1521290 102.0172740 136.3913780   3.5057090
 102.7371860 136.8869070   3.1153200 101.8154560 135.7131670   2.8610960
  97.3991540 136.4622840   9.3926090  97.3328850 135.5418510   9.1383680
  96.7696680 136.5598280  10.1070730  88.7866700 134.0290170   8.2635210
  88.4281640 134.6944020   8.8508550  88.4921260 133.1973720   8.6347830
  91.9879820 134.4874410  11.1474760  91.6879960 134.6331590  10.2502580
  92.7591060 133.9279700  11.0548150  97.3308270 139.2843410   9.1429890
  97.3452810 138.3524370   8.9248800  96.6233370 139.3703170   9.7819660
 103.5419480 135.9250750   8.4898470 102.8167670 136.5179530   8.2927860
 104.0694940 135.9174290   7.6911840  96.7642170 140.9260980   6.2370390
  97.4084390 141.1320360   6.9143810  97.1271610 140.1649380   5.7841240
  98.0374250 138.9293330   4.9547840  98.6796480 138.2286490   5.0680010
  98.5623600 139.7091770   4.7744730  99.8111870 139.7288230   8.1583900
 100.1468110 140.3154920   8.8361820  98.8912210 139.5980940   8.3881690
  87.3615270 127.5183410   8.9407310  86.6473790 127.7180330   9.5459920
  87.7810310 126.7422980   9.3122110  87.6487860 141.5063670   9.9273840
  87.7578980 140.5658410   9.7869230  86.9968420 141.7718420   9.2787570
  95.6400450 139.7779560  11.3271960  95.3197320 139.0588800  11.8717650
  94.9658810 140.4534630  11.4008020  98.8554050 130.0105720   6.6908760
  99.2234870 129.1900930   7.0188330  97.9952250 130.0707610   7.1064410
  95.8156040 132.6645310   6.9146730  96.3141290 133.1391130   7.5798580
  95.9578990 131.7408830   7.1216760 103.0222900 128.8813270   7.7575120
 102.5196500 129.6218670   8.0968930 103.8379560 129.2697270   7.4411910
 103.3170490 141.2955300   2.8790740 103.4417910 142.1186470   3.3514550
 104.1836050 141.0846030   2.5314890  90.7888020 143.3886510   2.5507870
  91.5250500 142.8401970   2.8216440  91.1728940 144.2542520   2.4113860
  89.7946300 142.5732580  11.7393450  90.5959030 142.8944630  12.1528850
  89.2798120 142.2128160  12.4613360  98.6310930 138.6812450  11.6868860
  98.0249090 138.7044050  10.9464610  98.3265040 137.9495490  12.2236110
 100.0611300 142.4092740  10.2978270 101.0133050 142.3250760  10.2478510
  99.9139520 143.0734450  10.9712060  87.5144110 135.0606040  10.6829500
  88.0183130 134.4813320  11.2545730  86.7751530 135.3446270  11.2205870
  94.5682050 136.4677030  10.2165020  93.8027720 137.0362030  10.1319690
  94.7498010 136.1753240   9.3233250 101.7105400 138.1982360  10.7740040
 102.4514870 138.5358120  10.2707500 100.9478080 138.3674420  10.2209810
  89.5467190 133.2035630  11.5779570  89.5872530 132.9049500  12.4864800
  90.4012690 133.6043240  11.4187090  91.4873000 131.7827730   9.5454060
  90.9569460 131.2918680   8.9177400  92.1561070 132.2111930   9.0111990
 100.3851060 136.2497190   9.3095250 100.7992080 136.4042270  10.1585670
  99.4502060 136.3752410   9.4721030 100.8573230 133.5893350  11.3134400
 101.4394000 132.8345670  11.2254880 101.0335000 134.1200790  10.5365880
  91.9745300 128.7490100   9.6251350  91.8802170 128.1310850   8.9002220
  91.3942690 129.4756390   9.3981260  94.7406740 127.3063340   6.6578740
  94.2924040 127.3287600   5.8124290  94.1071940 126.9082360   7.2549040
  95.1466290 136.2017670   7.2791180  95.5654400 137.0450400   7.1067420
  94.2274920 136.3389710   7.0497960  97.4830190 133.9333850   8.6629020
  97.6026400 133.3374990   9.4023860  98.3424190 133.9703540   8.2430320
  99.8218090 134.4871040   7.2391530  99.2953310 135.0113660   6.6356670
 100.1649430 135.1198430   7.8701260  92.9973710 142.5070680   8.3948910
  92.4594800 143.2316740   8.0757610  93.2507670 142.0301020   7.6046250
  94.2498960 130.4755200   9.9204840  94.8398650 130.1671050  10.6082660
  93.4319200 130.0034950  10.0764740  99.0692390 130.0921010  10.1537860
  98.3807910 129.4302550  10.0887850  99.7898410 129.6459280  10.5986320
  95.8535920 143.7421890   8.6535560  95.7794620 144.6457030   8.9607930
  94.9514760 143.4233790   8.6257630  87.2563210 141.0696480   1.9569180
  87.5866220 140.2017540   1.7247820  87.6854210 141.2755000   2.7874140
  87.7453420 141.9367070   4.6950810  87.3084410 142.1167870   5.5274960
  88.3131100 142.6941690   4.5532530 103.3815600 141.4384070   8.9828120
 102.7817590 141.4976630   8.2392040 103.5109500 140.4989050   9.1124970
 102.0667240 138.1636050   7.0804280 101.2527080 138.5933210   7.3430070
 102.4741440 138.7754460   6.4673330  88.6153780 134.8339870   5.5943030
  88.9826820 134.7467270   6.4739050  88.0464600 134.0706420   5.4949890
 103.4157640 133.3024250   8.6073500 103.1843730 133.0737000   7.7071450
 103.6762190 134.2223800   8.5618390  88.1669780 131.7448960   9.5001450
  87.2725830 131.7115720   9.8395160  88.7067330 131.9435750  10.2652700
 101.8545710 128.5280680  11.3853200 102.7315890 128.5364080  11.7687200
 101.8666550 127.7911520  10.7745550 103.3008980 132.3810220   2.2741220
 103.8246460 131.8872870   1.6431390 103.8868400 132.5160580   3.0188790
 103.4798700 132.4650090   5.7960770 102.5301410 132.4313630   5.9105760
 103.6611710 133.3750200   5.5610540  88.6709490 126.0197290   3.8484670
  89.3185680 125.4694670   3.4079830  89.0911330 126.2740440   4.6700480
 102.5661830 126.2138650   7.2054310 103.2034050 126.8272790   7.5713500
 102.7136720 126.2499310   6.2603540  88.4241490 126.1752960   6.5909990
  88.0756310 126.6316780   7.3568170  88.0929190 125.2810090   6.6732420
  90.0305860 139.3472560  10.7563180  89.9875490 138.9765470  11.6377640
  90.1616870 140.2850130  10.8965000  93.7311890 140.9032150   6.3572900
  93.4903250 141.1706710   5.4703420  94.6714530 141.0737880   6.4123760
  95.9366310 127.3664840  10.1129410  95.8755200 127.9586670  10.8624820
  96.8766690 127.2590800   9.9679670  98.5740870 127.0234900   9.7521700
  99.1881280 127.3414190   9.0902780  99.1190430 126.5383490  10.3717560
 104.9916050 142.9226530   7.1583540 104.4974330 143.3195400   6.4410670
 104.3829340 142.2975740   7.5520820  89.0962130 125.7029160   9.8660760
  89.6445120 125.5217210   9.1026870  89.1617440 124.9123270  10.4017070
  89.8693890 142.2934810   7.8760960  89.2754210 142.1619510   8.6151000
  89.8617730 141.4572950   7.4103060  99.3148910 125.5867040   6.0790990
  98.4408750 125.9202150   5.8763920  99.2059660 125.1140220   6.9042860
 100.2220890 127.7937910   7.4632710  99.8934250 126.9789670   7.0834440
 101.1703190 127.7507720   7.3398400 102.6755500 143.5649950   4.4370280
 102.2158470 144.3165760   4.0628300 102.0467960 142.8456420   4.3785080
  89.5006120 139.6593190   6.8269000  88.7740180 139.0398480   6.7594950
  89.5615270 140.0533800   5.9567080  93.1051220 141.8738190   3.6118410
  93.6216240 141.2625550   3.0866670  93.7548600 142.3766970   4.1029420
  95.8446720 142.7646680   4.4387390  96.1324530 142.5100980   3.5620400
  96.3569940 142.2124040   5.0292960  97.0623730 126.5036880   5.0183900
  96.2795520 126.9782380   5.2980660  96.7686660 125.5991710   4.9097080
 101.6144800 127.2059980   3.0632990 102.0552890 127.1505080   2.2154590
 101.3452390 128.1217990   3.1343170  99.4502930 125.5866080   1.7683000
 100.0532300 126.1586290   2.2431520  98.7095920 126.1505520   1.5456900
  95.9119080 143.6862780  11.8055590  96.8386390 143.4507050  11.8491550
  95.8969510 144.5134780  11.3241620  93.0982690 126.3507530  11.5697470
  92.8166960 126.8541130  10.8058290  93.4802390 125.5529280  11.2039600
  99.6998150 125.7661110  12.1477940  99.5863600 126.0855720  13.0429460
 100.5167890 126.1673620  11.8515220 102.4796640 142.9132640  11.6296630
 103.2721960 142.4181870  11.4222590 102.7729790 143.5922780  12.2372240
  98.6056300 115.0110090 151.4804090  98.5250350 114.0964700 151.2095800
  98.1920720 115.5077160 150.7743800  96.7374340 116.7889110 153.3613360
  95.9616440 116.3089550 153.6511930  97.3887270 116.1094760 153.1869520
 100.7581770 121.1949300 152.1412490 100.2963300 120.4236540 152.4699660
 101.5707320 121.2215370 152.6464940  90.7341430 121.1349010 154.4347140
  91.0369470 120.2446750 154.2557360  91.4785020 121.6919230 154.2069390
  89.1632120 112.0610810 148.0231510  88.2748820 112.4026780 147.9211390
  89.4473310 111.8611130 147.1312340  87.1265130 114.6616460 153.9071210
  87.6981240 113.8938660 153.9074850  87.1266670 114.9605220 152.9977820
  96.9845080 123.4807310 151.7616480  96.3656520 123.9364810 151.1910920
  97.8396860 123.6358770 151.3606180  96.1783330 119.4646300 153.3683520
  96.1091610 118.5236240 153.2072650  96.9403190 119.5547710 153.9406090
  97.2088500 112.2716680 153.5952450  97.5853320 111.3988560 153.4826120
  97.1108010 112.6075380 152.7042890  91.3393510 110.6442310 149.0569890
  91.4460260 111.5446040 149.3638650  90.4285870 110.5960280 148.7664540
 100.9912620 109.7667120 150.5280790 101.8122240 109.2763690 150.5706270
 101.0246700 110.3564780 151.2812630  93.1801240 113.6128680 153.3895070
  93.6879460 114.1109650 154.0300090  93.7114480 112.8363880 153.2134430
  97.8508430 118.3646550 149.1548390  97.2325700 118.8296000 148.5911110
  98.3631680 119.0574030 149.5717900 101.2274100 111.7067500 153.3008330
 100.5229670 111.9952390 153.8811440 101.5886260 112.5167610 152.9407890
  87.2191630 119.0503080 146.5288020  86.8419610 119.5390180 145.7972920
  87.4764700 119.7228360 147.1594550 104.2961020 111.1522290 153.6917540
 103.3485930 111.1861270 153.8232970 104.6211010 111.9661240 154.0766900
  94.8280560 107.4519470 151.9873530  95.1355540 106.8966360 151.2709030
  93.8981260 107.5863930 151.8046520 100.3795620 123.1686760 154.2780990
 100.3922780 122.7649050 153.4103250  99.8270840 123.9434050 154.1742420
 101.6741040 119.8902980 149.3671160 101.5637370 118.9477310 149.4920580
 101.6709290 120.2518620 150.2533920  97.2161320 115.5168300 148.7233650
  96.2890600 115.4505680 148.9522120  97.3686140 116.4548430 148.6088890
  97.2030400 111.7885300 145.7200810  96.2634070 111.9499260 145.8053270
  97.5213660 112.5070980 145.1736800 101.2458610 117.0788600 149.2268900
 100.6271030 116.7408150 148.5795200 101.2283060 116.4348360 149.9348090
  92.8217960 116.0433040 151.5053380  92.4174960 115.3310290 151.0099280
  92.9081080 115.6986280 152.3941420  93.2899660 119.7300600 153.6692590
  92.9927950 119.1246070 152.9900370  94.2399480 119.7677910 153.5581950
  99.4223310 116.3175410 146.2341650  99.8616590 115.4797840 146.0879470
 100.1351730 116.9504810 146.3205790  97.5318690 121.2571480 150.2022890
  97.9714600 121.9995810 149.7878280  97.4705580 121.4998050 151.1261850
 103.0040450 107.5718220 144.5482690 102.6913110 107.6645050 145.4481760
 103.7652920 108.1499250 144.4980120  89.5222590 114.9378020 149.0060030
  89.4020190 115.6640110 148.3941300  89.2123480 114.1680930 148.5287940
  88.4055590 119.8093350 151.2234850  87.9983670 119.9507940 150.3688450
  89.2968600 119.5253510 151.0206060 100.1988870 124.2440600 147.5585900
 100.0390010 123.9543540 148.4567730 100.0335580 123.4680730 147.0231130
  92.6777250 124.0239130 149.3357520  92.5019730 123.1074670 149.1225320
  91.8232990 124.3826420 149.5755320  99.9015000 121.7528160 146.1183900
  99.2080160 121.7505450 145.4586180 100.6437860 121.3287480 145.6878070
  99.4664930 123.3790870 150.1932390  99.9221880 122.5980250 150.5071010
  99.8057450 124.0897690 150.7373570  91.9886250 108.2813090 152.3883700
  91.5454400 109.0622630 152.0568220  92.5471240 108.6042980 153.0954640
  95.1045070 107.9023790 147.2689530  94.4799250 107.8983660 147.9942840
  95.0175190 107.0354750 146.8725500  94.0262150 108.8260420 154.2473300
  94.3234480 109.7323250 154.1665320  94.5747710 108.3379200 153.6332870
  91.7800470 113.4046660 150.1164950  91.5541390 113.1883830 151.0211570
  90.9993000 113.8375120 149.7710920  99.0098230 113.4110030 148.7155600
  98.4107120 114.1345830 148.5319220  99.5577840 113.3486810 147.9332050
  97.6163100 112.0473570 150.7458880  98.0092670 112.3645770 149.9327570
  97.9779950 111.1685450 150.8603400  86.6527270 108.6374370 152.9689080
  86.3640320 109.2077230 153.6814060  87.3973030 108.1578820 153.3320310
  86.8397500 112.5794490 144.1791800  86.7572170 113.5225250 144.3206790
  86.4880560 112.4369400 143.3004150  94.6395630 111.3133520 153.2462150
  94.6431690 110.8723470 152.3966690  95.5346750 111.6350850 153.3533970
  90.4898010 111.1960010 152.2056360  90.1498060 111.6735240 152.9623410
  89.7275330 110.7425130 151.8457460  94.7015780 112.3145600 146.2368910
  94.8228600 112.2732080 147.1854730  94.3164290 113.1769750 146.0815640
  93.7137280 114.6246740 145.6352210  93.1454180 114.1764990 145.0088120
  94.4226280 114.9839520 145.1017360  87.8044090 110.1178990 151.1221030
  87.5191010 109.7534660 151.9599650  87.7422950 109.3859450 150.5084170
  91.2584760 118.6204930 147.9078620  90.4847020 118.0802550 147.7477340
  91.9879390 118.1011540 147.5696380 102.0172740 117.6170290 153.7005010
 102.7371860 118.1125580 153.3101120 101.8154560 116.9388180 153.0558880
  97.4782680 109.0108250 147.8434400  96.6647290 108.5121420 147.7679710
  97.2844630 109.8506500 147.4270750 100.1931070 113.3827900 146.1396560
 101.0810690 113.6945130 145.9647900 100.1636160 112.5100150 145.7477140
  91.3022160 118.2885310 151.5457430  91.8200830 117.4853570 151.4914320
  90.8506180 118.2264450 152.3874260  96.1891660 119.5551590 146.8184730
  96.5307360 120.2993820 146.3228050  95.3604370 119.8682710 147.1809560
 102.4645340 114.6939740 145.6076420 102.3809060 115.1253960 144.7572860
 103.1839530 115.1538090 146.0403240 103.4932590 121.5482000 148.3358550
 102.8508750 120.8937620 148.6102270 103.1063250 121.9537090 147.5599220
  99.0719070 118.8767430 152.1830240  99.4242890 118.2795560 151.5231610
  98.1881400 118.5511660 152.3538490  95.1582350 119.6365120 149.5900650
  95.8453480 120.1834330 149.9708240  94.3714770 120.1805850 149.6250260
  87.2974750 115.2537940 145.0817730  88.1669600 115.5362740 145.3653650
  86.8065070 116.0673810 144.9666540  94.4609560 116.6411150 149.2026010
  94.9172340 117.4516400 149.4286200  94.1097770 116.3234290 150.0344500
  90.3621340 106.9848800 149.6748530  90.2335970 106.9766700 150.6233450
  89.5383360 107.3231890 149.3239540 101.8829970 120.4398460 144.8734900
 101.6567550 119.7228900 145.4659540 101.4926170 120.1910900 144.0356650
  87.6646000 124.4665320 145.6479360  88.0243640 125.0654660 144.9936630
  87.5238340 125.0125210 146.4214390 101.4646220 118.3570400 146.5349060
 101.1767920 118.8183090 147.3226940 102.2598390 117.8968170 146.8033280
  93.6814620 121.8496520 146.4653030  93.6724720 122.5826210 145.8497540
  92.7612980 121.6028100 146.5579990  89.2821260 117.0711410 147.2099790
  88.6749210 117.8110310 147.2195090  89.7570610 117.1610770 146.3837990
 102.2216080 110.1919170 147.6944240 101.5929240 110.2964840 146.9802470
 101.7268000 110.4115950 148.4838120  96.6674220 121.9124760 145.1278220
  96.7686200 121.7088750 144.1980200  95.7675960 121.6583040 145.3326000
  94.1900110 112.4705120 149.1102120  93.4816260 112.9391460 149.5515730
  94.4744590 111.8127130 149.7447310  98.2215540 109.1955780 150.5497910
  98.0983320 109.2141910 149.6007420  99.1700100 109.2434720 150.6696310
  95.3092330 124.4311080 149.8225890  95.5633830 124.3932470 148.9005260
  94.3604810 124.3044410 149.8154140  92.3935130 110.7790200 146.4852830
  93.2425660 111.2160350 146.4193020  92.0266400 111.0910460 147.3124890
 101.3144910 115.3502960 151.3984400 100.3735050 115.3653190 151.5732090
 101.6288980 114.5638920 151.8444700  91.2926550 117.0322560 144.9588360
  92.0589820 116.9203920 145.5213790  91.3701240 116.3360530 144.3065130
  89.9873310 114.4647630 145.6421250  90.0676900 113.5175140 145.7538650
  90.8793060 114.7954510 145.7481910 103.3170490 122.5211810 153.0738660
 103.4417910 123.3442980 153.5462470 104.1836050 122.3102540 152.7262810
  90.7888020 124.6143020 152.7455790  91.5250500 124.0658480 153.0164360
  91.1728940 125.4799030 152.6061780  87.6733500 120.6816590 148.6197300
  86.7473280 120.9237730 148.6102710  88.1389930 121.5090850 148.4982050
  93.8990330 123.7873330 144.5681360  94.6918940 124.0762160 144.1163150
  93.3794680 123.3565500 143.8893840 102.9520500 123.0143460 145.9918100
 102.6662010 122.6008600 145.1772280 102.7540050 123.9431170 145.8718620
  94.4167730 119.0076740 144.4323710  94.3118370 118.3929090 145.1585090
  94.2491950 118.4842630 143.6486720  97.6570460 118.0696770 145.0365700
  97.1080560 118.5166070 145.6808440  98.2789720 117.5646020 145.5603370
  93.3245580 117.0287690 146.9331000  93.7462000 116.8627560 147.7762390
  93.4496420 116.2187920 146.4386140  95.8373220 116.0525300 144.1808100
  96.3578880 115.3374320 143.8149250  96.4841620 116.6911170 144.4808610
  92.2204480 113.1020920 143.8789160  92.0193540 112.2388280 144.2402500
  92.0496530 113.0154280 142.9410760  99.6992790 107.9129150 146.4076040
  99.9795080 107.0697050 146.7635460  98.9258520 108.1452260 146.9214790
  91.0187280 110.2021540 143.8667040  91.3213180 110.2088970 142.9586190
  91.7581870 109.8519400 144.3634700  94.2372210 109.1456160 144.8523240
  93.8894210 108.4680150 144.2725690  94.4384980 108.6845670 145.6666630
  96.4021250 124.1336910 146.4709840  97.2972040 124.4721880 146.4928600
  96.4338880 123.4116320 145.8434120  90.0417410 119.5063960 144.6996840
  90.4792280 120.0493630 145.3554420  90.5265140 118.6810910 144.7093180
  87.2563210 122.2952990 152.1517100  87.5866220 121.4274050 151.9195740
  87.6854210 122.5011510 152.9822060  91.8525130 120.6262000 149.8119070
  91.5520670 120.5026970 150.7122980  91.7462620 119.7670590 149.4034800
 104.6217050 120.4058400 144.5145750 103.7910010 120.4735050 144.9852980
 104.7988880 121.2962520 144.2112610 104.0773510 117.1505880 147.0179950
 104.8392420 117.7202530 147.1239640 104.0927880 116.5833080 147.7888260
  87.5777850 115.6743810 151.2487610  86.9226690 115.4055450 150.6047310
  88.4155800 115.5648290 150.7989590 105.0833480 118.0055980 151.8621880
 105.4542310 117.2223300 151.4557850 105.7235410 118.6945080 151.6839180
 104.1292680 117.4440250 144.1752470 104.4041520 118.3519130 144.0471690
 103.9403420 117.3802780 145.1114460 100.5268290 110.4685100 145.4706100
 100.9453170 110.2816080 144.6302760 100.2204350 109.6164150 145.7809030
 104.0258020 115.3809240 149.1681900 103.6501620 114.6137170 148.7363190
 103.2961140 115.7631940 149.6556830  86.7915930 112.8842740 147.1912940
  85.8880010 113.1472940 147.0164600  87.2756550 113.1553910 146.4112900
 103.3008980 113.6066730 152.4689140 103.8246460 113.1129380 151.8379310
 103.8868400 113.7417090 153.2136710  89.3343140 111.9408280 145.1007320
  90.0434840 111.5191500 144.6154600  88.6183080 112.0083510 144.4690670
  88.9817300 107.9947610 144.1409970  89.7045430 108.5356550 144.4591190
  89.2541820 107.7211030 143.2651510 102.7908950 112.8640080 148.4081550
 103.2868070 112.6310950 149.1930430 102.5925020 112.0251920 147.9919190
 104.2196110 111.5001030 150.9419230 104.1095390 111.3457070 151.8801500
 104.9803700 110.9721970 150.6994640 105.1086380 109.3308950 144.1825370
 106.0335690 109.1990130 143.9743660 105.0862170 109.4101770 145.1361820
 105.1824870 110.1019610 146.8082080 104.3876370 110.0364730 147.3374990
 105.3868150 111.0370250 146.7967430 102.1243290 124.1411160 150.8020470
 102.7202360 123.8195730 150.1254890 102.3821440 123.6682980 151.5933740
  93.1051220 123.0994700 153.8066330  93.6216240 122.4882060 153.2814590
  93.7548600 123.6023480 154.2977340 101.6144800 108.4316490 153.2580910
 102.0552890 108.3761590 152.4102510 101.3452390 109.3474500 153.3291090
 103.4783370 108.0631730 151.2689730 103.4171770 107.1192950 151.1220750
 104.2575400 108.1711820 151.8143190  87.7836120 124.2024090 150.2313680
  87.6158160 123.5694770 150.9295570  86.9170630 124.4083490 149.8807870
  88.4064140 108.0340870 147.7345540  89.1643500 108.1469750 147.1609570
  87.9441310 108.8710070 147.6888970  94.9477950 110.1480140 150.7247850
  94.1352460 109.7737030 150.3843730  95.4519590 109.3925220 151.0269040
  99.4502930 106.8122590 151.9630920 100.0532300 107.3842800 152.4379440
  98.7095920 107.3762030 151.7404820 102.5937530 107.2144150 147.2371200
 102.7888160 108.1127600 147.5038630 101.8067400 106.9831230 147.7304150
  89.3898820 122.8957320 147.6763820  88.8646440 123.2765350 146.9725780
  89.3143400 123.5208090 148.3973530  90.7789290 108.5604920 146.2747510
  91.3082050 107.7734720 146.1455460  91.4117610 109.2396110 146.5083040
  92.9727130 108.2980060 149.3292900  92.3429870 107.5967370 149.4963030
  92.4332270 109.0584190 149.1126060 104.1464140 124.4544860 148.9977760
 104.3216330 123.7682600 148.3538680 103.4485710 124.9791910 148.6054430
  91.9891790 124.8439700 146.5513070  92.7210610 124.5598980 146.0036960
  92.2485460 124.6052980 147.4412450  91.1506580 120.9604430 146.5559400
  90.5215460 121.4289530 147.1045230  91.2654410 120.1153650 146.9905590
  98.6056300 115.0110090 132.7060600  98.5250350 114.0964700 132.4352310
  98.1920720 115.5077160 132.0000310  96.7374340 116.7889110 134.5869870
  95.9616440 116.3089550 134.8768440  97.3887270 116.1094760 134.4126030
  90.7540170 117.1008920 135.4645630  89.9225050 116.8457630 135.8642140
  91.3621150 117.1719690 136.2003550 100.7581770 121.1949300 133.3669000
 100.2963300 120.4236540 133.6956170 101.5707320 121.2215370 133.8721450
  90.7341430 121.1349010 135.6603650  91.0369470 120.2446750 135.4813870
  91.4785020 121.6919230 135.4325900  87.1265130 114.6616460 135.1327720
  87.6981240 113.8938660 135.1331360  87.1266670 114.9605220 134.2234330
  96.9845080 123.4807310 132.9872990  96.3656520 123.9364810 132.4167430
  97.8396860 123.6358770 132.5862690  96.1783330 119.4646300 134.5940030
  96.1091610 118.5236240 134.4329160  96.9403190 119.5547710 135.1662600
  88.3690000 110.0700820 136.9196650  88.1892840 109.1726570 137.1999410
  87.9670080 110.6172690 137.5943600  97.2088500 112.2716680 134.8208960
  97.5853320 111.3988560 134.7082630  97.1108010 112.6075380 133.9299400
 100.9912620 109.7667120 131.7537300 101.8122240 109.2763690 131.7962780
 101.0246700 110.3564780 132.5069140  88.9876670 112.5661320 135.5278990
  89.6686780 112.8299690 136.1466390  88.6724720 111.7262190 135.8617000
  93.1801240 113.6128680 134.6151580  93.6879460 114.1109650 135.2556600
  93.7114480 112.8363880 134.4390940 105.2812170 111.7833870 138.3180930
 104.5764340 112.1715580 137.7996040 105.5470090 112.4784160 138.9201860
  91.4637340 108.2527240 138.8815000  91.4655780 108.7699630 138.0760900
  90.6341650 107.7757420 138.8584930  97.8508430 118.3646550 130.3804900
  97.2325700 118.8296000 129.8167620  98.3631680 119.0574030 130.7974410
  92.7140190 117.8922420 137.0588500  92.3809570 118.5191340 137.7009570
  92.8906870 118.4184300 136.2790170 101.2274100 111.7067500 134.5264840
 100.5229670 111.9952390 135.1067950 101.5886260 112.5167610 134.1664400
  91.1452670 109.9637200 136.8885450  91.4869480 110.8079250 136.5939320
  90.2068480 110.1120940 137.0050790  91.9259290 119.8603220 138.8737680
  92.5433290 120.5354300 138.5922130  91.0652410 120.2691200 138.7825180
 102.8436880 121.3242630 136.7892320 102.1600400 121.9941740 136.7808990
 103.3831170 121.5223280 136.0237180 104.2961020 111.1522290 134.9174050
 103.3485930 111.1861270 135.0489480 104.6211010 111.9661240 135.3023410
 100.3795620 123.1686760 135.5037500 100.3922780 122.7649050 134.6359760
  99.8270840 123.9434050 135.3998930 101.6741040 119.8902980 130.5927670
 101.5637370 118.9477310 130.7177090 101.6709290 120.2518620 131.4790430
  99.7781060 118.0716600 136.8320110 100.1949850 117.8576710 135.9973570
 100.5020880 118.3289390 137.4028730 103.7243160 116.4703820 136.9236350
 102.8961790 116.5396910 136.4486480 104.3193640 117.0558130 136.4552180
 101.2458610 117.0788600 130.4525410 100.6271030 116.7408150 129.8051710
 101.2283060 116.4348360 131.1604600 100.6885170 113.2573140 137.8691220
 100.2756350 114.0826850 138.1231210  99.9561120 112.6718180 137.6767580
  92.8217960 116.0433040 132.7309890  92.4174960 115.3310290 132.2355790
  92.9081080 115.6986280 133.6197930  93.2899660 119.7300600 134.8949100
  92.9927950 119.1246070 134.2156880  94.2399480 119.7677910 134.7838460
  91.5346580 112.8176250 136.5108930  92.0861170 112.9271590 135.7362180
  92.0490090 113.1913850 137.2264160 101.3785270 123.3032470 138.5572200
 100.9015830 124.1104660 138.3644810 100.6947060 122.6510800 138.7098410
  92.3818090 119.4682290 141.5456900  91.4846620 119.6922260 141.7930300
  92.4070960 119.5917230 140.5968300  99.4223310 116.3175410 127.4598160
  99.8616590 115.4797840 127.3135980 100.1351730 116.9504810 127.5462300
  91.2089310 116.3395610 140.1214270  91.0697080 117.2118410 140.4901670
  90.3270670 115.9968420 139.9762210  97.5318690 121.2571480 131.4279400
  97.9714600 121.9995810 131.0134790  97.4705580 121.4998050 132.3518360
  93.0069660 122.2817310 142.3299420  92.9785090 122.6860260 141.4627850
  92.8434630 121.3527670 142.1671020 103.0040450 107.5718220 125.7739200
 102.6913110 107.6645050 126.6738270 103.7652920 108.1499250 125.7236630
  89.5222590 114.9378020 130.2316540  89.4020190 115.6640110 129.6197810
  89.2123480 114.1680930 129.7544450 104.9584480 123.0644410 143.6263590
 105.4344200 123.5427300 144.3052670 105.5791640 122.9961900 142.9009090
  87.1607960 118.1093160 136.0385180  87.2388380 118.2441930 135.0940900
  87.7749640 117.4009050 136.2313300  88.4055590 119.8093350 132.4491360
  87.9983670 119.9507940 131.5944960  89.2968600 119.5253510 132.2462570
 104.3617730 120.2557260 140.7863600 104.4880790 120.0169140 139.8680780
 104.4039110 119.4241800 141.2585680  98.2234470 123.9585260 139.3558410
  98.7379140 123.8693270 140.1580840  97.3803550 124.3044960 139.6486320
 100.1988870 124.2440600 128.7842410 100.0390010 123.9543540 129.6824240
 100.0335580 123.4680730 128.2487640  92.6777250 124.0239130 130.5614030
  92.5019730 123.1074670 130.3481830  91.8232990 124.3826420 130.8011830
  99.9015000 121.7528160 127.3440410  99.2080160 121.7505450 126.6842690
 100.6437860 121.3287480 126.9134580  99.4664930 123.3790870 131.4188900
  99.9221880 122.5980250 131.7327520  99.8057450 124.0897690 131.9630080
 104.2141740 112.3089720 141.7513340 103.5986010 112.8169390 141.2228800
 103.8938160 111.4088050 141.6939280  87.2167480 119.1507330 138.5779640
  87.3798520 118.6812690 137.7599010  87.6819930 118.6430890 139.2428480
  96.2756060 111.1481610 139.2175530  95.8135430 111.3564630 140.0295470
  95.8734170 110.3340960 138.9146200 101.2760570 112.3690560 140.3472190
 100.4254160 112.0696310 140.6681260 101.1162360 112.6132570 139.4356010
  98.3710280 113.8692310 142.4470980  98.6963690 113.0356060 142.1073210
  99.1590610 114.3920830 142.5949310  94.0262150 108.8260420 135.4729810
  94.3234480 109.7323250 135.3921830  94.5747710 108.3379200 134.8589380
  94.2199680 114.3032240 142.0081730  94.1243280 113.3626970 141.8582130
  95.0631660 114.5247310 141.6129800  89.3510220 110.7145910 140.1615510
  88.9573610 111.5621120 140.3688290  88.6628620 110.0772280 140.3524150
  95.9255270 110.7980880 143.2312250  95.2353590 110.6053080 143.8658340
  96.6687570 111.0815520 143.7636550  86.6527270 108.6374370 134.1945590
  86.3640320 109.2077230 134.9070570  87.3973030 108.1578820 134.5576820
  86.8397500 112.5794490 125.4048310  86.7572170 113.5225250 125.5463300
  86.4880560 112.4369400 124.5260660  98.2018240 114.6379320 136.0666170
  97.4699360 115.1466130 136.4156270  97.8042580 113.8209300 135.7654950
  98.6644150 110.0913000 135.4789110  98.6816890 110.5421650 136.3230960
  98.4159730 109.1918640 135.6922550 102.0914900 107.5045180 141.3175490
 102.4160670 106.7734840 141.8433470 102.1271410 107.1858820 140.4156480
  88.7906460 118.5258760 140.7375450  88.4061250 117.8852430 141.3358410
  89.1018650 119.2294880 141.3070180  94.9403600 115.3735300 136.2184070
  95.3073730 114.8993870 136.9645410  94.7508660 116.2476870 136.5592410
  92.7302970 114.4143940 138.5368280  92.4260040 115.2935920 138.7618640
  93.6849430 114.4743730 138.5725720  91.2584760 118.6204930 129.1335130
  90.4847020 118.0802550 128.9733850  91.9879390 118.1011540 128.7952890
 102.0172740 117.6170290 134.9261520 102.7371860 118.1125580 134.5357630
 101.8154560 116.9388180 134.2815390  97.3991540 117.6879350 140.8130520
  97.3328850 116.7675020 140.5588110  96.7696680 117.7854790 141.5275160
 100.1931070 113.3827900 127.3653070 101.0810690 113.6945130 127.1904410
 100.1636160 112.5100150 126.9733650  91.3022160 118.2885310 132.7713940
  91.8200830 117.4853570 132.7170830  90.8506180 118.2264450 133.6130770
  96.1891660 119.5551590 128.0441240  96.5307360 120.2993820 127.5484560
  95.3604370 119.8682710 128.4066070  88.7866700 115.2546680 139.6839640
  88.4281640 115.9200530 140.2712980  88.4921260 114.4230230 140.0552260
  91.9879820 115.7130920 142.5679190  91.6879960 115.8588100 141.6707010
  92.7591060 115.1536210 142.4752580  97.3308270 120.5099920 140.5634320
  97.3452810 119.5780880 140.3453230  96.6233370 120.5959680 141.2024090
 102.4645340 114.6939740 126.8332930 102.3809060 115.1253960 125.9829370
 103.1839530 115.1538090 127.2659750 103.5419480 117.1507260 139.9102900
 102.8167670 117.7436040 139.7132290 104.0694940 117.1430800 139.1116270
 103.4932590 121.5482000 129.5615060 102.8508750 120.8937620 129.8358780
 103.1063250 121.9537090 128.7855730  99.0719070 118.8767430 133.4086750
  99.4242890 118.2795560 132.7488120  98.1881400 118.5511660 133.5795000
  95.1582350 119.6365120 130.8157160  95.8453480 120.1834330 131.1964750
  94.3714770 120.1805850 130.8506770  96.7642170 122.1517490 137.6574820
  97.4084390 122.3576870 138.3348240  97.1271610 121.3905890 137.2045670
  98.0374250 120.1549840 136.3752270  98.6796480 119.4543000 136.4884440
  98.5623600 120.9348280 136.1949160  99.8111870 120.9544740 139.5788330
 100.1468110 121.5411430 140.2566250  98.8912210 120.8237450 139.8086120
  87.6646000 124.4665320 126.8735870  88.0243640 125.0654660 126.2193140
  87.5238340 125.0125210 127.6470900  87.3615270 108.7439920 140.3611740
  86.6473790 108.9436840 140.9664350  87.7810310 107.9679490 140.7326540
 101.4646220 118.3570400 127.7605570 101.1767920 118.8183090 128.5483450
 102.2598390 117.8968170 128.0289790  87.6487860 122.7320180 141.3478270
  87.7578980 121.7914920 141.2073660  86.9968420 122.9974930 140.6992000
  95.6400450 121.0036070 142.7476390  95.3197320 120.2845310 143.2922080
  94.9658810 121.6791140 142.8212450  93.6814620 121.8496520 127.6909540
  93.6724720 122.5826210 127.0754050  92.7612980 121.6028100 127.7836500
  98.8554050 111.2362230 138.1113190  99.2234870 110.4157440 138.4392760
  97.9952250 111.2964120 138.5268840 102.2216080 110.1919170 128.9200750
 101.5929240 110.2964840 128.2058980 101.7268000 110.4115950 129.7094630
  96.6674220 121.9124760 126.3534730  96.7686200 121.7088750 125.4236710
  95.7675960 121.6583040 126.5582510  95.8156040 113.8901820 138.3351160
  96.3141290 114.3647640 139.0003010  95.9578990 112.9665340 138.5421190
  95.3092330 124.4311080 131.0482400  95.5633830 124.3932470 130.1261770
  94.3604810 124.3044410 131.0410650 103.0222900 110.1069780 139.1779550
 102.5196500 110.8475180 139.5173360 103.8379560 110.4953780 138.8616340
 101.3144910 115.3502960 132.6240910 100.3735050 115.3653190 132.7988600
 101.6288980 114.5638920 133.0701210 103.3170490 122.5211810 134.2995170
 103.4417910 123.3442980 134.7718980 104.1836050 122.3102540 133.9519320
  90.7888020 124.6143020 133.9712300  91.5250500 124.0658480 134.2420870
  91.1728940 125.4799030 133.8318290  87.6733500 120.6816590 129.8453810
  86.7473280 120.9237730 129.8359220  88.1389930 121.5090850 129.7238560
  89.7946300 123.7989090 143.1597880  90.5959030 124.1201140 143.5733280
  89.2798120 123.4384670 143.8817790  93.8990330 123.7873330 125.7937870
  94.6918940 124.0762160 125.3419660  93.3794680 123.3565500 125.1150350
  98.6310930 119.9068960 143.1073290  98.0249090 119.9300560 142.3669040
  98.3265040 119.1752000 143.6440540 100.0611300 123.6349250 141.7182700
 101.0133050 123.5507270 141.6682940  99.9139520 124.2990960 142.3916490
 102.9520500 123.0143460 127.2174610 102.6662010 122.6008600 126.4028790
 102.7540050 123.9431170 127.0975130  87.5144110 116.2862550 142.1033930
  88.0183130 115.7069830 142.6750160  86.7751530 116.5702780 142.6410300
  94.4167730 119.0076740 125.6580220  94.3118370 118.3929090 126.3841600
  94.2491950 118.4842630 124.8743230  94.5682050 117.6933540 141.6369450
  93.8027720 118.2618540 141.5524120  94.7498010 117.4009750 140.7437680
  97.6570460 118.0696770 126.2622210  97.1080560 118.5166070 126.9064950
  98.2789720 117.5646020 126.7859880 101.7105400 119.4238870 142.1944470
 102.4514870 119.7614630 141.6911930 100.9478080 119.5930930 141.6414240
  89.5467190 114.4292140 142.9984000  89.5872530 114.1306010 143.9069230
  90.4012690 114.8299750 142.8391520  93.3245580 117.0287690 128.1587510
  93.7462000 116.8627560 129.0018900  93.4496420 116.2187920 127.6642650
  91.4873000 113.0084240 140.9658490  90.9569460 112.5175190 140.3381830
  92.1561070 113.4368440 140.4316420  95.8373220 116.0525300 125.4064610
  96.3578880 115.3374320 125.0405760  96.4841620 116.6911170 125.7065120
 100.3851060 117.4753700 140.7299680 100.7992080 117.6298780 141.5790100
  99.4502060 117.6008920 140.8925460 100.8573230 114.8149860 142.7338830
 101.4394000 114.0602180 142.6459310 101.0335000 115.3457300 141.9570310
  91.9745300 109.9746610 141.0455780  91.8802170 109.3567360 140.3206650
  91.3942690 110.7012900 140.8185690  94.7406740 108.5319850 138.0783170
  94.2924040 108.5544110 137.2328720  94.1071940 108.1338870 138.6753470
  95.1466290 117.4274180 138.6995610  95.5654400 118.2706910 138.5271850
  94.2274920 117.5646220 138.4702390  97.4830190 115.1590360 140.0833450
  97.6026400 114.5631500 140.8228290  98.3424190 115.1960050 139.6634750
  99.8218090 115.7127550 138.6595960  99.2953310 116.2370170 138.0561100
 100.1649430 116.3454940 139.2905690  92.2204480 113.1020920 125.1045670
  92.0193540 112.2388280 125.4659010  92.0496530 113.0154280 124.1667270
  92.9973710 123.7327190 139.8153340  92.4594800 124.4573250 139.4962040
  93.2507670 123.2557530 139.0250680  94.2498960 111.7011710 141.3409270
  94.8398650 111.3927560 142.0287090  93.4319200 111.2291460 141.4969170
  99.0692390 111.3177520 141.5742290  98.3807910 110.6559060 141.5092280
  99.7898410 110.8715790 142.0190750  99.6992790 107.9129150 127.6332550
  99.9795080 107.0697050 127.9891970  98.9258520 108.1452260 128.1471300
  91.0187280 110.2021540 125.0923550  91.3213180 110.2088970 124.1842700
  91.7581870 109.8519400 125.5891210  95.8535920 124.9678400 140.0739990
  95.7794620 125.8713540 140.3812360  94.9514760 124.6490300 140.0462060
  96.4021250 124.1336910 127.6966350  97.2972040 124.4721880 127.7185110
  96.4338880 123.4116320 127.0690630  87.2563210 122.2952990 133.3773610
  87.5866220 121.4274050 133.1452250  87.6854210 122.5011510 134.2078570
  91.8525130 120.6262000 131.0375580  91.5520670 120.5026970 131.9379490
  91.7462620 119.7670590 130.6291310  87.7453420 123.1623580 136.1155240
  87.3084410 123.3424380 136.9479390  88.3131100 123.9198200 135.9736960
 103.3815600 122.6640580 140.4032550 102.7817590 122.7233140 139.6596470
 103.5109500 121.7245560 140.5329400 104.6217050 120.4058400 125.7402260
 103.7910010 120.4735050 126.2109490 104.7988880 121.2962520 125.4369120
 104.0773510 117.1505880 128.2436460 104.8392420 117.7202530 128.3496150
 104.0927880 116.5833080 129.0144770  87.5777850 115.6743810 132.4744120
  86.9226690 115.4055450 131.8303820  88.4155800 115.5648290 132.0246100
 105.0833480 118.0055980 133.0878390 105.4542310 117.2223300 132.6814360
 105.7235410 118.6945080 132.9095690 102.0667240 119.3892560 138.5008710
 101.2527080 119.8189720 138.7634500 102.4741440 120.0010970 137.8877760
 104.1292680 117.4440250 125.4008980 104.4041520 118.3519130 125.2728200
 103.9403420 117.3802780 126.3370970 100.5268290 110.4685100 126.6962610
 100.9453170 110.2816080 125.8559270 100.2204350 109.6164150 127.0065540
 104.0258020 115.3809240 130.3938410 103.6501620 114.6137170 129.9619700
 103.2961140 115.7631940 130.8813340  88.6153780 116.0596380 137.0147460
  88.9826820 115.9723780 137.8943480  88.0464600 115.2962930 136.9154320
 103.4157640 114.5280760 140.0277930 103.1843730 114.2993510 139.1275880
 103.6762190 115.4480310 139.9822820  88.1669780 112.9705470 140.9205880
  87.2725830 112.9372230 141.2599590  88.7067330 113.1692260 141.6857130
 101.8545710 109.7537190 142.8057630 102.7315890 109.7620590 143.1891630
 101.8666550 109.0168030 142.1949980 103.3008980 113.6066730 133.6945650
 103.8246460 113.1129380 133.0635820 103.8868400 113.7417090 134.4393220
 103.4798700 113.6906600 137.2165200 102.5301410 113.6570140 137.3310190
 103.6611710 114.6006710 136.9814970  88.9817300 107.9947610 125.3666480
  89.7045430 108.5356550 125.6847700  89.2541820 107.7211030 124.4908020
 102.7908950 112.8640080 129.6338060 103.2868070 112.6310950 130.4186940
 102.5925020 112.0251920 129.2175700 104.2196110 111.5001030 132.1675740
 104.1095390 111.3457070 133.1058010 104.9803700 110.9721970 131.9251150
 102.5661830 107.4395160 138.6258740 103.2034050 108.0529300 138.9917930
 102.7136720 107.4755820 137.6807970 105.1086380 109.3308950 125.4081880
 106.0335690 109.1990130 125.2000170 105.0862170 109.4101770 126.3618330
 105.1824870 110.1019610 128.0338590 104.3876370 110.0364730 128.5631500
 105.3868150 111.0370250 128.0223940 102.1243290 124.1411160 132.0276980
 102.7202360 123.8195730 131.3511400 102.3821440 123.6682980 132.8190250
  88.4241490 107.4009470 138.0114420  88.0756310 107.8573290 138.7772600
  88.0929190 106.5066600 138.0936850  90.0305860 120.5729070 142.1767610
  89.9875490 120.2021980 143.0582070  90.1616870 121.5106640 142.3169430
  93.7311890 122.1288660 137.7777330  93.4903250 122.3963220 136.8907850
  94.6714530 122.2994390 137.8328190  95.9366310 108.5921350 141.5333840
  95.8755200 109.1843180 142.2829250  96.8766690 108.4847310 141.3884100
  98.5740870 108.2491410 141.1726130  99.1881280 108.5670700 140.5107210
  99.1190430 107.7640000 141.7921990 104.9916050 124.1483040 138.5787970
 104.4974330 124.5451910 137.8615100 104.3829340 123.5232250 138.9725250
  89.0962130 106.9285670 141.2865190  89.6445120 106.7473720 140.5231300
  89.1617440 106.1379780 141.8221500  89.8693890 123.5191320 139.2965390
  89.2754210 123.3876020 140.0355430  89.8617730 122.6829460 138.8307490
  99.3148910 106.8123550 137.4995420  98.4408750 107.1458660 137.2968350
  99.2059660 106.3396730 138.3247290 100.2220890 109.0194420 138.8837140
  99.8934250 108.2046180 138.5038870 101.1703190 108.9764230 138.7602830
 102.6755500 124.7906460 135.8574710 102.2158470 125.5422270 135.4832730
 102.0467960 124.0712930 135.7989510  89.5006120 120.8849700 138.2473430
  88.7740180 120.2654990 138.1799380  89.5615270 121.2790310 137.3771510
  93.1051220 123.0994700 135.0322840  93.6216240 122.4882060 134.5071100
  93.7548600 123.6023480 135.5233850  95.8446720 123.9903190 135.8591820
  96.1324530 123.7357490 134.9824830  96.3569940 123.4380550 136.4497390
  97.0623730 107.7293390 136.4388330  96.2795520 108.2038890 136.7185090
  96.7686660 106.8248220 136.3301510 101.6144800 108.4316490 134.4837420
 102.0552890 108.3761590 133.6359020 101.3452390 109.3474500 134.5547600
 103.4783370 108.0631730 132.4946240 103.4171770 107.1192950 132.3477260
 104.2575400 108.1711820 133.0399700  87.7836120 124.2024090 131.4570190
  87.6158160 123.5694770 132.1552080  86.9170630 124.4083490 131.1064380
  99.4502930 106.8122590 133.1887430 100.0532300 107.3842800 133.6635950
  98.7095920 107.3762030 132.9661330 102.5937530 107.2144150 128.4627710
 102.7888160 108.1127600 128.7295140 101.8067400 106.9831230 128.9560660
  89.3898820 122.8957320 128.9020330  88.8646440 123.2765350 128.1982290
  89.3143400 123.5208090 129.6230040  95.9119080 124.9119290 143.2260020
  96.8386390 124.6763560 143.2695980  95.8969510 125.7391290 142.7446050
 104.1464140 124.4544860 130.2234270 104.3216330 123.7682600 129.5795190
 103.4485710 124.9791910 129.8310940  93.0982690 107.5764040 142.9901900
  92.8166960 108.0797640 142.2262720  93.4802390 106.7785790 142.6244030
  91.9891790 124.8439700 127.7769580  92.7210610 124.5598980 127.2293470
  92.2485460 124.6052980 128.6668960  91.1506580 120.9604430 127.7815910
  90.5215460 121.4289530 128.3301740  91.2654410 120.1153650 128.2162100
  99.6998150 106.9917620 143.5682370  99.5863600 107.3112230 144.4633890
 100.5167890 107.3930130 143.2719650 102.4796640 124.1389150 143.0501060
 103.2721960 123.6438380 142.8427020 102.7729790 124.8179290 143.6576670
  89.1632120 112.0610810 110.4744530  88.2748820 112.4026780 110.3724410
  89.4473310 111.8611130 109.5825360  87.1265130 114.6616460 116.3584230
  87.6981240 113.8938660 116.3587870  87.1266670 114.9605220 115.4490840
  88.3690000 110.0700820 118.1453160  88.1892840 109.1726570 118.4255920
  87.9670080 110.6172690 118.8200110  91.3393510 110.6442310 111.5082910
  91.4460260 111.5446040 111.8151670  90.4285870 110.5960280 111.2177560
 100.9912620 109.7667120 112.9793810 101.8122240 109.2763690 113.0219290
 101.0246700 110.3564780 113.7325650  91.4637340 108.2527240 120.1071510
  91.4655780 108.7699630 119.3017410  90.6341650 107.7757420 120.0841440
  91.1452670 109.9637200 118.1141960  91.4869480 110.8079250 117.8195830
  90.2068480 110.1120940 118.2307300  94.8280560 107.4519470 114.4386550
  95.1355540 106.8966360 113.7222050  93.8981260 107.5863930 114.2559540
  97.2030400 111.7885300 108.1713830  96.2634070 111.9499260 108.2566290
  97.5213660 112.5070980 107.6249820 103.7243160 116.4703820 118.1492860
 102.8961790 116.5396910 117.6742990 104.3193640 117.0558130 117.6808690
 101.2458610 117.0788600 111.6781920 100.6271030 116.7408150 111.0308220
 101.2283060 116.4348360 112.3861110  93.0069660 122.2817310 123.5555930
  92.9785090 122.6860260 122.6884360  92.8434630 121.3527670 123.3927530
 103.0040450 107.5718220 106.9995710 102.6913110 107.6645050 107.8994780
 103.7652920 108.1499250 106.9493140 104.9584480 123.0644410 124.8520100
 105.4344200 123.5427300 125.5309180 105.5791640 122.9961900 124.1265600
 104.3617730 120.2557260 122.0120110 104.4880790 120.0169140 121.0937290
 104.4039110 119.4241800 122.4842190  99.4664930 123.3790870 112.6445410
  99.9221880 122.5980250 112.9584030  99.8057450 124.0897690 113.1886590
 104.2141740 112.3089720 122.9769850 103.5986010 112.8169390 122.4485310
 103.8938160 111.4088050 122.9195790  87.2167480 119.1507330 119.8036150
  87.3798520 118.6812690 118.9855520  87.6819930 118.6430890 120.4684990
  91.9886250 108.2813090 114.8396720  91.5454400 109.0622630 114.5081240
  92.5471240 108.6042980 115.5467660  98.3710280 113.8692310 123.6727490
  98.6963690 113.0356060 123.3329720  99.1590610 114.3920830 123.8205820
  95.1045070 107.9023790 109.7202550  94.4799250 107.8983660 110.4455860
  95.0175190 107.0354750 109.3238520  94.0262150 108.8260420 116.6986320
  94.3234480 109.7323250 116.6178340  94.5747710 108.3379200 116.0845890
  94.2199680 114.3032240 123.2338240  94.1243280 113.3626970 123.0838640
  95.0631660 114.5247310 122.8386310  89.3510220 110.7145910 121.3872020
  88.9573610 111.5621120 121.5944800  88.6628620 110.0772280 121.5780660
  86.6527270 108.6374370 115.4202100  86.3640320 109.2077230 116.1327080
  87.3973030 108.1578820 115.7833330  86.8397500 112.5794490 106.6304820
  86.7572170 113.5225250 106.7719810  86.4880560 112.4369400 105.7517170
  94.7015780 112.3145600 108.6881930  94.8228600 112.2732080 109.6367750
  94.3164290 113.1769750 108.5328660  87.8044090 110.1178990 113.5734050
  87.5191010 109.7534660 114.4112670  87.7422950 109.3859450 112.9597190
  97.4782680 109.0108250 110.2947420  96.6647290 108.5121420 110.2192730
  97.2844630 109.8506500 109.8783770 100.1931070 113.3827900 108.5909580
 101.0810690 113.6945130 108.4160920 100.1636160 112.5100150 108.1990160
 102.4645340 114.6939740 108.0589440 102.3809060 115.1253960 107.2085880
 103.1839530 115.1538090 108.4916260 103.5419480 117.1507260 121.1359410
 102.8167670 117.7436040 120.9388800 104.0694940 117.1430800 120.3372780
  90.3621340 106.9848800 112.1261550  90.2335970 106.9766700 113.0746470
  89.5383360 107.3231890 111.7752560  87.6646000 124.4665320 108.0992380
  88.0243640 125.0654660 107.4449650  87.5238340 125.0125210 108.8727410
  87.3615270 108.7439920 121.5868250  86.6473790 108.9436840 122.1920860
  87.7810310 107.9679490 121.9583050  87.6487860 122.7320180 122.5734780
  87.7578980 121.7914920 122.4330170  86.9968420 122.9974930 121.9248510
 102.2216080 110.1919170 110.1457260 101.5929240 110.2964840 109.4315490
 101.7268000 110.4115950 110.9351140  98.2215540 109.1955780 113.0010930
  98.0983320 109.2141910 112.0520440  99.1700100 109.2434720 113.1209330
  92.3935130 110.7790200 108.9365850  93.2425660 111.2160350 108.8706040
  92.0266400 111.0910460 109.7637910  89.7946300 123.7989090 124.3854390
  90.5959030 124.1201140 124.7989790  89.2798120 123.4384670 125.1074300
  93.8990330 123.7873330 107.0194380  94.6918940 124.0762160 106.5676170
  93.3794680 123.3565500 106.3406860  94.5682050 117.6933540 122.8625960
  93.8027720 118.2618540 122.7780630  94.7498010 117.4009750 121.9694190
  91.4873000 113.0084240 122.1915000  90.9569460 112.5175190 121.5638340
  92.1561070 113.4368440 121.6572930 100.8573230 114.8149860 123.9595340
 101.4394000 114.0602180 123.8715820 101.0335000 115.3457300 123.1826820
  91.9745300 109.9746610 122.2712290  91.8802170 109.3567360 121.5463160
  91.3942690 110.7012900 122.0442200  95.1466290 117.4274180 119.9252120
  95.5654400 118.2706910 119.7528360  94.2274920 117.5646220 119.6958900
  97.4830190 115.1590360 121.3089960  97.6026400 114.5631500 122.0484800
  98.3424190 115.1960050 120.8891260  92.2204480 113.1020920 106.3302180
  92.0193540 112.2388280 106.6915520  92.0496530 113.0154280 105.3923780
  92.9973710 123.7327190 121.0409850  92.4594800 124.4573250 120.7218550
  93.2507670 123.2557530 120.2507190  94.2498960 111.7011710 122.5665780
  94.8398650 111.3927560 123.2543600  93.4319200 111.2291460 122.7225680
  99.6992790 107.9129150 108.8589060  99.9795080 107.0697050 109.2148480
  98.9258520 108.1452260 109.3727810  95.8535920 124.9678400 121.2996500
  95.7794620 125.8713540 121.6068870  94.9514760 124.6490300 121.2718570
 103.3815600 122.6640580 121.6289060 102.7817590 122.7233140 120.8852980
 103.5109500 121.7245560 121.7585910 104.6217050 120.4058400 106.9658770
 103.7910010 120.4735050 107.4366000 104.7988880 121.2962520 106.6625630
 104.1292680 117.4440250 106.6265490 104.4041520 118.3519130 106.4984710
 103.9403420 117.3802780 107.5627480 100.5268290 110.4685100 107.9219120
 100.9453170 110.2816080 107.0815780 100.2204350 109.6164150 108.2322050
  88.1669780 112.9705470 122.1462390  87.2725830 112.9372230 122.4856100
  88.7067330 113.1692260 122.9113640 101.8545710 109.7537190 124.0314140
 102.7315890 109.7620590 124.4148140 101.8666550 109.0168030 123.4206490
  86.7915930 112.8842740 109.6425960  85.8880010 113.1472940 109.4677620
  87.2756550 113.1553910 108.8625920  89.3343140 111.9408280 107.5520340
  90.0434840 111.5191500 107.0667620  88.6183080 112.0083510 106.9203690
 102.7908950 112.8640080 110.8594570 103.2868070 112.6310950 111.6443450
 102.5925020 112.0251920 110.4432210  88.6709490 107.2453800 116.4945610
  89.3185680 106.6951180 116.0540770  89.0911330 107.4996950 117.3161420
 104.2196110 111.5001030 113.3932250 104.1095390 111.3457070 114.3314520
 104.9803700 110.9721970 113.1507660 105.1086380 109.3308950 106.6338390
 106.0335690 109.1990130 106.4256680 105.0862170 109.4101770 107.5874840
 105.1824870 110.1019610 109.2595100 104.3876370 110.0364730 109.7888010
 105.3868150 111.0370250 109.2480450  88.4241490 107.4009470 119.2370930
  88.0756310 107.8573290 120.0029110  88.0929190 106.5066600 119.3193360
  93.7311890 122.1288660 119.0033840  93.4903250 122.3963220 118.1164360
  94.6714530 122.2994390 119.0584700 104.9916050 124.1483040 119.8044480
 104.4974330 124.5451910 119.0871610 104.3829340 123.5232250 120.1981760
  89.0962130 106.9285670 122.5121700  89.6445120 106.7473720 121.7487810
  89.1617440 106.1379780 123.0478010  93.1051220 123.0994700 116.2579350
  93.6216240 122.4882060 115.7327610  93.7548600 123.6023480 116.7490360
  95.8446720 123.9903190 117.0848330  96.1324530 123.7357490 116.2081340
  96.3569940 123.4380550 117.6753900 103.4783370 108.0631730 113.7202750
 103.4171770 107.1192950 113.5733770 104.2575400 108.1711820 114.2656210
  94.9477950 110.1480140 113.1760870  94.1352460 109.7737030 112.8356750
  95.4519590 109.3925220 113.4782060  92.9727130 108.2980060 111.7805920
  92.3429870 107.5967370 111.9476050  92.4332270 109.0584190 111.5639080
  95.9119080 124.9119290 124.4516530  96.8386390 124.6763560 124.4952490
  95.8969510 125.7391290 123.9702560  93.0982690 107.5764040 124.2158410
  92.8166960 108.0797640 123.4519230  93.4802390 106.7785790 123.8500540
  91.9891790 124.8439700 109.0026090  92.7210610 124.5598980 108.4549980
  92.2485460 124.6052980 109.8925470  99.6998150 106.9917620 124.7938880
  99.5863600 107.3112230 125.6890400 100.5167890 107.3930130 124.4976160
 102.4796640 124.1389150 124.2757570 103.2721960 123.6438380 124.0683530
 102.7729790 124.8179290 124.8833180  98.6056300 115.0110090  95.1573620
  98.5250350 114.0964700  94.8865330  98.1920720 115.5077160  94.4513330
  96.7374340 116.7889110  97.0382890  95.9616440 116.3089550  97.3281460
  97.3887270 116.1094760  96.8639050  90.7540170 117.1008920  97.9158650
  89.9225050 116.8457630  98.3155160  91.3621150 117.1719690  98.6516570
 100.7581770 121.1949300  95.8182020 100.2963300 120.4236540  96.1469190
 101.5707320 121.2215370  96.3234470  90.7341430 121.1349010  98.1116670
  91.0369470 120.2446750  97.9326890  91.4785020 121.6919230  97.8838920
  96.1783330 119.4646300  97.0453050  96.1091610 118.5236240  96.8842180
  96.9403190 119.5547710  97.6175620  93.1801240 113.6128680  97.0664600
  93.6879460 114.1109650  97.7069620  93.7114480 112.8363880  96.8903960
  97.8508430 118.3646550  92.8317920  97.2325700 118.8296000  92.2680640
  98.3631680 119.0574030  93.2487430  92.7140190 117.8922420  99.5101520
  92.3809570 118.5191340 100.1522590  92.8906870 118.4184300  98.7303190
  91.9259290 119.8603220 101.3250700  92.5433290 120.5354300 101.0435150
  91.0652410 120.2691200 101.2338200 102.8436880 121.3242630  99.2405340
 102.1600400 121.9941740  99.2322010 103.3831170 121.5223280  98.4750200
 104.2961020 111.1522290  97.3687070 103.3485930 111.1861270  97.5002500
 104.6211010 111.9661240  97.7536430 100.3795620 123.1686760  97.9550520
 100.3922780 122.7649050  97.0872780  99.8270840 123.9434050  97.8511950
  97.2161320 115.5168300  92.4003180  96.2890600 115.4505680  92.6291650
  97.3686140 116.4548430  92.2858420 100.6885170 113.2573140 100.3204240
 100.2756350 114.0826850 100.5744230  99.9561120 112.6718180 100.1280600
  92.8217960 116.0433040  95.1822910  92.4174960 115.3310290  94.6868810
  92.9081080 115.6986280  96.0710950  93.2899660 119.7300600  97.3462120
  92.9927950 119.1246070  96.6669900  94.2399480 119.7677910  97.2351480
  91.5346580 112.8176250  98.9621950  92.0861170 112.9271590  98.1875200
  92.0490090 113.1913850  99.6777180  92.3818090 119.4682290 103.9969920
  91.4846620 119.6922260 104.2443320  92.4070960 119.5917230 103.0481320
  99.4223310 116.3175410  89.9111180  99.8616590 115.4797840  89.7649000
 100.1351730 116.9504810  89.9975320  91.2089310 116.3395610 102.5727290
  91.0697080 117.2118410 102.9414690  90.3270670 115.9968420 102.4275230
  97.5318690 121.2571480  93.8792420  97.9714600 121.9995810  93.4647810
  97.4705580 121.4998050  94.8031380  93.0069660 122.2817310 104.7812440
  92.9785090 122.6860260 103.9140870  92.8434630 121.3527670 104.6184040
 104.9584480 123.0644410 106.0776610 105.4344200 123.5427300 106.7565690
 105.5791640 122.9961900 105.3522110  87.1607960 118.1093160  98.4898200
  87.2388380 118.2441930  97.5453920  87.7749640 117.4009050  98.6826320
  88.4055590 119.8093350  94.9004380  87.9983670 119.9507940  94.0457980
  89.2968600 119.5253510  94.6975590 104.3617730 120.2557260 103.2376620
 104.4880790 120.0169140 102.3193800 104.4039110 119.4241800 103.7098700
 100.1988870 124.2440600  91.2355430 100.0390010 123.9543540  92.1337260
 100.0335580 123.4680730  90.7000660  92.6777250 124.0239130  93.0127050
  92.5019730 123.1074670  92.7994850  91.8232990 124.3826420  93.2524850
  99.9015000 121.7528160  89.7953430  99.2080160 121.7505450  89.1355710
 100.6437860 121.3287480  89.3647600  99.4664930 123.3790870  93.8701920
  99.9221880 122.5980250  94.1840540  99.8057450 124.0897690  94.4143100
 104.2141740 112.3089720 104.2026360 103.5986010 112.8169390 103.6741820
 103.8938160 111.4088050 104.1452300  87.2167480 119.1507330 101.0292660
  87.3798520 118.6812690 100.2112030  87.6819930 118.6430890 101.6941500
 101.2760570 112.3690560 102.7985210 100.4254160 112.0696310 103.1194280
 101.1162360 112.6132570 101.8869030  99.0098230 113.4110030  92.3925130
  98.4107120 114.1345830  92.2088750  99.5577840 113.3486810  91.6101580
  95.9255270 110.7980880 105.6825270  95.2353590 110.6053080 106.3171360
  96.6687570 111.0815520 106.2149570  98.2018240 114.6379320  98.5179190
  97.4699360 115.1466130  98.8669290  97.8042580 113.8209300  98.2167970
 102.0914900 107.5045180 103.7688510 102.4160670 106.7734840 104.2946490
 102.1271410 107.1858820 102.8669500  88.7906460 118.5258760 103.1888470
  88.4061250 117.8852430 103.7871430  89.1018650 119.2294880 103.7583200
  94.9403600 115.3735300  98.6697090  95.3073730 114.8993870  99.4158430
  94.7508660 116.2476870  99.0105430  92.7302970 114.4143940 100.9881300
  92.4260040 115.2935920 101.2131660  93.6849430 114.4743730 101.0238740
  91.2584760 118.6204930  91.5848150  90.4847020 118.0802550  91.4246870
  91.9879390 118.1011540  91.2465910 100.1931070 113.3827900  89.8166090
 101.0810690 113.6945130  89.6417430 100.1636160 112.5100150  89.4246670
  91.3022160 118.2885310  95.2226960  91.8200830 117.4853570  95.1683850
  90.8506180 118.2264450  96.0643790  96.1891660 119.5551590  90.4954260
  96.5307360 120.2993820  89.9997580  95.3604370 119.8682710  90.8579090
  88.7866700 115.2546680 102.1352660  88.4281640 115.9200530 102.7226000
  88.4921260 114.4230230 102.5065280  91.9879820 115.7130920 105.0192210
  91.6879960 115.8588100 104.1220030  92.7591060 115.1536210 104.9265600
 102.4645340 114.6939740  89.2845950 102.3809060 115.1253960  88.4342390
 103.1839530 115.1538090  89.7172770 103.5419480 117.1507260 102.3615920
 102.8167670 117.7436040 102.1645310 104.0694940 117.1430800 101.5629290
 103.4932590 121.5482000  92.0128080 102.8508750 120.8937620  92.2871800
 103.1063250 121.9537090  91.2368750  95.1582350 119.6365120  93.2670180
  95.8453480 120.1834330  93.6477770  94.3714770 120.1805850  93.3019790
  94.4609560 116.6411150  92.8795540  94.9172340 117.4516400  93.1055730
  94.1097770 116.3234290  93.7114030 101.8829970 120.4398460  88.5504430
 101.6567550 119.7228900  89.1429070 101.4926170 120.1910900  87.7126180
  87.6646000 124.4665320  89.3248890  88.0243640 125.0654660  88.6706160
  87.5238340 125.0125210  90.0983920 101.4646220 118.3570400  90.2118590
 101.1767920 118.8183090  90.9996470 102.2598390 117.8968170  90.4802810
  87.6487860 122.7320180 103.7991290  87.7578980 121.7914920 103.6586680
  86.9968420 122.9974930 103.1505020  93.6814620 121.8496520  90.1422560
  93.6724720 122.5826210  89.5267070  92.7612980 121.6028100  90.2349520
  98.8554050 111.2362230 100.5626210  99.2234870 110.4157440 100.8905780
  97.9952250 111.2964120 100.9781860 102.2216080 110.1919170  91.3713770
 101.5929240 110.2964840  90.6572000 101.7268000 110.4115950  92.1607650
  96.6674220 121.9124760  88.8047750  96.7686200 121.7088750  87.8749730
  95.7675960 121.6583040  89.0095530  95.3092330 124.4311080  93.4995420
  95.5633830 124.3932470  92.5774790  94.3604810 124.3044410  93.4923670
 103.0222900 110.1069780 101.6292570 102.5196500 110.8475180 101.9686380
 103.8379560 110.4953780 101.3129360  91.2926550 117.0322560  88.6357890
  92.0589820 116.9203920  89.1983320  91.3701240 116.3360530  87.9834660
 103.3170490 122.5211810  96.7508190 103.4417910 123.3442980  97.2232000
 104.1836050 122.3102540  96.4032340  90.7888020 124.6143020  96.4225320
  91.5250500 124.0658480  96.6933890  91.1728940 125.4799030  96.2831310
  89.7946300 123.7989090 105.6110900  90.5959030 124.1201140 106.0246300
  89.2798120 123.4384670 106.3330810  93.8990330 123.7873330  88.2450890
  94.6918940 124.0762160  87.7932680  93.3794680 123.3565500  87.5663370
 102.9520500 123.0143460  89.6687630 102.6662010 122.6008600  88.8541810
 102.7540050 123.9431170  89.5488150  87.5144110 116.2862550 104.5546950
  88.0183130 115.7069830 105.1263180  86.7751530 116.5702780 105.0923320
  94.4167730 119.0076740  88.1093240  94.3118370 118.3929090  88.8354620
  94.2491950 118.4842630  87.3256250  97.6570460 118.0696770  88.7135230
  97.1080560 118.5166070  89.3577970  98.2789720 117.5646020  89.2372900
  89.5467190 114.4292140 105.4497020  89.5872530 114.1306010 106.3582250
  90.4012690 114.8299750 105.2904540  93.3245580 117.0287690  90.6100530
  93.7462000 116.8627560  91.4531920  93.4496420 116.2187920  90.1155670
  91.4873000 113.0084240 103.4171510  90.9569460 112.5175190 102.7894850
  92.1561070 113.4368440 102.8829440  95.8373220 116.0525300  87.8577630
  96.3578880 115.3374320  87.4918780  96.4841620 116.6911170  88.1578140
  92.9973710 123.7327190 102.2666360  92.4594800 124.4573250 101.9475060
  93.2507670 123.2557530 101.4763700  94.2498960 111.7011710 103.7922290
  94.8398650 111.3927560 104.4800110  93.4319200 111.2291460 103.9482190
  99.0692390 111.3177520 104.0255310  98.3807910 110.6559060 103.9605300
  99.7898410 110.8715790 104.4703770  96.4021250 124.1336910  90.1479370
  97.2972040 124.4721880  90.1698130  96.4338880 123.4116320  89.5203650
  90.0417410 119.5063960  88.3766370  90.4792280 120.0493630  89.0323950
  90.5265140 118.6810910  88.3862710  87.2563210 122.2952990  95.8286630
  87.5866220 121.4274050  95.5965270  87.6854210 122.5011510  96.6591590
  91.8525130 120.6262000  93.4888600  91.5520670 120.5026970  94.3892510
  91.7462620 119.7670590  93.0804330 103.3815600 122.6640580 102.8545570
 102.7817590 122.7233140 102.1109490 103.5109500 121.7245560 102.9842420
 102.0667240 119.3892560 100.9521730 101.2527080 119.8189720 101.2147520
 102.4741440 120.0010970 100.3390780 104.1292680 117.4440250  87.8522000
 104.4041520 118.3519130  87.7241220 103.9403420 117.3802780  88.7883990
 100.5268290 110.4685100  89.1475630 100.9453170 110.2816080  88.3072290
 100.2204350 109.6164150  89.4578560  88.6153780 116.0596380  99.4660480
  88.9826820 115.9723780 100.3456500  88.0464600 115.2962930  99.3667340
 103.4157640 114.5280760 102.4790950 103.1843730 114.2993510 101.5788900
 103.6762190 115.4480310 102.4335840  88.1669780 112.9705470 103.3718900
  87.2725830 112.9372230 103.7112610  88.7067330 113.1692260 104.1370150
 101.8545710 109.7537190 105.2570650 102.7315890 109.7620590 105.6404650
 101.8666550 109.0168030 104.6463000 102.7908950 112.8640080  92.0851080
 103.2868070 112.6310950  92.8699960 102.5925020 112.0251920  91.6688720
 104.2196110 111.5001030  94.6188760 104.1095390 111.3457070  95.5571030
 104.9803700 110.9721970  94.3764170 102.5661830 107.4395160 101.0771760
 103.2034050 108.0529300 101.4430950 102.7136720 107.4755820 100.1320990
 105.1086380 109.3308950  87.8594900 106.0335690 109.1990130  87.6513190
 105.0862170 109.4101770  88.8131350 105.1824870 110.1019610  90.4851610
 104.3876370 110.0364730  91.0144520 105.3868150 111.0370250  90.4736960
 102.1243290 124.1411160  94.4790000 102.7202360 123.8195730  93.8024420
 102.3821440 123.6682980  95.2703270  90.0305860 120.5729070 104.6280630
  89.9875490 120.2021980 105.5095090  90.1616870 121.5106640 104.7682450
  95.9366310 108.5921350 103.9846860  95.8755200 109.1843180 104.7342270
  96.8766690 108.4847310 103.8397120  98.5740870 108.2491410 103.6239150
  99.1881280 108.5670700 102.9620230  99.1190430 107.7640000 104.2435010
  89.8693890 123.5191320 101.7478410  89.2754210 123.3876020 102.4868450
  89.8617730 122.6829460 101.2820510 100.2220890 109.0194420 101.3350160
  99.8934250 108.2046180 100.9551890 101.1703190 108.9764230 101.2115850
 102.6755500 124.7906460  98.3087730 102.2158470 125.5422270  97.9345750
 102.0467960 124.0712930  98.2502530  89.5006120 120.8849700 100.6986450
  88.7740180 120.2654990 100.6312400  89.5615270 121.2790310  99.8284530
 103.4783370 108.0631730  94.9459260 103.4171770 107.1192950  94.7990280
 104.2575400 108.1711820  95.4912720  87.7836120 124.2024090  93.9083210
  87.6158160 123.5694770  94.6065100  86.9170630 124.4083490  93.5577400
  89.3898820 122.8957320  91.3533350  88.8646440 123.2765350  90.6495310
  89.3143400 123.5208090  92.0743060 104.1464140 124.4544860  92.6747290
 104.3216330 123.7682600  92.0308210 103.4485710 124.9791910  92.2823960
  91.9891790 124.8439700  90.2282600  92.7210610 124.5598980  89.6806490
  92.2485460 124.6052980  91.1181980  91.1506580 120.9604430  90.2328930
  90.5215460 121.4289530  90.7814760  91.2654410 120.1153650  90.6675120
  99.6998150 106.9917620 106.0195390  99.5863600 107.3112230 106.9146910
 100.5167890 107.3930130 105.7232670 100.7581770 121.1949300  77.0438530
 100.2963300 120.4236540  77.3725700 101.5707320 121.2215370  77.5490980
  96.9845080 123.4807310  76.6642520  96.3656520 123.9364810  76.0936960
  97.8396860 123.6358770  76.2632220  91.3393510 110.6442310  73.9595930
  91.4460260 111.5446040  74.2664690  90.4285870 110.5960280  73.6690580
 105.2812170 111.7833870  81.9950460 104.5764340 112.1715580  81.4765570
 105.5470090 112.4784160  82.5971390  92.7140190 117.8922420  80.7358030
  92.3809570 118.5191340  81.3779100  92.8906870 118.4184300  79.9559700
  91.9259290 119.8603220  82.5507210  92.5433290 120.5354300  82.2691660
  91.0652410 120.2691200  82.4594710  87.2191630 119.0503080  71.4314060
  86.8419610 119.5390180  70.6998960  87.4764700 119.7228360  72.0620590
  94.8280560 107.4519470  76.8899570  95.1355540 106.8966360  76.1735070
  93.8981260 107.5863930  76.7072560 100.3795620 123.1686760  79.1807030
 100.3922780 122.7649050  78.3129290  99.8270840 123.9434050  79.0768460
 100.6885170 113.2573140  81.5460750 100.2756350 114.0826850  81.8000740
  99.9561120 112.6718180  81.3537110  92.8217960 116.0433040  76.4079420
  92.4174960 115.3310290  75.9125320  92.9081080 115.6986280  77.2967460
  93.2899660 119.7300600  78.5718630  92.9927950 119.1246070  77.8926410
  94.2399480 119.7677910  78.4607990  91.5346580 112.8176250  80.1878460
  92.0861170 112.9271590  79.4131710  92.0490090 113.1913850  80.9033690
 101.3785270 123.3032470  82.2341730 100.9015830 124.1104660  82.0414340
 100.6947060 122.6510800  82.3867940  92.3818090 119.4682290  85.2226430
  91.4846620 119.6922260  85.4699830  92.4070960 119.5917230  84.2737830
  99.4223310 116.3175410  71.1367690  99.8616590 115.4797840  70.9905510
 100.1351730 116.9504810  71.2231830  91.2089310 116.3395610  83.7983800
  91.0697080 117.2118410  84.1671200  90.3270670 115.9968420  83.6531740
  93.0069660 122.2817310  86.0068950  92.9785090 122.6860260  85.1397380
  92.8434630 121.3527670  85.8440550  89.5222590 114.9378020  73.9086070
  89.4020190 115.6640110  73.2967340  89.2123480 114.1680930  73.4313980
 104.9584480 123.0644410  87.3033120 105.4344200 123.5427300  87.9822200
 105.5791640 122.9961900  86.5778620  88.4055590 119.8093350  76.1260890
  87.9983670 119.9507940  75.2714490  89.2968600 119.5253510  75.9232100
  92.6777250 124.0239130  74.2383560  92.5019730 123.1074670  74.0251360
  91.8232990 124.3826420  74.4781360  99.9015000 121.7528160  71.0209940
  99.2080160 121.7505450  70.3612220 100.6437860 121.3287480  70.5904110
  99.4664930 123.3790870  75.0958430  99.9221880 122.5980250  75.4097050
  99.8057450 124.0897690  75.6399610 104.2141740 112.3089720  85.4282870
 103.5986010 112.8169390  84.8998330 103.8938160 111.4088050  85.3708810
  87.2167480 119.1507330  82.2549170  87.3798520 118.6812690  81.4368540
  87.6819930 118.6430890  82.9198010  91.9886250 108.2813090  77.2909740
  91.5454400 109.0622630  76.9594260  92.5471240 108.6042980  77.9980680
  96.2756060 111.1481610  82.8945060  95.8135430 111.3564630  83.7065000
  95.8734170 110.3340960  82.5915730 101.2760570 112.3690560  84.0241720
 100.4254160 112.0696310  84.3450790 101.1162360 112.6132570  83.1125540
  98.3710280 113.8692310  86.1240510  98.6963690 113.0356060  85.7842740
  99.1590610 114.3920830  86.2718840  95.1045070 107.9023790  72.1715570
  94.4799250 107.8983660  72.8968880  95.0175190 107.0354750  71.7751540
  94.0262150 108.8260420  79.1499340  94.3234480 109.7323250  79.0691360
  94.5747710 108.3379200  78.5358910  91.7800470 113.4046660  75.0190990
  91.5541390 113.1883830  75.9237610  90.9993000 113.8375120  74.6736960
  94.2199680 114.3032240  85.6851260  94.1243280 113.3626970  85.5351660
  95.0631660 114.5247310  85.2899330  90.4898010 111.1960010  77.1082400
  90.1498060 111.6735240  77.8649450  89.7275330 110.7425130  76.7483500
  94.7015780 112.3145600  71.1394950  94.8228600 112.2732080  72.0880770
  94.3164290 113.1769750  70.9841680  93.7137280 114.6246740  70.5378250
  93.1454180 114.1764990  69.9114160  94.4226280 114.9839520  70.0043400
 102.0914900 107.5045180  84.9945020 102.4160670 106.7734840  85.5203000
 102.1271410 107.1858820  84.0926010  88.7906460 118.5258760  84.4144980
  88.4061250 117.8852430  85.0127940  89.1018650 119.2294880  84.9839710
  92.7302970 114.4143940  82.2137810  92.4260040 115.2935920  82.4388170
  93.6849430 114.4743730  82.2495250  91.2584760 118.6204930  72.8104660
  90.4847020 118.0802550  72.6503380  91.9879390 118.1011540  72.4722420
  97.4782680 109.0108250  72.7460440  96.6647290 108.5121420  72.6705750
  97.2844630 109.8506500  72.3296790  97.3991540 117.6879350  84.4900050
  97.3328850 116.7675020  84.2357640  96.7696680 117.7854790  85.2044690
  91.3022160 118.2885310  76.4483470  91.8200830 117.4853570  76.3940360
  90.8506180 118.2264450  77.2900300  91.9879820 115.7130920  86.2448720
  91.6879960 115.8588100  85.3476540  92.7591060 115.1536210  86.1522110
  97.3308270 120.5099920  84.2403850  97.3452810 119.5780880  84.0222760
  96.6233370 120.5959680  84.8793620  87.2974750 115.2537940  69.9843770
  88.1669600 115.5362740  70.2679690  86.8065070 116.0673810  69.8692580
  98.0374250 120.1549840  80.0521800  98.6796480 119.4543000  80.1653970
  98.5623600 120.9348280  79.8718690 101.8829970 120.4398460  69.7760940
 101.6567550 119.7228900  70.3685580 101.4926170 120.1910900  68.9382690
  87.6646000 124.4665320  70.5505400  88.0243640 125.0654660  69.8962670
  87.5238340 125.0125210  71.3240430  87.6487860 122.7320180  85.0247800
  87.7578980 121.7914920  84.8843190  86.9968420 122.9974930  84.3761530
  95.6400450 121.0036070  86.4245920  95.3197320 120.2845310  86.9691610
  94.9658810 121.6791140  86.4981980  93.6814620 121.8496520  71.3679070
  93.6724720 122.5826210  70.7523580  92.7612980 121.6028100  71.4606030
  89.2821260 117.0711410  72.1125830  88.6749210 117.8110310  72.1221130
  89.7570610 117.1610770  71.2864030  98.8554050 111.2362230  81.7882720
  99.2234870 110.4157440  82.1162290  97.9952250 111.2964120  82.2038370
  94.1900110 112.4705120  74.0128160  93.4816260 112.9391460  74.4541770
  94.4744590 111.8127130  74.6473350  95.3092330 124.4311080  74.7251930
  95.5633830 124.3932470  73.8031300  94.3604810 124.3044410  74.7180180
  92.3935130 110.7790200  71.3878870  93.2425660 111.2160350  71.3219060
  92.0266400 111.0910460  72.2150930 103.0222900 110.1069780  82.8549080
 102.5196500 110.8475180  83.1942890 103.8379560 110.4953780  82.5385870
  91.2926550 117.0322560  69.8614400  92.0589820 116.9203920  70.4239830
  91.3701240 116.3360530  69.2091170  89.9873310 114.4647630  70.5447290
  90.0676900 113.5175140  70.6564690  90.8793060 114.7954510  70.6507950
 103.3170490 122.5211810  77.9764700 103.4417910 123.3442980  78.4488510
 104.1836050 122.3102540  77.6288850  87.6733500 120.6816590  73.5223340
  86.7473280 120.9237730  73.5128750  88.1389930 121.5090850  73.4008090
  89.7946300 123.7989090  86.8367410  90.5959030 124.1201140  87.2502810
  89.2798120 123.4384670  87.5587320  98.6310930 119.9068960  86.7842820
  98.0249090 119.9300560  86.0438570  98.3265040 119.1752000  87.3210070
 100.0611300 123.6349250  85.3952230 101.0133050 123.5507270  85.3452470
  99.9139520 124.2990960  86.0686020  94.4167730 119.0076740  69.3349750
  94.3118370 118.3929090  70.0611130  94.2491950 118.4842630  68.5512760
  94.5682050 117.6933540  85.3138980  93.8027720 118.2618540  85.2293650
  94.7498010 117.4009750  84.4207210  97.6570460 118.0696770  69.9391740
  97.1080560 118.5166070  70.5834480  98.2789720 117.5646020  70.4629410
 101.7105400 119.4238870  85.8714000 102.4514870 119.7614630  85.3681460
 100.9478080 119.5930930  85.3183770  93.3245580 117.0287690  71.8357040
  93.7462000 116.8627560  72.6788430  93.4496420 116.2187920  71.3412180
  95.8373220 116.0525300  69.0834140  96.3578880 115.3374320  68.7175290
  96.4841620 116.6911170  69.3834650 100.3851060 117.4753700  84.4069210
 100.7992080 117.6298780  85.2559630  99.4502060 117.6008920  84.5694990
 100.8573230 114.8149860  86.4108360 101.4394000 114.0602180  86.3228840
 101.0335000 115.3457300  85.6339840  95.1466290 117.4274180  82.3765140
  95.5654400 118.2706910  82.2041380  94.2274920 117.5646220  82.1471920
  97.4830190 115.1590360  83.7602980  97.6026400 114.5631500  84.4997820
  98.3424190 115.1960050  83.3404280  99.8218090 115.7127550  82.3365490
  99.2953310 116.2370170  81.7330630 100.1649430 116.3454940  82.9675220
  92.2204480 113.1020920  68.7815200  92.0193540 112.2388280  69.1428540
  92.0496530 113.0154280  67.8436800  94.2498960 111.7011710  85.0178800
  94.8398650 111.3927560  85.7056620  93.4319200 111.2291460  85.1738700
  99.0692390 111.3177520  85.2511820  98.3807910 110.6559060  85.1861810
  99.7898410 110.8715790  85.6960280  99.6992790 107.9129150  71.3102080
  99.9795080 107.0697050  71.6661500  98.9258520 108.1452260  71.8240830
  91.0187280 110.2021540  68.7693080  91.3213180 110.2088970  67.8612230
  91.7581870 109.8519400  69.2660740  94.2372210 109.1456160  69.7549280
  93.8894210 108.4680150  69.1751730  94.4384980 108.6845670  70.5692670
  96.4021250 124.1336910  71.3735880  97.2972040 124.4721880  71.3954640
  96.4338880 123.4116320  70.7460160  90.0417410 119.5063960  69.6022880
  90.4792280 120.0493630  70.2580460  90.5265140 118.6810910  69.6119220
  87.2563210 122.2952990  77.0543140  87.5866220 121.4274050  76.8221780
  87.6854210 122.5011510  77.8848100  91.8525130 120.6262000  74.7145110
  91.5520670 120.5026970  75.6149020  91.7462620 119.7670590  74.3060840
 103.3815600 122.6640580  84.0802080 102.7817590 122.7233140  83.3366000
 103.5109500 121.7245560  84.2098930 104.6217050 120.4058400  69.4171790
 103.7910010 120.4735050  69.8879020 104.7988880 121.2962520  69.1138650
 104.1292680 117.4440250  69.0778510 104.4041520 118.3519130  68.9497730
 103.9403420 117.3802780  70.0140500 103.4157640 114.5280760  83.7047460
 103.1843730 114.2993510  82.8045410 103.6762190 115.4480310  83.6592350
 101.8545710 109.7537190  86.4827160 102.7315890 109.7620590  86.8661160
 101.8666550 109.0168030  85.8719510 102.5661830 107.4395160  82.3028270
 103.2034050 108.0529300  82.6687460 102.7136720 107.4755820  81.3577500
 105.1086380 109.3308950  69.0851410 106.0335690 109.1990130  68.8769700
 105.0862170 109.4101770  70.0387860 102.1243290 124.1411160  75.7046510
 102.7202360 123.8195730  75.0280930 102.3821440 123.6682980  76.4959780
  90.0305860 120.5729070  85.8537140  89.9875490 120.2021980  86.7351600
  90.1616870 121.5106640  85.9938960  98.5740870 108.2491410  84.8495660
  99.1881280 108.5670700  84.1876740  99.1190430 107.7640000  85.4691520
 104.9916050 124.1483040  82.2557500 104.4974330 124.5451910  81.5384630
 104.3829340 123.5232250  82.6494780  99.3148910 106.8123550  81.1764950
  98.4408750 107.1458660  80.9737880  99.2059660 106.3396730  82.0016820
 100.2220890 109.0194420  82.5606670  99.8934250 108.2046180  82.1808400
 101.1703190 108.9764230  82.4372360 102.6755500 124.7906460  79.5344240
 102.2158470 125.5422270  79.1602260 102.0467960 124.0712930  79.4759040
  89.5006120 120.8849700  81.9242960  88.7740180 120.2654990  81.8568910
  89.5615270 121.2790310  81.0541040  97.0623730 107.7293390  80.1157860
  96.2795520 108.2038890  80.3954620  96.7686660 106.8248220  80.0071040
  87.7836120 124.2024090  75.1339720  87.6158160 123.5694770  75.8321610
  86.9170630 124.4083490  74.7833910  89.3898820 122.8957320  72.5789860
  88.8646440 123.2765350  71.8751820  89.3143400 123.5208090  73.2999570
  90.7789290 108.5604920  71.1773550  91.3082050 107.7734720  71.0481500
  91.4117610 109.2396110  71.4109080  92.9727130 108.2980060  74.2318940
  92.3429870 107.5967370  74.3989070  92.4332270 109.0584190  74.0152100
  95.9119080 124.9119290  86.9029550  96.8386390 124.6763560  86.9465510
  95.8969510 125.7391290  86.4215580 104.1464140 124.4544860  73.9003800
 104.3216330 123.7682600  73.2564720 103.4485710 124.9791910  73.5080470
  91.1506580 120.9604430  71.4585440  90.5215460 121.4289530  72.0071270
  91.2654410 120.1153650  71.8931630 102.4796640 124.1389150  86.7270590
 103.2721960 123.6438380  86.5196550 102.7729790 124.8179290  87.3346200
  90.7540170 117.1008920  60.3671670  89.9225050 116.8457630  60.7668180
  91.3621150 117.1719690  61.1029590  89.1632120 112.0610810  54.1514060
  88.2748820 112.4026780  54.0493940  89.4473310 111.8611130  53.2594890
  88.3690000 110.0700820  61.8222690  88.1892840 109.1726570  62.1025450
  87.9670080 110.6172690  62.4969640  97.2088500 112.2716680  59.7235000
  97.5853320 111.3988560  59.6108670  97.1108010 112.6075380  58.8325440
  93.1801240 113.6128680  59.5177620  93.6879460 114.1109650  60.1582640
  93.7114480 112.8363880  59.3416980  91.4637340 108.2527240  63.7841040
  91.4655780 108.7699630  62.9786940  90.6341650 107.7757420  63.7610970
  92.7140190 117.8922420  61.9614540  92.3809570 118.5191340  62.6035610
  92.8906870 118.4184300  61.1816210 101.2274100 111.7067500  59.4290880
 100.5229670 111.9952390  60.0093990 101.5886260 112.5167610  59.0690440
  91.1452670 109.9637200  61.7911490  91.4869480 110.8079250  61.4965360
  90.2068480 110.1120940  61.9076830  91.9259290 119.8603220  63.7763720
  92.5433290 120.5354300  63.4948170  91.0652410 120.2691200  63.6851220
 103.7243160 116.4703820  61.8262390 102.8961790 116.5396910  61.3512520
 104.3193640 117.0558130  61.3578220  93.2899660 119.7300600  59.7975140
  92.9927950 119.1246070  59.1182920  94.2399480 119.7677910  59.6864500
  91.5346580 112.8176250  61.4134970  92.0861170 112.9271590  60.6388220
  92.0490090 113.1913850  62.1290200  92.3818090 119.4682290  66.4482940
  91.4846620 119.6922260  66.6956340  92.4070960 119.5917230  65.4994340
  91.2089310 116.3395610  65.0240310  91.0697080 117.2118410  65.3927710
  90.3270670 115.9968420  64.8788250 103.0040450 107.5718220  50.6765240
 102.6913110 107.6645050  51.5764310 103.7652920 108.1499250  50.6262670
  89.5222590 114.9378020  55.1342580  89.4020190 115.6640110  54.5223850
  89.2123480 114.1680930  54.6570490 100.1988870 124.2440600  53.6868450
 100.0390010 123.9543540  54.5850280 100.0335580 123.4680730  53.1513680
  94.0262150 108.8260420  60.3755850  94.3234480 109.7323250  60.2947870
  94.5747710 108.3379200  59.7615420  91.7800470 113.4046660  56.2447500
  91.5541390 113.1883830  57.1494120  90.9993000 113.8375120  55.8993470
  94.2199680 114.3032240  66.9107770  94.1243280 113.3626970  66.7608170
  95.0631660 114.5247310  66.5155840  89.3510220 110.7145910  65.0641550
  88.9573610 111.5621120  65.2714330  88.6628620 110.0772280  65.2550190
  86.6527270 108.6374370  59.0971630  86.3640320 109.2077230  59.8096610
  87.3973030 108.1578820  59.4602860  94.6395630 111.3133520  59.3744700
  94.6431690 110.8723470  58.5249240  95.5346750 111.6350850  59.4816520
  93.7137280 114.6246740  51.7634760  93.1454180 114.1764990  51.1370670
  94.4226280 114.9839520  51.2299910  88.7906460 118.5258760  65.6401490
  88.4061250 117.8852430  66.2384450  89.1018650 119.2294880  66.2096220
  94.9403600 115.3735300  61.1210110  95.3073730 114.8993870  61.8671450
  94.7508660 116.2476870  61.4618450  92.7302970 114.4143940  63.4394320
  92.4260040 115.2935920  63.6644680  93.6849430 114.4743730  63.4751760
  97.3991540 117.6879350  65.7156560  97.3328850 116.7675020  65.4614150
  96.7696680 117.7854790  66.4301200  91.9879820 115.7130920  67.4705230
  91.6879960 115.8588100  66.5733050  92.7591060 115.1536210  67.3778620
 103.5419480 117.1507260  64.8128940 102.8167670 117.7436040  64.6158330
 104.0694940 117.1430800  64.0142310  87.2974750 115.2537940  51.2100280
  88.1669600 115.5362740  51.4936200  86.8065070 116.0673810  51.0949090
  96.7642170 122.1517490  62.5600860  97.4084390 122.3576870  63.2374280
  97.1271610 121.3905890  62.1071710  99.8111870 120.9544740  64.4814370
 100.1468110 121.5411430  65.1592290  98.8912210 120.8237450  64.7112160
  87.3615270 108.7439920  65.2637780  86.6473790 108.9436840  65.8690390
  87.7810310 107.9679490  65.6352580  89.2821260 117.0711410  53.3382340
  88.6749210 117.8110310  53.3477640  89.7570610 117.1610770  52.5120540
  95.8156040 113.8901820  63.2377200  96.3141290 114.3647640  63.9029050
  95.9578990 112.9665340  63.4447230  92.3935130 110.7790200  52.6135380
  93.2425660 111.2160350  52.5475570  92.0266400 111.0910460  53.4407440
  91.2926550 117.0322560  51.0870910  92.0589820 116.9203920  51.6496340
  91.3701240 116.3360530  50.4347680  89.9873310 114.4647630  51.7703800
  90.0676900 113.5175140  51.8821200  90.8793060 114.7954510  51.8764460
  98.6310930 119.9068960  68.0099330  98.0249090 119.9300560  67.2695080
  98.3265040 119.1752000  68.5466580  87.5144110 116.2862550  67.0059970
  88.0183130 115.7069830  67.5776200  86.7751530 116.5702780  67.5436340
  94.5682050 117.6933540  66.5395490  93.8027720 118.2618540  66.4550160
  94.7498010 117.4009750  65.6463720 101.7105400 119.4238870  67.0970510
 102.4514870 119.7614630  66.5937970 100.9478080 119.5930930  66.5440280
  89.5467190 114.4292140  67.9010040  89.5872530 114.1306010  68.8095270
  90.4012690 114.8299750  67.7417560  91.4873000 113.0084240  65.8684530
  90.9569460 112.5175190  65.2407870  92.1561070 113.4368440  65.3342460
  91.9745300 109.9746610  65.9481820  91.8802170 109.3567360  65.2232690
  91.3942690 110.7012900  65.7211730  94.7406740 108.5319850  62.9809210
  94.2924040 108.5544110  62.1354760  94.1071940 108.1338870  63.5779510
  95.1466290 117.4274180  63.6021650  95.5654400 118.2706910  63.4297890
  94.2274920 117.5646220  63.3728430  92.2204480 113.1020920  50.0071710
  92.0193540 112.2388280  50.3685050  92.0496530 113.0154280  49.0693310
  94.2498960 111.7011710  66.2435310  94.8398650 111.3927560  66.9313130
  93.4319200 111.2291460  66.3995210 104.1292680 117.4440250  50.3035020
 104.4041520 118.3519130  50.1754240 103.9403420 117.3802780  51.2397010
 103.4157640 114.5280760  64.9303970 103.1843730 114.2993510  64.0301920
 103.6762190 115.4480310  64.8848860  88.1669780 112.9705470  65.8231920
  87.2725830 112.9372230  66.1625630  88.7067330 113.1692260  66.5883170
  86.7915930 112.8842740  53.3195490  85.8880010 113.1472940  53.1447150
  87.2756550 113.1553910  52.5395450  88.4241490 107.4009470  62.9140460
  88.0756310 107.8573290  63.6798640  88.0929190 106.5066600  62.9962890
  90.0305860 120.5729070  67.0793650  89.9875490 120.2021980  67.9608110
  90.1616870 121.5106640  67.2195470  93.7311890 122.1288660  62.6803370
  93.4903250 122.3963220  61.7933890  94.6714530 122.2994390  62.7354230
  95.9366310 108.5921350  66.4359880  95.8755200 109.1843180  67.1855290
  96.8766690 108.4847310  66.2910140  89.0962130 106.9285670  66.1891230
  89.6445120 106.7473720  65.4257340  89.1617440 106.1379780  66.7247540
  99.3148910 106.8123550  62.4021460  98.4408750 107.1458660  62.1994390
  99.2059660 106.3396730  63.2273330  95.8446720 123.9903190  60.7617860
  96.1324530 123.7357490  59.8850870  96.3569940 123.4380550  61.3523430
 103.4783370 108.0631730  57.3972280 103.4171770 107.1192950  57.2503300
 104.2575400 108.1711820  57.9425740 102.5937530 107.2144150  53.3653750
 102.7888160 108.1127600  53.6321180 101.8067400 106.9831230  53.8586700
  93.0982690 107.5764040  67.8927940  92.8166960 108.0797640  67.1288760
  93.4802390 106.7785790  67.5270070  99.6998150 106.9917620  68.4708410
  99.5863600 107.3112230  69.3659930 100.5167890 107.3930130  68.1745690
  96.7374340 116.7889110  40.7152420  95.9616440 116.3089550  41.0050990
  97.3887270 116.1094760  40.5408580 100.7581770 121.1949300  39.4951550
 100.2963300 120.4236540  39.8238720 101.5707320 121.2215370  40.0004000
  96.9845080 123.4807310  39.1155540  96.3656520 123.9364810  38.5449980
  97.8396860 123.6358770  38.7145240  96.1783330 119.4646300  40.7222580
  96.1091610 118.5236240  40.5611710  96.9403190 119.5547710  41.2945150
  88.3690000 110.0700820  43.0479200  88.1892840 109.1726570  43.3281960
  87.9670080 110.6172690  43.7226150  97.2088500 112.2716680  40.9491510
  97.5853320 111.3988560  40.8365180  97.1108010 112.6075380  40.0581950
 100.9912620 109.7667120  37.8819850 101.8122240 109.2763690  37.9245330
 101.0246700 110.3564780  38.6351690 105.2812170 111.7833870  44.4463480
 104.5764340 112.1715580  43.9278590 105.5470090 112.4784160  45.0484410
  91.4637340 108.2527240  45.0097550  91.4655780 108.7699630  44.2043450
  90.6341650 107.7757420  44.9867480  97.8508430 118.3646550  36.5087450
  97.2325700 118.8296000  35.9450170  98.3631680 119.0574030  36.9256960
 101.2274100 111.7067500  40.6547390 100.5229670 111.9952390  41.2350500
 101.5886260 112.5167610  40.2946950  87.2191630 119.0503080  33.8827080
  86.8419610 119.5390180  33.1511980  87.4764700 119.7228360  34.5133610
 102.8436880 121.3242630  42.9174870 102.1600400 121.9941740  42.9091540
 103.3831170 121.5223280  42.1519730 104.2961020 111.1522290  41.0456600
 103.3485930 111.1861270  41.1772030 104.6211010 111.9661240  41.4305960
  94.8280560 107.4519470  39.3412590  95.1355540 106.8966360  38.6248090
  93.8981260 107.5863930  39.1585580 100.3795620 123.1686760  41.6320050
 100.3922780 122.7649050  40.7642310  99.8270840 123.9434050  41.5281480
  99.7781060 118.0716600  42.9602660 100.1949850 117.8576710  42.1256120
 100.5020880 118.3289390  43.5311280  97.2161320 115.5168300  36.0772710
  96.2890600 115.4505680  36.3061180  97.3686140 116.4548430  35.9627950
  91.2089310 116.3395610  46.2496820  91.0697080 117.2118410  46.6184220
  90.3270670 115.9968420  46.1044760  97.5318690 121.2571480  37.5561950
  97.9714600 121.9995810  37.1417340  97.4705580 121.4998050  38.4800910
 103.0040450 107.5718220  31.9021750 102.6913110 107.6645050  32.8020820
 103.7652920 108.1499250  31.8519180 100.1988870 124.2440600  34.9124960
 100.0390010 123.9543540  35.8106790 100.0335580 123.4680730  34.3770190
  92.6777250 124.0239130  36.6896580  92.5019730 123.1074670  36.4764380
  91.8232990 124.3826420  36.9294380  99.9015000 121.7528160  33.4722960
  99.2080160 121.7505450  32.8125240 100.6437860 121.3287480  33.0417130
  99.4664930 123.3790870  37.5471450  99.9221880 122.5980250  37.8610070
  99.8057450 124.0897690  38.0912630  95.1045070 107.9023790  34.6228590
  94.4799250 107.8983660  35.3481900  95.0175190 107.0354750  34.2264560
  94.2199680 114.3032240  48.1364280  94.1243280 113.3626970  47.9864680
  95.0631660 114.5247310  47.7412350  97.6163100 112.0473570  38.0997940
  98.0092670 112.3645770  37.2866630  97.9779950 111.1685450  38.2142460
  86.6527270 108.6374370  40.3228140  86.3640320 109.2077230  41.0353120
  87.3973030 108.1578820  40.6859370  98.2018240 114.6379320  42.1948720
  97.4699360 115.1466130  42.5438820  97.8042580 113.8209300  41.8937500
  98.6644150 110.0913000  41.6071660  98.6816890 110.5421650  42.4513510
  98.4159730 109.1918640  41.8205100  91.2584760 118.6204930  35.2617680
  90.4847020 118.0802550  35.1016400  91.9879390 118.1011540  34.9235440
  97.4782680 109.0108250  35.1973460  96.6647290 108.5121420  35.1218770
  97.2844630 109.8506500  34.7809810  96.1891660 119.5551590  34.1723790
  96.5307360 120.2993820  33.6767110  95.3604370 119.8682710  34.5348620
  88.7866700 115.2546680  45.8122190  88.4281640 115.9200530  46.3995530
  88.4921260 114.4230230  46.1834810  91.9879820 115.7130920  48.6961740
  91.6879960 115.8588100  47.7989560  92.7591060 115.1536210  48.6035130
  99.0719070 118.8767430  39.5369300  99.4242890 118.2795560  38.8770670
  98.1881400 118.5511660  39.7077550  95.1582350 119.6365120  36.9439710
  95.8453480 120.1834330  37.3247300  94.3714770 120.1805850  36.9789320
  94.4609560 116.6411150  36.5565070  94.9172340 117.4516400  36.7825260
  94.1097770 116.3234290  37.3883560  90.3621340 106.9848800  37.0287590
  90.2335970 106.9766700  37.9772510  89.5383360 107.3231890  36.6778600
  98.0374250 120.1549840  42.5034820  98.6796480 119.4543000  42.6166990
  98.5623600 120.9348280  42.3231710  87.6487860 122.7320180  47.4760820
  87.7578980 121.7914920  47.3356210  86.9968420 122.9974930  46.8274550
  93.6814620 121.8496520  33.8192090  93.6724720 122.5826210  33.2036600
  92.7612980 121.6028100  33.9119050  89.2821260 117.0711410  34.5638850
  88.6749210 117.8110310  34.5734150  89.7570610 117.1610770  33.7377050
 102.2216080 110.1919170  35.0483300 101.5929240 110.2964840  34.3341530
 101.7268000 110.4115950  35.8377180  96.6674220 121.9124760  32.4817280
  96.7686200 121.7088750  31.5519260  95.7675960 121.6583040  32.6865060
  95.8156040 113.8901820  44.4633710  96.3141290 114.3647640  45.1285560
  95.9578990 112.9665340  44.6703740  98.2215540 109.1955780  37.9036970
  98.0983320 109.2141910  36.9546480  99.1700100 109.2434720  38.0235370
  95.3092330 124.4311080  37.1764950  95.5633830 124.3932470  36.2544320
  94.3604810 124.3044410  37.1693200 103.0222900 110.1069780  45.3062100
 102.5196500 110.8475180  45.6455910 103.8379560 110.4953780  44.9898890
  91.2926550 117.0322560  32.3127420  92.0589820 116.9203920  32.8752850
  91.3701240 116.3360530  31.6604190 103.3170490 122.5211810  40.4277720
 103.4417910 123.3442980  40.9001530 104.1836050 122.3102540  40.0801870
  93.8990330 123.7873330  31.9220420  94.6918940 124.0762160  31.4702210
  93.3794680 123.3565500  31.2432900  87.5144110 116.2862550  48.2316480
  88.0183130 115.7069830  48.8032710  86.7751530 116.5702780  48.7692850
  94.4167730 119.0076740  31.7862770  94.3118370 118.3929090  32.5124150
  94.2491950 118.4842630  31.0025780  97.6570460 118.0696770  32.3904760
  97.1080560 118.5166070  33.0347500  98.2789720 117.5646020  32.9142430
  89.5467190 114.4292140  49.1266550  89.5872530 114.1306010  50.0351780
  90.4012690 114.8299750  48.9674070  93.3245580 117.0287690  34.2870060
  93.7462000 116.8627560  35.1301450  93.4496420 116.2187920  33.7925200
  91.4873000 113.0084240  47.0941040  90.9569460 112.5175190  46.4664380
  92.1561070 113.4368440  46.5598970  94.7406740 108.5319850  44.2065720
  94.2924040 108.5544110  43.3611270  94.1071940 108.1338870  44.8036020
  99.6992790 107.9129150  33.7615100  99.9795080 107.0697050  34.1174520
  98.9258520 108.1452260  34.2753850  96.4021250 124.1336910  33.8248900
  97.2972040 124.4721880  33.8467660  96.4338880 123.4116320  33.1973180
  90.0417410 119.5063960  32.0535900  90.4792280 120.0493630  32.7093480
  90.5265140 118.6810910  32.0632240  91.8525130 120.6262000  37.1658130
  91.5520670 120.5026970  38.0662040  91.7462620 119.7670590  36.7573860
 104.1292680 117.4440250  31.5291530 104.4041520 118.3519130  31.4010750
 103.9403420 117.3802780  32.4653520  88.6153780 116.0596380  43.1430010
  88.9826820 115.9723780  44.0226030  88.0464600 115.2962930  43.0436870
 103.4157640 114.5280760  46.1560480 103.1843730 114.2993510  45.2558430
 103.6762190 115.4480310  46.1105370 101.8545710 109.7537190  48.9340180
 102.7315890 109.7620590  49.3174180 101.8666550 109.0168030  48.3232530
  88.9817300 107.9947610  31.4949030  89.7045430 108.5356550  31.8130250
  89.2541820 107.7211030  30.6190570  88.6709490 107.2453800  41.3971650
  89.3185680 106.6951180  40.9566810  89.0911330 107.4996950  42.2187460
 104.2196110 111.5001030  38.2958290 104.1095390 111.3457070  39.2340560
 104.9803700 110.9721970  38.0533700 105.1086380 109.3308950  31.5364430
 106.0335690 109.1990130  31.3282720 105.0862170 109.4101770  32.4900880
 105.1824870 110.1019610  34.1621140 104.3876370 110.0364730  34.6914050
 105.3868150 111.0370250  34.1506490 102.1243290 124.1411160  38.1559530
 102.7202360 123.8195730  37.4793950 102.3821440 123.6682980  38.9472800
  88.4241490 107.4009470  44.1396970  88.0756310 107.8573290  44.9055150
  88.0929190 106.5066600  44.2219400 104.9916050 124.1483040  44.7070520
 104.4974330 124.5451910  43.9897650 104.3829340 123.5232250  45.1007800
  89.0962130 106.9285670  47.4147740  89.6445120 106.7473720  46.6513850
  89.1617440 106.1379780  47.9504050 102.6755500 124.7906460  41.9857260
 102.2158470 125.5422270  41.6115280 102.0467960 124.0712930  41.9272060
  93.1051220 123.0994700  41.1605390  93.6216240 122.4882060  40.6353650
  93.7548600 123.6023480  41.6516400  97.0623730 107.7293390  42.5670880
  96.2795520 108.2038890  42.8467640  96.7686660 106.8248220  42.4584060
  88.4064140 108.0340870  35.0884600  89.1643500 108.1469750  34.5148630
  87.9441310 108.8710070  35.0428030  99.4502930 106.8122590  39.3169980
 100.0532300 107.3842800  39.7918500  98.7095920 107.3762030  39.0943880
 102.5937530 107.2144150  34.5910260 102.7888160 108.1127600  34.8577690
 101.8067400 106.9831230  35.0843210  90.7789290 108.5604920  33.6286570
  91.3082050 107.7734720  33.4994520  91.4117610 109.2396110  33.8622100
  92.9727130 108.2980060  36.6831960  92.3429870 107.5967370  36.8502090
  92.4332270 109.0584190  36.4665120  91.9891790 124.8439700  33.9052130
  92.7210610 124.5598980  33.3576020  92.2485460 124.6052980  34.7951510
  91.1506580 120.9604430  33.9098460  90.5215460 121.4289530  34.4584290
  91.2654410 120.1153650  34.3444650  98.6056300 115.0110090  20.0599660
  98.5250350 114.0964700  19.7891370  98.1920720 115.5077160  19.3539370
  96.7374340 116.7889110  21.9408930  95.9616440 116.3089550  22.2307500
  97.3887270 116.1094760  21.7665090  90.7540170 117.1008920  22.8184690
  89.9225050 116.8457630  23.2181200  91.3621150 117.1719690  23.5542610
 100.7581770 121.1949300  20.7208060 100.2963300 120.4236540  21.0495230
 101.5707320 121.2215370  21.2260510  90.7341430 121.1349010  23.0142710
  91.0369470 120.2446750  22.8352930  91.4785020 121.6919230  22.7864960
  89.1632120 112.0610810  16.6027080  88.2748820 112.4026780  16.5006960
  89.4473310 111.8611130  15.7107910  87.1265130 114.6616460  22.4866780
  87.6981240 113.8938660  22.4870420  87.1266670 114.9605220  21.5773390
  96.9845080 123.4807310  20.3412050  96.3656520 123.9364810  19.7706490
  97.8396860 123.6358770  19.9401750  96.1783330 119.4646300  21.9479090
  96.1091610 118.5236240  21.7868220  96.9403190 119.5547710  22.5201660
  88.3690000 110.0700820  24.2735710  88.1892840 109.1726570  24.5538470
  87.9670080 110.6172690  24.9482660  97.2088500 112.2716680  22.1748020
  97.5853320 111.3988560  22.0621690  97.1108010 112.6075380  21.2838460
  91.3393510 110.6442310  17.6365460  91.4460260 111.5446040  17.9434220
  90.4285870 110.5960280  17.3460110 100.9912620 109.7667120  19.1076360
 101.8122240 109.2763690  19.1501840 101.0246700 110.3564780  19.8608200
 105.2812170 111.7833870  25.6719990 104.5764340 112.1715580  25.1535100
 105.5470090 112.4784160  26.2740920  97.8508430 118.3646550  17.7343960
  97.2325700 118.8296000  17.1706680  98.3631680 119.0574030  18.1513470
  92.7140190 117.8922420  24.4127560  92.3809570 118.5191340  25.0548630
  92.8906870 118.4184300  23.6329230 101.2274100 111.7067500  21.8803900
 100.5229670 111.9952390  22.4607010 101.5886260 112.5167610  21.5203460
  91.9259290 119.8603220  26.2276740  92.5433290 120.5354300  25.9461190
  91.0652410 120.2691200  26.1364240  87.2191630 119.0503080  15.1083590
  86.8419610 119.5390180  14.3768490  87.4764700 119.7228360  15.7390120
 102.8436880 121.3242630  24.1431380 102.1600400 121.9941740  24.1348050
 103.3831170 121.5223280  23.3776240 104.2961020 111.1522290  22.2713110
 103.3485930 111.1861270  22.4028540 104.6211010 111.9661240  22.6562470
 100.3795620 123.1686760  22.8576560 100.3922780 122.7649050  21.9898820
  99.8270840 123.9434050  22.7537990 101.6741040 119.8902980  17.9466730
 101.5637370 118.9477310  18.0716150 101.6709290 120.2518620  18.8329490
  99.7781060 118.0716600  24.1859170 100.1949850 117.8576710  23.3512630
 100.5020880 118.3289390  24.7567790  97.2161320 115.5168300  17.3029220
  96.2890600 115.4505680  17.5317690  97.3686140 116.4548430  17.1884460
  97.2030400 111.7885300  14.2996380  96.2634070 111.9499260  14.3848840
  97.5213660 112.5070980  13.7532370 103.7243160 116.4703820  24.2775410
 102.8961790 116.5396910  23.8025540 104.3193640 117.0558130  23.8091240
 101.2458610 117.0788600  17.8064470 100.6271030 116.7408150  17.1590770
 101.2283060 116.4348360  18.5143660 100.6885170 113.2573140  25.2230280
 100.2756350 114.0826850  25.4770270  99.9561120 112.6718180  25.0306640
  92.8217960 116.0433040  20.0848950  92.4174960 115.3310290  19.5894850
  92.9081080 115.6986280  20.9736990  93.2899660 119.7300600  22.2488160
  92.9927950 119.1246070  21.5695940  94.2399480 119.7677910  22.1377520
 101.3785270 123.3032470  25.9111260 100.9015830 124.1104660  25.7183870
 100.6947060 122.6510800  26.0637470  92.3818090 119.4682290  28.8995960
  91.4846620 119.6922260  29.1469360  92.4070960 119.5917230  27.9507360
  99.4223310 116.3175410  14.8137220  99.8616590 115.4797840  14.6675040
 100.1351730 116.9504810  14.9001360  97.5318690 121.2571480  18.7818460
  97.9714600 121.9995810  18.3673850  97.4705580 121.4998050  19.7057420
  93.0069660 122.2817310  29.6838480  92.9785090 122.6860260  28.8166910
  92.8434630 121.3527670  29.5210080 103.0040450 107.5718220  13.1278260
 102.6913110 107.6645050  14.0277330 103.7652920 108.1499250  13.0775690
  89.5222590 114.9378020  17.5855600  89.4020190 115.6640110  16.9736870
  89.2123480 114.1680930  17.1083510 104.9584480 123.0644410  30.9802650
 105.4344200 123.5427300  31.6591730 105.5791640 122.9961900  30.2548150
  87.1607960 118.1093160  23.3924240  87.2388380 118.2441930  22.4479960
  87.7749640 117.4009050  23.5852360  88.4055590 119.8093350  19.8030420
  87.9983670 119.9507940  18.9484020  89.2968600 119.5253510  19.6001630
 104.3617730 120.2557260  28.1402660 104.4880790 120.0169140  27.2219840
 104.4039110 119.4241800  28.6124740  98.2234470 123.9585260  26.7097470
  98.7379140 123.8693270  27.5119900  97.3803550 124.3044960  27.0025380
 100.1988870 124.2440600  16.1381470 100.0390010 123.9543540  17.0363300
 100.0335580 123.4680730  15.6026700  92.6777250 124.0239130  17.9153090
  92.5019730 123.1074670  17.7020890  91.8232990 124.3826420  18.1550890
  99.9015000 121.7528160  14.6979470  99.2080160 121.7505450  14.0381750
 100.6437860 121.3287480  14.2673640  99.4664930 123.3790870  18.7727960
  99.9221880 122.5980250  19.0866580  99.8057450 124.0897690  19.3169140
 104.2141740 112.3089720  29.1052400 103.5986010 112.8169390  28.5767860
 103.8938160 111.4088050  29.0478340  87.2167480 119.1507330  25.9318700
  87.3798520 118.6812690  25.1138070  87.6819930 118.6430890  26.5967540
 101.2760570 112.3690560  27.7011250 100.4254160 112.0696310  28.0220320
 101.1162360 112.6132570  26.7895070  95.1045070 107.9023790  15.8485100
  94.4799250 107.8983660  16.5738410  95.0175190 107.0354750  15.4521070
  91.7800470 113.4046660  18.6960520  91.5541390 113.1883830  19.6007140
  90.9993000 113.8375120  18.3506490  99.0098230 113.4110030  17.2951170
  98.4107120 114.1345830  17.1114790  99.5577840 113.3486810  16.5127620
  97.6163100 112.0473570  19.3254450  98.0092670 112.3645770  18.5123140
  97.9779950 111.1685450  19.4398970  86.8397500 112.5794490  12.7587370
  86.7572170 113.5225250  12.9002360  86.4880560 112.4369400  11.8799720
  98.2018240 114.6379320  23.4205230  97.4699360 115.1466130  23.7695330
  97.8042580 113.8209300  23.1194010  90.4898010 111.1960010  20.7851930
  90.1498060 111.6735240  21.5418980  89.7275330 110.7425130  20.4253030
  94.7015780 112.3145600  14.8164480  94.8228600 112.2732080  15.7650300
  94.3164290 113.1769750  14.6611210  98.6644150 110.0913000  22.8328170
  98.6816890 110.5421650  23.6770020  98.4159730 109.1918640  23.0461610
  93.7137280 114.6246740  14.2147780  93.1454180 114.1764990  13.5883690
  94.4226280 114.9839520  13.6812930 102.0914900 107.5045180  28.6714550
 102.4160670 106.7734840  29.1972530 102.1271410 107.1858820  27.7695540
  88.7906460 118.5258760  28.0914510  88.4061250 117.8852430  28.6897470
  89.1018650 119.2294880  28.6609240  87.8044090 110.1178990  19.7016600
  87.5191010 109.7534660  20.5395220  87.7422950 109.3859450  19.0879740
  91.2584760 118.6204930  16.4874190  90.4847020 118.0802550  16.3272910
  91.9879390 118.1011540  16.1491950 102.0172740 117.6170290  22.2800580
 102.7371860 118.1125580  21.8896690 101.8154560 116.9388180  21.6354450
  97.4782680 109.0108250  16.4229970  96.6647290 108.5121420  16.3475280
  97.2844630 109.8506500  16.0066320  97.3991540 117.6879350  28.1669580
  97.3328850 116.7675020  27.9127170  96.7696680 117.7854790  28.8814220
 100.1931070 113.3827900  14.7192130 101.0810690 113.6945130  14.5443470
 100.1636160 112.5100150  14.3272710  91.3022160 118.2885310  20.1253000
  91.8200830 117.4853570  20.0709890  90.8506180 118.2264450  20.9669830
  96.1891660 119.5551590  15.3980300  96.5307360 120.2993820  14.9023620
  95.3604370 119.8682710  15.7605130  88.7866700 115.2546680  27.0378700
  88.4281640 115.9200530  27.6252040  88.4921260 114.4230230  27.4091320
  97.3308270 120.5099920  27.9173380  97.3452810 119.5780880  27.6992290
  96.6233370 120.5959680  28.5563150 102.4645340 114.6939740  14.1871990
 102.3809060 115.1253960  13.3368430 103.1839530 115.1538090  14.6198810
 103.5419480 117.1507260  27.2641960 102.8167670 117.7436040  27.0671350
 104.0694940 117.1430800  26.4655330 103.4932590 121.5482000  16.9154120
 102.8508750 120.8937620  17.1897840 103.1063250 121.9537090  16.1394790
  99.0719070 118.8767430  20.7625810  99.4242890 118.2795560  20.1027180
  98.1881400 118.5511660  20.9334060  95.1582350 119.6365120  18.1696220
  95.8453480 120.1834330  18.5503810  94.3714770 120.1805850  18.2045830
  87.2974750 115.2537940  13.6613300  88.1669600 115.5362740  13.9449220
  86.8065070 116.0673810  13.5462110  94.4609560 116.6411150  17.7821580
  94.9172340 117.4516400  18.0081770  94.1097770 116.3234290  18.6140070
  96.7642170 122.1517490  25.0113880  97.4084390 122.3576870  25.6887300
  97.1271610 121.3905890  24.5584730  90.3621340 106.9848800  18.2544100
  90.2335970 106.9766700  19.2029020  89.5383360 107.3231890  17.9035110
  98.0374250 120.1549840  23.7291330  98.6796480 119.4543000  23.8423500
  98.5623600 120.9348280  23.5488220 101.8829970 120.4398460  13.4530470
 101.6567550 119.7228900  14.0455110 101.4926170 120.1910900  12.6152220
  99.8111870 120.9544740  26.9327390 100.1468110 121.5411430  27.6105310
  98.8912210 120.8237450  27.1625180  87.6646000 124.4665320  14.2274930
  88.0243640 125.0654660  13.5732200  87.5238340 125.0125210  15.0009960
  87.3615270 108.7439920  27.7150800  86.6473790 108.9436840  28.3203410
  87.7810310 107.9679490  28.0865600 101.4646220 118.3570400  15.1144630
 101.1767920 118.8183090  15.9022510 102.2598390 117.8968170  15.3828850
  87.6487860 122.7320180  28.7017330  87.7578980 121.7914920  28.5612720
  86.9968420 122.9974930  28.0531060  95.6400450 121.0036070  30.1015450
  95.3197320 120.2845310  30.6461140  94.9658810 121.6791140  30.1751510
  93.6814620 121.8496520  15.0448600  93.6724720 122.5826210  14.4293110
  92.7612980 121.6028100  15.1375560  89.2821260 117.0711410  15.7895360
  88.6749210 117.8110310  15.7990660  89.7570610 117.1610770  14.9633560
 102.2216080 110.1919170  16.2739810 101.5929240 110.2964840  15.5598040
 101.7268000 110.4115950  17.0633690  96.6674220 121.9124760  13.7073790
  96.7686200 121.7088750  12.7775770  95.7675960 121.6583040  13.9121570
  94.1900110 112.4705120  17.6897690  93.4816260 112.9391460  18.1311300
  94.4744590 111.8127130  18.3242880  98.2215540 109.1955780  19.1293480
  98.0983320 109.2141910  18.1802990  99.1700100 109.2434720  19.2491880
  95.3092330 124.4311080  18.4021460  95.5633830 124.3932470  17.4800830
  94.3604810 124.3044410  18.3949710  92.3935130 110.7790200  15.0648400
  93.2425660 111.2160350  14.9988590  92.0266400 111.0910460  15.8920460
 103.0222900 110.1069780  26.5318610 102.5196500 110.8475180  26.8712420
 103.8379560 110.4953780  26.2155400 101.3144910 115.3502960  19.9779970
 100.3735050 115.3653190  20.1527660 101.6288980 114.5638920  20.4240270
  91.2926550 117.0322560  13.5383930  92.0589820 116.9203920  14.1009360
  91.3701240 116.3360530  12.8860700  89.9873310 114.4647630  14.2216820
  90.0676900 113.5175140  14.3334220  90.8793060 114.7954510  14.3277480
 103.3170490 122.5211810  21.6534230 103.4417910 123.3442980  22.1258040
 104.1836050 122.3102540  21.3058380  90.7888020 124.6143020  21.3251360
  91.5250500 124.0658480  21.5959930  91.1728940 125.4799030  21.1857350
  87.6733500 120.6816590  17.1992870  86.7473280 120.9237730  17.1898280
  88.1389930 121.5090850  17.0777620  89.7946300 123.7989090  30.5136940
  90.5959030 124.1201140  30.9272340  89.2798120 123.4384670  31.2356850
  93.8990330 123.7873330  13.1476930  94.6918940 124.0762160  12.6958720
  93.3794680 123.3565500  12.4689410  98.6310930 119.9068960  30.4612350
  98.0249090 119.9300560  29.7208100  98.3265040 119.1752000  30.9979600
 100.0611300 123.6349250  29.0721760 101.0133050 123.5507270  29.0222000
  99.9139520 124.2990960  29.7455550 102.9520500 123.0143460  14.5713670
 102.6662010 122.6008600  13.7567850 102.7540050 123.9431170  14.4514190
  87.5144110 116.2862550  29.4572990  88.0183130 115.7069830  30.0289220
  86.7751530 116.5702780  29.9949360  94.4167730 119.0076740  13.0119280
  94.3118370 118.3929090  13.7380660  94.2491950 118.4842630  12.2282290
  94.5682050 117.6933540  28.9908510  93.8027720 118.2618540  28.9063180
  94.7498010 117.4009750  28.0976740  97.6570460 118.0696770  13.6161270
  97.1080560 118.5166070  14.2604010  98.2789720 117.5646020  14.1398940
 101.7105400 119.4238870  29.5483530 102.4514870 119.7614630  29.0450990
 100.9478080 119.5930930  28.9953300  93.3245580 117.0287690  15.5126570
  93.7462000 116.8627560  16.3557960  93.4496420 116.2187920  15.0181710
  95.8373220 116.0525300  12.7603670  96.3578880 115.3374320  12.3944820
  96.4841620 116.6911170  13.0604180 100.3851060 117.4753700  28.0838740
 100.7992080 117.6298780  28.9329160  99.4502060 117.6008920  28.2464520
  95.1466290 117.4274180  26.0534670  95.5654400 118.2706910  25.8810910
  94.2274920 117.5646220  25.8241450  97.4830190 115.1590360  27.4372510
  97.6026400 114.5631500  28.1767350  98.3424190 115.1960050  27.0173810
  99.8218090 115.7127550  26.0135020  99.2953310 116.2370170  25.4100160
 100.1649430 116.3454940  26.6444750  92.2204480 113.1020920  12.4584730
  92.0193540 112.2388280  12.8198070  92.0496530 113.0154280  11.5206330
  92.9973710 123.7327190  27.1692400  92.4594800 124.4573250  26.8501100
  93.2507670 123.2557530  26.3789740  99.6992790 107.9129150  14.9871610
  99.9795080 107.0697050  15.3431030  98.9258520 108.1452260  15.5010360
  91.0187280 110.2021540  12.4462610  91.3213180 110.2088970  11.5381760
  91.7581870 109.8519400  12.9430270  95.8535920 124.9678400  27.4279050
  95.7794620 125.8713540  27.7351420  94.9514760 124.6490300  27.4001120
  94.2372210 109.1456160  13.4318810  93.8894210 108.4680150  12.8521260
  94.4384980 108.6845670  14.2462200  96.4021250 124.1336910  15.0505410
  97.2972040 124.4721880  15.0724170  96.4338880 123.4116320  14.4229690
  90.0417410 119.5063960  13.2792410  90.4792280 120.0493630  13.9349990
  90.5265140 118.6810910  13.2888750  87.2563210 122.2952990  20.7312670
  87.5866220 121.4274050  20.4991310  87.6854210 122.5011510  21.5617630
  91.8525130 120.6262000  18.3914640  91.5520670 120.5026970  19.2918550
  91.7462620 119.7670590  17.9830370  87.7453420 123.1623580  23.4694300
  87.3084410 123.3424380  24.3018450  88.3131100 123.9198200  23.3276020
 103.3815600 122.6640580  27.7571610 102.7817590 122.7233140  27.0135530
 103.5109500 121.7245560  27.8868460 104.6217050 120.4058400  13.0941320
 103.7910010 120.4735050  13.5648550 104.7988880 121.2962520  12.7908180
 104.0773510 117.1505880  15.5975520 104.8392420 117.7202530  15.7035210
 104.0927880 116.5833080  16.3683830  87.5777850 115.6743810  19.8283180
  86.9226690 115.4055450  19.1842880  88.4155800 115.5648290  19.3785160
 105.0833480 118.0055980  20.4417450 105.4542310 117.2223300  20.0353420
 105.7235410 118.6945080  20.2634750 102.0667240 119.3892560  25.8547770
 101.2527080 119.8189720  26.1173560 102.4741440 120.0010970  25.2416820
 104.1292680 117.4440250  12.7548040 104.4041520 118.3519130  12.6267260
 103.9403420 117.3802780  13.6910030 100.5268290 110.4685100  14.0501670
 100.9453170 110.2816080  13.2098330 100.2204350 109.6164150  14.3604600
 104.0258020 115.3809240  17.7477470 103.6501620 114.6137170  17.3158760
 103.2961140 115.7631940  18.2352400  88.6153780 116.0596380  24.3686520
  88.9826820 115.9723780  25.2482540  88.0464600 115.2962930  24.2693380
 103.4157640 114.5280760  27.3816990 103.1843730 114.2993510  26.4814940
 103.6762190 115.4480310  27.3361880  86.7915930 112.8842740  15.7708510
  85.8880010 113.1472940  15.5960170  87.2756550 113.1553910  14.9908470
 103.3008980 113.6066730  21.0484710 103.8246460 113.1129380  20.4174880
 103.8868400 113.7417090  21.7932280 103.4798700 113.6906600  24.5704260
 102.5301410 113.6570140  24.6849250 103.6611710 114.6006710  24.3354030
  89.3343140 111.9408280  13.6802890  90.0434840 111.5191500  13.1950170
  88.6183080 112.0083510  13.0486240  88.9817300 107.9947610  12.7205540
  89.7045430 108.5356550  13.0386760  89.2541820 107.7211030  11.8447080
 102.7908950 112.8640080  16.9877120 103.2868070 112.6310950  17.7726000
 102.5925020 112.0251920  16.5714760 104.2196110 111.5001030  19.5214800
 104.1095390 111.3457070  20.4597070 104.9803700 110.9721970  19.2790210
 102.5661830 107.4395160  25.9797800 103.2034050 108.0529300  26.3456990
 102.7136720 107.4755820  25.0347030 105.1086380 109.3308950  12.7620940
 106.0335690 109.1990130  12.5539230 105.0862170 109.4101770  13.7157390
 105.1824870 110.1019610  15.3877650 104.3876370 110.0364730  15.9170560
 105.3868150 111.0370250  15.3763000 102.1243290 124.1411160  19.3816040
 102.7202360 123.8195730  18.7050460 102.3821440 123.6682980  20.1729310
  90.0305860 120.5729070  29.5306670  89.9875490 120.2021980  30.4121130
  90.1616870 121.5106640  29.6708490  93.7311890 122.1288660  25.1316390
  93.4903250 122.3963220  24.2446910  94.6714530 122.2994390  25.1867250
 104.9916050 124.1483040  25.9327030 104.4974330 124.5451910  25.2154160
 104.3829340 123.5232250  26.3264310  89.8693890 123.5191320  26.6504450
  89.2754210 123.3876020  27.3894490  89.8617730 122.6829460  26.1846550
 102.6755500 124.7906460  23.2113770 102.2158470 125.5422270  22.8371790
 102.0467960 124.0712930  23.1528570  89.5006120 120.8849700  25.6012490
  88.7740180 120.2654990  25.5338440  89.5615270 121.2790310  24.7310570
  93.1051220 123.0994700  22.3861900  93.6216240 122.4882060  21.8610160
  93.7548600 123.6023480  22.8772910  95.8446720 123.9903190  23.2130880
  96.1324530 123.7357490  22.3363890  96.3569940 123.4380550  23.8036450
 101.6144800 108.4316490  21.8376480 102.0552890 108.3761590  20.9898080
 101.3452390 109.3474500  21.9086660 103.4783370 108.0631730  19.8485300
 103.4171770 107.1192950  19.7016320 104.2575400 108.1711820  20.3938760
  87.7836120 124.2024090  18.8109250  87.6158160 123.5694770  19.5091140
  86.9170630 124.4083490  18.4603440  88.4064140 108.0340870  16.3141110
  89.1643500 108.1469750  15.7405140  87.9441310 108.8710070  16.2684540
  94.9477950 110.1480140  19.3043420  94.1352460 109.7737030  18.9639300
  95.4519590 109.3925220  19.6064610  99.4502930 106.8122590  20.5426490
 100.0532300 107.3842800  21.0175010  98.7095920 107.3762030  20.3200390
 102.5937530 107.2144150  15.8166770 102.7888160 108.1127600  16.0834200
 101.8067400 106.9831230  16.3099720  89.3898820 122.8957320  16.2559390
  88.8646440 123.2765350  15.5521350  89.3143400 123.5208090  16.9769100
  90.7789290 108.5604920  14.8543080  91.3082050 107.7734720  14.7251030
  91.4117610 109.2396110  15.0878610  92.9727130 108.2980060  17.9088470
  92.3429870 107.5967370  18.0758600  92.4332270 109.0584190  17.6921630
  95.9119080 124.9119290  30.5799080  96.8386390 124.6763560  30.6235040
  95.8969510 125.7391290  30.0985110 104.1464140 124.4544860  17.5773330
 104.3216330 123.7682600  16.9334250 103.4485710 124.9791910  17.1850000
  91.9891790 124.8439700  15.1308640  92.7210610 124.5598980  14.5832530
  92.2485460 124.6052980  16.0208020  91.1506580 120.9604430  15.1354970
  90.5215460 121.4289530  15.6840800  91.2654410 120.1153650  15.5701160
 102.4796640 124.1389150  30.4040120 103.2721960 123.6438380  30.1966080
 102.7729790 124.8179290  31.0115730  96.7374340 116.7889110   3.1665440
  95.9616440 116.3089550   3.4564010  97.3887270 116.1094760   2.9921600
  90.7540170 117.1008920   4.0441200  89.9225050 116.8457630   4.4437710
  91.3621150 117.1719690   4.7799120 100.7581770 121.1949300   1.9464570
 100.2963300 120.4236540   2.2751740 101.5707320 121.2215370   2.4517020
  90.7341430 121.1349010   4.2399220  91.0369470 120.2446750   4.0609440
  91.4785020 121.6919230   4.0121470  87.1265130 114.6616460   3.7123290
  87.6981240 113.8938660   3.7126930  87.1266670 114.9605220   2.8029900
  96.1783330 119.4646300   3.1735600  96.1091610 118.5236240   3.0124730
  96.9403190 119.5547710   3.7458170  88.3690000 110.0700820   5.4992220
  88.1892840 109.1726570   5.7794980  87.9670080 110.6172690   6.1739170
  97.2088500 112.2716680   3.4004530  97.5853320 111.3988560   3.2878200
  97.1108010 112.6075380   2.5094970  88.9876670 112.5661320   4.1074560
  89.6686780 112.8299690   4.7261960  88.6724720 111.7262190   4.4412570
  93.1801240 113.6128680   3.1947150  93.6879460 114.1109650   3.8352170
  93.7114480 112.8363880   3.0186510 105.2812170 111.7833870   6.8976500
 104.5764340 112.1715580   6.3791610 105.5470090 112.4784160   7.4997430
  91.4637340 108.2527240   7.4610570  91.4655780 108.7699630   6.6556470
  90.6341650 107.7757420   7.4380500  92.7140190 117.8922420   5.6384070
  92.3809570 118.5191340   6.2805140  92.8906870 118.4184300   4.8585740
 101.2274100 111.7067500   3.1060410 100.5229670 111.9952390   3.6863520
 101.5886260 112.5167610   2.7459970  91.1452670 109.9637200   5.4681020
  91.4869480 110.8079250   5.1734890  90.2068480 110.1120940   5.5846360
  91.9259290 119.8603220   7.4533250  92.5433290 120.5354300   7.1717700
  91.0652410 120.2691200   7.3620750 102.8436880 121.3242630   5.3687890
 102.1600400 121.9941740   5.3604560 103.3831170 121.5223280   4.6032750
 104.2961020 111.1522290   3.4969620 103.3485930 111.1861270   3.6285050
 104.6211010 111.9661240   3.8818980 100.3795620 123.1686760   4.0833070
 100.3922780 122.7649050   3.2155330  99.8270840 123.9434050   3.9794500
  99.7781060 118.0716600   5.4115680 100.1949850 117.8576710   4.5769140
 100.5020880 118.3289390   5.9824300 103.7243160 116.4703820   5.5031920
 102.8961790 116.5396910   5.0282050 104.3193640 117.0558130   5.0347750
 100.6885170 113.2573140   6.4486790 100.2756350 114.0826850   6.7026780
  99.9561120 112.6718180   6.2563150  93.2899660 119.7300600   3.4744670
  92.9927950 119.1246070   2.7952450  94.2399480 119.7677910   3.3634030
  91.5346580 112.8176250   5.0904500  92.0861170 112.9271590   4.3157750
  92.0490090 113.1913850   5.8059730 101.3785270 123.3032470   7.1367770
 100.9015830 124.1104660   6.9440380 100.6947060 122.6510800   7.2893980
  92.3818090 119.4682290  10.1252470  91.4846620 119.6922260  10.3725870
  92.4070960 119.5917230   9.1763870  91.2089310 116.3395610   8.7009840
  91.0697080 117.2118410   9.0697240  90.3270670 115.9968420   8.5557780
  93.0069660 122.2817310  10.9094990  92.9785090 122.6860260  10.0423420
  92.8434630 121.3527670  10.7466590 104.9584480 123.0644410  12.2059160
 105.4344200 123.5427300  12.8848240 105.5791640 122.9961900  11.4804660
  87.1607960 118.1093160   4.6180750  87.2388380 118.2441930   3.6736470
  87.7749640 117.4009050   4.8108870 104.3617730 120.2557260   9.3659170
 104.4880790 120.0169140   8.4476350 104.4039110 119.4241800   9.8381250
  98.2234470 123.9585260   7.9353980  98.7379140 123.8693270   8.7376410
  97.3803550 124.3044960   8.2281890 104.2141740 112.3089720  10.3308910
 103.5986010 112.8169390   9.8024370 103.8938160 111.4088050  10.2734850
  87.2167480 119.1507330   7.1575210  87.3798520 118.6812690   6.3394580
  87.6819930 118.6430890   7.8224050  91.9886250 108.2813090   2.1935780
  91.5454400 109.0622630   1.8620300  92.5471240 108.6042980   2.9006720
  96.2756060 111.1481610   7.7971100  95.8135430 111.3564630   8.6091040
  95.8734170 110.3340960   7.4941770 101.2760570 112.3690560   8.9267760
 100.4254160 112.0696310   9.2476830 101.1162360 112.6132570   8.0151580
  98.3710280 113.8692310  11.0266550  98.6963690 113.0356060  10.6868780
  99.1590610 114.3920830  11.1744880  94.0262150 108.8260420   4.0525380
  94.3234480 109.7323250   3.9717400  94.5747710 108.3379200   3.4384950
  94.2199680 114.3032240  10.5877300  94.1243280 113.3626970  10.4377700
  95.0631660 114.5247310  10.1925370  89.3510220 110.7145910   8.7411080
  88.9573610 111.5621120   8.9483860  88.6628620 110.0772280   8.9319720
  95.9255270 110.7980880  11.8107820  95.2353590 110.6053080  12.4453910
  96.6687570 111.0815520  12.3432120  86.6527270 108.6374370   2.7741160
  86.3640320 109.2077230   3.4866140  87.3973030 108.1578820   3.1372390
  98.2018240 114.6379320   4.6461740  97.4699360 115.1466130   4.9951840
  97.8042580 113.8209300   4.3450520  94.6395630 111.3133520   3.0514230
  94.6431690 110.8723470   2.2018770  95.5346750 111.6350850   3.1586050
  90.4898010 111.1960010   2.0108440  90.1498060 111.6735240   2.7675490
  89.7275330 110.7425130   1.6509540  98.6644150 110.0913000   4.0584680
  98.6816890 110.5421650   4.9026530  98.4159730 109.1918640   4.2718120
 102.0914900 107.5045180   9.8971060 102.4160670 106.7734840  10.4229040
 102.1271410 107.1858820   8.9952050  88.7906460 118.5258760   9.3171020
  88.4061250 117.8852430   9.9153980  89.1018650 119.2294880   9.8865750
  94.9403600 115.3735300   4.7979640  95.3073730 114.8993870   5.5440980
  94.7508660 116.2476870   5.1387980  92.7302970 114.4143940   7.1163850
  92.4260040 115.2935920   7.3414210  93.6849430 114.4743730   7.1521290
 102.0172740 117.6170290   3.5057090 102.7371860 118.1125580   3.1153200
 101.8154560 116.9388180   2.8610960  97.3991540 117.6879350   9.3926090
  97.3328850 116.7675020   9.1383680  96.7696680 117.7854790  10.1070730
  88.7866700 115.2546680   8.2635210  88.4281640 115.9200530   8.8508550
  88.4921260 114.4230230   8.6347830  91.9879820 115.7130920  11.1474760
  91.6879960 115.8588100  10.2502580  92.7591060 115.1536210  11.0548150
  97.3308270 120.5099920   9.1429890  97.3452810 119.5780880   8.9248800
  96.6233370 120.5959680   9.7819660 103.5419480 117.1507260   8.4898470
 102.8167670 117.7436040   8.2927860 104.0694940 117.1430800   7.6911840
  96.7642170 122.1517490   6.2370390  97.4084390 122.3576870   6.9143810
  97.1271610 121.3905890   5.7841240  98.0374250 120.1549840   4.9547840
  98.6796480 119.4543000   5.0680010  98.5623600 120.9348280   4.7744730
  99.8111870 120.9544740   8.1583900 100.1468110 121.5411430   8.8361820
  98.8912210 120.8237450   8.3881690  87.3615270 108.7439920   8.9407310
  86.6473790 108.9436840   9.5459920  87.7810310 107.9679490   9.3122110
  87.6487860 122.7320180   9.9273840  87.7578980 121.7914920   9.7869230
  86.9968420 122.9974930   9.2787570  95.6400450 121.0036070  11.3271960
  95.3197320 120.2845310  11.8717650  94.9658810 121.6791140  11.4008020
  98.8554050 111.2362230   6.6908760  99.2234870 110.4157440   7.0188330
  97.9952250 111.2964120   7.1064410  95.8156040 113.8901820   6.9146730
  96.3141290 114.3647640   7.5798580  95.9578990 112.9665340   7.1216760
 103.0222900 110.1069780   7.7575120 102.5196500 110.8475180   8.0968930
 103.8379560 110.4953780   7.4411910 103.3170490 122.5211810   2.8790740
 103.4417910 123.3442980   3.3514550 104.1836050 122.3102540   2.5314890
  90.7888020 124.6143020   2.5507870  91.5250500 124.0658480   2.8216440
  91.1728940 125.4799030   2.4113860  89.7946300 123.7989090  11.7393450
  90.5959030 124.1201140  12.1528850  89.2798120 123.4384670  12.4613360
  98.6310930 119.9068960  11.6868860  98.0249090 119.9300560  10.9464610
  98.3265040 119.1752000  12.2236110 100.0611300 123.6349250  10.2978270
 101.0133050 123.5507270  10.2478510  99.9139520 124.2990960  10.9712060
  87.5144110 116.2862550  10.6829500  88.0183130 115.7069830  11.2545730
  86.7751530 116.5702780  11.2205870  94.5682050 117.6933540  10.2165020
  93.8027720 118.2618540  10.1319690  94.7498010 117.4009750   9.3233250
 101.7105400 119.4238870  10.7740040 102.4514870 119.7614630  10.2707500
 100.9478080 119.5930930  10.2209810  89.5467190 114.4292140  11.5779570
  89.5872530 114.1306010  12.4864800  90.4012690 114.8299750  11.4187090
  91.4873000 113.0084240   9.5454060  90.9569460 112.5175190   8.9177400
  92.1561070 113.4368440   9.0111990 100.3851060 117.4753700   9.3095250
 100.7992080 117.6298780  10.1585670  99.4502060 117.6008920   9.4721030
 100.8573230 114.8149860  11.3134400 101.4394000 114.0602180  11.2254880
 101.0335000 115.3457300  10.5365880  91.9745300 109.9746610   9.6251350
  91.8802170 109.3567360   8.9002220  91.3942690 110.7012900   9.3981260
  94.7406740 108.5319850   6.6578740  94.2924040 108.5544110   5.8124290
  94.1071940 108.1338870   7.2549040  95.1466290 117.4274180   7.2791180
  95.5654400 118.2706910   7.1067420  94.2274920 117.5646220   7.0497960
  97.4830190 115.1590360   8.6629020  97.6026400 114.5631500   9.4023860
  98.3424190 115.1960050   8.2430320  99.8218090 115.7127550   7.2391530
  99.2953310 116.2370170   6.6356670 100.1649430 116.3454940   7.8701260
  92.9973710 123.7327190   8.3948910  92.4594800 124.4573250   8.0757610
  93.2507670 123.2557530   7.6046250  94.2498960 111.7011710   9.9204840
  94.8398650 111.3927560  10.6082660  93.4319200 111.2291460  10.0764740
  99.0692390 111.3177520  10.1537860  98.3807910 110.6559060  10.0887850
  99.7898410 110.8715790  10.5986320  95.8535920 124.9678400   8.6535560
  95.7794620 125.8713540   8.9607930  94.9514760 124.6490300   8.6257630
  87.2563210 122.2952990   1.9569180  87.5866220 121.4274050   1.7247820
  87.6854210 122.5011510   2.7874140  87.7453420 123.1623580   4.6950810
  87.3084410 123.3424380   5.5274960  88.3131100 123.9198200   4.5532530
 103.3815600 122.6640580   8.9828120 102.7817590 122.7233140   8.2392040
 103.5109500 121.7245560   9.1124970 102.0667240 119.3892560   7.0804280
 101.2527080 119.8189720   7.3430070 102.4741440 120.0010970   6.4673330
  88.6153780 116.0596380   5.5943030  88.9826820 115.9723780   6.4739050
  88.0464600 115.2962930   5.4949890 103.4157640 114.5280760   8.6073500
 103.1843730 114.2993510   7.7071450 103.6762190 115.4480310   8.5618390
  88.1669780 112.9705470   9.5001450  87.2725830 112.9372230   9.8395160
  88.7067330 113.1692260  10.2652700 101.8545710 109.7537190  11.3853200
 102.7315890 109.7620590  11.7687200 101.8666550 109.0168030  10.7745550
 103.3008980 113.6066730   2.2741220 103.8246460 113.1129380   1.6431390
 103.8868400 113.7417090   3.0188790 103.4798700 113.6906600   5.7960770
 102.5301410 113.6570140   5.9105760 103.6611710 114.6006710   5.5610540
  88.6709490 107.2453800   3.8484670  89.3185680 106.6951180   3.4079830
  89.0911330 107.4996950   4.6700480 102.5661830 107.4395160   7.2054310
 103.2034050 108.0529300   7.5713500 102.7136720 107.4755820   6.2603540
  88.4241490 107.4009470   6.5909990  88.0756310 107.8573290   7.3568170
  88.0929190 106.5066600   6.6732420  90.0305860 120.5729070  10.7563180
  89.9875490 120.2021980  11.6377640  90.1616870 121.5106640  10.8965000
  93.7311890 122.1288660   6.3572900  93.4903250 122.3963220   5.4703420
  94.6714530 122.2994390   6.4123760  95.9366310 108.5921350  10.1129410
  95.8755200 109.1843180  10.8624820  96.8766690 108.4847310   9.9679670
  98.5740870 108.2491410   9.7521700  99.1881280 108.5670700   9.0902780
  99.1190430 107.7640000  10.3717560 104.9916050 124.1483040   7.1583540
 104.4974330 124.5451910   6.4410670 104.3829340 123.5232250   7.5520820
  89.0962130 106.9285670   9.8660760  89.6445120 106.7473720   9.1026870
  89.1617440 106.1379780  10.4017070  89.8693890 123.5191320   7.8760960
  89.2754210 123.3876020   8.6151000  89.8617730 122.6829460   7.4103060
  99.3148910 106.8123550   6.0790990  98.4408750 107.1458660   5.8763920
  99.2059660 106.3396730   6.9042860 100.2220890 109.0194420   7.4632710
  99.8934250 108.2046180   7.0834440 101.1703190 108.9764230   7.3398400
 102.6755500 124.7906460   4.4370280 102.2158470 125.5422270   4.0628300
 102.0467960 124.0712930   4.3785080  89.5006120 120.8849700   6.8269000
  88.7740180 120.2654990   6.7594950  89.5615270 121.2790310   5.9567080
  93.1051220 123.0994700   3.6118410  93.6216240 122.4882060   3.0866670
  93.7548600 123.6023480   4.1029420  95.8446720 123.9903190   4.4387390
  96.1324530 123.7357490   3.5620400  96.3569940 123.4380550   5.0292960
  97.0623730 107.7293390   5.0183900  96.2795520 108.2038890   5.2980660
  96.7686660 106.8248220   4.9097080 101.6144800 108.4316490   3.0632990
 102.0552890 108.3761590   2.2154590 101.3452390 109.3474500   3.1343170
  99.4502930 106.8122590   1.7683000 100.0532300 107.3842800   2.2431520
  98.7095920 107.3762030   1.5456900  95.9119080 124.9119290  11.8055590
  96.8386390 124.6763560  11.8491550  95.8969510 125.7391290  11.3241620
  93.0982690 107.5764040  11.5697470  92.8166960 108.0797640  10.8058290
  93.4802390 106.7785790  11.2039600  99.6998150 106.9917620  12.1477940
  99.5863600 107.3112230  13.0429460 100.5167890 107.3930130  11.8515220
 102.4796640 124.1389150  11.6296630 103.2721960 123.6438380  11.4222590
 102.7729790 124.8179290  12.2372240  98.6056300  96.2366600 151.4804090
  98.5250350  95.3221210 151.2095800  98.1920720  96.7333670 150.7743800
  96.7374340  98.0145620 153.3613360  95.9616440  97.5346060 153.6511930
  97.3887270  97.3351270 153.1869520 100.7581770 102.4205810 152.1412490
 100.2963300 101.6493050 152.4699660 101.5707320 102.4471880 152.6464940
  90.7341430 102.3605520 154.4347140  91.0369470 101.4703260 154.2557360
  91.4785020 102.9175740 154.2069390  89.1632120  93.2867320 148.0231510
  88.2748820  93.6283290 147.9211390  89.4473310  93.0867640 147.1312340
  87.1265130  95.8872970 153.9071210  87.6981240  95.1195170 153.9074850
  87.1266670  96.1861730 152.9977820  96.9845080 104.7063820 151.7616480
  96.3656520 105.1621320 151.1910920  97.8396860 104.8615280 151.3606180
  96.1783330 100.6902810 153.3683520  96.1091610  99.7492750 153.2072650
  96.9403190 100.7804220 153.9406090  97.2088500  93.4973190 153.5952450
  97.5853320  92.6245070 153.4826120  97.1108010  93.8331890 152.7042890
  91.3393510  91.8698820 149.0569890  91.4460260  92.7702550 149.3638650
  90.4285870  91.8216790 148.7664540 100.9912620  90.9923630 150.5280790
 101.8122240  90.5020200 150.5706270 101.0246700  91.5821290 151.2812630
  93.1801240  94.8385190 153.3895070  93.6879460  95.3366160 154.0300090
  93.7114480  94.0620390 153.2134430  97.8508430  99.5903060 149.1548390
  97.2325700 100.0552510 148.5911110  98.3631680 100.2830540 149.5717900
 101.2274100  92.9324010 153.3008330 100.5229670  93.2208900 153.8811440
 101.5886260  93.7424120 152.9407890  87.2191630 100.2759590 146.5288020
  86.8419610 100.7646690 145.7972920  87.4764700 100.9484870 147.1594550
 104.2961020  92.3778800 153.6917540 103.3485930  92.4117780 153.8232970
 104.6211010  93.1917750 154.0766900  94.8280560  88.6775980 151.9873530
  95.1355540  88.1222870 151.2709030  93.8981260  88.8120440 151.8046520
 100.3795620 104.3943270 154.2780990 100.3922780 103.9905560 153.4103250
  99.8270840 105.1690560 154.1742420 101.6741040 101.1159490 149.3671160
 101.5637370 100.1733820 149.4920580 101.6709290 101.4775130 150.2533920
  97.2161320  96.7424810 148.7233650  96.2890600  96.6762190 148.9522120
  97.3686140  97.6804940 148.6088890  97.2030400  93.0141810 145.7200810
  96.2634070  93.1755770 145.8053270  97.5213660  93.7327490 145.1736800
 101.2458610  98.3045110 149.2268900 100.6271030  97.9664660 148.5795200
 101.2283060  97.6604870 149.9348090  92.8217960  97.2689550 151.5053380
  92.4174960  96.5566800 151.0099280  92.9081080  96.9242790 152.3941420
  93.2899660 100.9557110 153.6692590  92.9927950 100.3502580 152.9900370
  94.2399480 100.9934420 153.5581950  99.4223310  97.5431920 146.2341650
  99.8616590  96.7054350 146.0879470 100.1351730  98.1761320 146.3205790
  97.5318690 102.4827990 150.2022890  97.9714600 103.2252320 149.7878280
  97.4705580 102.7254560 151.1261850 103.0040450  88.7974730 144.5482690
 102.6913110  88.8901560 145.4481760 103.7652920  89.3755760 144.4980120
  89.5222590  96.1634530 149.0060030  89.4020190  96.8896620 148.3941300
  89.2123480  95.3937440 148.5287940  88.4055590 101.0349860 151.2234850
  87.9983670 101.1764450 150.3688450  89.2968600 100.7510020 151.0206060
 100.1988870 105.4697110 147.5585900 100.0390010 105.1800050 148.4567730
 100.0335580 104.6937240 147.0231130  92.6777250 105.2495640 149.3357520
  92.5019730 104.3331180 149.1225320  91.8232990 105.6082930 149.5755320
  99.9015000 102.9784670 146.1183900  99.2080160 102.9761960 145.4586180
 100.6437860 102.5543990 145.6878070  99.4664930 104.6047380 150.1932390
  99.9221880 103.8236760 150.5071010  99.8057450 105.3154200 150.7373570
  91.9886250  89.5069600 152.3883700  91.5454400  90.2879140 152.0568220
  92.5471240  89.8299490 153.0954640  95.1045070  89.1280300 147.2689530
  94.4799250  89.1240170 147.9942840  95.0175190  88.2611260 146.8725500
  94.0262150  90.0516930 154.2473300  94.3234480  90.9579760 154.1665320
  94.5747710  89.5635710 153.6332870  91.7800470  94.6303170 150.1164950
  91.5541390  94.4140340 151.0211570  90.9993000  95.0631630 149.7710920
  99.0098230  94.6366540 148.7155600  98.4107120  95.3602340 148.5319220
  99.5577840  94.5743320 147.9332050  97.6163100  93.2730080 150.7458880
  98.0092670  93.5902280 149.9327570  97.9779950  92.3941960 150.8603400
  86.6527270  89.8630880 152.9689080  86.3640320  90.4333740 153.6814060
  87.3973030  89.3835330 153.3320310  86.8397500  93.8051000 144.1791800
  86.7572170  94.7481760 144.3206790  86.4880560  93.6625910 143.3004150
  94.6395630  92.5390030 153.2462150  94.6431690  92.0979980 152.3966690
  95.5346750  92.8607360 153.3533970  90.4898010  92.4216520 152.2056360
  90.1498060  92.8991750 152.9623410  89.7275330  91.9681640 151.8457460
  94.7015780  93.5402110 146.2368910  94.8228600  93.4988590 147.1854730
  94.3164290  94.4026260 146.0815640  93.7137280  95.8503250 145.6352210
  93.1454180  95.4021500 145.0088120  94.4226280  96.2096030 145.1017360
  87.8044090  91.3435500 151.1221030  87.5191010  90.9791170 151.9599650
  87.7422950  90.6115960 150.5084170  91.2584760  99.8461440 147.9078620
  90.4847020  99.3059060 147.7477340  91.9879390  99.3268050 147.5696380
 102.0172740  98.8426800 153.7005010 102.7371860  99.3382090 153.3101120
 101.8154560  98.1644690 153.0558880  97.4782680  90.2364760 147.8434400
  96.6647290  89.7377930 147.7679710  97.2844630  91.0763010 147.4270750
 100.1931070  94.6084410 146.1396560 101.0810690  94.9201640 145.9647900
 100.1636160  93.7356660 145.7477140  91.3022160  99.5141820 151.5457430
  91.8200830  98.7110080 151.4914320  90.8506180  99.4520960 152.3874260
  96.1891660 100.7808100 146.8184730  96.5307360 101.5250330 146.3228050
  95.3604370 101.0939220 147.1809560 102.4645340  95.9196250 145.6076420
 102.3809060  96.3510470 144.7572860 103.1839530  96.3794600 146.0403240
 103.4932590 102.7738510 148.3358550 102.8508750 102.1194130 148.6102270
 103.1063250 103.1793600 147.5599220  99.0719070 100.1023940 152.1830240
  99.4242890  99.5052070 151.5231610  98.1881400  99.7768170 152.3538490
  95.1582350 100.8621630 149.5900650  95.8453480 101.4090840 149.9708240
  94.3714770 101.4062360 149.6250260  87.2974750  96.4794450 145.0817730
  88.1669600  96.7619250 145.3653650  86.8065070  97.2930320 144.9666540
  94.4609560  97.8667660 149.2026010  94.9172340  98.6772910 149.4286200
  94.1097770  97.5490800 150.0344500  90.3621340  88.2105310 149.6748530
  90.2335970  88.2023210 150.6233450  89.5383360  88.5488400 149.3239540
 101.8829970 101.6654970 144.8734900 101.6567550 100.9485410 145.4659540
 101.4926170 101.4167410 144.0356650  87.6646000 105.6921830 145.6479360
  88.0243640 106.2911170 144.9936630  87.5238340 106.2381720 146.4214390
 101.4646220  99.5826910 146.5349060 101.1767920 100.0439600 147.3226940
 102.2598390  99.1224680 146.8033280  93.6814620 103.0753030 146.4653030
  93.6724720 103.8082720 145.8497540  92.7612980 102.8284610 146.5579990
  89.2821260  98.2967920 147.2099790  88.6749210  99.0366820 147.2195090
  89.7570610  98.3867280 146.3837990 102.2216080  91.4175680 147.6944240
 101.5929240  91.5221350 146.9802470 101.7268000  91.6372460 148.4838120
  96.6674220 103.1381270 145.1278220  96.7686200 102.9345260 144.1980200
  95.7675960 102.8839550 145.3326000  94.1900110  93.6961630 149.1102120
  93.4816260  94.1647970 149.5515730  94.4744590  93.0383640 149.7447310
  98.2215540  90.4212290 150.5497910  98.0983320  90.4398420 149.6007420
  99.1700100  90.4691230 150.6696310  95.3092330 105.6567590 149.8225890
  95.5633830 105.6188980 148.9005260  94.3604810 105.5300920 149.8154140
  92.3935130  92.0046710 146.4852830  93.2425660  92.4416860 146.4193020
  92.0266400  92.3166970 147.3124890 101.3144910  96.5759470 151.3984400
 100.3735050  96.5909700 151.5732090 101.6288980  95.7895430 151.8444700
  91.2926550  98.2579070 144.9588360  92.0589820  98.1460430 145.5213790
  91.3701240  97.5617040 144.3065130  89.9873310  95.6904140 145.6421250
  90.0676900  94.7431650 145.7538650  90.8793060  96.0211020 145.7481910
 103.3170490 103.7468320 153.0738660 103.4417910 104.5699490 153.5462470
 104.1836050 103.5359050 152.7262810  90.7888020 105.8399530 152.7455790
  91.5250500 105.2914990 153.0164360  91.1728940 106.7055540 152.6061780
  87.6733500 101.9073100 148.6197300  86.7473280 102.1494240 148.6102710
  88.1389930 102.7347360 148.4982050  93.8990330 105.0129840 144.5681360
  94.6918940 105.3018670 144.1163150  93.3794680 104.5822010 143.8893840
 102.9520500 104.2399970 145.9918100 102.6662010 103.8265110 145.1772280
 102.7540050 105.1687680 145.8718620  94.4167730 100.2333250 144.4323710
  94.3118370  99.6185600 145.1585090  94.2491950  99.7099140 143.6486720
  97.6570460  99.2953280 145.0365700  97.1080560  99.7422580 145.6808440
  98.2789720  98.7902530 145.5603370  93.3245580  98.2544200 146.9331000
  93.7462000  98.0884070 147.7762390  93.4496420  97.4444430 146.4386140
  95.8373220  97.2781810 144.1808100  96.3578880  96.5630830 143.8149250
  96.4841620  97.9167680 144.4808610  92.2204480  94.3277430 143.8789160
  92.0193540  93.4644790 144.2402500  92.0496530  94.2410790 142.9410760
  99.6992790  89.1385660 146.4076040  99.9795080  88.2953560 146.7635460
  98.9258520  89.3708770 146.9214790  91.0187280  91.4278050 143.8667040
  91.3213180  91.4345480 142.9586190  91.7581870  91.0775910 144.3634700
  94.2372210  90.3712670 144.8523240  93.8894210  89.6936660 144.2725690
  94.4384980  89.9102180 145.6666630  96.4021250 105.3593420 146.4709840
  97.2972040 105.6978390 146.4928600  96.4338880 104.6372830 145.8434120
  90.0417410 100.7320470 144.6996840  90.4792280 101.2750140 145.3554420
  90.5265140  99.9067420 144.7093180  87.2563210 103.5209500 152.1517100
  87.5866220 102.6530560 151.9195740  87.6854210 103.7268020 152.9822060
  91.8525130 101.8518510 149.8119070  91.5520670 101.7283480 150.7122980
  91.7462620 100.9927100 149.4034800 104.6217050 101.6314910 144.5145750
 103.7910010 101.6991560 144.9852980 104.7988880 102.5219030 144.2112610
 104.0773510  98.3762390 147.0179950 104.8392420  98.9459040 147.1239640
 104.0927880  97.8089590 147.7888260  87.5777850  96.9000320 151.2487610
  86.9226690  96.6311960 150.6047310  88.4155800  96.7904800 150.7989590
 105.0833480  99.2312490 151.8621880 105.4542310  98.4479810 151.4557850
 105.7235410  99.9201590 151.6839180 104.1292680  98.6696760 144.1752470
 104.4041520  99.5775640 144.0471690 103.9403420  98.6059290 145.1114460
 100.5268290  91.6941610 145.4706100 100.9453170  91.5072590 144.6302760
 100.2204350  90.8420660 145.7809030 104.0258020  96.6065750 149.1681900
 103.6501620  95.8393680 148.7363190 103.2961140  96.9888450 149.6556830
  86.7915930  94.1099250 147.1912940  85.8880010  94.3729450 147.0164600
  87.2756550  94.3810420 146.4112900 103.3008980  94.8323240 152.4689140
 103.8246460  94.3385890 151.8379310 103.8868400  94.9673600 153.2136710
  89.3343140  93.1664790 145.1007320  90.0434840  92.7448010 144.6154600
  88.6183080  93.2340020 144.4690670  88.9817300  89.2204120 144.1409970
  89.7045430  89.7613060 144.4591190  89.2541820  88.9467540 143.2651510
 102.7908950  94.0896590 148.4081550 103.2868070  93.8567460 149.1930430
 102.5925020  93.2508430 147.9919190 104.2196110  92.7257540 150.9419230
 104.1095390  92.5713580 151.8801500 104.9803700  92.1978480 150.6994640
 105.1086380  90.5565460 144.1825370 106.0335690  90.4246640 143.9743660
 105.0862170  90.6358280 145.1361820 105.1824870  91.3276120 146.8082080
 104.3876370  91.2621240 147.3374990 105.3868150  92.2626760 146.7967430
 102.1243290 105.3667670 150.8020470 102.7202360 105.0452240 150.1254890
 102.3821440 104.8939490 151.5933740  93.1051220 104.3251210 153.8066330
  93.6216240 103.7138570 153.2814590  93.7548600 104.8279990 154.2977340
 101.6144800  89.6573000 153.2580910 102.0552890  89.6018100 152.4102510
 101.3452390  90.5731010 153.3291090 103.4783370  89.2888240 151.2689730
 103.4171770  88.3449460 151.1220750 104.2575400  89.3968330 151.8143190
  87.7836120 105.4280600 150.2313680  87.6158160 104.7951280 150.9295570
  86.9170630 105.6340000 149.8807870  88.4064140  89.2597380 147.7345540
  89.1643500  89.3726260 147.1609570  87.9441310  90.0966580 147.6888970
  94.9477950  91.3736650 150.7247850  94.1352460  90.9993540 150.3843730
  95.4519590  90.6181730 151.0269040  99.4502930  88.0379100 151.9630920
 100.0532300  88.6099310 152.4379440  98.7095920  88.6018540 151.7404820
 102.5937530  88.4400660 147.2371200 102.7888160  89.3384110 147.5038630
 101.8067400  88.2087740 147.7304150  89.3898820 104.1213830 147.6763820
  88.8646440 104.5021860 146.9725780  89.3143400 104.7464600 148.3973530
  90.7789290  89.7861430 146.2747510  91.3082050  88.9991230 146.1455460
  91.4117610  90.4652620 146.5083040  92.9727130  89.5236570 149.3292900
  92.3429870  88.8223880 149.4963030  92.4332270  90.2840700 149.1126060
 104.1464140 105.6801370 148.9977760 104.3216330 104.9939110 148.3538680
 103.4485710 106.2048420 148.6054430  91.9891790 106.0696210 146.5513070
  92.7210610 105.7855490 146.0036960  92.2485460 105.8309490 147.4412450
  91.1506580 102.1860940 146.5559400  90.5215460 102.6546040 147.1045230
  91.2654410 101.3410160 146.9905590  96.7374340  98.0145620 134.5869870
  95.9616440  97.5346060 134.8768440  97.3887270  97.3351270 134.4126030
  90.7540170  98.3265430 135.4645630  89.9225050  98.0714140 135.8642140
  91.3621150  98.3976200 136.2003550 100.7581770 102.4205810 133.3669000
 100.2963300 101.6493050 133.6956170 101.5707320 102.4471880 133.8721450
  89.1632120  93.2867320 129.2488020  88.2748820  93.6283290 129.1467900
  89.4473310  93.0867640 128.3568850  87.1265130  95.8872970 135.1327720
  87.6981240  95.1195170 135.1331360  87.1266670  96.1861730 134.2234330
  96.9845080 104.7063820 132.9872990  96.3656520 105.1621320 132.4167430
  97.8396860 104.8615280 132.5862690  96.1783330 100.6902810 134.5940030
  96.1091610  99.7492750 134.4329160  96.9403190 100.7804220 135.1662600
  88.3690000  91.2957330 136.9196650  88.1892840  90.3983080 137.1999410
  87.9670080  91.8429200 137.5943600  97.2088500  93.4973190 134.8208960
  97.5853320  92.6245070 134.7082630  97.1108010  93.8331890 133.9299400
  91.3393510  91.8698820 130.2826400  91.4460260  92.7702550 130.5895160
  90.4285870  91.8216790 129.9921050  88.9876670  93.7917830 135.5278990
  89.6686780  94.0556200 136.1466390  88.6724720  92.9518700 135.8617000
  93.1801240  94.8385190 134.6151580  93.6879460  95.3366160 135.2556600
  93.7114480  94.0620390 134.4390940 105.2812170  93.0090380 138.3180930
 104.5764340  93.3972090 137.7996040 105.5470090  93.7040670 138.9201860
  92.7140190  99.1178930 137.0588500  92.3809570  99.7447850 137.7009570
  92.8906870  99.6440810 136.2790170  91.9259290 101.0859730 138.8737680
  92.5433290 101.7610810 138.5922130  91.0652410 101.4947710 138.7825180
  87.2191630 100.2759590 127.7544530  86.8419610 100.7646690 127.0229430
  87.4764700 100.9484870 128.3851060 102.8436880 102.5499140 136.7892320
 102.1600400 103.2198250 136.7808990 103.3831170 102.7479790 136.0237180
 100.3795620 104.3943270 135.5037500 100.3922780 103.9905560 134.6359760
  99.8270840 105.1690560 135.3998930 101.6741040 101.1159490 130.5927670
 101.5637370 100.1733820 130.7177090 101.6709290 101.4775130 131.4790430
  99.7781060  99.2973110 136.8320110 100.1949850  99.0833220 135.9973570
 100.5020880  99.5545900 137.4028730 103.7243160  97.6960330 136.9236350
 102.8961790  97.7653420 136.4486480 104.3193640  98.2814640 136.4552180
 101.2458610  98.3045110 130.4525410 100.6271030  97.9664660 129.8051710
 101.2283060  97.6604870 131.1604600 100.6885170  94.4829650 137.8691220
 100.2756350  95.3083360 138.1231210  99.9561120  93.8974690 137.6767580
  92.8217960  97.2689550 132.7309890  92.4174960  96.5566800 132.2355790
  92.9081080  96.9242790 133.6197930  93.2899660 100.9557110 134.8949100
  92.9927950 100.3502580 134.2156880  94.2399480 100.9934420 134.7838460
  91.5346580  94.0432760 136.5108930  92.0861170  94.1528100 135.7362180
  92.0490090  94.4170360 137.2264160 101.3785270 104.5288980 138.5572200
 100.9015830 105.3361170 138.3644810 100.6947060 103.8767310 138.7098410
  92.3818090 100.6938800 141.5456900  91.4846620 100.9178770 141.7930300
  92.4070960 100.8173740 140.5968300  91.2089310  97.5652120 140.1214270
  91.0697080  98.4374920 140.4901670  90.3270670  97.2224930 139.9762210
  97.5318690 102.4827990 131.4279400  97.9714600 103.2252320 131.0134790
  97.4705580 102.7254560 132.3518360  93.0069660 103.5073820 142.3299420
  92.9785090 103.9116770 141.4627850  92.8434630 102.5784180 142.1671020
  89.5222590  96.1634530 130.2316540  89.4020190  96.8896620 129.6197810
  89.2123480  95.3937440 129.7544450 104.9584480 104.2900920 143.6263590
 105.4344200 104.7683810 144.3052670 105.5791640 104.2218410 142.9009090
 104.3617730 101.4813770 140.7863600 104.4880790 101.2425650 139.8680780
 104.4039110 100.6498310 141.2585680  98.2234470 105.1841770 139.3558410
  98.7379140 105.0949780 140.1580840  97.3803550 105.5301470 139.6486320
 100.1988870 105.4697110 128.7842410 100.0390010 105.1800050 129.6824240
 100.0335580 104.6937240 128.2487640  92.6777250 105.2495640 130.5614030
  92.5019730 104.3331180 130.3481830  91.8232990 105.6082930 130.8011830
  99.9015000 102.9784670 127.3440410  99.2080160 102.9761960 126.6842690
 100.6437860 102.5543990 126.9134580  99.4664930 104.6047380 131.4188900
  99.9221880 103.8236760 131.7327520  99.8057450 105.3154200 131.9630080
 104.2141740  93.5346230 141.7513340 103.5986010  94.0425900 141.2228800
 103.8938160  92.6344560 141.6939280  87.2167480 100.3763840 138.5779640
  87.3798520  99.9069200 137.7599010  87.6819930  99.8687400 139.2428480
  91.9886250  89.5069600 133.6140210  91.5454400  90.2879140 133.2824730
  92.5471240  89.8299490 134.3211150 101.2760570  93.5947070 140.3472190
 100.4254160  93.2952820 140.6681260 101.1162360  93.8389080 139.4356010
  98.3710280  95.0948820 142.4470980  98.6963690  94.2612570 142.1073210
  99.1590610  95.6177340 142.5949310  95.1045070  89.1280300 128.4946040
  94.4799250  89.1240170 129.2199350  95.0175190  88.2611260 128.0982010
  94.2199680  95.5288750 142.0081730  94.1243280  94.5883480 141.8582130
  95.0631660  95.7503820 141.6129800  97.6163100  93.2730080 131.9715390
  98.0092670  93.5902280 131.1584080  97.9779950  92.3941960 132.0859910
  89.3510220  91.9402420 140.1615510  88.9573610  92.7877630 140.3688290
  88.6628620  91.3028790 140.3524150  95.9255270  92.0237390 143.2312250
  95.2353590  91.8309590 143.8658340  96.6687570  92.3072030 143.7636550
  86.6527270  89.8630880 134.1945590  86.3640320  90.4333740 134.9070570
  87.3973030  89.3835330 134.5576820  98.2018240  95.8635830 136.0666170
  97.4699360  96.3722640 136.4156270  97.8042580  95.0465810 135.7654950
  90.4898010  92.4216520 133.4312870  90.1498060  92.8991750 134.1879920
  89.7275330  91.9681640 133.0713970  98.6644150  91.3169510 135.4789110
  98.6816890  91.7678160 136.3230960  98.4159730  90.4175150 135.6922550
 102.0914900  88.7301690 141.3175490 102.4160670  87.9991350 141.8433470
 102.1271410  88.4115330 140.4156480  88.7906460  99.7515270 140.7375450
  88.4061250  99.1108940 141.3358410  89.1018650 100.4551390 141.3070180
  94.9403600  96.5991810 136.2184070  95.3073730  96.1250380 136.9645410
  94.7508660  97.4733380 136.5592410  87.8044090  91.3435500 132.3477540
  87.5191010  90.9791170 133.1856160  87.7422950  90.6115960 131.7340680
  91.2584760  99.8461440 129.1335130  90.4847020  99.3059060 128.9733850
  91.9879390  99.3268050 128.7952890 102.0172740  98.8426800 134.9261520
 102.7371860  99.3382090 134.5357630 101.8154560  98.1644690 134.2815390
  97.3991540  98.9135860 140.8130520  97.3328850  97.9931530 140.5588110
  96.7696680  99.0111300 141.5275160  91.3022160  99.5141820 132.7713940
  91.8200830  98.7110080 132.7170830  90.8506180  99.4520960 133.6130770
  88.7866700  96.4803190 139.6839640  88.4281640  97.1457040 140.2712980
  88.4921260  95.6486740 140.0552260  91.9879820  96.9387430 142.5679190
  91.6879960  97.0844610 141.6707010  92.7591060  96.3792720 142.4752580
  97.3308270 101.7356430 140.5634320  97.3452810 100.8037390 140.3453230
  96.6233370 101.8216190 141.2024090 103.5419480  98.3763770 139.9102900
 102.8167670  98.9692550 139.7132290 104.0694940  98.3687310 139.1116270
 103.4932590 102.7738510 129.5615060 102.8508750 102.1194130 129.8358780
 103.1063250 103.1793600 128.7855730  99.0719070 100.1023940 133.4086750
  99.4242890  99.5052070 132.7488120  98.1881400  99.7768170 133.5795000
  87.2974750  96.4794450 126.3074240  88.1669600  96.7619250 126.5910160
  86.8065070  97.2930320 126.1923050  96.7642170 103.3774000 137.6574820
  97.4084390 103.5833380 138.3348240  97.1271610 102.6162400 137.2045670
  98.0374250 101.3806350 136.3752270  98.6796480 100.6799510 136.4884440
  98.5623600 102.1604790 136.1949160 101.8829970 101.6654970 126.0991410
 101.6567550 100.9485410 126.6916050 101.4926170 101.4167410 125.2613160
  99.8111870 102.1801250 139.5788330 100.1468110 102.7667940 140.2566250
  98.8912210 102.0493960 139.8086120  87.6646000 105.6921830 126.8735870
  88.0243640 106.2911170 126.2193140  87.5238340 106.2381720 127.6470900
 101.4646220  99.5826910 127.7605570 101.1767920 100.0439600 128.5483450
 102.2598390  99.1224680 128.0289790  95.6400450 102.2292580 142.7476390
  95.3197320 101.5101820 143.2922080  94.9658810 102.9047650 142.8212450
  93.6814620 103.0753030 127.6909540  93.6724720 103.8082720 127.0754050
  92.7612980 102.8284610 127.7836500  89.2821260  98.2967920 128.4356300
  88.6749210  99.0366820 128.4451600  89.7570610  98.3867280 127.6094500
  98.8554050  92.4618740 138.1113190  99.2234870  91.6413950 138.4392760
  97.9952250  92.5220630 138.5268840  96.6674220 103.1381270 126.3534730
  96.7686200 102.9345260 125.4236710  95.7675960 102.8839550 126.5582510
  95.3092330 105.6567590 131.0482400  95.5633830 105.6188980 130.1261770
  94.3604810 105.5300920 131.0410650 103.0222900  91.3326290 139.1779550
 102.5196500  92.0731690 139.5173360 103.8379560  91.7210290 138.8616340
  91.2926550  98.2579070 126.1844870  92.0589820  98.1460430 126.7470300
  91.3701240  97.5617040 125.5321640  89.9873310  95.6904140 126.8677760
  90.0676900  94.7431650 126.9795160  90.8793060  96.0211020 126.9738420
 103.3170490 103.7468320 134.2995170 103.4417910 104.5699490 134.7718980
 104.1836050 103.5359050 133.9519320  89.7946300 105.0245600 143.1597880
  90.5959030 105.3457650 143.5733280  89.2798120 104.6641180 143.8817790
  93.8990330 105.0129840 125.7937870  94.6918940 105.3018670 125.3419660
  93.3794680 104.5822010 125.1150350  98.6310930 101.1325470 143.1073290
  98.0249090 101.1557070 142.3669040  98.3265040 100.4008510 143.6440540
 100.0611300 104.8605760 141.7182700 101.0133050 104.7763780 141.6682940
  99.9139520 105.5247470 142.3916490 102.9520500 104.2399970 127.2174610
 102.6662010 103.8265110 126.4028790 102.7540050 105.1687680 127.0975130
  87.5144110  97.5119060 142.1033930  88.0183130  96.9326340 142.6750160
  86.7751530  97.7959290 142.6410300  94.5682050  98.9190050 141.6369450
  93.8027720  99.4875050 141.5524120  94.7498010  98.6266260 140.7437680
  97.6570460  99.2953280 126.2622210  97.1080560  99.7422580 126.9064950
  98.2789720  98.7902530 126.7859880 101.7105400 100.6495380 142.1944470
 102.4514870 100.9871140 141.6911930 100.9478080 100.8187440 141.6414240
  89.5467190  95.6548650 142.9984000  89.5872530  95.3562520 143.9069230
  90.4012690  96.0556260 142.8391520  91.4873000  94.2340750 140.9658490
  90.9569460  93.7431700 140.3381830  92.1561070  94.6624950 140.4316420
 100.3851060  98.7010210 140.7299680 100.7992080  98.8555290 141.5790100
  99.4502060  98.8265430 140.8925460 100.8573230  96.0406370 142.7338830
 101.4394000  95.2858690 142.6459310 101.0335000  96.5713810 141.9570310
  95.1466290  98.6530690 138.6995610  95.5654400  99.4963420 138.5271850
  94.2274920  98.7902730 138.4702390  97.4830190  96.3846870 140.0833450
  97.6026400  95.7888010 140.8228290  98.3424190  96.4216560 139.6634750
  99.8218090  96.9384060 138.6595960  99.2953310  97.4626680 138.0561100
 100.1649430  97.5711450 139.2905690  92.9973710 104.9583700 139.8153340
  92.4594800 105.6829760 139.4962040  93.2507670 104.4814040 139.0250680
  99.0692390  92.5434030 141.5742290  98.3807910  91.8815570 141.5092280
  99.7898410  92.0972300 142.0190750  95.8535920 106.1934910 140.0739990
  95.7794620 107.0970050 140.3812360  94.9514760 105.8746810 140.0462060
  94.2372210  90.3712670 126.0779750  93.8894210  89.6936660 125.4982200
  94.4384980  89.9102180 126.8923140  96.4021250 105.3593420 127.6966350
  97.2972040 105.6978390 127.7185110  96.4338880 104.6372830 127.0690630
  90.0417410 100.7320470 125.9253350  90.4792280 101.2750140 126.5810930
  90.5265140  99.9067420 125.9349690  91.8525130 101.8518510 131.0375580
  91.5520670 101.7283480 131.9379490  91.7462620 100.9927100 130.6291310
 103.3815600 103.8897090 140.4032550 102.7817590 103.9489650 139.6596470
 103.5109500 102.9502070 140.5329400 104.6217050 101.6314910 125.7402260
 103.7910010 101.6991560 126.2109490 104.7988880 102.5219030 125.4369120
 104.0773510  98.3762390 128.2436460 104.8392420  98.9459040 128.3496150
 104.0927880  97.8089590 129.0144770  87.5777850  96.9000320 132.4744120
  86.9226690  96.6311960 131.8303820  88.4155800  96.7904800 132.0246100
 105.0833480  99.2312490 133.0878390 105.4542310  98.4479810 132.6814360
 105.7235410  99.9201590 132.9095690 102.0667240 100.6149070 138.5008710
 101.2527080 101.0446230 138.7634500 102.4741440 101.2267480 137.8877760
 104.1292680  98.6696760 125.4008980 104.4041520  99.5775640 125.2728200
 103.9403420  98.6059290 126.3370970  88.6153780  97.2852890 137.0147460
  88.9826820  97.1980290 137.8943480  88.0464600  96.5219440 136.9154320
 103.4157640  95.7537270 140.0277930 103.1843730  95.5250020 139.1275880
 103.6762190  96.6736820 139.9822820  88.1669780  94.1961980 140.9205880
  87.2725830  94.1628740 141.2599590  88.7067330  94.3948770 141.6857130
 101.8545710  90.9793700 142.8057630 102.7315890  90.9877100 143.1891630
 101.8666550  90.2424540 142.1949980  86.7915930  94.1099250 128.4169450
  85.8880010  94.3729450 128.2421110  87.2756550  94.3810420 127.6369410
 103.4798700  94.9163110 137.2165200 102.5301410  94.8826650 137.3310190
 103.6611710  95.8263220 136.9814970  88.6709490  88.4710310 135.2689100
  89.3185680  87.9207690 134.8284260  89.0911330  88.7253460 136.0904910
 102.5661830  88.6651670 138.6258740 103.2034050  89.2785810 138.9917930
 102.7136720  88.7012330 137.6807970 105.1824870  91.3276120 128.0338590
 104.3876370  91.2621240 128.5631500 105.3868150  92.2626760 128.0223940
 102.1243290 105.3667670 132.0276980 102.7202360 105.0452240 131.3511400
 102.3821440 104.8939490 132.8190250  88.4241490  88.6265980 138.0114420
  88.0756310  89.0829800 138.7772600  88.0929190  87.7323110 138.0936850
  90.0305860 101.7985580 142.1767610  89.9875490 101.4278490 143.0582070
  90.1616870 102.7363150 142.3169430  93.7311890 103.3545170 137.7777330
  93.4903250 103.6219730 136.8907850  94.6714530 103.5250900 137.8328190
  98.5740870  89.4747920 141.1726130  99.1881280  89.7927210 140.5107210
  99.1190430  88.9896510 141.7921990 104.9916050 105.3739550 138.5787970
 104.4974330 105.7708420 137.8615100 104.3829340 104.7488760 138.9725250
  89.0962130  88.1542180 141.2865190  89.6445120  87.9730230 140.5231300
  89.1617440  87.3636290 141.8221500  89.8693890 104.7447830 139.2965390
  89.2754210 104.6132530 140.0355430  89.8617730 103.9085970 138.8307490
  99.3148910  88.0380060 137.4995420  98.4408750  88.3715170 137.2968350
  99.2059660  87.5653240 138.3247290 100.2220890  90.2450930 138.8837140
  99.8934250  89.4302690 138.5038870 101.1703190  90.2020740 138.7602830
 102.6755500 106.0162970 135.8574710 102.2158470 106.7678780 135.4832730
 102.0467960 105.2969440 135.7989510  93.1051220 104.3251210 135.0322840
  93.6216240 103.7138570 134.5071100  93.7548600 104.8279990 135.5233850
  95.8446720 105.2159700 135.8591820  96.1324530 104.9614000 134.9824830
  96.3569940 104.6637060 136.4497390  97.0623730  88.9549900 136.4388330
  96.2795520  89.4295400 136.7185090  96.7686660  88.0504730 136.3301510
 101.6144800  89.6573000 134.4837420 102.0552890  89.6018100 133.6359020
 101.3452390  90.5731010 134.5547600  94.9477950  91.3736650 131.9504360
  94.1352460  90.9993540 131.6100240  95.4519590  90.6181730 132.2525550
  99.4502930  88.0379100 133.1887430 100.0532300  88.6099310 133.6635950
  98.7095920  88.6018540 132.9661330  95.9119080 106.1375800 143.2260020
  96.8386390 105.9020070 143.2695980  95.8969510 106.9647800 142.7446050
 104.1464140 105.6801370 130.2234270 104.3216330 104.9939110 129.5795190
 103.4485710 106.2048420 129.8310940  93.0982690  88.8020550 142.9901900
  92.8166960  89.3054150 142.2262720  93.4802390  88.0042300 142.6244030
  91.9891790 106.0696210 127.7769580  92.7210610 105.7855490 127.2293470
  92.2485460 105.8309490 128.6668960  91.1506580 102.1860940 127.7815910
  90.5215460 102.6546040 128.3301740  91.2654410 101.3410160 128.2162100
  99.6998150  88.2174130 143.5682370  99.5863600  88.5368740 144.4633890
 100.5167890  88.6186640 143.2719650 102.4796640 105.3645660 143.0501060
 103.2721960 104.8694890 142.8427020 102.7729790 106.0435800 143.6576670
  90.7540170  98.3265430 116.6902140  89.9225050  98.0714140 117.0898650
  91.3621150  98.3976200 117.4260060  90.7341430 102.3605520 116.8860160
  91.0369470 101.4703260 116.7070380  91.4785020 102.9175740 116.6582410
  96.9845080 104.7063820 114.2129500  96.3656520 105.1621320 113.6423940
  97.8396860 104.8615280 113.8119200 100.9912620  90.9923630 112.9793810
 101.8122240  90.5020200 113.0219290 101.0246700  91.5821290 113.7325650
 101.2274100  92.9324010 115.7521350 100.5229670  93.2208900 116.3324460
 101.5886260  93.7424120 115.3920910 102.8436880 102.5499140 118.0148830
 102.1600400 103.2198250 118.0065500 103.3831170 102.7479790 117.2493690
  94.8280560  88.6775980 114.4386550  95.1355540  88.1222870 113.7222050
  93.8981260  88.8120440 114.2559540  97.2030400  93.0141810 108.1713830
  96.2634070  93.1755770 108.2566290  97.5213660  93.7327490 107.6249820
  92.8217960  97.2689550 113.9566400  92.4174960  96.5566800 113.4612300
  92.9081080  96.9242790 114.8454440  93.2899660 100.9557110 116.1205610
  92.9927950 100.3502580 115.4413390  94.2399480 100.9934420 116.0094970
  97.5318690 102.4827990 112.6535910  97.9714600 103.2252320 112.2391300
  97.4705580 102.7254560 113.5774870 103.0040450  88.7974730 106.9995710
 102.6913110  88.8901560 107.8994780 103.7652920  89.3755760 106.9493140
 104.9584480 104.2900920 124.8520100 105.4344200 104.7683810 125.5309180
 105.5791640 104.2218410 124.1265600  87.1607960  99.3349670 117.2641690
  87.2388380  99.4698440 116.3197410  87.7749640  98.6265560 117.4569810
  88.4055590 101.0349860 113.6747870  87.9983670 101.1764450 112.8201470
  89.2968600 100.7510020 113.4719080  92.6777250 105.2495640 111.7870540
  92.5019730 104.3331180 111.5738340  91.8232990 105.6082930 112.0268340
 104.2141740  93.5346230 122.9769850 103.5986010  94.0425900 122.4485310
 103.8938160  92.6344560 122.9195790  87.2167480 100.3763840 119.8036150
  87.3798520  99.9069200 118.9855520  87.6819930  99.8687400 120.4684990
  91.7800470  94.6303170 112.5677970  91.5541390  94.4140340 113.4724590
  90.9993000  95.0631630 112.2223940  94.6395630  92.5390030 115.6975170
  94.6431690  92.0979980 114.8479710  95.5346750  92.8607360 115.8046990
  98.6644150  91.3169510 116.7045620  98.6816890  91.7678160 117.5487470
  98.4159730  90.4175150 116.9179060  93.7137280  95.8503250 108.0865230
  93.1454180  95.4021500 107.4601140  94.4226280  96.2096030 107.5530380
  88.7906460  99.7515270 121.9631960  88.4061250  99.1108940 122.5614920
  89.1018650 100.4551390 122.5326690  91.2584760  99.8461440 110.3591640
  90.4847020  99.3059060 110.1990360  91.9879390  99.3268050 110.0209400
  97.4782680  90.2364760 110.2947420  96.6647290  89.7377930 110.2192730
  97.2844630  91.0763010 109.8783770 100.1931070  94.6084410 108.5909580
 101.0810690  94.9201640 108.4160920 100.1636160  93.7356660 108.1990160
  91.3022160  99.5141820 113.9970450  91.8200830  98.7110080 113.9427340
  90.8506180  99.4520960 114.8387280  96.1891660 100.7808100 109.2697750
  96.5307360 101.5250330 108.7741070  95.3604370 101.0939220 109.6322580
  88.7866700  96.4803190 120.9096150  88.4281640  97.1457040 121.4969490
  88.4921260  95.6486740 121.2808770 103.5419480  98.3763770 121.1359410
 102.8167670  98.9692550 120.9388800 104.0694940  98.3687310 120.3372780
  90.3621340  88.2105310 112.1261550  90.2335970  88.2023210 113.0746470
  89.5383360  88.5488400 111.7752560  87.6487860 103.9576690 122.5734780
  87.7578980 103.0171430 122.4330170  86.9968420 104.2231440 121.9248510
  93.6814620 103.0753030 108.9166050  93.6724720 103.8082720 108.3010560
  92.7612980 102.8284610 109.0093010 102.2216080  91.4175680 110.1457260
 101.5929240  91.5221350 109.4315490 101.7268000  91.6372460 110.9351140
  96.6674220 103.1381270 107.5791240  96.7686200 102.9345260 106.6493220
  95.7675960 102.8839550 107.7839020  98.2215540  90.4212290 113.0010930
  98.0983320  90.4398420 112.0520440  99.1700100  90.4691230 113.1209330
  95.3092330 105.6567590 112.2738910  95.5633830 105.6188980 111.3518280
  94.3604810 105.5300920 112.2667160 101.3144910  96.5759470 113.8497420
 100.3735050  96.5909700 114.0245110 101.6288980  95.7895430 114.2957720
  91.2926550  98.2579070 107.4101380  92.0589820  98.1460430 107.9726810
  91.3701240  97.5617040 106.7578150  90.7888020 105.8399530 115.1968810
  91.5250500 105.2914990 115.4677380  91.1728940 106.7055540 115.0574800
  87.6733500 101.9073100 111.0710320  86.7473280 102.1494240 111.0615730
  88.1389930 102.7347360 110.9495070  89.7946300 105.0245600 124.3854390
  90.5959030 105.3457650 124.7989790  89.2798120 104.6641180 125.1074300
  98.6310930 101.1325470 124.3329800  98.0249090 101.1557070 123.5925550
  98.3265040 100.4008510 124.8697050  87.5144110  97.5119060 123.3290440
  88.0183130  96.9326340 123.9006670  86.7751530  97.7959290 123.8666810
  94.4167730 100.2333250 106.8836730  94.3118370  99.6185600 107.6098110
  94.2491950  99.7099140 106.0999740  97.6570460  99.2953280 107.4878720
  97.1080560  99.7422580 108.1321460  98.2789720  98.7902530 108.0116390
 101.7105400 100.6495380 123.4200980 102.4514870 100.9871140 122.9168440
 100.9478080 100.8187440 122.8670750  95.8373220  97.2781810 106.6321120
  96.3578880  96.5630830 106.2662270  96.4841620  97.9167680 106.9321630
  99.6992790  89.1385660 108.8589060  99.9795080  88.2953560 109.2148480
  98.9258520  89.3708770 109.3727810  96.4021250 105.3593420 108.9222860
  97.2972040 105.6978390 108.9441620  96.4338880 104.6372830 108.2947140
  90.0417410 100.7320470 107.1509860  90.4792280 101.2750140 107.8067440
  90.5265140  99.9067420 107.1606200  87.2563210 103.5209500 114.6030120
  87.5866220 102.6530560 114.3708760  87.6854210 103.7268020 115.4335080
  91.8525130 101.8518510 112.2632090  91.5520670 101.7283480 113.1636000
  91.7462620 100.9927100 111.8547820  87.7453420 104.3880090 117.3411750
  87.3084410 104.5680890 118.1735900  88.3131100 105.1454710 117.1993470
 102.0667240 100.6149070 119.7265220 101.2527080 101.0446230 119.9891010
 102.4741440 101.2267480 119.1134270 100.5268290  91.6941610 107.9219120
 100.9453170  91.5072590 107.0815780 100.2204350  90.8420660 108.2322050
  88.6153780  97.2852890 118.2403970  88.9826820  97.1980290 119.1199990
  88.0464600  96.5219440 118.1410830  88.1669780  94.1961980 122.1462390
  87.2725830  94.1628740 122.4856100  88.7067330  94.3948770 122.9113640
 104.2196110  92.7257540 113.3932250 104.1095390  92.5713580 114.3314520
 104.9803700  92.1978480 113.1507660 105.1086380  90.5565460 106.6338390
 106.0335690  90.4246640 106.4256680 105.0862170  90.6358280 107.5874840
 105.1824870  91.3276120 109.2595100 104.3876370  91.2621240 109.7888010
 105.3868150  92.2626760 109.2480450  90.0305860 101.7985580 123.4024120
  89.9875490 101.4278490 124.2838580  90.1616870 102.7363150 123.5425940
  89.8693890 104.7447830 120.5221900  89.2754210 104.6132530 121.2611940
  89.8617730 103.9085970 120.0564000  99.3148910  88.0380060 118.7251930
  98.4408750  88.3715170 118.5224860  99.2059660  87.5653240 119.5503800
  89.5006120 102.1106210 119.4729940  88.7740180 101.4911500 119.4055890
  89.5615270 102.5046820 118.6028020  93.1051220 104.3251210 116.2579350
  93.6216240 103.7138570 115.7327610  93.7548600 104.8279990 116.7490360
  95.8446720 105.2159700 117.0848330  96.1324530 104.9614000 116.2081340
  96.3569940 104.6637060 117.6753900  97.0623730  88.9549900 117.6644840
  96.2795520  89.4295400 117.9441600  96.7686660  88.0504730 117.5558020
 101.6144800  89.6573000 115.7093930 102.0552890  89.6018100 114.8615530
 101.3452390  90.5731010 115.7804110 103.4783370  89.2888240 113.7202750
 103.4171770  88.3449460 113.5733770 104.2575400  89.3968330 114.2656210
  87.7836120 105.4280600 112.6826700  87.6158160 104.7951280 113.3808590
  86.9170630 105.6340000 112.3320890  99.4502930  88.0379100 114.4143940
 100.0532300  88.6099310 114.8892460  98.7095920  88.6018540 114.1917840
 102.5937530  88.4400660 109.6884220 102.7888160  89.3384110 109.9551650
 101.8067400  88.2087740 110.1817170  89.3898820 104.1213830 110.1276840
  88.8646440 104.5021860 109.4238800  89.3143400 104.7464600 110.8486550
  91.1506580 102.1860940 109.0072420  90.5215460 102.6546040 109.5558250
  91.2654410 101.3410160 109.4418610 102.4796640 105.3645660 124.2757570
 103.2721960 104.8694890 124.0683530 102.7729790 106.0435800 124.8833180
 100.9912620  90.9923630  94.2050320 101.8122240  90.5020200  94.2475800
 101.0246700  91.5821290  94.9582160 102.8436880 102.5499140  99.2405340
 102.1600400 103.2198250  99.2322010 103.3831170 102.7479790  98.4750200
 104.2961020  92.3778800  97.3687070 103.3485930  92.4117780  97.5002500
 104.6211010  93.1917750  97.7536430  94.8280560  88.6775980  95.6643060
  95.1355540  88.1222870  94.9478560  93.8981260  88.8120440  95.4816050
 100.3795620 104.3943270  97.9550520 100.3922780 103.9905560  97.0872780
  99.8270840 105.1690560  97.8511950 103.7243160  97.6960330  99.3749370
 102.8961790  97.7653420  98.8999500 104.3193640  98.2814640  98.9065200
 101.3785270 104.5288980 101.0085220 100.9015830 105.3361170 100.8157830
 100.6947060 103.8767310 101.1611430 103.0040450  88.7974730  88.2252220
 102.6913110  88.8901560  89.1251290 103.7652920  89.3755760  88.1749650
 104.9584480 104.2900920 106.0776610 105.4344200 104.7683810 106.7565690
 105.5791640 104.2218410 105.3522110  99.4664930 104.6047380  93.8701920
  99.9221880 103.8236760  94.1840540  99.8057450 105.3154200  94.4143100
  98.3710280  95.0948820 104.8984000  98.6963690  94.2612570 104.5586230
  99.1590610  95.6177340 105.0462330  95.9255270  92.0237390 105.6825270
  95.2353590  91.8309590 106.3171360  96.6687570  92.3072030 106.2149570
  99.8111870 102.1801250 102.0301350 100.1468110 102.7667940 102.7079270
  98.8912210 102.0493960 102.2599140  95.6400450 102.2292580 105.1989410
  95.3197320 101.5101820 105.7435100  94.9658810 102.9047650 105.2725470
 103.3170490 103.7468320  96.7508190 103.4417910 104.5699490  97.2232000
 104.1836050 103.5359050  96.4032340  98.6310930 101.1325470 105.5586310
  98.0249090 101.1557070 104.8182060  98.3265040 100.4008510 106.0953560
 100.0611300 104.8605760 104.1695720 101.0133050 104.7763780 104.1195960
  99.9139520 105.5247470 104.8429510 101.7105400 100.6495380 104.6457490
 102.4514870 100.9871140 104.1424950 100.9478080 100.8187440 104.0927260
 100.3851060  98.7010210 103.1812700 100.7992080  98.8555290 104.0303120
  99.4502060  98.8265430 103.3438480 100.8573230  96.0406370 105.1851850
 101.4394000  95.2858690 105.0972330 101.0335000  96.5713810 104.4083330
  99.8218090  96.9384060 101.1108980  99.2953310  97.4626680 100.5074120
 100.1649430  97.5711450 101.7418710  99.6992790  89.1385660  90.0845570
  99.9795080  88.2953560  90.4404990  98.9258520  89.3708770  90.5984320
 103.3815600 103.8897090 102.8545570 102.7817590 103.9489650 102.1109490
 103.5109500 102.9502070 102.9842420 104.6217050 101.6314910  88.1915280
 103.7910010 101.6991560  88.6622510 104.7988880 102.5219030  87.8882140
 104.0773510  98.3762390  90.6949480 104.8392420  98.9459040  90.8009170
 104.0927880  97.8089590  91.4657790 102.0667240 100.6149070 100.9521730
 101.2527080 101.0446230 101.2147520 102.4741440 101.2267480 100.3390780
 104.1292680  98.6696760  87.8522000 104.4041520  99.5775640  87.7241220
 103.9403420  98.6059290  88.7883990 104.0258020  96.6065750  92.8451430
 103.6501620  95.8393680  92.4132720 103.2961140  96.9888450  93.3326360
 103.3008980  94.8323240  96.1458670 103.8246460  94.3385890  95.5148840
 103.8868400  94.9673600  96.8906240 102.7908950  94.0896590  92.0851080
 103.2868070  93.8567460  92.8699960 102.5925020  93.2508430  91.6688720
 104.2196110  92.7257540  94.6188760 104.1095390  92.5713580  95.5571030
 104.9803700  92.1978480  94.3764170 102.1243290 105.3667670  94.4790000
 102.7202360 105.0452240  93.8024420 102.3821440 104.8939490  95.2703270
  95.9366310  89.8177860 103.9846860  95.8755200  90.4099690 104.7342270
  96.8766690  89.7103820 103.8397120 104.9916050 105.3739550 101.0300990
 104.4974330 105.7708420 100.3128120 104.3829340 104.7488760 101.4238270
 102.6755500 106.0162970  98.3087730 102.2158470 106.7678780  97.9345750
 102.0467960 105.2969440  98.2502530  97.0623730  88.9549900  98.8901350
  96.2795520  89.4295400  99.1698110  96.7686660  88.0504730  98.7814530
 101.6144800  89.6573000  96.9350440 102.0552890  89.6018100  96.0872040
 101.3452390  90.5731010  97.0060620 103.4783370  89.2888240  94.9459260
 103.4171770  88.3449460  94.7990280 104.2575400  89.3968330  95.4912720
  99.4502930  88.0379100  95.6400450 100.0532300  88.6099310  96.1148970
  98.7095920  88.6018540  95.4174350 102.5937530  88.4400660  90.9140730
 102.7888160  89.3384110  91.1808160 101.8067400  88.2087740  91.4073680
  99.6998150  88.2174130 106.0195390  99.5863600  88.5368740 106.9146910
 100.5167890  88.6186640 105.7232670 102.4796640 105.3645660 105.5014080
 103.2721960 104.8694890 105.2940040 102.7729790 106.0435800 106.1089690
  97.2161320  96.7424810  73.6259690  96.2890600  96.6762190  73.8548160
  97.3686140  97.6804940  73.5114930  97.2030400  93.0141810  70.6226850
  96.2634070  93.1755770  70.7079310  97.5213660  93.7327490  70.0762840
 101.3785270 104.5288980  82.2341730 100.9015830 105.3361170  82.0414340
 100.6947060 103.8767310  82.3867940 104.3617730 101.4813770  84.4633130
 104.4880790 101.2425650  83.5450310 104.4039110 100.6498310  84.9355210
  98.2234470 105.1841770  83.0327940  98.7379140 105.0949780  83.8350370
  97.3803550 105.5301470  83.3255850  92.6777250 105.2495640  74.2383560
  92.5019730 104.3331180  74.0251360  91.8232990 105.6082930  74.4781360
 104.2141740  93.5346230  85.4282870 103.5986010  94.0425900  84.8998330
 103.8938160  92.6344560  85.3708810  94.0262150  90.0516930  79.1499340
  94.3234480  90.9579760  79.0691360  94.5747710  89.5635710  78.5358910
 100.1931070  94.6084410  71.0422600 101.0810690  94.9201640  70.8673940
 100.1636160  93.7356660  70.6503180 102.4645340  95.9196250  70.5102460
 102.3809060  96.3510470  69.6598900 103.1839530  96.3794600  70.9429280
  96.7642170 103.3774000  81.3344350  97.4084390 103.5833380  82.0117770
  97.1271610 102.6162400  80.8815200  99.8111870 102.1801250  83.2557860
 100.1468110 102.7667940  83.9335780  98.8912210 102.0493960  83.4855650
  93.6814620 103.0753030  71.3679070  93.6724720 103.8082720  70.7523580
  92.7612980 102.8284610  71.4606030  95.3092330 105.6567590  74.7251930
  95.5633830 105.6188980  73.8031300  94.3604810 105.5300920  74.7180180
  93.8990330 105.0129840  69.4707400  94.6918940 105.3018670  69.0189190
  93.3794680 104.5822010  68.7919880 101.7105400 100.6495380  85.8714000
 102.4514870 100.9871140  85.3681460 100.9478080 100.8187440  85.3183770
  99.8218090  96.9384060  82.3365490  99.2953310  97.4626680  81.7330630
 100.1649430  97.5711450  82.9675220  99.6992790  89.1385660  71.3102080
  99.9795080  88.2953560  71.6661500  98.9258520  89.3708770  71.8240830
  96.4021250 105.3593420  71.3735880  97.2972040 105.6978390  71.3954640
  96.4338880 104.6372830  70.7460160  90.0417410 100.7320470  69.6022880
  90.4792280 101.2750140  70.2580460  90.5265140  99.9067420  69.6119220
 103.3815600 103.8897090  84.0802080 102.7817590 103.9489650  83.3366000
 103.5109500 102.9502070  84.2098930 104.0773510  98.3762390  71.9205990
 104.8392420  98.9459040  72.0265680 104.0927880  97.8089590  72.6914300
 102.0667240 100.6149070  82.1778240 101.2527080 101.0446230  82.4404030
 102.4741440 101.2267480  81.5647290 100.5268290  91.6941610  70.3732140
 100.9453170  91.5072590  69.5328800 100.2204350  90.8420660  70.6835070
 104.9916050 105.3739550  82.2557500 104.4974330 105.7708420  81.5384630
 104.3829340 104.7488760  82.6494780 102.6755500 106.0162970  79.5344240
 102.2158470 106.7678780  79.1602260 102.0467960 105.2969440  79.4759040
  95.8446720 105.2159700  79.5361350  96.1324530 104.9614000  78.6594360
  96.3569940 104.6637060  80.1266920  91.9891790 106.0696210  71.4539110
  92.7210610 105.7855490  70.9063000  92.2485460 105.8309490  72.3438490
  91.1506580 102.1860940  71.4585440  90.5215460 102.6546040  72.0071270
  91.2654410 101.3410160  71.8931630  89.1632120  93.2867320  54.1514060
  88.2748820  93.6283290  54.0493940  89.4473310  93.0867640  53.2594890
  87.1265130  95.8872970  60.0353760  87.6981240  95.1195170  60.0357400
  87.1266670  96.1861730  59.1260370  88.3690000  91.2957330  61.8222690
  88.1892840  90.3983080  62.1025450  87.9670080  91.8429200  62.4969640
  91.3393510  91.8698820  55.1852440  91.4460260  92.7702550  55.4921200
  90.4285870  91.8216790  54.8947090  88.9876670  93.7917830  60.4305030
  89.6686780  94.0556200  61.0492430  88.6724720  92.9518700  60.7643040
  93.1801240  94.8385190  59.5177620  93.6879460  95.3366160  60.1582640
  93.7114480  94.0620390  59.3416980 105.2812170  93.0090380  63.2206970
 104.5764340  93.3972090  62.7022080 105.5470090  93.7040670  63.8227900
  97.8508430  99.5903060  55.2830940  97.2325700 100.0552510  54.7193660
  98.3631680 100.2830540  55.7000450 101.2274100  92.9324010  59.4290880
 100.5229670  93.2208900  60.0093990 101.5886260  93.7424120  59.0690440
  91.1452670  91.1893710  61.7911490  91.4869480  92.0335760  61.4965360
  90.2068480  91.3377450  61.9076830 102.8436880 102.5499140  61.6918360
 102.1600400 103.2198250  61.6835030 103.3831170 102.7479790  60.9263220
 104.2961020  92.3778800  59.8200090 103.3485930  92.4117780  59.9515520
 104.6211010  93.1917750  60.2049450 100.3795620 104.3943270  60.4063540
 100.3922780 103.9905560  59.5385800  99.8270840 105.1690560  60.3024970
  97.2161320  96.7424810  54.8516200  96.2890600  96.6762190  55.0804670
  97.3686140  97.6804940  54.7371440 101.2458610  98.3045110  55.3551450
 100.6271030  97.9664660  54.7077750 101.2283060  97.6604870  56.0630640
 100.6885170  94.4829650  62.7717260 100.2756350  95.3083360  63.0257250
  99.9561120  93.8974690  62.5793620  92.8217960  97.2689550  57.6335930
  92.4174960  96.5566800  57.1381830  92.9081080  96.9242790  58.5223970
  91.5346580  94.0432760  61.4134970  92.0861170  94.1528100  60.6388220
  92.0490090  94.4170360  62.1290200 101.3785270 104.5288980  63.4598240
 100.9015830 105.3361170  63.2670850 100.6947060 103.8767310  63.6124450
  97.5318690 102.4827990  56.3305440  97.9714600 103.2252320  55.9160830
  97.4705580 102.7254560  57.2544400  93.0069660 103.5073820  67.2325460
  92.9785090 103.9116770  66.3653890  92.8434630 102.5784180  67.0697060
  89.5222590  96.1634530  55.1342580  89.4020190  96.8896620  54.5223850
  89.2123480  95.3937440  54.6570490  87.1607960  99.3349670  60.9411220
  87.2388380  99.4698440  59.9966940  87.7749640  98.6265560  61.1339340
  88.4055590 101.0349860  57.3517400  87.9983670 101.1764450  56.4971000
  89.2968600 100.7510020  57.1488610  98.2234470 105.1841770  64.2584450
  98.7379140 105.0949780  65.0606880  97.3803550 105.5301470  64.5512360
 100.1988870 105.4697110  53.6868450 100.0390010 105.1800050  54.5850280
 100.0335580 104.6937240  53.1513680  99.9015000 102.9784670  52.2466450
  99.2080160 102.9761960  51.5868730 100.6437860 102.5543990  51.8160620
 104.2141740  93.5346230  66.6539380 103.5986010  94.0425900  66.1254840
 103.8938160  92.6344560  66.5965320  87.2167480 100.3763840  63.4805680
  87.3798520  99.9069200  62.6625050  87.6819930  99.8687400  64.1454520
  91.9886250  89.5069600  58.5166250  91.5454400  90.2879140  58.1850770
  92.5471240  89.8299490  59.2237190  96.2756060  92.3738120  64.1201570
  95.8135430  92.5821140  64.9321510  95.8734170  91.5597470  63.8172240
 101.2760570  93.5947070  65.2498230 100.4254160  93.2952820  65.5707300
 101.1162360  93.8389080  64.3382050  98.3710280  95.0948820  67.3497020
  98.6963690  94.2612570  67.0099250  99.1590610  95.6177340  67.4975350
  94.0262150  90.0516930  60.3755850  94.3234480  90.9579760  60.2947870
  94.5747710  89.5635710  59.7615420  91.7800470  94.6303170  56.2447500
  91.5541390  94.4140340  57.1494120  90.9993000  95.0631630  55.8993470
  86.6527270  89.8630880  59.0971630  86.3640320  90.4333740  59.8096610
  87.3973030  89.3835330  59.4602860  86.8397500  93.8051000  50.3074350
  86.7572170  94.7481760  50.4489340  86.4880560  93.6625910  49.4286700
  90.4898010  92.4216520  58.3338910  90.1498060  92.8991750  59.0905960
  89.7275330  91.9681640  57.9740010  93.7137280  95.8503250  51.7634760
  93.1454180  95.4021500  51.1370670  94.4226280  96.2096030  51.2299910
 102.0914900  88.7301690  66.2201530 102.4160670  87.9991350  66.7459510
 102.1271410  88.4115330  65.3182520  87.8044090  91.3435500  57.2503580
  87.5191010  90.9791170  58.0882200  87.7422950  90.6115960  56.6366720
  92.7302970  95.6400450  63.4394320  92.4260040  96.5192430  63.6644680
  93.6849430  95.7000240  63.4751760  91.2584760  99.8461440  54.0361170
  90.4847020  99.3059060  53.8759890  91.9879390  99.3268050  53.6978930
  91.3022160  99.5141820  57.6739980  91.8200830  98.7110080  57.6196870
  90.8506180  99.4520960  58.5156810  96.1891660 100.7808100  52.9467280
  96.5307360 101.5250330  52.4510600  95.3604370 101.0939220  53.3092110
 103.5419480  98.3763770  64.8128940 102.8167670  98.9692550  64.6158330
 104.0694940  98.3687310  64.0142310  95.1582350 100.8621630  55.7183200
  95.8453480 101.4090840  56.0990790  94.3714770 101.4062360  55.7532810
  87.2974750  96.4794450  51.2100280  88.1669600  96.7619250  51.4936200
  86.8065070  97.2930320  51.0949090  94.4609560  97.8667660  55.3308560
  94.9172340  98.6772910  55.5568750  94.1097770  97.5490800  56.1627050
  90.3621340  88.2105310  55.8031080  90.2335970  88.2023210  56.7516000
  89.5383360  88.5488400  55.4522090 101.8829970 101.6654970  51.0017450
 101.6567550 100.9485410  51.5942090 101.4926170 101.4167410  50.1639200
  99.8111870 102.1801250  64.4814370 100.1468110 102.7667940  65.1592290
  98.8912210 102.0493960  64.7112160 101.4646220  99.5826910  52.6631610
 101.1767920 100.0439600  53.4509490 102.2598390  99.1224680  52.9315830
  87.6487860 103.9576690  66.2504310  87.7578980 103.0171430  66.1099700
  86.9968420 104.2231440  65.6018040  93.6814620 103.0753030  52.5935580
  93.6724720 103.8082720  51.9780090  92.7612980 102.8284610  52.6862540
  89.2821260  98.2967920  53.3382340  88.6749210  99.0366820  53.3477640
  89.7570610  98.3867280  52.5120540  98.8554050  92.4618740  63.0139230
  99.2234870  91.6413950  63.3418800  97.9952250  92.5220630  63.4294880
  96.6674220 103.1381270  51.2560770  96.7686200 102.9345260  50.3262750
  95.7675960 102.8839550  51.4608550  95.8156040  95.1158330  63.2377200
  96.3141290  95.5904150  63.9029050  95.9578990  94.1921850  63.4447230
  92.3935130  92.0046710  52.6135380  93.2425660  92.4416860  52.5475570
  92.0266400  92.3166970  53.4407440 103.0222900  91.3326290  64.0805590
 102.5196500  92.0731690  64.4199400 103.8379560  91.7210290  63.7642380
  89.9873310  95.6904140  51.7703800  90.0676900  94.7431650  51.8821200
  90.8793060  96.0211020  51.8764460  89.7946300 105.0245600  68.0623920
  90.5959030 105.3457650  68.4759320  89.2798120 104.6641180  68.7843830
 100.0611300 104.8605760  66.6208740 101.0133050 104.7763780  66.5708980
  99.9139520 105.5247470  67.2942530 102.9520500 104.2399970  52.1200650
 102.6662010 103.8265110  51.3054830 102.7540050 105.1687680  52.0001170
  97.6570460  99.2953280  51.1648250  97.1080560  99.7422580  51.8090990
  98.2789720  98.7902530  51.6885920 101.7105400 100.6495380  67.0970510
 102.4514870 100.9871140  66.5937970 100.9478080 100.8187440  66.5440280
  93.3245580  98.2544200  53.0613550  93.7462000  98.0884070  53.9044940
  93.4496420  97.4444430  52.5668690  95.8373220  97.2781810  50.3090650
  96.3578880  96.5630830  49.9431800  96.4841620  97.9167680  50.6091160
 100.8573230  96.0406370  67.6364870 101.4394000  95.2858690  67.5485350
 101.0335000  96.5713810  66.8596350  97.4830190  96.3846870  64.9859490
  97.6026400  95.7888010  65.7254330  98.3424190  96.4216560  64.5660790
  92.2204480  94.3277430  50.0071710  92.0193540  93.4644790  50.3685050
  92.0496530  94.2410790  49.0693310  99.0692390  92.5434030  66.4768330
  98.3807910  91.8815570  66.4118320  99.7898410  92.0972300  66.9216790
  91.0187280  91.4278050  49.9949590  91.3213180  91.4345480  49.0868740
  91.7581870  91.0775910  50.4917250  94.2372210  90.3712670  50.9805790
  93.8894210  89.6936660  50.4008240  94.4384980  89.9102180  51.7949180
  87.2563210 103.5209500  58.2799650  87.5866220 102.6530560  58.0478290
  87.6854210 103.7268020  59.1104610  91.8525130 101.8518510  55.9401620
  91.5520670 101.7283480  56.8405530  91.7462620 100.9927100  55.5317350
  87.7453420 104.3880090  61.0181280  87.3084410 104.5680890  61.8505430
  88.3131100 105.1454710  60.8763000 104.6217050 101.6314910  50.6428300
 103.7910010 101.6991560  51.1135530 104.7988880 102.5219030  50.3395160
  87.5777850  96.9000320  57.3770160  86.9226690  96.6311960  56.7329860
  88.4155800  96.7904800  56.9272140 102.0667240 100.6149070  63.4034750
 101.2527080 101.0446230  63.6660540 102.4741440 101.2267480  62.7903800
  88.6153780  97.2852890  61.9173500  88.9826820  97.1980290  62.7969520
  88.0464600  96.5219440  61.8180360 103.4157640  95.7537270  64.9303970
 103.1843730  95.5250020  64.0301920 103.6762190  96.6736820  64.8848860
 101.8545710  90.9793700  67.7083670 102.7315890  90.9877100  68.0917670
 101.8666550  90.2424540  67.0976020  86.7915930  94.1099250  53.3195490
  85.8880010  94.3729450  53.1447150  87.2756550  94.3810420  52.5395450
  89.3343140  93.1664790  51.2289870  90.0434840  92.7448010  50.7437150
  88.6183080  93.2340020  50.5973220  88.9817300  89.2204120  50.2692520
  89.7045430  89.7613060  50.5873740  89.2541820  88.9467540  49.3934060
  88.6709490  88.4710310  60.1715140  89.3185680  87.9207690  59.7310300
  89.0911330  88.7253460  60.9930950 102.5661830  88.6651670  63.5284780
 103.2034050  89.2785810  63.8943970 102.7136720  88.7012330  62.5834010
 105.1086380  90.5565460  50.3107920 106.0335690  90.4246640  50.1026210
 105.0862170  90.6358280  51.2644370 105.1824870  91.3276120  52.9364630
 104.3876370  91.2621240  53.4657540 105.3868150  92.2626760  52.9249980
  90.0305860 101.7985580  67.0793650  89.9875490 101.4278490  67.9608110
  90.1616870 102.7363150  67.2195470  98.5740870  89.4747920  66.0752170
  99.1881280  89.7927210  65.4133250  99.1190430  88.9896510  66.6948030
 104.9916050 105.3739550  63.4814010 104.4974330 105.7708420  62.7641140
 104.3829340 104.7488760  63.8751290  99.3148910  88.0380060  62.4021460
  98.4408750  88.3715170  62.1994390  99.2059660  87.5653240  63.2273330
 100.2220890  90.2450930  63.7863180  99.8934250  89.4302690  63.4064910
 101.1703190  90.2020740  63.6628870 102.6755500 106.0162970  60.7600750
 102.2158470 106.7678780  60.3858770 102.0467960 105.2969440  60.7015550
  95.8446720 105.2159700  60.7617860  96.1324530 104.9614000  59.8850870
  96.3569940 104.6637060  61.3523430 101.6144800  89.6573000  59.3863460
 102.0552890  89.6018100  58.5385060 101.3452390  90.5731010  59.4573640
  88.4064140  89.2597380  53.8628090  89.1643500  89.3726260  53.2892120
  87.9441310  90.0966580  53.8171520  89.3898820 104.1213830  53.8046370
  88.8646440 104.5021860  53.1008330  89.3143400 104.7464600  54.5256080
  90.7789290  89.7861430  52.4030060  91.3082050  88.9991230  52.2738010
  91.4117610  90.4652620  52.6365590  95.9119080 106.1375800  68.1286060
  96.8386390 105.9020070  68.1722020  95.8969510 106.9647800  67.6472090
 104.1464140 105.6801370  55.1260310 104.3216330 104.9939110  54.4821230
 103.4485710 106.2048420  54.7336980  91.9891790 106.0696210  52.6795620
  92.7210610 105.7855490  52.1319510  92.2485460 105.8309490  53.5695000
  91.1506580 102.1860940  52.6841950  90.5215460 102.6546040  53.2327780
  91.2654410 101.3410160  53.1188140  99.6998150  88.2174130  68.4708410
  99.5863600  88.5368740  69.3659930 100.5167890  88.6186640  68.1745690
  98.6056300  96.2366600  38.8343150  98.5250350  95.3221210  38.5634860
  98.1920720  96.7333670  38.1282860  90.7341430 102.3605520  41.7886200
  91.0369470 101.4703260  41.6096420  91.4785020 102.9175740  41.5608450
  89.1632120  93.2867320  35.3770570  88.2748820  93.6283290  35.2750450
  89.4473310  93.0867640  34.4851400  88.3690000  91.2957330  43.0479200
  88.1892840  90.3983080  43.3281960  87.9670080  91.8429200  43.7226150
  97.2088500  93.4973190  40.9491510  97.5853320  92.6245070  40.8365180
  97.1108010  93.8331890  40.0581950  91.3393510  91.8698820  36.4108950
  91.4460260  92.7702550  36.7177710  90.4285870  91.8216790  36.1203600
  91.4637340  89.4783750  45.0097550  91.4655780  89.9956140  44.2043450
  90.6341650  89.0013930  44.9867480  91.1452670  91.1893710  43.0168000
  91.4869480  92.0335760  42.7221870  90.2068480  91.3377450  43.1333340
  87.2191630 100.2759590  33.8827080  86.8419610 100.7646690  33.1511980
  87.4764700 100.9484870  34.5133610  94.8280560  88.6775980  39.3412590
  95.1355540  88.1222870  38.6248090  93.8981260  88.8120440  39.1585580
  99.7781060  99.2973110  42.9602660 100.1949850  99.0833220  42.1256120
 100.5020880  99.5545900  43.5311280  97.2161320  96.7424810  36.0772710
  96.2890600  96.6762190  36.3061180  97.3686140  97.6804940  35.9627950
  99.4223310  97.5431920  33.5880710  99.8616590  96.7054350  33.4418530
 100.1351730  98.1761320  33.6744850  89.5222590  96.1634530  36.3599090
  89.4020190  96.8896620  35.7480360  89.2123480  95.3937440  35.8827000
 104.9584480 104.2900920  49.7546140 105.4344200 104.7683810  50.4335220
 105.5791640 104.2218410  49.0291640 100.1988870 105.4697110  34.9124960
 100.0390010 105.1800050  35.8106790 100.0335580 104.6937240  34.3770190
  99.9015000 102.9784670  33.4722960  99.2080160 102.9761960  32.8125240
 100.6437860 102.5543990  33.0417130  87.2167480 100.3763840  44.7062190
  87.3798520  99.9069200  43.8881560  87.6819930  99.8687400  45.3711030
  91.9886250  89.5069600  39.7422760  91.5454400  90.2879140  39.4107280
  92.5471240  89.8299490  40.4493700  96.2756060  92.3738120  45.3458080
  95.8135430  92.5821140  46.1578020  95.8734170  91.5597470  45.0428750
 101.2760570  93.5947070  46.4754740 100.4254160  93.2952820  46.7963810
 101.1162360  93.8389080  45.5638560  94.0262150  90.0516930  41.6012360
  94.3234480  90.9579760  41.5204380  94.5747710  89.5635710  40.9871930
  99.0098230  94.6366540  36.0694660  98.4107120  95.3602340  35.8858280
  99.5577840  94.5743320  35.2871110  94.2199680  95.5288750  48.1364280
  94.1243280  94.5883480  47.9864680  95.0631660  95.7503820  47.7412350
  97.6163100  93.2730080  38.0997940  98.0092670  93.5902280  37.2866630
  97.9779950  92.3941960  38.2142460  89.3510220  91.9402420  46.2898060
  88.9573610  92.7877630  46.4970840  88.6628620  91.3028790  46.4806700
  86.6527270  89.8630880  40.3228140  86.3640320  90.4333740  41.0353120
  87.3973030  89.3835330  40.6859370  94.6395630  92.5390030  40.6001210
  94.6431690  92.0979980  39.7505750  95.5346750  92.8607360  40.7073030
  90.4898010  92.4216520  39.5595420  90.1498060  92.8991750  40.3162470
  89.7275330  91.9681640  39.1996520  94.7015780  93.5402110  33.5907970
  94.8228600  93.4988590  34.5393790  94.3164290  94.4026260  33.4354700
  93.7137280  95.8503250  32.9891270  93.1454180  95.4021500  32.3627180
  94.4226280  96.2096030  32.4556420  87.8044090  91.3435500  38.4760090
  87.5191010  90.9791170  39.3138710  87.7422950  90.6115960  37.8623230
 102.0172740  98.8426800  41.0544070 102.7371860  99.3382090  40.6640180
 101.8154560  98.1644690  40.4097940  97.4782680  90.2364760  35.1973460
  96.6647290  89.7377930  35.1218770  97.2844630  91.0763010  34.7809810
  88.7866700  96.4803190  45.8122190  88.4281640  97.1457040  46.3995530
  88.4921260  95.6486740  46.1834810  90.3621340  88.2105310  37.0287590
  90.2335970  88.2023210  37.9772510  89.5383360  88.5488400  36.6778600
  98.0374250 101.3806350  42.5034820  98.6796480 100.6799510  42.6166990
  98.5623600 102.1604790  42.3231710 101.8829970 101.6654970  32.2273960
 101.6567550 100.9485410  32.8198600 101.4926170 101.4167410  31.3895710
  87.6646000 105.6921830  33.0018420  88.0243640 106.2911170  32.3475690
  87.5238340 106.2381720  33.7753450  87.3615270  89.9696430  46.4894290
  86.6473790  90.1693350  47.0946900  87.7810310  89.1936000  46.8609090
 101.4646220  99.5826910  33.8888120 101.1767920 100.0439600  34.6766000
 102.2598390  99.1224680  34.1572340  87.6487860 103.9576690  47.4760820
  87.7578980 103.0171430  47.3356210  86.9968420 104.2231440  46.8274550
  89.2821260  98.2967920  34.5638850  88.6749210  99.0366820  34.5734150
  89.7570610  98.3867280  33.7377050 102.2216080  91.4175680  35.0483300
 101.5929240  91.5221350  34.3341530 101.7268000  91.6372460  35.8377180
  94.1900110  93.6961630  36.4641180  93.4816260  94.1647970  36.9054790
  94.4744590  93.0383640  37.0986370  95.8156040  95.1158330  44.4633710
  96.3141290  95.5904150  45.1285560  95.9578990  94.1921850  44.6703740
 101.3144910  96.5759470  38.7523460 100.3735050  96.5909700  38.9271150
 101.6288980  95.7895430  39.1983760  91.2926550  98.2579070  32.3127420
  92.0589820  98.1460430  32.8752850  91.3701240  97.5617040  31.6604190
  90.7888020 105.8399530  40.0994850  91.5250500 105.2914990  40.3703420
  91.1728940 106.7055540  39.9600840  89.7946300 105.0245600  49.2880430
  90.5959030 105.3457650  49.7015830  89.2798120 104.6641180  50.0100340
 102.9520500 104.2399970  33.3457160 102.6662010 103.8265110  32.5311340
 102.7540050 105.1687680  33.2257680  87.5144110  97.5119060  48.2316480
  88.0183130  96.9326340  48.8032710  86.7751530  97.7959290  48.7692850
  97.6570460  99.2953280  32.3904760  97.1080560  99.7422580  33.0347500
  98.2789720  98.7902530  32.9142430  89.5467190  95.6548650  49.1266550
  89.5872530  95.3562520  50.0351780  90.4012690  96.0556260  48.9674070
  91.4873000  94.2340750  47.0941040  90.9569460  93.7431700  46.4664380
  92.1561070  94.6624950  46.5598970  95.8373220  97.2781810  31.5347160
  96.3578880  96.5630830  31.1688310  96.4841620  97.9167680  31.8347670
 100.8573230  96.0406370  48.8621380 101.4394000  95.2858690  48.7741860
 101.0335000  96.5713810  48.0852860  91.9745300  91.2003120  47.1738330
  91.8802170  90.5823870  46.4489200  91.3942690  91.9269410  46.9468240
  94.7406740  89.7576360  44.2065720  94.2924040  89.7800620  43.3611270
  94.1071940  89.3595380  44.8036020  92.2204480  94.3277430  31.2328220
  92.0193540  93.4644790  31.5941560  92.0496530  94.2410790  30.2949820
  92.9973710 104.9583700  45.9435890  92.4594800 105.6829760  45.6244590
  93.2507670 104.4814040  45.1533230  94.2498960  92.9268220  47.4691820
  94.8398650  92.6184070  48.1569640  93.4319200  92.4547970  47.6251720
  99.6992790  89.1385660  33.7615100  99.9795080  88.2953560  34.1174520
  98.9258520  89.3708770  34.2753850  96.4021250 105.3593420  33.8248900
  97.2972040 105.6978390  33.8467660  96.4338880 104.6372830  33.1973180
  90.0417410 100.7320470  32.0535900  90.4792280 101.2750140  32.7093480
  90.5265140  99.9067420  32.0632240 104.0258020  96.6065750  36.5220960
 103.6501620  95.8393680  36.0902250 103.2961140  96.9888450  37.0095890
  88.1669780  94.1961980  47.0488430  87.2725830  94.1628740  47.3882140
  88.7067330  94.3948770  47.8139680  89.3343140  93.1664790  32.4546380
  90.0434840  92.7448010  31.9693660  88.6183080  93.2340020  31.8229730
  88.9817300  89.2204120  31.4949030  89.7045430  89.7613060  31.8130250
  89.2541820  88.9467540  30.6190570 102.7908950  94.0896590  35.7620610
 103.2868070  93.8567460  36.5469490 102.5925020  93.2508430  35.3458250
  88.6709490  88.4710310  41.3971650  89.3185680  87.9207690  40.9566810
  89.0911330  88.7253460  42.2187460  88.4241490  88.6265980  44.1396970
  88.0756310  89.0829800  44.9055150  88.0929190  87.7323110  44.2219400
  95.9366310  89.8177860  47.6616390  95.8755200  90.4099690  48.4111800
  96.8766690  89.7103820  47.5166650  98.5740870  89.4747920  47.3008680
  99.1881280  89.7927210  46.6389760  99.1190430  88.9896510  47.9204540
 104.9916050 105.3739550  44.7070520 104.4974330 105.7708420  43.9897650
 104.3829340 104.7488760  45.1007800  89.0962130  88.1542180  47.4147740
  89.6445120  87.9730230  46.6513850  89.1617440  87.3636290  47.9504050
  89.8693890 104.7447830  45.4247940  89.2754210 104.6132530  46.1637980
  89.8617730 103.9085970  44.9590040  97.0623730  88.9549900  42.5670880
  96.2795520  89.4295400  42.8467640  96.7686660  88.0504730  42.4584060
  88.4064140  89.2597380  35.0884600  89.1643500  89.3726260  34.5148630
  87.9441310  90.0966580  35.0428030  94.9477950  91.3736650  38.0786910
  94.1352460  90.9993540  37.7382790  95.4519590  90.6181730  38.3808100
 102.5937530  88.4400660  34.5910260 102.7888160  89.3384110  34.8577690
 101.8067400  88.2087740  35.0843210  89.3898820 104.1213830  35.0302880
  88.8646440 104.5021860  34.3264840  89.3143400 104.7464600  35.7512590
  90.7789290  89.7861430  33.6286570  91.3082050  88.9991230  33.4994520
  91.4117610  90.4652620  33.8622100  92.9727130  89.5236570  36.6831960
  92.3429870  88.8223880  36.8502090  92.4332270  90.2840700  36.4665120
  93.0982690  88.8020550  49.1184450  92.8166960  89.3054150  48.3545270
  93.4802390  88.0042300  48.7526580  91.9891790 106.0696210  33.9052130
  92.7210610 105.7855490  33.3576020  92.2485460 105.8309490  34.7951510
  98.6056300  96.2366600  20.0599660  98.5250350  95.3221210  19.7891370
  98.1920720  96.7333670  19.3539370 100.7581770 102.4205810  20.7208060
 100.2963300 101.6493050  21.0495230 101.5707320 102.4471880  21.2260510
  89.1632120  93.2867320  16.6027080  88.2748820  93.6283290  16.5006960
  89.4473310  93.0867640  15.7107910  97.2088500  93.4973190  22.1748020
  97.5853320  92.6245070  22.0621690  97.1108010  93.8331890  21.2838460
  91.3393510  91.8698820  17.6365460  91.4460260  92.7702550  17.9434220
  90.4285870  91.8216790  17.3460110 100.9912620  90.9923630  19.1076360
 101.8122240  90.5020200  19.1501840 101.0246700  91.5821290  19.8608200
  97.8508430  99.5903060  17.7343960  97.2325700 100.0552510  17.1706680
  98.3631680 100.2830540  18.1513470 101.2274100  92.9324010  21.8803900
 100.5229670  93.2208900  22.4607010 101.5886260  93.7424120  21.5203460
  87.2191630 100.2759590  15.1083590  86.8419610 100.7646690  14.3768490
  87.4764700 100.9484870  15.7390120 102.8436880 102.5499140  24.1431380
 102.1600400 103.2198250  24.1348050 103.3831170 102.7479790  23.3776240
 104.2961020  92.3778800  22.2713110 103.3485930  92.4117780  22.4028540
 104.6211010  93.1917750  22.6562470  94.8280560  88.6775980  20.5669100
  95.1355540  88.1222870  19.8504600  93.8981260  88.8120440  20.3842090
 100.3795620 104.3943270  22.8576560 100.3922780 103.9905560  21.9898820
  99.8270840 105.1690560  22.7537990 101.6741040 101.1159490  17.9466730
 101.5637370 100.1733820  18.0716150 101.6709290 101.4775130  18.8329490
  99.7781060  99.2973110  24.1859170 100.1949850  99.0833220  23.3512630
 100.5020880  99.5545900  24.7567790  97.2161320  96.7424810  17.3029220
  96.2890600  96.6762190  17.5317690  97.3686140  97.6804940  17.1884460
  97.2030400  93.0141810  14.2996380  96.2634070  93.1755770  14.3848840
  97.5213660  93.7327490  13.7532370 103.7243160  97.6960330  24.2775410
 102.8961790  97.7653420  23.8025540 104.3193640  98.2814640  23.8091240
 101.2458610  98.3045110  17.8064470 100.6271030  97.9664660  17.1590770
 101.2283060  97.6604870  18.5143660 101.3785270 104.5288980  25.9111260
 100.9015830 105.3361170  25.7183870 100.6947060 103.8767310  26.0637470
  99.4223310  97.5431920  14.8137220  99.8616590  96.7054350  14.6675040
 100.1351730  98.1761320  14.9001360 103.0040450  88.7974730  13.1278260
 102.6913110  88.8901560  14.0277330 103.7652920  89.3755760  13.0775690
 104.9584480 104.2900920  30.9802650 105.4344200 104.7683810  31.6591730
 105.5791640 104.2218410  30.2548150 100.1988870 105.4697110  16.1381470
 100.0390010 105.1800050  17.0363300 100.0335580 104.6937240  15.6026700
  92.6777250 105.2495640  17.9153090  92.5019730 104.3331180  17.7020890
  91.8232990 105.6082930  18.1550890  99.9015000 102.9784670  14.6979470
  99.2080160 102.9761960  14.0381750 100.6437860 102.5543990  14.2673640
  99.4664930 104.6047380  18.7727960  99.9221880 103.8236760  19.0866580
  99.8057450 105.3154200  19.3169140  91.9886250  89.5069600  20.9679270
  91.5454400  90.2879140  20.6363790  92.5471240  89.8299490  21.6750210
  96.2756060  92.3738120  26.5714590  95.8135430  92.5821140  27.3834530
  95.8734170  91.5597470  26.2685260  95.1045070  89.1280300  15.8485100
  94.4799250  89.1240170  16.5738410  95.0175190  88.2611260  15.4521070
  99.0098230  94.6366540  17.2951170  98.4107120  95.3602340  17.1114790
  99.5577840  94.5743320  16.5127620  97.6163100  93.2730080  19.3254450
  98.0092670  93.5902280  18.5123140  97.9779950  92.3941960  19.4398970
  86.6527270  89.8630880  21.5484650  86.3640320  90.4333740  22.2609630
  87.3973030  89.3835330  21.9115880  86.8397500  93.8051000  12.7587370
  86.7572170  94.7481760  12.9002360  86.4880560  93.6625910  11.8799720
  98.2018240  95.8635830  23.4205230  97.4699360  96.3722640  23.7695330
  97.8042580  95.0465810  23.1194010  94.6395630  92.5390030  21.8257720
  94.6431690  92.0979980  20.9762260  95.5346750  92.8607360  21.9329540
  90.4898010  92.4216520  20.7851930  90.1498060  92.8991750  21.5418980
  89.7275330  91.9681640  20.4253030  94.7015780  93.5402110  14.8164480
  94.8228600  93.4988590  15.7650300  94.3164290  94.4026260  14.6611210
  98.6644150  91.3169510  22.8328170  98.6816890  91.7678160  23.6770020
  98.4159730  90.4175150  23.0461610  93.7137280  95.8503250  14.2147780
  93.1454180  95.4021500  13.5883690  94.4226280  96.2096030  13.6812930
  87.8044090  91.3435500  19.7016600  87.5191010  90.9791170  20.5395220
  87.7422950  90.6115960  19.0879740  91.2584760  99.8461440  16.4874190
  90.4847020  99.3059060  16.3272910  91.9879390  99.3268050  16.1491950
 102.0172740  98.8426800  22.2800580 102.7371860  99.3382090  21.8896690
 101.8154560  98.1644690  21.6354450  97.4782680  90.2364760  16.4229970
  96.6647290  89.7377930  16.3475280  97.2844630  91.0763010  16.0066320
  97.3991540  98.9135860  28.1669580  97.3328850  97.9931530  27.9127170
  96.7696680  99.0111300  28.8814220 100.1931070  94.6084410  14.7192130
 101.0810690  94.9201640  14.5443470 100.1636160  93.7356660  14.3272710
  96.1891660 100.7808100  15.3980300  96.5307360 101.5250330  14.9023620
  95.3604370 101.0939220  15.7605130 102.4645340  95.9196250  14.1871990
 102.3809060  96.3510470  13.3368430 103.1839530  96.3794600  14.6198810
 103.4932590 102.7738510  16.9154120 102.8508750 102.1194130  17.1897840
 103.1063250 103.1793600  16.1394790  87.2974750  96.4794450  13.6613300
  88.1669600  96.7619250  13.9449220  86.8065070  97.2930320  13.5462110
  94.4609560  97.8667660  17.7821580  94.9172340  98.6772910  18.0081770
  94.1097770  97.5490800  18.6140070  90.3621340  88.2105310  18.2544100
  90.2335970  88.2023210  19.2029020  89.5383360  88.5488400  17.9035110
 101.8829970 101.6654970  13.4530470 101.6567550 100.9485410  14.0455110
 101.4926170 101.4167410  12.6152220  99.8111870 102.1801250  26.9327390
 100.1468110 102.7667940  27.6105310  98.8912210 102.0493960  27.1625180
  87.6646000 105.6921830  14.2274930  88.0243640 106.2911170  13.5732200
  87.5238340 106.2381720  15.0009960  87.3615270  89.9696430  27.7150800
  86.6473790  90.1693350  28.3203410  87.7810310  89.1936000  28.0865600
 101.4646220  99.5826910  15.1144630 101.1767920 100.0439600  15.9022510
 102.2598390  99.1224680  15.3828850  93.6814620 103.0753030  15.0448600
  93.6724720 103.8082720  14.4293110  92.7612980 102.8284610  15.1375560
  89.2821260  98.2967920  15.7895360  88.6749210  99.0366820  15.7990660
  89.7570610  98.3867280  14.9633560 102.2216080  91.4175680  16.2739810
 101.5929240  91.5221350  15.5598040 101.7268000  91.6372460  17.0633690
  96.6674220 103.1381270  13.7073790  96.7686200 102.9345260  12.7775770
  95.7675960 102.8839550  13.9121570  94.1900110  93.6961630  17.6897690
  93.4816260  94.1647970  18.1311300  94.4744590  93.0383640  18.3242880
  98.2215540  90.4212290  19.1293480  98.0983320  90.4398420  18.1802990
  99.1700100  90.4691230  19.2491880  95.3092330 105.6567590  18.4021460
  95.5633830 105.6188980  17.4800830  94.3604810 105.5300920  18.3949710
  92.3935130  92.0046710  15.0648400  93.2425660  92.4416860  14.9988590
  92.0266400  92.3166970  15.8920460 101.3144910  96.5759470  19.9779970
 100.3735050  96.5909700  20.1527660 101.6288980  95.7895430  20.4240270
  91.2926550  98.2579070  13.5383930  92.0589820  98.1460430  14.1009360
  91.3701240  97.5617040  12.8860700  89.9873310  95.6904140  14.2216820
  90.0676900  94.7431650  14.3334220  90.8793060  96.0211020  14.3277480
 103.3170490 103.7468320  21.6534230 103.4417910 104.5699490  22.1258040
 104.1836050 103.5359050  21.3058380  87.6733500 101.9073100  17.1992870
  86.7473280 102.1494240  17.1898280  88.1389930 102.7347360  17.0777620
  93.8990330 105.0129840  13.1476930  94.6918940 105.3018670  12.6958720
  93.3794680 104.5822010  12.4689410  98.6310930 101.1325470  30.4612350
  98.0249090 101.1557070  29.7208100  98.3265040 100.4008510  30.9979600
 100.0611300 104.8605760  29.0721760 101.0133050 104.7763780  29.0222000
  99.9139520 105.5247470  29.7455550 102.9520500 104.2399970  14.5713670
 102.6662010 103.8265110  13.7567850 102.7540050 105.1687680  14.4514190
  94.4167730 100.2333250  13.0119280  94.3118370  99.6185600  13.7380660
  94.2491950  99.7099140  12.2282290  97.6570460  99.2953280  13.6161270
  97.1080560  99.7422580  14.2604010  98.2789720  98.7902530  14.1398940
 101.7105400 100.6495380  29.5483530 102.4514870 100.9871140  29.0450990
 100.9478080 100.8187440  28.9953300  93.3245580  98.2544200  15.5126570
  93.7462000  98.0884070  16.3557960  93.4496420  97.4444430  15.0181710
  95.8373220  97.2781810  12.7603670  96.3578880  96.5630830  12.3944820
  96.4841620  97.9167680  13.0604180 100.3851060  98.7010210  28.0838740
 100.7992080  98.8555290  28.9329160  99.4502060  98.8265430  28.2464520
  97.4830190  96.3846870  27.4372510  97.6026400  95.7888010  28.1767350
  98.3424190  96.4216560  27.0173810  99.8218090  96.9384060  26.0135020
  99.2953310  97.4626680  25.4100160 100.1649430  97.5711450  26.6444750
  92.2204480  94.3277430  12.4584730  92.0193540  93.4644790  12.8198070
  92.0496530  94.2410790  11.5206330  99.6992790  89.1385660  14.9871610
  99.9795080  88.2953560  15.3431030  98.9258520  89.3708770  15.5010360
  91.0187280  91.4278050  12.4462610  91.3213180  91.4345480  11.5381760
  91.7581870  91.0775910  12.9430270  94.2372210  90.3712670  13.4318810
  93.8894210  89.6936660  12.8521260  94.4384980  89.9102180  14.2462200
  96.4021250 105.3593420  15.0505410  97.2972040 105.6978390  15.0724170
  96.4338880 104.6372830  14.4229690  90.0417410 100.7320470  13.2792410
  90.4792280 101.2750140  13.9349990  90.5265140  99.9067420  13.2888750
 103.3815600 103.8897090  27.7571610 102.7817590 103.9489650  27.0135530
 103.5109500 102.9502070  27.8868460 104.6217050 101.6314910  13.0941320
 103.7910010 101.6991560  13.5648550 104.7988880 102.5219030  12.7908180
 104.0773510  98.3762390  15.5975520 104.8392420  98.9459040  15.7035210
 104.0927880  97.8089590  16.3683830 105.0833480  99.2312490  20.4417450
 105.4542310  98.4479810  20.0353420 105.7235410  99.9201590  20.2634750
 102.0667240 100.6149070  25.8547770 101.2527080 101.0446230  26.1173560
 102.4741440 101.2267480  25.2416820 104.1292680  98.6696760  12.7548040
 104.4041520  99.5775640  12.6267260 103.9403420  98.6059290  13.6910030
 100.5268290  91.6941610  14.0501670 100.9453170  91.5072590  13.2098330
 100.2204350  90.8420660  14.3604600 104.0258020  96.6065750  17.7477470
 103.6501620  95.8393680  17.3158760 103.2961140  96.9888450  18.2352400
 103.4157640  95.7537270  27.3816990 103.1843730  95.5250020  26.4814940
 103.6762190  96.6736820  27.3361880  86.7915930  94.1099250  15.7708510
  85.8880010  94.3729450  15.5960170  87.2756550  94.3810420  14.9908470
 103.3008980  94.8323240  21.0484710 103.8246460  94.3385890  20.4174880
 103.8868400  94.9673600  21.7932280 103.4798700  94.9163110  24.5704260
 102.5301410  94.8826650  24.6849250 103.6611710  95.8263220  24.3354030
  89.3343140  93.1664790  13.6802890  90.0434840  92.7448010  13.1950170
  88.6183080  93.2340020  13.0486240  88.9817300  89.2204120  12.7205540
  89.7045430  89.7613060  13.0386760  89.2541820  88.9467540  11.8447080
 102.7908950  94.0896590  16.9877120 103.2868070  93.8567460  17.7726000
 102.5925020  93.2508430  16.5714760  88.6709490  88.4710310  22.6228160
  89.3185680  87.9207690  22.1823320  89.0911330  88.7253460  23.4443970
 104.2196110  92.7257540  19.5214800 104.1095390  92.5713580  20.4597070
 104.9803700  92.1978480  19.2790210 105.1086380  90.5565460  12.7620940
 106.0335690  90.4246640  12.5539230 105.0862170  90.6358280  13.7157390
 105.1824870  91.3276120  15.3877650 104.3876370  91.2621240  15.9170560
 105.3868150  92.2626760  15.3763000 102.1243290 105.3667670  19.3816040
 102.7202360 105.0452240  18.7050460 102.3821440 104.8939490  20.1729310
 104.9916050 105.3739550  25.9327030 104.4974330 105.7708420  25.2154160
 104.3829340 104.7488760  26.3264310  89.0962130  88.1542180  28.6404250
  89.6445120  87.9730230  27.8770360  89.1617440  87.3636290  29.1760560
 102.6755500 106.0162970  23.2113770 102.2158470 106.7678780  22.8371790
 102.0467960 105.2969440  23.1528570  97.0623730  88.9549900  23.7927390
  96.2795520  89.4295400  24.0724150  96.7686660  88.0504730  23.6840570
 101.6144800  89.6573000  21.8376480 102.0552890  89.6018100  20.9898080
 101.3452390  90.5731010  21.9086660 103.4783370  89.2888240  19.8485300
 103.4171770  88.3449460  19.7016320 104.2575400  89.3968330  20.3938760
  88.4064140  89.2597380  16.3141110  89.1643500  89.3726260  15.7405140
  87.9441310  90.0966580  16.2684540  94.9477950  91.3736650  19.3043420
  94.1352460  90.9993540  18.9639300  95.4519590  90.6181730  19.6064610
  99.4502930  88.0379100  20.5426490 100.0532300  88.6099310  21.0175010
  98.7095920  88.6018540  20.3200390 102.5937530  88.4400660  15.8166770
 102.7888160  89.3384110  16.0834200 101.8067400  88.2087740  16.3099720
  89.3898820 104.1213830  16.2559390  88.8646440 104.5021860  15.5521350
  89.3143400 104.7464600  16.9769100  90.7789290  89.7861430  14.8543080
  91.3082050  88.9991230  14.7251030  91.4117610  90.4652620  15.0878610
  92.9727130  89.5236570  17.9088470  92.3429870  88.8223880  18.0758600
  92.4332270  90.2840700  17.6921630 104.1464140 105.6801370  17.5773330
 104.3216330 104.9939110  16.9334250 103.4485710 106.2048420  17.1850000
  91.9891790 106.0696210  15.1308640  92.7210610 105.7855490  14.5832530
  92.2485460 105.8309490  16.0208020  91.1506580 102.1860940  15.1354970
  90.5215460 102.6546040  15.6840800  91.2654410 101.3410160  15.5701160
 102.4796640 105.3645660  30.4040120 103.2721960 104.8694890  30.1966080
 102.7729790 106.0435800  31.0115730  96.7374340  98.0145620   3.1665440
  95.9616440  97.5346060   3.4564010  97.3887270  97.3351270   2.9921600
  90.7540170  98.3265430   4.0441200  89.9225050  98.0714140   4.4437710
  91.3621150  98.3976200   4.7799120 100.7581770 102.4205810   1.9464570
 100.2963300 101.6493050   2.2751740 101.5707320 102.4471880   2.4517020
  90.7341430 102.3605520   4.2399220  91.0369470 101.4703260   4.0609440
  91.4785020 102.9175740   4.0121470  87.1265130  95.8872970   3.7123290
  87.6981240  95.1195170   3.7126930  87.1266670  96.1861730   2.8029900
  96.1783330 100.6902810   3.1735600  96.1091610  99.7492750   3.0124730
  96.9403190 100.7804220   3.7458170  88.3690000  91.2957330   5.4992220
  88.1892840  90.3983080   5.7794980  87.9670080  91.8429200   6.1739170
  97.2088500  93.4973190   3.4004530  97.5853320  92.6245070   3.2878200
  97.1108010  93.8331890   2.5094970  88.9876670  93.7917830   4.1074560
  89.6686780  94.0556200   4.7261960  88.6724720  92.9518700   4.4412570
  93.1801240  94.8385190   3.1947150  93.6879460  95.3366160   3.8352170
  93.7114480  94.0620390   3.0186510 105.2812170  93.0090380   6.8976500
 104.5764340  93.3972090   6.3791610 105.5470090  93.7040670   7.4997430
  91.4637340  89.4783750   7.4610570  91.4655780  89.9956140   6.6556470
  90.6341650  89.0013930   7.4380500  92.7140190  99.1178930   5.6384070
  92.3809570  99.7447850   6.2805140  92.8906870  99.6440810   4.8585740
 101.2274100  92.9324010   3.1060410 100.5229670  93.2208900   3.6863520
 101.5886260  93.7424120   2.7459970  91.1452670  91.1893710   5.4681020
  91.4869480  92.0335760   5.1734890  90.2068480  91.3377450   5.5846360
  91.9259290 101.0859730   7.4533250  92.5433290 101.7610810   7.1717700
  91.0652410 101.4947710   7.3620750 102.8436880 102.5499140   5.3687890
 102.1600400 103.2198250   5.3604560 103.3831170 102.7479790   4.6032750
 104.2961020  92.3778800   3.4969620 103.3485930  92.4117780   3.6285050
 104.6211010  93.1917750   3.8818980 100.3795620 104.3943270   4.0833070
 100.3922780 103.9905560   3.2155330  99.8270840 105.1690560   3.9794500
  99.7781060  99.2973110   5.4115680 100.1949850  99.0833220   4.5769140
 100.5020880  99.5545900   5.9824300 103.7243160  97.6960330   5.5031920
 102.8961790  97.7653420   5.0282050 104.3193640  98.2814640   5.0347750
 100.6885170  94.4829650   6.4486790 100.2756350  95.3083360   6.7026780
  99.9561120  93.8974690   6.2563150  93.2899660 100.9557110   3.4744670
  92.9927950 100.3502580   2.7952450  94.2399480 100.9934420   3.3634030
  91.5346580  94.0432760   5.0904500  92.0861170  94.1528100   4.3157750
  92.0490090  94.4170360   5.8059730 101.3785270 104.5288980   7.1367770
 100.9015830 105.3361170   6.9440380 100.6947060 103.8767310   7.2893980
  92.3818090 100.6938800  10.1252470  91.4846620 100.9178770  10.3725870
  92.4070960 100.8173740   9.1763870  91.2089310  97.5652120   8.7009840
  91.0697080  98.4374920   9.0697240  90.3270670  97.2224930   8.5557780
  93.0069660 103.5073820  10.9094990  92.9785090 103.9116770  10.0423420
  92.8434630 102.5784180  10.7466590 104.9584480 104.2900920  12.2059160
 105.4344200 104.7683810  12.8848240 105.5791640 104.2218410  11.4804660
  87.1607960  99.3349670   4.6180750  87.2388380  99.4698440   3.6736470
  87.7749640  98.6265560   4.8108870 104.3617730 101.4813770   9.3659170
 104.4880790 101.2425650   8.4476350 104.4039110 100.6498310   9.8381250
  98.2234470 105.1841770   7.9353980  98.7379140 105.0949780   8.7376410
  97.3803550 105.5301470   8.2281890 104.2141740  93.5346230  10.3308910
 103.5986010  94.0425900   9.8024370 103.8938160  92.6344560  10.2734850
  87.2167480 100.3763840   7.1575210  87.3798520  99.9069200   6.3394580
  87.6819930  99.8687400   7.8224050  91.9886250  89.5069600   2.1935780
  91.5454400  90.2879140   1.8620300  92.5471240  89.8299490   2.9006720
  96.2756060  92.3738120   7.7971100  95.8135430  92.5821140   8.6091040
  95.8734170  91.5597470   7.4941770 101.2760570  93.5947070   8.9267760
 100.4254160  93.2952820   9.2476830 101.1162360  93.8389080   8.0151580
  98.3710280  95.0948820  11.0266550  98.6963690  94.2612570  10.6868780
  99.1590610  95.6177340  11.1744880  94.0262150  90.0516930   4.0525380
  94.3234480  90.9579760   3.9717400  94.5747710  89.5635710   3.4384950
  94.2199680  95.5288750  10.5877300  94.1243280  94.5883480  10.4377700
  95.0631660  95.7503820  10.1925370  89.3510220  91.9402420   8.7411080
  88.9573610  92.7877630   8.9483860  88.6628620  91.3028790   8.9319720
  95.9255270  92.0237390  11.8107820  95.2353590  91.8309590  12.4453910
  96.6687570  92.3072030  12.3432120  86.6527270  89.8630880   2.7741160
  86.3640320  90.4333740   3.4866140  87.3973030  89.3835330   3.1372390
  98.2018240  95.8635830   4.6461740  97.4699360  96.3722640   4.9951840
  97.8042580  95.0465810   4.3450520  94.6395630  92.5390030   3.0514230
  94.6431690  92.0979980   2.2018770  95.5346750  92.8607360   3.1586050
  90.4898010  92.4216520   2.0108440  90.1498060  92.8991750   2.7675490
  89.7275330  91.9681640   1.6509540  98.6644150  91.3169510   4.0584680
  98.6816890  91.7678160   4.9026530  98.4159730  90.4175150   4.2718120
 102.0914900  88.7301690   9.8971060 102.4160670  87.9991350  10.4229040
 102.1271410  88.4115330   8.9952050  88.7906460  99.7515270   9.3171020
  88.4061250  99.1108940   9.9153980  89.1018650 100.4551390   9.8865750
  94.9403600  96.5991810   4.7979640  95.3073730  96.1250380   5.5440980
  94.7508660  97.4733380   5.1387980  92.7302970  95.6400450   7.1163850
  92.4260040  96.5192430   7.3414210  93.6849430  95.7000240   7.1521290
 102.0172740  98.8426800   3.5057090 102.7371860  99.3382090   3.1153200
 101.8154560  98.1644690   2.8610960  97.3991540  98.9135860   9.3926090
  97.3328850  97.9931530   9.1383680  96.7696680  99.0111300  10.1070730
  88.7866700  96.4803190   8.2635210  88.4281640  97.1457040   8.8508550
  88.4921260  95.6486740   8.6347830  91.9879820  96.9387430  11.1474760
  91.6879960  97.0844610  10.2502580  92.7591060  96.3792720  11.0548150
  97.3308270 101.7356430   9.1429890  97.3452810 100.8037390   8.9248800
  96.6233370 101.8216190   9.7819660 103.5419480  98.3763770   8.4898470
 102.8167670  98.9692550   8.2927860 104.0694940  98.3687310   7.6911840
  96.7642170 103.3774000   6.2370390  97.4084390 103.5833380   6.9143810
  97.1271610 102.6162400   5.7841240  98.0374250 101.3806350   4.9547840
  98.6796480 100.6799510   5.0680010  98.5623600 102.1604790   4.7744730
  99.8111870 102.1801250   8.1583900 100.1468110 102.7667940   8.8361820
  98.8912210 102.0493960   8.3881690  87.3615270  89.9696430   8.9407310
  86.6473790  90.1693350   9.5459920  87.7810310  89.1936000   9.3122110
  87.6487860 103.9576690   9.9273840  87.7578980 103.0171430   9.7869230
  86.9968420 104.2231440   9.2787570  95.6400450 102.2292580  11.3271960
  95.3197320 101.5101820  11.8717650  94.9658810 102.9047650  11.4008020
  98.8554050  92.4618740   6.6908760  99.2234870  91.6413950   7.0188330
  97.9952250  92.5220630   7.1064410  95.8156040  95.1158330   6.9146730
  96.3141290  95.5904150   7.5798580  95.9578990  94.1921850   7.1216760
 103.0222900  91.3326290   7.7575120 102.5196500  92.0731690   8.0968930
 103.8379560  91.7210290   7.4411910 103.3170490 103.7468320   2.8790740
 103.4417910 104.5699490   3.3514550 104.1836050 103.5359050   2.5314890
  90.7888020 105.8399530   2.5507870  91.5250500 105.2914990   2.8216440
  91.1728940 106.7055540   2.4113860  89.7946300 105.0245600  11.7393450
  90.5959030 105.3457650  12.1528850  89.2798120 104.6641180  12.4613360
  98.6310930 101.1325470  11.6868860  98.0249090 101.1557070  10.9464610
  98.3265040 100.4008510  12.2236110 100.0611300 104.8605760  10.2978270
 101.0133050 104.7763780  10.2478510  99.9139520 105.5247470  10.9712060
  87.5144110  97.5119060  10.6829500  88.0183130  96.9326340  11.2545730
  86.7751530  97.7959290  11.2205870  94.5682050  98.9190050  10.2165020
  93.8027720  99.4875050  10.1319690  94.7498010  98.6266260   9.3233250
 101.7105400 100.6495380  10.7740040 102.4514870 100.9871140  10.2707500
 100.9478080 100.8187440  10.2209810  89.5467190  95.6548650  11.5779570
  89.5872530  95.3562520  12.4864800  90.4012690  96.0556260  11.4187090
  91.4873000  94.2340750   9.5454060  90.9569460  93.7431700   8.9177400
  92.1561070  94.6624950   9.0111990 100.3851060  98.7010210   9.3095250
 100.7992080  98.8555290  10.1585670  99.4502060  98.8265430   9.4721030
 100.8573230  96.0406370  11.3134400 101.4394000  95.2858690  11.2254880
 101.0335000  96.5713810  10.5365880  91.9745300  91.2003120   9.6251350
  91.8802170  90.5823870   8.9002220  91.3942690  91.9269410   9.3981260
  94.7406740  89.7576360   6.6578740  94.2924040  89.7800620   5.8124290
  94.1071940  89.3595380   7.2549040  95.1466290  98.6530690   7.2791180
  95.5654400  99.4963420   7.1067420  94.2274920  98.7902730   7.0497960
  97.4830190  96.3846870   8.6629020  97.6026400  95.7888010   9.4023860
  98.3424190  96.4216560   8.2430320  99.8218090  96.9384060   7.2391530
  99.2953310  97.4626680   6.6356670 100.1649430  97.5711450   7.8701260
  92.9973710 104.9583700   8.3948910  92.4594800 105.6829760   8.0757610
  93.2507670 104.4814040   7.6046250  94.2498960  92.9268220   9.9204840
  94.8398650  92.6184070  10.6082660  93.4319200  92.4547970  10.0764740
  99.0692390  92.5434030  10.1537860  98.3807910  91.8815570  10.0887850
  99.7898410  92.0972300  10.5986320  95.8535920 106.1934910   8.6535560
  95.7794620 107.0970050   8.9607930  94.9514760 105.8746810   8.6257630
  87.2563210 103.5209500   1.9569180  87.5866220 102.6530560   1.7247820
  87.6854210 103.7268020   2.7874140  87.7453420 104.3880090   4.6950810
  87.3084410 104.5680890   5.5274960  88.3131100 105.1454710   4.5532530
 103.3815600 103.8897090   8.9828120 102.7817590 103.9489650   8.2392040
 103.5109500 102.9502070   9.1124970 102.0667240 100.6149070   7.0804280
 101.2527080 101.0446230   7.3430070 102.4741440 101.2267480   6.4673330
  88.6153780  97.2852890   5.5943030  88.9826820  97.1980290   6.4739050
  88.0464600  96.5219440   5.4949890 103.4157640  95.7537270   8.6073500
 103.1843730  95.5250020   7.7071450 103.6762190  96.6736820   8.5618390
  88.1669780  94.1961980   9.5001450  87.2725830  94.1628740   9.8395160
  88.7067330  94.3948770  10.2652700 101.8545710  90.9793700  11.3853200
 102.7315890  90.9877100  11.7687200 101.8666550  90.2424540  10.7745550
 103.3008980  94.8323240   2.2741220 103.8246460  94.3385890   1.6431390
 103.8868400  94.9673600   3.0188790 103.4798700  94.9163110   5.7960770
 102.5301410  94.8826650   5.9105760 103.6611710  95.8263220   5.5610540
  88.6709490  88.4710310   3.8484670  89.3185680  87.9207690   3.4079830
  89.0911330  88.7253460   4.6700480 102.5661830  88.6651670   7.2054310
 103.2034050  89.2785810   7.5713500 102.7136720  88.7012330   6.2603540
  88.4241490  88.6265980   6.5909990  88.0756310  89.0829800   7.3568170
  88.0929190  87.7323110   6.6732420  90.0305860 101.7985580  10.7563180
  89.9875490 101.4278490  11.6377640  90.1616870 102.7363150  10.8965000
  93.7311890 103.3545170   6.3572900  93.4903250 103.6219730   5.4703420
  94.6714530 103.5250900   6.4123760  95.9366310  89.8177860  10.1129410
  95.8755200  90.4099690  10.8624820  96.8766690  89.7103820   9.9679670
  98.5740870  89.4747920   9.7521700  99.1881280  89.7927210   9.0902780
  99.1190430  88.9896510  10.3717560 104.9916050 105.3739550   7.1583540
 104.4974330 105.7708420   6.4410670 104.3829340 104.7488760   7.5520820
  89.0962130  88.1542180   9.8660760  89.6445120  87.9730230   9.1026870
  89.1617440  87.3636290  10.4017070  89.8693890 104.7447830   7.8760960
  89.2754210 104.6132530   8.6151000  89.8617730 103.9085970   7.4103060
  99.3148910  88.0380060   6.0790990  98.4408750  88.3715170   5.8763920
  99.2059660  87.5653240   6.9042860 100.2220890  90.2450930   7.4632710
  99.8934250  89.4302690   7.0834440 101.1703190  90.2020740   7.3398400
 102.6755500 106.0162970   4.4370280 102.2158470 106.7678780   4.0628300
 102.0467960 105.2969440   4.3785080  89.5006120 102.1106210   6.8269000
  88.7740180 101.4911500   6.7594950  89.5615270 102.5046820   5.9567080
  93.1051220 104.3251210   3.6118410  93.6216240 103.7138570   3.0866670
  93.7548600 104.8279990   4.1029420  95.8446720 105.2159700   4.4387390
  96.1324530 104.9614000   3.5620400  96.3569940 104.6637060   5.0292960
  97.0623730  88.9549900   5.0183900  96.2795520  89.4295400   5.2980660
  96.7686660  88.0504730   4.9097080 101.6144800  89.6573000   3.0632990
 102.0552890  89.6018100   2.2154590 101.3452390  90.5731010   3.1343170
  99.4502930  88.0379100   1.7683000 100.0532300  88.6099310   2.2431520
  98.7095920  88.6018540   1.5456900  95.9119080 106.1375800  11.8055590
  96.8386390 105.9020070  11.8491550  95.8969510 106.9647800  11.3241620
  93.0982690  88.8020550  11.5697470  92.8166960  89.3054150  10.8058290
  93.4802390  88.0042300  11.2039600  99.6998150  88.2174130  12.1477940
  99.5863600  88.5368740  13.0429460 100.5167890  88.6186640  11.8515220
 102.4796640 105.3645660  11.6296630 103.2721960 104.8694890  11.4222590
 102.7729790 106.0435800  12.2372240  98.6056300  77.4623110 151.4804090
  98.5250350  76.5477720 151.2095800  98.1920720  77.9590180 150.7743800
  96.7374340  79.2402130 153.3613360  95.9616440  78.7602570 153.6511930
  97.3887270  78.5607780 153.1869520 100.7581770  83.6462320 152.1412490
 100.2963300  82.8749560 152.4699660 101.5707320  83.6728390 152.6464940
  90.7341430  83.5862030 154.4347140  91.0369470  82.6959770 154.2557360
  91.4785020  84.1432250 154.2069390  89.1632120  74.5123830 148.0231510
  88.2748820  74.8539800 147.9211390  89.4473310  74.3124150 147.1312340
  87.1265130  77.1129480 153.9071210  87.6981240  76.3451680 153.9074850
  87.1266670  77.4118240 152.9977820  96.9845080  85.9320330 151.7616480
  96.3656520  86.3877830 151.1910920  97.8396860  86.0871790 151.3606180
  96.1783330  81.9159320 153.3683520  96.1091610  80.9749260 153.2072650
  96.9403190  82.0060730 153.9406090  97.2088500  74.7229700 153.5952450
  97.5853320  73.8501580 153.4826120  97.1108010  75.0588400 152.7042890
  91.3393510  73.0955330 149.0569890  91.4460260  73.9959060 149.3638650
  90.4285870  73.0473300 148.7664540 100.9912620  72.2180140 150.5280790
 101.8122240  71.7276710 150.5706270 101.0246700  72.8077800 151.2812630
  93.1801240  76.0641700 153.3895070  93.6879460  76.5622670 154.0300090
  93.7114480  75.2876900 153.2134430  97.8508430  80.8159570 149.1548390
  97.2325700  81.2809020 148.5911110  98.3631680  81.5087050 149.5717900
 101.2274100  74.1580520 153.3008330 100.5229670  74.4465410 153.8811440
 101.5886260  74.9680630 152.9407890  87.2191630  81.5016100 146.5288020
  86.8419610  81.9903200 145.7972920  87.4764700  82.1741380 147.1594550
 104.2961020  73.6035310 153.6917540 103.3485930  73.6374290 153.8232970
 104.6211010  74.4174260 154.0766900  94.8280560  69.9032490 151.9873530
  95.1355540  69.3479380 151.2709030  93.8981260  70.0376950 151.8046520
 100.3795620  85.6199780 154.2780990 100.3922780  85.2162070 153.4103250
  99.8270840  86.3947070 154.1742420 101.6741040  82.3416000 149.3671160
 101.5637370  81.3990330 149.4920580 101.6709290  82.7031640 150.2533920
  97.2161320  77.9681320 148.7233650  96.2890600  77.9018700 148.9522120
  97.3686140  78.9061450 148.6088890  97.2030400  74.2398320 145.7200810
  96.2634070  74.4012280 145.8053270  97.5213660  74.9584000 145.1736800
 101.2458610  79.5301620 149.2268900 100.6271030  79.1921170 148.5795200
 101.2283060  78.8861380 149.9348090  92.8217960  78.4946060 151.5053380
  92.4174960  77.7823310 151.0099280  92.9081080  78.1499300 152.3941420
  93.2899660  82.1813620 153.6692590  92.9927950  81.5759090 152.9900370
  94.2399480  82.2190930 153.5581950  99.4223310  78.7688430 146.2341650
  99.8616590  77.9310860 146.0879470 100.1351730  79.4017830 146.3205790
  97.5318690  83.7084500 150.2022890  97.9714600  84.4508830 149.7878280
  97.4705580  83.9511070 151.1261850 103.0040450  70.0231240 144.5482690
 102.6913110  70.1158070 145.4481760 103.7652920  70.6012270 144.4980120
  89.5222590  77.3891040 149.0060030  89.4020190  78.1153130 148.3941300
  89.2123480  76.6193950 148.5287940  88.4055590  82.2606370 151.2234850
  87.9983670  82.4020960 150.3688450  89.2968600  81.9766530 151.0206060
 100.1988870  86.6953620 147.5585900 100.0390010  86.4056560 148.4567730
 100.0335580  85.9193750 147.0231130  92.6777250  86.4752150 149.3357520
  92.5019730  85.5587690 149.1225320  91.8232990  86.8339440 149.5755320
  99.9015000  84.2041180 146.1183900  99.2080160  84.2018470 145.4586180
 100.6437860  83.7800500 145.6878070  99.4664930  85.8303890 150.1932390
  99.9221880  85.0493270 150.5071010  99.8057450  86.5410710 150.7373570
  91.9886250  70.7326110 152.3883700  91.5454400  71.5135650 152.0568220
  92.5471240  71.0556000 153.0954640  95.1045070  70.3536810 147.2689530
  94.4799250  70.3496680 147.9942840  95.0175190  69.4867770 146.8725500
  94.0262150  71.2773440 154.2473300  94.3234480  72.1836270 154.1665320
  94.5747710  70.7892220 153.6332870  91.7800470  75.8559680 150.1164950
  91.5541390  75.6396850 151.0211570  90.9993000  76.2888140 149.7710920
  99.0098230  75.8623050 148.7155600  98.4107120  76.5858850 148.5319220
  99.5577840  75.7999830 147.9332050  97.6163100  74.4986590 150.7458880
  98.0092670  74.8158790 149.9327570  97.9779950  73.6198470 150.8603400
  86.6527270  71.0887390 152.9689080  86.3640320  71.6590250 153.6814060
  87.3973030  70.6091840 153.3320310  86.8397500  75.0307510 144.1791800
  86.7572170  75.9738270 144.3206790  86.4880560  74.8882420 143.3004150
  94.6395630  73.7646540 153.2462150  94.6431690  73.3236490 152.3966690
  95.5346750  74.0863870 153.3533970  90.4898010  73.6473030 152.2056360
  90.1498060  74.1248260 152.9623410  89.7275330  73.1938150 151.8457460
  94.7015780  74.7658620 146.2368910  94.8228600  74.7245100 147.1854730
  94.3164290  75.6282770 146.0815640  93.7137280  77.0759760 145.6352210
  93.1454180  76.6278010 145.0088120  94.4226280  77.4352540 145.1017360
  87.8044090  72.5692010 151.1221030  87.5191010  72.2047680 151.9599650
  87.7422950  71.8372470 150.5084170  91.2584760  81.0717950 147.9078620
  90.4847020  80.5315570 147.7477340  91.9879390  80.5524560 147.5696380
 102.0172740  80.0683310 153.7005010 102.7371860  80.5638600 153.3101120
 101.8154560  79.3901200 153.0558880  97.4782680  71.4621270 147.8434400
  96.6647290  70.9634440 147.7679710  97.2844630  72.3019520 147.4270750
 100.1931070  75.8340920 146.1396560 101.0810690  76.1458150 145.9647900
 100.1636160  74.9613170 145.7477140  91.3022160  80.7398330 151.5457430
  91.8200830  79.9366590 151.4914320  90.8506180  80.6777470 152.3874260
  96.1891660  82.0064610 146.8184730  96.5307360  82.7506840 146.3228050
  95.3604370  82.3195730 147.1809560 102.4645340  77.1452760 145.6076420
 102.3809060  77.5766980 144.7572860 103.1839530  77.6051110 146.0403240
 103.4932590  83.9995020 148.3358550 102.8508750  83.3450640 148.6102270
 103.1063250  84.4050110 147.5599220  99.0719070  81.3280450 152.1830240
  99.4242890  80.7308580 151.5231610  98.1881400  81.0024680 152.3538490
  95.1582350  82.0878140 149.5900650  95.8453480  82.6347350 149.9708240
  94.3714770  82.6318870 149.6250260  87.2974750  77.7050960 145.0817730
  88.1669600  77.9875760 145.3653650  86.8065070  78.5186830 144.9666540
  94.4609560  79.0924170 149.2026010  94.9172340  79.9029420 149.4286200
  94.1097770  78.7747310 150.0344500  90.3621340  69.4361820 149.6748530
  90.2335970  69.4279720 150.6233450  89.5383360  69.7744910 149.3239540
 101.8829970  82.8911480 144.8734900 101.6567550  82.1741920 145.4659540
 101.4926170  82.6423920 144.0356650  87.6646000  86.9178340 145.6479360
  88.0243640  87.5167680 144.9936630  87.5238340  87.4638230 146.4214390
 101.4646220  80.8083420 146.5349060 101.1767920  81.2696110 147.3226940
 102.2598390  80.3481190 146.8033280  93.6814620  84.3009540 146.4653030
  93.6724720  85.0339230 145.8497540  92.7612980  84.0541120 146.5579990
  89.2821260  79.5224430 147.2099790  88.6749210  80.2623330 147.2195090
  89.7570610  79.6123790 146.3837990 102.2216080  72.6432190 147.6944240
 101.5929240  72.7477860 146.9802470 101.7268000  72.8628970 148.4838120
  96.6674220  84.3637780 145.1278220  96.7686200  84.1601770 144.1980200
  95.7675960  84.1096060 145.3326000  94.1900110  74.9218140 149.1102120
  93.4816260  75.3904480 149.5515730  94.4744590  74.2640150 149.7447310
  98.2215540  71.6468800 150.5497910  98.0983320  71.6654930 149.6007420
  99.1700100  71.6947740 150.6696310  95.3092330  86.8824100 149.8225890
  95.5633830  86.8445490 148.9005260  94.3604810  86.7557430 149.8154140
  92.3935130  73.2303220 146.4852830  93.2425660  73.6673370 146.4193020
  92.0266400  73.5423480 147.3124890 101.3144910  77.8015980 151.3984400
 100.3735050  77.8166210 151.5732090 101.6288980  77.0151940 151.8444700
  91.2926550  79.4835580 144.9588360  92.0589820  79.3716940 145.5213790
  91.3701240  78.7873550 144.3065130  89.9873310  76.9160650 145.6421250
  90.0676900  75.9688160 145.7538650  90.8793060  77.2467530 145.7481910
 103.3170490  84.9724830 153.0738660 103.4417910  85.7956000 153.5462470
 104.1836050  84.7615560 152.7262810  90.7888020  87.0656040 152.7455790
  91.5250500  86.5171500 153.0164360  91.1728940  87.9312050 152.6061780
  87.6733500  83.1329610 148.6197300  86.7473280  83.3750750 148.6102710
  88.1389930  83.9603870 148.4982050  93.8990330  86.2386350 144.5681360
  94.6918940  86.5275180 144.1163150  93.3794680  85.8078520 143.8893840
 102.9520500  85.4656480 145.9918100 102.6662010  85.0521620 145.1772280
 102.7540050  86.3944190 145.8718620  94.4167730  81.4589760 144.4323710
  94.3118370  80.8442110 145.1585090  94.2491950  80.9355650 143.6486720
  97.6570460  80.5209790 145.0365700  97.1080560  80.9679090 145.6808440
  98.2789720  80.0159040 145.5603370  93.3245580  79.4800710 146.9331000
  93.7462000  79.3140580 147.7762390  93.4496420  78.6700940 146.4386140
  95.8373220  78.5038320 144.1808100  96.3578880  77.7887340 143.8149250
  96.4841620  79.1424190 144.4808610  92.2204480  75.5533940 143.8789160
  92.0193540  74.6901300 144.2402500  92.0496530  75.4667300 142.9410760
  99.6992790  70.3642170 146.4076040  99.9795080  69.5210070 146.7635460
  98.9258520  70.5965280 146.9214790  94.2372210  71.5969180 144.8523240
  93.8894210  70.9193170 144.2725690  94.4384980  71.1358690 145.6666630
  96.4021250  86.5849930 146.4709840  97.2972040  86.9234900 146.4928600
  96.4338880  85.8629340 145.8434120  90.0417410  81.9576980 144.6996840
  90.4792280  82.5006650 145.3554420  90.5265140  81.1323930 144.7093180
  87.2563210  84.7466010 152.1517100  87.5866220  83.8787070 151.9195740
  87.6854210  84.9524530 152.9822060  91.8525130  83.0775020 149.8119070
  91.5520670  82.9539990 150.7122980  91.7462620  82.2183610 149.4034800
 104.6217050  82.8571420 144.5145750 103.7910010  82.9248070 144.9852980
 104.7988880  83.7475540 144.2112610 104.0773510  79.6018900 147.0179950
 104.8392420  80.1715550 147.1239640 104.0927880  79.0346100 147.7888260
  87.5777850  78.1256830 151.2487610  86.9226690  77.8568470 150.6047310
  88.4155800  78.0161310 150.7989590 105.0833480  80.4569000 151.8621880
 105.4542310  79.6736320 151.4557850 105.7235410  81.1458100 151.6839180
 104.1292680  79.8953270 144.1752470 104.4041520  80.8032150 144.0471690
 103.9403420  79.8315800 145.1114460 100.5268290  72.9198120 145.4706100
 100.9453170  72.7329100 144.6302760 100.2204350  72.0677170 145.7809030
 104.0258020  77.8322260 149.1681900 103.6501620  77.0650190 148.7363190
 103.2961140  78.2144960 149.6556830  86.7915930  75.3355760 147.1912940
  85.8880010  75.5985960 147.0164600  87.2756550  75.6066930 146.4112900
 103.3008980  76.0579750 152.4689140 103.8246460  75.5642400 151.8379310
 103.8868400  76.1930110 153.2136710  89.3343140  74.3921300 145.1007320
  90.0434840  73.9704520 144.6154600  88.6183080  74.4596530 144.4690670
  88.9817300  70.4460630 144.1409970  89.7045430  70.9869570 144.4591190
  89.2541820  70.1724050 143.2651510 102.7908950  75.3153100 148.4081550
 103.2868070  75.0823970 149.1930430 102.5925020  74.4764940 147.9919190
 104.2196110  73.9514050 150.9419230 104.1095390  73.7970090 151.8801500
 104.9803700  73.4234990 150.6994640 105.1086380  71.7821970 144.1825370
 106.0335690  71.6503150 143.9743660 105.0862170  71.8614790 145.1361820
 105.1824870  72.5532630 146.8082080 104.3876370  72.4877750 147.3374990
 105.3868150  73.4883270 146.7967430 102.1243290  86.5924180 150.8020470
 102.7202360  86.2708750 150.1254890 102.3821440  86.1196000 151.5933740
  93.1051220  85.5507720 153.8066330  93.6216240  84.9395080 153.2814590
  93.7548600  86.0536500 154.2977340 101.6144800  70.8829510 153.2580910
 102.0552890  70.8274610 152.4102510 101.3452390  71.7987520 153.3291090
 103.4783370  70.5144750 151.2689730 103.4171770  69.5705970 151.1220750
 104.2575400  70.6224840 151.8143190  87.7836120  86.6537110 150.2313680
  87.6158160  86.0207790 150.9295570  86.9170630  86.8596510 149.8807870
  88.4064140  70.4853890 147.7345540  89.1643500  70.5982770 147.1609570
  87.9441310  71.3223090 147.6888970  94.9477950  72.5993160 150.7247850
  94.1352460  72.2250050 150.3843730  95.4519590  71.8438240 151.0269040
  99.4502930  69.2635610 151.9630920 100.0532300  69.8355820 152.4379440
  98.7095920  69.8275050 151.7404820 102.5937530  69.6657170 147.2371200
 102.7888160  70.5640620 147.5038630 101.8067400  69.4344250 147.7304150
  89.3898820  85.3470340 147.6763820  88.8646440  85.7278370 146.9725780
  89.3143400  85.9721110 148.3973530  90.7789290  71.0117940 146.2747510
  91.3082050  70.2247740 146.1455460  91.4117610  71.6909130 146.5083040
  92.9727130  70.7493080 149.3292900  92.3429870  70.0480390 149.4963030
  92.4332270  71.5097210 149.1126060 104.1464140  86.9057880 148.9977760
 104.3216330  86.2195620 148.3538680 103.4485710  87.4304930 148.6054430
  91.9891790  87.2952720 146.5513070  92.7210610  87.0112000 146.0036960
  92.2485460  87.0566000 147.4412450  91.1506580  83.4117450 146.5559400
  90.5215460  83.8802550 147.1045230  91.2654410  82.5666670 146.9905590
  89.1632120  74.5123830 129.2488020  88.2748820  74.8539800 129.1467900
  89.4473310  74.3124150 128.3568850  87.1265130  77.1129480 135.1327720
  87.6981240  76.3451680 135.1331360  87.1266670  77.4118240 134.2234330
  91.3393510  73.0955330 130.2826400  91.4460260  73.9959060 130.5895160
  90.4285870  73.0473300 129.9921050  88.9876670  75.0174340 135.5278990
  89.6686780  75.2812710 136.1466390  88.6724720  74.1775210 135.8617000
 105.2812170  74.2346890 138.3180930 104.5764340  74.6228600 137.7996040
 105.5470090  74.9297180 138.9201860  97.8508430  80.8159570 130.3804900
  97.2325700  81.2809020 129.8167620  98.3631680  81.5087050 130.7974410
  91.9259290  82.3116240 138.8737680  92.5433290  82.9867320 138.5922130
  91.0652410  82.7204220 138.7825180  87.2191630  81.5016100 127.7544530
  86.8419610  81.9903200 127.0229430  87.4764700  82.1741380 128.3851060
  97.2161320  77.9681320 129.9490160  96.2890600  77.9018700 130.1778630
  97.3686140  78.9061450 129.8345400  97.2030400  74.2398320 126.9457320
  96.2634070  74.4012280 127.0309780  97.5213660  74.9584000 126.3993310
 100.6885170  75.7086160 137.8691220 100.2756350  76.5339870 138.1231210
  99.9561120  75.1231200 137.6767580  92.3818090  81.9195310 141.5456900
  91.4846620  82.1435280 141.7930300  92.4070960  82.0430250 140.5968300
  99.4223310  78.7688430 127.4598160  99.8616590  77.9310860 127.3135980
 100.1351730  79.4017830 127.5462300  91.2089310  78.7908630 140.1214270
  91.0697080  79.6631430 140.4901670  90.3270670  78.4481440 139.9762210
  93.0069660  84.7330330 142.3299420  92.9785090  85.1373280 141.4627850
  92.8434630  83.8040690 142.1671020 103.0040450  70.0231240 125.7739200
 102.6913110  70.1158070 126.6738270 103.7652920  70.6012270 125.7236630
 104.9584480  85.5157430 143.6263590 105.4344200  85.9940320 144.3052670
 105.5791640  85.4474920 142.9009090  87.1607960  80.5606180 136.0385180
  87.2388380  80.6954950 135.0940900  87.7749640  79.8522070 136.2313300
 104.3617730  82.7070280 140.7863600 104.4880790  82.4682160 139.8680780
 104.4039110  81.8754820 141.2585680 104.2141740  74.7602740 141.7513340
 103.5986010  75.2682410 141.2228800 103.8938160  73.8601070 141.6939280
  87.2167480  81.6020350 138.5779640  87.3798520  81.1325710 137.7599010
  87.6819930  81.0943910 139.2428480  96.2756060  73.5994630 139.2175530
  95.8135430  73.8077650 140.0295470  95.8734170  72.7853980 138.9146200
 101.2760570  74.8203580 140.3472190 100.4254160  74.5209330 140.6681260
 101.1162360  75.0645590 139.4356010  98.3710280  76.3205330 142.4470980
  98.6963690  75.4869080 142.1073210  99.1590610  76.8433850 142.5949310
  94.2199680  76.7545260 142.0081730  94.1243280  75.8139990 141.8582130
  95.0631660  76.9760330 141.6129800  95.9255270  73.2493900 143.2312250
  95.2353590  73.0566100 143.8658340  96.6687570  73.5328540 143.7636550
  86.6527270  71.0887390 134.1945590  86.3640320  71.6590250 134.9070570
  87.3973030  70.6091840 134.5576820  86.8397500  75.0307510 125.4048310
  86.7572170  75.9738270 125.5463300  86.4880560  74.8882420 124.5260660
  90.4898010  73.6473030 133.4312870  90.1498060  74.1248260 134.1879920
  89.7275330  73.1938150 133.0713970  94.7015780  74.7658620 127.4625420
  94.8228600  74.7245100 128.4111240  94.3164290  75.6282770 127.3072150
  93.7137280  77.0759760 126.8608720  93.1454180  76.6278010 126.2344630
  94.4226280  77.4352540 126.3273870 102.0914900  69.9558200 141.3175490
 102.4160670  69.2247860 141.8433470 102.1271410  69.6371840 140.4156480
  88.7906460  80.9771780 140.7375450  88.4061250  80.3365450 141.3358410
  89.1018650  81.6807900 141.3070180  87.8044090  72.5692010 132.3477540
  87.5191010  72.2047680 133.1856160  87.7422950  71.8372470 131.7340680
  92.7302970  76.8656960 138.5368280  92.4260040  77.7448940 138.7618640
  93.6849430  76.9256750 138.5725720  97.3991540  80.1392370 140.8130520
  97.3328850  79.2188040 140.5588110  96.7696680  80.2367810 141.5275160
 100.1931070  75.8340920 127.3653070 101.0810690  76.1458150 127.1904410
 100.1636160  74.9613170 126.9733650  96.1891660  82.0064610 128.0441240
  96.5307360  82.7506840 127.5484560  95.3604370  82.3195730 128.4066070
  88.7866700  77.7059700 139.6839640  88.4281640  78.3713550 140.2712980
  88.4921260  76.8743250 140.0552260  91.9879820  78.1643940 142.5679190
  91.6879960  78.3101120 141.6707010  92.7591060  77.6049230 142.4752580
 103.5419480  79.6020280 139.9102900 102.8167670  80.1949060 139.7132290
 104.0694940  79.5943820 139.1116270  87.2974750  77.7050960 126.3074240
  88.1669600  77.9875760 126.5910160  86.8065070  78.5186830 126.1923050
  90.3621340  69.4361820 130.9005040  90.2335970  69.4279720 131.8489960
  89.5383360  69.7744910 130.5496050  87.6487860  85.1833200 141.3478270
  87.7578980  84.2427940 141.2073660  86.9968420  85.4487950 140.6992000
  98.8554050  73.6875250 138.1113190  99.2234870  72.8670460 138.4392760
  97.9952250  73.7477140 138.5268840  96.6674220  84.3637780 126.3534730
  96.7686200  84.1601770 125.4236710  95.7675960  84.1096060 126.5582510
  94.1900110  74.9218140 130.3358630  93.4816260  75.3904480 130.7772240
  94.4744590  74.2640150 130.9703820  95.8156040  76.3414840 138.3351160
  96.3141290  76.8160660 139.0003010  95.9578990  75.4178360 138.5421190
  92.3935130  73.2303220 127.7109340  93.2425660  73.6673370 127.6449530
  92.0266400  73.5423480 128.5381400 103.0222900  72.5582800 139.1779550
 102.5196500  73.2988200 139.5173360 103.8379560  72.9466800 138.8616340
  91.2926550  79.4835580 126.1844870  92.0589820  79.3716940 126.7470300
  91.3701240  78.7873550 125.5321640  89.9873310  76.9160650 126.8677760
  90.0676900  75.9688160 126.9795160  90.8793060  77.2467530 126.9738420
  89.7946300  86.2502110 143.1597880  90.5959030  86.5714160 143.5733280
  89.2798120  85.8897690 143.8817790  87.5144110  78.7375570 142.1033930
  88.0183130  78.1582850 142.6750160  86.7751530  79.0215800 142.6410300
  94.4167730  81.4589760 125.6580220  94.3118370  80.8442110 126.3841600
  94.2491950  80.9355650 124.8743230  94.5682050  80.1446560 141.6369450
  93.8027720  80.7131560 141.5524120  94.7498010  79.8522770 140.7437680
  97.6570460  80.5209790 126.2622210  97.1080560  80.9679090 126.9064950
  98.2789720  80.0159040 126.7859880 101.7105400  81.8751890 142.1944470
 102.4514870  82.2127650 141.6911930 100.9478080  82.0443950 141.6414240
  89.5467190  76.8805160 142.9984000  89.5872530  76.5819030 143.9069230
  90.4012690  77.2812770 142.8391520  95.8373220  78.5038320 125.4064610
  96.3578880  77.7887340 125.0405760  96.4841620  79.1424190 125.7065120
 100.3851060  79.9266720 140.7299680 100.7992080  80.0811800 141.5790100
  99.4502060  80.0521940 140.8925460 100.8573230  77.2662880 142.7338830
 101.4394000  76.5115200 142.6459310 101.0335000  77.7970320 141.9570310
  94.7406740  70.9832870 138.0783170  94.2924040  71.0057130 137.2328720
  94.1071940  70.5851890 138.6753470  95.1466290  79.8787200 138.6995610
  95.5654400  80.7219930 138.5271850  94.2274920  80.0159240 138.4702390
  97.4830190  77.6103380 140.0833450  97.6026400  77.0144520 140.8228290
  98.3424190  77.6473070 139.6634750  99.8218090  78.1640570 138.6595960
  99.2953310  78.6883190 138.0561100 100.1649430  78.7967960 139.2905690
  92.2204480  75.5533940 125.1045670  92.0193540  74.6901300 125.4659010
  92.0496530  75.4667300 124.1667270  92.9973710  86.1840210 139.8153340
  92.4594800  86.9086270 139.4962040  93.2507670  85.7070550 139.0250680
  99.0692390  73.7690540 141.5742290  98.3807910  73.1072080 141.5092280
  99.7898410  73.3228810 142.0190750  99.6992790  70.3642170 127.6332550
  99.9795080  69.5210070 127.9891970  98.9258520  70.5965280 128.1471300
  91.0187280  72.6534560 125.0923550  91.3213180  72.6601990 124.1842700
  91.7581870  72.3032420 125.5891210  94.2372210  71.5969180 126.0779750
  93.8894210  70.9193170 125.4982200  94.4384980  71.1358690 126.8923140
  96.4021250  86.5849930 127.6966350  97.2972040  86.9234900 127.7185110
  96.4338880  85.8629340 127.0690630  90.0417410  81.9576980 125.9253350
  90.4792280  82.5006650 126.5810930  90.5265140  81.1323930 125.9349690
  87.2563210  84.7466010 133.3773610  87.5866220  83.8787070 133.1452250
  87.6854210  84.9524530 134.2078570  87.7453420  85.6136600 136.1155240
  87.3084410  85.7937400 136.9479390  88.3131100  86.3711220 135.9736960
 100.5268290  72.9198120 126.6962610 100.9453170  72.7329100 125.8559270
 100.2204350  72.0677170 127.0065540  88.6153780  78.5109400 137.0147460
  88.9826820  78.4236800 137.8943480  88.0464600  77.7475950 136.9154320
 103.4157640  76.9793780 140.0277930 103.1843730  76.7506530 139.1275880
 103.6762190  77.8993330 139.9822820 101.8545710  72.2050210 142.8057630
 102.7315890  72.2133610 143.1891630 101.8666550  71.4681050 142.1949980
  86.7915930  75.3355760 128.4169450  85.8880010  75.5985960 128.2421110
  87.2756550  75.6066930 127.6369410 103.4798700  76.1419620 137.2165200
 102.5301410  76.1083160 137.3310190 103.6611710  77.0519730 136.9814970
  89.3343140  74.3921300 126.3263830  90.0434840  73.9704520 125.8411110
  88.6183080  74.4596530 125.6947180  88.9817300  70.4460630 125.3666480
  89.7045430  70.9869570 125.6847700  89.2541820  70.1724050 124.4908020
  88.6709490  69.6966820 135.2689100  89.3185680  69.1464200 134.8284260
  89.0911330  69.9509970 136.0904910 102.5661830  69.8908180 138.6258740
 103.2034050  70.5042320 138.9917930 102.7136720  69.9268840 137.6807970
 105.1086380  71.7821970 125.4081880 106.0335690  71.6503150 125.2000170
 105.0862170  71.8614790 126.3618330  88.4241490  69.8522490 138.0114420
  88.0756310  70.3086310 138.7772600  88.0929190  68.9579620 138.0936850
  90.0305860  83.0242090 142.1767610  89.9875490  82.6535000 143.0582070
  90.1616870  83.9619660 142.3169430  95.9366310  71.0434370 141.5333840
  95.8755200  71.6356200 142.2829250  96.8766690  70.9360330 141.3884100
  98.5740870  70.7004430 141.1726130  99.1881280  71.0183720 140.5107210
  99.1190430  70.2153020 141.7921990  89.0962130  69.3798690 141.2865190
  89.6445120  69.1986740 140.5231300  89.1617440  68.5892800 141.8221500
  89.8693890  85.9704340 139.2965390  89.2754210  85.8389040 140.0355430
  89.8617730  85.1342480 138.8307490  99.3148910  69.2636570 137.4995420
  98.4408750  69.5971680 137.2968350  99.2059660  68.7909750 138.3247290
 100.2220890  71.4707440 138.8837140  99.8934250  70.6559200 138.5038870
 101.1703190  71.4277250 138.7602830  88.4064140  70.4853890 128.9602050
  89.1643500  70.5982770 128.3866080  87.9441310  71.3223090 128.9145480
  90.7789290  71.0117940 127.5004020  91.3082050  70.2247740 127.3711970
  91.4117610  71.6909130 127.7339550  95.9119080  87.3632310 143.2260020
  96.8386390  87.1276580 143.2695980  95.8969510  88.1904310 142.7446050
  93.0982690  70.0277060 142.9901900  92.8166960  70.5310660 142.2262720
  93.4802390  69.2298810 142.6244030  99.6998150  69.4430640 143.5682370
  99.5863600  69.7625250 144.4633890 100.5167890  69.8443150 143.2719650
 102.4796640  86.5902170 143.0501060 103.2721960  86.0951400 142.8427020
 102.7729790  87.2692310 143.6576670  90.7540170  79.5521940 116.6902140
  89.9225050  79.2970650 117.0898650  91.3621150  79.6232710 117.4260060
 100.7581770  83.6462320 114.5925510 100.2963300  82.8749560 114.9212680
 101.5707320  83.6728390 115.0977960  90.7341430  83.5862030 116.8860160
  91.0369470  82.6959770 116.7070380  91.4785020  84.1432250 116.6582410
  89.1632120  74.5123830 110.4744530  88.2748820  74.8539800 110.3724410
  89.4473310  74.3124150 109.5825360  87.1265130  77.1129480 116.3584230
  87.6981240  76.3451680 116.3587870  87.1266670  77.4118240 115.4490840
  96.9845080  85.9320330 114.2129500  96.3656520  86.3877830 113.6423940
  97.8396860  86.0871790 113.8119200  96.1783330  81.9159320 115.8196540
  96.1091610  80.9749260 115.6585670  96.9403190  82.0060730 116.3919110
  91.3393510  73.0955330 111.5082910  91.4460260  73.9959060 111.8151670
  90.4285870  73.0473300 111.2177560  88.9876670  75.0174340 116.7535500
  89.6686780  75.2812710 117.3722900  88.6724720  74.1775210 117.0873510
  92.7140190  80.3435440 118.2845010  92.3809570  80.9704360 118.9266080
  92.8906870  80.8697320 117.5046680 102.8436880  83.7755650 118.0148830
 102.1600400  84.4454760 118.0065500 103.3831170  83.9736300 117.2493690
  94.8280560  69.9032490 114.4386550  95.1355540  69.3479380 113.7222050
  93.8981260  70.0376950 114.2559540 100.3795620  85.6199780 116.7294010
 100.3922780  85.2162070 115.8616270  99.8270840  86.3947070 116.6255440
 101.6741040  82.3416000 111.8184180 101.5637370  81.3990330 111.9433600
 101.6709290  82.7031640 112.7046940  97.2030400  74.2398320 108.1713830
  96.2634070  74.4012280 108.2566290  97.5213660  74.9584000 107.6249820
  93.2899660  82.1813620 116.1205610  92.9927950  81.5759090 115.4413390
  94.2399480  82.2190930 116.0094970  89.5222590  77.3891040 111.4573050
  89.4020190  78.1153130 110.8454320  89.2123480  76.6193950 110.9800960
  88.4055590  82.2606370 113.6747870  87.9983670  82.4020960 112.8201470
  89.2968600  81.9766530 113.4719080 100.1988870  86.6953620 110.0098920
 100.0390010  86.4056560 110.9080750 100.0335580  85.9193750 109.4744150
  92.6777250  86.4752150 111.7870540  92.5019730  85.5587690 111.5738340
  91.8232990  86.8339440 112.0268340  99.9015000  84.2041180 108.5696920
  99.2080160  84.2018470 107.9099200 100.6437860  83.7800500 108.1391090
  99.4664930  85.8303890 112.6445410  99.9221880  85.0493270 112.9584030
  99.8057450  86.5410710 113.1886590 104.2141740  74.7602740 122.9769850
 103.5986010  75.2682410 122.4485310 103.8938160  73.8601070 122.9195790
  91.9886250  70.7326110 114.8396720  91.5454400  71.5135650 114.5081240
  92.5471240  71.0556000 115.5467660 101.2760570  74.8203580 121.5728700
 100.4254160  74.5209330 121.8937770 101.1162360  75.0645590 120.6612520
  98.3710280  76.3205330 123.6727490  98.6963690  75.4869080 123.3329720
  99.1590610  76.8433850 123.8205820  95.1045070  70.3536810 109.7202550
  94.4799250  70.3496680 110.4455860  95.0175190  69.4867770 109.3238520
  94.2199680  76.7545260 123.2338240  94.1243280  75.8139990 123.0838640
  95.0631660  76.9760330 122.8386310  95.9255270  73.2493900 124.4568760
  95.2353590  73.0566100 125.0914850  96.6687570  73.5328540 124.9893060
  94.6395630  73.7646540 115.6975170  94.6431690  73.3236490 114.8479710
  95.5346750  74.0863870 115.8046990  90.4898010  73.6473030 114.6569380
  90.1498060  74.1248260 115.4136430  89.7275330  73.1938150 114.2970480
  94.7015780  74.7658620 108.6881930  94.8228600  74.7245100 109.6367750
  94.3164290  75.6282770 108.5328660 102.0914900  69.9558200 122.5432000
 102.4160670  69.2247860 123.0689980 102.1271410  69.6371840 121.6412990
  88.7906460  80.9771780 121.9631960  88.4061250  80.3365450 122.5614920
  89.1018650  81.6807900 122.5326690  87.8044090  72.5692010 113.5734050
  87.5191010  72.2047680 114.4112670  87.7422950  71.8372470 112.9597190
  91.2584760  81.0717950 110.3591640  90.4847020  80.5315570 110.1990360
  91.9879390  80.5524560 110.0209400  97.4782680  71.4621270 110.2947420
  96.6647290  70.9634440 110.2192730  97.2844630  72.3019520 109.8783770
  97.3991540  80.1392370 122.0387030  97.3328850  79.2188040 121.7844620
  96.7696680  80.2367810 122.7531670  91.3022160  80.7398330 113.9970450
  91.8200830  79.9366590 113.9427340  90.8506180  80.6777470 114.8387280
  91.9879820  78.1643940 123.7935700  91.6879960  78.3101120 122.8963520
  92.7591060  77.6049230 123.7009090  90.3621340  69.4361820 112.1261550
  90.2335970  69.4279720 113.0746470  89.5383360  69.7744910 111.7752560
  98.0374250  82.6062860 117.6008780  98.6796480  81.9056020 117.7140950
  98.5623600  83.3861300 117.4205670  99.8111870  83.4057760 120.8044840
 100.1468110  83.9924450 121.4822760  98.8912210  83.2750470 121.0342630
 101.4646220  80.8083420 108.9862080 101.1767920  81.2696110 109.7739960
 102.2598390  80.3481190 109.2546300  87.6487860  85.1833200 122.5734780
  87.7578980  84.2427940 122.4330170  86.9968420  85.4487950 121.9248510
  95.3092330  86.8824100 112.2738910  95.5633830  86.8445490 111.3518280
  94.3604810  86.7557430 112.2667160  92.3935130  73.2303220 108.9365850
  93.2425660  73.6673370 108.8706040  92.0266400  73.5423480 109.7637910
 103.0222900  72.5582800 120.4036060 102.5196500  73.2988200 120.7429870
 103.8379560  72.9466800 120.0872850 103.3170490  84.9724830 115.5251680
 103.4417910  85.7956000 115.9975490 104.1836050  84.7615560 115.1775830
  87.6733500  83.1329610 111.0710320  86.7473280  83.3750750 111.0615730
  88.1389930  83.9603870 110.9495070  89.7946300  86.2502110 124.3854390
  90.5959030  86.5714160 124.7989790  89.2798120  85.8897690 125.1074300
  98.6310930  82.3581980 124.3329800  98.0249090  82.3813580 123.5925550
  98.3265040  81.6265020 124.8697050 100.0611300  86.0862270 122.9439210
 101.0133050  86.0020290 122.8939450  99.9139520  86.7503980 123.6173000
  94.5682050  80.1446560 122.8625960  93.8027720  80.7131560 122.7780630
  94.7498010  79.8522770 121.9694190  95.8373220  78.5038320 106.6321120
  96.3578880  77.7887340 106.2662270  96.4841620  79.1424190 106.9321630
 100.3851060  79.9266720 121.9556190 100.7992080  80.0811800 122.8046610
  99.4502060  80.0521940 122.1181970 100.8573230  77.2662880 123.9595340
 101.4394000  76.5115200 123.8715820 101.0335000  77.7970320 123.1826820
  95.1466290  79.8787200 119.9252120  95.5654400  80.7219930 119.7528360
  94.2274920  80.0159240 119.6958900  97.4830190  77.6103380 121.3089960
  97.6026400  77.0144520 122.0484800  98.3424190  77.6473070 120.8891260
  99.0692390  73.7690540 122.7998800  98.3807910  73.1072080 122.7348790
  99.7898410  73.3228810 123.2447260  91.0187280  72.6534560 106.3180060
  91.3213180  72.6601990 105.4099210  91.7581870  72.3032420 106.8147720
  94.2372210  71.5969180 107.3036260  93.8894210  70.9193170 106.7238710
  94.4384980  71.1358690 108.1179650  87.2563210  84.7466010 114.6030120
  87.5866220  83.8787070 114.3708760  87.6854210  84.9524530 115.4335080
  91.8525130  83.0775020 112.2632090  91.5520670  82.9539990 113.1636000
  91.7462620  82.2183610 111.8547820  87.7453420  85.6136600 117.3411750
  87.3084410  85.7937400 118.1735900  88.3131100  86.3711220 117.1993470
  87.5777850  78.1256830 113.7000630  86.9226690  77.8568470 113.0560330
  88.4155800  78.0161310 113.2502610 102.0667240  81.8405580 119.7265220
 101.2527080  82.2702740 119.9891010 102.4741440  82.4523990 119.1134270
 103.4157640  76.9793780 121.2534440 103.1843730  76.7506530 120.3532390
 103.6762190  77.8993330 121.2079330 101.8545710  72.2050210 124.0314140
 102.7315890  72.2133610 124.4148140 101.8666550  71.4681050 123.4206490
  89.3343140  74.3921300 107.5520340  90.0434840  73.9704520 107.0667620
  88.6183080  74.4596530 106.9203690  88.9817300  70.4460630 106.5922990
  89.7045430  70.9869570 106.9104210  89.2541820  70.1724050 105.7164530
 102.1243290  86.5924180 113.2533490 102.7202360  86.2708750 112.5767910
 102.3821440  86.1196000 114.0446760  90.0305860  83.0242090 123.4024120
  89.9875490  82.6535000 124.2838580  90.1616870  83.9619660 123.5425940
  95.9366310  71.0434370 122.7590350  95.8755200  71.6356200 123.5085760
  96.8766690  70.9360330 122.6140610  98.5740870  70.7004430 122.3982640
  99.1881280  71.0183720 121.7363720  99.1190430  70.2153020 123.0178500
  89.0962130  69.3798690 122.5121700  89.6445120  69.1986740 121.7487810
  89.1617440  68.5892800 123.0478010  89.5006120  83.3362720 119.4729940
  88.7740180  82.7168010 119.4055890  89.5615270  83.7303330 118.6028020
  93.1051220  85.5507720 116.2579350  93.6216240  84.9395080 115.7327610
  93.7548600  86.0536500 116.7490360  95.8446720  86.4416210 117.0848330
  96.1324530  86.1870510 116.2081340  96.3569940  85.8893570 117.6753900
  87.7836120  86.6537110 112.6826700  87.6158160  86.0207790 113.3808590
  86.9170630  86.8596510 112.3320890  88.4064140  70.4853890 110.1858560
  89.1643500  70.5982770 109.6122590  87.9441310  71.3223090 110.1401990
  94.9477950  72.5993160 113.1760870  94.1352460  72.2250050 112.8356750
  95.4519590  71.8438240 113.4782060  90.7789290  71.0117940 108.7260530
  91.3082050  70.2247740 108.5968480  91.4117610  71.6909130 108.9596060
  92.9727130  70.7493080 111.7805920  92.3429870  70.0480390 111.9476050
  92.4332270  71.5097210 111.5639080  93.0982690  70.0277060 124.2158410
  92.8166960  70.5310660 123.4519230  93.4802390  69.2298810 123.8500540
  99.6998150  69.4430640 124.7938880  99.5863600  69.7625250 125.6890400
 100.5167890  69.8443150 124.4976160 100.7581770  83.6462320  95.8182020
 100.2963300  82.8749560  96.1469190 101.5707320  83.6728390  96.3234470
  96.9845080  85.9320330  95.4386010  96.3656520  86.3877830  94.8680450
  97.8396860  86.0871790  95.0375710 100.9912620  72.2180140  94.2050320
 101.8122240  71.7276710  94.2475800 101.0246700  72.8077800  94.9582160
 101.2274100  74.1580520  96.9777860 100.5229670  74.4465410  97.5580970
 101.5886260  74.9680630  96.6177420 102.8436880  83.7755650  99.2405340
 102.1600400  84.4454760  99.2322010 103.3831170  83.9736300  98.4750200
 100.3795620  85.6199780  97.9550520 100.3922780  85.2162070  97.0872780
  99.8270840  86.3947070  97.8511950 101.6741040  82.3416000  93.0440690
 101.5637370  81.3990330  93.1690110 101.6709290  82.7031640  93.9303450
  99.7781060  80.5229620  99.2833130 100.1949850  80.3089730  98.4486590
 100.5020880  80.7802410  99.8541750 101.2458610  79.5301620  92.9038430
 100.6271030  79.1921170  92.2564730 101.2283060  78.8861380  93.6117620
  99.4223310  78.7688430  89.9111180  99.8616590  77.9310860  89.7649000
 100.1351730  79.4017830  89.9975320 103.0040450  70.0231240  88.2252220
 102.6913110  70.1158070  89.1251290 103.7652920  70.6012270  88.1749650
  98.2234470  86.4098280 101.8071430  98.7379140  86.3206290 102.6093860
  97.3803550  86.7557980 102.0999340 100.1988870  86.6953620  91.2355430
 100.0390010  86.4056560  92.1337260 100.0335580  85.9193750  90.7000660
  92.6777250  86.4752150  93.0127050  92.5019730  85.5587690  92.7994850
  91.8232990  86.8339440  93.2524850  99.9015000  84.2041180  89.7953430
  99.2080160  84.2018470  89.1355710 100.6437860  83.7800500  89.3647600
  99.4664930  85.8303890  93.8701920  99.9221880  85.0493270  94.1840540
  99.8057450  86.5410710  94.4143100  96.2756060  73.5994630 101.6688550
  95.8135430  73.8077650 102.4808490  95.8734170  72.7853980 101.3659220
 101.2760570  74.8203580 102.7985210 100.4254160  74.5209330 103.1194280
 101.1162360  75.0645590 101.8869030  98.3710280  76.3205330 104.8984000
  98.6963690  75.4869080 104.5586230  99.1590610  76.8433850 105.0462330
  94.2199680  76.7545260 104.4594750  94.1243280  75.8139990 104.3095150
  95.0631660  76.9760330 104.0642820  95.9255270  73.2493900 105.6825270
  95.2353590  73.0566100 106.3171360  96.6687570  73.5328540 106.2149570
  98.2018240  77.0892340  98.5179190  97.4699360  77.5979150  98.8669290
  97.8042580  76.2722320  98.2167970  97.3991540  80.1392370 103.2643540
  97.3328850  79.2188040 103.0101130  96.7696680  80.2367810 103.9788180
 100.1931070  75.8340920  89.8166090 101.0810690  76.1458150  89.6417430
 100.1636160  74.9613170  89.4246670  96.1891660  82.0064610  90.4954260
  96.5307360  82.7506840  89.9997580  95.3604370  82.3195730  90.8579090
  97.3308270  82.9612940 103.0147340  97.3452810  82.0293900 102.7966250
  96.6233370  83.0472700 103.6537110 102.4645340  77.1452760  89.2845950
 102.3809060  77.5766980  88.4342390 103.1839530  77.6051110  89.7172770
 103.4932590  83.9995020  92.0128080 102.8508750  83.3450640  92.2871800
 103.1063250  84.4050110  91.2368750  99.0719070  81.3280450  95.8599770
  99.4242890  80.7308580  95.2001140  98.1881400  81.0024680  96.0308020
  96.7642170  84.6030510 100.1087840  97.4084390  84.8089890 100.7861260
  97.1271610  83.8418910  99.6558690  98.0374250  82.6062860  98.8265290
  98.6796480  81.9056020  98.9397460  98.5623600  83.3861300  98.6462180
 101.8829970  82.8911480  88.5504430 101.6567550  82.1741920  89.1429070
 101.4926170  82.6423920  87.7126180  99.8111870  83.4057760 102.0301350
 100.1468110  83.9924450 102.7079270  98.8912210  83.2750470 102.2599140
 101.4646220  80.8083420  90.2118590 101.1767920  81.2696110  90.9996470
 102.2598390  80.3481190  90.4802810  98.8554050  73.6875250 100.5626210
  99.2234870  72.8670460 100.8905780  97.9952250  73.7477140 100.9781860
 102.2216080  72.6432190  91.3713770 101.5929240  72.7477860  90.6572000
 101.7268000  72.8628970  92.1607650  96.6674220  84.3637780  88.8047750
  96.7686200  84.1601770  87.8749730  95.7675960  84.1096060  89.0095530
  95.8156040  76.3414840 100.7864180  96.3141290  76.8160660 101.4516030
  95.9578990  75.4178360 100.9934210  98.2215540  71.6468800  94.2267440
  98.0983320  71.6654930  93.2776950  99.1700100  71.6947740  94.3465840
  95.3092330  86.8824100  93.4995420  95.5633830  86.8445490  92.5774790
  94.3604810  86.7557430  93.4923670 101.3144910  77.8015980  95.0753930
 100.3735050  77.8166210  95.2501620 101.6288980  77.0151940  95.5214230
 103.3170490  84.9724830  96.7508190 103.4417910  85.7956000  97.2232000
 104.1836050  84.7615560  96.4032340  98.6310930  82.3581980 105.5586310
  98.0249090  82.3813580 104.8182060  98.3265040  81.6265020 106.0953560
 102.9520500  85.4656480  89.6687630 102.6662010  85.0521620  88.8541810
 102.7540050  86.3944190  89.5488150  94.5682050  80.1446560 104.0882470
  93.8027720  80.7131560 104.0037140  94.7498010  79.8522770 103.1950700
 100.3851060  79.9266720 103.1812700 100.7992080  80.0811800 104.0303120
  99.4502060  80.0521940 103.3438480 100.8573230  77.2662880 105.1851850
 101.4394000  76.5115200 105.0972330 101.0335000  77.7970320 104.4083330
  94.7406740  70.9832870 100.5296190  94.2924040  71.0057130  99.6841740
  94.1071940  70.5851890 101.1266490  95.1466290  79.8787200 101.1508630
  95.5654400  80.7219930 100.9784870  94.2274920  80.0159240 100.9215410
  97.4830190  77.6103380 102.5346470  97.6026400  77.0144520 103.2741310
  98.3424190  77.6473070 102.1147770  99.8218090  78.1640570 101.1108980
  99.2953310  78.6883190 100.5074120 100.1649430  78.7967960 101.7418710
  94.2498960  74.1524730 103.7922290  94.8398650  73.8440580 104.4800110
  93.4319200  73.6804480 103.9482190  99.0692390  73.7690540 104.0255310
  98.3807910  73.1072080 103.9605300  99.7898410  73.3228810 104.4703770
  99.6992790  70.3642170  90.0845570  99.9795080  69.5210070  90.4404990
  98.9258520  70.5965280  90.5984320 104.6217050  82.8571420  88.1915280
 103.7910010  82.9248070  88.6622510 104.7988880  83.7475540  87.8882140
 100.5268290  72.9198120  89.1475630 100.9453170  72.7329100  88.3072290
 100.2204350  72.0677170  89.4578560 103.3008980  76.0579750  96.1458670
 103.8246460  75.5642400  95.5148840 103.8868400  76.1930110  96.8906240
 105.1086380  71.7821970  87.8594900 106.0335690  71.6503150  87.6513190
 105.0862170  71.8614790  88.8131350 102.1243290  86.5924180  94.4790000
 102.7202360  86.2708750  93.8024420 102.3821440  86.1196000  95.2703270
  95.9366310  71.0434370 103.9846860  95.8755200  71.6356200 104.7342270
  96.8766690  70.9360330 103.8397120  98.5740870  70.7004430 103.6239150
  99.1881280  71.0183720 102.9620230  99.1190430  70.2153020 104.2435010
  99.3148910  69.2636570  99.9508440  98.4408750  69.5971680  99.7481370
  99.2059660  68.7909750 100.7760310 102.6755500  87.2419480  98.3087730
 102.2158470  87.9935290  97.9345750 102.0467960  86.5225950  98.2502530
  95.8446720  86.4416210  98.3104840  96.1324530  86.1870510  97.4337850
  96.3569940  85.8893570  98.9010410  97.0623730  70.1806410  98.8901350
  96.2795520  70.6551910  99.1698110  96.7686660  69.2761240  98.7814530
 102.5937530  69.6657170  90.9140730 102.7888160  70.5640620  91.1808160
 101.8067400  69.4344250  91.4073680 104.1464140  86.9057880  92.6747290
 104.3216330  86.2195620  92.0308210 103.4485710  87.4304930  92.2823960
  93.0982690  70.0277060 105.4414920  92.8166960  70.5310660 104.6775740
  93.4802390  69.2298810 105.0757050  98.6056300  77.4623110  76.3830130
  98.5250350  76.5477720  76.1121840  98.1920720  77.9590180  75.6769840
  89.1632120  74.5123830  72.9257550  88.2748820  74.8539800  72.8237430
  89.4473310  74.3124150  72.0338380  96.9845080  85.9320330  76.6642520
  96.3656520  86.3877830  76.0936960  97.8396860  86.0871790  76.2632220
  96.1783330  81.9159320  78.2709560  96.1091610  80.9749260  78.1098690
  96.9403190  82.0060730  78.8432130 100.9912620  72.2180140  75.4306830
 101.8122240  71.7276710  75.4732310 101.0246700  72.8077800  76.1838670
 101.2274100  74.1580520  78.2034370 100.5229670  74.4465410  78.7837480
 101.5886260  74.9680630  77.8433930 102.8436880  83.7755650  80.4661850
 102.1600400  84.4454760  80.4578520 103.3831170  83.9736300  79.7006710
 104.2961020  73.6035310  78.5943580 103.3485930  73.6374290  78.7259010
 104.6211010  74.4174260  78.9792940  94.8280560  69.9032490  76.8899570
  95.1355540  69.3479380  76.1735070  93.8981260  70.0376950  76.7072560
  99.7781060  80.5229620  80.5089640 100.1949850  80.3089730  79.6743100
 100.5020880  80.7802410  81.0798260  97.2030400  74.2398320  70.6226850
  96.2634070  74.4012280  70.7079310  97.5213660  74.9584000  70.0762840
 103.7243160  78.9216840  80.6005880 102.8961790  78.9909930  80.1256010
 104.3193640  79.5071150  80.1321710 100.6885170  75.7086160  81.5460750
 100.2756350  76.5339870  81.8000740  99.9561120  75.1231200  81.3537110
 101.3785270  85.7545490  82.2341730 100.9015830  86.5617680  82.0414340
 100.6947060  85.1023820  82.3867940  97.5318690  83.7084500  75.1048930
  97.9714600  84.4508830  74.6904320  97.4705580  83.9511070  76.0287890
 103.0040450  70.0231240  69.4508730 102.6913110  70.1158070  70.3507800
 103.7652920  70.6012270  69.4006160 104.9584480  85.5157430  87.3033120
 105.4344200  85.9940320  87.9822200 105.5791640  85.4474920  86.5778620
 104.3617730  82.7070280  84.4633130 104.4880790  82.4682160  83.5450310
 104.4039110  81.8754820  84.9355210 101.2760570  74.8203580  84.0241720
 100.4254160  74.5209330  84.3450790 101.1162360  75.0645590  83.1125540
  98.3710280  76.3205330  86.1240510  98.6963690  75.4869080  85.7842740
  99.1590610  76.8433850  86.2718840  95.1045070  70.3536810  72.1715570
  94.4799250  70.3496680  72.8968880  95.0175190  69.4867770  71.7751540
  97.6163100  74.4986590  75.6484920  98.0092670  74.8158790  74.8353610
  97.9779950  73.6198470  75.7629440  98.6644150  72.5426020  79.1558640
  98.6816890  72.9934670  80.0000490  98.4159730  71.6431660  79.3692080
 102.0914900  69.9558200  84.9945020 102.4160670  69.2247860  85.5203000
 102.1271410  69.6371840  84.0926010  88.7906460  80.9771780  84.4144980
  88.4061250  80.3365450  85.0127940  89.1018650  81.6807900  84.9839710
 102.0172740  80.0683310  78.6031050 102.7371860  80.5638600  78.2127160
 101.8154560  79.3901200  77.9584920  97.4782680  71.4621270  72.7460440
  96.6647290  70.9634440  72.6705750  97.2844630  72.3019520  72.3296790
  97.3991540  80.1392370  84.4900050  97.3328850  79.2188040  84.2357640
  96.7696680  80.2367810  85.2044690 100.1931070  75.8340920  71.0422600
 101.0810690  76.1458150  70.8673940 100.1636160  74.9613170  70.6503180
 102.4645340  77.1452760  70.5102460 102.3809060  77.5766980  69.6598900
 103.1839530  77.6051110  70.9429280 103.5419480  79.6020280  83.5872430
 102.8167670  80.1949060  83.3901820 104.0694940  79.5943820  82.7885800
  99.0719070  81.3280450  77.0856280  99.4242890  80.7308580  76.4257650
  98.1881400  81.0024680  77.2564530  98.0374250  82.6062860  80.0521800
  98.6796480  81.9056020  80.1653970  98.5623600  83.3861300  79.8718690
  99.8111870  83.4057760  83.2557860 100.1468110  83.9924450  83.9335780
  98.8912210  83.2750470  83.4855650  98.8554050  73.6875250  81.7882720
  99.2234870  72.8670460  82.1162290  97.9952250  73.7477140  82.2038370
 102.2216080  72.6432190  72.5970280 101.5929240  72.7477860  71.8828510
 101.7268000  72.8628970  73.3864160  98.2215540  71.6468800  75.4523950
  98.0983320  71.6654930  74.5033460  99.1700100  71.6947740  75.5722350
  92.3935130  73.2303220  71.3878870  93.2425660  73.6673370  71.3219060
  92.0266400  73.5423480  72.2150930 103.0222900  72.5582800  82.8549080
 102.5196500  73.2988200  83.1942890 103.8379560  72.9466800  82.5385870
 101.3144910  77.8015980  76.3010440 100.3735050  77.8166210  76.4758130
 101.6288980  77.0151940  76.7470740  98.6310930  82.3581980  86.7842820
  98.0249090  82.3813580  86.0438570  98.3265040  81.6265020  87.3210070
 100.0611300  86.0862270  85.3952230 101.0133050  86.0020290  85.3452470
  99.9139520  86.7503980  86.0686020  97.6570460  80.5209790  69.9391740
  97.1080560  80.9679090  70.5834480  98.2789720  80.0159040  70.4629410
 101.7105400  81.8751890  85.8714000 102.4514870  82.2127650  85.3681460
 100.9478080  82.0443950  85.3183770 100.3851060  79.9266720  84.4069210
 100.7992080  80.0811800  85.2559630  99.4502060  80.0521940  84.5694990
 100.8573230  77.2662880  86.4108360 101.4394000  76.5115200  86.3228840
 101.0335000  77.7970320  85.6339840  97.4830190  77.6103380  83.7602980
  97.6026400  77.0144520  84.4997820  98.3424190  77.6473070  83.3404280
  99.8218090  78.1640570  82.3365490  99.2953310  78.6883190  81.7330630
 100.1649430  78.7967960  82.9675220  99.0692390  73.7690540  85.2511820
  98.3807910  73.1072080  85.1861810  99.7898410  73.3228810  85.6960280
  99.6992790  70.3642170  71.3102080  99.9795080  69.5210070  71.6661500
  98.9258520  70.5965280  71.8240830  94.2372210  71.5969180  69.7549280
  93.8894210  70.9193170  69.1751730  94.4384980  71.1358690  70.5692670
 103.3815600  85.1153600  84.0802080 102.7817590  85.1746160  83.3366000
 103.5109500  84.1758580  84.2098930 104.6217050  82.8571420  69.4171790
 103.7910010  82.9248070  69.8879020 104.7988880  83.7475540  69.1138650
 102.0667240  81.8405580  82.1778240 101.2527080  82.2702740  82.4404030
 102.4741440  82.4523990  81.5647290 104.1292680  79.8953270  69.0778510
 104.4041520  80.8032150  68.9497730 103.9403420  79.8315800  70.0140500
 100.5268290  72.9198120  70.3732140 100.9453170  72.7329100  69.5328800
 100.2204350  72.0677170  70.6835070 103.4157640  76.9793780  83.7047460
 103.1843730  76.7506530  82.8045410 103.6762190  77.8993330  83.6592350
 101.8545710  72.2050210  86.4827160 102.7315890  72.2133610  86.8661160
 101.8666550  71.4681050  85.8719510  86.7915930  75.3355760  72.0938980
  85.8880010  75.5985960  71.9190640  87.2756550  75.6066930  71.3138940
 103.4798700  76.1419620  80.8934730 102.5301410  76.1083160  81.0079720
 103.6611710  77.0519730  80.6584500 102.5661830  69.8908180  82.3028270
 103.2034050  70.5042320  82.6687460 102.7136720  69.9268840  81.3577500
 105.1824870  72.5532630  71.7108120 104.3876370  72.4877750  72.2401030
 105.3868150  73.4883270  71.6993470  98.5740870  70.7004430  84.8495660
  99.1881280  71.0183720  84.1876740  99.1190430  70.2153020  85.4691520
  99.3148910  69.2636570  81.1764950  98.4408750  69.5971680  80.9737880
  99.2059660  68.7909750  82.0016820 100.2220890  71.4707440  82.5606670
  99.8934250  70.6559200  82.1808400 101.1703190  71.4277250  82.4372360
 101.6144800  70.8829510  78.1606950 102.0552890  70.8274610  77.3128550
 101.3452390  71.7987520  78.2317130 103.4783370  70.5144750  76.1715770
 103.4171770  69.5705970  76.0246790 104.2575400  70.6224840  76.7169230
  99.4502930  69.2635610  76.8656960 100.0532300  69.8355820  77.3405480
  98.7095920  69.8275050  76.6430860  99.6998150  69.4430640  87.2451900
  99.5863600  69.7625250  88.1403420 100.5167890  69.8443150  86.9489180
 102.4796640  86.5902170  86.7270590 103.2721960  86.0951400  86.5196550
 102.7729790  87.2692310  87.3346200  98.6056300  77.4623110  57.6086640
  98.5250350  76.5477720  57.3378350  98.1920720  77.9590180  56.9026350
 100.7581770  83.6462320  58.2695040 100.2963300  82.8749560  58.5982210
 101.5707320  83.6728390  58.7747490  96.9845080  85.9320330  57.8899030
  96.3656520  86.3877830  57.3193470  97.8396860  86.0871790  57.4888730
  97.2088500  74.7229700  59.7235000  97.5853320  73.8501580  59.6108670
  97.1108010  75.0588400  58.8325440  91.4637340  70.7040260  63.7841040
  91.4655780  71.2212650  62.9786940  90.6341650  70.2270440  63.7610970
  97.8508430  80.8159570  55.2830940  97.2325700  81.2809020  54.7193660
  98.3631680  81.5087050  55.7000450 102.8436880  83.7755650  61.6918360
 102.1600400  84.4454760  61.6835030 103.3831170  83.9736300  60.9263220
  94.8280560  69.9032490  58.1156080  95.1355540  69.3479380  57.3991580
  93.8981260  70.0376950  57.9329070 100.3795620  85.6199780  60.4063540
 100.3922780  85.2162070  59.5385800  99.8270840  86.3947070  60.3024970
  99.7781060  80.5229620  61.7346150 100.1949850  80.3089730  60.8999610
 100.5020880  80.7802410  62.3054770 103.7243160  78.9216840  61.8262390
 102.8961790  78.9909930  61.3512520 104.3193640  79.5071150  61.3578220
 101.3785270  85.7545490  63.4598240 100.9015830  86.5617680  63.2670850
 100.6947060  85.1023820  63.6124450  97.5318690  83.7084500  56.3305440
  97.9714600  84.4508830  55.9160830  97.4705580  83.9511070  57.2544400
 104.9584480  85.5157430  68.5289630 105.4344200  85.9940320  69.2078710
 105.5791640  85.4474920  67.8035130 104.3617730  82.7070280  65.6889640
 104.4880790  82.4682160  64.7706820 104.4039110  81.8754820  66.1611720
  92.6777250  86.4752150  55.4640070  92.5019730  85.5587690  55.2507870
  91.8232990  86.8339440  55.7037870  99.4664930  85.8303890  56.3214940
  99.9221880  85.0493270  56.6353560  99.8057450  86.5410710  56.8656120
  96.2756060  73.5994630  64.1201570  95.8135430  73.8077650  64.9321510
  95.8734170  72.7853980  63.8172240  98.3710280  76.3205330  67.3497020
  98.6963690  75.4869080  67.0099250  99.1590610  76.8433850  67.4975350
  95.1045070  70.3536810  53.3972080  94.4799250  70.3496680  54.1225390
  95.0175190  69.4867770  53.0008050  94.0262150  71.2773440  60.3755850
  94.3234480  72.1836270  60.2947870  94.5747710  70.7892220  59.7615420
  97.6163100  74.4986590  56.8741430  98.0092670  74.8158790  56.0610120
  97.9779950  73.6198470  56.9885950  95.9255270  73.2493900  68.1338290
  95.2353590  73.0566100  68.7684380  96.6687570  73.5328540  68.6662590
  98.2018240  77.0892340  60.9692210  97.4699360  77.5979150  61.3182310
  97.8042580  76.2722320  60.6680990  94.7015780  74.7658620  52.3651460
  94.8228600  74.7245100  53.3137280  94.3164290  75.6282770  52.2098190
  98.6644150  72.5426020  60.3815150  98.6816890  72.9934670  61.2257000
  98.4159730  71.6431660  60.5948590 102.0172740  80.0683310  59.8287560
 102.7371860  80.5638600  59.4383670 101.8154560  79.3901200  59.1841430
 102.4645340  77.1452760  51.7358970 102.3809060  77.5766980  50.8855410
 103.1839530  77.6051110  52.1685790 103.5419480  79.6020280  64.8128940
 102.8167670  80.1949060  64.6158330 104.0694940  79.5943820  64.0142310
  99.0719070  81.3280450  58.3112790  99.4242890  80.7308580  57.6514160
  98.1881400  81.0024680  58.4821040  95.1582350  82.0878140  55.7183200
  95.8453480  82.6347350  56.0990790  94.3714770  82.6318870  55.7532810
  94.4609560  79.0924170  55.3308560  94.9172340  79.9029420  55.5568750
  94.1097770  78.7747310  56.1627050  98.0374250  82.6062860  61.2778310
  98.6796480  81.9056020  61.3910480  98.5623600  83.3861300  61.0975200
  99.8111870  83.4057760  64.4814370 100.1468110  83.9924450  65.1592290
  98.8912210  83.2750470  64.7112160  87.6646000  86.9178340  51.7761910
  88.0243640  87.5167680  51.1219180  87.5238340  87.4638230  52.5496940
  93.6814620  84.3009540  52.5935580  93.6724720  85.0339230  51.9780090
  92.7612980  84.0541120  52.6862540  96.6674220  84.3637780  51.2560770
  96.7686200  84.1601770  50.3262750  95.7675960  84.1096060  51.4608550
  94.1900110  74.9218140  55.2384670  93.4816260  75.3904480  55.6798280
  94.4744590  74.2640150  55.8729860  98.2215540  71.6468800  56.6780460
  98.0983320  71.6654930  55.7289970  99.1700100  71.6947740  56.7978860
 101.3144910  77.8015980  57.5266950 100.3735050  77.8166210  57.7014640
 101.6288980  77.0151940  57.9727250 103.3170490  84.9724830  59.2021210
 103.4417910  85.7956000  59.6745020 104.1836050  84.7615560  58.8545360
  90.7888020  87.0656040  58.8738340  91.5250500  86.5171500  59.1446910
  91.1728940  87.9312050  58.7344330  93.8990330  86.2386350  50.6963910
  94.6918940  86.5275180  50.2445700  93.3794680  85.8078520  50.0176390
  98.6310930  82.3581980  68.0099330  98.0249090  82.3813580  67.2695080
  98.3265040  81.6265020  68.5466580 100.0611300  86.0862270  66.6208740
 101.0133050  86.0020290  66.5708980  99.9139520  86.7503980  67.2942530
 101.7105400  81.8751890  67.0970510 102.4514870  82.2127650  66.5937970
 100.9478080  82.0443950  66.5440280 100.3851060  79.9266720  65.6325720
 100.7992080  80.0811800  66.4816140  99.4502060  80.0521940  65.7951500
 100.8573230  77.2662880  67.6364870 101.4394000  76.5115200  67.5485350
 101.0335000  77.7970320  66.8596350  94.7406740  70.9832870  62.9809210
  94.2924040  71.0057130  62.1354760  94.1071940  70.5851890  63.5779510
  97.4830190  77.6103380  64.9859490  97.6026400  77.0144520  65.7254330
  98.3424190  77.6473070  64.5660790  99.8218090  78.1640570  63.5622000
  99.2953310  78.6883190  62.9587140 100.1649430  78.7967960  64.1931730
  92.2204480  75.5533940  50.0071710  92.0193540  74.6901300  50.3685050
  92.0496530  75.4667300  49.0693310  94.2498960  74.1524730  66.2435310
  94.8398650  73.8440580  66.9313130  93.4319200  73.6804480  66.3995210
  96.4021250  86.5849930  52.5992390  97.2972040  86.9234900  52.6211150
  96.4338880  85.8629340  51.9716670  90.0417410  81.9576980  50.8279390
  90.4792280  82.5006650  51.4836970  90.5265140  81.1323930  50.8375730
 103.3815600  85.1153600  65.3058590 102.7817590  85.1746160  64.5622510
 103.5109500  84.1758580  65.4355440 105.0833480  80.4569000  57.9904430
 105.4542310  79.6736320  57.5840400 105.7235410  81.1458100  57.8121730
 102.0667240  81.8405580  63.4034750 101.2527080  82.2702740  63.6660540
 102.4741440  82.4523990  62.7903800 104.1292680  79.8953270  50.3035020
 104.4041520  80.8032150  50.1754240 103.9403420  79.8315800  51.2397010
 104.0258020  77.8322260  55.2964450 103.6501620  77.0650190  54.8645740
 103.2961140  78.2144960  55.7839380 102.5661830  69.8908180  63.5284780
 103.2034050  70.5042320  63.8943970 102.7136720  69.9268840  62.5834010
 102.1243290  86.5924180  56.9303020 102.7202360  86.2708750  56.2537440
 102.3821440  86.1196000  57.7216290  98.5740870  70.7004430  66.0752170
  99.1881280  71.0183720  65.4133250  99.1190430  70.2153020  66.6948030
 104.9916050  86.5996060  63.4814010 104.4974330  86.9964930  62.7641140
 104.3829340  85.9745270  63.8751290  99.3148910  69.2636570  62.4021460
  98.4408750  69.5971680  62.1994390  99.2059660  68.7909750  63.2273330
 102.6755500  87.2419480  60.7600750 102.2158470  87.9935290  60.3858770
 102.0467960  86.5225950  60.7015550  97.0623730  70.1806410  61.3414370
  96.2795520  70.6551910  61.6211130  96.7686660  69.2761240  61.2327550
  94.9477950  72.5993160  56.8530400  94.1352460  72.2250050  56.5126280
  95.4519590  71.8438240  57.1551590  99.4502930  69.2635610  58.0913470
 100.0532300  69.8355820  58.5661990  98.7095920  69.8275050  57.8687370
  91.9891790  87.2952720  52.6795620  92.7210610  87.0112000  52.1319510
  92.2485460  87.0566000  53.5695000  91.1506580  83.4117450  52.6841950
  90.5215460  83.8802550  53.2327780  91.2654410  82.5666670  53.1188140
  99.6998150  69.4430640  68.4708410  99.5863600  69.7625250  69.3659930
 100.5167890  69.8443150  68.1745690  90.7540170  79.5521940  41.5928180
  89.9225050  79.2970650  41.9924690  91.3621150  79.6232710  42.3286100
  90.7341430  83.5862030  41.7886200  91.0369470  82.6959770  41.6096420
  91.4785020  84.1432250  41.5608450  87.1265130  77.1129480  41.2610270
  87.6981240  76.3451680  41.2613910  87.1266670  77.4118240  40.3516880
  96.9845080  85.9320330  39.1155540  96.3656520  86.3877830  38.5449980
  97.8396860  86.0871790  38.7145240  96.1783330  81.9159320  40.7222580
  96.1091610  80.9749260  40.5611710  96.9403190  82.0060730  41.2945150
  88.3690000  72.5213840  43.0479200  88.1892840  71.6239590  43.3281960
  87.9670080  73.0685710  43.7226150  88.9876670  75.0174340  41.6561540
  89.6686780  75.2812710  42.2748940  88.6724720  74.1775210  41.9899550
  92.7140190  80.3435440  43.1871050  92.3809570  80.9704360  43.8292120
  92.8906870  80.8697320  42.4072720  91.1452670  72.4150220  43.0168000
  91.4869480  73.2592270  42.7221870  90.2068480  72.5633960  43.1333340
  91.9259290  82.3116240  45.0020230  92.5433290  82.9867320  44.7204680
  91.0652410  82.7204220  44.9107730  87.2191630  81.5016100  33.8827080
  86.8419610  81.9903200  33.1511980  87.4764700  82.1741380  34.5133610
 101.6741040  82.3416000  36.7210220 101.5637370  81.3990330  36.8459640
 101.6709290  82.7031640  37.6072980  99.7781060  80.5229620  42.9602660
 100.1949850  80.3089730  42.1256120 100.5020880  80.7802410  43.5311280
  97.2030400  74.2398320  33.0739870  96.2634070  74.4012280  33.1592330
  97.5213660  74.9584000  32.5275860 100.6885170  75.7086160  43.9973770
 100.2756350  76.5339870  44.2513760  99.9561120  75.1231200  43.8050130
  93.2899660  82.1813620  41.0231650  92.9927950  81.5759090  40.3439430
  94.2399480  82.2190930  40.9121010  91.5346580  75.2689270  42.6391480
  92.0861170  75.3784610  41.8644730  92.0490090  75.6426870  43.3546710
  92.3818090  81.9195310  47.6739450  91.4846620  82.1435280  47.9212850
  92.4070960  82.0430250  46.7250850  91.2089310  78.7908630  46.2496820
  91.0697080  79.6631430  46.6184220  90.3270670  78.4481440  46.1044760
  97.5318690  83.7084500  37.5561950  97.9714600  84.4508830  37.1417340
  97.4705580  83.9511070  38.4800910  93.0069660  84.7330330  48.4581970
  92.9785090  85.1373280  47.5910400  92.8434630  83.8040690  48.2953570
 103.0040450  70.0231240  31.9021750 102.6913110  70.1158070  32.8020820
 103.7652920  70.6012270  31.8519180  87.1607960  80.5606180  42.1667730
  87.2388380  80.6954950  41.2223450  87.7749640  79.8522070  42.3595850
  88.4055590  82.2606370  38.5773910  87.9983670  82.4020960  37.7227510
  89.2968600  81.9766530  38.3745120 100.1988870  86.6953620  34.9124960
 100.0390010  86.4056560  35.8106790 100.0335580  85.9193750  34.3770190
  92.6777250  86.4752150  36.6896580  92.5019730  85.5587690  36.4764380
  91.8232990  86.8339440  36.9294380  99.9015000  84.2041180  33.4722960
  99.2080160  84.2018470  32.8125240 100.6437860  83.7800500  33.0417130
  87.2167480  81.6020350  44.7062190  87.3798520  81.1325710  43.8881560
  87.6819930  81.0943910  45.3711030  91.9886250  70.7326110  39.7422760
  91.5454400  71.5135650  39.4107280  92.5471240  71.0556000  40.4493700
  96.2756060  73.5994630  45.3458080  95.8135430  73.8077650  46.1578020
  95.8734170  72.7853980  45.0428750 101.2760570  74.8203580  46.4754740
 100.4254160  74.5209330  46.7963810 101.1162360  75.0645590  45.5638560
  99.0098230  75.8623050  36.0694660  98.4107120  76.5858850  35.8858280
  99.5577840  75.7999830  35.2871110  94.2199680  76.7545260  48.1364280
  94.1243280  75.8139990  47.9864680  95.0631660  76.9760330  47.7412350
  97.6163100  74.4986590  38.0997940  98.0092670  74.8158790  37.2866630
  97.9779950  73.6198470  38.2142460  95.9255270  73.2493900  49.3594800
  95.2353590  73.0566100  49.9940890  96.6687570  73.5328540  49.8919100
  98.2018240  77.0892340  42.1948720  97.4699360  77.5979150  42.5438820
  97.8042580  76.2722320  41.8937500  94.6395630  73.7646540  40.6001210
  94.6431690  73.3236490  39.7505750  95.5346750  74.0863870  40.7073030
  90.4898010  73.6473030  39.5595420  90.1498060  74.1248260  40.3162470
  89.7275330  73.1938150  39.1996520  94.7015780  74.7658620  33.5907970
  94.8228600  74.7245100  34.5393790  94.3164290  75.6282770  33.4354700
  88.7906460  80.9771780  46.8658000  88.4061250  80.3365450  47.4640960
  89.1018650  81.6807900  47.4352730  94.9403600  77.8248320  42.3466620
  95.3073730  77.3506890  43.0927960  94.7508660  78.6989890  42.6874960
  92.7302970  76.8656960  44.6650830  92.4260040  77.7448940  44.8901190
  93.6849430  76.9256750  44.7008270  97.3991540  80.1392370  46.9413070
  97.3328850  79.2188040  46.6870660  96.7696680  80.2367810  47.6557710
 100.1931070  75.8340920  33.4935620 101.0810690  76.1458150  33.3186960
 100.1636160  74.9613170  33.1016200  91.3022160  80.7398330  38.8996490
  91.8200830  79.9366590  38.8453380  90.8506180  80.6777470  39.7413320
  88.7866700  77.7059700  45.8122190  88.4281640  78.3713550  46.3995530
  88.4921260  76.8743250  46.1834810  91.9879820  78.1643940  48.6961740
  91.6879960  78.3101120  47.7989560  92.7591060  77.6049230  48.6035130
  99.0719070  81.3280450  39.5369300  99.4242890  80.7308580  38.8770670
  98.1881400  81.0024680  39.7077550  96.7642170  84.6030510  43.7857370
  97.4084390  84.8089890  44.4630790  97.1271610  83.8418910  43.3328220
  98.0374250  82.6062860  42.5034820  98.6796480  81.9056020  42.6166990
  98.5623600  83.3861300  42.3231710 101.8829970  82.8911480  32.2273960
 101.6567550  82.1741920  32.8198600 101.4926170  82.6423920  31.3895710
  87.6646000  86.9178340  33.0018420  88.0243640  87.5167680  32.3475690
  87.5238340  87.4638230  33.7753450  87.6487860  85.1833200  47.4760820
  87.7578980  84.2427940  47.3356210  86.9968420  85.4487950  46.8274550
  95.6400450  83.4549090  48.8758940  95.3197320  82.7358330  49.4204630
  94.9658810  84.1304160  48.9495000  98.8554050  73.6875250  44.2395740
  99.2234870  72.8670460  44.5675310  97.9952250  73.7477140  44.6551390
 102.2216080  72.6432190  35.0483300 101.5929240  72.7477860  34.3341530
 101.7268000  72.8628970  35.8377180  95.8156040  76.3414840  44.4633710
  96.3141290  76.8160660  45.1285560  95.9578990  75.4178360  44.6703740
  95.3092330  86.8824100  37.1764950  95.5633830  86.8445490  36.2544320
  94.3604810  86.7557430  37.1693200 103.0222900  72.5582800  45.3062100
 102.5196500  73.2988200  45.6455910 103.8379560  72.9466800  44.9898890
  90.7888020  87.0656040  40.0994850  91.5250500  86.5171500  40.3703420
  91.1728940  87.9312050  39.9600840  87.6733500  83.1329610  35.9736360
  86.7473280  83.3750750  35.9641770  88.1389930  83.9603870  35.8521110
  89.7946300  86.2502110  49.2880430  90.5959030  86.5714160  49.7015830
  89.2798120  85.8897690  50.0100340 102.9520500  85.4656480  33.3457160
 102.6662010  85.0521620  32.5311340 102.7540050  86.3944190  33.2257680
  94.5682050  80.1446560  47.7652000  93.8027720  80.7131560  47.6806670
  94.7498010  79.8522770  46.8720230 100.8573230  77.2662880  48.8621380
 101.4394000  76.5115200  48.7741860 101.0335000  77.7970320  48.0852860
  94.7406740  70.9832870  44.2065720  94.2924040  71.0057130  43.3611270
  94.1071940  70.5851890  44.8036020  95.1466290  79.8787200  44.8278160
  95.5654400  80.7219930  44.6554400  94.2274920  80.0159240  44.5984940
  97.4830190  77.6103380  46.2116000  97.6026400  77.0144520  46.9510840
  98.3424190  77.6473070  45.7917300  99.8218090  78.1640570  44.7878510
  99.2953310  78.6883190  44.1843650 100.1649430  78.7967960  45.4188240
  92.9973710  86.1840210  45.9435890  92.4594800  86.9086270  45.6244590
  93.2507670  85.7070550  45.1533230  94.2498960  74.1524730  47.4691820
  94.8398650  73.8440580  48.1569640  93.4319200  73.6804480  47.6251720
  99.0692390  73.7690540  47.7024840  98.3807910  73.1072080  47.6374830
  99.7898410  73.3228810  48.1473300  99.6992790  70.3642170  33.7615100
  99.9795080  69.5210070  34.1174520  98.9258520  70.5965280  34.2753850
  95.8535920  87.4191420  46.2022540  95.7794620  88.3226560  46.5094910
  94.9514760  87.1003320  46.1744610  94.2372210  71.5969180  32.2062300
  93.8894210  70.9193170  31.6264750  94.4384980  71.1358690  33.0205690
  87.2563210  84.7466010  39.5056160  87.5866220  83.8787070  39.2734800
  87.6854210  84.9524530  40.3361120  91.8525130  83.0775020  37.1658130
  91.5520670  82.9539990  38.0662040  91.7462620  82.2183610  36.7573860
  87.7453420  85.6136600  42.2437790  87.3084410  85.7937400  43.0761940
  88.3131100  86.3711220  42.1019510  87.5777850  78.1256830  38.6026670
  86.9226690  77.8568470  37.9586370  88.4155800  78.0161310  38.1528650
 100.5268290  72.9198120  32.8245160 100.9453170  72.7329100  31.9841820
 100.2204350  72.0677170  33.1348090  88.6153780  78.5109400  43.1430010
  88.9826820  78.4236800  44.0226030  88.0464600  77.7475950  43.0436870
 103.4157640  76.9793780  46.1560480 103.1843730  76.7506530  45.2558430
 103.6762190  77.8993330  46.1105370  88.1669780  75.4218490  47.0488430
  87.2725830  75.3885250  47.3882140  88.7067330  75.6205280  47.8139680
 103.4798700  76.1419620  43.3447750 102.5301410  76.1083160  43.4592740
 103.6611710  77.0519730  43.1097520  88.6709490  69.6966820  41.3971650
  89.3185680  69.1464200  40.9566810  89.0911330  69.9509970  42.2187460
 105.1086380  71.7821970  31.5364430 106.0335690  71.6503150  31.3282720
 105.0862170  71.8614790  32.4900880  88.4241490  69.8522490  44.1396970
  88.0756310  70.3086310  44.9055150  88.0929190  68.9579620  44.2219400
  90.0305860  83.0242090  48.3050160  89.9875490  82.6535000  49.1864620
  90.1616870  83.9619660  48.4451980  93.7311890  84.5801680  43.9059880
  93.4903250  84.8476240  43.0190400  94.6714530  84.7507410  43.9610740
  95.9366310  71.0434370  47.6616390  95.8755200  71.6356200  48.4111800
  96.8766690  70.9360330  47.5166650  98.5740870  70.7004430  47.3008680
  99.1881280  71.0183720  46.6389760  99.1190430  70.2153020  47.9204540
  89.8693890  85.9704340  45.4247940  89.2754210  85.8389040  46.1637980
  89.8617730  85.1342480  44.9590040  99.3148910  69.2636570  43.6277970
  98.4408750  69.5971680  43.4250900  99.2059660  68.7909750  44.4529840
 100.2220890  71.4707440  45.0119690  99.8934250  70.6559200  44.6321420
 101.1703190  71.4277250  44.8885380  89.5006120  83.3362720  44.3755980
  88.7740180  82.7168010  44.3081930  89.5615270  83.7303330  43.5054060
  93.1051220  85.5507720  41.1605390  93.6216240  84.9395080  40.6353650
  93.7548600  86.0536500  41.6516400  95.8446720  86.4416210  41.9874370
  96.1324530  86.1870510  41.1107380  96.3569940  85.8893570  42.5779940
  87.7836120  86.6537110  37.5852740  87.6158160  86.0207790  38.2834630
  86.9170630  86.8596510  37.2346930  88.4064140  70.4853890  35.0884600
  89.1643500  70.5982770  34.5148630  87.9441310  71.3223090  35.0428030
  89.3898820  85.3470340  35.0302880  88.8646440  85.7278370  34.3264840
  89.3143400  85.9721110  35.7512590  95.9119080  87.3632310  49.3542570
  96.8386390  87.1276580  49.3978530  95.8969510  88.1904310  48.8728600
  91.9891790  87.2952720  33.9052130  92.7210610  87.0112000  33.3576020
  92.2485460  87.0566000  34.7951510  98.6056300  77.4623110  20.0599660
  98.5250350  76.5477720  19.7891370  98.1920720  77.9590180  19.3539370
  90.7540170  79.5521940  22.8184690  89.9225050  79.2970650  23.2181200
  91.3621150  79.6232710  23.5542610 100.7581770  83.6462320  20.7208060
 100.2963300  82.8749560  21.0495230 101.5707320  83.6728390  21.2260510
  90.7341430  83.5862030  23.0142710  91.0369470  82.6959770  22.8352930
  91.4785020  84.1432250  22.7864960  89.1632120  74.5123830  16.6027080
  88.2748820  74.8539800  16.5006960  89.4473310  74.3124150  15.7107910
  87.1265130  77.1129480  22.4866780  87.6981240  76.3451680  22.4870420
  87.1266670  77.4118240  21.5773390  96.9845080  85.9320330  20.3412050
  96.3656520  86.3877830  19.7706490  97.8396860  86.0871790  19.9401750
  88.3690000  72.5213840  24.2735710  88.1892840  71.6239590  24.5538470
  87.9670080  73.0685710  24.9482660  97.2088500  74.7229700  22.1748020
  97.5853320  73.8501580  22.0621690  97.1108010  75.0588400  21.2838460
  91.3393510  73.0955330  17.6365460  91.4460260  73.9959060  17.9434220
  90.4285870  73.0473300  17.3460110  88.9876670  75.0174340  22.8818050
  89.6686780  75.2812710  23.5005450  88.6724720  74.1775210  23.2156060
  93.1801240  76.0641700  21.9690640  93.6879460  76.5622670  22.6095660
  93.7114480  75.2876900  21.7930000 105.2812170  74.2346890  25.6719990
 104.5764340  74.6228600  25.1535100 105.5470090  74.9297180  26.2740920
  91.4637340  70.7040260  26.2354060  91.4655780  71.2212650  25.4299960
  90.6341650  70.2270440  26.2123990  97.8508430  80.8159570  17.7343960
  97.2325700  81.2809020  17.1706680  98.3631680  81.5087050  18.1513470
  92.7140190  80.3435440  24.4127560  92.3809570  80.9704360  25.0548630
  92.8906870  80.8697320  23.6329230  91.1452670  72.4150220  24.2424510
  91.4869480  73.2592270  23.9478380  90.2068480  72.5633960  24.3589850
  87.2191630  81.5016100  15.1083590  86.8419610  81.9903200  14.3768490
  87.4764700  82.1741380  15.7390120 102.8436880  83.7755650  24.1431380
 102.1600400  84.4454760  24.1348050 103.3831170  83.9736300  23.3776240
 104.2961020  73.6035310  22.2713110 103.3485930  73.6374290  22.4028540
 104.6211010  74.4174260  22.6562470 101.6741040  82.3416000  17.9466730
 101.5637370  81.3990330  18.0716150 101.6709290  82.7031640  18.8329490
  97.2161320  77.9681320  17.3029220  96.2890600  77.9018700  17.5317690
  97.3686140  78.9061450  17.1884460  97.2030400  74.2398320  14.2996380
  96.2634070  74.4012280  14.3848840  97.5213660  74.9584000  13.7532370
 101.2458610  79.5301620  17.8064470 100.6271030  79.1921170  17.1590770
 101.2283060  78.8861380  18.5143660  92.8217960  78.4946060  20.0848950
  92.4174960  77.7823310  19.5894850  92.9081080  78.1499300  20.9736990
  91.5346580  75.2689270  23.8647990  92.0861170  75.3784610  23.0901240
  92.0490090  75.6426870  24.5803220  99.4223310  78.7688430  14.8137220
  99.8616590  77.9310860  14.6675040 100.1351730  79.4017830  14.9001360
  91.2089310  78.7908630  27.4753330  91.0697080  79.6631430  27.8440730
  90.3270670  78.4481440  27.3301270  97.5318690  83.7084500  18.7818460
  97.9714600  84.4508830  18.3673850  97.4705580  83.9511070  19.7057420
 103.0040450  70.0231240  13.1278260 102.6913110  70.1158070  14.0277330
 103.7652920  70.6012270  13.0775690  89.5222590  77.3891040  17.5855600
  89.4020190  78.1153130  16.9736870  89.2123480  76.6193950  17.1083510
 104.9584480  85.5157430  30.9802650 105.4344200  85.9940320  31.6591730
 105.5791640  85.4474920  30.2548150  87.1607960  80.5606180  23.3924240
  87.2388380  80.6954950  22.4479960  87.7749640  79.8522070  23.5852360
  88.4055590  82.2606370  19.8030420  87.9983670  82.4020960  18.9484020
  89.2968600  81.9766530  19.6001630 104.3617730  82.7070280  28.1402660
 104.4880790  82.4682160  27.2219840 104.4039110  81.8754820  28.6124740
 100.1988870  86.6953620  16.1381470 100.0390010  86.4056560  17.0363300
 100.0335580  85.9193750  15.6026700  92.6777250  86.4752150  17.9153090
  92.5019730  85.5587690  17.7020890  91.8232990  86.8339440  18.1550890
  99.9015000  84.2041180  14.6979470  99.2080160  84.2018470  14.0381750
 100.6437860  83.7800500  14.2673640  99.4664930  85.8303890  18.7727960
  99.9221880  85.0493270  19.0866580  99.8057450  86.5410710  19.3169140
 104.2141740  74.7602740  29.1052400 103.5986010  75.2682410  28.5767860
 103.8938160  73.8601070  29.0478340  87.2167480  81.6020350  25.9318700
  87.3798520  81.1325710  25.1138070  87.6819930  81.0943910  26.5967540
  91.9886250  70.7326110  20.9679270  91.5454400  71.5135650  20.6363790
  92.5471240  71.0556000  21.6750210  96.2756060  73.5994630  26.5714590
  95.8135430  73.8077650  27.3834530  95.8734170  72.7853980  26.2685260
  95.1045070  70.3536810  15.8485100  94.4799250  70.3496680  16.5738410
  95.0175190  69.4867770  15.4521070  91.7800470  75.8559680  18.6960520
  91.5541390  75.6396850  19.6007140  90.9993000  76.2888140  18.3506490
  99.0098230  75.8623050  17.2951170  98.4107120  76.5858850  17.1114790
  99.5577840  75.7999830  16.5127620  95.9255270  73.2493900  30.5851310
  95.2353590  73.0566100  31.2197400  96.6687570  73.5328540  31.1175610
  86.6527270  71.0887390  21.5484650  86.3640320  71.6590250  22.2609630
  87.3973030  70.6091840  21.9115880  86.8397500  75.0307510  12.7587370
  86.7572170  75.9738270  12.9002360  86.4880560  74.8882420  11.8799720
  94.6395630  73.7646540  21.8257720  94.6431690  73.3236490  20.9762260
  95.5346750  74.0863870  21.9329540  90.4898010  73.6473030  20.7851930
  90.1498060  74.1248260  21.5418980  89.7275330  73.1938150  20.4253030
  94.7015780  74.7658620  14.8164480  94.8228600  74.7245100  15.7650300
  94.3164290  75.6282770  14.6611210  98.6644150  72.5426020  22.8328170
  98.6816890  72.9934670  23.6770020  98.4159730  71.6431660  23.0461610
  93.7137280  77.0759760  14.2147780  93.1454180  76.6278010  13.5883690
  94.4226280  77.4352540  13.6812930 102.0914900  69.9558200  28.6714550
 102.4160670  69.2247860  29.1972530 102.1271410  69.6371840  27.7695540
  88.7906460  80.9771780  28.0914510  88.4061250  80.3365450  28.6897470
  89.1018650  81.6807900  28.6609240  87.8044090  72.5692010  19.7016600
  87.5191010  72.2047680  20.5395220  87.7422950  71.8372470  19.0879740
  92.7302970  76.8656960  25.8907340  92.4260040  77.7448940  26.1157700
  93.6849430  76.9256750  25.9264780  91.2584760  81.0717950  16.4874190
  90.4847020  80.5315570  16.3272910  91.9879390  80.5524560  16.1491950
 102.0172740  80.0683310  22.2800580 102.7371860  80.5638600  21.8896690
 101.8154560  79.3901200  21.6354450 100.1931070  75.8340920  14.7192130
 101.0810690  76.1458150  14.5443470 100.1636160  74.9613170  14.3272710
  91.3022160  80.7398330  20.1253000  91.8200830  79.9366590  20.0709890
  90.8506180  80.6777470  20.9669830  96.1891660  82.0064610  15.3980300
  96.5307360  82.7506840  14.9023620  95.3604370  82.3195730  15.7605130
  88.7866700  77.7059700  27.0378700  88.4281640  78.3713550  27.6252040
  88.4921260  76.8743250  27.4091320  91.9879820  78.1643940  29.9218250
  91.6879960  78.3101120  29.0246070  92.7591060  77.6049230  29.8291640
 102.4645340  77.1452760  14.1871990 102.3809060  77.5766980  13.3368430
 103.1839530  77.6051110  14.6198810 103.4932590  83.9995020  16.9154120
 102.8508750  83.3450640  17.1897840 103.1063250  84.4050110  16.1394790
  99.0719070  81.3280450  20.7625810  99.4242890  80.7308580  20.1027180
  98.1881400  81.0024680  20.9334060  95.1582350  82.0878140  18.1696220
  95.8453480  82.6347350  18.5503810  94.3714770  82.6318870  18.2045830
  87.2974750  77.7050960  13.6613300  88.1669600  77.9875760  13.9449220
  86.8065070  78.5186830  13.5462110  94.4609560  79.0924170  17.7821580
  94.9172340  79.9029420  18.0081770  94.1097770  78.7747310  18.6140070
  90.3621340  69.4361820  18.2544100  90.2335970  69.4279720  19.2029020
  89.5383360  69.7744910  17.9035110 101.8829970  82.8911480  13.4530470
 101.6567550  82.1741920  14.0455110 101.4926170  82.6423920  12.6152220
  87.6646000  86.9178340  14.2274930  88.0243640  87.5167680  13.5732200
  87.5238340  87.4638230  15.0009960 101.4646220  80.8083420  15.1144630
 101.1767920  81.2696110  15.9022510 102.2598390  80.3481190  15.3828850
  87.6487860  85.1833200  28.7017330  87.7578980  84.2427940  28.5612720
  86.9968420  85.4487950  28.0531060  93.6814620  84.3009540  15.0448600
  93.6724720  85.0339230  14.4293110  92.7612980  84.0541120  15.1375560
  89.2821260  79.5224430  15.7895360  88.6749210  80.2623330  15.7990660
  89.7570610  79.6123790  14.9633560  96.6674220  84.3637780  13.7073790
  96.7686200  84.1601770  12.7775770  95.7675960  84.1096060  13.9121570
  94.1900110  74.9218140  17.6897690  93.4816260  75.3904480  18.1311300
  94.4744590  74.2640150  18.3242880  95.3092330  86.8824100  18.4021460
  95.5633830  86.8445490  17.4800830  94.3604810  86.7557430  18.3949710
  92.3935130  73.2303220  15.0648400  93.2425660  73.6673370  14.9988590
  92.0266400  73.5423480  15.8920460 103.0222900  72.5582800  26.5318610
 102.5196500  73.2988200  26.8712420 103.8379560  72.9466800  26.2155400
 101.3144910  77.8015980  19.9779970 100.3735050  77.8166210  20.1527660
 101.6288980  77.0151940  20.4240270  91.2926550  79.4835580  13.5383930
  92.0589820  79.3716940  14.1009360  91.3701240  78.7873550  12.8860700
  89.9873310  76.9160650  14.2216820  90.0676900  75.9688160  14.3334220
  90.8793060  77.2467530  14.3277480 103.3170490  84.9724830  21.6534230
 103.4417910  85.7956000  22.1258040 104.1836050  84.7615560  21.3058380
  90.7888020  87.0656040  21.3251360  91.5250500  86.5171500  21.5959930
  91.1728940  87.9312050  21.1857350  87.6733500  83.1329610  17.1992870
  86.7473280  83.3750750  17.1898280  88.1389930  83.9603870  17.0777620
  93.8990330  86.2386350  13.1476930  94.6918940  86.5275180  12.6958720
  93.3794680  85.8078520  12.4689410 102.9520500  85.4656480  14.5713670
 102.6662010  85.0521620  13.7567850 102.7540050  86.3944190  14.4514190
  94.4167730  81.4589760  13.0119280  94.3118370  80.8442110  13.7380660
  94.2491950  80.9355650  12.2282290  97.6570460  80.5209790  13.6161270
  97.1080560  80.9679090  14.2604010  98.2789720  80.0159040  14.1398940
  93.3245580  79.4800710  15.5126570  93.7462000  79.3140580  16.3557960
  93.4496420  78.6700940  15.0181710  95.8373220  78.5038320  12.7603670
  96.3578880  77.7887340  12.3944820  96.4841620  79.1424190  13.0604180
  92.2204480  75.5533940  12.4584730  92.0193540  74.6901300  12.8198070
  92.0496530  75.4667300  11.5206330  94.2498960  74.1524730  28.6948330
  94.8398650  73.8440580  29.3826150  93.4319200  73.6804480  28.8508230
  99.0692390  73.7690540  28.9281350  98.3807910  73.1072080  28.8631340
  99.7898410  73.3228810  29.3729810  99.6992790  70.3642170  14.9871610
  99.9795080  69.5210070  15.3431030  98.9258520  70.5965280  15.5010360
  91.0187280  72.6534560  12.4462610  91.3213180  72.6601990  11.5381760
  91.7581870  72.3032420  12.9430270  94.2372210  71.5969180  13.4318810
  93.8894210  70.9193170  12.8521260  94.4384980  71.1358690  14.2462200
  96.4021250  86.5849930  15.0505410  97.2972040  86.9234900  15.0724170
  96.4338880  85.8629340  14.4229690  90.0417410  81.9576980  13.2792410
  90.4792280  82.5006650  13.9349990  90.5265140  81.1323930  13.2888750
  87.2563210  84.7466010  20.7312670  87.5866220  83.8787070  20.4991310
  87.6854210  84.9524530  21.5617630  91.8525130  83.0775020  18.3914640
  91.5520670  82.9539990  19.2918550  91.7462620  82.2183610  17.9830370
  87.7453420  85.6136600  23.4694300  87.3084410  85.7937400  24.3018450
  88.3131100  86.3711220  23.3276020 103.3815600  85.1153600  27.7571610
 102.7817590  85.1746160  27.0135530 103.5109500  84.1758580  27.8868460
 104.6217050  82.8571420  13.0941320 103.7910010  82.9248070  13.5648550
 104.7988880  83.7475540  12.7908180 104.0773510  79.6018900  15.5975520
 104.8392420  80.1715550  15.7035210 104.0927880  79.0346100  16.3683830
  87.5777850  78.1256830  19.8283180  86.9226690  77.8568470  19.1842880
  88.4155800  78.0161310  19.3785160 105.0833480  80.4569000  20.4417450
 105.4542310  79.6736320  20.0353420 105.7235410  81.1458100  20.2634750
 104.1292680  79.8953270  12.7548040 104.4041520  80.8032150  12.6267260
 103.9403420  79.8315800  13.6910030 100.5268290  72.9198120  14.0501670
 100.9453170  72.7329100  13.2098330 100.2204350  72.0677170  14.3604600
 104.0258020  77.8322260  17.7477470 103.6501620  77.0650190  17.3158760
 103.2961140  78.2144960  18.2352400  88.6153780  78.5109400  24.3686520
  88.9826820  78.4236800  25.2482540  88.0464600  77.7475950  24.2693380
 101.8545710  72.2050210  30.1596690 102.7315890  72.2133610  30.5430690
 101.8666550  71.4681050  29.5489040  86.7915930  75.3355760  15.7708510
  85.8880010  75.5985960  15.5960170  87.2756550  75.6066930  14.9908470
 103.3008980  76.0579750  21.0484710 103.8246460  75.5642400  20.4174880
 103.8868400  76.1930110  21.7932280  89.3343140  74.3921300  13.6802890
  90.0434840  73.9704520  13.1950170  88.6183080  74.4596530  13.0486240
  88.9817300  70.4460630  12.7205540  89.7045430  70.9869570  13.0386760
  89.2541820  70.1724050  11.8447080  88.6709490  69.6966820  22.6228160
  89.3185680  69.1464200  22.1823320  89.0911330  69.9509970  23.4443970
 102.5661830  69.8908180  25.9797800 103.2034050  70.5042320  26.3456990
 102.7136720  69.9268840  25.0347030 105.1086380  71.7821970  12.7620940
 106.0335690  71.6503150  12.5539230 105.0862170  71.8614790  13.7157390
 105.1824870  72.5532630  15.3877650 104.3876370  72.4877750  15.9170560
 105.3868150  73.4883270  15.3763000 102.1243290  86.5924180  19.3816040
 102.7202360  86.2708750  18.7050460 102.3821440  86.1196000  20.1729310
  95.9366310  71.0434370  28.8872900  95.8755200  71.6356200  29.6368310
  96.8766690  70.9360330  28.7423160  98.5740870  70.7004430  28.5265190
  99.1881280  71.0183720  27.8646270  99.1190430  70.2153020  29.1461050
 104.9916050  86.5996060  25.9327030 104.4974330  86.9964930  25.2154160
 104.3829340  85.9745270  26.3264310  99.3148910  69.2636570  24.8534480
  98.4408750  69.5971680  24.6507410  99.2059660  68.7909750  25.6786350
 100.2220890  71.4707440  26.2376200  99.8934250  70.6559200  25.8577930
 101.1703190  71.4277250  26.1141890 102.6755500  87.2419480  23.2113770
 102.2158470  87.9935290  22.8371790 102.0467960  86.5225950  23.1528570
  89.5006120  83.3362720  25.6012490  88.7740180  82.7168010  25.5338440
  89.5615270  83.7303330  24.7310570  87.7836120  86.6537110  18.8109250
  87.6158160  86.0207790  19.5091140  86.9170630  86.8596510  18.4603440
  88.4064140  70.4853890  16.3141110  89.1643500  70.5982770  15.7405140
  87.9441310  71.3223090  16.2684540  94.9477950  72.5993160  19.3043420
  94.1352460  72.2250050  18.9639300  95.4519590  71.8438240  19.6064610
 102.5937530  69.6657170  15.8166770 102.7888160  70.5640620  16.0834200
 101.8067400  69.4344250  16.3099720  89.3898820  85.3470340  16.2559390
  88.8646440  85.7278370  15.5521350  89.3143400  85.9721110  16.9769100
  90.7789290  71.0117940  14.8543080  91.3082050  70.2247740  14.7251030
  91.4117610  71.6909130  15.0878610  92.9727130  70.7493080  17.9088470
  92.3429870  70.0480390  18.0758600  92.4332270  71.5097210  17.6921630
 104.1464140  86.9057880  17.5773330 104.3216330  86.2195620  16.9334250
 103.4485710  87.4304930  17.1850000  93.0982690  70.0277060  30.3440960
  92.8166960  70.5310660  29.5801780  93.4802390  69.2298810  29.9783090
  91.9891790  87.2952720  15.1308640  92.7210610  87.0112000  14.5832530
  92.2485460  87.0566000  16.0208020  91.1506580  83.4117450  15.1354970
  90.5215460  83.8802550  15.6840800  91.2654410  82.5666670  15.5701160
  99.6998150  69.4430640  30.9221430  99.5863600  69.7625250  31.8172950
 100.5167890  69.8443150  30.6258710  96.7374340  79.2402130   3.1665440
  95.9616440  78.7602570   3.4564010  97.3887270  78.5607780   2.9921600
  90.7540170  79.5521940   4.0441200  89.9225050  79.2970650   4.4437710
  91.3621150  79.6232710   4.7799120 100.7581770  83.6462320   1.9464570
 100.2963300  82.8749560   2.2751740 101.5707320  83.6728390   2.4517020
  90.7341430  83.5862030   4.2399220  91.0369470  82.6959770   4.0609440
  91.4785020  84.1432250   4.0121470  87.1265130  77.1129480   3.7123290
  87.6981240  76.3451680   3.7126930  87.1266670  77.4118240   2.8029900
  96.1783330  81.9159320   3.1735600  96.1091610  80.9749260   3.0124730
  96.9403190  82.0060730   3.7458170  88.3690000  72.5213840   5.4992220
  88.1892840  71.6239590   5.7794980  87.9670080  73.0685710   6.1739170
  97.2088500  74.7229700   3.4004530  97.5853320  73.8501580   3.2878200
  97.1108010  75.0588400   2.5094970  88.9876670  75.0174340   4.1074560
  89.6686780  75.2812710   4.7261960  88.6724720  74.1775210   4.4412570
  93.1801240  76.0641700   3.1947150  93.6879460  76.5622670   3.8352170
  93.7114480  75.2876900   3.0186510 105.2812170  74.2346890   6.8976500
 104.5764340  74.6228600   6.3791610 105.5470090  74.9297180   7.4997430
  91.4637340  70.7040260   7.4610570  91.4655780  71.2212650   6.6556470
  90.6341650  70.2270440   7.4380500  92.7140190  80.3435440   5.6384070
  92.3809570  80.9704360   6.2805140  92.8906870  80.8697320   4.8585740
 101.2274100  74.1580520   3.1060410 100.5229670  74.4465410   3.6863520
 101.5886260  74.9680630   2.7459970  91.1452670  72.4150220   5.4681020
  91.4869480  73.2592270   5.1734890  90.2068480  72.5633960   5.5846360
  91.9259290  82.3116240   7.4533250  92.5433290  82.9867320   7.1717700
  91.0652410  82.7204220   7.3620750 102.8436880  83.7755650   5.3687890
 102.1600400  84.4454760   5.3604560 103.3831170  83.9736300   4.6032750
 104.2961020  73.6035310   3.4969620 103.3485930  73.6374290   3.6285050
 104.6211010  74.4174260   3.8818980 100.3795620  85.6199780   4.0833070
 100.3922780  85.2162070   3.2155330  99.8270840  86.3947070   3.9794500
  99.7781060  80.5229620   5.4115680 100.1949850  80.3089730   4.5769140
 100.5020880  80.7802410   5.9824300 103.7243160  78.9216840   5.5031920
 102.8961790  78.9909930   5.0282050 104.3193640  79.5071150   5.0347750
 100.6885170  75.7086160   6.4486790 100.2756350  76.5339870   6.7026780
  99.9561120  75.1231200   6.2563150  93.2899660  82.1813620   3.4744670
  92.9927950  81.5759090   2.7952450  94.2399480  82.2190930   3.3634030
  91.5346580  75.2689270   5.0904500  92.0861170  75.3784610   4.3157750
  92.0490090  75.6426870   5.8059730 101.3785270  85.7545490   7.1367770
 100.9015830  86.5617680   6.9440380 100.6947060  85.1023820   7.2893980
  92.3818090  81.9195310  10.1252470  91.4846620  82.1435280  10.3725870
  92.4070960  82.0430250   9.1763870  91.2089310  78.7908630   8.7009840
  91.0697080  79.6631430   9.0697240  90.3270670  78.4481440   8.5557780
  93.0069660  84.7330330  10.9094990  92.9785090  85.1373280  10.0423420
  92.8434630  83.8040690  10.7466590 104.9584480  85.5157430  12.2059160
 105.4344200  85.9940320  12.8848240 105.5791640  85.4474920  11.4804660
  87.1607960  80.5606180   4.6180750  87.2388380  80.6954950   3.6736470
  87.7749640  79.8522070   4.8108870 104.3617730  82.7070280   9.3659170
 104.4880790  82.4682160   8.4476350 104.4039110  81.8754820   9.8381250
  98.2234470  86.4098280   7.9353980  98.7379140  86.3206290   8.7376410
  97.3803550  86.7557980   8.2281890 104.2141740  74.7602740  10.3308910
 103.5986010  75.2682410   9.8024370 103.8938160  73.8601070  10.2734850
  87.2167480  81.6020350   7.1575210  87.3798520  81.1325710   6.3394580
  87.6819930  81.0943910   7.8224050  91.9886250  70.7326110   2.1935780
  91.5454400  71.5135650   1.8620300  92.5471240  71.0556000   2.9006720
  96.2756060  73.5994630   7.7971100  95.8135430  73.8077650   8.6091040
  95.8734170  72.7853980   7.4941770 101.2760570  74.8203580   8.9267760
 100.4254160  74.5209330   9.2476830 101.1162360  75.0645590   8.0151580
  98.3710280  76.3205330  11.0266550  98.6963690  75.4869080  10.6868780
  99.1590610  76.8433850  11.1744880  94.0262150  71.2773440   4.0525380
  94.3234480  72.1836270   3.9717400  94.5747710  70.7892220   3.4384950
  94.2199680  76.7545260  10.5877300  94.1243280  75.8139990  10.4377700
  95.0631660  76.9760330  10.1925370  89.3510220  73.1658930   8.7411080
  88.9573610  74.0134140   8.9483860  88.6628620  72.5285300   8.9319720
  95.9255270  73.2493900  11.8107820  95.2353590  73.0566100  12.4453910
  96.6687570  73.5328540  12.3432120  86.6527270  71.0887390   2.7741160
  86.3640320  71.6590250   3.4866140  87.3973030  70.6091840   3.1372390
  98.2018240  77.0892340   4.6461740  97.4699360  77.5979150   4.9951840
  97.8042580  76.2722320   4.3450520  94.6395630  73.7646540   3.0514230
  94.6431690  73.3236490   2.2018770  95.5346750  74.0863870   3.1586050
  90.4898010  73.6473030   2.0108440  90.1498060  74.1248260   2.7675490
  89.7275330  73.1938150   1.6509540  98.6644150  72.5426020   4.0584680
  98.6816890  72.9934670   4.9026530  98.4159730  71.6431660   4.2718120
 102.0914900  69.9558200   9.8971060 102.4160670  69.2247860  10.4229040
 102.1271410  69.6371840   8.9952050  88.7906460  80.9771780   9.3171020
  88.4061250  80.3365450   9.9153980  89.1018650  81.6807900   9.8865750
  94.9403600  77.8248320   4.7979640  95.3073730  77.3506890   5.5440980
  94.7508660  78.6989890   5.1387980  92.7302970  76.8656960   7.1163850
  92.4260040  77.7448940   7.3414210  93.6849430  76.9256750   7.1521290
 102.0172740  80.0683310   3.5057090 102.7371860  80.5638600   3.1153200
 101.8154560  79.3901200   2.8610960  97.3991540  80.1392370   9.3926090
  97.3328850  79.2188040   9.1383680  96.7696680  80.2367810  10.1070730
  88.7866700  77.7059700   8.2635210  88.4281640  78.3713550   8.8508550
  88.4921260  76.8743250   8.6347830  91.9879820  78.1643940  11.1474760
  91.6879960  78.3101120  10.2502580  92.7591060  77.6049230  11.0548150
  97.3308270  82.9612940   9.1429890  97.3452810  82.0293900   8.9248800
  96.6233370  83.0472700   9.7819660 103.5419480  79.6020280   8.4898470
 102.8167670  80.1949060   8.2927860 104.0694940  79.5943820   7.6911840
  96.7642170  84.6030510   6.2370390  97.4084390  84.8089890   6.9143810
  97.1271610  83.8418910   5.7841240  98.0374250  82.6062860   4.9547840
  98.6796480  81.9056020   5.0680010  98.5623600  83.3861300   4.7744730
  99.8111870  83.4057760   8.1583900 100.1468110  83.9924450   8.8361820
  98.8912210  83.2750470   8.3881690  87.3615270  71.1952940   8.9407310
  86.6473790  71.3949860   9.5459920  87.7810310  70.4192510   9.3122110
  87.6487860  85.1833200   9.9273840  87.7578980  84.2427940   9.7869230
  86.9968420  85.4487950   9.2787570  95.6400450  83.4549090  11.3271960
  95.3197320  82.7358330  11.8717650  94.9658810  84.1304160  11.4008020
  98.8554050  73.6875250   6.6908760  99.2234870  72.8670460   7.0188330
  97.9952250  73.7477140   7.1064410  95.8156040  76.3414840   6.9146730
  96.3141290  76.8160660   7.5798580  95.9578990  75.4178360   7.1216760
 103.0222900  72.5582800   7.7575120 102.5196500  73.2988200   8.0968930
 103.8379560  72.9466800   7.4411910 103.3170490  84.9724830   2.8790740
 103.4417910  85.7956000   3.3514550 104.1836050  84.7615560   2.5314890
  90.7888020  87.0656040   2.5507870  91.5250500  86.5171500   2.8216440
  91.1728940  87.9312050   2.4113860  89.7946300  86.2502110  11.7393450
  90.5959030  86.5714160  12.1528850  89.2798120  85.8897690  12.4613360
  98.6310930  82.3581980  11.6868860  98.0249090  82.3813580  10.9464610
  98.3265040  81.6265020  12.2236110 100.0611300  86.0862270  10.2978270
 101.0133050  86.0020290  10.2478510  99.9139520  86.7503980  10.9712060
  87.5144110  78.7375570  10.6829500  88.0183130  78.1582850  11.2545730
  86.7751530  79.0215800  11.2205870  94.5682050  80.1446560  10.2165020
  93.8027720  80.7131560  10.1319690  94.7498010  79.8522770   9.3233250
 101.7105400  81.8751890  10.7740040 102.4514870  82.2127650  10.2707500
 100.9478080  82.0443950  10.2209810  89.5467190  76.8805160  11.5779570
  89.5872530  76.5819030  12.4864800  90.4012690  77.2812770  11.4187090
  91.4873000  75.4597260   9.5454060  90.9569460  74.9688210   8.9177400
  92.1561070  75.8881460   9.0111990 100.3851060  79.9266720   9.3095250
 100.7992080  80.0811800  10.1585670  99.4502060  80.0521940   9.4721030
 100.8573230  77.2662880  11.3134400 101.4394000  76.5115200  11.2254880
 101.0335000  77.7970320  10.5365880  91.9745300  72.4259630   9.6251350
  91.8802170  71.8080380   8.9002220  91.3942690  73.1525920   9.3981260
  94.7406740  70.9832870   6.6578740  94.2924040  71.0057130   5.8124290
  94.1071940  70.5851890   7.2549040  95.1466290  79.8787200   7.2791180
  95.5654400  80.7219930   7.1067420  94.2274920  80.0159240   7.0497960
  97.4830190  77.6103380   8.6629020  97.6026400  77.0144520   9.4023860
  98.3424190  77.6473070   8.2430320  99.8218090  78.1640570   7.2391530
  99.2953310  78.6883190   6.6356670 100.1649430  78.7967960   7.8701260
  92.9973710  86.1840210   8.3948910  92.4594800  86.9086270   8.0757610
  93.2507670  85.7070550   7.6046250  94.2498960  74.1524730   9.9204840
  94.8398650  73.8440580  10.6082660  93.4319200  73.6804480  10.0764740
  99.0692390  73.7690540  10.1537860  98.3807910  73.1072080  10.0887850
  99.7898410  73.3228810  10.5986320  95.8535920  87.4191420   8.6535560
  95.7794620  88.3226560   8.9607930  94.9514760  87.1003320   8.6257630
  87.2563210  84.7466010   1.9569180  87.5866220  83.8787070   1.7247820
  87.6854210  84.9524530   2.7874140  87.7453420  85.6136600   4.6950810
  87.3084410  85.7937400   5.5274960  88.3131100  86.3711220   4.5532530
 103.3815600  85.1153600   8.9828120 102.7817590  85.1746160   8.2392040
 103.5109500  84.1758580   9.1124970 102.0667240  81.8405580   7.0804280
 101.2527080  82.2702740   7.3430070 102.4741440  82.4523990   6.4673330
  88.6153780  78.5109400   5.5943030  88.9826820  78.4236800   6.4739050
  88.0464600  77.7475950   5.4949890 103.4157640  76.9793780   8.6073500
 103.1843730  76.7506530   7.7071450 103.6762190  77.8993330   8.5618390
  88.1669780  75.4218490   9.5001450  87.2725830  75.3885250   9.8395160
  88.7067330  75.6205280  10.2652700 101.8545710  72.2050210  11.3853200
 102.7315890  72.2133610  11.7687200 101.8666550  71.4681050  10.7745550
 103.3008980  76.0579750   2.2741220 103.8246460  75.5642400   1.6431390
 103.8868400  76.1930110   3.0188790 103.4798700  76.1419620   5.7960770
 102.5301410  76.1083160   5.9105760 103.6611710  77.0519730   5.5610540
  88.6709490  69.6966820   3.8484670  89.3185680  69.1464200   3.4079830
  89.0911330  69.9509970   4.6700480 102.5661830  69.8908180   7.2054310
 103.2034050  70.5042320   7.5713500 102.7136720  69.9268840   6.2603540
  88.4241490  69.8522490   6.5909990  88.0756310  70.3086310   7.3568170
  88.0929190  68.9579620   6.6732420  90.0305860  83.0242090  10.7563180
  89.9875490  82.6535000  11.6377640  90.1616870  83.9619660  10.8965000
  93.7311890  84.5801680   6.3572900  93.4903250  84.8476240   5.4703420
  94.6714530  84.7507410   6.4123760  95.9366310  71.0434370  10.1129410
  95.8755200  71.6356200  10.8624820  96.8766690  70.9360330   9.9679670
  98.5740870  70.7004430   9.7521700  99.1881280  71.0183720   9.0902780
  99.1190430  70.2153020  10.3717560 104.9916050  86.5996060   7.1583540
 104.4974330  86.9964930   6.4410670 104.3829340  85.9745270   7.5520820
  89.0962130  69.3798690   9.8660760  89.6445120  69.1986740   9.1026870
  89.1617440  68.5892800  10.4017070  89.8693890  85.9704340   7.8760960
  89.2754210  85.8389040   8.6151000  89.8617730  85.1342480   7.4103060
  99.3148910  69.2636570   6.0790990  98.4408750  69.5971680   5.8763920
  99.2059660  68.7909750   6.9042860 100.2220890  71.4707440   7.4632710
  99.8934250  70.6559200   7.0834440 101.1703190  71.4277250   7.3398400
 102.6755500  87.2419480   4.4370280 102.2158470  87.9935290   4.0628300
 102.0467960  86.5225950   4.3785080  89.5006120  83.3362720   6.8269000
  88.7740180  82.7168010   6.7594950  89.5615270  83.7303330   5.9567080
  93.1051220  85.5507720   3.6118410  93.6216240  84.9395080   3.0866670
  93.7548600  86.0536500   4.1029420  95.8446720  86.4416210   4.4387390
  96.1324530  86.1870510   3.5620400  96.3569940  85.8893570   5.0292960
  97.0623730  70.1806410   5.0183900  96.2795520  70.6551910   5.2980660
  96.7686660  69.2761240   4.9097080 101.6144800  70.8829510   3.0632990
 102.0552890  70.8274610   2.2154590 101.3452390  71.7987520   3.1343170
  99.4502930  69.2635610   1.7683000 100.0532300  69.8355820   2.2431520
  98.7095920  69.8275050   1.5456900  95.9119080  87.3632310  11.8055590
  96.8386390  87.1276580  11.8491550  95.8969510  88.1904310  11.3241620
  93.0982690  70.0277060  11.5697470  92.8166960  70.5310660  10.8058290
  93.4802390  69.2298810  11.2039600  99.6998150  69.4430640  12.1477940
  99.5863600  69.7625250  13.0429460 100.5167890  69.8443150  11.8515220
 102.4796640  86.5902170  11.6296630 103.2721960  86.0951400  11.4222590
 102.7729790  87.2692310  12.2372240  98.6056300  58.6879620 151.4804090
  98.5250350  57.7734230 151.2095800  98.1920720  59.1846690 150.7743800
  96.7374340  60.4658640 153.3613360  95.9616440  59.9859080 153.6511930
  97.3887270  59.7864290 153.1869520 100.7581770  64.8718830 152.1412490
 100.2963300  64.1006070 152.4699660 101.5707320  64.8984900 152.6464940
  90.7341430  64.8118540 154.4347140  91.0369470  63.9216280 154.2557360
  91.4785020  65.3688760 154.2069390  89.1632120  55.7380340 148.0231510
  88.2748820  56.0796310 147.9211390  89.4473310  55.5380660 147.1312340
  87.1265130  58.3385990 153.9071210  87.6981240  57.5708190 153.9074850
  87.1266670  58.6374750 152.9977820  96.9845080  67.1576840 151.7616480
  96.3656520  67.6134340 151.1910920  97.8396860  67.3128300 151.3606180
  96.1783330  63.1415830 153.3683520  96.1091610  62.2005770 153.2072650
  96.9403190  63.2317240 153.9406090  97.2088500  55.9486210 153.5952450
  97.5853320  55.0758090 153.4826120  97.1108010  56.2844910 152.7042890
  91.3393510  54.3211840 149.0569890  91.4460260  55.2215570 149.3638650
  90.4285870  54.2729810 148.7664540 100.9912620  53.4436650 150.5280790
 101.8122240  52.9533220 150.5706270 101.0246700  54.0334310 151.2812630
  93.1801240  57.2898210 153.3895070  93.6879460  57.7879180 154.0300090
  93.7114480  56.5133410 153.2134430  97.8508430  62.0416080 149.1548390
  97.2325700  62.5065530 148.5911110  98.3631680  62.7343560 149.5717900
 101.2274100  55.3837030 153.3008330 100.5229670  55.6721920 153.8811440
 101.5886260  56.1937140 152.9407890  87.2191630  62.7272610 146.5288020
  86.8419610  63.2159710 145.7972920  87.4764700  63.3997890 147.1594550
 104.2961020  54.8291820 153.6917540 103.3485930  54.8630800 153.8232970
 104.6211010  55.6430770 154.0766900  94.8280560  51.1289000 151.9873530
  95.1355540  50.5735890 151.2709030  93.8981260  51.2633460 151.8046520
 100.3795620  66.8456290 154.2780990 100.3922780  66.4418580 153.4103250
  99.8270840  67.6203580 154.1742420 101.6741040  63.5672510 149.3671160
 101.5637370  62.6246840 149.4920580 101.6709290  63.9288150 150.2533920
  97.2161320  59.1937830 148.7233650  96.2890600  59.1275210 148.9522120
  97.3686140  60.1317960 148.6088890  97.2030400  55.4654830 145.7200810
  96.2634070  55.6268790 145.8053270  97.5213660  56.1840510 145.1736800
 101.2458610  60.7558130 149.2268900 100.6271030  60.4177680 148.5795200
 101.2283060  60.1117890 149.9348090  92.8217960  59.7202570 151.5053380
  92.4174960  59.0079820 151.0099280  92.9081080  59.3755810 152.3941420
  93.2899660  63.4070130 153.6692590  92.9927950  62.8015600 152.9900370
  94.2399480  63.4447440 153.5581950  99.4223310  59.9944940 146.2341650
  99.8616590  59.1567370 146.0879470 100.1351730  60.6274340 146.3205790
  97.5318690  64.9341010 150.2022890  97.9714600  65.6765340 149.7878280
  97.4705580  65.1767580 151.1261850 103.0040450  51.2487750 144.5482690
 102.6913110  51.3414580 145.4481760 103.7652920  51.8268780 144.4980120
  89.5222590  58.6147550 149.0060030  89.4020190  59.3409640 148.3941300
  89.2123480  57.8450460 148.5287940  88.4055590  63.4862880 151.2234850
  87.9983670  63.6277470 150.3688450  89.2968600  63.2023040 151.0206060
 100.1988870  67.9210130 147.5585900 100.0390010  67.6313070 148.4567730
 100.0335580  67.1450260 147.0231130  92.6777250  67.7008660 149.3357520
  92.5019730  66.7844200 149.1225320  91.8232990  68.0595950 149.5755320
  99.9015000  65.4297690 146.1183900  99.2080160  65.4274980 145.4586180
 100.6437860  65.0057010 145.6878070  99.4664930  67.0560400 150.1932390
  99.9221880  66.2749780 150.5071010  99.8057450  67.7667220 150.7373570
  91.9886250  51.9582620 152.3883700  91.5454400  52.7392160 152.0568220
  92.5471240  52.2812510 153.0954640  95.1045070  51.5793320 147.2689530
  94.4799250  51.5753190 147.9942840  95.0175190  50.7124280 146.8725500
  94.0262150  52.5029950 154.2473300  94.3234480  53.4092780 154.1665320
  94.5747710  52.0148730 153.6332870  91.7800470  57.0816190 150.1164950
  91.5541390  56.8653360 151.0211570  90.9993000  57.5144650 149.7710920
  99.0098230  57.0879560 148.7155600  98.4107120  57.8115360 148.5319220
  99.5577840  57.0256340 147.9332050  97.6163100  55.7243100 150.7458880
  98.0092670  56.0415300 149.9327570  97.9779950  54.8454980 150.8603400
  86.6527270  52.3143900 152.9689080  86.3640320  52.8846760 153.6814060
  87.3973030  51.8348350 153.3320310  86.8397500  56.2564020 144.1791800
  86.7572170  57.1994780 144.3206790  86.4880560  56.1138930 143.3004150
  94.6395630  54.9903050 153.2462150  94.6431690  54.5493000 152.3966690
  95.5346750  55.3120380 153.3533970  90.4898010  54.8729540 152.2056360
  90.1498060  55.3504770 152.9623410  89.7275330  54.4194660 151.8457460
  94.7015780  55.9915130 146.2368910  94.8228600  55.9501610 147.1854730
  94.3164290  56.8539280 146.0815640  93.7137280  58.3016270 145.6352210
  93.1454180  57.8534520 145.0088120  94.4226280  58.6609050 145.1017360
  87.8044090  53.7948520 151.1221030  87.5191010  53.4304190 151.9599650
  87.7422950  53.0628980 150.5084170  91.2584760  62.2974460 147.9078620
  90.4847020  61.7572080 147.7477340  91.9879390  61.7781070 147.5696380
 102.0172740  61.2939820 153.7005010 102.7371860  61.7895110 153.3101120
 101.8154560  60.6157710 153.0558880  97.4782680  52.6877780 147.8434400
  96.6647290  52.1890950 147.7679710  97.2844630  53.5276030 147.4270750
 100.1931070  57.0597430 146.1396560 101.0810690  57.3714660 145.9647900
 100.1636160  56.1869680 145.7477140  91.3022160  61.9654840 151.5457430
  91.8200830  61.1623100 151.4914320  90.8506180  61.9033980 152.3874260
  96.1891660  63.2321120 146.8184730  96.5307360  63.9763350 146.3228050
  95.3604370  63.5452240 147.1809560 102.4645340  58.3709270 145.6076420
 102.3809060  58.8023490 144.7572860 103.1839530  58.8307620 146.0403240
 103.4932590  65.2251530 148.3358550 102.8508750  64.5707150 148.6102270
 103.1063250  65.6306620 147.5599220  99.0719070  62.5536960 152.1830240
  99.4242890  61.9565090 151.5231610  98.1881400  62.2281190 152.3538490
  95.1582350  63.3134650 149.5900650  95.8453480  63.8603860 149.9708240
  94.3714770  63.8575380 149.6250260  87.2974750  58.9307470 145.0817730
  88.1669600  59.2132270 145.3653650  86.8065070  59.7443340 144.9666540
  94.4609560  60.3180680 149.2026010  94.9172340  61.1285930 149.4286200
  94.1097770  60.0003820 150.0344500  90.3621340  50.6618330 149.6748530
  90.2335970  50.6536230 150.6233450  89.5383360  51.0001420 149.3239540
 101.8829970  64.1167990 144.8734900 101.6567550  63.3998430 145.4659540
 101.4926170  63.8680430 144.0356650  87.6646000  68.1434850 145.6479360
  88.0243640  68.7424190 144.9936630  87.5238340  68.6894740 146.4214390
 101.4646220  62.0339930 146.5349060 101.1767920  62.4952620 147.3226940
 102.2598390  61.5737700 146.8033280  93.6814620  65.5266050 146.4653030
  93.6724720  66.2595740 145.8497540  92.7612980  65.2797630 146.5579990
  89.2821260  60.7480940 147.2099790  88.6749210  61.4879840 147.2195090
  89.7570610  60.8380300 146.3837990 102.2216080  53.8688700 147.6944240
 101.5929240  53.9734370 146.9802470 101.7268000  54.0885480 148.4838120
  96.6674220  65.5894290 145.1278220  96.7686200  65.3858280 144.1980200
  95.7675960  65.3352570 145.3326000  94.1900110  56.1474650 149.1102120
  93.4816260  56.6160990 149.5515730  94.4744590  55.4896660 149.7447310
  98.2215540  52.8725310 150.5497910  98.0983320  52.8911440 149.6007420
  99.1700100  52.9204250 150.6696310  95.3092330  68.1080610 149.8225890
  95.5633830  68.0702000 148.9005260  94.3604810  67.9813940 149.8154140
  92.3935130  54.4559730 146.4852830  93.2425660  54.8929880 146.4193020
  92.0266400  54.7679990 147.3124890 101.3144910  59.0272490 151.3984400
 100.3735050  59.0422720 151.5732090 101.6288980  58.2408450 151.8444700
  91.2926550  60.7092090 144.9588360  92.0589820  60.5973450 145.5213790
  91.3701240  60.0130060 144.3065130  89.9873310  58.1417160 145.6421250
  90.0676900  57.1944670 145.7538650  90.8793060  58.4724040 145.7481910
 103.3170490  66.1981340 153.0738660 103.4417910  67.0212510 153.5462470
 104.1836050  65.9872070 152.7262810  90.7888020  68.2912550 152.7455790
  91.5250500  67.7428010 153.0164360  91.1728940  69.1568560 152.6061780
  87.6733500  64.3586120 148.6197300  86.7473280  64.6007260 148.6102710
  88.1389930  65.1860380 148.4982050  93.8990330  67.4642860 144.5681360
  94.6918940  67.7531690 144.1163150  93.3794680  67.0335030 143.8893840
 102.9520500  66.6912990 145.9918100 102.6662010  66.2778130 145.1772280
 102.7540050  67.6200700 145.8718620  94.4167730  62.6846270 144.4323710
  94.3118370  62.0698620 145.1585090  94.2491950  62.1612160 143.6486720
  97.6570460  61.7466300 145.0365700  97.1080560  62.1935600 145.6808440
  98.2789720  61.2415550 145.5603370  93.3245580  60.7057220 146.9331000
  93.7462000  60.5397090 147.7762390  93.4496420  59.8957450 146.4386140
  95.8373220  59.7294830 144.1808100  96.3578880  59.0143850 143.8149250
  96.4841620  60.3680700 144.4808610  92.2204480  56.7790450 143.8789160
  92.0193540  55.9157810 144.2402500  92.0496530  56.6923810 142.9410760
  99.6992790  51.5898680 146.4076040  99.9795080  50.7466580 146.7635460
  98.9258520  51.8221790 146.9214790  91.0187280  53.8791070 143.8667040
  91.3213180  53.8858500 142.9586190  91.7581870  53.5288930 144.3634700
  94.2372210  52.8225690 144.8523240  93.8894210  52.1449680 144.2725690
  94.4384980  52.3615200 145.6666630  96.4021250  67.8106440 146.4709840
  97.2972040  68.1491410 146.4928600  96.4338880  67.0885850 145.8434120
  90.0417410  63.1833490 144.6996840  90.4792280  63.7263160 145.3554420
  90.5265140  62.3580440 144.7093180  87.2563210  65.9722520 152.1517100
  87.5866220  65.1043580 151.9195740  87.6854210  66.1781040 152.9822060
  91.8525130  64.3031530 149.8119070  91.5520670  64.1796500 150.7122980
  91.7462620  63.4440120 149.4034800 104.6217050  64.0827930 144.5145750
 103.7910010  64.1504580 144.9852980 104.7988880  64.9732050 144.2112610
 104.0773510  60.8275410 147.0179950 104.8392420  61.3972060 147.1239640
 104.0927880  60.2602610 147.7888260  87.5777850  59.3513340 151.2487610
  86.9226690  59.0824980 150.6047310  88.4155800  59.2417820 150.7989590
 105.0833480  61.6825510 151.8621880 105.4542310  60.8992830 151.4557850
 105.7235410  62.3714610 151.6839180 104.1292680  61.1209780 144.1752470
 104.4041520  62.0288660 144.0471690 103.9403420  61.0572310 145.1114460
 100.5268290  54.1454630 145.4706100 100.9453170  53.9585610 144.6302760
 100.2204350  53.2933680 145.7809030 104.0258020  59.0578770 149.1681900
 103.6501620  58.2906700 148.7363190 103.2961140  59.4401470 149.6556830
  86.7915930  56.5612270 147.1912940  85.8880010  56.8242470 147.0164600
  87.2756550  56.8323440 146.4112900 103.3008980  57.2836260 152.4689140
 103.8246460  56.7898910 151.8379310 103.8868400  57.4186620 153.2136710
  89.3343140  55.6177810 145.1007320  90.0434840  55.1961030 144.6154600
  88.6183080  55.6853040 144.4690670  88.9817300  51.6717140 144.1409970
  89.7045430  52.2126080 144.4591190  89.2541820  51.3980560 143.2651510
 102.7908950  56.5409610 148.4081550 103.2868070  56.3080480 149.1930430
 102.5925020  55.7021450 147.9919190 104.2196110  55.1770560 150.9419230
 104.1095390  55.0226600 151.8801500 104.9803700  54.6491500 150.6994640
 105.1086380  53.0078480 144.1825370 106.0335690  52.8759660 143.9743660
 105.0862170  53.0871300 145.1361820 105.1824870  53.7789140 146.8082080
 104.3876370  53.7134260 147.3374990 105.3868150  54.7139780 146.7967430
 102.1243290  67.8180690 150.8020470 102.7202360  67.4965260 150.1254890
 102.3821440  67.3452510 151.5933740  93.1051220  66.7764230 153.8066330
  93.6216240  66.1651590 153.2814590  93.7548600  67.2793010 154.2977340
 101.6144800  52.1086020 153.2580910 102.0552890  52.0531120 152.4102510
 101.3452390  53.0244030 153.3291090 103.4783370  51.7401260 151.2689730
 103.4171770  50.7962480 151.1220750 104.2575400  51.8481350 151.8143190
  87.7836120  67.8793620 150.2313680  87.6158160  67.2464300 150.9295570
  86.9170630  68.0853020 149.8807870  88.4064140  51.7110400 147.7345540
  89.1643500  51.8239280 147.1609570  87.9441310  52.5479600 147.6888970
  94.9477950  53.8249670 150.7247850  94.1352460  53.4506560 150.3843730
  95.4519590  53.0694750 151.0269040  99.4502930  50.4892120 151.9630920
 100.0532300  51.0612330 152.4379440  98.7095920  51.0531560 151.7404820
 102.5937530  50.8913680 147.2371200 102.7888160  51.7897130 147.5038630
 101.8067400  50.6600760 147.7304150  89.3898820  66.5726850 147.6763820
  88.8646440  66.9534880 146.9725780  89.3143400  67.1977620 148.3973530
  90.7789290  52.2374450 146.2747510  91.3082050  51.4504250 146.1455460
  91.4117610  52.9165640 146.5083040  92.9727130  51.9749590 149.3292900
  92.3429870  51.2736900 149.4963030  92.4332270  52.7353720 149.1126060
 104.1464140  68.1314390 148.9977760 104.3216330  67.4452130 148.3538680
 103.4485710  68.6561440 148.6054430  91.9891790  68.5209230 146.5513070
  92.7210610  68.2368510 146.0036960  92.2485460  68.2822510 147.4412450
  91.1506580  64.6373960 146.5559400  90.5215460  65.1059060 147.1045230
  91.2654410  63.7923180 146.9905590  98.6056300  58.6879620 132.7060600
  98.5250350  57.7734230 132.4352310  98.1920720  59.1846690 132.0000310
  96.7374340  60.4658640 134.5869870  95.9616440  59.9859080 134.8768440
  97.3887270  59.7864290 134.4126030  90.7540170  60.7778450 135.4645630
  89.9225050  60.5227160 135.8642140  91.3621150  60.8489220 136.2003550
 100.7581770  64.8718830 133.3669000 100.2963300  64.1006070 133.6956170
 101.5707320  64.8984900 133.8721450  87.1265130  58.3385990 135.1327720
  87.6981240  57.5708190 135.1331360  87.1266670  58.6374750 134.2234330
  97.2088500  55.9486210 134.8208960  97.5853320  55.0758090 134.7082630
  97.1108010  56.2844910 133.9299400 100.9912620  53.4436650 131.7537300
 101.8122240  52.9533220 131.7962780 101.0246700  54.0334310 132.5069140
 105.2812170  55.4603400 138.3180930 104.5764340  55.8485110 137.7996040
 105.5470090  56.1553690 138.9201860 101.2274100  55.3837030 134.5264840
 100.5229670  55.6721920 135.1067950 101.5886260  56.1937140 134.1664400
  87.2191630  62.7272610 127.7544530  86.8419610  63.2159710 127.0229430
  87.4764700  63.3997890 128.3851060 102.8436880  65.0012160 136.7892320
 102.1600400  65.6711270 136.7808990 103.3831170  65.1992810 136.0237180
 104.2961020  54.8291820 134.9174050 103.3485930  54.8630800 135.0489480
 104.6211010  55.6430770 135.3023410 100.3795620  66.8456290 135.5037500
 100.3922780  66.4418580 134.6359760  99.8270840  67.6203580 135.3998930
 101.6741040  63.5672510 130.5927670 101.5637370  62.6246840 130.7177090
 101.6709290  63.9288150 131.4790430  99.7781060  61.7486130 136.8320110
 100.1949850  61.5346240 135.9973570 100.5020880  62.0058920 137.4028730
  97.2161320  59.1937830 129.9490160  96.2890600  59.1275210 130.1778630
  97.3686140  60.1317960 129.8345400 101.2458610  60.7558130 130.4525410
 100.6271030  60.4177680 129.8051710 101.2283060  60.1117890 131.1604600
 100.6885170  56.9342670 137.8691220 100.2756350  57.7596380 138.1231210
  99.9561120  56.3487710 137.6767580 101.3785270  66.9802000 138.5572200
 100.9015830  67.7874190 138.3644810 100.6947060  66.3280330 138.7098410
  99.4223310  59.9944940 127.4598160  99.8616590  59.1567370 127.3135980
 100.1351730  60.6274340 127.5462300  91.2089310  60.0165140 140.1214270
  91.0697080  60.8887940 140.4901670  90.3270670  59.6737950 139.9762210
  93.0069660  65.9586840 142.3299420  92.9785090  66.3629790 141.4627850
  92.8434630  65.0297200 142.1671020 103.0040450  51.2487750 125.7739200
 102.6913110  51.3414580 126.6738270 103.7652920  51.8268780 125.7236630
 104.9584480  66.7413940 143.6263590 105.4344200  67.2196830 144.3052670
 105.5791640  66.6731430 142.9009090  88.4055590  63.4862880 132.4491360
  87.9983670  63.6277470 131.5944960  89.2968600  63.2023040 132.2462570
 104.3617730  63.9326790 140.7863600 104.4880790  63.6938670 139.8680780
 104.4039110  63.1011330 141.2585680  98.2234470  67.6354790 139.3558410
  98.7379140  67.5462800 140.1580840  97.3803550  67.9814490 139.6486320
 100.1988870  67.9210130 128.7842410 100.0390010  67.6313070 129.6824240
 100.0335580  67.1450260 128.2487640  99.9015000  65.4297690 127.3440410
  99.2080160  65.4274980 126.6842690 100.6437860  65.0057010 126.9134580
  99.4664930  67.0560400 131.4188900  99.9221880  66.2749780 131.7327520
  99.8057450  67.7667220 131.9630080 104.2141740  55.9859250 141.7513340
 103.5986010  56.4938920 141.2228800 103.8938160  55.0857580 141.6939280
  91.9886250  51.9582620 133.6140210  91.5454400  52.7392160 133.2824730
  92.5471240  52.2812510 134.3211150  96.2756060  54.8251140 139.2175530
  95.8135430  55.0334160 140.0295470  95.8734170  54.0110490 138.9146200
 101.2760570  56.0460090 140.3472190 100.4254160  55.7465840 140.6681260
 101.1162360  56.2902100 139.4356010  98.3710280  57.5461840 142.4470980
  98.6963690  56.7125590 142.1073210  99.1590610  58.0690360 142.5949310
  95.1045070  51.5793320 128.4946040  94.4799250  51.5753190 129.2199350
  95.0175190  50.7124280 128.0982010  94.0262150  52.5029950 135.4729810
  94.3234480  53.4092780 135.3921830  94.5747710  52.0148730 134.8589380
  99.0098230  57.0879560 129.9412110  98.4107120  57.8115360 129.7575730
  99.5577840  57.0256340 129.1588560  94.2199680  57.9801770 142.0081730
  94.1243280  57.0396500 141.8582130  95.0631660  58.2016840 141.6129800
  97.6163100  55.7243100 131.9715390  98.0092670  56.0415300 131.1584080
  97.9779950  54.8454980 132.0859910  95.9255270  54.4750410 143.2312250
  95.2353590  54.2822610 143.8658340  96.6687570  54.7585050 143.7636550
  86.6527270  52.3143900 134.1945590  86.3640320  52.8846760 134.9070570
  87.3973030  51.8348350 134.5576820  98.2018240  58.3148850 136.0666170
  97.4699360  58.8235660 136.4156270  97.8042580  57.4978830 135.7654950
  94.6395630  54.9903050 134.4718660  94.6431690  54.5493000 133.6223200
  95.5346750  55.3120380 134.5790480  98.6644150  53.7682530 135.4789110
  98.6816890  54.2191180 136.3230960  98.4159730  52.8688170 135.6922550
 102.0914900  51.1814710 141.3175490 102.4160670  50.4504370 141.8433470
 102.1271410  50.8628350 140.4156480  88.7906460  62.2028290 140.7375450
  88.4061250  61.5621960 141.3358410  89.1018650  62.9064410 141.3070180
  94.9403600  59.0504830 136.2184070  95.3073730  58.5763400 136.9645410
  94.7508660  59.9246400 136.5592410  87.8044090  53.7948520 132.3477540
  87.5191010  53.4304190 133.1856160  87.7422950  53.0628980 131.7340680
  97.4782680  52.6877780 129.0690910  96.6647290  52.1890950 128.9936220
  97.2844630  53.5276030 128.6527260  97.3991540  61.3648880 140.8130520
  97.3328850  60.4444550 140.5588110  96.7696680  61.4624320 141.5275160
 100.1931070  57.0597430 127.3653070 101.0810690  57.3714660 127.1904410
 100.1636160  56.1869680 126.9733650  91.3022160  61.9654840 132.7713940
  91.8200830  61.1623100 132.7170830  90.8506180  61.9033980 133.6130770
  91.9879820  59.3900450 142.5679190  91.6879960  59.5357630 141.6707010
  92.7591060  58.8305740 142.4752580  97.3308270  64.1869450 140.5634320
  97.3452810  63.2550410 140.3453230  96.6233370  64.2729210 141.2024090
 102.4645340  58.3709270 126.8332930 102.3809060  58.8023490 125.9829370
 103.1839530  58.8307620 127.2659750 103.5419480  60.8276790 139.9102900
 102.8167670  61.4205570 139.7132290 104.0694940  60.8200330 139.1116270
  99.0719070  62.5536960 133.4086750  99.4242890  61.9565090 132.7488120
  98.1881400  62.2281190 133.5795000  96.7642170  65.8287020 137.6574820
  97.4084390  66.0346400 138.3348240  97.1271610  65.0675420 137.2045670
  90.3621340  50.6618330 130.9005040  90.2335970  50.6536230 131.8489960
  89.5383360  51.0001420 130.5496050  98.0374250  63.8319370 136.3752270
  98.6796480  63.1312530 136.4884440  98.5623600  64.6117810 136.1949160
 101.8829970  64.1167990 126.0991410 101.6567550  63.3998430 126.6916050
 101.4926170  63.8680430 125.2613160  99.8111870  64.6314270 139.5788330
 100.1468110  65.2180960 140.2566250  98.8912210  64.5006980 139.8086120
  87.6646000  68.1434850 126.8735870  88.0243640  68.7424190 126.2193140
  87.5238340  68.6894740 127.6470900  87.6487860  66.4089710 141.3478270
  87.7578980  65.4684450 141.2073660  86.9968420  66.6744460 140.6992000
  95.6400450  64.6805600 142.7476390  95.3197320  63.9614840 143.2922080
  94.9658810  65.3560670 142.8212450  98.8554050  54.9131760 138.1113190
  99.2234870  54.0926970 138.4392760  97.9952250  54.9733650 138.5268840
 102.2216080  53.8688700 128.9200750 101.5929240  53.9734370 128.2058980
 101.7268000  54.0885480 129.7094630  96.6674220  65.5894290 126.3534730
  96.7686200  65.3858280 125.4236710  95.7675960  65.3352570 126.5582510
  95.8156040  57.5671350 138.3351160  96.3141290  58.0417170 139.0003010
  95.9578990  56.6434870 138.5421190  98.2215540  52.8725310 131.7754420
  98.0983320  52.8911440 130.8263930  99.1700100  52.9204250 131.8952820
 103.0222900  53.7839310 139.1779550 102.5196500  54.5244710 139.5173360
 103.8379560  54.1723310 138.8616340 101.3144910  59.0272490 132.6240910
 100.3735050  59.0422720 132.7988600 101.6288980  58.2408450 133.0701210
 103.3170490  66.1981340 134.2995170 103.4417910  67.0212510 134.7718980
 104.1836050  65.9872070 133.9519320  90.7888020  68.2912550 133.9712300
  91.5250500  67.7428010 134.2420870  91.1728940  69.1568560 133.8318290
  87.6733500  64.3586120 129.8453810  86.7473280  64.6007260 129.8359220
  88.1389930  65.1860380 129.7238560  89.7946300  67.4758620 143.1597880
  90.5959030  67.7970670 143.5733280  89.2798120  67.1154200 143.8817790
  93.8990330  67.4642860 125.7937870  94.6918940  67.7531690 125.3419660
  93.3794680  67.0335030 125.1150350  98.6310930  63.5838490 143.1073290
  98.0249090  63.6070090 142.3669040  98.3265040  62.8521530 143.6440540
 100.0611300  67.3118780 141.7182700 101.0133050  67.2276800 141.6682940
  99.9139520  67.9760490 142.3916490 102.9520500  66.6912990 127.2174610
 102.6662010  66.2778130 126.4028790 102.7540050  67.6200700 127.0975130
  87.5144110  59.9632080 142.1033930  88.0183130  59.3839360 142.6750160
  86.7751530  60.2472310 142.6410300  94.5682050  61.3703070 141.6369450
  93.8027720  61.9388070 141.5524120  94.7498010  61.0779280 140.7437680
 101.7105400  63.1008400 142.1944470 102.4514870  63.4384160 141.6911930
 100.9478080  63.2700460 141.6414240  89.5467190  58.1061670 142.9984000
  89.5872530  57.8075540 143.9069230  90.4012690  58.5069280 142.8391520
 100.3851060  61.1523230 140.7299680 100.7992080  61.3068310 141.5790100
  99.4502060  61.2778450 140.8925460 100.8573230  58.4919390 142.7338830
 101.4394000  57.7371710 142.6459310 101.0335000  59.0226830 141.9570310
  94.7406740  52.2089380 138.0783170  94.2924040  52.2313640 137.2328720
  94.1071940  51.8108400 138.6753470  97.4830190  58.8359890 140.0833450
  97.6026400  58.2401030 140.8228290  98.3424190  58.8729580 139.6634750
  99.8218090  59.3897080 138.6595960  99.2953310  59.9139700 138.0561100
 100.1649430  60.0224470 139.2905690  94.2498960  55.3781240 141.3409270
  94.8398650  55.0697090 142.0287090  93.4319200  54.9060990 141.4969170
  99.0692390  54.9947050 141.5742290  98.3807910  54.3328590 141.5092280
  99.7898410  54.5485320 142.0190750  99.6992790  51.5898680 127.6332550
  99.9795080  50.7466580 127.9891970  98.9258520  51.8221790 128.1471300
  95.8535920  68.6447930 140.0739990  95.7794620  69.5483070 140.3812360
  94.9514760  68.3259830 140.0462060  90.0417410  63.1833490 125.9253350
  90.4792280  63.7263160 126.5810930  90.5265140  62.3580440 125.9349690
  87.2563210  65.9722520 133.3773610  87.5866220  65.1043580 133.1452250
  87.6854210  66.1781040 134.2078570 103.3815600  66.3410110 140.4032550
 102.7817590  66.4002670 139.6596470 103.5109500  65.4015090 140.5329400
  87.5777850  59.3513340 132.4744120  86.9226690  59.0824980 131.8303820
  88.4155800  59.2417820 132.0246100 102.0667240  63.0662090 138.5008710
 101.2527080  63.4959250 138.7634500 102.4741440  63.6780500 137.8877760
 100.5268290  54.1454630 126.6962610 100.9453170  53.9585610 125.8559270
 100.2204350  53.2933680 127.0065540  88.6153780  59.7365910 137.0147460
  88.9826820  59.6493310 137.8943480  88.0464600  58.9732460 136.9154320
 103.4157640  58.2050290 140.0277930 103.1843730  57.9763040 139.1275880
 103.6762190  59.1249840 139.9822820 101.8545710  53.4306720 142.8057630
 102.7315890  53.4390120 143.1891630 101.8666550  52.6937560 142.1949980
 103.4798700  57.3676130 137.2165200 102.5301410  57.3339670 137.3310190
 103.6611710  58.2776240 136.9814970 102.7908950  56.5409610 129.6338060
 103.2868070  56.3080480 130.4186940 102.5925020  55.7021450 129.2175700
  88.6709490  50.9223330 135.2689100  89.3185680  50.3720710 134.8284260
  89.0911330  51.1766480 136.0904910 104.2196110  55.1770560 132.1675740
 104.1095390  55.0226600 133.1058010 104.9803700  54.6491500 131.9251150
 102.5661830  51.1164690 138.6258740 103.2034050  51.7298830 138.9917930
 102.7136720  51.1525350 137.6807970 105.1086380  53.0078480 125.4081880
 106.0335690  52.8759660 125.2000170 105.0862170  53.0871300 126.3618330
 105.1824870  53.7789140 128.0338590 104.3876370  53.7134260 128.5631500
 105.3868150  54.7139780 128.0223940 102.1243290  67.8180690 132.0276980
 102.7202360  67.4965260 131.3511400 102.3821440  67.3452510 132.8190250
  88.4241490  51.0779000 138.0114420  88.0756310  51.5342820 138.7772600
  88.0929190  50.1836130 138.0936850  90.0305860  64.2498600 142.1767610
  89.9875490  63.8791510 143.0582070  90.1616870  65.1876170 142.3169430
  95.9366310  52.2690880 141.5333840  95.8755200  52.8612710 142.2829250
  96.8766690  52.1616840 141.3884100  98.5740870  51.9260940 141.1726130
  99.1881280  52.2440230 140.5107210  99.1190430  51.4409530 141.7921990
 104.9916050  67.8252570 138.5787970 104.4974330  68.2221440 137.8615100
 104.3829340  67.2001780 138.9725250  89.0962130  50.6055200 141.2865190
  89.6445120  50.4243250 140.5231300  89.1617440  49.8149310 141.8221500
  89.8693890  67.1960850 139.2965390  89.2754210  67.0645550 140.0355430
  89.8617730  66.3598990 138.8307490  99.3148910  50.4893080 137.4995420
  98.4408750  50.8228190 137.2968350  99.2059660  50.0166260 138.3247290
 100.2220890  52.6963950 138.8837140  99.8934250  51.8815710 138.5038870
 101.1703190  52.6533760 138.7602830 102.6755500  68.4675990 135.8574710
 102.2158470  69.2191800 135.4832730 102.0467960  67.7482460 135.7989510
  97.0623730  51.4062920 136.4388330  96.2795520  51.8808420 136.7185090
  96.7686660  50.5017750 136.3301510 101.6144800  52.1086020 134.4837420
 102.0552890  52.0531120 133.6359020 101.3452390  53.0244030 134.5547600
 103.4783370  51.7401260 132.4946240 103.4171770  50.7962480 132.3477260
 104.2575400  51.8481350 133.0399700  87.7836120  67.8793620 131.4570190
  87.6158160  67.2464300 132.1552080  86.9170630  68.0853020 131.1064380
  94.9477950  53.8249670 131.9504360  94.1352460  53.4506560 131.6100240
  95.4519590  53.0694750 132.2525550 102.5937530  50.8913680 128.4627710
 102.7888160  51.7897130 128.7295140 101.8067400  50.6600760 128.9560660
  89.3898820  66.5726850 128.9020330  88.8646440  66.9534880 128.1982290
  89.3143400  67.1977620 129.6230040  92.9727130  51.9749590 130.5549410
  92.3429870  51.2736900 130.7219540  92.4332270  52.7353720 130.3382570
  95.9119080  68.5888820 143.2260020  96.8386390  68.3533090 143.2695980
  95.8969510  69.4160820 142.7446050  93.0982690  51.2533570 142.9901900
  92.8166960  51.7567170 142.2262720  93.4802390  50.4555320 142.6244030
  91.9891790  68.5209230 127.7769580  92.7210610  68.2368510 127.2293470
  92.2485460  68.2822510 128.6668960  91.1506580  64.6373960 127.7815910
  90.5215460  65.1059060 128.3301740  91.2654410  63.7923180 128.2162100
  99.6998150  50.6687150 143.5682370  99.5863600  50.9881760 144.4633890
 100.5167890  51.0699660 143.2719650 102.4796640  67.8158680 143.0501060
 103.2721960  67.3207910 142.8427020 102.7729790  68.4948820 143.6576670
  98.6056300  58.6879620 113.9317110  98.5250350  57.7734230 113.6608820
  98.1920720  59.1846690 113.2256820  87.1265130  58.3385990 116.3584230
  87.6981240  57.5708190 116.3587870  87.1266670  58.6374750 115.4490840
  97.8508430  62.0416080 111.6061410  97.2325700  62.5065530 111.0424130
  98.3631680  62.7343560 112.0230920 101.2274100  55.3837030 115.7521350
 100.5229670  55.6721920 116.3324460 101.5886260  56.1937140 115.3920910
  97.2161320  59.1937830 111.1746670  96.2890600  59.1275210 111.4035140
  97.3686140  60.1317960 111.0601910  97.2030400  55.4654830 108.1713830
  96.2634070  55.6268790 108.2566290  97.5213660  56.1840510 107.6249820
 100.6885170  56.9342670 119.0947730 100.2756350  57.7596380 119.3487720
  99.9561120  56.3487710 118.9024090  92.3818090  63.1451820 122.7713410
  91.4846620  63.3691790 123.0186810  92.4070960  63.2686760 121.8224810
  99.4223310  59.9944940 108.6854670  99.8616590  59.1567370 108.5392490
 100.1351730  60.6274340 108.7718810  97.5318690  64.9341010 112.6535910
  97.9714600  65.6765340 112.2391300  97.4705580  65.1767580 113.5774870
 103.0040450  51.2487750 106.9995710 102.6913110  51.3414580 107.8994780
 103.7652920  51.8268780 106.9493140 104.9584480  66.7413940 124.8520100
 105.4344200  67.2196830 125.5309180 105.5791640  66.6731430 124.1265600
  88.4055590  63.4862880 113.6747870  87.9983670  63.6277470 112.8201470
  89.2968600  63.2023040 113.4719080 104.3617730  63.9326790 122.0120110
 104.4880790  63.6938670 121.0937290 104.4039110  63.1011330 122.4842190
  92.6777250  67.7008660 111.7870540  92.5019730  66.7844200 111.5738340
  91.8232990  68.0595950 112.0268340  99.9015000  65.4297690 108.5696920
  99.2080160  65.4274980 107.9099200 100.6437860  65.0057010 108.1391090
 104.2141740  55.9859250 122.9769850 103.5986010  56.4938920 122.4485310
 103.8938160  55.0857580 122.9195790 101.2760570  56.0460090 121.5728700
 100.4254160  55.7465840 121.8937770 101.1162360  56.2902100 120.6612520
  95.1045070  51.5793320 109.7202550  94.4799250  51.5753190 110.4455860
  95.0175190  50.7124280 109.3238520  94.7015780  55.9915130 108.6881930
  94.8228600  55.9501610 109.6367750  94.3164290  56.8539280 108.5328660
  98.6644150  53.7682530 116.7045620  98.6816890  54.2191180 117.5487470
  98.4159730  52.8688170 116.9179060  93.7137280  58.3016270 108.0865230
  93.1454180  57.8534520 107.4601140  94.4226280  58.6609050 107.5530380
 100.1931070  57.0597430 108.5909580 101.0810690  57.3714660 108.4160920
 100.1636160  56.1869680 108.1990160  96.1891660  63.2321120 109.2697750
  96.5307360  63.9763350 108.7741070  95.3604370  63.5452240 109.6322580
 102.4645340  58.3709270 108.0589440 102.3809060  58.8023490 107.2085880
 103.1839530  58.8307620 108.4916260 103.5419480  60.8276790 121.1359410
 102.8167670  61.4205570 120.9388800 104.0694940  60.8200330 120.3372780
  95.1582350  63.3134650 112.0413670  95.8453480  63.8603860 112.4221260
  94.3714770  63.8575380 112.0763280  94.4609560  60.3180680 111.6539030
  94.9172340  61.1285930 111.8799220  94.1097770  60.0003820 112.4857520
  87.6646000  68.1434850 108.0992380  88.0243640  68.7424190 107.4449650
  87.5238340  68.6894740 108.8727410 101.4646220  62.0339930 108.9862080
 101.1767920  62.4952620 109.7739960 102.2598390  61.5737700 109.2546300
  93.6814620  65.5266050 108.9166050  93.6724720  66.2595740 108.3010560
  92.7612980  65.2797630 109.0093010  98.8554050  54.9131760 119.3369700
  99.2234870  54.0926970 119.6649270  97.9952250  54.9733650 119.7525350
  96.6674220  65.5894290 107.5791240  96.7686200  65.3858280 106.6493220
  95.7675960  65.3352570 107.7839020  94.1900110  56.1474650 111.5615140
  93.4816260  56.6160990 112.0028750  94.4744590  55.4896660 112.1960330
  95.3092330  68.1080610 112.2738910  95.5633830  68.0702000 111.3518280
  94.3604810  67.9813940 112.2667160  92.3935130  54.4559730 108.9365850
  93.2425660  54.8929880 108.8706040  92.0266400  54.7679990 109.7637910
  89.7946300  67.4758620 124.3854390  90.5959030  67.7970670 124.7989790
  89.2798120  67.1154200 125.1074300  93.8990330  67.4642860 107.0194380
  94.6918940  67.7531690 106.5676170  93.3794680  67.0335030 106.3406860
  94.4167730  62.6846270 106.8836730  94.3118370  62.0698620 107.6098110
  94.2491950  62.1612160 106.0999740  97.6570460  61.7466300 107.4878720
  97.1080560  62.1935600 108.1321460  98.2789720  61.2415550 108.0116390
 101.7105400  63.1008400 123.4200980 102.4514870  63.4384160 122.9168440
 100.9478080  63.2700460 122.8670750  95.8373220  59.7294830 106.6321120
  96.3578880  59.0143850 106.2662270  96.4841620  60.3680700 106.9321630
 100.3851060  61.1523230 121.9556190 100.7992080  61.3068310 122.8046610
  99.4502060  61.2778450 122.1181970 100.8573230  58.4919390 123.9595340
 101.4394000  57.7371710 123.8715820 101.0335000  59.0226830 123.1826820
  92.2204480  56.7790450 106.3302180  92.0193540  55.9157810 106.6915520
  92.0496530  56.6923810 105.3923780  94.2372210  52.8225690 107.3036260
  93.8894210  52.1449680 106.7238710  94.4384980  52.3615200 108.1179650
  96.4021250  67.8106440 108.9222860  97.2972040  68.1491410 108.9441620
  96.4338880  67.0885850 108.2947140  87.2563210  65.9722520 114.6030120
  87.5866220  65.1043580 114.3708760  87.6854210  66.1781040 115.4335080
  91.8525130  64.3031530 112.2632090  91.5520670  64.1796500 113.1636000
  91.7462620  63.4440120 111.8547820 103.4157640  58.2050290 121.2534440
 103.1843730  57.9763040 120.3532390 103.6762190  59.1249840 121.2079330
 103.3008980  57.2836260 114.9202160 103.8246460  56.7898910 114.2892330
 103.8868400  57.4186620 115.6649730  88.9817300  51.6717140 106.5922990
  89.7045430  52.2126080 106.9104210  89.2541820  51.3980560 105.7164530
 102.7908950  56.5409610 110.8594570 103.2868070  56.3080480 111.6443450
 102.5925020  55.7021450 110.4432210 104.2196110  55.1770560 113.3932250
 104.1095390  55.0226600 114.3314520 104.9803700  54.6491500 113.1507660
 102.5661830  51.1164690 119.8515250 103.2034050  51.7298830 120.2174440
 102.7136720  51.1525350 118.9064480 105.1086380  53.0078480 106.6338390
 106.0335690  52.8759660 106.4256680 105.0862170  53.0871300 107.5874840
 105.1824870  53.7789140 109.2595100 104.3876370  53.7134260 109.7888010
 105.3868150  54.7139780 109.2480450  90.0305860  64.2498600 123.4024120
  89.9875490  63.8791510 124.2838580  90.1616870  65.1876170 123.5425940
  87.7836120  67.8793620 112.6826700  87.6158160  67.2464300 113.3808590
  86.9170630  68.0853020 112.3320890  89.3898820  66.5726850 110.1276840
  88.8646440  66.9534880 109.4238800  89.3143400  67.1977620 110.8486550
  90.7789290  52.2374450 108.7260530  91.3082050  51.4504250 108.5968480
  91.4117610  52.9165640 108.9596060  95.9119080  68.5888820 124.4516530
  96.8386390  68.3533090 124.4952490  95.8969510  69.4160820 123.9702560
  91.9891790  68.5209230 109.0026090  92.7210610  68.2368510 108.4549980
  92.2485460  68.2822510 109.8925470 102.4796640  67.8158680 124.2757570
 103.2721960  67.3207910 124.0683530 102.7729790  68.4948820 124.8833180
  90.7540170  60.7778450  97.9158650  89.9225050  60.5227160  98.3155160
  91.3621150  60.8489220  98.6516570  90.7341430  64.8118540  98.1116670
  91.0369470  63.9216280  97.9326890  91.4785020  65.3688760  97.8838920
  89.1632120  55.7380340  91.7001040  88.2748820  56.0796310  91.5980920
  89.4473310  55.5380660  90.8081870  87.1265130  58.3385990  97.5840740
  87.6981240  57.5708190  97.5844380  87.1266670  58.6374750  96.6747350
  96.9845080  67.1576840  95.4386010  96.3656520  67.6134340  94.8680450
  97.8396860  67.3128300  95.0375710  96.1783330  63.1415830  97.0453050
  96.1091610  62.2005770  96.8842180  96.9403190  63.2317240  97.6175620
  91.3393510  54.3211840  92.7339420  91.4460260  55.2215570  93.0408180
  90.4285870  54.2729810  92.4434070  88.9876670  56.2430850  97.9792010
  89.6686780  56.5069220  98.5979410  88.6724720  55.4031720  98.3130020
 105.2812170  55.4603400 100.7693950 104.5764340  55.8485110 100.2509060
 105.5470090  56.1553690 101.3714880  97.8508430  62.0416080  92.8317920
  97.2325700  62.5065530  92.2680640  98.3631680  62.7343560  93.2487430
  92.7140190  61.5691950  99.5101520  92.3809570  62.1960870 100.1522590
  92.8906870  62.0953830  98.7303190  91.9259290  63.5372750 101.3250700
  92.5433290  64.2123830 101.0435150  91.0652410  63.9460730 101.2338200
 104.2961020  54.8291820  97.3687070 103.3485930  54.8630800  97.5002500
 104.6211010  55.6430770  97.7536430  94.8280560  51.1289000  95.6643060
  95.1355540  50.5735890  94.9478560  93.8981260  51.2633460  95.4816050
 101.2458610  60.7558130  92.9038430 100.6271030  60.4177680  92.2564730
 101.2283060  60.1117890  93.6117620 100.6885170  56.9342670 100.3204240
 100.2756350  57.7596380 100.5744230  99.9561120  56.3487710 100.1280600
  92.8217960  59.7202570  95.1822910  92.4174960  59.0079820  94.6868810
  92.9081080  59.3755810  96.0710950  93.2899660  63.4070130  97.3462120
  92.9927950  62.8015600  96.6669900  94.2399480  63.4447440  97.2351480
  91.5346580  56.4945780  98.9621950  92.0861170  56.6041120  98.1875200
  92.0490090  56.8683380  99.6777180  92.3818090  63.1451820 103.9969920
  91.4846620  63.3691790 104.2443320  92.4070960  63.2686760 103.0481320
  99.4223310  59.9944940  89.9111180  99.8616590  59.1567370  89.7649000
 100.1351730  60.6274340  89.9975320  91.2089310  60.0165140 102.5727290
  91.0697080  60.8887940 102.9414690  90.3270670  59.6737950 102.4275230
  97.5318690  64.9341010  93.8792420  97.9714600  65.6765340  93.4647810
  97.4705580  65.1767580  94.8031380  93.0069660  65.9586840 104.7812440
  92.9785090  66.3629790 103.9140870  92.8434630  65.0297200 104.6184040
 103.0040450  51.2487750  88.2252220 102.6913110  51.3414580  89.1251290
 103.7652920  51.8268780  88.1749650  89.5222590  58.6147550  92.6829560
  89.4020190  59.3409640  92.0710830  89.2123480  57.8450460  92.2057470
  87.1607960  61.7862690  98.4898200  87.2388380  61.9211460  97.5453920
  87.7749640  61.0778580  98.6826320  88.4055590  63.4862880  94.9004380
  87.9983670  63.6277470  94.0457980  89.2968600  63.2023040  94.6975590
 100.1988870  67.9210130  91.2355430 100.0390010  67.6313070  92.1337260
 100.0335580  67.1450260  90.7000660  99.9015000  65.4297690  89.7953430
  99.2080160  65.4274980  89.1355710 100.6437860  65.0057010  89.3647600
  91.9886250  51.9582620  96.0653230  91.5454400  52.7392160  95.7337750
  92.5471240  52.2812510  96.7724170 101.2760570  56.0460090 102.7985210
 100.4254160  55.7465840 103.1194280 101.1162360  56.2902100 101.8869030
  98.3710280  57.5461840 104.8984000  98.6963690  56.7125590 104.5586230
  99.1590610  58.0690360 105.0462330  95.1045070  51.5793320  90.9459060
  94.4799250  51.5753190  91.6712370  95.0175190  50.7124280  90.5495030
  91.7800470  57.0816190  93.7934480  91.5541390  56.8653360  94.6981100
  90.9993000  57.5144650  93.4480450  94.2199680  57.9801770 104.4594750
  94.1243280  57.0396500 104.3095150  95.0631660  58.2016840 104.0642820
  95.9255270  54.4750410 105.6825270  95.2353590  54.2822610 106.3171360
  96.6687570  54.7585050 106.2149570  86.6527270  52.3143900  96.6458610
  86.3640320  52.8846760  97.3583590  87.3973030  51.8348350  97.0089840
  90.4898010  54.8729540  95.8825890  90.1498060  55.3504770  96.6392940
  89.7275330  54.4194660  95.5226990  93.7137280  58.3016270  89.3121740
  93.1454180  57.8534520  88.6857650  94.4226280  58.6609050  88.7786890
 102.0914900  51.1814710 103.7688510 102.4160670  50.4504370 104.2946490
 102.1271410  50.8628350 102.8669500  88.7906460  62.2028290 103.1888470
  88.4061250  61.5621960 103.7871430  89.1018650  62.9064410 103.7583200
  87.8044090  53.7948520  94.7990560  87.5191010  53.4304190  95.6369180
  87.7422950  53.0628980  94.1853700  91.3022160  61.9654840  95.2226960
  91.8200830  61.1623100  95.1683850  90.8506180  61.9033980  96.0643790
  88.7866700  58.9316210 102.1352660  88.4281640  59.5970060 102.7226000
  88.4921260  58.0999760 102.5065280  91.9879820  59.3900450 105.0192210
  91.6879960  59.5357630 104.1220030  92.7591060  58.8305740 104.9265600
 102.4645340  58.3709270  89.2845950 102.3809060  58.8023490  88.4342390
 103.1839530  58.8307620  89.7172770  94.4609560  60.3180680  92.8795540
  94.9172340  61.1285930  93.1055730  94.1097770  60.0003820  93.7114030
  96.7642170  65.8287020 100.1087840  97.4084390  66.0346400 100.7861260
  97.1271610  65.0675420  99.6558690  90.3621340  50.6618330  93.3518060
  90.2335970  50.6536230  94.3002980  89.5383360  51.0001420  93.0009070
 101.8829970  64.1167990  88.5504430 101.6567550  63.3998430  89.1429070
 101.4926170  63.8680430  87.7126180 101.4646220  62.0339930  90.2118590
 101.1767920  62.4952620  90.9996470 102.2598390  61.5737700  90.4802810
  95.3092330  68.1080610  93.4995420  95.5633830  68.0702000  92.5774790
  94.3604810  67.9813940  93.4923670  92.3935130  54.4559730  90.1622360
  93.2425660  54.8929880  90.0962550  92.0266400  54.7679990  90.9894420
 103.0222900  53.7839310 101.6292570 102.5196500  54.5244710 101.9686380
 103.8379560  54.1723310 101.3129360  90.7888020  68.2912550  96.4225320
  91.5250500  67.7428010  96.6933890  91.1728940  69.1568560  96.2831310
  89.7946300  67.4758620 105.6110900  90.5959030  67.7970670 106.0246300
  89.2798120  67.1154200 106.3330810 102.9520500  66.6912990  89.6687630
 102.6662010  66.2778130  88.8541810 102.7540050  67.6200700  89.5488150
  87.5144110  59.9632080 104.5546950  88.0183130  59.3839360 105.1263180
  86.7751530  60.2472310 105.0923320  94.5682050  61.3703070 104.0882470
  93.8027720  61.9388070 104.0037140  94.7498010  61.0779280 103.1950700
  89.5467190  58.1061670 105.4497020  89.5872530  57.8075540 106.3582250
  90.4012690  58.5069280 105.2904540  91.4873000  56.6853770 103.4171510
  90.9569460  56.1944720 102.7894850  92.1561070  57.1137970 102.8829440
 100.8573230  58.4919390 105.1851850 101.4394000  57.7371710 105.0972330
 101.0335000  59.0226830 104.4083330  95.1466290  61.1043710 101.1508630
  95.5654400  61.9476440 100.9784870  94.2274920  61.2415750 100.9215410
  97.4830190  58.8359890 102.5346470  97.6026400  58.2401030 103.2741310
  98.3424190  58.8729580 102.1147770  99.8218090  59.3897080 101.1108980
  99.2953310  59.9139700 100.5074120 100.1649430  60.0224470 101.7418710
  92.2204480  56.7790450  87.5558690  92.0193540  55.9157810  87.9172030
  92.0496530  56.6923810  86.6180290  92.9973710  67.4096720 102.2666360
  92.4594800  68.1342780 101.9475060  93.2507670  66.9327060 101.4763700
  99.6992790  51.5898680  90.0845570  99.9795080  50.7466580  90.4404990
  98.9258520  51.8221790  90.5984320  95.8535920  68.6447930 102.5253010
  95.7794620  69.5483070 102.8325380  94.9514760  68.3259830 102.4975080
  94.2372210  52.8225690  88.5292770  93.8894210  52.1449680  87.9495220
  94.4384980  52.3615200  89.3436160  87.2563210  65.9722520  95.8286630
  87.5866220  65.1043580  95.5965270  87.6854210  66.1781040  96.6591590
  91.8525130  64.3031530  93.4888600  91.5520670  64.1796500  94.3892510
  91.7462620  63.4440120  93.0804330 104.6217050  64.0827930  88.1915280
 103.7910010  64.1504580  88.6622510 104.7988880  64.9732050  87.8882140
  87.5777850  59.3513340  94.9257140  86.9226690  59.0824980  94.2816840
  88.4155800  59.2417820  94.4759120 102.0667240  63.0662090 100.9521730
 101.2527080  63.4959250 101.2147520 102.4741440  63.6780500 100.3390780
 104.1292680  61.1209780  87.8522000 104.4041520  62.0288660  87.7241220
 103.9403420  61.0572310  88.7883990 100.5268290  54.1454630  89.1475630
 100.9453170  53.9585610  88.3072290 100.2204350  53.2933680  89.4578560
  88.6153780  59.7365910  99.4660480  88.9826820  59.6493310 100.3456500
  88.0464600  58.9732460  99.3667340 101.8545710  53.4306720 105.2570650
 102.7315890  53.4390120 105.6404650 101.8666550  52.6937560 104.6463000
 103.4798700  57.3676130  99.6678220 102.5301410  57.3339670  99.7823210
 103.6611710  58.2776240  99.4327990 102.5661830  51.1164690 101.0771760
 103.2034050  51.7298830 101.4430950 102.7136720  51.1525350 100.1320990
 105.1086380  53.0078480  87.8594900 106.0335690  52.8759660  87.6513190
 105.0862170  53.0871300  88.8131350 105.1824870  53.7789140  90.4851610
 104.3876370  53.7134260  91.0144520 105.3868150  54.7139780  90.4736960
  90.0305860  64.2498600 104.6280630  89.9875490  63.8791510 105.5095090
  90.1616870  65.1876170 104.7682450  93.7311890  65.8058190 100.2290350
  93.4903250  66.0732750  99.3420870  94.6714530  65.9763920 100.2841210
  89.8693890  67.1960850 101.7478410  89.2754210  67.0645550 102.4868450
  89.8617730  66.3598990 101.2820510  93.1051220  66.7764230  97.4835860
  93.6216240  66.1651590  96.9584120  93.7548600  67.2793010  97.9746870
  95.8446720  67.6672720  98.3104840  96.1324530  67.4127020  97.4337850
  96.3569940  67.1150080  98.9010410 101.6144800  52.1086020  96.9350440
 102.0552890  52.0531120  96.0872040 101.3452390  53.0244030  97.0060620
 103.4783370  51.7401260  94.9459260 103.4171770  50.7962480  94.7990280
 104.2575400  51.8481350  95.4912720  88.4064140  51.7110400  91.4115070
  89.1643500  51.8239280  90.8379100  87.9441310  52.5479600  91.3658500
  99.4502930  50.4892120  95.6400450 100.0532300  51.0612330  96.1148970
  98.7095920  51.0531560  95.4174350 102.5937530  50.8913680  90.9140730
 102.7888160  51.7897130  91.1808160 101.8067400  50.6600760  91.4073680
  90.7789290  52.2374450  89.9517040  91.3082050  51.4504250  89.8224990
  91.4117610  52.9165640  90.1852570  92.9727130  51.9749590  93.0062430
  92.3429870  51.2736900  93.1732560  92.4332270  52.7353720  92.7895590
  95.9119080  68.5888820 105.6773040  96.8386390  68.3533090 105.7209000
  95.8969510  69.4160820 105.1959070  93.0982690  51.2533570 105.4414920
  92.8166960  51.7567170 104.6775740  93.4802390  50.4555320 105.0757050
  99.6998150  50.6687150 106.0195390  99.5863600  50.9881760 106.9146910
 100.5167890  51.0699660 105.7232670  98.6056300  58.6879620  76.3830130
  98.5250350  57.7734230  76.1121840  98.1920720  59.1846690  75.6769840
  96.9845080  67.1576840  76.6642520  96.3656520  67.6134340  76.0936960
  97.8396860  67.3128300  76.2632220  97.2088500  55.9486210  78.4978490
  97.5853320  55.0758090  78.3852160  97.1108010  56.2844910  77.6068930
 100.9912620  53.4436650  75.4306830 101.8122240  52.9533220  75.4732310
 101.0246700  54.0334310  76.1838670 101.2274100  55.3837030  78.2034370
 100.5229670  55.6721920  78.7837480 101.5886260  56.1937140  77.8433930
 102.8436880  65.0012160  80.4661850 102.1600400  65.6711270  80.4578520
 103.3831170  65.1992810  79.7006710  94.8280560  51.1289000  76.8899570
  95.1355540  50.5735890  76.1735070  93.8981260  51.2633460  76.7072560
 100.3795620  66.8456290  79.1807030 100.3922780  66.4418580  78.3129290
  99.8270840  67.6203580  79.0768460  99.7781060  61.7486130  80.5089640
 100.1949850  61.5346240  79.6743100 100.5020880  62.0058920  81.0798260
 103.7243160  60.1473350  80.6005880 102.8961790  60.2166440  80.1256010
 104.3193640  60.7327660  80.1321710 100.6885170  56.9342670  81.5460750
 100.2756350  57.7596380  81.8000740  99.9561120  56.3487710  81.3537110
 101.3785270  66.9802000  82.2341730 100.9015830  67.7874190  82.0414340
 100.6947060  66.3280330  82.3867940  97.5318690  64.9341010  75.1048930
  97.9714600  65.6765340  74.6904320  97.4705580  65.1767580  76.0287890
 103.0040450  51.2487750  69.4508730 102.6913110  51.3414580  70.3507800
 103.7652920  51.8268780  69.4006160 104.9584480  66.7413940  87.3033120
 105.4344200  67.2196830  87.9822200 105.5791640  66.6731430  86.5778620
 104.3617730  63.9326790  84.4633130 104.4880790  63.6938670  83.5450310
 104.4039110  63.1011330  84.9355210 100.1988870  67.9210130  72.4611940
 100.0390010  67.6313070  73.3593770 100.0335580  67.1450260  71.9257170
  99.4664930  67.0560400  75.0958430  99.9221880  66.2749780  75.4097050
  99.8057450  67.7667220  75.6399610 104.2141740  55.9859250  85.4282870
 103.5986010  56.4938920  84.8998330 103.8938160  55.0857580  85.3708810
 101.2760570  56.0460090  84.0241720 100.4254160  55.7465840  84.3450790
 101.1162360  56.2902100  83.1125540  98.3710280  57.5461840  86.1240510
  98.6963690  56.7125590  85.7842740  99.1590610  58.0690360  86.2718840
  94.0262150  52.5029950  79.1499340  94.3234480  53.4092780  79.0691360
  94.5747710  52.0148730  78.5358910  99.0098230  57.0879560  73.6181640
  98.4107120  57.8115360  73.4345260  99.5577840  57.0256340  72.8358090
  97.6163100  55.7243100  75.6484920  98.0092670  56.0415300  74.8353610
  97.9779950  54.8454980  75.7629440  95.9255270  54.4750410  86.9081780
  95.2353590  54.2822610  87.5427870  96.6687570  54.7585050  87.4406080
  98.2018240  58.3148850  79.7435700  97.4699360  58.8235660  80.0925800
  97.8042580  57.4978830  79.4424480  94.6395630  54.9903050  78.1488190
  94.6431690  54.5493000  77.2992730  95.5346750  55.3120380  78.2560010
 102.0172740  61.2939820  78.6031050 102.7371860  61.7895110  78.2127160
 101.8154560  60.6157710  77.9584920 103.5419480  60.8276790  83.5872430
 102.8167670  61.4205570  83.3901820 104.0694940  60.8200330  82.7885800
  99.0719070  62.5536960  77.0856280  99.4242890  61.9565090  76.4257650
  98.1881400  62.2281190  77.2564530  99.8111870  64.6314270  83.2557860
 100.1468110  65.2180960  83.9335780  98.8912210  64.5006980  83.4855650
 102.2216080  53.8688700  72.5970280 101.5929240  53.9734370  71.8828510
 101.7268000  54.0885480  73.3864160  95.8156040  57.5671350  82.0120690
  96.3141290  58.0417170  82.6772540  95.9578990  56.6434870  82.2190720
  98.2215540  52.8725310  75.4523950  98.0983320  52.8911440  74.5033460
  99.1700100  52.9204250  75.5722350  95.3092330  68.1080610  74.7251930
  95.5633830  68.0702000  73.8031300  94.3604810  67.9813940  74.7180180
 101.3144910  59.0272490  76.3010440 100.3735050  59.0422720  76.4758130
 101.6288980  58.2408450  76.7470740 103.3170490  66.1981340  77.9764700
 103.4417910  67.0212510  78.4488510 104.1836050  65.9872070  77.6288850
  98.6310930  63.5838490  86.7842820  98.0249090  63.6070090  86.0438570
  98.3265040  62.8521530  87.3210070 100.0611300  67.3118780  85.3952230
 101.0133050  67.2276800  85.3452470  99.9139520  67.9760490  86.0686020
 101.7105400  63.1008400  85.8714000 102.4514870  63.4384160  85.3681460
 100.9478080  63.2700460  85.3183770 100.3851060  61.1523230  84.4069210
 100.7992080  61.3068310  85.2559630  99.4502060  61.2778450  84.5694990
 100.8573230  58.4919390  86.4108360 101.4394000  57.7371710  86.3228840
 101.0335000  59.0226830  85.6339840  91.9745300  53.6516140  84.7225310
  91.8802170  53.0336890  83.9976180  91.3942690  54.3782430  84.4955220
  99.8218090  59.3897080  82.3365490  99.2953310  59.9139700  81.7330630
 100.1649430  60.0224470  82.9675220  94.2498960  55.3781240  85.0178800
  94.8398650  55.0697090  85.7056620  93.4319200  54.9060990  85.1738700
  99.0692390  54.9947050  85.2511820  98.3807910  54.3328590  85.1861810
  99.7898410  54.5485320  85.6960280  99.6992790  51.5898680  71.3102080
  99.9795080  50.7466580  71.6661500  98.9258520  51.8221790  71.8240830
 103.3815600  66.3410110  84.0802080 102.7817590  66.4002670  83.3366000
 103.5109500  65.4015090  84.2098930 102.0667240  63.0662090  82.1778240
 101.2527080  63.4959250  82.4404030 102.4741440  63.6780500  81.5647290
 100.5268290  54.1454630  70.3732140 100.9453170  53.9585610  69.5328800
 100.2204350  53.2933680  70.6835070 103.4157640  58.2050290  83.7047460
 103.1843730  57.9763040  82.8045410 103.6762190  59.1249840  83.6592350
 101.8545710  53.4306720  86.4827160 102.7315890  53.4390120  86.8661160
 101.8666550  52.6937560  85.8719510 103.3008980  57.2836260  77.3715180
 103.8246460  56.7898910  76.7405350 103.8868400  57.4186620  78.1162750
 103.4798700  57.3676130  80.8934730 102.5301410  57.3339670  81.0079720
 103.6611710  58.2776240  80.6584500 102.7908950  56.5409610  73.3107590
 103.2868070  56.3080480  74.0956470 102.5925020  55.7021450  72.8945230
 104.2196110  55.1770560  75.8445270 104.1095390  55.0226600  76.7827540
 104.9803700  54.6491500  75.6020680 105.1086380  53.0078480  69.0851410
 106.0335690  52.8759660  68.8769700 105.0862170  53.0871300  70.0387860
 105.1824870  53.7789140  71.7108120 104.3876370  53.7134260  72.2401030
 105.3868150  54.7139780  71.6993470  95.9366310  52.2690880  85.2103370
  95.8755200  52.8612710  85.9598780  96.8766690  52.1616840  85.0653630
 104.9916050  67.8252570  82.2557500 104.4974330  68.2221440  81.5384630
 104.3829340  67.2001780  82.6494780 102.6755500  68.4675990  79.5344240
 102.2158470  69.2191800  79.1602260 102.0467960  67.7482460  79.4759040
 103.4783370  51.7401260  76.1715770 103.4171770  50.7962480  76.0246790
 104.2575400  51.8481350  76.7169230  99.4502930  50.4892120  76.8656960
 100.0532300  51.0612330  77.3405480  98.7095920  51.0531560  76.6430860
 102.5937530  50.8913680  72.1397240 102.7888160  51.7897130  72.4064670
 101.8067400  50.6600760  72.6330190  93.0982690  51.2533570  86.6671430
  92.8166960  51.7567170  85.9032250  93.4802390  50.4555320  86.3013560
 102.4796640  67.8158680  86.7270590 103.2721960  67.3207910  86.5196550
 102.7729790  68.4948820  87.3346200 100.7581770  64.8718830  58.2695040
 100.2963300  64.1006070  58.5982210 101.5707320  64.8984900  58.7747490
  96.9845080  67.1576840  57.8899030  96.3656520  67.6134340  57.3193470
  97.8396860  67.3128300  57.4888730 100.9912620  53.4436650  56.6563340
 101.8122240  52.9533220  56.6988820 101.0246700  54.0334310  57.4095180
 105.2812170  55.4603400  63.2206970 104.5764340  55.8485110  62.7022080
 105.5470090  56.1553690  63.8227900  97.8508430  62.0416080  55.2830940
  97.2325700  62.5065530  54.7193660  98.3631680  62.7343560  55.7000450
 102.8436880  65.0012160  61.6918360 102.1600400  65.6711270  61.6835030
 103.3831170  65.1992810  60.9263220 104.2961020  54.8291820  59.8200090
 103.3485930  54.8630800  59.9515520 104.6211010  55.6430770  60.2049450
 100.3795620  66.8456290  60.4063540 100.3922780  66.4418580  59.5385800
  99.8270840  67.6203580  60.3024970 101.6741040  63.5672510  55.4953710
 101.5637370  62.6246840  55.6203130 101.6709290  63.9288150  56.3816470
  97.2161320  59.1937830  54.8516200  96.2890600  59.1275210  55.0804670
  97.3686140  60.1317960  54.7371440  97.2030400  55.4654830  51.8483360
  96.2634070  55.6268790  51.9335820  97.5213660  56.1840510  51.3019350
 103.7243160  60.1473350  61.8262390 102.8961790  60.2166440  61.3512520
 104.3193640  60.7327660  61.3578220 101.2458610  60.7558130  55.3551450
 100.6271030  60.4177680  54.7077750 101.2283060  60.1117890  56.0630640
 101.3785270  66.9802000  63.4598240 100.9015830  67.7874190  63.2670850
 100.6947060  66.3280330  63.6124450  99.4223310  59.9944940  52.3624200
  99.8616590  59.1567370  52.2162020 100.1351730  60.6274340  52.4488340
  97.5318690  64.9341010  56.3305440  97.9714600  65.6765340  55.9160830
  97.4705580  65.1767580  57.2544400 104.3617730  63.9326790  65.6889640
 104.4880790  63.6938670  64.7706820 104.4039110  63.1011330  66.1611720
  98.2234470  67.6354790  64.2584450  98.7379140  67.5462800  65.0606880
  97.3803550  67.9814490  64.5512360  99.9015000  65.4297690  52.2466450
  99.2080160  65.4274980  51.5868730 100.6437860  65.0057010  51.8160620
  99.4664930  67.0560400  56.3214940  99.9221880  66.2749780  56.6353560
  99.8057450  67.7667220  56.8656120 104.2141740  55.9859250  66.6539380
 103.5986010  56.4938920  66.1254840 103.8938160  55.0857580  66.5965320
  99.0098230  57.0879560  54.8438150  98.4107120  57.8115360  54.6601770
  99.5577840  57.0256340  54.0614600 102.0172740  61.2939820  59.8287560
 102.7371860  61.7895110  59.4383670 101.8154560  60.6157710  59.1841430
 100.1931070  57.0597430  52.2679110 101.0810690  57.3714660  52.0930450
 100.1636160  56.1869680  51.8759690  96.1891660  63.2321120  52.9467280
  96.5307360  63.9763350  52.4510600  95.3604370  63.5452240  53.3092110
 102.4645340  58.3709270  51.7358970 102.3809060  58.8023490  50.8855410
 103.1839530  58.8307620  52.1685790 103.5419480  60.8276790  64.8128940
 102.8167670  61.4205570  64.6158330 104.0694940  60.8200330  64.0142310
 103.4932590  65.2251530  54.4641100 102.8508750  64.5707150  54.7384820
 103.1063250  65.6306620  53.6881770 101.8829970  64.1167990  51.0017450
 101.6567550  63.3998430  51.5942090 101.4926170  63.8680430  50.1639200
 101.4646220  62.0339930  52.6631610 101.1767920  62.4952620  53.4509490
 102.2598390  61.5737700  52.9315830  93.6814620  65.5266050  52.5935580
  93.6724720  66.2595740  51.9780090  92.7612980  65.2797630  52.6862540
 102.2216080  53.8688700  53.8226790 101.5929240  53.9734370  53.1085020
 101.7268000  54.0885480  54.6120670  96.6674220  65.5894290  51.2560770
  96.7686200  65.3858280  50.3262750  95.7675960  65.3352570  51.4608550
 101.3144910  59.0272490  57.5266950 100.3735050  59.0422720  57.7014640
 101.6288980  58.2408450  57.9727250 103.3170490  66.1981340  59.2021210
 103.4417910  67.0212510  59.6745020 104.1836050  65.9872070  58.8545360
  93.8990330  67.4642860  50.6963910  94.6918940  67.7531690  50.2445700
  93.3794680  67.0335030  50.0176390  94.4167730  62.6846270  50.5606260
  94.3118370  62.0698620  51.2867640  94.2491950  62.1612160  49.7769270
  97.6570460  61.7466300  51.1648250  97.1080560  62.1935600  51.8090990
  98.2789720  61.2415550  51.6885920  95.8373220  59.7294830  50.3090650
  96.3578880  59.0143850  49.9431800  96.4841620  60.3680700  50.6091160
  92.2204480  56.7790450  50.0071710  92.0193540  55.9157810  50.3685050
  92.0496530  56.6923810  49.0693310  99.6992790  51.5898680  52.5358590
  99.9795080  50.7466580  52.8918010  98.9258520  51.8221790  53.0497340
  91.0187280  53.8791070  49.9949590  91.3213180  53.8858500  49.0868740
  91.7581870  53.5288930  50.4917250  94.2372210  52.8225690  50.9805790
  93.8894210  52.1449680  50.4008240  94.4384980  52.3615200  51.7949180
  96.4021250  67.8106440  52.5992390  97.2972040  68.1491410  52.6211150
  96.4338880  67.0885850  51.9716670 104.0773510  60.8275410  53.1462500
 104.8392420  61.3972060  53.2522190 104.0927880  60.2602610  53.9170810
 105.0833480  61.6825510  57.9904430 105.4542310  60.8992830  57.5840400
 105.7235410  62.3714610  57.8121730 102.0667240  63.0662090  63.4034750
 101.2527080  63.4959250  63.6660540 102.4741440  63.6780500  62.7903800
 104.1292680  61.1209780  50.3035020 104.4041520  62.0288660  50.1754240
 103.9403420  61.0572310  51.2397010 100.5268290  54.1454630  51.5988650
 100.9453170  53.9585610  50.7585310 100.2204350  53.2933680  51.9091580
 104.0258020  59.0578770  55.2964450 103.6501620  58.2906700  54.8645740
 103.2961140  59.4401470  55.7839380 103.4157640  58.2050290  64.9303970
 103.1843730  57.9763040  64.0301920 103.6762190  59.1249840  64.8848860
 103.3008980  57.2836260  58.5971690 103.8246460  56.7898910  57.9661860
 103.8868400  57.4186620  59.3419260  89.3343140  55.6177810  51.2289870
  90.0434840  55.1961030  50.7437150  88.6183080  55.6853040  50.5973220
 102.7908950  56.5409610  54.5364100 103.2868070  56.3080480  55.3212980
 102.5925020  55.7021450  54.1201740 104.2196110  55.1770560  57.0701780
 104.1095390  55.0226600  58.0084050 104.9803700  54.6491500  56.8277190
 102.5661830  51.1164690  63.5284780 103.2034050  51.7298830  63.8943970
 102.7136720  51.1525350  62.5834010 105.1824870  53.7789140  52.9364630
 104.3876370  53.7134260  53.4657540 105.3868150  54.7139780  52.9249980
 102.1243290  67.8180690  56.9303020 102.7202360  67.4965260  56.2537440
 102.3821440  67.3452510  57.7216290 102.6755500  68.4675990  60.7600750
 102.2158470  69.2191800  60.3858770 102.0467960  67.7482460  60.7015550
 101.6144800  52.1086020  59.3863460 102.0552890  52.0531120  58.5385060
 101.3452390  53.0244030  59.4573640 103.4783370  51.7401260  57.3972280
 103.4171770  50.7962480  57.2503300 104.2575400  51.8481350  57.9425740
 102.5937530  50.8913680  53.3653750 102.7888160  51.7897130  53.6321180
 101.8067400  50.6600760  53.8586700 104.1464140  68.1314390  55.1260310
 104.3216330  67.4452130  54.4821230 103.4485710  68.6561440  54.7336980
  99.6998150  50.6687150  68.4708410  99.5863600  50.9881760  69.3659930
 100.5167890  51.0699660  68.1745690  90.7341430  64.8118540  41.7886200
  91.0369470  63.9216280  41.6096420  91.4785020  65.3688760  41.5608450
  87.1265130  58.3385990  41.2610270  87.6981240  57.5708190  41.2613910
  87.1266670  58.6374750  40.3516880  88.3690000  53.7470350  43.0479200
  88.1892840  52.8496100  43.3281960  87.9670080  54.2942220  43.7226150
  97.2088500  55.9486210  40.9491510  97.5853320  55.0758090  40.8365180
  97.1108010  56.2844910  40.0581950 100.9912620  53.4436650  37.8819850
 101.8122240  52.9533220  37.9245330 101.0246700  54.0334310  38.6351690
  88.9876670  56.2430850  41.6561540  89.6686780  56.5069220  42.2748940
  88.6724720  55.4031720  41.9899550 105.2812170  55.4603400  44.4463480
 104.5764340  55.8485110  43.9278590 105.5470090  56.1553690  45.0484410
  91.4637340  51.9296770  45.0097550  91.4655780  52.4469160  44.2043450
  90.6341650  51.4526950  44.9867480 101.2274100  55.3837030  40.6547390
 100.5229670  55.6721920  41.2350500 101.5886260  56.1937140  40.2946950
  91.1452670  53.6406730  43.0168000  91.4869480  54.4848780  42.7221870
  90.2068480  53.7890470  43.1333340  94.8280560  51.1289000  39.3412590
  95.1355540  50.5735890  38.6248090  93.8981260  51.2633460  39.1585580
  97.2161320  59.1937830  36.0772710  96.2890600  59.1275210  36.3061180
  97.3686140  60.1317960  35.9627950 100.6885170  56.9342670  43.9973770
 100.2756350  57.7596380  44.2513760  99.9561120  56.3487710  43.8050130
  91.5346580  56.4945780  42.6391480  92.0861170  56.6041120  41.8644730
  92.0490090  56.8683380  43.3546710  99.4223310  59.9944940  33.5880710
  99.8616590  59.1567370  33.4418530 100.1351730  60.6274340  33.6744850
  91.2089310  60.0165140  46.2496820  91.0697080  60.8887940  46.6184220
  90.3270670  59.6737950  46.1044760  87.1607960  61.7862690  42.1667730
  87.2388380  61.9211460  41.2223450  87.7749640  61.0778580  42.3595850
  88.4055590  63.4862880  38.5773910  87.9983670  63.6277470  37.7227510
  89.2968600  63.2023040  38.3745120  98.2234470  67.6354790  45.4840960
  98.7379140  67.5462800  46.2863390  97.3803550  67.9814490  45.7768870
 100.1988870  67.9210130  34.9124960 100.0390010  67.6313070  35.8106790
 100.0335580  67.1450260  34.3770190  99.9015000  65.4297690  33.4722960
  99.2080160  65.4274980  32.8125240 100.6437860  65.0057010  33.0417130
  91.9886250  51.9582620  39.7422760  91.5454400  52.7392160  39.4107280
  92.5471240  52.2812510  40.4493700 101.2760570  56.0460090  46.4754740
 100.4254160  55.7465840  46.7963810 101.1162360  56.2902100  45.5638560
  98.3710280  57.5461840  48.5753530  98.6963690  56.7125590  48.2355760
  99.1590610  58.0690360  48.7231860  94.0262150  52.5029950  41.6012360
  94.3234480  53.4092780  41.5204380  94.5747710  52.0148730  40.9871930
  99.0098230  57.0879560  36.0694660  98.4107120  57.8115360  35.8858280
  99.5577840  57.0256340  35.2871110  94.2199680  57.9801770  48.1364280
  94.1243280  57.0396500  47.9864680  95.0631660  58.2016840  47.7412350
  97.6163100  55.7243100  38.0997940  98.0092670  56.0415300  37.2866630
  97.9779950  54.8454980  38.2142460  89.3510220  54.3915440  46.2898060
  88.9573610  55.2390650  46.4970840  88.6628620  53.7541810  46.4806700
  95.9255270  54.4750410  49.3594800  95.2353590  54.2822610  49.9940890
  96.6687570  54.7585050  49.8919100  86.8397500  56.2564020  31.5330860
  86.7572170  57.1994780  31.6745850  86.4880560  56.1138930  30.6543210
  94.6395630  54.9903050  40.6001210  94.6431690  54.5493000  39.7505750
  95.5346750  55.3120380  40.7073030  90.4898010  54.8729540  39.5595420
  90.1498060  55.3504770  40.3162470  89.7275330  54.4194660  39.1996520
  98.6644150  53.7682530  41.6071660  98.6816890  54.2191180  42.4513510
  98.4159730  52.8688170  41.8205100  93.7137280  58.3016270  32.9891270
  93.1454180  57.8534520  32.3627180  94.4226280  58.6609050  32.4556420
  92.7302970  58.0913470  44.6650830  92.4260040  58.9705450  44.8901190
  93.6849430  58.1513260  44.7008270  97.3991540  61.3648880  46.9413070
  97.3328850  60.4444550  46.6870660  96.7696680  61.4624320  47.6557710
 100.1931070  57.0597430  33.4935620 101.0810690  57.3714660  33.3186960
 100.1636160  56.1869680  33.1016200  96.1891660  63.2321120  34.1723790
  96.5307360  63.9763350  33.6767110  95.3604370  63.5452240  34.5348620
  88.7866700  58.9316210  45.8122190  88.4281640  59.5970060  46.3995530
  88.4921260  58.0999760  46.1834810  91.9879820  59.3900450  48.6961740
  91.6879960  59.5357630  47.7989560  92.7591060  58.8305740  48.6035130
  97.3308270  64.1869450  46.6916870  97.3452810  63.2550410  46.4735780
  96.6233370  64.2729210  47.3306640 102.4645340  58.3709270  32.9615480
 102.3809060  58.8023490  32.1111920 103.1839530  58.8307620  33.3942300
  96.7642170  65.8287020  43.7857370  97.4084390  66.0346400  44.4630790
  97.1271610  65.0675420  43.3328220 101.8829970  64.1167990  32.2273960
 101.6567550  63.3998430  32.8198600 101.4926170  63.8680430  31.3895710
  87.3615270  52.4209450  46.4894290  86.6473790  52.6206370  47.0946900
  87.7810310  51.6449020  46.8609090 101.4646220  62.0339930  33.8888120
 101.1767920  62.4952620  34.6766000 102.2598390  61.5737700  34.1572340
  95.6400450  64.6805600  48.8758940  95.3197320  63.9614840  49.4204630
  94.9658810  65.3560670  48.9495000  98.8554050  54.9131760  44.2395740
  99.2234870  54.0926970  44.5675310  97.9952250  54.9733650  44.6551390
  96.6674220  65.5894290  32.4817280  96.7686200  65.3858280  31.5519260
  95.7675960  65.3352570  32.6865060  95.8156040  57.5671350  44.4633710
  96.3141290  58.0417170  45.1285560  95.9578990  56.6434870  44.6703740
  98.2215540  52.8725310  37.9036970  98.0983320  52.8911440  36.9546480
  99.1700100  52.9204250  38.0235370  90.7888020  68.2912550  40.0994850
  91.5250500  67.7428010  40.3703420  91.1728940  69.1568560  39.9600840
  87.6733500  64.3586120  35.9736360  86.7473280  64.6007260  35.9641770
  88.1389930  65.1860380  35.8521110 100.0611300  67.3118780  47.8465250
 101.0133050  67.2276800  47.7965490  99.9139520  67.9760490  48.5199040
 102.9520500  66.6912990  33.3457160 102.6662010  66.2778130  32.5311340
 102.7540050  67.6200700  33.2257680  94.4167730  62.6846270  31.7862770
  94.3118370  62.0698620  32.5124150  94.2491950  62.1612160  31.0025780
  94.5682050  61.3703070  47.7652000  93.8027720  61.9388070  47.6806670
  94.7498010  61.0779280  46.8720230  97.6570460  61.7466300  32.3904760
  97.1080560  62.1935600  33.0347500  98.2789720  61.2415550  32.9142430
  89.5467190  58.1061670  49.1266550  89.5872530  57.8075540  50.0351780
  90.4012690  58.5069280  48.9674070  93.3245580  60.7057220  34.2870060
  93.7462000  60.5397090  35.1301450  93.4496420  59.8957450  33.7925200
  91.4873000  56.6853770  47.0941040  90.9569460  56.1944720  46.4664380
  92.1561070  57.1137970  46.5598970  95.8373220  59.7294830  31.5347160
  96.3578880  59.0143850  31.1688310  96.4841620  60.3680700  31.8347670
 100.8573230  58.4919390  48.8621380 101.4394000  57.7371710  48.7741860
 101.0335000  59.0226830  48.0852860  91.9745300  53.6516140  47.1738330
  91.8802170  53.0336890  46.4489200  91.3942690  54.3782430  46.9468240
  95.1466290  61.1043710  44.8278160  95.5654400  61.9476440  44.6554400
  94.2274920  61.2415750  44.5984940  97.4830190  58.8359890  46.2116000
  97.6026400  58.2401030  46.9510840  98.3424190  58.8729580  45.7917300
  94.2498960  55.3781240  47.4691820  94.8398650  55.0697090  48.1569640
  93.4319200  54.9060990  47.6251720  99.0692390  54.9947050  47.7024840
  98.3807910  54.3328590  47.6374830  99.7898410  54.5485320  48.1473300
  99.6992790  51.5898680  33.7615100  99.9795080  50.7466580  34.1174520
  98.9258520  51.8221790  34.2753850  95.8535920  68.6447930  46.2022540
  95.7794620  69.5483070  46.5094910  94.9514760  68.3259830  46.1744610
  96.4021250  67.8106440  33.8248900  97.2972040  68.1491410  33.8467660
  96.4338880  67.0885850  33.1973180  87.7453420  66.8393110  42.2437790
  87.3084410  67.0193910  43.0761940  88.3131100  67.5967730  42.1019510
 104.0773510  60.8275410  34.3719010 104.8392420  61.3972060  34.4778700
 104.0927880  60.2602610  35.1427320  88.6153780  59.7365910  43.1430010
  88.9826820  59.6493310  44.0226030  88.0464600  58.9732460  43.0436870
 103.4157640  58.2050290  46.1560480 103.1843730  57.9763040  45.2558430
 103.6762190  59.1249840  46.1105370  88.1669780  56.6475000  47.0488430
  87.2725830  56.6141760  47.3882140  88.7067330  56.8461790  47.8139680
 103.4798700  57.3676130  43.3447750 102.5301410  57.3339670  43.4592740
 103.6611710  58.2776240  43.1097520  89.3343140  55.6177810  32.4546380
  90.0434840  55.1961030  31.9693660  88.6183080  55.6853040  31.8229730
  88.9817300  51.6717140  31.4949030  89.7045430  52.2126080  31.8130250
  89.2541820  51.3980560  30.6190570 102.7908950  56.5409610  35.7620610
 103.2868070  56.3080480  36.5469490 102.5925020  55.7021450  35.3458250
  88.6709490  50.9223330  41.3971650  89.3185680  50.3720710  40.9566810
  89.0911330  51.1766480  42.2187460  88.4241490  51.0779000  44.1396970
  88.0756310  51.5342820  44.9055150  88.0929190  50.1836130  44.2219400
  93.7311890  65.8058190  43.9059880  93.4903250  66.0732750  43.0190400
  94.6714530  65.9763920  43.9610740  95.8446720  67.6672720  41.9874370
  96.1324530  67.4127020  41.1107380  96.3569940  67.1150080  42.5779940
 101.6144800  52.1086020  40.6119970 102.0552890  52.0531120  39.7641570
 101.3452390  53.0244030  40.6830150  94.9477950  53.8249670  38.0786910
  94.1352460  53.4506560  37.7382790  95.4519590  53.0694750  38.3808100
  95.9119080  68.5888820  49.3542570  96.8386390  68.3533090  49.3978530
  95.8969510  69.4160820  48.8728600  93.0982690  51.2533570  49.1184450
  92.8166960  51.7567170  48.3545270  93.4802390  50.4555320  48.7526580
  98.6056300  58.6879620  20.0599660  98.5250350  57.7734230  19.7891370
  98.1920720  59.1846690  19.3539370  89.1632120  55.7380340  16.6027080
  88.2748820  56.0796310  16.5006960  89.4473310  55.5380660  15.7107910
  91.3393510  54.3211840  17.6365460  91.4460260  55.2215570  17.9434220
  90.4285870  54.2729810  17.3460110 100.9912620  53.4436650  19.1076360
 101.8122240  52.9533220  19.1501840 101.0246700  54.0334310  19.8608200
  93.1801240  57.2898210  21.9690640  93.6879460  57.7879180  22.6095660
  93.7114480  56.5133410  21.7930000  91.4637340  51.9296770  26.2354060
  91.4655780  52.4469160  25.4299960  90.6341650  51.4526950  26.2123990
  97.8508430  62.0416080  17.7343960  97.2325700  62.5065530  17.1706680
  98.3631680  62.7343560  18.1513470 101.2274100  55.3837030  21.8803900
 100.5229670  55.6721920  22.4607010 101.5886260  56.1937140  21.5203460
  91.1452670  53.6406730  24.2424510  91.4869480  54.4848780  23.9478380
  90.2068480  53.7890470  24.3589850  87.2191630  62.7272610  15.1083590
  86.8419610  63.2159710  14.3768490  87.4764700  63.3997890  15.7390120
 104.2961020  54.8291820  22.2713110 103.3485930  54.8630800  22.4028540
 104.6211010  55.6430770  22.6562470  94.8280560  51.1289000  20.5669100
  95.1355540  50.5735890  19.8504600  93.8981260  51.2633460  20.3842090
 101.6741040  63.5672510  17.9466730 101.5637370  62.6246840  18.0716150
 101.6709290  63.9288150  18.8329490  97.2161320  59.1937830  17.3029220
  96.2890600  59.1275210  17.5317690  97.3686140  60.1317960  17.1884460
  97.2030400  55.4654830  14.2996380  96.2634070  55.6268790  14.3848840
  97.5213660  56.1840510  13.7532370 101.2458610  60.7558130  17.8064470
 100.6271030  60.4177680  17.1590770 101.2283060  60.1117890  18.5143660
  92.8217960  59.7202570  20.0848950  92.4174960  59.0079820  19.5894850
  92.9081080  59.3755810  20.9736990  91.5346580  56.4945780  23.8647990
  92.0861170  56.6041120  23.0901240  92.0490090  56.8683380  24.5803220
  99.4223310  59.9944940  14.8137220  99.8616590  59.1567370  14.6675040
 100.1351730  60.6274340  14.9001360  93.0069660  65.9586840  29.6838480
  92.9785090  66.3629790  28.8166910  92.8434630  65.0297200  29.5210080
 103.0040450  51.2487750  13.1278260 102.6913110  51.3414580  14.0277330
 103.7652920  51.8268780  13.0775690  89.5222590  58.6147550  17.5855600
  89.4020190  59.3409640  16.9736870  89.2123480  57.8450460  17.1083510
 104.9584480  66.7413940  30.9802650 105.4344200  67.2196830  31.6591730
 105.5791640  66.6731430  30.2548150  88.4055590  63.4862880  19.8030420
  87.9983670  63.6277470  18.9484020  89.2968600  63.2023040  19.6001630
  98.2234470  67.6354790  26.7097470  98.7379140  67.5462800  27.5119900
  97.3803550  67.9814490  27.0025380 100.1988870  67.9210130  16.1381470
 100.0390010  67.6313070  17.0363300 100.0335580  67.1450260  15.6026700
  92.6777250  67.7008660  17.9153090  92.5019730  66.7844200  17.7020890
  91.8232990  68.0595950  18.1550890  99.9015000  65.4297690  14.6979470
  99.2080160  65.4274980  14.0381750 100.6437860  65.0057010  14.2673640
  91.9886250  51.9582620  20.9679270  91.5454400  52.7392160  20.6363790
  92.5471240  52.2812510  21.6750210  98.3710280  57.5461840  29.8010040
  98.6963690  56.7125590  29.4612270  99.1590610  58.0690360  29.9488370
  95.1045070  51.5793320  15.8485100  94.4799250  51.5753190  16.5738410
  95.0175190  50.7124280  15.4521070  91.7800470  57.0816190  18.6960520
  91.5541390  56.8653360  19.6007140  90.9993000  57.5144650  18.3506490
  99.0098230  57.0879560  17.2951170  98.4107120  57.8115360  17.1114790
  99.5577840  57.0256340  16.5127620  94.2199680  57.9801770  29.3620790
  94.1243280  57.0396500  29.2121190  95.0631660  58.2016840  28.9668860
  97.6163100  55.7243100  19.3254450  98.0092670  56.0415300  18.5123140
  97.9779950  54.8454980  19.4398970  89.3510220  54.3915440  27.5154570
  88.9573610  55.2390650  27.7227350  88.6628620  53.7541810  27.7063210
  86.8397500  56.2564020  12.7587370  86.7572170  57.1994780  12.9002360
  86.4880560  56.1138930  11.8799720  94.6395630  54.9903050  21.8257720
  94.6431690  54.5493000  20.9762260  95.5346750  55.3120380  21.9329540
  90.4898010  54.8729540  20.7851930  90.1498060  55.3504770  21.5418980
  89.7275330  54.4194660  20.4253030  94.7015780  55.9915130  14.8164480
  94.8228600  55.9501610  15.7650300  94.3164290  56.8539280  14.6611210
  93.7137280  58.3016270  14.2147780  93.1454180  57.8534520  13.5883690
  94.4226280  58.6609050  13.6812930 102.0914900  51.1814710  28.6714550
 102.4160670  50.4504370  29.1972530 102.1271410  50.8628350  27.7695540
  92.7302970  58.0913470  25.8907340  92.4260040  58.9705450  26.1157700
  93.6849430  58.1513260  25.9264780  91.2584760  62.2974460  16.4874190
  90.4847020  61.7572080  16.3272910  91.9879390  61.7781070  16.1491950
  97.4782680  52.6877780  16.4229970  96.6647290  52.1890950  16.3475280
  97.2844630  53.5276030  16.0066320  97.3991540  61.3648880  28.1669580
  97.3328850  60.4444550  27.9127170  96.7696680  61.4624320  28.8814220
 100.1931070  57.0597430  14.7192130 101.0810690  57.3714660  14.5443470
 100.1636160  56.1869680  14.3272710  91.3022160  61.9654840  20.1253000
  91.8200830  61.1623100  20.0709890  90.8506180  61.9033980  20.9669830
  96.1891660  63.2321120  15.3980300  96.5307360  63.9763350  14.9023620
  95.3604370  63.5452240  15.7605130  97.3308270  64.1869450  27.9173380
  97.3452810  63.2550410  27.6992290  96.6233370  64.2729210  28.5563150
 102.4645340  58.3709270  14.1871990 102.3809060  58.8023490  13.3368430
 103.1839530  58.8307620  14.6198810 103.4932590  65.2251530  16.9154120
 102.8508750  64.5707150  17.1897840 103.1063250  65.6306620  16.1394790
  87.2974750  58.9307470  13.6613300  88.1669600  59.2132270  13.9449220
  86.8065070  59.7443340  13.5462110  94.4609560  60.3180680  17.7821580
  94.9172340  61.1285930  18.0081770  94.1097770  60.0003820  18.6140070
  90.3621340  50.6618330  18.2544100  90.2335970  50.6536230  19.2029020
  89.5383360  51.0001420  17.9035110 101.8829970  64.1167990  13.4530470
 101.6567550  63.3998430  14.0455110 101.4926170  63.8680430  12.6152220
  99.8111870  64.6314270  26.9327390 100.1468110  65.2180960  27.6105310
  98.8912210  64.5006980  27.1625180  87.6646000  68.1434850  14.2274930
  88.0243640  68.7424190  13.5732200  87.5238340  68.6894740  15.0009960
  87.3615270  52.4209450  27.7150800  86.6473790  52.6206370  28.3203410
  87.7810310  51.6449020  28.0865600 101.4646220  62.0339930  15.1144630
 101.1767920  62.4952620  15.9022510 102.2598390  61.5737700  15.3828850
  95.6400450  64.6805600  30.1015450  95.3197320  63.9614840  30.6461140
  94.9658810  65.3560670  30.1751510  93.6814620  65.5266050  15.0448600
  93.6724720  66.2595740  14.4293110  92.7612980  65.2797630  15.1375560
  89.2821260  60.7480940  15.7895360  88.6749210  61.4879840  15.7990660
  89.7570610  60.8380300  14.9633560 102.2216080  53.8688700  16.2739810
 101.5929240  53.9734370  15.5598040 101.7268000  54.0885480  17.0633690
  96.6674220  65.5894290  13.7073790  96.7686200  65.3858280  12.7775770
  95.7675960  65.3352570  13.9121570  94.1900110  56.1474650  17.6897690
  93.4816260  56.6160990  18.1311300  94.4744590  55.4896660  18.3242880
  95.8156040  57.5671350  25.6890220  96.3141290  58.0417170  26.3542070
  95.9578990  56.6434870  25.8960250  98.2215540  52.8725310  19.1293480
  98.0983320  52.8911440  18.1802990  99.1700100  52.9204250  19.2491880
  92.3935130  54.4559730  15.0648400  93.2425660  54.8929880  14.9988590
  92.0266400  54.7679990  15.8920460 103.0222900  53.7839310  26.5318610
 102.5196500  54.5244710  26.8712420 103.8379560  54.1723310  26.2155400
 101.3144910  59.0272490  19.9779970 100.3735050  59.0422720  20.1527660
 101.6288980  58.2408450  20.4240270  91.2926550  60.7092090  13.5383930
  92.0589820  60.5973450  14.1009360  91.3701240  60.0130060  12.8860700
  89.9873310  58.1417160  14.2216820  90.0676900  57.1944670  14.3334220
  90.8793060  58.4724040  14.3277480  87.6733500  64.3586120  17.1992870
  86.7473280  64.6007260  17.1898280  88.1389930  65.1860380  17.0777620
  89.7946300  67.4758620  30.5136940  90.5959030  67.7970670  30.9272340
  89.2798120  67.1154200  31.2356850  93.8990330  67.4642860  13.1476930
  94.6918940  67.7531690  12.6958720  93.3794680  67.0335030  12.4689410
  98.6310930  63.5838490  30.4612350  98.0249090  63.6070090  29.7208100
  98.3265040  62.8521530  30.9979600 100.0611300  67.3118780  29.0721760
 101.0133050  67.2276800  29.0222000  99.9139520  67.9760490  29.7455550
 102.9520500  66.6912990  14.5713670 102.6662010  66.2778130  13.7567850
 102.7540050  67.6200700  14.4514190  94.4167730  62.6846270  13.0119280
  94.3118370  62.0698620  13.7380660  94.2491950  62.1612160  12.2282290
  97.6570460  61.7466300  13.6161270  97.1080560  62.1935600  14.2604010
  98.2789720  61.2415550  14.1398940  93.3245580  60.7057220  15.5126570
  93.7462000  60.5397090  16.3557960  93.4496420  59.8957450  15.0181710
  91.4873000  56.6853770  28.3197550  90.9569460  56.1944720  27.6920890
  92.1561070  57.1137970  27.7855480  95.8373220  59.7294830  12.7603670
  96.3578880  59.0143850  12.3944820  96.4841620  60.3680700  13.0604180
  97.4830190  58.8359890  27.4372510  97.6026400  58.2401030  28.1767350
  98.3424190  58.8729580  27.0173810  92.2204480  56.7790450  12.4584730
  92.0193540  55.9157810  12.8198070  92.0496530  56.6923810  11.5206330
  92.9973710  67.4096720  27.1692400  92.4594800  68.1342780  26.8501100
  93.2507670  66.9327060  26.3789740  94.2498960  55.3781240  28.6948330
  94.8398650  55.0697090  29.3826150  93.4319200  54.9060990  28.8508230
  99.0692390  54.9947050  28.9281350  98.3807910  54.3328590  28.8631340
  99.7898410  54.5485320  29.3729810  99.6992790  51.5898680  14.9871610
  99.9795080  50.7466580  15.3431030  98.9258520  51.8221790  15.5010360
  91.0187280  53.8791070  12.4462610  91.3213180  53.8858500  11.5381760
  91.7581870  53.5288930  12.9430270  95.8535920  68.6447930  27.4279050
  95.7794620  69.5483070  27.7351420  94.9514760  68.3259830  27.4001120
  94.2372210  52.8225690  13.4318810  93.8894210  52.1449680  12.8521260
  94.4384980  52.3615200  14.2462200  96.4021250  67.8106440  15.0505410
  97.2972040  68.1491410  15.0724170  96.4338880  67.0885850  14.4229690
  90.0417410  63.1833490  13.2792410  90.4792280  63.7263160  13.9349990
  90.5265140  62.3580440  13.2888750  87.2563210  65.9722520  20.7312670
  87.5866220  65.1043580  20.4991310  87.6854210  66.1781040  21.5617630
  91.8525130  64.3031530  18.3914640  91.5520670  64.1796500  19.2918550
  91.7462620  63.4440120  17.9830370 104.6217050  64.0827930  13.0941320
 103.7910010  64.1504580  13.5648550 104.7988880  64.9732050  12.7908180
 104.0773510  60.8275410  15.5975520 104.8392420  61.3972060  15.7035210
 104.0927880  60.2602610  16.3683830  87.5777850  59.3513340  19.8283180
  86.9226690  59.0824980  19.1842880  88.4155800  59.2417820  19.3785160
 104.1292680  61.1209780  12.7548040 104.4041520  62.0288660  12.6267260
 103.9403420  61.0572310  13.6910030 100.5268290  54.1454630  14.0501670
 100.9453170  53.9585610  13.2098330 100.2204350  53.2933680  14.3604600
 104.0258020  59.0578770  17.7477470 103.6501620  58.2906700  17.3158760
 103.2961140  59.4401470  18.2352400  88.1669780  56.6475000  28.2744940
  87.2725830  56.6141760  28.6138650  88.7067330  56.8461790  29.0396190
  86.7915930  56.5612270  15.7708510  85.8880010  56.8242470  15.5960170
  87.2756550  56.8323440  14.9908470 103.3008980  57.2836260  21.0484710
 103.8246460  56.7898910  20.4174880 103.8868400  57.4186620  21.7932280
  89.3343140  55.6177810  13.6802890  90.0434840  55.1961030  13.1950170
  88.6183080  55.6853040  13.0486240  88.9817300  51.6717140  12.7205540
  89.7045430  52.2126080  13.0386760  89.2541820  51.3980560  11.8447080
 102.7908950  56.5409610  16.9877120 103.2868070  56.3080480  17.7726000
 102.5925020  55.7021450  16.5714760 104.2196110  55.1770560  19.5214800
 104.1095390  55.0226600  20.4597070 104.9803700  54.6491500  19.2790210
 105.1086380  53.0078480  12.7620940 106.0335690  52.8759660  12.5539230
 105.0862170  53.0871300  13.7157390 105.1824870  53.7789140  15.3877650
 104.3876370  53.7134260  15.9170560 105.3868150  54.7139780  15.3763000
 102.1243290  67.8180690  19.3816040 102.7202360  67.4965260  18.7050460
 102.3821440  67.3452510  20.1729310  88.4241490  51.0779000  25.3653480
  88.0756310  51.5342820  26.1311660  88.0929190  50.1836130  25.4475910
  89.0962130  50.6055200  28.6404250  89.6445120  50.4243250  27.8770360
  89.1617440  49.8149310  29.1760560 102.6755500  68.4675990  23.2113770
 102.2158470  69.2191800  22.8371790 102.0467960  67.7482460  23.1528570
 103.4783370  51.7401260  19.8485300 103.4171770  50.7962480  19.7016320
 104.2575400  51.8481350  20.3938760  87.7836120  67.8793620  18.8109250
  87.6158160  67.2464300  19.5091140  86.9170630  68.0853020  18.4603440
  88.4064140  51.7110400  16.3141110  89.1643500  51.8239280  15.7405140
  87.9441310  52.5479600  16.2684540  94.9477950  53.8249670  19.3043420
  94.1352460  53.4506560  18.9639300  95.4519590  53.0694750  19.6064610
 102.5937530  50.8913680  15.8166770 102.7888160  51.7897130  16.0834200
 101.8067400  50.6600760  16.3099720  89.3898820  66.5726850  16.2559390
  88.8646440  66.9534880  15.5521350  89.3143400  67.1977620  16.9769100
  90.7789290  52.2374450  14.8543080  91.3082050  51.4504250  14.7251030
  91.4117610  52.9165640  15.0878610  92.9727130  51.9749590  17.9088470
  92.3429870  51.2736900  18.0758600  92.4332270  52.7353720  17.6921630
  95.9119080  68.5888820  30.5799080  96.8386390  68.3533090  30.6235040
  95.8969510  69.4160820  30.0985110 104.1464140  68.1314390  17.5773330
 104.3216330  67.4452130  16.9334250 103.4485710  68.6561440  17.1850000
  91.9891790  68.5209230  15.1308640  92.7210610  68.2368510  14.5832530
  92.2485460  68.2822510  16.0208020  91.1506580  64.6373960  15.1354970
  90.5215460  65.1059060  15.6840800  91.2654410  63.7923180  15.5701160
  99.6998150  50.6687150  30.9221430  99.5863600  50.9881760  31.8172950
 100.5167890  51.0699660  30.6258710 102.4796640  67.8158680  30.4040120
 103.2721960  67.3207910  30.1966080 102.7729790  68.4948820  31.0115730
  96.7374340  60.4658640   3.1665440  95.9616440  59.9859080   3.4564010
  97.3887270  59.7864290   2.9921600  90.7540170  60.7778450   4.0441200
  89.9225050  60.5227160   4.4437710  91.3621150  60.8489220   4.7799120
 100.7581770  64.8718830   1.9464570 100.2963300  64.1006070   2.2751740
 101.5707320  64.8984900   2.4517020  90.7341430  64.8118540   4.2399220
  91.0369470  63.9216280   4.0609440  91.4785020  65.3688760   4.0121470
  87.1265130  58.3385990   3.7123290  87.6981240  57.5708190   3.7126930
  87.1266670  58.6374750   2.8029900  96.1783330  63.1415830   3.1735600
  96.1091610  62.2005770   3.0124730  96.9403190  63.2317240   3.7458170
  88.3690000  53.7470350   5.4992220  88.1892840  52.8496100   5.7794980
  87.9670080  54.2942220   6.1739170  97.2088500  55.9486210   3.4004530
  97.5853320  55.0758090   3.2878200  97.1108010  56.2844910   2.5094970
  88.9876670  56.2430850   4.1074560  89.6686780  56.5069220   4.7261960
  88.6724720  55.4031720   4.4412570  93.1801240  57.2898210   3.1947150
  93.6879460  57.7879180   3.8352170  93.7114480  56.5133410   3.0186510
 105.2812170  55.4603400   6.8976500 104.5764340  55.8485110   6.3791610
 105.5470090  56.1553690   7.4997430  91.4637340  51.9296770   7.4610570
  91.4655780  52.4469160   6.6556470  90.6341650  51.4526950   7.4380500
  92.7140190  61.5691950   5.6384070  92.3809570  62.1960870   6.2805140
  92.8906870  62.0953830   4.8585740 101.2274100  55.3837030   3.1060410
 100.5229670  55.6721920   3.6863520 101.5886260  56.1937140   2.7459970
  91.1452670  53.6406730   5.4681020  91.4869480  54.4848780   5.1734890
  90.2068480  53.7890470   5.5846360  91.9259290  63.5372750   7.4533250
  92.5433290  64.2123830   7.1717700  91.0652410  63.9460730   7.3620750
 102.8436880  65.0012160   5.3687890 102.1600400  65.6711270   5.3604560
 103.3831170  65.1992810   4.6032750 104.2961020  54.8291820   3.4969620
 103.3485930  54.8630800   3.6285050 104.6211010  55.6430770   3.8818980
 100.3795620  66.8456290   4.0833070 100.3922780  66.4418580   3.2155330
  99.8270840  67.6203580   3.9794500  99.7781060  61.7486130   5.4115680
 100.1949850  61.5346240   4.5769140 100.5020880  62.0058920   5.9824300
 103.7243160  60.1473350   5.5031920 102.8961790  60.2166440   5.0282050
 104.3193640  60.7327660   5.0347750 100.6885170  56.9342670   6.4486790
 100.2756350  57.7596380   6.7026780  99.9561120  56.3487710   6.2563150
  93.2899660  63.4070130   3.4744670  92.9927950  62.8015600   2.7952450
  94.2399480  63.4447440   3.3634030  91.5346580  56.4945780   5.0904500
  92.0861170  56.6041120   4.3157750  92.0490090  56.8683380   5.8059730
 101.3785270  66.9802000   7.1367770 100.9015830  67.7874190   6.9440380
 100.6947060  66.3280330   7.2893980  92.3818090  63.1451820  10.1252470
  91.4846620  63.3691790  10.3725870  92.4070960  63.2686760   9.1763870
  91.2089310  60.0165140   8.7009840  91.0697080  60.8887940   9.0697240
  90.3270670  59.6737950   8.5557780  93.0069660  65.9586840  10.9094990
  92.9785090  66.3629790  10.0423420  92.8434630  65.0297200  10.7466590
 104.9584480  66.7413940  12.2059160 105.4344200  67.2196830  12.8848240
 105.5791640  66.6731430  11.4804660  87.1607960  61.7862690   4.6180750
  87.2388380  61.9211460   3.6736470  87.7749640  61.0778580   4.8108870
 104.3617730  63.9326790   9.3659170 104.4880790  63.6938670   8.4476350
 104.4039110  63.1011330   9.8381250  98.2234470  67.6354790   7.9353980
  98.7379140  67.5462800   8.7376410  97.3803550  67.9814490   8.2281890
 104.2141740  55.9859250  10.3308910 103.5986010  56.4938920   9.8024370
 103.8938160  55.0857580  10.2734850  87.2167480  62.8276860   7.1575210
  87.3798520  62.3582220   6.3394580  87.6819930  62.3200420   7.8224050
  91.9886250  51.9582620   2.1935780  91.5454400  52.7392160   1.8620300
  92.5471240  52.2812510   2.9006720  96.2756060  54.8251140   7.7971100
  95.8135430  55.0334160   8.6091040  95.8734170  54.0110490   7.4941770
 101.2760570  56.0460090   8.9267760 100.4254160  55.7465840   9.2476830
 101.1162360  56.2902100   8.0151580  98.3710280  57.5461840  11.0266550
  98.6963690  56.7125590  10.6868780  99.1590610  58.0690360  11.1744880
  94.0262150  52.5029950   4.0525380  94.3234480  53.4092780   3.9717400
  94.5747710  52.0148730   3.4384950  94.2199680  57.9801770  10.5877300
  94.1243280  57.0396500  10.4377700  95.0631660  58.2016840  10.1925370
  89.3510220  54.3915440   8.7411080  88.9573610  55.2390650   8.9483860
  88.6628620  53.7541810   8.9319720  95.9255270  54.4750410  11.8107820
  95.2353590  54.2822610  12.4453910  96.6687570  54.7585050  12.3432120
  86.6527270  52.3143900   2.7741160  86.3640320  52.8846760   3.4866140
  87.3973030  51.8348350   3.1372390  98.2018240  58.3148850   4.6461740
  97.4699360  58.8235660   4.9951840  97.8042580  57.4978830   4.3450520
  94.6395630  54.9903050   3.0514230  94.6431690  54.5493000   2.2018770
  95.5346750  55.3120380   3.1586050  90.4898010  54.8729540   2.0108440
  90.1498060  55.3504770   2.7675490  89.7275330  54.4194660   1.6509540
  98.6644150  53.7682530   4.0584680  98.6816890  54.2191180   4.9026530
  98.4159730  52.8688170   4.2718120 102.0914900  51.1814710   9.8971060
 102.4160670  50.4504370  10.4229040 102.1271410  50.8628350   8.9952050
  88.7906460  62.2028290   9.3171020  88.4061250  61.5621960   9.9153980
  89.1018650  62.9064410   9.8865750  94.9403600  59.0504830   4.7979640
  95.3073730  58.5763400   5.5440980  94.7508660  59.9246400   5.1387980
  92.7302970  58.0913470   7.1163850  92.4260040  58.9705450   7.3414210
  93.6849430  58.1513260   7.1521290 102.0172740  61.2939820   3.5057090
 102.7371860  61.7895110   3.1153200 101.8154560  60.6157710   2.8610960
  97.3991540  61.3648880   9.3926090  97.3328850  60.4444550   9.1383680
  96.7696680  61.4624320  10.1070730  88.7866700  58.9316210   8.2635210
  88.4281640  59.5970060   8.8508550  88.4921260  58.0999760   8.6347830
  91.9879820  59.3900450  11.1474760  91.6879960  59.5357630  10.2502580
  92.7591060  58.8305740  11.0548150  97.3308270  64.1869450   9.1429890
  97.3452810  63.2550410   8.9248800  96.6233370  64.2729210   9.7819660
 103.5419480  60.8276790   8.4898470 102.8167670  61.4205570   8.2927860
 104.0694940  60.8200330   7.6911840  96.7642170  65.8287020   6.2370390
  97.4084390  66.0346400   6.9143810  97.1271610  65.0675420   5.7841240
  98.0374250  63.8319370   4.9547840  98.6796480  63.1312530   5.0680010
  98.5623600  64.6117810   4.7744730  99.8111870  64.6314270   8.1583900
 100.1468110  65.2180960   8.8361820  98.8912210  64.5006980   8.3881690
  87.3615270  52.4209450   8.9407310  86.6473790  52.6206370   9.5459920
  87.7810310  51.6449020   9.3122110  87.6487860  66.4089710   9.9273840
  87.7578980  65.4684450   9.7869230  86.9968420  66.6744460   9.2787570
  95.6400450  64.6805600  11.3271960  95.3197320  63.9614840  11.8717650
  94.9658810  65.3560670  11.4008020  98.8554050  54.9131760   6.6908760
  99.2234870  54.0926970   7.0188330  97.9952250  54.9733650   7.1064410
  95.8156040  57.5671350   6.9146730  96.3141290  58.0417170   7.5798580
  95.9578990  56.6434870   7.1216760 103.0222900  53.7839310   7.7575120
 102.5196500  54.5244710   8.0968930 103.8379560  54.1723310   7.4411910
 103.3170490  66.1981340   2.8790740 103.4417910  67.0212510   3.3514550
 104.1836050  65.9872070   2.5314890  90.7888020  68.2912550   2.5507870
  91.5250500  67.7428010   2.8216440  91.1728940  69.1568560   2.4113860
  89.7946300  67.4758620  11.7393450  90.5959030  67.7970670  12.1528850
  89.2798120  67.1154200  12.4613360  98.6310930  63.5838490  11.6868860
  98.0249090  63.6070090  10.9464610  98.3265040  62.8521530  12.2236110
 100.0611300  67.3118780  10.2978270 101.0133050  67.2276800  10.2478510
  99.9139520  67.9760490  10.9712060  87.5144110  59.9632080  10.6829500
  88.0183130  59.3839360  11.2545730  86.7751530  60.2472310  11.2205870
  94.5682050  61.3703070  10.2165020  93.8027720  61.9388070  10.1319690
  94.7498010  61.0779280   9.3233250 101.7105400  63.1008400  10.7740040
 102.4514870  63.4384160  10.2707500 100.9478080  63.2700460  10.2209810
  89.5467190  58.1061670  11.5779570  89.5872530  57.8075540  12.4864800
  90.4012690  58.5069280  11.4187090  91.4873000  56.6853770   9.5454060
  90.9569460  56.1944720   8.9177400  92.1561070  57.1137970   9.0111990
 100.3851060  61.1523230   9.3095250 100.7992080  61.3068310  10.1585670
  99.4502060  61.2778450   9.4721030 100.8573230  58.4919390  11.3134400
 101.4394000  57.7371710  11.2254880 101.0335000  59.0226830  10.5365880
  91.9745300  53.6516140   9.6251350  91.8802170  53.0336890   8.9002220
  91.3942690  54.3782430   9.3981260  94.7406740  52.2089380   6.6578740
  94.2924040  52.2313640   5.8124290  94.1071940  51.8108400   7.2549040
  95.1466290  61.1043710   7.2791180  95.5654400  61.9476440   7.1067420
  94.2274920  61.2415750   7.0497960  97.4830190  58.8359890   8.6629020
  97.6026400  58.2401030   9.4023860  98.3424190  58.8729580   8.2430320
  99.8218090  59.3897080   7.2391530  99.2953310  59.9139700   6.6356670
 100.1649430  60.0224470   7.8701260  92.9973710  67.4096720   8.3948910
  92.4594800  68.1342780   8.0757610  93.2507670  66.9327060   7.6046250
  94.2498960  55.3781240   9.9204840  94.8398650  55.0697090  10.6082660
  93.4319200  54.9060990  10.0764740  99.0692390  54.9947050  10.1537860
  98.3807910  54.3328590  10.0887850  99.7898410  54.5485320  10.5986320
  95.8535920  68.6447930   8.6535560  95.7794620  69.5483070   8.9607930
  94.9514760  68.3259830   8.6257630  87.2563210  65.9722520   1.9569180
  87.5866220  65.1043580   1.7247820  87.6854210  66.1781040   2.7874140
  87.7453420  66.8393110   4.6950810  87.3084410  67.0193910   5.5274960
  88.3131100  67.5967730   4.5532530 103.3815600  66.3410110   8.9828120
 102.7817590  66.4002670   8.2392040 103.5109500  65.4015090   9.1124970
 102.0667240  63.0662090   7.0804280 101.2527080  63.4959250   7.3430070
 102.4741440  63.6780500   6.4673330  88.6153780  59.7365910   5.5943030
  88.9826820  59.6493310   6.4739050  88.0464600  58.9732460   5.4949890
 103.4157640  58.2050290   8.6073500 103.1843730  57.9763040   7.7071450
 103.6762190  59.1249840   8.5618390  88.1669780  56.6475000   9.5001450
  87.2725830  56.6141760   9.8395160  88.7067330  56.8461790  10.2652700
 101.8545710  53.4306720  11.3853200 102.7315890  53.4390120  11.7687200
 101.8666550  52.6937560  10.7745550 103.3008980  57.2836260   2.2741220
 103.8246460  56.7898910   1.6431390 103.8868400  57.4186620   3.0188790
 103.4798700  57.3676130   5.7960770 102.5301410  57.3339670   5.9105760
 103.6611710  58.2776240   5.5610540  88.6709490  50.9223330   3.8484670
  89.3185680  50.3720710   3.4079830  89.0911330  51.1766480   4.6700480
 102.5661830  51.1164690   7.2054310 103.2034050  51.7298830   7.5713500
 102.7136720  51.1525350   6.2603540  88.4241490  51.0779000   6.5909990
  88.0756310  51.5342820   7.3568170  88.0929190  50.1836130   6.6732420
  90.0305860  64.2498600  10.7563180  89.9875490  63.8791510  11.6377640
  90.1616870  65.1876170  10.8965000  93.7311890  65.8058190   6.3572900
  93.4903250  66.0732750   5.4703420  94.6714530  65.9763920   6.4123760
  95.9366310  52.2690880  10.1129410  95.8755200  52.8612710  10.8624820
  96.8766690  52.1616840   9.9679670  98.5740870  51.9260940   9.7521700
  99.1881280  52.2440230   9.0902780  99.1190430  51.4409530  10.3717560
 104.9916050  67.8252570   7.1583540 104.4974330  68.2221440   6.4410670
 104.3829340  67.2001780   7.5520820  89.0962130  50.6055200   9.8660760
  89.6445120  50.4243250   9.1026870  89.1617440  49.8149310  10.4017070
  89.8693890  67.1960850   7.8760960  89.2754210  67.0645550   8.6151000
  89.8617730  66.3598990   7.4103060  99.3148910  50.4893080   6.0790990
  98.4408750  50.8228190   5.8763920  99.2059660  50.0166260   6.9042860
 100.2220890  52.6963950   7.4632710  99.8934250  51.8815710   7.0834440
 101.1703190  52.6533760   7.3398400 102.6755500  68.4675990   4.4370280
 102.2158470  69.2191800   4.0628300 102.0467960  67.7482460   4.3785080
  89.5006120  64.5619230   6.8269000  88.7740180  63.9424520   6.7594950
  89.5615270  64.9559840   5.9567080  93.1051220  66.7764230   3.6118410
  93.6216240  66.1651590   3.0866670  93.7548600  67.2793010   4.1029420
  95.8446720  67.6672720   4.4387390  96.1324530  67.4127020   3.5620400
  96.3569940  67.1150080   5.0292960  97.0623730  51.4062920   5.0183900
  96.2795520  51.8808420   5.2980660  96.7686660  50.5017750   4.9097080
 101.6144800  52.1086020   3.0632990 102.0552890  52.0531120   2.2154590
 101.3452390  53.0244030   3.1343170  99.4502930  50.4892120   1.7683000
 100.0532300  51.0612330   2.2431520  98.7095920  51.0531560   1.5456900
  95.9119080  68.5888820  11.8055590  96.8386390  68.3533090  11.8491550
  95.8969510  69.4160820  11.3241620  93.0982690  51.2533570  11.5697470
  92.8166960  51.7567170  10.8058290  93.4802390  50.4555320  11.2039600
  99.6998150  50.6687150  12.1477940  99.5863600  50.9881760  13.0429460
 100.5167890  51.0699660  11.8515220 102.4796640  67.8158680  11.6296630
 103.2721960  67.3207910  11.4222590 102.7729790  68.4948820  12.2372240
  98.6056300  39.9136130 151.4804090  98.5250350  38.9990740 151.2095800
  98.1920720  40.4103200 150.7743800  96.7374340  41.6915150 153.3613360
  95.9616440  41.2115590 153.6511930  97.3887270  41.0120800 153.1869520
 100.7581770  46.0975340 152.1412490 100.2963300  45.3262580 152.4699660
 101.5707320  46.1241410 152.6464940  90.7341430  46.0375050 154.4347140
  91.0369470  45.1472790 154.2557360  91.4785020  46.5945270 154.2069390
  89.1632120  36.9636850 148.0231510  88.2748820  37.3052820 147.9211390
  89.4473310  36.7637170 147.1312340  87.1265130  39.5642500 153.9071210
  87.6981240  38.7964700 153.9074850  87.1266670  39.8631260 152.9977820
  96.9845080  48.3833350 151.7616480  96.3656520  48.8390850 151.1910920
  97.8396860  48.5384810 151.3606180  96.1783330  44.3672340 153.3683520
  96.1091610  43.4262280 153.2072650  96.9403190  44.4573750 153.9406090
  97.2088500  37.1742720 153.5952450  97.5853320  36.3014600 153.4826120
  97.1108010  37.5101420 152.7042890  91.3393510  35.5468350 149.0569890
  91.4460260  36.4472080 149.3638650  90.4285870  35.4986320 148.7664540
 100.9912620  34.6693160 150.5280790 101.8122240  34.1789730 150.5706270
 101.0246700  35.2590820 151.2812630  93.1801240  38.5154720 153.3895070
  93.6879460  39.0135690 154.0300090  93.7114480  37.7389920 153.2134430
  97.8508430  43.2672590 149.1548390  97.2325700  43.7322040 148.5911110
  98.3631680  43.9600070 149.5717900 101.2274100  36.6093540 153.3008330
 100.5229670  36.8978430 153.8811440 101.5886260  37.4193650 152.9407890
  87.2191630  43.9529120 146.5288020  86.8419610  44.4416220 145.7972920
  87.4764700  44.6254400 147.1594550 104.2961020  36.0548330 153.6917540
 103.3485930  36.0887310 153.8232970 104.6211010  36.8687280 154.0766900
  94.8280560  32.3545510 151.9873530  95.1355540  31.7992400 151.2709030
  93.8981260  32.4889970 151.8046520 100.3795620  48.0712800 154.2780990
 100.3922780  47.6675090 153.4103250  99.8270840  48.8460090 154.1742420
 101.6741040  44.7929020 149.3671160 101.5637370  43.8503350 149.4920580
 101.6709290  45.1544660 150.2533920  97.2161320  40.4194340 148.7233650
  96.2890600  40.3531720 148.9522120  97.3686140  41.3574470 148.6088890
  97.2030400  36.6911340 145.7200810  96.2634070  36.8525300 145.8053270
  97.5213660  37.4097020 145.1736800 101.2458610  41.9814640 149.2268900
 100.6271030  41.6434190 148.5795200 101.2283060  41.3374400 149.9348090
  92.8217960  40.9459080 151.5053380  92.4174960  40.2336330 151.0099280
  92.9081080  40.6012320 152.3941420  93.2899660  44.6326640 153.6692590
  92.9927950  44.0272110 152.9900370  94.2399480  44.6703950 153.5581950
  99.4223310  41.2201450 146.2341650  99.8616590  40.3823880 146.0879470
 100.1351730  41.8530850 146.3205790  97.5318690  46.1597520 150.2022890
  97.9714600  46.9021850 149.7878280  97.4705580  46.4024090 151.1261850
 103.0040450  32.4744260 144.5482690 102.6913110  32.5671090 145.4481760
 103.7652920  33.0525290 144.4980120  89.5222590  39.8404060 149.0060030
  89.4020190  40.5666150 148.3941300  89.2123480  39.0706970 148.5287940
  88.4055590  44.7119390 151.2234850  87.9983670  44.8533980 150.3688450
  89.2968600  44.4279550 151.0206060 100.1988870  49.1466640 147.5585900
 100.0390010  48.8569580 148.4567730 100.0335580  48.3706770 147.0231130
  92.6777250  48.9265170 149.3357520  92.5019730  48.0100710 149.1225320
  91.8232990  49.2852460 149.5755320  99.9015000  46.6554200 146.1183900
  99.2080160  46.6531490 145.4586180 100.6437860  46.2313520 145.6878070
  99.4664930  48.2816910 150.1932390  99.9221880  47.5006290 150.5071010
  99.8057450  48.9923730 150.7373570  91.9886250  33.1839130 152.3883700
  91.5454400  33.9648670 152.0568220  92.5471240  33.5069020 153.0954640
  95.1045070  32.8049830 147.2689530  94.4799250  32.8009700 147.9942840
  95.0175190  31.9380790 146.8725500  94.0262150  33.7286460 154.2473300
  94.3234480  34.6349290 154.1665320  94.5747710  33.2405240 153.6332870
  91.7800470  38.3072700 150.1164950  91.5541390  38.0909870 151.0211570
  90.9993000  38.7401160 149.7710920  99.0098230  38.3136070 148.7155600
  98.4107120  39.0371870 148.5319220  99.5577840  38.2512850 147.9332050
  97.6163100  36.9499610 150.7458880  98.0092670  37.2671810 149.9327570
  97.9779950  36.0711490 150.8603400  86.6527270  33.5400410 152.9689080
  86.3640320  34.1103270 153.6814060  87.3973030  33.0604860 153.3320310
  86.8397500  37.4820530 144.1791800  86.7572170  38.4251290 144.3206790
  86.4880560  37.3395440 143.3004150  94.6395630  36.2159560 153.2462150
  94.6431690  35.7749510 152.3966690  95.5346750  36.5376890 153.3533970
  90.4898010  36.0986050 152.2056360  90.1498060  36.5761280 152.9623410
  89.7275330  35.6451170 151.8457460  94.7015780  37.2171640 146.2368910
  94.8228600  37.1758120 147.1854730  94.3164290  38.0795790 146.0815640
  93.7137280  39.5272780 145.6352210  93.1454180  39.0791030 145.0088120
  94.4226280  39.8865560 145.1017360  87.8044090  35.0205030 151.1221030
  87.5191010  34.6560700 151.9599650  87.7422950  34.2885490 150.5084170
  91.2584760  43.5230970 147.9078620  90.4847020  42.9828590 147.7477340
  91.9879390  43.0037580 147.5696380 102.0172740  42.5196330 153.7005010
 102.7371860  43.0151620 153.3101120 101.8154560  41.8414220 153.0558880
  97.4782680  33.9134290 147.8434400  96.6647290  33.4147460 147.7679710
  97.2844630  34.7532540 147.4270750 100.1931070  38.2853940 146.1396560
 101.0810690  38.5971170 145.9647900 100.1636160  37.4126190 145.7477140
  91.3022160  43.1911350 151.5457430  91.8200830  42.3879610 151.4914320
  90.8506180  43.1290490 152.3874260  96.1891660  44.4577630 146.8184730
  96.5307360  45.2019860 146.3228050  95.3604370  44.7708750 147.1809560
 102.4645340  39.5965780 145.6076420 102.3809060  40.0280000 144.7572860
 103.1839530  40.0564130 146.0403240 103.4932590  46.4508040 148.3358550
 102.8508750  45.7963660 148.6102270 103.1063250  46.8563130 147.5599220
  99.0719070  43.7793470 152.1830240  99.4242890  43.1821600 151.5231610
  98.1881400  43.4537700 152.3538490  95.1582350  44.5391160 149.5900650
  95.8453480  45.0860370 149.9708240  94.3714770  45.0831890 149.6250260
  87.2974750  40.1563980 145.0817730  88.1669600  40.4388780 145.3653650
  86.8065070  40.9699850 144.9666540  94.4609560  41.5437190 149.2026010
  94.9172340  42.3542440 149.4286200  94.1097770  41.2260330 150.0344500
  90.3621340  31.8874840 149.6748530  90.2335970  31.8792740 150.6233450
  89.5383360  32.2257930 149.3239540 101.8829970  45.3424500 144.8734900
 101.6567550  44.6254940 145.4659540 101.4926170  45.0936940 144.0356650
  87.6646000  49.3691360 145.6479360  88.0243640  49.9680700 144.9936630
  87.5238340  49.9151250 146.4214390 101.4646220  43.2596440 146.5349060
 101.1767920  43.7209130 147.3226940 102.2598390  42.7994210 146.8033280
  93.6814620  46.7522560 146.4653030  93.6724720  47.4852250 145.8497540
  92.7612980  46.5054140 146.5579990  89.2821260  41.9737450 147.2099790
  88.6749210  42.7136350 147.2195090  89.7570610  42.0636810 146.3837990
 102.2216080  35.0945210 147.6944240 101.5929240  35.1990880 146.9802470
 101.7268000  35.3141990 148.4838120  96.6674220  46.8150800 145.1278220
  96.7686200  46.6114790 144.1980200  95.7675960  46.5609080 145.3326000
  94.1900110  37.3731160 149.1102120  93.4816260  37.8417500 149.5515730
  94.4744590  36.7153170 149.7447310  98.2215540  34.0981820 150.5497910
  98.0983320  34.1167950 149.6007420  99.1700100  34.1460760 150.6696310
  95.3092330  49.3337120 149.8225890  95.5633830  49.2958510 148.9005260
  94.3604810  49.2070450 149.8154140  92.3935130  35.6816240 146.4852830
  93.2425660  36.1186390 146.4193020  92.0266400  35.9936500 147.3124890
 101.3144910  40.2529000 151.3984400 100.3735050  40.2679230 151.5732090
 101.6288980  39.4664960 151.8444700  91.2926550  41.9348600 144.9588360
  92.0589820  41.8229960 145.5213790  91.3701240  41.2386570 144.3065130
  89.9873310  39.3673670 145.6421250  90.0676900  38.4201180 145.7538650
  90.8793060  39.6980550 145.7481910 103.3170490  47.4237850 153.0738660
 103.4417910  48.2469020 153.5462470 104.1836050  47.2128580 152.7262810
  90.7888020  49.5169060 152.7455790  91.5250500  48.9684520 153.0164360
  91.1728940  50.3825070 152.6061780  87.6733500  45.5842630 148.6197300
  86.7473280  45.8263770 148.6102710  88.1389930  46.4116890 148.4982050
  93.8990330  48.6899370 144.5681360  94.6918940  48.9788200 144.1163150
  93.3794680  48.2591540 143.8893840 102.9520500  47.9169500 145.9918100
 102.6662010  47.5034640 145.1772280 102.7540050  48.8457210 145.8718620
  94.4167730  43.9102780 144.4323710  94.3118370  43.2955130 145.1585090
  94.2491950  43.3868670 143.6486720  97.6570460  42.9722810 145.0365700
  97.1080560  43.4192110 145.6808440  98.2789720  42.4672060 145.5603370
  93.3245580  41.9313730 146.9331000  93.7462000  41.7653600 147.7762390
  93.4496420  41.1213960 146.4386140  95.8373220  40.9551340 144.1808100
  96.3578880  40.2400360 143.8149250  96.4841620  41.5937210 144.4808610
  92.2204480  38.0046960 143.8789160  92.0193540  37.1414320 144.2402500
  92.0496530  37.9180320 142.9410760  99.6992790  32.8155190 146.4076040
  99.9795080  31.9723090 146.7635460  98.9258520  33.0478300 146.9214790
  91.0187280  35.1047580 143.8667040  91.3213180  35.1115010 142.9586190
  91.7581870  34.7545440 144.3634700  94.2372210  34.0482200 144.8523240
  93.8894210  33.3706190 144.2725690  94.4384980  33.5871710 145.6666630
  96.4021250  49.0362950 146.4709840  97.2972040  49.3747920 146.4928600
  96.4338880  48.3142360 145.8434120  90.0417410  44.4090000 144.6996840
  90.4792280  44.9519670 145.3554420  90.5265140  43.5836950 144.7093180
  87.2563210  47.1979030 152.1517100  87.5866220  46.3300090 151.9195740
  87.6854210  47.4037550 152.9822060  91.8525130  45.5288040 149.8119070
  91.5520670  45.4053010 150.7122980  91.7462620  44.6696630 149.4034800
 104.6217050  45.3084440 144.5145750 103.7910010  45.3761090 144.9852980
 104.7988880  46.1988560 144.2112610 104.0773510  42.0531920 147.0179950
 104.8392420  42.6228570 147.1239640 104.0927880  41.4859120 147.7888260
  87.5777850  40.5769850 151.2487610  86.9226690  40.3081490 150.6047310
  88.4155800  40.4674330 150.7989590 105.0833480  42.9082020 151.8621880
 105.4542310  42.1249340 151.4557850 105.7235410  43.5971120 151.6839180
 104.1292680  42.3466290 144.1752470 104.4041520  43.2545170 144.0471690
 103.9403420  42.2828820 145.1114460 100.5268290  35.3711140 145.4706100
 100.9453170  35.1842120 144.6302760 100.2204350  34.5190190 145.7809030
 104.0258020  40.2835280 149.1681900 103.6501620  39.5163210 148.7363190
 103.2961140  40.6657980 149.6556830  86.7915930  37.7868780 147.1912940
  85.8880010  38.0498980 147.0164600  87.2756550  38.0579950 146.4112900
 103.3008980  38.5092770 152.4689140 103.8246460  38.0155420 151.8379310
 103.8868400  38.6443130 153.2136710  89.3343140  36.8434320 145.1007320
  90.0434840  36.4217540 144.6154600  88.6183080  36.9109550 144.4690670
  88.9817300  32.8973650 144.1409970  89.7045430  33.4382590 144.4591190
  89.2541820  32.6237070 143.2651510 102.7908950  37.7666120 148.4081550
 103.2868070  37.5336990 149.1930430 102.5925020  36.9277960 147.9919190
 104.2196110  36.4027070 150.9419230 104.1095390  36.2483110 151.8801500
 104.9803700  35.8748010 150.6994640 105.1086380  34.2334990 144.1825370
 106.0335690  34.1016170 143.9743660 105.0862170  34.3127810 145.1361820
 105.1824870  35.0045650 146.8082080 104.3876370  34.9390770 147.3374990
 105.3868150  35.9396290 146.7967430 102.1243290  49.0437200 150.8020470
 102.7202360  48.7221770 150.1254890 102.3821440  48.5709020 151.5933740
  93.1051220  48.0020740 153.8066330  93.6216240  47.3908100 153.2814590
  93.7548600  48.5049520 154.2977340 101.6144800  33.3342530 153.2580910
 102.0552890  33.2787630 152.4102510 101.3452390  34.2500540 153.3291090
 103.4783370  32.9657770 151.2689730 103.4171770  32.0218990 151.1220750
 104.2575400  33.0737860 151.8143190  87.7836120  49.1050130 150.2313680
  87.6158160  48.4720810 150.9295570  86.9170630  49.3109530 149.8807870
  88.4064140  32.9366910 147.7345540  89.1643500  33.0495790 147.1609570
  87.9441310  33.7736110 147.6888970  94.9477950  35.0506180 150.7247850
  94.1352460  34.6763070 150.3843730  95.4519590  34.2951260 151.0269040
  99.4502930  31.7148630 151.9630920 100.0532300  32.2868840 152.4379440
  98.7095920  32.2788070 151.7404820 102.5937530  32.1170190 147.2371200
 102.7888160  33.0153640 147.5038630 101.8067400  31.8857270 147.7304150
  89.3898820  47.7983360 147.6763820  88.8646440  48.1791390 146.9725780
  89.3143400  48.4234130 148.3973530  90.7789290  33.4630960 146.2747510
  91.3082050  32.6760760 146.1455460  91.4117610  34.1422150 146.5083040
  92.9727130  33.2006100 149.3292900  92.3429870  32.4993410 149.4963030
  92.4332270  33.9610230 149.1126060 104.1464140  49.3570900 148.9977760
 104.3216330  48.6708640 148.3538680 103.4485710  49.8817950 148.6054430
  91.9891790  49.7465740 146.5513070  92.7210610  49.4625020 146.0036960
  92.2485460  49.5079020 147.4412450  91.1506580  45.8630470 146.5559400
  90.5215460  46.3315570 147.1045230  91.2654410  45.0179690 146.9905590
  98.6056300  39.9136130 132.7060600  98.5250350  38.9990740 132.4352310
  98.1920720  40.4103200 132.0000310  96.7374340  41.6915150 134.5869870
  95.9616440  41.2115590 134.8768440  97.3887270  41.0120800 134.4126030
  90.7540170  42.0034960 135.4645630  89.9225050  41.7483670 135.8642140
  91.3621150  42.0745730 136.2003550  90.7341430  46.0375050 135.6603650
  91.0369470  45.1472790 135.4813870  91.4785020  46.5945270 135.4325900
  89.1632120  36.9636850 129.2488020  88.2748820  37.3052820 129.1467900
  89.4473310  36.7637170 128.3568850  87.1265130  39.5642500 135.1327720
  87.6981240  38.7964700 135.1331360  87.1266670  39.8631260 134.2234330
  96.1783330  44.3672340 134.5940030  96.1091610  43.4262280 134.4329160
  96.9403190  44.4573750 135.1662600  88.3690000  34.9726860 136.9196650
  88.1892840  34.0752610 137.1999410  87.9670080  35.5198730 137.5943600
  97.2088500  37.1742720 134.8208960  97.5853320  36.3014600 134.7082630
  97.1108010  37.5101420 133.9299400  91.3393510  35.5468350 130.2826400
  91.4460260  36.4472080 130.5895160  90.4285870  35.4986320 129.9921050
 100.9912620  34.6693160 131.7537300 101.8122240  34.1789730 131.7962780
 101.0246700  35.2590820 132.5069140  88.9876670  37.4687360 135.5278990
  89.6686780  37.7325730 136.1466390  88.6724720  36.6288230 135.8617000
  93.1801240  38.5154720 134.6151580  93.6879460  39.0135690 135.2556600
  93.7114480  37.7389920 134.4390940 105.2812170  36.6859910 138.3180930
 104.5764340  37.0741620 137.7996040 105.5470090  37.3810200 138.9201860
  91.4637340  33.1553280 138.8815000  91.4655780  33.6725670 138.0760900
  90.6341650  32.6783460 138.8584930  97.8508430  43.2672590 130.3804900
  97.2325700  43.7322040 129.8167620  98.3631680  43.9600070 130.7974410
  92.7140190  42.7948460 137.0588500  92.3809570  43.4217380 137.7009570
  92.8906870  43.3210340 136.2790170 101.2274100  36.6093540 134.5264840
 100.5229670  36.8978430 135.1067950 101.5886260  37.4193650 134.1664400
  91.1452670  34.8663240 136.8885450  91.4869480  35.7105290 136.5939320
  90.2068480  35.0146980 137.0050790  91.9259290  44.7629260 138.8737680
  92.5433290  45.4380340 138.5922130  91.0652410  45.1717240 138.7825180
 102.8436880  46.2268670 136.7892320 102.1600400  46.8967780 136.7808990
 103.3831170  46.4249320 136.0237180 104.2961020  36.0548330 134.9174050
 103.3485930  36.0887310 135.0489480 104.6211010  36.8687280 135.3023410
  94.8280560  32.3545510 133.2130040  95.1355540  31.7992400 132.4965540
  93.8981260  32.4889970 133.0303030 101.6741040  44.7929020 130.5927670
 101.5637370  43.8503350 130.7177090 101.6709290  45.1544660 131.4790430
  99.7781060  42.9742640 136.8320110 100.1949850  42.7602750 135.9973570
 100.5020880  43.2315430 137.4028730  97.2161320  40.4194340 129.9490160
  96.2890600  40.3531720 130.1778630  97.3686140  41.3574470 129.8345400
 103.7243160  41.3729860 136.9236350 102.8961790  41.4422950 136.4486480
 104.3193640  41.9584170 136.4552180 101.2458610  41.9814640 130.4525410
 100.6271030  41.6434190 129.8051710 101.2283060  41.3374400 131.1604600
 100.6885170  38.1599180 137.8691220 100.2756350  38.9852890 138.1231210
  99.9561120  37.5744220 137.6767580  92.8217960  40.9459080 132.7309890
  92.4174960  40.2336330 132.2355790  92.9081080  40.6012320 133.6197930
  93.2899660  44.6326640 134.8949100  92.9927950  44.0272110 134.2156880
  94.2399480  44.6703950 134.7838460  91.5346580  37.7202290 136.5108930
  92.0861170  37.8297630 135.7362180  92.0490090  38.0939890 137.2264160
 101.3785270  48.2058510 138.5572200 100.9015830  49.0130700 138.3644810
 100.6947060  47.5536840 138.7098410  92.3818090  44.3708330 141.5456900
  91.4846620  44.5948300 141.7930300  92.4070960  44.4943270 140.5968300
  99.4223310  41.2201450 127.4598160  99.8616590  40.3823880 127.3135980
 100.1351730  41.8530850 127.5462300  91.2089310  41.2421650 140.1214270
  91.0697080  42.1144450 140.4901670  90.3270670  40.8994460 139.9762210
  93.0069660  47.1843350 142.3299420  92.9785090  47.5886300 141.4627850
  92.8434630  46.2553710 142.1671020 103.0040450  32.4744260 125.7739200
 102.6913110  32.5671090 126.6738270 103.7652920  33.0525290 125.7236630
 104.9584480  47.9670450 143.6263590 105.4344200  48.4453340 144.3052670
 105.5791640  47.8987940 142.9009090  87.1607960  43.0119200 136.0385180
  87.2388380  43.1467970 135.0940900  87.7749640  42.3035090 136.2313300
  88.4055590  44.7119390 132.4491360  87.9983670  44.8533980 131.5944960
  89.2968600  44.4279550 132.2462570 104.3617730  45.1583300 140.7863600
 104.4880790  44.9195180 139.8680780 104.4039110  44.3267840 141.2585680
  98.2234470  48.8611300 139.3558410  98.7379140  48.7719310 140.1580840
  97.3803550  49.2071000 139.6486320 100.1988870  49.1466640 128.7842410
 100.0390010  48.8569580 129.6824240 100.0335580  48.3706770 128.2487640
  92.6777250  48.9265170 130.5614030  92.5019730  48.0100710 130.3481830
  91.8232990  49.2852460 130.8011830  99.9015000  46.6554200 127.3440410
  99.2080160  46.6531490 126.6842690 100.6437860  46.2313520 126.9134580
 104.2141740  37.2115760 141.7513340 103.5986010  37.7195430 141.2228800
 103.8938160  36.3114090 141.6939280  87.2167480  44.0533370 138.5779640
  87.3798520  43.5838730 137.7599010  87.6819930  43.5456930 139.2428480
  91.9886250  33.1839130 133.6140210  91.5454400  33.9648670 133.2824730
  92.5471240  33.5069020 134.3211150  96.2756060  36.0507650 139.2175530
  95.8135430  36.2590670 140.0295470  95.8734170  35.2367000 138.9146200
 101.2760570  37.2716600 140.3472190 100.4254160  36.9722350 140.6681260
 101.1162360  37.5158610 139.4356010  98.3710280  38.7718350 142.4470980
  98.6963690  37.9382100 142.1073210  99.1590610  39.2946870 142.5949310
  95.1045070  32.8049830 128.4946040  94.4799250  32.8009700 129.2199350
  95.0175190  31.9380790 128.0982010  94.0262150  33.7286460 135.4729810
  94.3234480  34.6349290 135.3921830  94.5747710  33.2405240 134.8589380
  91.7800470  38.3072700 131.3421460  91.5541390  38.0909870 132.2468080
  90.9993000  38.7401160 130.9967430  99.0098230  38.3136070 129.9412110
  98.4107120  39.0371870 129.7575730  99.5577840  38.2512850 129.1588560
  94.2199680  39.2058280 142.0081730  94.1243280  38.2653010 141.8582130
  95.0631660  39.4273350 141.6129800  97.6163100  36.9499610 131.9715390
  98.0092670  37.2671810 131.1584080  97.9779950  36.0711490 132.0859910
  89.3510220  35.6171950 140.1615510  88.9573610  36.4647160 140.3688290
  88.6628620  34.9798320 140.3524150  95.9255270  35.7006920 143.2312250
  95.2353590  35.5079120 143.8658340  96.6687570  35.9841560 143.7636550
  86.6527270  33.5400410 134.1945590  86.3640320  34.1103270 134.9070570
  87.3973030  33.0604860 134.5576820  86.8397500  37.4820530 125.4048310
  86.7572170  38.4251290 125.5463300  86.4880560  37.3395440 124.5260660
  98.2018240  39.5405360 136.0666170  97.4699360  40.0492170 136.4156270
  97.8042580  38.7235340 135.7654950  94.6395630  36.2159560 134.4718660
  94.6431690  35.7749510 133.6223200  95.5346750  36.5376890 134.5790480
  90.4898010  36.0986050 133.4312870  90.1498060  36.5761280 134.1879920
  89.7275330  35.6451170 133.0713970  98.6644150  34.9939040 135.4789110
  98.6816890  35.4447690 136.3230960  98.4159730  34.0944680 135.6922550
 102.0914900  32.4071220 141.3175490 102.4160670  31.6760880 141.8433470
 102.1271410  32.0884860 140.4156480  88.7906460  43.4284800 140.7375450
  88.4061250  42.7878470 141.3358410  89.1018650  44.1320920 141.3070180
  94.9403600  40.2761340 136.2184070  95.3073730  39.8019910 136.9645410
  94.7508660  41.1502910 136.5592410  87.8044090  35.0205030 132.3477540
  87.5191010  34.6560700 133.1856160  87.7422950  34.2885490 131.7340680
  92.7302970  39.3169980 138.5368280  92.4260040  40.1961960 138.7618640
  93.6849430  39.3769770 138.5725720 102.0172740  42.5196330 134.9261520
 102.7371860  43.0151620 134.5357630 101.8154560  41.8414220 134.2815390
  97.4782680  33.9134290 129.0690910  96.6647290  33.4147460 128.9936220
  97.2844630  34.7532540 128.6527260  97.3991540  42.5905390 140.8130520
  97.3328850  41.6701060 140.5588110  96.7696680  42.6880830 141.5275160
 100.1931070  38.2853940 127.3653070 101.0810690  38.5971170 127.1904410
 100.1636160  37.4126190 126.9733650  91.3022160  43.1911350 132.7713940
  91.8200830  42.3879610 132.7170830  90.8506180  43.1290490 133.6130770
  88.7866700  40.1572720 139.6839640  88.4281640  40.8226570 140.2712980
  88.4921260  39.3256270 140.0552260  91.9879820  40.6156960 142.5679190
  91.6879960  40.7614140 141.6707010  92.7591060  40.0562250 142.4752580
  97.3308270  45.4125960 140.5634320  97.3452810  44.4806920 140.3453230
  96.6233370  45.4985720 141.2024090 102.4645340  39.5965780 126.8332930
 102.3809060  40.0280000 125.9829370 103.1839530  40.0564130 127.2659750
 103.5419480  42.0533300 139.9102900 102.8167670  42.6462080 139.7132290
 104.0694940  42.0456840 139.1116270 103.4932590  46.4508040 129.5615060
 102.8508750  45.7963660 129.8358780 103.1063250  46.8563130 128.7855730
  99.0719070  43.7793470 133.4086750  99.4242890  43.1821600 132.7488120
  98.1881400  43.4537700 133.5795000  94.4609560  41.5437190 130.4282520
  94.9172340  42.3542440 130.6542710  94.1097770  41.2260330 131.2601010
  96.7642170  47.0543530 137.6574820  97.4084390  47.2602910 138.3348240
  97.1271610  46.2931930 137.2045670  90.3621340  31.8874840 130.9005040
  90.2335970  31.8792740 131.8489960  89.5383360  32.2257930 130.5496050
  98.0374250  45.0575880 136.3752270  98.6796480  44.3569040 136.4884440
  98.5623600  45.8374320 136.1949160  99.8111870  45.8570780 139.5788330
 100.1468110  46.4437470 140.2566250  98.8912210  45.7263490 139.8086120
  87.6646000  49.3691360 126.8735870  88.0243640  49.9680700 126.2193140
  87.5238340  49.9151250 127.6470900  87.3615270  33.6465960 140.3611740
  86.6473790  33.8462880 140.9664350  87.7810310  32.8705530 140.7326540
 101.4646220  43.2596440 127.7605570 101.1767920  43.7209130 128.5483450
 102.2598390  42.7994210 128.0289790  87.6487860  47.6346220 141.3478270
  87.7578980  46.6940960 141.2073660  86.9968420  47.9000970 140.6992000
  95.6400450  45.9062110 142.7476390  95.3197320  45.1871350 143.2922080
  94.9658810  46.5817180 142.8212450  98.8554050  36.1388270 138.1113190
  99.2234870  35.3183480 138.4392760  97.9952250  36.1990160 138.5268840
 102.2216080  35.0945210 128.9200750 101.5929240  35.1990880 128.2058980
 101.7268000  35.3141990 129.7094630  94.1900110  37.3731160 130.3358630
  93.4816260  37.8417500 130.7772240  94.4744590  36.7153170 130.9703820
  95.8156040  38.7927860 138.3351160  96.3141290  39.2673680 139.0003010
  95.9578990  37.8691380 138.5421190  98.2215540  34.0981820 131.7754420
  98.0983320  34.1167950 130.8263930  99.1700100  34.1460760 131.8952820
 103.0222900  35.0095820 139.1779550 102.5196500  35.7501220 139.5173360
 103.8379560  35.3979820 138.8616340 101.3144910  40.2529000 132.6240910
 100.3735050  40.2679230 132.7988600 101.6288980  39.4664960 133.0701210
 103.3170490  47.4237850 134.2995170 103.4417910  48.2469020 134.7718980
 104.1836050  47.2128580 133.9519320  90.7888020  49.5169060 133.9712300
  91.5250500  48.9684520 134.2420870  91.1728940  50.3825070 133.8318290
  89.7946300  48.7015130 143.1597880  90.5959030  49.0227180 143.5733280
  89.2798120  48.3410710 143.8817790  98.6310930  44.8095000 143.1073290
  98.0249090  44.8326600 142.3669040  98.3265040  44.0778040 143.6440540
 100.0611300  48.5375290 141.7182700 101.0133050  48.4533310 141.6682940
  99.9139520  49.2017000 142.3916490  87.5144110  41.1888590 142.1033930
  88.0183130  40.6095870 142.6750160  86.7751530  41.4728820 142.6410300
  94.5682050  42.5959580 141.6369450  93.8027720  43.1644580 141.5524120
  94.7498010  42.3035790 140.7437680 101.7105400  44.3264910 142.1944470
 102.4514870  44.6640670 141.6911930 100.9478080  44.4956970 141.6414240
  89.5467190  39.3318180 142.9984000  89.5872530  39.0332050 143.9069230
  90.4012690  39.7325790 142.8391520  91.4873000  37.9110280 140.9658490
  90.9569460  37.4201230 140.3381830  92.1561070  38.3394480 140.4316420
 100.3851060  42.3779740 140.7299680 100.7992080  42.5324820 141.5790100
  99.4502060  42.5034960 140.8925460 100.8573230  39.7175900 142.7338830
 101.4394000  38.9628220 142.6459310 101.0335000  40.2483340 141.9570310
  91.9745300  34.8772650 141.0455780  91.8802170  34.2593400 140.3206650
  91.3942690  35.6038940 140.8185690  94.7406740  33.4345890 138.0783170
  94.2924040  33.4570150 137.2328720  94.1071940  33.0364910 138.6753470
  95.1466290  42.3300220 138.6995610  95.5654400  43.1732950 138.5271850
  94.2274920  42.4672260 138.4702390  97.4830190  40.0616400 140.0833450
  97.6026400  39.4657540 140.8228290  98.3424190  40.0986090 139.6634750
  99.8218090  40.6153590 138.6595960  99.2953310  41.1396210 138.0561100
 100.1649430  41.2480980 139.2905690  92.9973710  48.6353230 139.8153340
  92.4594800  49.3599290 139.4962040  93.2507670  48.1583570 139.0250680
  94.2498960  36.6037750 141.3409270  94.8398650  36.2953600 142.0287090
  93.4319200  36.1317500 141.4969170  99.0692390  36.2203560 141.5742290
  98.3807910  35.5585100 141.5092280  99.7898410  35.7741830 142.0190750
  99.6992790  32.8155190 127.6332550  99.9795080  31.9723090 127.9891970
  98.9258520  33.0478300 128.1471300  95.8535920  49.8704440 140.0739990
  95.7794620  50.7739580 140.3812360  94.9514760  49.5516340 140.0462060
  94.2372210  34.0482200 126.0779750  93.8894210  33.3706190 125.4982200
  94.4384980  33.5871710 126.8923140  87.2563210  47.1979030 133.3773610
  87.5866220  46.3300090 133.1452250  87.6854210  47.4037550 134.2078570
  91.8525130  45.5288040 131.0375580  91.5520670  45.4053010 131.9379490
  91.7462620  44.6696630 130.6291310  87.7453420  48.0649620 136.1155240
  87.3084410  48.2450420 136.9479390  88.3131100  48.8224240 135.9736960
 103.3815600  47.5666620 140.4032550 102.7817590  47.6259180 139.6596470
 103.5109500  46.6271600 140.5329400 104.0773510  42.0531920 128.2436460
 104.8392420  42.6228570 128.3496150 104.0927880  41.4859120 129.0144770
  87.5777850  40.5769850 132.4744120  86.9226690  40.3081490 131.8303820
  88.4155800  40.4674330 132.0246100 105.0833480  42.9082020 133.0878390
 105.4542310  42.1249340 132.6814360 105.7235410  43.5971120 132.9095690
 102.0667240  44.2918600 138.5008710 101.2527080  44.7215760 138.7634500
 102.4741440  44.9037010 137.8877760 100.5268290  35.3711140 126.6962610
 100.9453170  35.1842120 125.8559270 100.2204350  34.5190190 127.0065540
 104.0258020  40.2835280 130.3938410 103.6501620  39.5163210 129.9619700
 103.2961140  40.6657980 130.8813340  88.6153780  40.9622420 137.0147460
  88.9826820  40.8749820 137.8943480  88.0464600  40.1988970 136.9154320
 103.4157640  39.4306800 140.0277930 103.1843730  39.2019550 139.1275880
 103.6762190  40.3506350 139.9822820  88.1669780  37.8731510 140.9205880
  87.2725830  37.8398270 141.2599590  88.7067330  38.0718300 141.6857130
 101.8545710  34.6563230 142.8057630 102.7315890  34.6646630 143.1891630
 101.8666550  33.9194070 142.1949980 103.3008980  38.5092770 133.6945650
 103.8246460  38.0155420 133.0635820 103.8868400  38.6443130 134.4393220
 103.4798700  38.5932640 137.2165200 102.5301410  38.5596180 137.3310190
 103.6611710  39.5032750 136.9814970  88.9817300  32.8973650 125.3666480
  89.7045430  33.4382590 125.6847700  89.2541820  32.6237070 124.4908020
 102.7908950  37.7666120 129.6338060 103.2868070  37.5336990 130.4186940
 102.5925020  36.9277960 129.2175700  88.6709490  32.1479840 135.2689100
  89.3185680  31.5977220 134.8284260  89.0911330  32.4022990 136.0904910
 104.2196110  36.4027070 132.1675740 104.1095390  36.2483110 133.1058010
 104.9803700  35.8748010 131.9251150 102.5661830  32.3421200 138.6258740
 103.2034050  32.9555340 138.9917930 102.7136720  32.3781860 137.6807970
 105.1086380  34.2334990 125.4081880 106.0335690  34.1016170 125.2000170
 105.0862170  34.3127810 126.3618330 105.1824870  35.0045650 128.0338590
 104.3876370  34.9390770 128.5631500 105.3868150  35.9396290 128.0223940
 102.1243290  49.0437200 132.0276980 102.7202360  48.7221770 131.3511400
 102.3821440  48.5709020 132.8190250  88.4241490  32.3035510 138.0114420
  88.0756310  32.7599330 138.7772600  88.0929190  31.4092640 138.0936850
  90.0305860  45.4755110 142.1767610  89.9875490  45.1048020 143.0582070
  90.1616870  46.4132680 142.3169430  93.7311890  47.0314700 137.7777330
  93.4903250  47.2989260 136.8907850  94.6714530  47.2020430 137.8328190
  95.9366310  33.4947390 141.5333840  95.8755200  34.0869220 142.2829250
  96.8766690  33.3873350 141.3884100  98.5740870  33.1517450 141.1726130
  99.1881280  33.4696740 140.5107210  99.1190430  32.6666040 141.7921990
 104.9916050  49.0509080 138.5787970 104.4974330  49.4477950 137.8615100
 104.3829340  48.4258290 138.9725250  89.0962130  31.8311710 141.2865190
  89.6445120  31.6499760 140.5231300  89.1617440  31.0405820 141.8221500
  89.8693890  48.4217360 139.2965390  89.2754210  48.2902060 140.0355430
  89.8617730  47.5855500 138.8307490  99.3148910  31.7149590 137.4995420
  98.4408750  32.0484700 137.2968350  99.2059660  31.2422770 138.3247290
 100.2220890  33.9220460 138.8837140  99.8934250  33.1072220 138.5038870
 101.1703190  33.8790270 138.7602830 102.6755500  49.6932500 135.8574710
 102.2158470  50.4448310 135.4832730 102.0467960  48.9738970 135.7989510
  89.5006120  45.7875740 138.2473430  88.7740180  45.1681030 138.1799380
  89.5615270  46.1816350 137.3771510  93.1051220  48.0020740 135.0322840
  93.6216240  47.3908100 134.5071100  93.7548600  48.5049520 135.5233850
  97.0623730  32.6319430 136.4388330  96.2795520  33.1064930 136.7185090
  96.7686660  31.7274260 136.3301510 101.6144800  33.3342530 134.4837420
 102.0552890  33.2787630 133.6359020 101.3452390  34.2500540 134.5547600
 103.4783370  32.9657770 132.4946240 103.4171770  32.0218990 132.3477260
 104.2575400  33.0737860 133.0399700  87.7836120  49.1050130 131.4570190
  87.6158160  48.4720810 132.1552080  86.9170630  49.3109530 131.1064380
  88.4064140  32.9366910 128.9602050  89.1643500  33.0495790 128.3866080
  87.9441310  33.7736110 128.9145480  94.9477950  35.0506180 131.9504360
  94.1352460  34.6763070 131.6100240  95.4519590  34.2951260 132.2525550
  99.4502930  31.7148630 133.1887430 100.0532300  32.2868840 133.6635950
  98.7095920  32.2788070 132.9661330 102.5937530  32.1170190 128.4627710
 102.7888160  33.0153640 128.7295140 101.8067400  31.8857270 128.9560660
  90.7789290  33.4630960 127.5004020  91.3082050  32.6760760 127.3711970
  91.4117610  34.1422150 127.7339550  92.9727130  33.2006100 130.5549410
  92.3429870  32.4993410 130.7219540  92.4332270  33.9610230 130.3382570
  95.9119080  49.8145330 143.2260020  96.8386390  49.5789600 143.2695980
  95.8969510  50.6417330 142.7446050 104.1464140  49.3570900 130.2234270
 104.3216330  48.6708640 129.5795190 103.4485710  49.8817950 129.8310940
  93.0982690  32.4790080 142.9901900  92.8166960  32.9823680 142.2262720
  93.4802390  31.6811830 142.6244030  99.6998150  31.8943660 143.5682370
  99.5863600  32.2138270 144.4633890 100.5167890  32.2956170 143.2719650
 102.4796640  49.0415190 143.0501060 103.2721960  48.5464420 142.8427020
 102.7729790  49.7205330 143.6576670  98.6056300  39.9136130 113.9317110
  98.5250350  38.9990740 113.6608820  98.1920720  40.4103200 113.2256820
  96.7374340  41.6915150 115.8126380  95.9616440  41.2115590 116.1024950
  97.3887270  41.0120800 115.6382540  90.7540170  42.0034960 116.6902140
  89.9225050  41.7483670 117.0898650  91.3621150  42.0745730 117.4260060
  96.1783330  44.3672340 115.8196540  96.1091610  43.4262280 115.6585670
  96.9403190  44.4573750 116.3919110  97.2088500  37.1742720 116.0465470
  97.5853320  36.3014600 115.9339140  97.1108010  37.5101420 115.1555910
 100.9912620  34.6693160 112.9793810 101.8122240  34.1789730 113.0219290
 101.0246700  35.2590820 113.7325650  93.1801240  38.5154720 115.8408090
  93.6879460  39.0135690 116.4813110  93.7114480  37.7389920 115.6647450
 105.2812170  36.6859910 119.5437440 104.5764340  37.0741620 119.0252550
 105.5470090  37.3810200 120.1458370  97.8508430  43.2672590 111.6061410
  97.2325700  43.7322040 111.0424130  98.3631680  43.9600070 112.0230920
 101.2274100  36.6093540 115.7521350 100.5229670  36.8978430 116.3324460
 101.5886260  37.4193650 115.3920910  87.2191630  43.9529120 108.9801040
  86.8419610  44.4416220 108.2485940  87.4764700  44.6254400 109.6107570
  99.7781060  42.9742640 118.0576620 100.1949850  42.7602750 117.2230080
 100.5020880  43.2315430 118.6285240  97.2161320  40.4194340 111.1746670
  96.2890600  40.3531720 111.4035140  97.3686140  41.3574470 111.0601910
  97.2030400  36.6911340 108.1713830  96.2634070  36.8525300 108.2566290
  97.5213660  37.4097020 107.6249820 103.7243160  41.3729860 118.1492860
 102.8961790  41.4422950 117.6742990 104.3193640  41.9584170 117.6808690
 100.6885170  38.1599180 119.0947730 100.2756350  38.9852890 119.3487720
  99.9561120  37.5744220 118.9024090  92.8217960  40.9459080 113.9566400
  92.4174960  40.2336330 113.4612300  92.9081080  40.6012320 114.8454440
  93.2899660  44.6326640 116.1205610  92.9927950  44.0272110 115.4413390
  94.2399480  44.6703950 116.0094970  99.4223310  41.2201450 108.6854670
  99.8616590  40.3823880 108.5392490 100.1351730  41.8530850 108.7718810
  91.2089310  41.2421650 121.3470780  91.0697080  42.1144450 121.7158180
  90.3270670  40.8994460 121.2018720  97.5318690  46.1597520 112.6535910
  97.9714600  46.9021850 112.2391300  97.4705580  46.4024090 113.5774870
 103.0040450  32.4744260 106.9995710 102.6913110  32.5671090 107.8994780
 103.7652920  33.0525290 106.9493140  89.5222590  39.8404060 111.4573050
  89.4020190  40.5666150 110.8454320  89.2123480  39.0706970 110.9800960
  87.1607960  43.0119200 117.2641690  87.2388380  43.1467970 116.3197410
  87.7749640  42.3035090 117.4569810  88.4055590  44.7119390 113.6747870
  87.9983670  44.8533980 112.8201470  89.2968600  44.4279550 113.4719080
 104.2141740  37.2115760 122.9769850 103.5986010  37.7195430 122.4485310
 103.8938160  36.3114090 122.9195790  96.2756060  36.0507650 120.4432040
  95.8135430  36.2590670 121.2551980  95.8734170  35.2367000 120.1402710
 101.2760570  37.2716600 121.5728700 100.4254160  36.9722350 121.8937770
 101.1162360  37.5158610 120.6612520  99.0098230  38.3136070 111.1668620
  98.4107120  39.0371870 110.9832240  99.5577840  38.2512850 110.3845070
  97.6163100  36.9499610 113.1971900  98.0092670  37.2671810 112.3840590
  97.9779950  36.0711490 113.3116420  86.8397500  37.4820530 106.6304820
  86.7572170  38.4251290 106.7719810  86.4880560  37.3395440 105.7517170
  98.2018240  39.5405360 117.2922680  97.4699360  40.0492170 117.6412780
  97.8042580  38.7235340 116.9911460  94.7015780  37.2171640 108.6881930
  94.8228600  37.1758120 109.6367750  94.3164290  38.0795790 108.5328660
  98.6644150  34.9939040 116.7045620  98.6816890  35.4447690 117.5487470
  98.4159730  34.0944680 116.9179060 102.0914900  32.4071220 122.5432000
 102.4160670  31.6760880 123.0689980 102.1271410  32.0884860 121.6412990
  94.9403600  40.2761340 117.4440580  95.3073730  39.8019910 118.1901920
  94.7508660  41.1502910 117.7848920  92.7302970  39.3169980 119.7624790
  92.4260040  40.1961960 119.9875150  93.6849430  39.3769770 119.7982230
  97.3991540  42.5905390 122.0387030  97.3328850  41.6701060 121.7844620
  96.7696680  42.6880830 122.7531670 100.1931070  38.2853940 108.5909580
 101.0810690  38.5971170 108.4160920 100.1636160  37.4126190 108.1990160
  91.3022160  43.1911350 113.9970450  91.8200830  42.3879610 113.9427340
  90.8506180  43.1290490 114.8387280  96.1891660  44.4577630 109.2697750
  96.5307360  45.2019860 108.7741070  95.3604370  44.7708750 109.6322580
  88.7866700  40.1572720 120.9096150  88.4281640  40.8226570 121.4969490
  88.4921260  39.3256270 121.2808770  97.3308270  45.4125960 121.7890830
  97.3452810  44.4806920 121.5709740  96.6233370  45.4985720 122.4280600
 103.5419480  42.0533300 121.1359410 102.8167670  42.6462080 120.9388800
 104.0694940  42.0456840 120.3372780  95.1582350  44.5391160 112.0413670
  95.8453480  45.0860370 112.4221260  94.3714770  45.0831890 112.0763280
  87.2974750  40.1563980 107.5330750  88.1669600  40.4388780 107.8166670
  86.8065070  40.9699850 107.4179560  94.4609560  41.5437190 111.6539030
  94.9172340  42.3542440 111.8799220  94.1097770  41.2260330 112.4857520
  96.7642170  47.0543530 118.8831330  97.4084390  47.2602910 119.5604750
  97.1271610  46.2931930 118.4302180  98.0374250  45.0575880 117.6008780
  98.6796480  44.3569040 117.7140950  98.5623600  45.8374320 117.4205670
 101.8829970  45.3424500 107.3247920 101.6567550  44.6254940 107.9172560
 101.4926170  45.0936940 106.4869670  99.8111870  45.8570780 120.8044840
 100.1468110  46.4437470 121.4822760  98.8912210  45.7263490 121.0342630
  87.6646000  49.3691360 108.0992380  88.0243640  49.9680700 107.4449650
  87.5238340  49.9151250 108.8727410  98.8554050  36.1388270 119.3369700
  99.2234870  35.3183480 119.6649270  97.9952250  36.1990160 119.7525350
  96.6674220  46.8150800 107.5791240  96.7686200  46.6114790 106.6493220
  95.7675960  46.5609080 107.7839020  95.8156040  38.7927860 119.5607670
  96.3141290  39.2673680 120.2259520  95.9578990  37.8691380 119.7677700
  92.3935130  35.6816240 108.9365850  93.2425660  36.1186390 108.8706040
  92.0266400  35.9936500 109.7637910 103.0222900  35.0095820 120.4036060
 102.5196500  35.7501220 120.7429870 103.8379560  35.3979820 120.0872850
  87.6733500  45.5842630 111.0710320  86.7473280  45.8263770 111.0615730
  88.1389930  46.4116890 110.9495070  93.8990330  48.6899370 107.0194380
  94.6918940  48.9788200 106.5676170  93.3794680  48.2591540 106.3406860
  98.6310930  44.8095000 124.3329800  98.0249090  44.8326600 123.5925550
  98.3265040  44.0778040 124.8697050  87.5144110  41.1888590 123.3290440
  88.0183130  40.6095870 123.9006670  86.7751530  41.4728820 123.8666810
  97.6570460  42.9722810 107.4878720  97.1080560  43.4192110 108.1321460
  98.2789720  42.4672060 108.0116390  95.8373220  40.9551340 106.6321120
  96.3578880  40.2400360 106.2662270  96.4841620  41.5937210 106.9321630
 100.3851060  42.3779740 121.9556190 100.7992080  42.5324820 122.8046610
  99.4502060  42.5034960 122.1181970 100.8573230  39.7175900 123.9595340
 101.4394000  38.9628220 123.8715820 101.0335000  40.2483340 123.1826820
  91.9745300  34.8772650 122.2712290  91.8802170  34.2593400 121.5463160
  91.3942690  35.6038940 122.0442200  95.1466290  42.3300220 119.9252120
  95.5654400  43.1732950 119.7528360  94.2274920  42.4672260 119.6958900
  97.4830190  40.0616400 121.3089960  97.6026400  39.4657540 122.0484800
  98.3424190  40.0986090 120.8891260  99.8218090  40.6153590 119.8852470
  99.2953310  41.1396210 119.2817610 100.1649430  41.2480980 120.5162200
  99.0692390  36.2203560 122.7998800  98.3807910  35.5585100 122.7348790
  99.7898410  35.7741830 123.2447260  96.4021250  49.0362950 108.9222860
  97.2972040  49.3747920 108.9441620  96.4338880  48.3142360 108.2947140
  87.2563210  47.1979030 114.6030120  87.5866220  46.3300090 114.3708760
  87.6854210  47.4037550 115.4335080 104.6217050  45.3084440 106.9658770
 103.7910010  45.3761090 107.4366000 104.7988880  46.1988560 106.6625630
  87.5777850  40.5769850 113.7000630  86.9226690  40.3081490 113.0560330
  88.4155800  40.4674330 113.2502610 102.0667240  44.2918600 119.7265220
 101.2527080  44.7215760 119.9891010 102.4741440  44.9037010 119.1134270
 104.1292680  42.3466290 106.6265490 104.4041520  43.2545170 106.4984710
 103.9403420  42.2828820 107.5627480 100.5268290  35.3711140 107.9219120
 100.9453170  35.1842120 107.0815780 100.2204350  34.5190190 108.2322050
 103.4157640  39.4306800 121.2534440 103.1843730  39.2019550 120.3532390
 103.6762190  40.3506350 121.2079330  88.1669780  37.8731510 122.1462390
  87.2725830  37.8398270 122.4856100  88.7067330  38.0718300 122.9113640
 101.8545710  34.6563230 124.0314140 102.7315890  34.6646630 124.4148140
 101.8666550  33.9194070 123.4206490 103.4798700  38.5932640 118.4421710
 102.5301410  38.5596180 118.5566700 103.6611710  39.5032750 118.2071480
 102.5661830  32.3421200 119.8515250 103.2034050  32.9555340 120.2174440
 102.7136720  32.3781860 118.9064480 105.1086380  34.2334990 106.6338390
 106.0335690  34.1016170 106.4256680 105.0862170  34.3127810 107.5874840
  95.9366310  33.4947390 122.7590350  95.8755200  34.0869220 123.5085760
  96.8766690  33.3873350 122.6140610  98.5740870  33.1517450 122.3982640
  99.1881280  33.4696740 121.7363720  99.1190430  32.6666040 123.0178500
 104.9916050  49.0509080 119.8044480 104.4974330  49.4477950 119.0871610
 104.3829340  48.4258290 120.1981760  99.3148910  31.7149590 118.7251930
  98.4408750  32.0484700 118.5224860  99.2059660  31.2422770 119.5503800
 100.2220890  33.9220460 120.1093650  99.8934250  33.1072220 119.7295380
 101.1703190  33.8790270 119.9859340  93.1051220  48.0020740 116.2579350
  93.6216240  47.3908100 115.7327610  93.7548600  48.5049520 116.7490360
  97.0623730  32.6319430 117.6644840  96.2795520  33.1064930 117.9441600
  96.7686660  31.7274260 117.5558020 101.6144800  33.3342530 115.7093930
 102.0552890  33.2787630 114.8615530 101.3452390  34.2500540 115.7804110
 103.4783370  32.9657770 113.7202750 103.4171770  32.0218990 113.5733770
 104.2575400  33.0737860 114.2656210  99.4502930  31.7148630 114.4143940
 100.0532300  32.2868840 114.8892460  98.7095920  32.2788070 114.1917840
 102.5937530  32.1170190 109.6884220 102.7888160  33.0153640 109.9551650
 101.8067400  31.8857270 110.1817170  93.0982690  32.4790080 124.2158410
  92.8166960  32.9823680 123.4519230  93.4802390  31.6811830 123.8500540
  99.6998150  31.8943660 124.7938880  99.5863600  32.2138270 125.6890400
 100.5167890  32.2956170 124.4976160 100.7581770  46.0975340  95.8182020
 100.2963300  45.3262580  96.1469190 101.5707320  46.1241410  96.3234470
  90.7341430  46.0375050  98.1116670  91.0369470  45.1472790  97.9326890
  91.4785020  46.5945270  97.8838920  89.1632120  36.9636850  91.7001040
  88.2748820  37.3052820  91.5980920  89.4473310  36.7637170  90.8081870
  96.9845080  48.3833350  95.4386010  96.3656520  48.8390850  94.8680450
  97.8396860  48.5384810  95.0375710  96.1783330  44.3672340  97.0453050
  96.1091610  43.4262280  96.8842180  96.9403190  44.4573750  97.6175620
  97.2088500  37.1742720  97.2721980  97.5853320  36.3014600  97.1595650
  97.1108010  37.5101420  96.3812420  91.3393510  35.5468350  92.7339420
  91.4460260  36.4472080  93.0408180  90.4285870  35.4986320  92.4434070
 100.9912620  34.6693160  94.2050320 101.8122240  34.1789730  94.2475800
 101.0246700  35.2590820  94.9582160  93.1801240  38.5154720  97.0664600
  93.6879460  39.0135690  97.7069620  93.7114480  37.7389920  96.8903960
  97.8508430  43.2672590  92.8317920  97.2325700  43.7322040  92.2680640
  98.3631680  43.9600070  93.2487430  92.7140190  42.7948460  99.5101520
  92.3809570  43.4217380 100.1522590  92.8906870  43.3210340  98.7303190
 101.2274100  36.6093540  96.9777860 100.5229670  36.8978430  97.5580970
 101.5886260  37.4193650  96.6177420  91.9259290  44.7629260 101.3250700
  92.5433290  45.4380340 101.0435150  91.0652410  45.1717240 101.2338200
  87.2191630  43.9529120  90.2057550  86.8419610  44.4416220  89.4742450
  87.4764700  44.6254400  90.8364080 102.8436880  46.2268670  99.2405340
 102.1600400  46.8967780  99.2322010 103.3831170  46.4249320  98.4750200
 104.2961020  36.0548330  97.3687070 103.3485930  36.0887310  97.5002500
 104.6211010  36.8687280  97.7536430  94.8280560  32.3545510  95.6643060
  95.1355540  31.7992400  94.9478560  93.8981260  32.4889970  95.4816050
 100.3795620  48.0712800  97.9550520 100.3922780  47.6675090  97.0872780
  99.8270840  48.8460090  97.8511950 101.6741040  44.7929020  93.0440690
 101.5637370  43.8503350  93.1690110 101.6709290  45.1544660  93.9303450
 103.7243160  41.3729860  99.3749370 102.8961790  41.4422950  98.8999500
 104.3193640  41.9584170  98.9065200  92.8217960  40.9459080  95.1822910
  92.4174960  40.2336330  94.6868810  92.9081080  40.6012320  96.0710950
  93.2899660  44.6326640  97.3462120  92.9927950  44.0272110  96.6669900
  94.2399480  44.6703950  97.2351480 101.3785270  48.2058510 101.0085220
 100.9015830  49.0130700 100.8157830 100.6947060  47.5536840 101.1611430
  97.5318690  46.1597520  93.8792420  97.9714600  46.9021850  93.4647810
  97.4705580  46.4024090  94.8031380  93.0069660  47.1843350 104.7812440
  92.9785090  47.5886300 103.9140870  92.8434630  46.2553710 104.6184040
  89.5222590  39.8404060  92.6829560  89.4020190  40.5666150  92.0710830
  89.2123480  39.0706970  92.2057470 104.9584480  47.9670450 106.0776610
 105.4344200  48.4453340 106.7565690 105.5791640  47.8987940 105.3522110
  87.1607960  43.0119200  98.4898200  87.2388380  43.1467970  97.5453920
  87.7749640  42.3035090  98.6826320  88.4055590  44.7119390  94.9004380
  87.9983670  44.8533980  94.0457980  89.2968600  44.4279550  94.6975590
 104.3617730  45.1583300 103.2376620 104.4880790  44.9195180 102.3193800
 104.4039110  44.3267840 103.7098700 100.1988870  49.1466640  91.2355430
 100.0390010  48.8569580  92.1337260 100.0335580  48.3706770  90.7000660
  92.6777250  48.9265170  93.0127050  92.5019730  48.0100710  92.7994850
  91.8232990  49.2852460  93.2524850  99.9015000  46.6554200  89.7953430
  99.2080160  46.6531490  89.1355710 100.6437860  46.2313520  89.3647600
  99.4664930  48.2816910  93.8701920  99.9221880  47.5006290  94.1840540
  99.8057450  48.9923730  94.4143100  87.2167480  44.0533370 101.0292660
  87.3798520  43.5838730 100.2112030  87.6819930  43.5456930 101.6941500
  91.9886250  33.1839130  96.0653230  91.5454400  33.9648670  95.7337750
  92.5471240  33.5069020  96.7724170  96.2756060  36.0507650 101.6688550
  95.8135430  36.2590670 102.4808490  95.8734170  35.2367000 101.3659220
  91.7800470  38.3072700  93.7934480  91.5541390  38.0909870  94.6981100
  90.9993000  38.7401160  93.4480450  86.6527270  33.5400410  96.6458610
  86.3640320  34.1103270  97.3583590  87.3973030  33.0604860  97.0089840
  86.8397500  37.4820530  87.8561330  86.7572170  38.4251290  87.9976320
  86.4880560  37.3395440  86.9773680  94.6395630  36.2159560  96.9231680
  94.6431690  35.7749510  96.0736220  95.5346750  36.5376890  97.0303500
  90.4898010  36.0986050  95.8825890  90.1498060  36.5761280  96.6392940
  89.7275330  35.6451170  95.5226990  94.7015780  37.2171640  89.9138440
  94.8228600  37.1758120  90.8624260  94.3164290  38.0795790  89.7585170
  98.6644150  34.9939040  97.9302130  98.6816890  35.4447690  98.7743980
  98.4159730  34.0944680  98.1435570  93.7137280  39.5272780  89.3121740
  93.1454180  39.0791030  88.6857650  94.4226280  39.8865560  88.7786890
 102.0914900  32.4071220 103.7688510 102.4160670  31.6760880 104.2946490
 102.1271410  32.0884860 102.8669500  87.8044090  35.0205030  94.7990560
  87.5191010  34.6560700  95.6369180  87.7422950  34.2885490  94.1853700
  91.2584760  43.5230970  91.5848150  90.4847020  42.9828590  91.4246870
  91.9879390  43.0037580  91.2465910  97.4782680  33.9134290  91.5203930
  96.6647290  33.4147460  91.4449240  97.2844630  34.7532540  91.1040280
  91.3022160  43.1911350  95.2226960  91.8200830  42.3879610  95.1683850
  90.8506180  43.1290490  96.0643790  96.1891660  44.4577630  90.4954260
  96.5307360  45.2019860  89.9997580  95.3604370  44.7708750  90.8579090
 103.4932590  46.4508040  92.0128080 102.8508750  45.7963660  92.2871800
 103.1063250  46.8563130  91.2368750  95.1582350  44.5391160  93.2670180
  95.8453480  45.0860370  93.6477770  94.3714770  45.0831890  93.3019790
  87.2974750  40.1563980  88.7587260  88.1669600  40.4388780  89.0423180
  86.8065070  40.9699850  88.6436070  94.4609560  41.5437190  92.8795540
  94.9172340  42.3542440  93.1055730  94.1097770  41.2260330  93.7114030
  96.7642170  47.0543530 100.1087840  97.4084390  47.2602910 100.7861260
  97.1271610  46.2931930  99.6558690 101.8829970  45.3424500  88.5504430
 101.6567550  44.6254940  89.1429070 101.4926170  45.0936940  87.7126180
  99.8111870  45.8570780 102.0301350 100.1468110  46.4437470 102.7079270
  98.8912210  45.7263490 102.2599140  87.6646000  49.3691360  89.3248890
  88.0243640  49.9680700  88.6706160  87.5238340  49.9151250  90.0983920
  87.6487860  47.6346220 103.7991290  87.7578980  46.6940960 103.6586680
  86.9968420  47.9000970 103.1505020  95.6400450  45.9062110 105.1989410
  95.3197320  45.1871350 105.7435100  94.9658810  46.5817180 105.2725470
  93.6814620  46.7522560  90.1422560  93.6724720  47.4852250  89.5267070
  92.7612980  46.5054140  90.2349520  89.2821260  41.9737450  90.8869320
  88.6749210  42.7136350  90.8964620  89.7570610  42.0636810  90.0607520
  98.8554050  36.1388270 100.5626210  99.2234870  35.3183480 100.8905780
  97.9952250  36.1990160 100.9781860 102.2216080  35.0945210  91.3713770
 101.5929240  35.1990880  90.6572000 101.7268000  35.3141990  92.1607650
  96.6674220  46.8150800  88.8047750  96.7686200  46.6114790  87.8749730
  95.7675960  46.5609080  89.0095530  94.1900110  37.3731160  92.7871650
  93.4816260  37.8417500  93.2285260  94.4744590  36.7153170  93.4216840
  98.2215540  34.0981820  94.2267440  98.0983320  34.1167950  93.2776950
  99.1700100  34.1460760  94.3465840  95.3092330  49.3337120  93.4995420
  95.5633830  49.2958510  92.5774790  94.3604810  49.2070450  93.4923670
  92.3935130  35.6816240  90.1622360  93.2425660  36.1186390  90.0962550
  92.0266400  35.9936500  90.9894420 103.0222900  35.0095820 101.6292570
 102.5196500  35.7501220 101.9686380 103.8379560  35.3979820 101.3129360
  91.2926550  41.9348600  88.6357890  92.0589820  41.8229960  89.1983320
  91.3701240  41.2386570  87.9834660  89.9873310  39.3673670  89.3190780
  90.0676900  38.4201180  89.4308180  90.8793060  39.6980550  89.4251440
 103.3170490  47.4237850  96.7508190 103.4417910  48.2469020  97.2232000
 104.1836050  47.2128580  96.4032340  90.7888020  49.5169060  96.4225320
  91.5250500  48.9684520  96.6933890  91.1728940  50.3825070  96.2831310
  87.6733500  45.5842630  92.2966830  86.7473280  45.8263770  92.2872240
  88.1389930  46.4116890  92.1751580  89.7946300  48.7015130 105.6110900
  90.5959030  49.0227180 106.0246300  89.2798120  48.3410710 106.3330810
  93.8990330  48.6899370  88.2450890  94.6918940  48.9788200  87.7932680
  93.3794680  48.2591540  87.5663370  98.6310930  44.8095000 105.5586310
  98.0249090  44.8326600 104.8182060  98.3265040  44.0778040 106.0953560
 100.0611300  48.5375290 104.1695720 101.0133050  48.4533310 104.1195960
  99.9139520  49.2017000 104.8429510 102.9520500  47.9169500  89.6687630
 102.6662010  47.5034640  88.8541810 102.7540050  48.8457210  89.5488150
  94.4167730  43.9102780  88.1093240  94.3118370  43.2955130  88.8354620
  94.2491950  43.3868670  87.3256250 101.7105400  44.3264910 104.6457490
 102.4514870  44.6640670 104.1424950 100.9478080  44.4956970 104.0927260
  93.3245580  41.9313730  90.6100530  93.7462000  41.7653600  91.4531920
  93.4496420  41.1213960  90.1155670  92.2204480  38.0046960  87.5558690
  92.0193540  37.1414320  87.9172030  92.0496530  37.9180320  86.6180290
  99.0692390  36.2203560 104.0255310  98.3807910  35.5585100 103.9605300
  99.7898410  35.7741830 104.4703770  91.0187280  35.1047580  87.5436570
  91.3213180  35.1115010  86.6355720  91.7581870  34.7545440  88.0404230
  96.4021250  49.0362950  90.1479370  97.2972040  49.3747920  90.1698130
  96.4338880  48.3142360  89.5203650  90.0417410  44.4090000  88.3766370
  90.4792280  44.9519670  89.0323950  90.5265140  43.5836950  88.3862710
  87.2563210  47.1979030  95.8286630  87.5866220  46.3300090  95.5965270
  87.6854210  47.4037550  96.6591590  91.8525130  45.5288040  93.4888600
  91.5520670  45.4053010  94.3892510  91.7462620  44.6696630  93.0804330
 103.3815600  47.5666620 102.8545570 102.7817590  47.6259180 102.1109490
 103.5109500  46.6271600 102.9842420 104.6217050  45.3084440  88.1915280
 103.7910010  45.3761090  88.6622510 104.7988880  46.1988560  87.8882140
 104.0773510  42.0531920  90.6949480 104.8392420  42.6228570  90.8009170
 104.0927880  41.4859120  91.4657790  87.5777850  40.5769850  94.9257140
  86.9226690  40.3081490  94.2816840  88.4155800  40.4674330  94.4759120
 105.0833480  42.9082020  95.5391410 105.4542310  42.1249340  95.1327380
 105.7235410  43.5971120  95.3608710 102.0667240  44.2918600 100.9521730
 101.2527080  44.7215760 101.2147520 102.4741440  44.9037010 100.3390780
 104.1292680  42.3466290  87.8522000 104.4041520  43.2545170  87.7241220
 103.9403420  42.2828820  88.7883990 101.8545710  34.6563230 105.2570650
 102.7315890  34.6646630 105.6404650 101.8666550  33.9194070 104.6463000
  86.7915930  37.7868780  90.8682470  85.8880010  38.0498980  90.6934130
  87.2756550  38.0579950  90.0882430 103.4798700  38.5932640  99.6678220
 102.5301410  38.5596180  99.7823210 103.6611710  39.5032750  99.4327990
  89.3343140  36.8434320  88.7776850  90.0434840  36.4217540  88.2924130
  88.6183080  36.9109550  88.1460200  88.9817300  32.8973650  87.8179500
  89.7045430  33.4382590  88.1360720  89.2541820  32.6237070  86.9421040
  88.6709490  32.1479840  97.7202120  89.3185680  31.5977220  97.2797280
  89.0911330  32.4022990  98.5417930 102.5661830  32.3421200 101.0771760
 103.2034050  32.9555340 101.4430950 102.7136720  32.3781860 100.1320990
 102.1243290  49.0437200  94.4790000 102.7202360  48.7221770  93.8024420
 102.3821440  48.5709020  95.2703270  88.4241490  32.3035510 100.4627440
  88.0756310  32.7599330 101.2285620  88.0929190  31.4092640 100.5449870
  93.7311890  47.0314700 100.2290350  93.4903250  47.2989260  99.3420870
  94.6714530  47.2020430 100.2841210  95.9366310  33.4947390 103.9846860
  95.8755200  34.0869220 104.7342270  96.8766690  33.3873350 103.8397120
  98.5740870  33.1517450 103.6239150  99.1881280  33.4696740 102.9620230
  99.1190430  32.6666040 104.2435010 104.9916050  49.0509080 101.0300990
 104.4974330  49.4477950 100.3128120 104.3829340  48.4258290 101.4238270
  89.8693890  48.4217360 101.7478410  89.2754210  48.2902060 102.4868450
  89.8617730  47.5855500 101.2820510  99.3148910  31.7149590  99.9508440
  98.4408750  32.0484700  99.7481370  99.2059660  31.2422770 100.7760310
 100.2220890  33.9220460 101.3350160  99.8934250  33.1072220 100.9551890
 101.1703190  33.8790270 101.2115850 102.6755500  49.6932500  98.3087730
 102.2158470  50.4448310  97.9345750 102.0467960  48.9738970  98.2502530
  89.5006120  45.7875740 100.6986450  88.7740180  45.1681030 100.6312400
  89.5615270  46.1816350  99.8284530  93.1051220  48.0020740  97.4835860
  93.6216240  47.3908100  96.9584120  93.7548600  48.5049520  97.9746870
  95.8446720  48.8929230  98.3104840  96.1324530  48.6383530  97.4337850
  96.3569940  48.3406590  98.9010410 101.6144800  33.3342530  96.9350440
 102.0552890  33.2787630  96.0872040 101.3452390  34.2500540  97.0060620
 103.4783370  32.9657770  94.9459260 103.4171770  32.0218990  94.7990280
 104.2575400  33.0737860  95.4912720  87.7836120  49.1050130  93.9083210
  87.6158160  48.4720810  94.6065100  86.9170630  49.3109530  93.5577400
  88.4064140  32.9366910  91.4115070  89.1643500  33.0495790  90.8379100
  87.9441310  33.7736110  91.3658500  94.9477950  35.0506180  94.4017380
  94.1352460  34.6763070  94.0613260  95.4519590  34.2951260  94.7038570
  99.4502930  31.7148630  95.6400450 100.0532300  32.2868840  96.1148970
  98.7095920  32.2788070  95.4174350  89.3898820  47.7983360  91.3533350
  88.8646440  48.1791390  90.6495310  89.3143400  48.4234130  92.0743060
  95.9119080  49.8145330 105.6773040  96.8386390  49.5789600 105.7209000
  95.8969510  50.6417330 105.1959070 104.1464140  49.3570900  92.6747290
 104.3216330  48.6708640  92.0308210 103.4485710  49.8817950  92.2823960
  91.9891790  49.7465740  90.2282600  92.7210610  49.4625020  89.6806490
  92.2485460  49.5079020  91.1181980  91.1506580  45.8630470  90.2328930
  90.5215460  46.3315570  90.7814760  91.2654410  45.0179690  90.6675120
  99.6998150  31.8943660 106.0195390  99.5863600  32.2138270 106.9146910
 100.5167890  32.2956170 105.7232670 102.4796640  49.0415190 105.5014080
 103.2721960  48.5464420 105.2940040 102.7729790  49.7205330 106.1089690
  98.6056300  39.9136130  76.3830130  98.5250350  38.9990740  76.1121840
  98.1920720  40.4103200  75.6769840  96.7374340  41.6915150  78.2639400
  95.9616440  41.2115590  78.5537970  97.3887270  41.0120800  78.0895560
  90.7540170  42.0034960  79.1415160  89.9225050  41.7483670  79.5411670
  91.3621150  42.0745730  79.8773080 100.7581770  46.0975340  77.0438530
 100.2963300  45.3262580  77.3725700 101.5707320  46.1241410  77.5490980
  89.1632120  36.9636850  72.9257550  88.2748820  37.3052820  72.8237430
  89.4473310  36.7637170  72.0338380  96.9845080  48.3833350  76.6642520
  96.3656520  48.8390850  76.0936960  97.8396860  48.5384810  76.2632220
  96.1783330  44.3672340  78.2709560  96.1091610  43.4262280  78.1098690
  96.9403190  44.4573750  78.8432130  91.3393510  35.5468350  73.9595930
  91.4460260  36.4472080  74.2664690  90.4285870  35.4986320  73.6690580
 100.9912620  34.6693160  75.4306830 101.8122240  34.1789730  75.4732310
 101.0246700  35.2590820  76.1838670  88.9876670  37.4687360  79.2048520
  89.6686780  37.7325730  79.8235920  88.6724720  36.6288230  79.5386530
  97.8508430  43.2672590  74.0574430  97.2325700  43.7322040  73.4937150
  98.3631680  43.9600070  74.4743940  92.7140190  42.7948460  80.7358030
  92.3809570  43.4217380  81.3779100  92.8906870  43.3210340  79.9559700
 101.2274100  36.6093540  78.2034370 100.5229670  36.8978430  78.7837480
 101.5886260  37.4193650  77.8433930  91.9259290  44.7629260  82.5507210
  92.5433290  45.4380340  82.2691660  91.0652410  45.1717240  82.4594710
 102.8436880  46.2268670  80.4661850 102.1600400  46.8967780  80.4578520
 103.3831170  46.4249320  79.7006710 104.2961020  36.0548330  78.5943580
 103.3485930  36.0887310  78.7259010 104.6211010  36.8687280  78.9792940
 101.6741040  44.7929020  74.2697200 101.5637370  43.8503350  74.3946620
 101.6709290  45.1544660  75.1559960  97.2161320  40.4194340  73.6259690
  96.2890600  40.3531720  73.8548160  97.3686140  41.3574470  73.5114930
 103.7243160  41.3729860  80.6005880 102.8961790  41.4422950  80.1256010
 104.3193640  41.9584170  80.1321710 101.2458610  41.9814640  74.1294940
 100.6271030  41.6434190  73.4821240 101.2283060  41.3374400  74.8374130
  92.8217960  40.9459080  76.4079420  92.4174960  40.2336330  75.9125320
  92.9081080  40.6012320  77.2967460  93.2899660  44.6326640  78.5718630
  92.9927950  44.0272110  77.8926410  94.2399480  44.6703950  78.4607990
  92.3818090  44.3708330  85.2226430  91.4846620  44.5948300  85.4699830
  92.4070960  44.4943270  84.2737830  99.4223310  41.2201450  71.1367690
  99.8616590  40.3823880  70.9905510 100.1351730  41.8530850  71.2231830
  91.2089310  41.2421650  83.7983800  91.0697080  42.1144450  84.1671200
  90.3270670  40.8994460  83.6531740  97.5318690  46.1597520  75.1048930
  97.9714600  46.9021850  74.6904320  97.4705580  46.4024090  76.0287890
  93.0069660  47.1843350  86.0068950  92.9785090  47.5886300  85.1397380
  92.8434630  46.2553710  85.8440550 104.9584480  47.9670450  87.3033120
 105.4344200  48.4453340  87.9822200 105.5791640  47.8987940  86.5778620
 104.3617730  45.1583300  84.4633130 104.4880790  44.9195180  83.5450310
 104.4039110  44.3267840  84.9355210 100.1988870  49.1466640  72.4611940
 100.0390010  48.8569580  73.3593770 100.0335580  48.3706770  71.9257170
  99.9015000  46.6554200  71.0209940  99.2080160  46.6531490  70.3612220
 100.6437860  46.2313520  70.5904110  99.4664930  48.2816910  75.0958430
  99.9221880  47.5006290  75.4097050  99.8057450  48.9923730  75.6399610
  94.0262150  33.7286460  79.1499340  94.3234480  34.6349290  79.0691360
  94.5747710  33.2405240  78.5358910  91.7800470  38.3072700  75.0190990
  91.5541390  38.0909870  75.9237610  90.9993000  38.7401160  74.6736960
  95.9255270  35.7006920  86.9081780  95.2353590  35.5079120  87.5427870
  96.6687570  35.9841560  87.4406080  86.8397500  37.4820530  69.0817840
  86.7572170  38.4251290  69.2232830  86.4880560  37.3395440  68.2030190
  90.4898010  36.0986050  77.1082400  90.1498060  36.5761280  77.8649450
  89.7275330  35.6451170  76.7483500  98.6644150  34.9939040  79.1558640
  98.6816890  35.4447690  80.0000490  98.4159730  34.0944680  79.3692080
  93.7137280  39.5272780  70.5378250  93.1454180  39.0791030  69.9114160
  94.4226280  39.8865560  70.0043400  91.2584760  43.5230970  72.8104660
  90.4847020  42.9828590  72.6503380  91.9879390  43.0037580  72.4722420
 102.0172740  42.5196330  78.6031050 102.7371860  43.0151620  78.2127160
 101.8154560  41.8414220  77.9584920  91.3022160  43.1911350  76.4483470
  91.8200830  42.3879610  76.3940360  90.8506180  43.1290490  77.2900300
  96.1891660  44.4577630  71.7210770  96.5307360  45.2019860  71.2254090
  95.3604370  44.7708750  72.0835600  88.7866700  40.1572720  83.3609170
  88.4281640  40.8226570  83.9482510  88.4921260  39.3256270  83.7321790
  91.9879820  40.6156960  86.2448720  91.6879960  40.7614140  85.3476540
  92.7591060  40.0562250  86.1522110  97.3308270  45.4125960  84.2403850
  97.3452810  44.4806920  84.0222760  96.6233370  45.4985720  84.8793620
 102.4645340  39.5965780  70.5102460 102.3809060  40.0280000  69.6598900
 103.1839530  40.0564130  70.9429280 103.5419480  42.0533300  83.5872430
 102.8167670  42.6462080  83.3901820 104.0694940  42.0456840  82.7885800
 103.4932590  46.4508040  73.2384590 102.8508750  45.7963660  73.5128310
 103.1063250  46.8563130  72.4625260  99.0719070  43.7793470  77.0856280
  99.4242890  43.1821600  76.4257650  98.1881400  43.4537700  77.2564530
  95.1582350  44.5391160  74.4926690  95.8453480  45.0860370  74.8734280
  94.3714770  45.0831890  74.5276300  94.4609560  41.5437190  74.1052050
  94.9172340  42.3542440  74.3312240  94.1097770  41.2260330  74.9370540
  98.0374250  45.0575880  80.0521800  98.6796480  44.3569040  80.1653970
  98.5623600  45.8374320  79.8718690 101.8829970  45.3424500  69.7760940
 101.6567550  44.6254940  70.3685580 101.4926170  45.0936940  68.9382690
 101.4646220  43.2596440  71.4375100 101.1767920  43.7209130  72.2252980
 102.2598390  42.7994210  71.7059320  95.6400450  45.9062110  86.4245920
  95.3197320  45.1871350  86.9691610  94.9658810  46.5817180  86.4981980
  94.1900110  37.3731160  74.0128160  93.4816260  37.8417500  74.4541770
  94.4744590  36.7153170  74.6473350  95.3092330  49.3337120  74.7251930
  95.5633830  49.2958510  73.8031300  94.3604810  49.2070450  74.7180180
  92.3935130  35.6816240  71.3878870  93.2425660  36.1186390  71.3219060
  92.0266400  35.9936500  72.2150930  89.9873310  39.3673670  70.5447290
  90.0676900  38.4201180  70.6564690  90.8793060  39.6980550  70.6507950
 103.3170490  47.4237850  77.9764700 103.4417910  48.2469020  78.4488510
 104.1836050  47.2128580  77.6288850  89.7946300  48.7015130  86.8367410
  90.5959030  49.0227180  87.2502810  89.2798120  48.3410710  87.5587320
 102.9520500  47.9169500  70.8944140 102.6662010  47.5034640  70.0798320
 102.7540050  48.8457210  70.7744660  87.5144110  41.1888590  85.7803460
  88.0183130  40.6095870  86.3519690  86.7751530  41.4728820  86.3179830
  97.6570460  42.9722810  69.9391740  97.1080560  43.4192110  70.5834480
  98.2789720  42.4672060  70.4629410  89.5467190  39.3318180  86.6753530
  89.5872530  39.0332050  87.5838760  90.4012690  39.7325790  86.5161050
  93.3245580  41.9313730  71.8357040  93.7462000  41.7653600  72.6788430
  93.4496420  41.1213960  71.3412180  95.8373220  40.9551340  69.0834140
  96.3578880  40.2400360  68.7175290  96.4841620  41.5937210  69.3834650
  91.9745300  34.8772650  84.7225310  91.8802170  34.2593400  83.9976180
  91.3942690  35.6038940  84.4955220  94.7406740  33.4345890  81.7552700
  94.2924040  33.4570150  80.9098250  94.1071940  33.0364910  82.3523000
  92.2204480  38.0046960  68.7815200  92.0193540  37.1414320  69.1428540
  92.0496530  37.9180320  67.8436800  92.9973710  48.6353230  83.4922870
  92.4594800  49.3599290  83.1731570  93.2507670  48.1583570  82.7020210
  91.0187280  35.1047580  68.7693080  91.3213180  35.1115010  67.8612230
  91.7581870  34.7545440  69.2660740 104.6217050  45.3084440  69.4171790
 103.7910010  45.3761090  69.8879020 104.7988880  46.1988560  69.1138650
 102.0667240  44.2918600  82.1778240 101.2527080  44.7215760  82.4404030
 102.4741440  44.9037010  81.5647290  88.6153780  40.9622420  80.6916990
  88.9826820  40.8749820  81.5713010  88.0464600  40.1988970  80.5923850
  88.1669780  37.8731510  84.5975410  87.2725830  37.8398270  84.9369120
  88.7067330  38.0718300  85.3626660  89.3343140  36.8434320  70.0033360
  90.0434840  36.4217540  69.5180640  88.6183080  36.9109550  69.3716710
  88.9817300  32.8973650  69.0436010  89.7045430  33.4382590  69.3617230
  89.2541820  32.6237070  68.1677550 105.1824870  35.0045650  71.7108120
 104.3876370  34.9390770  72.2401030 105.3868150  35.9396290  71.6993470
 102.1243290  49.0437200  75.7046510 102.7202360  48.7221770  75.0280930
 102.3821440  48.5709020  76.4959780  93.7311890  47.0314700  81.4546860
  93.4903250  47.2989260  80.5677380  94.6714530  47.2020430  81.5097720
  95.9366310  33.4947390  85.2103370  95.8755200  34.0869220  85.9598780
  96.8766690  33.3873350  85.0653630  98.5740870  33.1517450  84.8495660
  99.1881280  33.4696740  84.1876740  99.1190430  32.6666040  85.4691520
  99.3148910  31.7149590  81.1764950  98.4408750  32.0484700  80.9737880
  99.2059660  31.2422770  82.0016820  93.1051220  48.0020740  78.7092370
  93.6216240  47.3908100  78.1840630  93.7548600  48.5049520  79.2003380
  97.0623730  32.6319430  80.1157860  96.2795520  33.1064930  80.3954620
  96.7686660  31.7274260  80.0071040 101.6144800  33.3342530  78.1606950
 102.0552890  33.2787630  77.3128550 101.3452390  34.2500540  78.2317130
 103.4783370  32.9657770  76.1715770 103.4171770  32.0218990  76.0246790
 104.2575400  33.0737860  76.7169230  94.9477950  35.0506180  75.6273890
  94.1352460  34.6763070  75.2869770  95.4519590  34.2951260  75.9295080
  90.7789290  33.4630960  71.1773550  91.3082050  32.6760760  71.0481500
  91.4117610  34.1422150  71.4109080  92.9727130  33.2006100  74.2318940
  92.3429870  32.4993410  74.3989070  92.4332270  33.9610230  74.0152100
  95.9119080  49.8145330  86.9029550  96.8386390  49.5789600  86.9465510
  95.8969510  50.6417330  86.4215580 104.1464140  49.3570900  73.9003800
 104.3216330  48.6708640  73.2564720 103.4485710  49.8817950  73.5080470
  88.3690000  34.9726860  61.8222690  88.1892840  34.0752610  62.1025450
  87.9670080  35.5198730  62.4969640  88.9876670  37.4687360  60.4305030
  89.6686780  37.7325730  61.0492430  88.6724720  36.6288230  60.7643040
  93.1801240  38.5154720  59.5177620  93.6879460  39.0135690  60.1582640
  93.7114480  37.7389920  59.3416980  91.4637340  33.1553280  63.7841040
  91.4655780  33.6725670  62.9786940  90.6341650  32.6783460  63.7610970
  91.1452670  34.8663240  61.7911490  91.4869480  35.7105290  61.4965360
  90.2068480  35.0146980  61.9076830  87.2191630  43.9529120  52.6570570
  86.8419610  44.4416220  51.9255470  87.4764700  44.6254400  53.2877100
 102.8436880  46.2268670  61.6918360 102.1600400  46.8967780  61.6835030
 103.3831170  46.4249320  60.9263220  94.8280560  32.3545510  58.1156080
  95.1355540  31.7992400  57.3991580  93.8981260  32.4889970  57.9329070
 101.6741040  44.7929020  55.4953710 101.5637370  43.8503350  55.6203130
 101.6709290  45.1544660  56.3816470  99.7781060  42.9742640  61.7346150
 100.1949850  42.7602750  60.8999610 100.5020880  43.2315430  62.3054770
 101.2458610  41.9814640  55.3551450 100.6271030  41.6434190  54.7077750
 101.2283060  41.3374400  56.0630640 100.6885170  38.1599180  62.7717260
 100.2756350  38.9852890  63.0257250  99.9561120  37.5744220  62.5793620
  91.5346580  37.7202290  61.4134970  92.0861170  37.8297630  60.6388220
  92.0490090  38.0939890  62.1290200 101.3785270  48.2058510  63.4598240
 100.9015830  49.0130700  63.2670850 100.6947060  47.5536840  63.6124450
 100.1988870  49.1466640  53.6868450 100.0390010  48.8569580  54.5850280
 100.0335580  48.3706770  53.1513680  91.9886250  33.1839130  58.5166250
  91.5454400  33.9648670  58.1850770  92.5471240  33.5069020  59.2237190
  96.2756060  36.0507650  64.1201570  95.8135430  36.2590670  64.9321510
  95.8734170  35.2367000  63.8172240  95.1045070  32.8049830  53.3972080
  94.4799250  32.8009700  54.1225390  95.0175190  31.9380790  53.0008050
  94.0262150  33.7286460  60.3755850  94.3234480  34.6349290  60.2947870
  94.5747710  33.2405240  59.7615420  94.2199680  39.2058280  66.9107770
  94.1243280  38.2653010  66.7608170  95.0631660  39.4273350  66.5155840
  89.3510220  35.6171950  65.0641550  88.9573610  36.4647160  65.2714330
  88.6628620  34.9798320  65.2550190  86.6527270  33.5400410  59.0971630
  86.3640320  34.1103270  59.8096610  87.3973030  33.0604860  59.4602860
  98.2018240  39.5405360  60.9692210  97.4699360  40.0492170  61.3182310
  97.8042580  38.7235340  60.6680990  90.4898010  36.0986050  58.3338910
  90.1498060  36.5761280  59.0905960  89.7275330  35.6451170  57.9740010
  94.7015780  37.2171640  52.3651460  94.8228600  37.1758120  53.3137280
  94.3164290  38.0795790  52.2098190  98.6644150  34.9939040  60.3815150
  98.6816890  35.4447690  61.2257000  98.4159730  34.0944680  60.5948590
  93.7137280  39.5272780  51.7634760  93.1454180  39.0791030  51.1370670
  94.4226280  39.8865560  51.2299910  94.9403600  40.2761340  61.1210110
  95.3073730  39.8019910  61.8671450  94.7508660  41.1502910  61.4618450
  87.8044090  35.0205030  57.2503580  87.5191010  34.6560700  58.0882200
  87.7422950  34.2885490  56.6366720  92.7302970  39.3169980  63.4394320
  92.4260040  40.1961960  63.6644680  93.6849430  39.3769770  63.4751760
  91.2584760  43.5230970  54.0361170  90.4847020  42.9828590  53.8759890
  91.9879390  43.0037580  53.6978930 102.0172740  42.5196330  59.8287560
 102.7371860  43.0151620  59.4383670 101.8154560  41.8414220  59.1841430
  97.3991540  42.5905390  65.7156560  97.3328850  41.6701060  65.4614150
  96.7696680  42.6880830  66.4301200  91.3022160  43.1911350  57.6739980
  91.8200830  42.3879610  57.6196870  90.8506180  43.1290490  58.5156810
  96.1891660  44.4577630  52.9467280  96.5307360  45.2019860  52.4510600
  95.3604370  44.7708750  53.3092110 103.4932590  46.4508040  54.4641100
 102.8508750  45.7963660  54.7384820 103.1063250  46.8563130  53.6881770
  99.0719070  43.7793470  58.3112790  99.4242890  43.1821600  57.6514160
  98.1881400  43.4537700  58.4821040  95.1582350  44.5391160  55.7183200
  95.8453480  45.0860370  56.0990790  94.3714770  45.0831890  55.7532810
  90.3621340  31.8874840  55.8031080  90.2335970  31.8792740  56.7516000
  89.5383360  32.2257930  55.4522090  87.3615270  33.6465960  65.2637780
  86.6473790  33.8462880  65.8690390  87.7810310  32.8705530  65.6352580
 101.4646220  43.2596440  52.6631610 101.1767920  43.7209130  53.4509490
 102.2598390  42.7994210  52.9315830  89.2821260  41.9737450  53.3382340
  88.6749210  42.7136350  53.3477640  89.7570610  42.0636810  52.5120540
  98.8554050  36.1388270  63.0139230  99.2234870  35.3183480  63.3418800
  97.9952250  36.1990160  63.4294880  95.8156040  38.7927860  63.2377200
  96.3141290  39.2673680  63.9029050  95.9578990  37.8691380  63.4447230
  91.2926550  41.9348600  51.0870910  92.0589820  41.8229960  51.6496340
  91.3701240  41.2386570  50.4347680 103.3170490  47.4237850  59.2021210
 103.4417910  48.2469020  59.6745020 104.1836050  47.2128580  58.8545360
 102.9520500  47.9169500  52.1200650 102.6662010  47.5034640  51.3054830
 102.7540050  48.8457210  52.0001170 101.7105400  44.3264910  67.0970510
 102.4514870  44.6640670  66.5937970 100.9478080  44.4956970  66.5440280
  89.5467190  39.3318180  67.9010040  89.5872530  39.0332050  68.8095270
  90.4012690  39.7325790  67.7417560  93.3245580  41.9313730  53.0613550
  93.7462000  41.7653600  53.9044940  93.4496420  41.1213960  52.5668690
  91.4873000  37.9110280  65.8684530  90.9569460  37.4201230  65.2407870
  92.1561070  38.3394480  65.3342460  95.8373220  40.9551340  50.3090650
  96.3578880  40.2400360  49.9431800  96.4841620  41.5937210  50.6091160
 100.3851060  42.3779740  65.6325720 100.7992080  42.5324820  66.4816140
  99.4502060  42.5034960  65.7951500  91.9745300  34.8772650  65.9481820
  91.8802170  34.2593400  65.2232690  91.3942690  35.6038940  65.7211730
  94.7406740  33.4345890  62.9809210  94.2924040  33.4570150  62.1354760
  94.1071940  33.0364910  63.5779510  97.4830190  40.0616400  64.9859490
  97.6026400  39.4657540  65.7254330  98.3424190  40.0986090  64.5660790
  99.8218090  40.6153590  63.5622000  99.2953310  41.1396210  62.9587140
 100.1649430  41.2480980  64.1931730  92.2204480  38.0046960  50.0071710
  92.0193540  37.1414320  50.3685050  92.0496530  37.9180320  49.0693310
  94.2498960  36.6037750  66.2435310  94.8398650  36.2953600  66.9313130
  93.4319200  36.1317500  66.3995210  87.5777850  40.5769850  57.3770160
  86.9226690  40.3081490  56.7329860  88.4155800  40.4674330  56.9272140
 102.0667240  44.2918600  63.4034750 101.2527080  44.7215760  63.6660540
 102.4741440  44.9037010  62.7903800  88.6709490  32.1479840  60.1715140
  89.3185680  31.5977220  59.7310300  89.0911330  32.4022990  60.9930950
 105.1086380  34.2334990  50.3107920 106.0335690  34.1016170  50.1026210
 105.0862170  34.3127810  51.2644370 105.1824870  35.0045650  52.9364630
 104.3876370  34.9390770  53.4657540 105.3868150  35.9396290  52.9249980
  88.4241490  32.3035510  62.9140460  88.0756310  32.7599330  63.6798640
  88.0929190  31.4092640  62.9962890  89.0962130  31.8311710  66.1891230
  89.6445120  31.6499760  65.4257340  89.1617440  31.0405820  66.7247540
 102.6755500  49.6932500  60.7600750 102.2158470  50.4448310  60.3858770
 102.0467960  48.9738970  60.7015550  97.0623730  32.6319430  61.3414370
  96.2795520  33.1064930  61.6211130  96.7686660  31.7274260  61.2327550
 101.6144800  33.3342530  59.3863460 102.0552890  33.2787630  58.5385060
 101.3452390  34.2500540  59.4573640 103.4783370  32.9657770  57.3972280
 103.4171770  32.0218990  57.2503300 104.2575400  33.0737860  57.9425740
  99.4502930  31.7148630  58.0913470 100.0532300  32.2868840  58.5661990
  98.7095920  32.2788070  57.8687370 102.5937530  32.1170190  53.3653750
 102.7888160  33.0153640  53.6321180 101.8067400  31.8857270  53.8586700
  92.9727130  33.2006100  55.4575450  92.3429870  32.4993410  55.6245580
  92.4332270  33.9610230  55.2408610 104.1464140  49.3570900  55.1260310
 104.3216330  48.6708640  54.4821230 103.4485710  49.8817950  54.7336980
 102.4796640  49.0415190  67.9527100 103.2721960  48.5464420  67.7453060
 102.7729790  49.7205330  68.5602710  98.6056300  39.9136130  38.8343150
  98.5250350  38.9990740  38.5634860  98.1920720  40.4103200  38.1282860
  96.7374340  41.6915150  40.7152420  95.9616440  41.2115590  41.0050990
  97.3887270  41.0120800  40.5408580  88.3690000  34.9726860  43.0479200
  88.1892840  34.0752610  43.3281960  87.9670080  35.5198730  43.7226150
  97.2088500  37.1742720  40.9491510  97.5853320  36.3014600  40.8365180
  97.1108010  37.5101420  40.0581950  91.3393510  35.5468350  36.4108950
  91.4460260  36.4472080  36.7177710  90.4285870  35.4986320  36.1203600
 100.9912620  34.6693160  37.8819850 101.8122240  34.1789730  37.9245330
 101.0246700  35.2590820  38.6351690  93.1801240  38.5154720  40.7434130
  93.6879460  39.0135690  41.3839150  93.7114480  37.7389920  40.5673490
  91.4637340  33.1553280  45.0097550  91.4655780  33.6725670  44.2043450
  90.6341650  32.6783460  44.9867480 101.2274100  36.6093540  40.6547390
 100.5229670  36.8978430  41.2350500 101.5886260  37.4193650  40.2946950
  91.1452670  34.8663240  43.0168000  91.4869480  35.7105290  42.7221870
  90.2068480  35.0146980  43.1333340 104.2961020  36.0548330  41.0456600
 103.3485930  36.0887310  41.1772030 104.6211010  36.8687280  41.4305960
  94.8280560  32.3545510  39.3412590  95.1355540  31.7992400  38.6248090
  93.8981260  32.4889970  39.1585580  97.2030400  36.6911340  33.0739870
  96.2634070  36.8525300  33.1592330  97.5213660  37.4097020  32.5275860
 103.7243160  41.3729860  43.0518900 102.8961790  41.4422950  42.5769030
 104.3193640  41.9584170  42.5834730 100.6885170  38.1599180  43.9973770
 100.2756350  38.9852890  44.2513760  99.9561120  37.5744220  43.8050130
  91.5346580  37.7202290  42.6391480  92.0861170  37.8297630  41.8644730
  92.0490090  38.0939890  43.3546710 103.0040450  32.4744260  31.9021750
 102.6913110  32.5671090  32.8020820 103.7652920  33.0525290  31.8519180
 100.1988870  49.1466640  34.9124960 100.0390010  48.8569580  35.8106790
 100.0335580  48.3706770  34.3770190  99.9015000  46.6554200  33.4722960
  99.2080160  46.6531490  32.8125240 100.6437860  46.2313520  33.0417130
  91.9886250  33.1839130  39.7422760  91.5454400  33.9648670  39.4107280
  92.5471240  33.5069020  40.4493700  95.1045070  32.8049830  34.6228590
  94.4799250  32.8009700  35.3481900  95.0175190  31.9380790  34.2264560
  91.7800470  38.3072700  37.4704010  91.5541390  38.0909870  38.3750630
  90.9993000  38.7401160  37.1249980  99.0098230  38.3136070  36.0694660
  98.4107120  39.0371870  35.8858280  99.5577840  38.2512850  35.2871110
  94.2199680  39.2058280  48.1364280  94.1243280  38.2653010  47.9864680
  95.0631660  39.4273350  47.7412350  97.6163100  36.9499610  38.0997940
  98.0092670  37.2671810  37.2866630  97.9779950  36.0711490  38.2142460
  89.3510220  35.6171950  46.2898060  88.9573610  36.4647160  46.4970840
  88.6628620  34.9798320  46.4806700  98.2018240  39.5405360  42.1948720
  97.4699360  40.0492170  42.5438820  97.8042580  38.7235340  41.8937500
  94.6395630  36.2159560  40.6001210  94.6431690  35.7749510  39.7505750
  95.5346750  36.5376890  40.7073030  90.4898010  36.0986050  39.5595420
  90.1498060  36.5761280  40.3162470  89.7275330  35.6451170  39.1996520
  94.7015780  37.2171640  33.5907970  94.8228600  37.1758120  34.5393790
  94.3164290  38.0795790  33.4354700  93.7137280  39.5272780  32.9891270
  93.1454180  39.0791030  32.3627180  94.4226280  39.8865560  32.4556420
  88.7906460  43.4284800  46.8658000  88.4061250  42.7878470  47.4640960
  89.1018650  44.1320920  47.4352730  87.8044090  35.0205030  38.4760090
  87.5191010  34.6560700  39.3138710  87.7422950  34.2885490  37.8623230
 102.0172740  42.5196330  41.0544070 102.7371860  43.0151620  40.6640180
 101.8154560  41.8414220  40.4097940  97.4782680  33.9134290  35.1973460
  96.6647290  33.4147460  35.1218770  97.2844630  34.7532540  34.7809810
  97.3991540  42.5905390  46.9413070  97.3328850  41.6701060  46.6870660
  96.7696680  42.6880830  47.6557710 100.1931070  38.2853940  33.4935620
 101.0810690  38.5971170  33.3186960 100.1636160  37.4126190  33.1016200
  88.7866700  40.1572720  45.8122190  88.4281640  40.8226570  46.3995530
  88.4921260  39.3256270  46.1834810  91.9879820  40.6156960  48.6961740
  91.6879960  40.7614140  47.7989560  92.7591060  40.0562250  48.6035130
 102.4645340  39.5965780  32.9615480 102.3809060  40.0280000  32.1111920
 103.1839530  40.0564130  33.3942300  90.3621340  31.8874840  37.0287590
  90.2335970  31.8792740  37.9772510  89.5383360  32.2257930  36.6778600
  87.6646000  49.3691360  33.0018420  88.0243640  49.9680700  32.3475690
  87.5238340  49.9151250  33.7753450 102.2216080  35.0945210  35.0483300
 101.5929240  35.1990880  34.3341530 101.7268000  35.3141990  35.8377180
  96.6674220  46.8150800  32.4817280  96.7686200  46.6114790  31.5519260
  95.7675960  46.5609080  32.6865060  94.1900110  37.3731160  36.4641180
  93.4816260  37.8417500  36.9054790  94.4744590  36.7153170  37.0986370
  95.8156040  38.7927860  44.4633710  96.3141290  39.2673680  45.1285560
  95.9578990  37.8691380  44.6703740  98.2215540  34.0981820  37.9036970
  98.0983320  34.1167950  36.9546480  99.1700100  34.1460760  38.0235370
  92.3935130  35.6816240  33.8391890  93.2425660  36.1186390  33.7732080
  92.0266400  35.9936500  34.6663950 101.3144910  40.2529000  38.7523460
 100.3735050  40.2679230  38.9271150 101.6288980  39.4664960  39.1983760
  91.2926550  41.9348600  32.3127420  92.0589820  41.8229960  32.8752850
  91.3701240  41.2386570  31.6604190  89.9873310  39.3673670  32.9960310
  90.0676900  38.4201180  33.1077710  90.8793060  39.6980550  33.1020970
 103.3170490  47.4237850  40.4277720 103.4417910  48.2469020  40.9001530
 104.1836050  47.2128580  40.0801870  90.7888020  49.5169060  40.0994850
  91.5250500  48.9684520  40.3703420  91.1728940  50.3825070  39.9600840
 102.9520500  47.9169500  33.3457160 102.6662010  47.5034640  32.5311340
 102.7540050  48.8457210  33.2257680  87.5144110  41.1888590  48.2316480
  88.0183130  40.6095870  48.8032710  86.7751530  41.4728820  48.7692850
  94.4167730  43.9102780  31.7862770  94.3118370  43.2955130  32.5124150
  94.2491950  43.3868670  31.0025780  97.6570460  42.9722810  32.3904760
  97.1080560  43.4192110  33.0347500  98.2789720  42.4672060  32.9142430
  93.3245580  41.9313730  34.2870060  93.7462000  41.7653600  35.1301450
  93.4496420  41.1213960  33.7925200  91.4873000  37.9110280  47.0941040
  90.9569460  37.4201230  46.4664380  92.1561070  38.3394480  46.5598970
  95.8373220  40.9551340  31.5347160  96.3578880  40.2400360  31.1688310
  96.4841620  41.5937210  31.8347670  91.9745300  34.8772650  47.1738330
  91.8802170  34.2593400  46.4489200  91.3942690  35.6038940  46.9468240
  97.4830190  40.0616400  46.2116000  97.6026400  39.4657540  46.9510840
  98.3424190  40.0986090  45.7917300  99.8218090  40.6153590  44.7878510
  99.2953310  41.1396210  44.1843650 100.1649430  41.2480980  45.4188240
  92.2204480  38.0046960  31.2328220  92.0193540  37.1414320  31.5941560
  92.0496530  37.9180320  30.2949820  94.2498960  36.6037750  47.4691820
  94.8398650  36.2953600  48.1569640  93.4319200  36.1317500  47.6251720
  99.6992790  32.8155190  33.7615100  99.9795080  31.9723090  34.1174520
  98.9258520  33.0478300  34.2753850  91.0187280  35.1047580  31.2206100
  91.3213180  35.1115010  30.3125250  91.7581870  34.7545440  31.7173760
  94.2372210  34.0482200  32.2062300  93.8894210  33.3706190  31.6264750
  94.4384980  33.5871710  33.0205690  87.7453420  48.0649620  42.2437790
  87.3084410  48.2450420  43.0761940  88.3131100  48.8224240  42.1019510
 104.6217050  45.3084440  31.8684810 103.7910010  45.3761090  32.3392040
 104.7988880  46.1988560  31.5651670 104.0773510  42.0531920  34.3719010
 104.8392420  42.6228570  34.4778700 104.0927880  41.4859120  35.1427320
 104.1292680  42.3466290  31.5291530 104.4041520  43.2545170  31.4010750
 103.9403420  42.2828820  32.4653520 100.5268290  35.3711140  32.8245160
 100.9453170  35.1842120  31.9841820 100.2204350  34.5190190  33.1348090
 104.0258020  40.2835280  36.5220960 103.6501620  39.5163210  36.0902250
 103.2961140  40.6657980  37.0095890 103.4157640  39.4306800  46.1560480
 103.1843730  39.2019550  45.2558430 103.6762190  40.3506350  46.1105370
 103.3008980  38.5092770  39.8228200 103.8246460  38.0155420  39.1918370
 103.8868400  38.6443130  40.5675770 103.4798700  38.5932640  43.3447750
 102.5301410  38.5596180  43.4592740 103.6611710  39.5032750  43.1097520
  89.3343140  36.8434320  32.4546380  90.0434840  36.4217540  31.9693660
  88.6183080  36.9109550  31.8229730 102.7908950  37.7666120  35.7620610
 103.2868070  37.5336990  36.5469490 102.5925020  36.9277960  35.3458250
  88.6709490  32.1479840  41.3971650  89.3185680  31.5977220  40.9566810
  89.0911330  32.4022990  42.2187460 104.2196110  36.4027070  38.2958290
 104.1095390  36.2483110  39.2340560 104.9803700  35.8748010  38.0533700
 105.1086380  34.2334990  31.5364430 106.0335690  34.1016170  31.3282720
 105.0862170  34.3127810  32.4900880 105.1824870  35.0045650  34.1621140
 104.3876370  34.9390770  34.6914050 105.3868150  35.9396290  34.1506490
  88.4241490  32.3035510  44.1396970  88.0756310  32.7599330  44.9055150
  88.0929190  31.4092640  44.2219400  89.8693890  48.4217360  45.4247940
  89.2754210  48.2902060  46.1637980  89.8617730  47.5855500  44.9590040
 101.6144800  33.3342530  40.6119970 102.0552890  33.2787630  39.7641570
 101.3452390  34.2500540  40.6830150 103.4783370  32.9657770  38.6228790
 103.4171770  32.0218990  38.4759810 104.2575400  33.0737860  39.1682250
  88.4064140  32.9366910  35.0884600  89.1643500  33.0495790  34.5148630
  87.9441310  33.7736110  35.0428030  94.9477950  35.0506180  38.0786910
  94.1352460  34.6763070  37.7382790  95.4519590  34.2951260  38.3808100
  99.4502930  31.7148630  39.3169980 100.0532300  32.2868840  39.7918500
  98.7095920  32.2788070  39.0943880 102.5937530  32.1170190  34.5910260
 102.7888160  33.0153640  34.8577690 101.8067400  31.8857270  35.0843210
  90.7789290  33.4630960  33.6286570  91.3082050  32.6760760  33.4994520
  91.4117610  34.1422150  33.8622100  92.9727130  33.2006100  36.6831960
  92.3429870  32.4993410  36.8502090  92.4332270  33.9610230  36.4665120
 104.1464140  49.3570900  36.3516820 104.3216330  48.6708640  35.7077740
 103.4485710  49.8817950  35.9593490  98.6056300  39.9136130  20.0599660
  98.5250350  38.9990740  19.7891370  98.1920720  40.4103200  19.3539370
  96.7374340  41.6915150  21.9408930  95.9616440  41.2115590  22.2307500
  97.3887270  41.0120800  21.7665090  90.7540170  42.0034960  22.8184690
  89.9225050  41.7483670  23.2181200  91.3621150  42.0745730  23.5542610
 100.7581770  46.0975340  20.7208060 100.2963300  45.3262580  21.0495230
 101.5707320  46.1241410  21.2260510  90.7341430  46.0375050  23.0142710
  91.0369470  45.1472790  22.8352930  91.4785020  46.5945270  22.7864960
  89.1632120  36.9636850  16.6027080  88.2748820  37.3052820  16.5006960
  89.4473310  36.7637170  15.7107910  87.1265130  39.5642500  22.4866780
  87.6981240  38.7964700  22.4870420  87.1266670  39.8631260  21.5773390
  96.9845080  48.3833350  20.3412050  96.3656520  48.8390850  19.7706490
  97.8396860  48.5384810  19.9401750  96.1783330  44.3672340  21.9479090
  96.1091610  43.4262280  21.7868220  96.9403190  44.4573750  22.5201660
  88.3690000  34.9726860  24.2735710  88.1892840  34.0752610  24.5538470
  87.9670080  35.5198730  24.9482660  97.2088500  37.1742720  22.1748020
  97.5853320  36.3014600  22.0621690  97.1108010  37.5101420  21.2838460
  91.3393510  35.5468350  17.6365460  91.4460260  36.4472080  17.9434220
  90.4285870  35.4986320  17.3460110 100.9912620  34.6693160  19.1076360
 101.8122240  34.1789730  19.1501840 101.0246700  35.2590820  19.8608200
  88.9876670  37.4687360  22.8818050  89.6686780  37.7325730  23.5005450
  88.6724720  36.6288230  23.2156060  93.1801240  38.5154720  21.9690640
  93.6879460  39.0135690  22.6095660  93.7114480  37.7389920  21.7930000
 105.2812170  36.6859910  25.6719990 104.5764340  37.0741620  25.1535100
 105.5470090  37.3810200  26.2740920  91.4637340  33.1553280  26.2354060
  91.4655780  33.6725670  25.4299960  90.6341650  32.6783460  26.2123990
  97.8508430  43.2672590  17.7343960  97.2325700  43.7322040  17.1706680
  98.3631680  43.9600070  18.1513470  92.7140190  42.7948460  24.4127560
  92.3809570  43.4217380  25.0548630  92.8906870  43.3210340  23.6329230
 101.2274100  36.6093540  21.8803900 100.5229670  36.8978430  22.4607010
 101.5886260  37.4193650  21.5203460  91.1452670  34.8663240  24.2424510
  91.4869480  35.7105290  23.9478380  90.2068480  35.0146980  24.3589850
  91.9259290  44.7629260  26.2276740  92.5433290  45.4380340  25.9461190
  91.0652410  45.1717240  26.1364240  87.2191630  43.9529120  15.1083590
  86.8419610  44.4416220  14.3768490  87.4764700  44.6254400  15.7390120
 104.2961020  36.0548330  22.2713110 103.3485930  36.0887310  22.4028540
 104.6211010  36.8687280  22.6562470  94.8280560  32.3545510  20.5669100
  95.1355540  31.7992400  19.8504600  93.8981260  32.4889970  20.3842090
 101.6741040  44.7929020  17.9466730 101.5637370  43.8503350  18.0716150
 101.6709290  45.1544660  18.8329490  97.2161320  40.4194340  17.3029220
  96.2890600  40.3531720  17.5317690  97.3686140  41.3574470  17.1884460
  97.2030400  36.6911340  14.2996380  96.2634070  36.8525300  14.3848840
  97.5213660  37.4097020  13.7532370 103.7243160  41.3729860  24.2775410
 102.8961790  41.4422950  23.8025540 104.3193640  41.9584170  23.8091240
 101.2458610  41.9814640  17.8064470 100.6271030  41.6434190  17.1590770
 101.2283060  41.3374400  18.5143660 100.6885170  38.1599180  25.2230280
 100.2756350  38.9852890  25.4770270  99.9561120  37.5744220  25.0306640
  92.8217960  40.9459080  20.0848950  92.4174960  40.2336330  19.5894850
  92.9081080  40.6012320  20.9736990  93.2899660  44.6326640  22.2488160
  92.9927950  44.0272110  21.5695940  94.2399480  44.6703950  22.1377520
  91.5346580  37.7202290  23.8647990  92.0861170  37.8297630  23.0901240
  92.0490090  38.0939890  24.5803220  92.3818090  44.3708330  28.8995960
  91.4846620  44.5948300  29.1469360  92.4070960  44.4943270  27.9507360
  99.4223310  41.2201450  14.8137220  99.8616590  40.3823880  14.6675040
 100.1351730  41.8530850  14.9001360  97.5318690  46.1597520  18.7818460
  97.9714600  46.9021850  18.3673850  97.4705580  46.4024090  19.7057420
 103.0040450  32.4744260  13.1278260 102.6913110  32.5671090  14.0277330
 103.7652920  33.0525290  13.0775690  89.5222590  39.8404060  17.5855600
  89.4020190  40.5666150  16.9736870  89.2123480  39.0706970  17.1083510
 104.9584480  47.9670450  30.9802650 105.4344200  48.4453340  31.6591730
 105.5791640  47.8987940  30.2548150  87.1607960  43.0119200  23.3924240
  87.2388380  43.1467970  22.4479960  87.7749640  42.3035090  23.5852360
  88.4055590  44.7119390  19.8030420  87.9983670  44.8533980  18.9484020
  89.2968600  44.4279550  19.6001630 100.1988870  49.1466640  16.1381470
 100.0390010  48.8569580  17.0363300 100.0335580  48.3706770  15.6026700
  92.6777250  48.9265170  17.9153090  92.5019730  48.0100710  17.7020890
  91.8232990  49.2852460  18.1550890  99.9015000  46.6554200  14.6979470
  99.2080160  46.6531490  14.0381750 100.6437860  46.2313520  14.2673640
  99.4664930  48.2816910  18.7727960  99.9221880  47.5006290  19.0866580
  99.8057450  48.9923730  19.3169140 104.2141740  37.2115760  29.1052400
 103.5986010  37.7195430  28.5767860 103.8938160  36.3114090  29.0478340
  87.2167480  44.0533370  25.9318700  87.3798520  43.5838730  25.1138070
  87.6819930  43.5456930  26.5967540  91.9886250  33.1839130  20.9679270
  91.5454400  33.9648670  20.6363790  92.5471240  33.5069020  21.6750210
  96.2756060  36.0507650  26.5714590  95.8135430  36.2590670  27.3834530
  95.8734170  35.2367000  26.2685260 101.2760570  37.2716600  27.7011250
 100.4254160  36.9722350  28.0220320 101.1162360  37.5158610  26.7895070
  98.3710280  38.7718350  29.8010040  98.6963690  37.9382100  29.4612270
  99.1590610  39.2946870  29.9488370  95.1045070  32.8049830  15.8485100
  94.4799250  32.8009700  16.5738410  95.0175190  31.9380790  15.4521070
  94.0262150  33.7286460  22.8268870  94.3234480  34.6349290  22.7460890
  94.5747710  33.2405240  22.2128440  91.7800470  38.3072700  18.6960520
  91.5541390  38.0909870  19.6007140  90.9993000  38.7401160  18.3506490
  99.0098230  38.3136070  17.2951170  98.4107120  39.0371870  17.1114790
  99.5577840  38.2512850  16.5127620  94.2199680  39.2058280  29.3620790
  94.1243280  38.2653010  29.2121190  95.0631660  39.4273350  28.9668860
  97.6163100  36.9499610  19.3254450  98.0092670  37.2671810  18.5123140
  97.9779950  36.0711490  19.4398970  95.9255270  35.7006920  30.5851310
  95.2353590  35.5079120  31.2197400  96.6687570  35.9841560  31.1175610
  86.6527270  33.5400410  21.5484650  86.3640320  34.1103270  22.2609630
  87.3973030  33.0604860  21.9115880  86.8397500  37.4820530  12.7587370
  86.7572170  38.4251290  12.9002360  86.4880560  37.3395440  11.8799720
  98.2018240  39.5405360  23.4205230  97.4699360  40.0492170  23.7695330
  97.8042580  38.7235340  23.1194010  94.6395630  36.2159560  21.8257720
  94.6431690  35.7749510  20.9762260  95.5346750  36.5376890  21.9329540
  90.4898010  36.0986050  20.7851930  90.1498060  36.5761280  21.5418980
  89.7275330  35.6451170  20.4253030  94.7015780  37.2171640  14.8164480
  94.8228600  37.1758120  15.7650300  94.3164290  38.0795790  14.6611210
  98.6644150  34.9939040  22.8328170  98.6816890  35.4447690  23.6770020
  98.4159730  34.0944680  23.0461610  93.7137280  39.5272780  14.2147780
  93.1454180  39.0791030  13.5883690  94.4226280  39.8865560  13.6812930
 102.0914900  32.4071220  28.6714550 102.4160670  31.6760880  29.1972530
 102.1271410  32.0884860  27.7695540  94.9403600  40.2761340  23.5723130
  95.3073730  39.8019910  24.3184470  94.7508660  41.1502910  23.9131470
  87.8044090  35.0205030  19.7016600  87.5191010  34.6560700  20.5395220
  87.7422950  34.2885490  19.0879740  92.7302970  39.3169980  25.8907340
  92.4260040  40.1961960  26.1157700  93.6849430  39.3769770  25.9264780
  91.2584760  43.5230970  16.4874190  90.4847020  42.9828590  16.3272910
  91.9879390  43.0037580  16.1491950 102.0172740  42.5196330  22.2800580
 102.7371860  43.0151620  21.8896690 101.8154560  41.8414220  21.6354450
  97.4782680  33.9134290  16.4229970  96.6647290  33.4147460  16.3475280
  97.2844630  34.7532540  16.0066320 100.1931070  38.2853940  14.7192130
 101.0810690  38.5971170  14.5443470 100.1636160  37.4126190  14.3272710
  91.3022160  43.1911350  20.1253000  91.8200830  42.3879610  20.0709890
  90.8506180  43.1290490  20.9669830  96.1891660  44.4577630  15.3980300
  96.5307360  45.2019860  14.9023620  95.3604370  44.7708750  15.7605130
  91.9879820  40.6156960  29.9218250  91.6879960  40.7614140  29.0246070
  92.7591060  40.0562250  29.8291640 102.4645340  39.5965780  14.1871990
 102.3809060  40.0280000  13.3368430 103.1839530  40.0564130  14.6198810
 103.4932590  46.4508040  16.9154120 102.8508750  45.7963660  17.1897840
 103.1063250  46.8563130  16.1394790  99.0719070  43.7793470  20.7625810
  99.4242890  43.1821600  20.1027180  98.1881400  43.4537700  20.9334060
  95.1582350  44.5391160  18.1696220  95.8453480  45.0860370  18.5503810
  94.3714770  45.0831890  18.2045830  87.2974750  40.1563980  13.6613300
  88.1669600  40.4388780  13.9449220  86.8065070  40.9699850  13.5462110
  94.4609560  41.5437190  17.7821580  94.9172340  42.3542440  18.0081770
  94.1097770  41.2260330  18.6140070  90.3621340  31.8874840  18.2544100
  90.2335970  31.8792740  19.2029020  89.5383360  32.2257930  17.9035110
 101.8829970  45.3424500  13.4530470 101.6567550  44.6254940  14.0455110
 101.4926170  45.0936940  12.6152220  87.6646000  49.3691360  14.2274930
  88.0243640  49.9680700  13.5732200  87.5238340  49.9151250  15.0009960
 101.4646220  43.2596440  15.1144630 101.1767920  43.7209130  15.9022510
 102.2598390  42.7994210  15.3828850  87.6487860  47.6346220  28.7017330
  87.7578980  46.6940960  28.5612720  86.9968420  47.9000970  28.0531060
  95.6400450  45.9062110  30.1015450  95.3197320  45.1871350  30.6461140
  94.9658810  46.5817180  30.1751510  93.6814620  46.7522560  15.0448600
  93.6724720  47.4852250  14.4293110  92.7612980  46.5054140  15.1375560
  89.2821260  41.9737450  15.7895360  88.6749210  42.7136350  15.7990660
  89.7570610  42.0636810  14.9633560  98.8554050  36.1388270  25.4652250
  99.2234870  35.3183480  25.7931820  97.9952250  36.1990160  25.8807900
 102.2216080  35.0945210  16.2739810 101.5929240  35.1990880  15.5598040
 101.7268000  35.3141990  17.0633690  96.6674220  46.8150800  13.7073790
  96.7686200  46.6114790  12.7775770  95.7675960  46.5609080  13.9121570
  94.1900110  37.3731160  17.6897690  93.4816260  37.8417500  18.1311300
  94.4744590  36.7153170  18.3242880  95.8156040  38.7927860  25.6890220
  96.3141290  39.2673680  26.3542070  95.9578990  37.8691380  25.8960250
  98.2215540  34.0981820  19.1293480  98.0983320  34.1167950  18.1802990
  99.1700100  34.1460760  19.2491880  95.3092330  49.3337120  18.4021460
  95.5633830  49.2958510  17.4800830  94.3604810  49.2070450  18.3949710
  92.3935130  35.6816240  15.0648400  93.2425660  36.1186390  14.9988590
  92.0266400  35.9936500  15.8920460 103.0222900  35.0095820  26.5318610
 102.5196500  35.7501220  26.8712420 103.8379560  35.3979820  26.2155400
 101.3144910  40.2529000  19.9779970 100.3735050  40.2679230  20.1527660
 101.6288980  39.4664960  20.4240270  91.2926550  41.9348600  13.5383930
  92.0589820  41.8229960  14.1009360  91.3701240  41.2386570  12.8860700
  89.9873310  39.3673670  14.2216820  90.0676900  38.4201180  14.3334220
  90.8793060  39.6980550  14.3277480 103.3170490  47.4237850  21.6534230
 103.4417910  48.2469020  22.1258040 104.1836050  47.2128580  21.3058380
  90.7888020  49.5169060  21.3251360  91.5250500  48.9684520  21.5959930
  91.1728940  50.3825070  21.1857350  87.6733500  45.5842630  17.1992870
  86.7473280  45.8263770  17.1898280  88.1389930  46.4116890  17.0777620
  93.8990330  48.6899370  13.1476930  94.6918940  48.9788200  12.6958720
  93.3794680  48.2591540  12.4689410 102.9520500  47.9169500  14.5713670
 102.6662010  47.5034640  13.7567850 102.7540050  48.8457210  14.4514190
  94.4167730  43.9102780  13.0119280  94.3118370  43.2955130  13.7380660
  94.2491950  43.3868670  12.2282290  94.5682050  42.5959580  28.9908510
  93.8027720  43.1644580  28.9063180  94.7498010  42.3035790  28.0976740
  97.6570460  42.9722810  13.6161270  97.1080560  43.4192110  14.2604010
  98.2789720  42.4672060  14.1398940  93.3245580  41.9313730  15.5126570
  93.7462000  41.7653600  16.3557960  93.4496420  41.1213960  15.0181710
  95.8373220  40.9551340  12.7603670  96.3578880  40.2400360  12.3944820
  96.4841620  41.5937210  13.0604180 100.8573230  39.7175900  30.0877890
 101.4394000  38.9628220  29.9998370 101.0335000  40.2483340  29.3109370
  91.9745300  34.8772650  28.3994840  91.8802170  34.2593400  27.6745710
  91.3942690  35.6038940  28.1724750  94.7406740  33.4345890  25.4322230
  94.2924040  33.4570150  24.5867780  94.1071940  33.0364910  26.0292530
  95.1466290  42.3300220  26.0534670  95.5654400  43.1732950  25.8810910
  94.2274920  42.4672260  25.8241450  97.4830190  40.0616400  27.4372510
  97.6026400  39.4657540  28.1767350  98.3424190  40.0986090  27.0173810
  99.8218090  40.6153590  26.0135020  99.2953310  41.1396210  25.4100160
 100.1649430  41.2480980  26.6444750  92.2204480  38.0046960  12.4584730
  92.0193540  37.1414320  12.8198070  92.0496530  37.9180320  11.5206330
  94.2498960  36.6037750  28.6948330  94.8398650  36.2953600  29.3826150
  93.4319200  36.1317500  28.8508230  99.0692390  36.2203560  28.9281350
  98.3807910  35.5585100  28.8631340  99.7898410  35.7741830  29.3729810
  99.6992790  32.8155190  14.9871610  99.9795080  31.9723090  15.3431030
  98.9258520  33.0478300  15.5010360  91.0187280  35.1047580  12.4462610
  91.3213180  35.1115010  11.5381760  91.7581870  34.7545440  12.9430270
  94.2372210  34.0482200  13.4318810  93.8894210  33.3706190  12.8521260
  94.4384980  33.5871710  14.2462200  96.4021250  49.0362950  15.0505410
  97.2972040  49.3747920  15.0724170  96.4338880  48.3142360  14.4229690
  90.0417410  44.4090000  13.2792410  90.4792280  44.9519670  13.9349990
  90.5265140  43.5836950  13.2888750  87.2563210  47.1979030  20.7312670
  87.5866220  46.3300090  20.4991310  87.6854210  47.4037550  21.5617630
  91.8525130  45.5288040  18.3914640  91.5520670  45.4053010  19.2918550
  91.7462620  44.6696630  17.9830370  87.7453420  48.0649620  23.4694300
  87.3084410  48.2450420  24.3018450  88.3131100  48.8224240  23.3276020
 103.3815600  47.5666620  27.7571610 102.7817590  47.6259180  27.0135530
 103.5109500  46.6271600  27.8868460 104.6217050  45.3084440  13.0941320
 103.7910010  45.3761090  13.5648550 104.7988880  46.1988560  12.7908180
 104.0773510  42.0531920  15.5975520 104.8392420  42.6228570  15.7035210
 104.0927880  41.4859120  16.3683830  87.5777850  40.5769850  19.8283180
  86.9226690  40.3081490  19.1842880  88.4155800  40.4674330  19.3785160
 105.0833480  42.9082020  20.4417450 105.4542310  42.1249340  20.0353420
 105.7235410  43.5971120  20.2634750 104.1292680  42.3466290  12.7548040
 104.4041520  43.2545170  12.6267260 103.9403420  42.2828820  13.6910030
 100.5268290  35.3711140  14.0501670 100.9453170  35.1842120  13.2098330
 100.2204350  34.5190190  14.3604600 104.0258020  40.2835280  17.7477470
 103.6501620  39.5163210  17.3158760 103.2961140  40.6657980  18.2352400
 103.4157640  39.4306800  27.3816990 103.1843730  39.2019550  26.4814940
 103.6762190  40.3506350  27.3361880 101.8545710  34.6563230  30.1596690
 102.7315890  34.6646630  30.5430690 101.8666550  33.9194070  29.5489040
  86.7915930  37.7868780  15.7708510  85.8880010  38.0498980  15.5960170
  87.2756550  38.0579950  14.9908470 103.3008980  38.5092770  21.0484710
 103.8246460  38.0155420  20.4174880 103.8868400  38.6443130  21.7932280
 103.4798700  38.5932640  24.5704260 102.5301410  38.5596180  24.6849250
 103.6611710  39.5032750  24.3354030  89.3343140  36.8434320  13.6802890
  90.0434840  36.4217540  13.1950170  88.6183080  36.9109550  13.0486240
  88.9817300  32.8973650  12.7205540  89.7045430  33.4382590  13.0386760
  89.2541820  32.6237070  11.8447080 102.7908950  37.7666120  16.9877120
 103.2868070  37.5336990  17.7726000 102.5925020  36.9277960  16.5714760
  88.6709490  32.1479840  22.6228160  89.3185680  31.5977220  22.1823320
  89.0911330  32.4022990  23.4443970 104.2196110  36.4027070  19.5214800
 104.1095390  36.2483110  20.4597070 104.9803700  35.8748010  19.2790210
 102.5661830  32.3421200  25.9797800 103.2034050  32.9555340  26.3456990
 102.7136720  32.3781860  25.0347030 105.1086380  34.2334990  12.7620940
 106.0335690  34.1016170  12.5539230 105.0862170  34.3127810  13.7157390
 105.1824870  35.0045650  15.3877650 104.3876370  34.9390770  15.9170560
 105.3868150  35.9396290  15.3763000 102.1243290  49.0437200  19.3816040
 102.7202360  48.7221770  18.7050460 102.3821440  48.5709020  20.1729310
  88.4241490  32.3035510  25.3653480  88.0756310  32.7599330  26.1311660
  88.0929190  31.4092640  25.4475910  90.0305860  45.4755110  29.5306670
  89.9875490  45.1048020  30.4121130  90.1616870  46.4132680  29.6708490
  93.7311890  47.0314700  25.1316390  93.4903250  47.2989260  24.2446910
  94.6714530  47.2020430  25.1867250  95.9366310  33.4947390  28.8872900
  95.8755200  34.0869220  29.6368310  96.8766690  33.3873350  28.7423160
  98.5740870  33.1517450  28.5265190  99.1881280  33.4696740  27.8646270
  99.1190430  32.6666040  29.1461050 104.9916050  49.0509080  25.9327030
 104.4974330  49.4477950  25.2154160 104.3829340  48.4258290  26.3264310
  89.0962130  31.8311710  28.6404250  89.6445120  31.6499760  27.8770360
  89.1617440  31.0405820  29.1760560  89.8693890  48.4217360  26.6504450
  89.2754210  48.2902060  27.3894490  89.8617730  47.5855500  26.1846550
  99.3148910  31.7149590  24.8534480  98.4408750  32.0484700  24.6507410
  99.2059660  31.2422770  25.6786350 100.2220890  33.9220460  26.2376200
  99.8934250  33.1072220  25.8577930 101.1703190  33.8790270  26.1141890
  89.5006120  45.7875740  25.6012490  88.7740180  45.1681030  25.5338440
  89.5615270  46.1816350  24.7310570  93.1051220  48.0020740  22.3861900
  93.6216240  47.3908100  21.8610160  93.7548600  48.5049520  22.8772910
  97.0623730  32.6319430  23.7927390  96.2795520  33.1064930  24.0724150
  96.7686660  31.7274260  23.6840570 101.6144800  33.3342530  21.8376480
 102.0552890  33.2787630  20.9898080 101.3452390  34.2500540  21.9086660
 103.4783370  32.9657770  19.8485300 103.4171770  32.0218990  19.7016320
 104.2575400  33.0737860  20.3938760  87.7836120  49.1050130  18.8109250
  87.6158160  48.4720810  19.5091140  86.9170630  49.3109530  18.4603440
  88.4064140  32.9366910  16.3141110  89.1643500  33.0495790  15.7405140
  87.9441310  33.7736110  16.2684540  94.9477950  35.0506180  19.3043420
  94.1352460  34.6763070  18.9639300  95.4519590  34.2951260  19.6064610
  99.4502930  31.7148630  20.5426490 100.0532300  32.2868840  21.0175010
  98.7095920  32.2788070  20.3200390 102.5937530  32.1170190  15.8166770
 102.7888160  33.0153640  16.0834200 101.8067400  31.8857270  16.3099720
  89.3898820  47.7983360  16.2559390  88.8646440  48.1791390  15.5521350
  89.3143400  48.4234130  16.9769100  90.7789290  33.4630960  14.8543080
  91.3082050  32.6760760  14.7251030  91.4117610  34.1422150  15.0878610
  92.9727130  33.2006100  17.9088470  92.3429870  32.4993410  18.0758600
  92.4332270  33.9610230  17.6921630 104.1464140  49.3570900  17.5773330
 104.3216330  48.6708640  16.9334250 103.4485710  49.8817950  17.1850000
  93.0982690  32.4790080  30.3440960  92.8166960  32.9823680  29.5801780
  93.4802390  31.6811830  29.9783090  91.9891790  49.7465740  15.1308640
  92.7210610  49.4625020  14.5832530  92.2485460  49.5079020  16.0208020
  91.1506580  45.8630470  15.1354970  90.5215460  46.3315570  15.6840800
  91.2654410  45.0179690  15.5701160  99.6998150  31.8943660  30.9221430
  99.5863600  32.2138270  31.8172950 100.5167890  32.2956170  30.6258710
 102.4796640  49.0415190  30.4040120 103.2721960  48.5464420  30.1966080
 102.7729790  49.7205330  31.0115730  96.7374340  41.6915150   3.1665440
  95.9616440  41.2115590   3.4564010  97.3887270  41.0120800   2.9921600
  90.7540170  42.0034960   4.0441200  89.9225050  41.7483670   4.4437710
  91.3621150  42.0745730   4.7799120 100.7581770  46.0975340   1.9464570
 100.2963300  45.3262580   2.2751740 101.5707320  46.1241410   2.4517020
  90.7341430  46.0375050   4.2399220  91.0369470  45.1472790   4.0609440
  91.4785020  46.5945270   4.0121470  87.1265130  39.5642500   3.7123290
  87.6981240  38.7964700   3.7126930  87.1266670  39.8631260   2.8029900
  96.1783330  44.3672340   3.1735600  96.1091610  43.4262280   3.0124730
  96.9403190  44.4573750   3.7458170  88.3690000  34.9726860   5.4992220
  88.1892840  34.0752610   5.7794980  87.9670080  35.5198730   6.1739170
  97.2088500  37.1742720   3.4004530  97.5853320  36.3014600   3.2878200
  97.1108010  37.5101420   2.5094970  88.9876670  37.4687360   4.1074560
  89.6686780  37.7325730   4.7261960  88.6724720  36.6288230   4.4412570
  93.1801240  38.5154720   3.1947150  93.6879460  39.0135690   3.8352170
  93.7114480  37.7389920   3.0186510 105.2812170  36.6859910   6.8976500
 104.5764340  37.0741620   6.3791610 105.5470090  37.3810200   7.4997430
  91.4637340  33.1553280   7.4610570  91.4655780  33.6725670   6.6556470
  90.6341650  32.6783460   7.4380500  92.7140190  42.7948460   5.6384070
  92.3809570  43.4217380   6.2805140  92.8906870  43.3210340   4.8585740
 101.2274100  36.6093540   3.1060410 100.5229670  36.8978430   3.6863520
 101.5886260  37.4193650   2.7459970  91.1452670  34.8663240   5.4681020
  91.4869480  35.7105290   5.1734890  90.2068480  35.0146980   5.5846360
  91.9259290  44.7629260   7.4533250  92.5433290  45.4380340   7.1717700
  91.0652410  45.1717240   7.3620750 102.8436880  46.2268670   5.3687890
 102.1600400  46.8967780   5.3604560 103.3831170  46.4249320   4.6032750
 104.2961020  36.0548330   3.4969620 103.3485930  36.0887310   3.6285050
 104.6211010  36.8687280   3.8818980 100.3795620  48.0712800   4.0833070
 100.3922780  47.6675090   3.2155330  99.8270840  48.8460090   3.9794500
  99.7781060  42.9742640   5.4115680 100.1949850  42.7602750   4.5769140
 100.5020880  43.2315430   5.9824300 103.7243160  41.3729860   5.5031920
 102.8961790  41.4422950   5.0282050 104.3193640  41.9584170   5.0347750
 100.6885170  38.1599180   6.4486790 100.2756350  38.9852890   6.7026780
  99.9561120  37.5744220   6.2563150  93.2899660  44.6326640   3.4744670
  92.9927950  44.0272110   2.7952450  94.2399480  44.6703950   3.3634030
  91.5346580  37.7202290   5.0904500  92.0861170  37.8297630   4.3157750
  92.0490090  38.0939890   5.8059730 101.3785270  48.2058510   7.1367770
 100.9015830  49.0130700   6.9440380 100.6947060  47.5536840   7.2893980
  92.3818090  44.3708330  10.1252470  91.4846620  44.5948300  10.3725870
  92.4070960  44.4943270   9.1763870  91.2089310  41.2421650   8.7009840
  91.0697080  42.1144450   9.0697240  90.3270670  40.8994460   8.5557780
  93.0069660  47.1843350  10.9094990  92.9785090  47.5886300  10.0423420
  92.8434630  46.2553710  10.7466590 104.9584480  47.9670450  12.2059160
 105.4344200  48.4453340  12.8848240 105.5791640  47.8987940  11.4804660
  87.1607960  43.0119200   4.6180750  87.2388380  43.1467970   3.6736470
  87.7749640  42.3035090   4.8108870 104.3617730  45.1583300   9.3659170
 104.4880790  44.9195180   8.4476350 104.4039110  44.3267840   9.8381250
  98.2234470  48.8611300   7.9353980  98.7379140  48.7719310   8.7376410
  97.3803550  49.2071000   8.2281890 104.2141740  37.2115760  10.3308910
 103.5986010  37.7195430   9.8024370 103.8938160  36.3114090  10.2734850
  87.2167480  44.0533370   7.1575210  87.3798520  43.5838730   6.3394580
  87.6819930  43.5456930   7.8224050  91.9886250  33.1839130   2.1935780
  91.5454400  33.9648670   1.8620300  92.5471240  33.5069020   2.9006720
  96.2756060  36.0507650   7.7971100  95.8135430  36.2590670   8.6091040
  95.8734170  35.2367000   7.4941770 101.2760570  37.2716600   8.9267760
 100.4254160  36.9722350   9.2476830 101.1162360  37.5158610   8.0151580
  98.3710280  38.7718350  11.0266550  98.6963690  37.9382100  10.6868780
  99.1590610  39.2946870  11.1744880  94.0262150  33.7286460   4.0525380
  94.3234480  34.6349290   3.9717400  94.5747710  33.2405240   3.4384950
  94.2199680  39.2058280  10.5877300  94.1243280  38.2653010  10.4377700
  95.0631660  39.4273350  10.1925370  89.3510220  35.6171950   8.7411080
  88.9573610  36.4647160   8.9483860  88.6628620  34.9798320   8.9319720
  95.9255270  35.7006920  11.8107820  95.2353590  35.5079120  12.4453910
  96.6687570  35.9841560  12.3432120  86.6527270  33.5400410   2.7741160
  86.3640320  34.1103270   3.4866140  87.3973030  33.0604860   3.1372390
  98.2018240  39.5405360   4.6461740  97.4699360  40.0492170   4.9951840
  97.8042580  38.7235340   4.3450520  94.6395630  36.2159560   3.0514230
  94.6431690  35.7749510   2.2018770  95.5346750  36.5376890   3.1586050
  90.4898010  36.0986050   2.0108440  90.1498060  36.5761280   2.7675490
  89.7275330  35.6451170   1.6509540  98.6644150  34.9939040   4.0584680
  98.6816890  35.4447690   4.9026530  98.4159730  34.0944680   4.2718120
 102.0914900  32.4071220   9.8971060 102.4160670  31.6760880  10.4229040
 102.1271410  32.0884860   8.9952050  88.7906460  43.4284800   9.3171020
  88.4061250  42.7878470   9.9153980  89.1018650  44.1320920   9.8865750
  94.9403600  40.2761340   4.7979640  95.3073730  39.8019910   5.5440980
  94.7508660  41.1502910   5.1387980  92.7302970  39.3169980   7.1163850
  92.4260040  40.1961960   7.3414210  93.6849430  39.3769770   7.1521290
 102.0172740  42.5196330   3.5057090 102.7371860  43.0151620   3.1153200
 101.8154560  41.8414220   2.8610960  97.3991540  42.5905390   9.3926090
  97.3328850  41.6701060   9.1383680  96.7696680  42.6880830  10.1070730
  88.7866700  40.1572720   8.2635210  88.4281640  40.8226570   8.8508550
  88.4921260  39.3256270   8.6347830  91.9879820  40.6156960  11.1474760
  91.6879960  40.7614140  10.2502580  92.7591060  40.0562250  11.0548150
  97.3308270  45.4125960   9.1429890  97.3452810  44.4806920   8.9248800
  96.6233370  45.4985720   9.7819660 103.5419480  42.0533300   8.4898470
 102.8167670  42.6462080   8.2927860 104.0694940  42.0456840   7.6911840
  96.7642170  47.0543530   6.2370390  97.4084390  47.2602910   6.9143810
  97.1271610  46.2931930   5.7841240  98.0374250  45.0575880   4.9547840
  98.6796480  44.3569040   5.0680010  98.5623600  45.8374320   4.7744730
  99.8111870  45.8570780   8.1583900 100.1468110  46.4437470   8.8361820
  98.8912210  45.7263490   8.3881690  87.3615270  33.6465960   8.9407310
  86.6473790  33.8462880   9.5459920  87.7810310  32.8705530   9.3122110
  87.6487860  47.6346220   9.9273840  87.7578980  46.6940960   9.7869230
  86.9968420  47.9000970   9.2787570  95.6400450  45.9062110  11.3271960
  95.3197320  45.1871350  11.8717650  94.9658810  46.5817180  11.4008020
  98.8554050  36.1388270   6.6908760  99.2234870  35.3183480   7.0188330
  97.9952250  36.1990160   7.1064410  95.8156040  38.7927860   6.9146730
  96.3141290  39.2673680   7.5798580  95.9578990  37.8691380   7.1216760
 103.0222900  35.0095820   7.7575120 102.5196500  35.7501220   8.0968930
 103.8379560  35.3979820   7.4411910 103.3170490  47.4237850   2.8790740
 103.4417910  48.2469020   3.3514550 104.1836050  47.2128580   2.5314890
  90.7888020  49.5169060   2.5507870  91.5250500  48.9684520   2.8216440
  91.1728940  50.3825070   2.4113860  89.7946300  48.7015130  11.7393450
  90.5959030  49.0227180  12.1528850  89.2798120  48.3410710  12.4613360
  98.6310930  44.8095000  11.6868860  98.0249090  44.8326600  10.9464610
  98.3265040  44.0778040  12.2236110 100.0611300  48.5375290  10.2978270
 101.0133050  48.4533310  10.2478510  99.9139520  49.2017000  10.9712060
  87.5144110  41.1888590  10.6829500  88.0183130  40.6095870  11.2545730
  86.7751530  41.4728820  11.2205870  94.5682050  42.5959580  10.2165020
  93.8027720  43.1644580  10.1319690  94.7498010  42.3035790   9.3233250
 101.7105400  44.3264910  10.7740040 102.4514870  44.6640670  10.2707500
 100.9478080  44.4956970  10.2209810  89.5467190  39.3318180  11.5779570
  89.5872530  39.0332050  12.4864800  90.4012690  39.7325790  11.4187090
  91.4873000  37.9110280   9.5454060  90.9569460  37.4201230   8.9177400
  92.1561070  38.3394480   9.0111990 100.3851060  42.3779740   9.3095250
 100.7992080  42.5324820  10.1585670  99.4502060  42.5034960   9.4721030
 100.8573230  39.7175900  11.3134400 101.4394000  38.9628220  11.2254880
 101.0335000  40.2483340  10.5365880  91.9745300  34.8772650   9.6251350
  91.8802170  34.2593400   8.9002220  91.3942690  35.6038940   9.3981260
  94.7406740  33.4345890   6.6578740  94.2924040  33.4570150   5.8124290
  94.1071940  33.0364910   7.2549040  95.1466290  42.3300220   7.2791180
  95.5654400  43.1732950   7.1067420  94.2274920  42.4672260   7.0497960
  97.4830190  40.0616400   8.6629020  97.6026400  39.4657540   9.4023860
  98.3424190  40.0986090   8.2430320  99.8218090  40.6153590   7.2391530
  99.2953310  41.1396210   6.6356670 100.1649430  41.2480980   7.8701260
  92.9973710  48.6353230   8.3948910  92.4594800  49.3599290   8.0757610
  93.2507670  48.1583570   7.6046250  94.2498960  36.6037750   9.9204840
  94.8398650  36.2953600  10.6082660  93.4319200  36.1317500  10.0764740
  99.0692390  36.2203560  10.1537860  98.3807910  35.5585100  10.0887850
  99.7898410  35.7741830  10.5986320  95.8535920  49.8704440   8.6535560
  95.7794620  50.7739580   8.9607930  94.9514760  49.5516340   8.6257630
  87.2563210  47.1979030   1.9569180  87.5866220  46.3300090   1.7247820
  87.6854210  47.4037550   2.7874140  87.7453420  48.0649620   4.6950810
  87.3084410  48.2450420   5.5274960  88.3131100  48.8224240   4.5532530
 103.3815600  47.5666620   8.9828120 102.7817590  47.6259180   8.2392040
 103.5109500  46.6271600   9.1124970 102.0667240  44.2918600   7.0804280
 101.2527080  44.7215760   7.3430070 102.4741440  44.9037010   6.4673330
  88.6153780  40.9622420   5.5943030  88.9826820  40.8749820   6.4739050
  88.0464600  40.1988970   5.4949890 103.4157640  39.4306800   8.6073500
 103.1843730  39.2019550   7.7071450 103.6762190  40.3506350   8.5618390
  88.1669780  37.8731510   9.5001450  87.2725830  37.8398270   9.8395160
  88.7067330  38.0718300  10.2652700 101.8545710  34.6563230  11.3853200
 102.7315890  34.6646630  11.7687200 101.8666550  33.9194070  10.7745550
 103.3008980  38.5092770   2.2741220 103.8246460  38.0155420   1.6431390
 103.8868400  38.6443130   3.0188790 103.4798700  38.5932640   5.7960770
 102.5301410  38.5596180   5.9105760 103.6611710  39.5032750   5.5610540
  88.6709490  32.1479840   3.8484670  89.3185680  31.5977220   3.4079830
  89.0911330  32.4022990   4.6700480 102.5661830  32.3421200   7.2054310
 103.2034050  32.9555340   7.5713500 102.7136720  32.3781860   6.2603540
  88.4241490  32.3035510   6.5909990  88.0756310  32.7599330   7.3568170
  88.0929190  31.4092640   6.6732420  90.0305860  45.4755110  10.7563180
  89.9875490  45.1048020  11.6377640  90.1616870  46.4132680  10.8965000
  93.7311890  47.0314700   6.3572900  93.4903250  47.2989260   5.4703420
  94.6714530  47.2020430   6.4123760  95.9366310  33.4947390  10.1129410
  95.8755200  34.0869220  10.8624820  96.8766690  33.3873350   9.9679670
  98.5740870  33.1517450   9.7521700  99.1881280  33.4696740   9.0902780
  99.1190430  32.6666040  10.3717560 104.9916050  49.0509080   7.1583540
 104.4974330  49.4477950   6.4410670 104.3829340  48.4258290   7.5520820
  89.0962130  31.8311710   9.8660760  89.6445120  31.6499760   9.1026870
  89.1617440  31.0405820  10.4017070  89.8693890  48.4217360   7.8760960
  89.2754210  48.2902060   8.6151000  89.8617730  47.5855500   7.4103060
  99.3148910  31.7149590   6.0790990  98.4408750  32.0484700   5.8763920
  99.2059660  31.2422770   6.9042860 100.2220890  33.9220460   7.4632710
  99.8934250  33.1072220   7.0834440 101.1703190  33.8790270   7.3398400
 102.6755500  49.6932500   4.4370280 102.2158470  50.4448310   4.0628300
 102.0467960  48.9738970   4.3785080  89.5006120  45.7875740   6.8269000
  88.7740180  45.1681030   6.7594950  89.5615270  46.1816350   5.9567080
  93.1051220  48.0020740   3.6118410  93.6216240  47.3908100   3.0866670
  93.7548600  48.5049520   4.1029420  95.8446720  48.8929230   4.4387390
  96.1324530  48.6383530   3.5620400  96.3569940  48.3406590   5.0292960
  97.0623730  32.6319430   5.0183900  96.2795520  33.1064930   5.2980660
  96.7686660  31.7274260   4.9097080 101.6144800  33.3342530   3.0632990
 102.0552890  33.2787630   2.2154590 101.3452390  34.2500540   3.1343170
  99.4502930  31.7148630   1.7683000 100.0532300  32.2868840   2.2431520
  98.7095920  32.2788070   1.5456900  95.9119080  49.8145330  11.8055590
  96.8386390  49.5789600  11.8491550  95.8969510  50.6417330  11.3241620
  93.0982690  32.4790080  11.5697470  92.8166960  32.9823680  10.8058290
  93.4802390  31.6811830  11.2039600  99.6998150  31.8943660  12.1477940
  99.5863600  32.2138270  13.0429460 100.5167890  32.2956170  11.8515220
 102.4796640  49.0415190  11.6296630 103.2721960  48.5464420  11.4222590
 102.7729790  49.7205330  12.2372240  98.6056300  21.1392640 151.4804090
  98.5250350  20.2247250 151.2095800  98.1920720  21.6359710 150.7743800
  96.7374340  22.9171660 153.3613360  95.9616440  22.4372100 153.6511930
  97.3887270  22.2377310 153.1869520 100.7581770  27.3231850 152.1412490
 100.2963300  26.5519090 152.4699660 101.5707320  27.3497920 152.6464940
  90.7341430  27.2631560 154.4347140  91.0369470  26.3729300 154.2557360
  91.4785020  27.8201780 154.2069390  89.1632120  18.1893360 148.0231510
  88.2748820  18.5309330 147.9211390  89.4473310  17.9893680 147.1312340
  87.1265130  20.7899010 153.9071210  87.6981240  20.0221210 153.9074850
  87.1266670  21.0887770 152.9977820  96.9845080  29.6089860 151.7616480
  96.3656520  30.0647360 151.1910920  97.8396860  29.7641320 151.3606180
  96.1783330  25.5928850 153.3683520  96.1091610  24.6518790 153.2072650
  96.9403190  25.6830260 153.9406090  97.2088500  18.3999230 153.5952450
  97.5853320  17.5271110 153.4826120  97.1108010  18.7357930 152.7042890
  91.3393510  16.7724860 149.0569890  91.4460260  17.6728590 149.3638650
  90.4285870  16.7242830 148.7664540 100.9912620  15.8949670 150.5280790
 101.8122240  15.4046240 150.5706270 101.0246700  16.4847330 151.2812630
  93.1801240  19.7411230 153.3895070  93.6879460  20.2392200 154.0300090
  93.7114480  18.9646430 153.2134430  97.8508430  24.4929100 149.1548390
  97.2325700  24.9578550 148.5911110  98.3631680  25.1856580 149.5717900
 101.2274100  17.8350050 153.3008330 100.5229670  18.1234940 153.8811440
 101.5886260  18.6450160 152.9407890  87.2191630  25.1785630 146.5288020
  86.8419610  25.6672730 145.7972920  87.4764700  25.8510910 147.1594550
 104.2961020  17.2804840 153.6917540 103.3485930  17.3143820 153.8232970
 104.6211010  18.0943790 154.0766900  94.8280560  13.5802020 151.9873530
  95.1355540  13.0248910 151.2709030  93.8981260  13.7146480 151.8046520
 100.3795620  29.2969310 154.2780990 100.3922780  28.8931600 153.4103250
  99.8270840  30.0716600 154.1742420 101.6741040  26.0185530 149.3671160
 101.5637370  25.0759860 149.4920580 101.6709290  26.3801170 150.2533920
  97.2161320  21.6450850 148.7233650  96.2890600  21.5788230 148.9522120
  97.3686140  22.5830980 148.6088890  97.2030400  17.9167850 145.7200810
  96.2634070  18.0781810 145.8053270  97.5213660  18.6353530 145.1736800
 101.2458610  23.2071150 149.2268900 100.6271030  22.8690700 148.5795200
 101.2283060  22.5630910 149.9348090  92.8217960  22.1715590 151.5053380
  92.4174960  21.4592840 151.0099280  92.9081080  21.8268830 152.3941420
  93.2899660  25.8583150 153.6692590  92.9927950  25.2528620 152.9900370
  94.2399480  25.8960460 153.5581950  99.4223310  22.4457960 146.2341650
  99.8616590  21.6080390 146.0879470 100.1351730  23.0787360 146.3205790
  97.5318690  27.3854030 150.2022890  97.9714600  28.1278360 149.7878280
  97.4705580  27.6280600 151.1261850 103.0040450  13.7000770 144.5482690
 102.6913110  13.7927600 145.4481760 103.7652920  14.2781800 144.4980120
  89.5222590  21.0660570 149.0060030  89.4020190  21.7922660 148.3941300
  89.2123480  20.2963480 148.5287940  88.4055590  25.9375900 151.2234850
  87.9983670  26.0790490 150.3688450  89.2968600  25.6536060 151.0206060
 100.1988870  30.3723150 147.5585900 100.0390010  30.0826090 148.4567730
 100.0335580  29.5963280 147.0231130  92.6777250  30.1521680 149.3357520
  92.5019730  29.2357220 149.1225320  91.8232990  30.5108970 149.5755320
  99.9015000  27.8810710 146.1183900  99.2080160  27.8788000 145.4586180
 100.6437860  27.4570030 145.6878070  99.4664930  29.5073420 150.1932390
  99.9221880  28.7262800 150.5071010  99.8057450  30.2180240 150.7373570
  91.9886250  14.4095640 152.3883700  91.5454400  15.1905180 152.0568220
  92.5471240  14.7325530 153.0954640  95.1045070  14.0306340 147.2689530
  94.4799250  14.0266210 147.9942840  95.0175190  13.1637300 146.8725500
  94.0262150  14.9542970 154.2473300  94.3234480  15.8605800 154.1665320
  94.5747710  14.4661750 153.6332870  91.7800470  19.5329210 150.1164950
  91.5541390  19.3166380 151.0211570  90.9993000  19.9657670 149.7710920
  99.0098230  19.5392580 148.7155600  98.4107120  20.2628380 148.5319220
  99.5577840  19.4769360 147.9332050  97.6163100  18.1756120 150.7458880
  98.0092670  18.4928320 149.9327570  97.9779950  17.2968000 150.8603400
  86.6527270  14.7656920 152.9689080  86.3640320  15.3359780 153.6814060
  87.3973030  14.2861370 153.3320310  86.8397500  18.7077040 144.1791800
  86.7572170  19.6507800 144.3206790  86.4880560  18.5651950 143.3004150
  94.6395630  17.4416070 153.2462150  94.6431690  17.0006020 152.3966690
  95.5346750  17.7633400 153.3533970  90.4898010  17.3242560 152.2056360
  90.1498060  17.8017790 152.9623410  89.7275330  16.8707680 151.8457460
  94.7015780  18.4428150 146.2368910  94.8228600  18.4014630 147.1854730
  94.3164290  19.3052300 146.0815640  93.7137280  20.7529290 145.6352210
  93.1454180  20.3047540 145.0088120  94.4226280  21.1122070 145.1017360
  87.8044090  16.2461540 151.1221030  87.5191010  15.8817210 151.9599650
  87.7422950  15.5142000 150.5084170  91.2584760  24.7487480 147.9078620
  90.4847020  24.2085100 147.7477340  91.9879390  24.2294090 147.5696380
 102.0172740  23.7452840 153.7005010 102.7371860  24.2408130 153.3101120
 101.8154560  23.0670730 153.0558880  97.4782680  15.1390800 147.8434400
  96.6647290  14.6403970 147.7679710  97.2844630  15.9789050 147.4270750
 100.1931070  19.5110450 146.1396560 101.0810690  19.8227680 145.9647900
 100.1636160  18.6382700 145.7477140  91.3022160  24.4167860 151.5457430
  91.8200830  23.6136120 151.4914320  90.8506180  24.3547000 152.3874260
  96.1891660  25.6834140 146.8184730  96.5307360  26.4276370 146.3228050
  95.3604370  25.9965260 147.1809560 102.4645340  20.8222290 145.6076420
 102.3809060  21.2536510 144.7572860 103.1839530  21.2820640 146.0403240
 103.4932590  27.6764550 148.3358550 102.8508750  27.0220170 148.6102270
 103.1063250  28.0819640 147.5599220  99.0719070  25.0049980 152.1830240
  99.4242890  24.4078110 151.5231610  98.1881400  24.6794210 152.3538490
  95.1582350  25.7647670 149.5900650  95.8453480  26.3116880 149.9708240
  94.3714770  26.3088400 149.6250260  87.2974750  21.3820490 145.0817730
  88.1669600  21.6645290 145.3653650  86.8065070  22.1956360 144.9666540
  94.4609560  22.7693700 149.2026010  94.9172340  23.5798950 149.4286200
  94.1097770  22.4516840 150.0344500  90.3621340  13.1131350 149.6748530
  90.2335970  13.1049250 150.6233450  89.5383360  13.4514440 149.3239540
 101.8829970  26.5681010 144.8734900 101.6567550  25.8511450 145.4659540
 101.4926170  26.3193450 144.0356650  87.6646000  30.5947870 145.6479360
  88.0243640  31.1937210 144.9936630  87.5238340  31.1407760 146.4214390
 101.4646220  24.4852950 146.5349060 101.1767920  24.9465640 147.3226940
 102.2598390  24.0250720 146.8033280  93.6814620  27.9779070 146.4653030
  93.6724720  28.7108760 145.8497540  92.7612980  27.7310650 146.5579990
  89.2821260  23.1993960 147.2099790  88.6749210  23.9392860 147.2195090
  89.7570610  23.2893320 146.3837990 102.2216080  16.3201720 147.6944240
 101.5929240  16.4247390 146.9802470 101.7268000  16.5398500 148.4838120
  96.6674220  28.0407310 145.1278220  96.7686200  27.8371300 144.1980200
  95.7675960  27.7865590 145.3326000  94.1900110  18.5987670 149.1102120
  93.4816260  19.0674010 149.5515730  94.4744590  17.9409680 149.7447310
  98.2215540  15.3238330 150.5497910  98.0983320  15.3424460 149.6007420
  99.1700100  15.3717270 150.6696310  95.3092330  30.5593630 149.8225890
  95.5633830  30.5215020 148.9005260  94.3604810  30.4326960 149.8154140
  92.3935130  16.9072750 146.4852830  93.2425660  17.3442900 146.4193020
  92.0266400  17.2193010 147.3124890 101.3144910  21.4785510 151.3984400
 100.3735050  21.4935740 151.5732090 101.6288980  20.6921470 151.8444700
  91.2926550  23.1605110 144.9588360  92.0589820  23.0486470 145.5213790
  91.3701240  22.4643080 144.3065130  89.9873310  20.5930180 145.6421250
  90.0676900  19.6457690 145.7538650  90.8793060  20.9237060 145.7481910
 103.3170490  28.6494360 153.0738660 103.4417910  29.4725530 153.5462470
 104.1836050  28.4385090 152.7262810  90.7888020  30.7425570 152.7455790
  91.5250500  30.1941030 153.0164360  91.1728940  31.6081580 152.6061780
  87.6733500  26.8099140 148.6197300  86.7473280  27.0520280 148.6102710
  88.1389930  27.6373400 148.4982050  93.8990330  29.9155880 144.5681360
  94.6918940  30.2044710 144.1163150  93.3794680  29.4848050 143.8893840
 102.9520500  29.1426010 145.9918100 102.6662010  28.7291150 145.1772280
 102.7540050  30.0713720 145.8718620  94.4167730  25.1359290 144.4323710
  94.3118370  24.5211640 145.1585090  94.2491950  24.6125180 143.6486720
  97.6570460  24.1979320 145.0365700  97.1080560  24.6448620 145.6808440
  98.2789720  23.6928570 145.5603370  93.3245580  23.1570240 146.9331000
  93.7462000  22.9910110 147.7762390  93.4496420  22.3470470 146.4386140
  95.8373220  22.1807850 144.1808100  96.3578880  21.4656870 143.8149250
  96.4841620  22.8193720 144.4808610  92.2204480  19.2303470 143.8789160
  92.0193540  18.3670830 144.2402500  92.0496530  19.1436830 142.9410760
  99.6992790  14.0411700 146.4076040  99.9795080  13.1979600 146.7635460
  98.9258520  14.2734810 146.9214790  91.0187280  16.3304090 143.8667040
  91.3213180  16.3371520 142.9586190  91.7581870  15.9801950 144.3634700
  94.2372210  15.2738710 144.8523240  93.8894210  14.5962700 144.2725690
  94.4384980  14.8128220 145.6666630  96.4021250  30.2619460 146.4709840
  97.2972040  30.6004430 146.4928600  96.4338880  29.5398870 145.8434120
  90.0417410  25.6346510 144.6996840  90.4792280  26.1776180 145.3554420
  90.5265140  24.8093460 144.7093180  87.2563210  28.4235540 152.1517100
  87.5866220  27.5556600 151.9195740  87.6854210  28.6294060 152.9822060
  91.8525130  26.7544550 149.8119070  91.5520670  26.6309520 150.7122980
  91.7462620  25.8953140 149.4034800 104.6217050  26.5340950 144.5145750
 103.7910010  26.6017600 144.9852980 104.7988880  27.4245070 144.2112610
 104.0773510  23.2788430 147.0179950 104.8392420  23.8485080 147.1239640
 104.0927880  22.7115630 147.7888260  87.5777850  21.8026360 151.2487610
  86.9226690  21.5338000 150.6047310  88.4155800  21.6930840 150.7989590
 105.0833480  24.1338530 151.8621880 105.4542310  23.3505850 151.4557850
 105.7235410  24.8227630 151.6839180 104.1292680  23.5722800 144.1752470
 104.4041520  24.4801680 144.0471690 103.9403420  23.5085330 145.1114460
 100.5268290  16.5967650 145.4706100 100.9453170  16.4098630 144.6302760
 100.2204350  15.7446700 145.7809030 104.0258020  21.5091790 149.1681900
 103.6501620  20.7419720 148.7363190 103.2961140  21.8914490 149.6556830
  86.7915930  19.0125290 147.1912940  85.8880010  19.2755490 147.0164600
  87.2756550  19.2836460 146.4112900 103.3008980  19.7349280 152.4689140
 103.8246460  19.2411930 151.8379310 103.8868400  19.8699640 153.2136710
  89.3343140  18.0690830 145.1007320  90.0434840  17.6474050 144.6154600
  88.6183080  18.1366060 144.4690670  88.9817300  14.1230160 144.1409970
  89.7045430  14.6639100 144.4591190  89.2541820  13.8493580 143.2651510
 102.7908950  18.9922630 148.4081550 103.2868070  18.7593500 149.1930430
 102.5925020  18.1534470 147.9919190 104.2196110  17.6283580 150.9419230
 104.1095390  17.4739620 151.8801500 104.9803700  17.1004520 150.6994640
 105.1086380  15.4591500 144.1825370 106.0335690  15.3272680 143.9743660
 105.0862170  15.5384320 145.1361820 105.1824870  16.2302160 146.8082080
 104.3876370  16.1647280 147.3374990 105.3868150  17.1652800 146.7967430
 102.1243290  30.2693710 150.8020470 102.7202360  29.9478280 150.1254890
 102.3821440  29.7965530 151.5933740  93.1051220  29.2277250 153.8066330
  93.6216240  28.6164610 153.2814590  93.7548600  29.7306030 154.2977340
 101.6144800  14.5599040 153.2580910 102.0552890  14.5044140 152.4102510
 101.3452390  15.4757050 153.3291090 103.4783370  14.1914280 151.2689730
 103.4171770  13.2475500 151.1220750 104.2575400  14.2994370 151.8143190
  87.7836120  30.3306640 150.2313680  87.6158160  29.6977320 150.9295570
  86.9170630  30.5366040 149.8807870  88.4064140  14.1623420 147.7345540
  89.1643500  14.2752300 147.1609570  87.9441310  14.9992620 147.6888970
  94.9477950  16.2762690 150.7247850  94.1352460  15.9019580 150.3843730
  95.4519590  15.5207770 151.0269040  99.4502930  12.9405140 151.9630920
 100.0532300  13.5125350 152.4379440  98.7095920  13.5044580 151.7404820
 102.5937530  13.3426700 147.2371200 102.7888160  14.2410150 147.5038630
 101.8067400  13.1113780 147.7304150  89.3898820  29.0239870 147.6763820
  88.8646440  29.4047900 146.9725780  89.3143400  29.6490640 148.3973530
  90.7789290  14.6887470 146.2747510  91.3082050  13.9017270 146.1455460
  91.4117610  15.3678660 146.5083040  92.9727130  14.4262610 149.3292900
  92.3429870  13.7249920 149.4963030  92.4332270  15.1866740 149.1126060
 104.1464140  30.5827410 148.9977760 104.3216330  29.8965150 148.3538680
 103.4485710  31.1074460 148.6054430  91.9891790  30.9722250 146.5513070
  92.7210610  30.6881530 146.0036960  92.2485460  30.7335530 147.4412450
  91.1506580  27.0886980 146.5559400  90.5215460  27.5572080 147.1045230
  91.2654410  26.2436200 146.9905590  98.6056300  21.1392640 132.7060600
  98.5250350  20.2247250 132.4352310  98.1920720  21.6359710 132.0000310
  96.7374340  22.9171660 134.5869870  95.9616440  22.4372100 134.8768440
  97.3887270  22.2377310 134.4126030  90.7540170  23.2291470 135.4645630
  89.9225050  22.9740180 135.8642140  91.3621150  23.3002240 136.2003550
 100.7581770  27.3231850 133.3669000 100.2963300  26.5519090 133.6956170
 101.5707320  27.3497920 133.8721450  90.7341430  27.2631560 135.6603650
  91.0369470  26.3729300 135.4813870  91.4785020  27.8201780 135.4325900
  89.1632120  18.1893360 129.2488020  88.2748820  18.5309330 129.1467900
  89.4473310  17.9893680 128.3568850  87.1265130  20.7899010 135.1327720
  87.6981240  20.0221210 135.1331360  87.1266670  21.0887770 134.2234330
  96.9845080  29.6089860 132.9872990  96.3656520  30.0647360 132.4167430
  97.8396860  29.7641320 132.5862690  96.1783330  25.5928850 134.5940030
  96.1091610  24.6518790 134.4329160  96.9403190  25.6830260 135.1662600
  88.3690000  16.1983370 136.9196650  88.1892840  15.3009120 137.1999410
  87.9670080  16.7455240 137.5943600  97.2088500  18.3999230 134.8208960
  97.5853320  17.5271110 134.7082630  97.1108010  18.7357930 133.9299400
  91.3393510  16.7724860 130.2826400  91.4460260  17.6728590 130.5895160
  90.4285870  16.7242830 129.9921050 100.9912620  15.8949670 131.7537300
 101.8122240  15.4046240 131.7962780 101.0246700  16.4847330 132.5069140
  88.9876670  18.6943870 135.5278990  89.6686780  18.9582240 136.1466390
  88.6724720  17.8544740 135.8617000  93.1801240  19.7411230 134.6151580
  93.6879460  20.2392200 135.2556600  93.7114480  18.9646430 134.4390940
 105.2812170  17.9116420 138.3180930 104.5764340  18.2998130 137.7996040
 105.5470090  18.6066710 138.9201860  91.4637340  14.3809790 138.8815000
  91.4655780  14.8982180 138.0760900  90.6341650  13.9039970 138.8584930
  97.8508430  24.4929100 130.3804900  97.2325700  24.9578550 129.8167620
  98.3631680  25.1856580 130.7974410  92.7140190  24.0204970 137.0588500
  92.3809570  24.6473890 137.7009570  92.8906870  24.5466850 136.2790170
 101.2274100  17.8350050 134.5264840 100.5229670  18.1234940 135.1067950
 101.5886260  18.6450160 134.1664400  91.1452670  16.0919750 136.8885450
  91.4869480  16.9361800 136.5939320  90.2068480  16.2403490 137.0050790
  91.9259290  25.9885770 138.8737680  92.5433290  26.6636850 138.5922130
  91.0652410  26.3973750 138.7825180  87.2191630  25.1785630 127.7544530
  86.8419610  25.6672730 127.0229430  87.4764700  25.8510910 128.3851060
 102.8436880  27.4525180 136.7892320 102.1600400  28.1224290 136.7808990
 103.3831170  27.6505830 136.0237180 104.2961020  17.2804840 134.9174050
 103.3485930  17.3143820 135.0489480 104.6211010  18.0943790 135.3023410
  94.8280560  13.5802020 133.2130040  95.1355540  13.0248910 132.4965540
  93.8981260  13.7146480 133.0303030 100.3795620  29.2969310 135.5037500
 100.3922780  28.8931600 134.6359760  99.8270840  30.0716600 135.3998930
 101.6741040  26.0185530 130.5927670 101.5637370  25.0759860 130.7177090
 101.6709290  26.3801170 131.4790430  99.7781060  24.1999150 136.8320110
 100.1949850  23.9859260 135.9973570 100.5020880  24.4571940 137.4028730
  97.2161320  21.6450850 129.9490160  96.2890600  21.5788230 130.1778630
  97.3686140  22.5830980 129.8345400  97.2030400  17.9167850 126.9457320
  96.2634070  18.0781810 127.0309780  97.5213660  18.6353530 126.3993310
 103.7243160  22.5986370 136.9236350 102.8961790  22.6679460 136.4486480
 104.3193640  23.1840680 136.4552180 101.2458610  23.2071150 130.4525410
 100.6271030  22.8690700 129.8051710 101.2283060  22.5630910 131.1604600
 100.6885170  19.3855690 137.8691220 100.2756350  20.2109400 138.1231210
  99.9561120  18.8000730 137.6767580  92.8217960  22.1715590 132.7309890
  92.4174960  21.4592840 132.2355790  92.9081080  21.8268830 133.6197930
  93.2899660  25.8583150 134.8949100  92.9927950  25.2528620 134.2156880
  94.2399480  25.8960460 134.7838460  91.5346580  18.9458800 136.5108930
  92.0861170  19.0554140 135.7362180  92.0490090  19.3196400 137.2264160
 101.3785270  29.4315020 138.5572200 100.9015830  30.2387210 138.3644810
 100.6947060  28.7793350 138.7098410  92.3818090  25.5964840 141.5456900
  91.4846620  25.8204810 141.7930300  92.4070960  25.7199780 140.5968300
  99.4223310  22.4457960 127.4598160  99.8616590  21.6080390 127.3135980
 100.1351730  23.0787360 127.5462300  91.2089310  22.4678160 140.1214270
  91.0697080  23.3400960 140.4901670  90.3270670  22.1250970 139.9762210
  97.5318690  27.3854030 131.4279400  97.9714600  28.1278360 131.0134790
  97.4705580  27.6280600 132.3518360  93.0069660  28.4099860 142.3299420
  92.9785090  28.8142810 141.4627850  92.8434630  27.4810220 142.1671020
 103.0040450  13.7000770 125.7739200 102.6913110  13.7927600 126.6738270
 103.7652920  14.2781800 125.7236630  89.5222590  21.0660570 130.2316540
  89.4020190  21.7922660 129.6197810  89.2123480  20.2963480 129.7544450
 104.9584480  29.1926960 143.6263590 105.4344200  29.6709850 144.3052670
 105.5791640  29.1244450 142.9009090  87.1607960  24.2375710 136.0385180
  87.2388380  24.3724480 135.0940900  87.7749640  23.5291600 136.2313300
  88.4055590  25.9375900 132.4491360  87.9983670  26.0790490 131.5944960
  89.2968600  25.6536060 132.2462570 104.3617730  26.3839810 140.7863600
 104.4880790  26.1451690 139.8680780 104.4039110  25.5524350 141.2585680
  98.2234470  30.0867810 139.3558410  98.7379140  29.9975820 140.1580840
  97.3803550  30.4327510 139.6486320 100.1988870  30.3723150 128.7842410
 100.0390010  30.0826090 129.6824240 100.0335580  29.5963280 128.2487640
  92.6777250  30.1521680 130.5614030  92.5019730  29.2357220 130.3481830
  91.8232990  30.5108970 130.8011830  99.9015000  27.8810710 127.3440410
  99.2080160  27.8788000 126.6842690 100.6437860  27.4570030 126.9134580
  99.4664930  29.5073420 131.4188900  99.9221880  28.7262800 131.7327520
  99.8057450  30.2180240 131.9630080 104.2141740  18.4372270 141.7513340
 103.5986010  18.9451940 141.2228800 103.8938160  17.5370600 141.6939280
  87.2167480  25.2789880 138.5779640  87.3798520  24.8095240 137.7599010
  87.6819930  24.7713440 139.2428480  91.9886250  14.4095640 133.6140210
  91.5454400  15.1905180 133.2824730  92.5471240  14.7325530 134.3211150
  96.2756060  17.2764160 139.2175530  95.8135430  17.4847180 140.0295470
  95.8734170  16.4623510 138.9146200 101.2760570  18.4973110 140.3472190
 100.4254160  18.1978860 140.6681260 101.1162360  18.7415120 139.4356010
  98.3710280  19.9974860 142.4470980  98.6963690  19.1638610 142.1073210
  99.1590610  20.5203380 142.5949310  95.1045070  14.0306340 128.4946040
  94.4799250  14.0266210 129.2199350  95.0175190  13.1637300 128.0982010
  94.0262150  14.9542970 135.4729810  94.3234480  15.8605800 135.3921830
  94.5747710  14.4661750 134.8589380  91.7800470  19.5329210 131.3421460
  91.5541390  19.3166380 132.2468080  90.9993000  19.9657670 130.9967430
  99.0098230  19.5392580 129.9412110  98.4107120  20.2628380 129.7575730
  99.5577840  19.4769360 129.1588560  94.2199680  20.4314790 142.0081730
  94.1243280  19.4909520 141.8582130  95.0631660  20.6529860 141.6129800
  97.6163100  18.1756120 131.9715390  98.0092670  18.4928320 131.1584080
  97.9779950  17.2968000 132.0859910  89.3510220  16.8428460 140.1615510
  88.9573610  17.6903670 140.3688290  88.6628620  16.2054830 140.3524150
  95.9255270  16.9263430 143.2312250  95.2353590  16.7335630 143.8658340
  96.6687570  17.2098070 143.7636550  86.6527270  14.7656920 134.1945590
  86.3640320  15.3359780 134.9070570  87.3973030  14.2861370 134.5576820
  86.8397500  18.7077040 125.4048310  86.7572170  19.6507800 125.5463300
  86.4880560  18.5651950 124.5260660  98.2018240  20.7661870 136.0666170
  97.4699360  21.2748680 136.4156270  97.8042580  19.9491850 135.7654950
  94.6395630  17.4416070 134.4718660  94.6431690  17.0006020 133.6223200
  95.5346750  17.7633400 134.5790480  90.4898010  17.3242560 133.4312870
  90.1498060  17.8017790 134.1879920  89.7275330  16.8707680 133.0713970
  94.7015780  18.4428150 127.4625420  94.8228600  18.4014630 128.4111240
  94.3164290  19.3052300 127.3072150  98.6644150  16.2195550 135.4789110
  98.6816890  16.6704200 136.3230960  98.4159730  15.3201190 135.6922550
  93.7137280  20.7529290 126.8608720  93.1454180  20.3047540 126.2344630
  94.4226280  21.1122070 126.3273870 102.0914900  13.6327730 141.3175490
 102.4160670  12.9017390 141.8433470 102.1271410  13.3141370 140.4156480
  88.7906460  24.6541310 140.7375450  88.4061250  24.0134980 141.3358410
  89.1018650  25.3577430 141.3070180  94.9403600  21.5017850 136.2184070
  95.3073730  21.0276420 136.9645410  94.7508660  22.3759420 136.5592410
  87.8044090  16.2461540 132.3477540  87.5191010  15.8817210 133.1856160
  87.7422950  15.5142000 131.7340680  92.7302970  20.5426490 138.5368280
  92.4260040  21.4218470 138.7618640  93.6849430  20.6026280 138.5725720
  91.2584760  24.7487480 129.1335130  90.4847020  24.2085100 128.9733850
  91.9879390  24.2294090 128.7952890 102.0172740  23.7452840 134.9261520
 102.7371860  24.2408130 134.5357630 101.8154560  23.0670730 134.2815390
  97.4782680  15.1390800 129.0690910  96.6647290  14.6403970 128.9936220
  97.2844630  15.9789050 128.6527260  97.3991540  23.8161900 140.8130520
  97.3328850  22.8957570 140.5588110  96.7696680  23.9137340 141.5275160
 100.1931070  19.5110450 127.3653070 101.0810690  19.8227680 127.1904410
 100.1636160  18.6382700 126.9733650  91.3022160  24.4167860 132.7713940
  91.8200830  23.6136120 132.7170830  90.8506180  24.3547000 133.6130770
  96.1891660  25.6834140 128.0441240  96.5307360  26.4276370 127.5484560
  95.3604370  25.9965260 128.4066070  88.7866700  21.3829230 139.6839640
  88.4281640  22.0483080 140.2712980  88.4921260  20.5512780 140.0552260
  91.9879820  21.8413470 142.5679190  91.6879960  21.9870650 141.6707010
  92.7591060  21.2818760 142.4752580  97.3308270  26.6382470 140.5634320
  97.3452810  25.7063430 140.3453230  96.6233370  26.7242230 141.2024090
 102.4645340  20.8222290 126.8332930 102.3809060  21.2536510 125.9829370
 103.1839530  21.2820640 127.2659750 103.5419480  23.2789810 139.9102900
 102.8167670  23.8718590 139.7132290 104.0694940  23.2713350 139.1116270
 103.4932590  27.6764550 129.5615060 102.8508750  27.0220170 129.8358780
 103.1063250  28.0819640 128.7855730  99.0719070  25.0049980 133.4086750
  99.4242890  24.4078110 132.7488120  98.1881400  24.6794210 133.5795000
  95.1582350  25.7647670 130.8157160  95.8453480  26.3116880 131.1964750
  94.3714770  26.3088400 130.8506770  87.2974750  21.3820490 126.3074240
  88.1669600  21.6645290 126.5910160  86.8065070  22.1956360 126.1923050
  94.4609560  22.7693700 130.4282520  94.9172340  23.5798950 130.6542710
  94.1097770  22.4516840 131.2601010  96.7642170  28.2800040 137.6574820
  97.4084390  28.4859420 138.3348240  97.1271610  27.5188440 137.2045670
  90.3621340  13.1131350 130.9005040  90.2335970  13.1049250 131.8489960
  89.5383360  13.4514440 130.5496050  98.0374250  26.2832390 136.3752270
  98.6796480  25.5825550 136.4884440  98.5623600  27.0630830 136.1949160
 101.8829970  26.5681010 126.0991410 101.6567550  25.8511450 126.6916050
 101.4926170  26.3193450 125.2613160  99.8111870  27.0827290 139.5788330
 100.1468110  27.6693980 140.2566250  98.8912210  26.9520000 139.8086120
  87.6646000  30.5947870 126.8735870  88.0243640  31.1937210 126.2193140
  87.5238340  31.1407760 127.6470900  87.3615270  14.8722470 140.3611740
  86.6473790  15.0719390 140.9664350  87.7810310  14.0962040 140.7326540
 101.4646220  24.4852950 127.7605570 101.1767920  24.9465640 128.5483450
 102.2598390  24.0250720 128.0289790  87.6487860  28.8602730 141.3478270
  87.7578980  27.9197470 141.2073660  86.9968420  29.1257480 140.6992000
  95.6400450  27.1318620 142.7476390  95.3197320  26.4127860 143.2922080
  94.9658810  27.8073690 142.8212450  93.6814620  27.9779070 127.6909540
  93.6724720  28.7108760 127.0754050  92.7612980  27.7310650 127.7836500
  89.2821260  23.1993960 128.4356300  88.6749210  23.9392860 128.4451600
  89.7570610  23.2893320 127.6094500  98.8554050  17.3644780 138.1113190
  99.2234870  16.5439990 138.4392760  97.9952250  17.4246670 138.5268840
 102.2216080  16.3201720 128.9200750 101.5929240  16.4247390 128.2058980
 101.7268000  16.5398500 129.7094630  96.6674220  28.0407310 126.3534730
  96.7686200  27.8371300 125.4236710  95.7675960  27.7865590 126.5582510
  94.1900110  18.5987670 130.3358630  93.4816260  19.0674010 130.7772240
  94.4744590  17.9409680 130.9703820  95.8156040  20.0184370 138.3351160
  96.3141290  20.4930190 139.0003010  95.9578990  19.0947890 138.5421190
  98.2215540  15.3238330 131.7754420  98.0983320  15.3424460 130.8263930
  99.1700100  15.3717270 131.8952820  95.3092330  30.5593630 131.0482400
  95.5633830  30.5215020 130.1261770  94.3604810  30.4326960 131.0410650
  92.3935130  16.9072750 127.7109340  93.2425660  17.3442900 127.6449530
  92.0266400  17.2193010 128.5381400 103.0222900  16.2352330 139.1779550
 102.5196500  16.9757730 139.5173360 103.8379560  16.6236330 138.8616340
 101.3144910  21.4785510 132.6240910 100.3735050  21.4935740 132.7988600
 101.6288980  20.6921470 133.0701210  91.2926550  23.1605110 126.1844870
  92.0589820  23.0486470 126.7470300  91.3701240  22.4643080 125.5321640
  89.9873310  20.5930180 126.8677760  90.0676900  19.6457690 126.9795160
  90.8793060  20.9237060 126.9738420 103.3170490  28.6494360 134.2995170
 103.4417910  29.4725530 134.7718980 104.1836050  28.4385090 133.9519320
  90.7888020  30.7425570 133.9712300  91.5250500  30.1941030 134.2420870
  91.1728940  31.6081580 133.8318290  87.6733500  26.8099140 129.8453810
  86.7473280  27.0520280 129.8359220  88.1389930  27.6373400 129.7238560
  89.7946300  29.9271640 143.1597880  90.5959030  30.2483690 143.5733280
  89.2798120  29.5667220 143.8817790  93.8990330  29.9155880 125.7937870
  94.6918940  30.2044710 125.3419660  93.3794680  29.4848050 125.1150350
  98.6310930  26.0351510 143.1073290  98.0249090  26.0583110 142.3669040
  98.3265040  25.3034550 143.6440540 100.0611300  29.7631800 141.7182700
 101.0133050  29.6789820 141.6682940  99.9139520  30.4273510 142.3916490
 102.9520500  29.1426010 127.2174610 102.6662010  28.7291150 126.4028790
 102.7540050  30.0713720 127.0975130  87.5144110  22.4145100 142.1033930
  88.0183130  21.8352380 142.6750160  86.7751530  22.6985330 142.6410300
  94.4167730  25.1359290 125.6580220  94.3118370  24.5211640 126.3841600
  94.2491950  24.6125180 124.8743230  94.5682050  23.8216090 141.6369450
  93.8027720  24.3901090 141.5524120  94.7498010  23.5292300 140.7437680
  97.6570460  24.1979320 126.2622210  97.1080560  24.6448620 126.9064950
  98.2789720  23.6928570 126.7859880 101.7105400  25.5521420 142.1944470
 102.4514870  25.8897180 141.6911930 100.9478080  25.7213480 141.6414240
  89.5467190  20.5574690 142.9984000  89.5872530  20.2588560 143.9069230
  90.4012690  20.9582300 142.8391520  93.3245580  23.1570240 128.1587510
  93.7462000  22.9910110 129.0018900  93.4496420  22.3470470 127.6642650
  91.4873000  19.1366790 140.9658490  90.9569460  18.6457740 140.3381830
  92.1561070  19.5650990 140.4316420  95.8373220  22.1807850 125.4064610
  96.3578880  21.4656870 125.0405760  96.4841620  22.8193720 125.7065120
 100.3851060  23.6036250 140.7299680 100.7992080  23.7581330 141.5790100
  99.4502060  23.7291470 140.8925460 100.8573230  20.9432410 142.7338830
 101.4394000  20.1884730 142.6459310 101.0335000  21.4739850 141.9570310
  91.9745300  16.1029160 141.0455780  91.8802170  15.4849910 140.3206650
  91.3942690  16.8295450 140.8185690  94.7406740  14.6602400 138.0783170
  94.2924040  14.6826660 137.2328720  94.1071940  14.2621420 138.6753470
  95.1466290  23.5556730 138.6995610  95.5654400  24.3989460 138.5271850
  94.2274920  23.6928770 138.4702390  97.4830190  21.2872910 140.0833450
  97.6026400  20.6914050 140.8228290  98.3424190  21.3242600 139.6634750
  99.8218090  21.8410100 138.6595960  99.2953310  22.3652720 138.0561100
 100.1649430  22.4737490 139.2905690  92.2204480  19.2303470 125.1045670
  92.0193540  18.3670830 125.4659010  92.0496530  19.1436830 124.1667270
  92.9973710  29.8609740 139.8153340  92.4594800  30.5855800 139.4962040
  93.2507670  29.3840080 139.0250680  94.2498960  17.8294260 141.3409270
  94.8398650  17.5210110 142.0287090  93.4319200  17.3574010 141.4969170
  99.0692390  17.4460070 141.5742290  98.3807910  16.7841610 141.5092280
  99.7898410  16.9998340 142.0190750  99.6992790  14.0411700 127.6332550
  99.9795080  13.1979600 127.9891970  98.9258520  14.2734810 128.1471300
  91.0187280  16.3304090 125.0923550  91.3213180  16.3371520 124.1842700
  91.7581870  15.9801950 125.5891210  95.8535920  31.0960950 140.0739990
  95.7794620  31.9996090 140.3812360  94.9514760  30.7772850 140.0462060
  94.2372210  15.2738710 126.0779750  93.8894210  14.5962700 125.4982200
  94.4384980  14.8128220 126.8923140  96.4021250  30.2619460 127.6966350
  97.2972040  30.6004430 127.7185110  96.4338880  29.5398870 127.0690630
  90.0417410  25.6346510 125.9253350  90.4792280  26.1776180 126.5810930
  90.5265140  24.8093460 125.9349690  87.2563210  28.4235540 133.3773610
  87.5866220  27.5556600 133.1452250  87.6854210  28.6294060 134.2078570
  91.8525130  26.7544550 131.0375580  91.5520670  26.6309520 131.9379490
  91.7462620  25.8953140 130.6291310  87.7453420  29.2906130 136.1155240
  87.3084410  29.4706930 136.9479390  88.3131100  30.0480750 135.9736960
 103.3815600  28.7923130 140.4032550 102.7817590  28.8515690 139.6596470
 103.5109500  27.8528110 140.5329400 104.6217050  26.5340950 125.7402260
 103.7910010  26.6017600 126.2109490 104.7988880  27.4245070 125.4369120
 104.0773510  23.2788430 128.2436460 104.8392420  23.8485080 128.3496150
 104.0927880  22.7115630 129.0144770  87.5777850  21.8026360 132.4744120
  86.9226690  21.5338000 131.8303820  88.4155800  21.6930840 132.0246100
 105.0833480  24.1338530 133.0878390 105.4542310  23.3505850 132.6814360
 105.7235410  24.8227630 132.9095690 102.0667240  25.5175110 138.5008710
 101.2527080  25.9472270 138.7634500 102.4741440  26.1293520 137.8877760
 104.1292680  23.5722800 125.4008980 104.4041520  24.4801680 125.2728200
 103.9403420  23.5085330 126.3370970 100.5268290  16.5967650 126.6962610
 100.9453170  16.4098630 125.8559270 100.2204350  15.7446700 127.0065540
 104.0258020  21.5091790 130.3938410 103.6501620  20.7419720 129.9619700
 103.2961140  21.8914490 130.8813340  88.6153780  22.1878930 137.0147460
  88.9826820  22.1006330 137.8943480  88.0464600  21.4245480 136.9154320
 103.4157640  20.6563310 140.0277930 103.1843730  20.4276060 139.1275880
 103.6762190  21.5762860 139.9822820  88.1669780  19.0988020 140.9205880
  87.2725830  19.0654780 141.2599590  88.7067330  19.2974810 141.6857130
 101.8545710  15.8819740 142.8057630 102.7315890  15.8903140 143.1891630
 101.8666550  15.1450580 142.1949980  86.7915930  19.0125290 128.4169450
  85.8880010  19.2755490 128.2421110  87.2756550  19.2836460 127.6369410
 103.3008980  19.7349280 133.6945650 103.8246460  19.2411930 133.0635820
 103.8868400  19.8699640 134.4393220 103.4798700  19.8189150 137.2165200
 102.5301410  19.7852690 137.3310190 103.6611710  20.7289260 136.9814970
  89.3343140  18.0690830 126.3263830  90.0434840  17.6474050 125.8411110
  88.6183080  18.1366060 125.6947180  88.9817300  14.1230160 125.3666480
  89.7045430  14.6639100 125.6847700  89.2541820  13.8493580 124.4908020
 102.7908950  18.9922630 129.6338060 103.2868070  18.7593500 130.4186940
 102.5925020  18.1534470 129.2175700  88.6709490  13.3736350 135.2689100
  89.3185680  12.8233730 134.8284260  89.0911330  13.6279500 136.0904910
 104.2196110  17.6283580 132.1675740 104.1095390  17.4739620 133.1058010
 104.9803700  17.1004520 131.9251150 102.5661830  13.5677710 138.6258740
 103.2034050  14.1811850 138.9917930 102.7136720  13.6038370 137.6807970
 105.1086380  15.4591500 125.4081880 106.0335690  15.3272680 125.2000170
 105.0862170  15.5384320 126.3618330 105.1824870  16.2302160 128.0338590
 104.3876370  16.1647280 128.5631500 105.3868150  17.1652800 128.0223940
 102.1243290  30.2693710 132.0276980 102.7202360  29.9478280 131.3511400
 102.3821440  29.7965530 132.8190250  88.4241490  13.5292020 138.0114420
  88.0756310  13.9855840 138.7772600  88.0929190  12.6349150 138.0936850
  90.0305860  26.7011620 142.1767610  89.9875490  26.3304530 143.0582070
  90.1616870  27.6389190 142.3169430  93.7311890  28.2571210 137.7777330
  93.4903250  28.5245770 136.8907850  94.6714530  28.4276940 137.8328190
  95.9366310  14.7203900 141.5333840  95.8755200  15.3125730 142.2829250
  96.8766690  14.6129860 141.3884100  98.5740870  14.3773960 141.1726130
  99.1881280  14.6953250 140.5107210  99.1190430  13.8922550 141.7921990
 104.9916050  30.2765590 138.5787970 104.4974330  30.6734460 137.8615100
 104.3829340  29.6514800 138.9725250  89.0962130  13.0568220 141.2865190
  89.6445120  12.8756270 140.5231300  89.1617440  12.2662330 141.8221500
  89.8693890  29.6473870 139.2965390  89.2754210  29.5158570 140.0355430
  89.8617730  28.8112010 138.8307490  99.3148910  12.9406100 137.4995420
  98.4408750  13.2741210 137.2968350  99.2059660  12.4679280 138.3247290
 100.2220890  15.1476970 138.8837140  99.8934250  14.3328730 138.5038870
 101.1703190  15.1046780 138.7602830 102.6755500  30.9189010 135.8574710
 102.2158470  31.6704820 135.4832730 102.0467960  30.1995480 135.7989510
  89.5006120  27.0132250 138.2473430  88.7740180  26.3937540 138.1799380
  89.5615270  27.4072860 137.3771510  93.1051220  29.2277250 135.0322840
  93.6216240  28.6164610 134.5071100  93.7548600  29.7306030 135.5233850
  95.8446720  30.1185740 135.8591820  96.1324530  29.8640040 134.9824830
  96.3569940  29.5663100 136.4497390  97.0623730  13.8575940 136.4388330
  96.2795520  14.3321440 136.7185090  96.7686660  12.9530770 136.3301510
 101.6144800  14.5599040 134.4837420 102.0552890  14.5044140 133.6359020
 101.3452390  15.4757050 134.5547600 103.4783370  14.1914280 132.4946240
 103.4171770  13.2475500 132.3477260 104.2575400  14.2994370 133.0399700
  87.7836120  30.3306640 131.4570190  87.6158160  29.6977320 132.1552080
  86.9170630  30.5366040 131.1064380  88.4064140  14.1623420 128.9602050
  89.1643500  14.2752300 128.3866080  87.9441310  14.9992620 128.9145480
  94.9477950  16.2762690 131.9504360  94.1352460  15.9019580 131.6100240
  95.4519590  15.5207770 132.2525550  99.4502930  12.9405140 133.1887430
 100.0532300  13.5125350 133.6635950  98.7095920  13.5044580 132.9661330
 102.5937530  13.3426700 128.4627710 102.7888160  14.2410150 128.7295140
 101.8067400  13.1113780 128.9560660  89.3898820  29.0239870 128.9020330
  88.8646440  29.4047900 128.1982290  89.3143400  29.6490640 129.6230040
  90.7789290  14.6887470 127.5004020  91.3082050  13.9017270 127.3711970
  91.4117610  15.3678660 127.7339550  92.9727130  14.4262610 130.5549410
  92.3429870  13.7249920 130.7219540  92.4332270  15.1866740 130.3382570
  95.9119080  31.0401840 143.2260020  96.8386390  30.8046110 143.2695980
  95.8969510  31.8673840 142.7446050 104.1464140  30.5827410 130.2234270
 104.3216330  29.8965150 129.5795190 103.4485710  31.1074460 129.8310940
  93.0982690  13.7046590 142.9901900  92.8166960  14.2080190 142.2262720
  93.4802390  12.9068340 142.6244030  91.9891790  30.9722250 127.7769580
  92.7210610  30.6881530 127.2293470  92.2485460  30.7335530 128.6668960
  91.1506580  27.0886980 127.7815910  90.5215460  27.5572080 128.3301740
  91.2654410  26.2436200 128.2162100  99.6998150  13.1200170 143.5682370
  99.5863600  13.4394780 144.4633890 100.5167890  13.5212680 143.2719650
 102.4796640  30.2671700 143.0501060 103.2721960  29.7720930 142.8427020
 102.7729790  30.9461840 143.6576670  98.6056300  21.1392640 113.9317110
  98.5250350  20.2247250 113.6608820  98.1920720  21.6359710 113.2256820
  96.7374340  22.9171660 115.8126380  95.9616440  22.4372100 116.1024950
  97.3887270  22.2377310 115.6382540  90.7540170  23.2291470 116.6902140
  89.9225050  22.9740180 117.0898650  91.3621150  23.3002240 117.4260060
 100.7581770  27.3231850 114.5925510 100.2963300  26.5519090 114.9212680
 101.5707320  27.3497920 115.0977960  89.1632120  18.1893360 110.4744530
  88.2748820  18.5309330 110.3724410  89.4473310  17.9893680 109.5825360
  87.1265130  20.7899010 116.3584230  87.6981240  20.0221210 116.3587870
  87.1266670  21.0887770 115.4490840  96.1783330  25.5928850 115.8196540
  96.1091610  24.6518790 115.6585670  96.9403190  25.6830260 116.3919110
  88.3690000  16.1983370 118.1453160  88.1892840  15.3009120 118.4255920
  87.9670080  16.7455240 118.8200110  97.2088500  18.3999230 116.0465470
  97.5853320  17.5271110 115.9339140  97.1108010  18.7357930 115.1555910
  91.3393510  16.7724860 111.5082910  91.4460260  17.6728590 111.8151670
  90.4285870  16.7242830 111.2177560 100.9912620  15.8949670 112.9793810
 101.8122240  15.4046240 113.0219290 101.0246700  16.4847330 113.7325650
  88.9876670  18.6943870 116.7535500  89.6686780  18.9582240 117.3722900
  88.6724720  17.8544740 117.0873510  93.1801240  19.7411230 115.8408090
  93.6879460  20.2392200 116.4813110  93.7114480  18.9646430 115.6647450
 105.2812170  17.9116420 119.5437440 104.5764340  18.2998130 119.0252550
 105.5470090  18.6066710 120.1458370  91.4637340  14.3809790 120.1071510
  91.4655780  14.8982180 119.3017410  90.6341650  13.9039970 120.0841440
  97.8508430  24.4929100 111.6061410  97.2325700  24.9578550 111.0424130
  98.3631680  25.1856580 112.0230920  92.7140190  24.0204970 118.2845010
  92.3809570  24.6473890 118.9266080  92.8906870  24.5466850 117.5046680
 101.2274100  17.8350050 115.7521350 100.5229670  18.1234940 116.3324460
 101.5886260  18.6450160 115.3920910  91.1452670  16.0919750 118.1141960
  91.4869480  16.9361800 117.8195830  90.2068480  16.2403490 118.2307300
  91.9259290  25.9885770 120.0994190  92.5433290  26.6636850 119.8178640
  91.0652410  26.3973750 120.0081690 102.8436880  27.4525180 118.0148830
 102.1600400  28.1224290 118.0065500 103.3831170  27.6505830 117.2493690
 104.2961020  17.2804840 116.1430560 103.3485930  17.3143820 116.2745990
 104.6211010  18.0943790 116.5279920  94.8280560  13.5802020 114.4386550
  95.1355540  13.0248910 113.7222050  93.8981260  13.7146480 114.2559540
 100.3795620  29.2969310 116.7294010 100.3922780  28.8931600 115.8616270
  99.8270840  30.0716600 116.6255440 101.6741040  26.0185530 111.8184180
 101.5637370  25.0759860 111.9433600 101.6709290  26.3801170 112.7046940
  99.7781060  24.1999150 118.0576620 100.1949850  23.9859260 117.2230080
 100.5020880  24.4571940 118.6285240  97.2161320  21.6450850 111.1746670
  96.2890600  21.5788230 111.4035140  97.3686140  22.5830980 111.0601910
  97.2030400  17.9167850 108.1713830  96.2634070  18.0781810 108.2566290
  97.5213660  18.6353530 107.6249820 103.7243160  22.5986370 118.1492860
 102.8961790  22.6679460 117.6742990 104.3193640  23.1840680 117.6808690
 101.2458610  23.2071150 111.6781920 100.6271030  22.8690700 111.0308220
 101.2283060  22.5630910 112.3861110 100.6885170  19.3855690 119.0947730
 100.2756350  20.2109400 119.3487720  99.9561120  18.8000730 118.9024090
  92.8217960  22.1715590 113.9566400  92.4174960  21.4592840 113.4612300
  92.9081080  21.8268830 114.8454440  93.2899660  25.8583150 116.1205610
  92.9927950  25.2528620 115.4413390  94.2399480  25.8960460 116.0094970
  91.5346580  18.9458800 117.7365440  92.0861170  19.0554140 116.9618690
  92.0490090  19.3196400 118.4520670 101.3785270  29.4315020 119.7828710
 100.9015830  30.2387210 119.5901320 100.6947060  28.7793350 119.9354920
  92.3818090  25.5964840 122.7713410  91.4846620  25.8204810 123.0186810
  92.4070960  25.7199780 121.8224810  99.4223310  22.4457960 108.6854670
  99.8616590  21.6080390 108.5392490 100.1351730  23.0787360 108.7718810
  91.2089310  22.4678160 121.3470780  91.0697080  23.3400960 121.7158180
  90.3270670  22.1250970 121.2018720  93.0069660  28.4099860 123.5555930
  92.9785090  28.8142810 122.6884360  92.8434630  27.4810220 123.3927530
 103.0040450  13.7000770 106.9995710 102.6913110  13.7927600 107.8994780
 103.7652920  14.2781800 106.9493140  89.5222590  21.0660570 111.4573050
  89.4020190  21.7922660 110.8454320  89.2123480  20.2963480 110.9800960
 104.9584480  29.1926960 124.8520100 105.4344200  29.6709850 125.5309180
 105.5791640  29.1244450 124.1265600  87.1607960  24.2375710 117.2641690
  87.2388380  24.3724480 116.3197410  87.7749640  23.5291600 117.4569810
 104.3617730  26.3839810 122.0120110 104.4880790  26.1451690 121.0937290
 104.4039110  25.5524350 122.4842190  98.2234470  30.0867810 120.5814920
  98.7379140  29.9975820 121.3837350  97.3803550  30.4327510 120.8742830
  99.9015000  27.8810710 108.5696920  99.2080160  27.8788000 107.9099200
 100.6437860  27.4570030 108.1391090 104.2141740  18.4372270 122.9769850
 103.5986010  18.9451940 122.4485310 103.8938160  17.5370600 122.9195790
  87.2167480  25.2789880 119.8036150  87.3798520  24.8095240 118.9855520
  87.6819930  24.7713440 120.4684990  91.9886250  14.4095640 114.8396720
  91.5454400  15.1905180 114.5081240  92.5471240  14.7325530 115.5467660
  96.2756060  17.2764160 120.4432040  95.8135430  17.4847180 121.2551980
  95.8734170  16.4623510 120.1402710 101.2760570  18.4973110 121.5728700
 100.4254160  18.1978860 121.8937770 101.1162360  18.7415120 120.6612520
  98.3710280  19.9974860 123.6727490  98.6963690  19.1638610 123.3329720
  99.1590610  20.5203380 123.8205820  95.1045070  14.0306340 109.7202550
  94.4799250  14.0266210 110.4455860  95.0175190  13.1637300 109.3238520
  94.0262150  14.9542970 116.6986320  94.3234480  15.8605800 116.6178340
  94.5747710  14.4661750 116.0845890  91.7800470  19.5329210 112.5677970
  91.5541390  19.3166380 113.4724590  90.9993000  19.9657670 112.2223940
  99.0098230  19.5392580 111.1668620  98.4107120  20.2628380 110.9832240
  99.5577840  19.4769360 110.3845070  94.2199680  20.4314790 123.2338240
  94.1243280  19.4909520 123.0838640  95.0631660  20.6529860 122.8386310
  97.6163100  18.1756120 113.1971900  98.0092670  18.4928320 112.3840590
  97.9779950  17.2968000 113.3116420  89.3510220  16.8428460 121.3872020
  88.9573610  17.6903670 121.5944800  88.6628620  16.2054830 121.5780660
  95.9255270  16.9263430 124.4568760  95.2353590  16.7335630 125.0914850
  96.6687570  17.2098070 124.9893060  86.6527270  14.7656920 115.4202100
  86.3640320  15.3359780 116.1327080  87.3973030  14.2861370 115.7833330
  86.8397500  18.7077040 106.6304820  86.7572170  19.6507800 106.7719810
  86.4880560  18.5651950 105.7517170  98.2018240  20.7661870 117.2922680
  97.4699360  21.2748680 117.6412780  97.8042580  19.9491850 116.9911460
  94.6395630  17.4416070 115.6975170  94.6431690  17.0006020 114.8479710
  95.5346750  17.7633400 115.8046990  90.4898010  17.3242560 114.6569380
  90.1498060  17.8017790 115.4136430  89.7275330  16.8707680 114.2970480
  94.7015780  18.4428150 108.6881930  94.8228600  18.4014630 109.6367750
  94.3164290  19.3052300 108.5328660  98.6644150  16.2195550 116.7045620
  98.6816890  16.6704200 117.5487470  98.4159730  15.3201190 116.9179060
  93.7137280  20.7529290 108.0865230  93.1454180  20.3047540 107.4601140
  94.4226280  21.1122070 107.5530380 102.0914900  13.6327730 122.5432000
 102.4160670  12.9017390 123.0689980 102.1271410  13.3141370 121.6412990
  88.7906460  24.6541310 121.9631960  88.4061250  24.0134980 122.5614920
  89.1018650  25.3577430 122.5326690  94.9403600  21.5017850 117.4440580
  95.3073730  21.0276420 118.1901920  94.7508660  22.3759420 117.7848920
  87.8044090  16.2461540 113.5734050  87.5191010  15.8817210 114.4112670
  87.7422950  15.5142000 112.9597190  92.7302970  20.5426490 119.7624790
  92.4260040  21.4218470 119.9875150  93.6849430  20.6026280 119.7982230
  91.2584760  24.7487480 110.3591640  90.4847020  24.2085100 110.1990360
  91.9879390  24.2294090 110.0209400 102.0172740  23.7452840 116.1518030
 102.7371860  24.2408130 115.7614140 101.8154560  23.0670730 115.5071900
  97.4782680  15.1390800 110.2947420  96.6647290  14.6403970 110.2192730
  97.2844630  15.9789050 109.8783770  97.3991540  23.8161900 122.0387030
  97.3328850  22.8957570 121.7844620  96.7696680  23.9137340 122.7531670
 100.1931070  19.5110450 108.5909580 101.0810690  19.8227680 108.4160920
 100.1636160  18.6382700 108.1990160  96.1891660  25.6834140 109.2697750
  96.5307360  26.4276370 108.7741070  95.3604370  25.9965260 109.6322580
  88.7866700  21.3829230 120.9096150  88.4281640  22.0483080 121.4969490
  88.4921260  20.5512780 121.2808770  91.9879820  21.8413470 123.7935700
  91.6879960  21.9870650 122.8963520  92.7591060  21.2818760 123.7009090
  97.3308270  26.6382470 121.7890830  97.3452810  25.7063430 121.5709740
  96.6233370  26.7242230 122.4280600 102.4645340  20.8222290 108.0589440
 102.3809060  21.2536510 107.2085880 103.1839530  21.2820640 108.4916260
 103.5419480  23.2789810 121.1359410 102.8167670  23.8718590 120.9388800
 104.0694940  23.2713350 120.3372780 103.4932590  27.6764550 110.7871570
 102.8508750  27.0220170 111.0615290 103.1063250  28.0819640 110.0112240
  99.0719070  25.0049980 114.6343260  99.4242890  24.4078110 113.9744630
  98.1881400  24.6794210 114.8051510  87.2974750  21.3820490 107.5330750
  88.1669600  21.6645290 107.8166670  86.8065070  22.1956360 107.4179560
  94.4609560  22.7693700 111.6539030  94.9172340  23.5798950 111.8799220
  94.1097770  22.4516840 112.4857520  96.7642170  28.2800040 118.8831330
  97.4084390  28.4859420 119.5604750  97.1271610  27.5188440 118.4302180
  90.3621340  13.1131350 112.1261550  90.2335970  13.1049250 113.0746470
  89.5383360  13.4514440 111.7752560  98.0374250  26.2832390 117.6008780
  98.6796480  25.5825550 117.7140950  98.5623600  27.0630830 117.4205670
  99.8111870  27.0827290 120.8044840 100.1468110  27.6693980 121.4822760
  98.8912210  26.9520000 121.0342630  87.3615270  14.8722470 121.5868250
  86.6473790  15.0719390 122.1920860  87.7810310  14.0962040 121.9583050
 101.4646220  24.4852950 108.9862080 101.1767920  24.9465640 109.7739960
 102.2598390  24.0250720 109.2546300  87.6487860  28.8602730 122.5734780
  87.7578980  27.9197470 122.4330170  86.9968420  29.1257480 121.9248510
  95.6400450  27.1318620 123.9732900  95.3197320  26.4127860 124.5178590
  94.9658810  27.8073690 124.0468960  89.2821260  23.1993960 109.6612810
  88.6749210  23.9392860 109.6708110  89.7570610  23.2893320 108.8351010
  98.8554050  17.3644780 119.3369700  99.2234870  16.5439990 119.6649270
  97.9952250  17.4246670 119.7525350 102.2216080  16.3201720 110.1457260
 101.5929240  16.4247390 109.4315490 101.7268000  16.5398500 110.9351140
  94.1900110  18.5987670 111.5615140  93.4816260  19.0674010 112.0028750
  94.4744590  17.9409680 112.1960330  95.8156040  20.0184370 119.5607670
  96.3141290  20.4930190 120.2259520  95.9578990  19.0947890 119.7677700
  98.2215540  15.3238330 113.0010930  98.0983320  15.3424460 112.0520440
  99.1700100  15.3717270 113.1209330  92.3935130  16.9072750 108.9365850
  93.2425660  17.3442900 108.8706040  92.0266400  17.2193010 109.7637910
 103.0222900  16.2352330 120.4036060 102.5196500  16.9757730 120.7429870
 103.8379560  16.6236330 120.0872850 101.3144910  21.4785510 113.8497420
 100.3735050  21.4935740 114.0245110 101.6288980  20.6921470 114.2957720
  91.2926550  23.1605110 107.4101380  92.0589820  23.0486470 107.9726810
  91.3701240  22.4643080 106.7578150  89.9873310  20.5930180 108.0934270
  90.0676900  19.6457690 108.2051670  90.8793060  20.9237060 108.1994930
 103.3170490  28.6494360 115.5251680 103.4417910  29.4725530 115.9975490
 104.1836050  28.4385090 115.1775830  89.7946300  29.9271640 124.3854390
  90.5959030  30.2483690 124.7989790  89.2798120  29.5667220 125.1074300
  98.6310930  26.0351510 124.3329800  98.0249090  26.0583110 123.5925550
  98.3265040  25.3034550 124.8697050 100.0611300  29.7631800 122.9439210
 101.0133050  29.6789820 122.8939450  99.9139520  30.4273510 123.6173000
 102.9520500  29.1426010 108.4431120 102.6662010  28.7291150 107.6285300
 102.7540050  30.0713720 108.3231640  87.5144110  22.4145100 123.3290440
  88.0183130  21.8352380 123.9006670  86.7751530  22.6985330 123.8666810
  94.4167730  25.1359290 106.8836730  94.3118370  24.5211640 107.6098110
  94.2491950  24.6125180 106.0999740  94.5682050  23.8216090 122.8625960
  93.8027720  24.3901090 122.7780630  94.7498010  23.5292300 121.9694190
  97.6570460  24.1979320 107.4878720  97.1080560  24.6448620 108.1321460
  98.2789720  23.6928570 108.0116390 101.7105400  25.5521420 123.4200980
 102.4514870  25.8897180 122.9168440 100.9478080  25.7213480 122.8670750
  89.5467190  20.5574690 124.2240510  89.5872530  20.2588560 125.1325740
  90.4012690  20.9582300 124.0648030  93.3245580  23.1570240 109.3844020
  93.7462000  22.9910110 110.2275410  93.4496420  22.3470470 108.8899160
  91.4873000  19.1366790 122.1915000  90.9569460  18.6457740 121.5638340
  92.1561070  19.5650990 121.6572930  95.8373220  22.1807850 106.6321120
  96.3578880  21.4656870 106.2662270  96.4841620  22.8193720 106.9321630
 100.3851060  23.6036250 121.9556190 100.7992080  23.7581330 122.8046610
  99.4502060  23.7291470 122.1181970 100.8573230  20.9432410 123.9595340
 101.4394000  20.1884730 123.8715820 101.0335000  21.4739850 123.1826820
  91.9745300  16.1029160 122.2712290  91.8802170  15.4849910 121.5463160
  91.3942690  16.8295450 122.0442200  94.7406740  14.6602400 119.3039680
  94.2924040  14.6826660 118.4585230  94.1071940  14.2621420 119.9009980
  95.1466290  23.5556730 119.9252120  95.5654400  24.3989460 119.7528360
  94.2274920  23.6928770 119.6958900  97.4830190  21.2872910 121.3089960
  97.6026400  20.6914050 122.0484800  98.3424190  21.3242600 120.8891260
  99.8218090  21.8410100 119.8852470  99.2953310  22.3652720 119.2817610
 100.1649430  22.4737490 120.5162200  92.2204480  19.2303470 106.3302180
  92.0193540  18.3670830 106.6915520  92.0496530  19.1436830 105.3923780
  92.9973710  29.8609740 121.0409850  92.4594800  30.5855800 120.7218550
  93.2507670  29.3840080 120.2507190  94.2498960  17.8294260 122.5665780
  94.8398650  17.5210110 123.2543600  93.4319200  17.3574010 122.7225680
  99.0692390  17.4460070 122.7998800  98.3807910  16.7841610 122.7348790
  99.7898410  16.9998340 123.2447260  99.6992790  14.0411700 108.8589060
  99.9795080  13.1979600 109.2148480  98.9258520  14.2734810 109.3727810
  91.0187280  16.3304090 106.3180060  91.3213180  16.3371520 105.4099210
  91.7581870  15.9801950 106.8147720  95.8535920  31.0960950 121.2996500
  95.7794620  31.9996090 121.6068870  94.9514760  30.7772850 121.2718570
  94.2372210  15.2738710 107.3036260  93.8894210  14.5962700 106.7238710
  94.4384980  14.8128220 108.1179650  90.0417410  25.6346510 107.1509860
  90.4792280  26.1776180 107.8067440  90.5265140  24.8093460 107.1606200
 103.3815600  28.7923130 121.6289060 102.7817590  28.8515690 120.8852980
 103.5109500  27.8528110 121.7585910 104.6217050  26.5340950 106.9658770
 103.7910010  26.6017600 107.4366000 104.7988880  27.4245070 106.6625630
 104.0773510  23.2788430 109.4692970 104.8392420  23.8485080 109.5752660
 104.0927880  22.7115630 110.2401280  87.5777850  21.8026360 113.7000630
  86.9226690  21.5338000 113.0560330  88.4155800  21.6930840 113.2502610
 105.0833480  24.1338530 114.3134900 105.4542310  23.3505850 113.9070870
 105.7235410  24.8227630 114.1352200 102.0667240  25.5175110 119.7265220
 101.2527080  25.9472270 119.9891010 102.4741440  26.1293520 119.1134270
 104.1292680  23.5722800 106.6265490 104.4041520  24.4801680 106.4984710
 103.9403420  23.5085330 107.5627480 100.5268290  16.5967650 107.9219120
 100.9453170  16.4098630 107.0815780 100.2204350  15.7446700 108.2322050
 104.0258020  21.5091790 111.6194920 103.6501620  20.7419720 111.1876210
 103.2961140  21.8914490 112.1069850  88.6153780  22.1878930 118.2403970
  88.9826820  22.1006330 119.1199990  88.0464600  21.4245480 118.1410830
 103.4157640  20.6563310 121.2534440 103.1843730  20.4276060 120.3532390
 103.6762190  21.5762860 121.2079330  88.1669780  19.0988020 122.1462390
  87.2725830  19.0654780 122.4856100  88.7067330  19.2974810 122.9113640
 101.8545710  15.8819740 124.0314140 102.7315890  15.8903140 124.4148140
 101.8666550  15.1450580 123.4206490  86.7915930  19.0125290 109.6425960
  85.8880010  19.2755490 109.4677620  87.2756550  19.2836460 108.8625920
 103.3008980  19.7349280 114.9202160 103.8246460  19.2411930 114.2892330
 103.8868400  19.8699640 115.6649730 103.4798700  19.8189150 118.4421710
 102.5301410  19.7852690 118.5566700 103.6611710  20.7289260 118.2071480
  89.3343140  18.0690830 107.5520340  90.0434840  17.6474050 107.0667620
  88.6183080  18.1366060 106.9203690  88.9817300  14.1230160 106.5922990
  89.7045430  14.6639100 106.9104210  89.2541820  13.8493580 105.7164530
 102.7908950  18.9922630 110.8594570 103.2868070  18.7593500 111.6443450
 102.5925020  18.1534470 110.4432210  88.6709490  13.3736350 116.4945610
  89.3185680  12.8233730 116.0540770  89.0911330  13.6279500 117.3161420
 104.2196110  17.6283580 113.3932250 104.1095390  17.4739620 114.3314520
 104.9803700  17.1004520 113.1507660 102.5661830  13.5677710 119.8515250
 103.2034050  14.1811850 120.2174440 102.7136720  13.6038370 118.9064480
 105.1086380  15.4591500 106.6338390 106.0335690  15.3272680 106.4256680
 105.0862170  15.5384320 107.5874840 105.1824870  16.2302160 109.2595100
 104.3876370  16.1647280 109.7888010 105.3868150  17.1652800 109.2480450
 102.1243290  30.2693710 113.2533490 102.7202360  29.9478280 112.5767910
 102.3821440  29.7965530 114.0446760  88.4241490  13.5292020 119.2370930
  88.0756310  13.9855840 120.0029110  88.0929190  12.6349150 119.3193360
  90.0305860  26.7011620 123.4024120  89.9875490  26.3304530 124.2838580
  90.1616870  27.6389190 123.5425940  93.7311890  28.2571210 119.0033840
  93.4903250  28.5245770 118.1164360  94.6714530  28.4276940 119.0584700
  95.9366310  14.7203900 122.7590350  95.8755200  15.3125730 123.5085760
  96.8766690  14.6129860 122.6140610  98.5740870  14.3773960 122.3982640
  99.1881280  14.6953250 121.7363720  99.1190430  13.8922550 123.0178500
 104.9916050  30.2765590 119.8044480 104.4974330  30.6734460 119.0871610
 104.3829340  29.6514800 120.1981760  89.0962130  13.0568220 122.5121700
  89.6445120  12.8756270 121.7487810  89.1617440  12.2662330 123.0478010
  99.3148910  12.9406100 118.7251930  98.4408750  13.2741210 118.5224860
  99.2059660  12.4679280 119.5503800 100.2220890  15.1476970 120.1093650
  99.8934250  14.3328730 119.7295380 101.1703190  15.1046780 119.9859340
 102.6755500  30.9189010 117.0831220 102.2158470  31.6704820 116.7089240
 102.0467960  30.1995480 117.0246020  95.8446720  30.1185740 117.0848330
  96.1324530  29.8640040 116.2081340  96.3569940  29.5663100 117.6753900
  97.0623730  13.8575940 117.6644840  96.2795520  14.3321440 117.9441600
  96.7686660  12.9530770 117.5558020 101.6144800  14.5599040 115.7093930
 102.0552890  14.5044140 114.8615530 101.3452390  15.4757050 115.7804110
 103.4783370  14.1914280 113.7202750 103.4171770  13.2475500 113.5733770
 104.2575400  14.2994370 114.2656210  88.4064140  14.1623420 110.1858560
  89.1643500  14.2752300 109.6122590  87.9441310  14.9992620 110.1401990
  94.9477950  16.2762690 113.1760870  94.1352460  15.9019580 112.8356750
  95.4519590  15.5207770 113.4782060  99.4502930  12.9405140 114.4143940
 100.0532300  13.5125350 114.8892460  98.7095920  13.5044580 114.1917840
 102.5937530  13.3426700 109.6884220 102.7888160  14.2410150 109.9551650
 101.8067400  13.1113780 110.1817170  90.7789290  14.6887470 108.7260530
  91.3082050  13.9017270 108.5968480  91.4117610  15.3678660 108.9596060
  92.9727130  14.4262610 111.7805920  92.3429870  13.7249920 111.9476050
  92.4332270  15.1866740 111.5639080  95.9119080  31.0401840 124.4516530
  96.8386390  30.8046110 124.4952490  95.8969510  31.8673840 123.9702560
 104.1464140  30.5827410 111.4490780 104.3216330  29.8965150 110.8051700
 103.4485710  31.1074460 111.0567450  93.0982690  13.7046590 124.2158410
  92.8166960  14.2080190 123.4519230  93.4802390  12.9068340 123.8500540
  99.6998150  13.1200170 124.7938880  99.5863600  13.4394780 125.6890400
 100.5167890  13.5212680 124.4976160 102.4796640  30.2671700 124.2757570
 103.2721960  29.7720930 124.0683530 102.7729790  30.9461840 124.8833180
 100.7581770  27.3231850  95.8182020 100.2963300  26.5519090  96.1469190
 101.5707320  27.3497920  96.3234470  89.1632120  18.1893360  91.7001040
  88.2748820  18.5309330  91.5980920  89.4473310  17.9893680  90.8081870
  96.9845080  29.6089860  95.4386010  96.3656520  30.0647360  94.8680450
  97.8396860  29.7641320  95.0375710  88.3690000  16.1983370  99.3709670
  88.1892840  15.3009120  99.6512430  87.9670080  16.7455240 100.0456620
  91.3393510  16.7724860  92.7339420  91.4460260  17.6728590  93.0408180
  90.4285870  16.7242830  92.4434070 100.9912620  15.8949670  94.2050320
 101.8122240  15.4046240  94.2475800 101.0246700  16.4847330  94.9582160
  88.9876670  18.6943870  97.9792010  89.6686780  18.9582240  98.5979410
  88.6724720  17.8544740  98.3130020 105.2812170  17.9116420 100.7693950
 104.5764340  18.2998130 100.2509060 105.5470090  18.6066710 101.3714880
  91.4637340  14.3809790 101.3328020  91.4655780  14.8982180 100.5273920
  90.6341650  13.9039970 101.3097950  97.8508430  24.4929100  92.8317920
  97.2325700  24.9578550  92.2680640  98.3631680  25.1856580  93.2487430
 101.2274100  17.8350050  96.9777860 100.5229670  18.1234940  97.5580970
 101.5886260  18.6450160  96.6177420  87.2191630  25.1785630  90.2057550
  86.8419610  25.6672730  89.4742450  87.4764700  25.8510910  90.8364080
 102.8436880  27.4525180  99.2405340 102.1600400  28.1224290  99.2322010
 103.3831170  27.6505830  98.4750200 104.2961020  17.2804840  97.3687070
 103.3485930  17.3143820  97.5002500 104.6211010  18.0943790  97.7536430
  94.8280560  13.5802020  95.6643060  95.1355540  13.0248910  94.9478560
  93.8981260  13.7146480  95.4816050 100.3795620  29.2969310  97.9550520
 100.3922780  28.8931600  97.0872780  99.8270840  30.0716600  97.8511950
  99.7781060  24.1999150  99.2833130 100.1949850  23.9859260  98.4486590
 100.5020880  24.4571940  99.8541750 103.7243160  22.5986370  99.3749370
 102.8961790  22.6679460  98.8999500 104.3193640  23.1840680  98.9065200
 100.6885170  19.3855690 100.3204240 100.2756350  20.2109400 100.5744230
  99.9561120  18.8000730 100.1280600 101.3785270  29.4315020 101.0085220
 100.9015830  30.2387210 100.8157830 100.6947060  28.7793350 101.1611430
  92.3818090  25.5964840 103.9969920  91.4846620  25.8204810 104.2443320
  92.4070960  25.7199780 103.0481320  97.5318690  27.3854030  93.8792420
  97.9714600  28.1278360  93.4647810  97.4705580  27.6280600  94.8031380
 103.0040450  13.7000770  88.2252220 102.6913110  13.7927600  89.1251290
 103.7652920  14.2781800  88.1749650  89.5222590  21.0660570  92.6829560
  89.4020190  21.7922660  92.0710830  89.2123480  20.2963480  92.2057470
 104.9584480  29.1926960 106.0776610 105.4344200  29.6709850 106.7565690
 105.5791640  29.1244450 105.3522110 104.3617730  26.3839810 103.2376620
 104.4880790  26.1451690 102.3193800 104.4039110  25.5524350 103.7098700
 104.2141740  18.4372270 104.2026360 103.5986010  18.9451940 103.6741820
 103.8938160  17.5370600 104.1452300  91.9886250  14.4095640  96.0653230
  91.5454400  15.1905180  95.7337750  92.5471240  14.7325530  96.7724170
  96.2756060  17.2764160 101.6688550  95.8135430  17.4847180 102.4808490
  95.8734170  16.4623510 101.3659220 101.2760570  18.4973110 102.7985210
 100.4254160  18.1978860 103.1194280 101.1162360  18.7415120 101.8869030
  98.3710280  19.9974860 104.8984000  98.6963690  19.1638610 104.5586230
  99.1590610  20.5203380 105.0462330  95.1045070  14.0306340  90.9459060
  94.4799250  14.0266210  91.6712370  95.0175190  13.1637300  90.5495030
  91.7800470  19.5329210  93.7934480  91.5541390  19.3166380  94.6981100
  90.9993000  19.9657670  93.4480450  94.2199680  20.4314790 104.4594750
  94.1243280  19.4909520 104.3095150  95.0631660  20.6529860 104.0642820
  97.6163100  18.1756120  94.4228410  98.0092670  18.4928320  93.6097100
  97.9779950  17.2968000  94.5372930  89.3510220  16.8428460 102.6128530
  88.9573610  17.6903670 102.8201310  88.6628620  16.2054830 102.8037170
  95.9255270  16.9263430 105.6825270  95.2353590  16.7335630 106.3171360
  96.6687570  17.2098070 106.2149570  86.6527270  14.7656920  96.6458610
  86.3640320  15.3359780  97.3583590  87.3973030  14.2861370  97.0089840
  86.8397500  18.7077040  87.8561330  86.7572170  19.6507800  87.9976320
  86.4880560  18.5651950  86.9773680  98.6644150  16.2195550  97.9302130
  98.6816890  16.6704200  98.7743980  98.4159730  15.3201190  98.1435570
 102.0914900  13.6327730 103.7688510 102.4160670  12.9017390 104.2946490
 102.1271410  13.3141370 102.8669500  87.8044090  16.2461540  94.7990560
  87.5191010  15.8817210  95.6369180  87.7422950  15.5142000  94.1853700
  91.2584760  24.7487480  91.5848150  90.4847020  24.2085100  91.4246870
  91.9879390  24.2294090  91.2465910 102.0172740  23.7452840  97.3774540
 102.7371860  24.2408130  96.9870650 101.8154560  23.0670730  96.7328410
  97.4782680  15.1390800  91.5203930  96.6647290  14.6403970  91.4449240
  97.2844630  15.9789050  91.1040280  91.3022160  24.4167860  95.2226960
  91.8200830  23.6136120  95.1683850  90.8506180  24.3547000  96.0643790
  96.1891660  25.6834140  90.4954260  96.5307360  26.4276370  89.9997580
  95.3604370  25.9965260  90.8579090  91.9879820  21.8413470 105.0192210
  91.6879960  21.9870650 104.1220030  92.7591060  21.2818760 104.9265600
 103.5419480  23.2789810 102.3615920 102.8167670  23.8718590 102.1645310
 104.0694940  23.2713350 101.5629290  99.0719070  25.0049980  95.8599770
  99.4242890  24.4078110  95.2001140  98.1881400  24.6794210  96.0308020
  95.1582350  25.7647670  93.2670180  95.8453480  26.3116880  93.6477770
  94.3714770  26.3088400  93.3019790  87.2974750  21.3820490  88.7587260
  88.1669600  21.6645290  89.0423180  86.8065070  22.1956360  88.6436070
  94.4609560  22.7693700  92.8795540  94.9172340  23.5798950  93.1055730
  94.1097770  22.4516840  93.7114030  90.3621340  13.1131350  93.3518060
  90.2335970  13.1049250  94.3002980  89.5383360  13.4514440  93.0009070
  87.6646000  30.5947870  89.3248890  88.0243640  31.1937210  88.6706160
  87.5238340  31.1407760  90.0983920  87.3615270  14.8722470 102.8124760
  86.6473790  15.0719390 103.4177370  87.7810310  14.0962040 103.1839560
  89.2821260  23.1993960  90.8869320  88.6749210  23.9392860  90.8964620
  89.7570610  23.2893320  90.0607520  98.8554050  17.3644780 100.5626210
  99.2234870  16.5439990 100.8905780  97.9952250  17.4246670 100.9781860
 102.2216080  16.3201720  91.3713770 101.5929240  16.4247390  90.6572000
 101.7268000  16.5398500  92.1607650  94.1900110  18.5987670  92.7871650
  93.4816260  19.0674010  93.2285260  94.4744590  17.9409680  93.4216840
  98.2215540  15.3238330  94.2267440  98.0983320  15.3424460  93.2776950
  99.1700100  15.3717270  94.3465840  92.3935130  16.9072750  90.1622360
  93.2425660  17.3442900  90.0962550  92.0266400  17.2193010  90.9894420
 103.0222900  16.2352330 101.6292570 102.5196500  16.9757730 101.9686380
 103.8379560  16.6236330 101.3129360  91.2926550  23.1605110  88.6357890
  92.0589820  23.0486470  89.1983320  91.3701240  22.4643080  87.9834660
  89.9873310  20.5930180  89.3190780  90.0676900  19.6457690  89.4308180
  90.8793060  20.9237060  89.4251440 103.3170490  28.6494360  96.7508190
 103.4417910  29.4725530  97.2232000 104.1836050  28.4385090  96.4032340
  87.6733500  26.8099140  92.2966830  86.7473280  27.0520280  92.2872240
  88.1389930  27.6373400  92.1751580  87.5144110  22.4145100 104.5546950
  88.0183130  21.8352380 105.1263180  86.7751530  22.6985330 105.0923320
  94.4167730  25.1359290  88.1093240  94.3118370  24.5211640  88.8354620
  94.2491950  24.6125180  87.3256250  94.5682050  23.8216090 104.0882470
  93.8027720  24.3901090 104.0037140  94.7498010  23.5292300 103.1950700
  89.5467190  20.5574690 105.4497020  89.5872530  20.2588560 106.3582250
  90.4012690  20.9582300 105.2904540  93.3245580  23.1570240  90.6100530
  93.7462000  22.9910110  91.4531920  93.4496420  22.3470470  90.1155670
  91.4873000  19.1366790 103.4171510  90.9569460  18.6457740 102.7894850
  92.1561070  19.5650990 102.8829440 100.8573230  20.9432410 105.1851850
 101.4394000  20.1884730 105.0972330 101.0335000  21.4739850 104.4083330
  91.9745300  16.1029160 103.4968800  91.8802170  15.4849910 102.7719670
  91.3942690  16.8295450 103.2698710  94.7406740  14.6602400 100.5296190
  94.2924040  14.6826660  99.6841740  94.1071940  14.2621420 101.1266490
  95.1466290  23.5556730 101.1508630  95.5654400  24.3989460 100.9784870
  94.2274920  23.6928770 100.9215410  97.4830190  21.2872910 102.5346470
  97.6026400  20.6914050 103.2741310  98.3424190  21.3242600 102.1147770
  99.8218090  21.8410100 101.1108980  99.2953310  22.3652720 100.5074120
 100.1649430  22.4737490 101.7418710  92.2204480  19.2303470  87.5558690
  92.0193540  18.3670830  87.9172030  92.0496530  19.1436830  86.6180290
  94.2498960  17.8294260 103.7922290  94.8398650  17.5210110 104.4800110
  93.4319200  17.3574010 103.9482190  99.0692390  17.4460070 104.0255310
  98.3807910  16.7841610 103.9605300  99.7898410  16.9998340 104.4703770
  99.6992790  14.0411700  90.0845570  99.9795080  13.1979600  90.4404990
  98.9258520  14.2734810  90.5984320  91.0187280  16.3304090  87.5436570
  91.3213180  16.3371520  86.6355720  91.7581870  15.9801950  88.0404230
  94.2372210  15.2738710  88.5292770  93.8894210  14.5962700  87.9495220
  94.4384980  14.8128220  89.3436160  90.0417410  25.6346510  88.3766370
  90.4792280  26.1776180  89.0323950  90.5265140  24.8093460  88.3862710
  87.2563210  28.4235540  95.8286630  87.5866220  27.5556600  95.5965270
  87.6854210  28.6294060  96.6591590  91.8525130  26.7544550  93.4888600
  91.5520670  26.6309520  94.3892510  91.7462620  25.8953140  93.0804330
 103.3815600  28.7923130 102.8545570 102.7817590  28.8515690 102.1109490
 103.5109500  27.8528110 102.9842420 104.6217050  26.5340950  88.1915280
 103.7910010  26.6017600  88.6622510 104.7988880  27.4245070  87.8882140
 104.1292680  23.5722800  87.8522000 104.4041520  24.4801680  87.7241220
 103.9403420  23.5085330  88.7883990 100.5268290  16.5967650  89.1475630
 100.9453170  16.4098630  88.3072290 100.2204350  15.7446700  89.4578560
 103.4157640  20.6563310 102.4790950 103.1843730  20.4276060 101.5788900
 103.6762190  21.5762860 102.4335840  88.1669780  19.0988020 103.3718900
  87.2725830  19.0654780 103.7112610  88.7067330  19.2974810 104.1370150
 101.8545710  15.8819740 105.2570650 102.7315890  15.8903140 105.6404650
 101.8666550  15.1450580 104.6463000  86.7915930  19.0125290  90.8682470
  85.8880010  19.2755490  90.6934130  87.2756550  19.2836460  90.0882430
 103.3008980  19.7349280  96.1458670 103.8246460  19.2411930  95.5148840
 103.8868400  19.8699640  96.8906240 103.4798700  19.8189150  99.6678220
 102.5301410  19.7852690  99.7823210 103.6611710  20.7289260  99.4327990
  89.3343140  18.0690830  88.7776850  90.0434840  17.6474050  88.2924130
  88.6183080  18.1366060  88.1460200  88.9817300  14.1230160  87.8179500
  89.7045430  14.6639100  88.1360720  89.2541820  13.8493580  86.9421040
  88.6709490  13.3736350  97.7202120  89.3185680  12.8233730  97.2797280
  89.0911330  13.6279500  98.5417930 104.2196110  17.6283580  94.6188760
 104.1095390  17.4739620  95.5571030 104.9803700  17.1004520  94.3764170
 102.5661830  13.5677710 101.0771760 103.2034050  14.1811850 101.4430950
 102.7136720  13.6038370 100.1320990 105.1086380  15.4591500  87.8594900
 106.0335690  15.3272680  87.6513190 105.0862170  15.5384320  88.8131350
 105.1824870  16.2302160  90.4851610 104.3876370  16.1647280  91.0144520
 105.3868150  17.1652800  90.4736960 102.1243290  30.2693710  94.4790000
 102.7202360  29.9478280  93.8024420 102.3821440  29.7965530  95.2703270
  88.4241490  13.5292020 100.4627440  88.0756310  13.9855840 101.2285620
  88.0929190  12.6349150 100.5449870  90.0305860  26.7011620 104.6280630
  89.9875490  26.3304530 105.5095090  90.1616870  27.6389190 104.7682450
  95.9366310  14.7203900 103.9846860  95.8755200  15.3125730 104.7342270
  96.8766690  14.6129860 103.8397120  98.5740870  14.3773960 103.6239150
  99.1881280  14.6953250 102.9620230  99.1190430  13.8922550 104.2435010
 104.9916050  30.2765590 101.0300990 104.4974330  30.6734460 100.3128120
 104.3829340  29.6514800 101.4238270  89.0962130  13.0568220 103.7378210
  89.6445120  12.8756270 102.9744320  89.1617440  12.2662330 104.2734520
  99.3148910  12.9406100  99.9508440  98.4408750  13.2741210  99.7481370
  99.2059660  12.4679280 100.7760310 100.2220890  15.1476970 101.3350160
  99.8934250  14.3328730 100.9551890 101.1703190  15.1046780 101.2115850
 102.6755500  30.9189010  98.3087730 102.2158470  31.6704820  97.9345750
 102.0467960  30.1995480  98.2502530  97.0623730  13.8575940  98.8901350
  96.2795520  14.3321440  99.1698110  96.7686660  12.9530770  98.7814530
 101.6144800  14.5599040  96.9350440 102.0552890  14.5044140  96.0872040
 101.3452390  15.4757050  97.0060620 103.4783370  14.1914280  94.9459260
 103.4171770  13.2475500  94.7990280 104.2575400  14.2994370  95.4912720
  87.7836120  30.3306640  93.9083210  87.6158160  29.6977320  94.6065100
  86.9170630  30.5366040  93.5577400  88.4064140  14.1623420  91.4115070
  89.1643500  14.2752300  90.8379100  87.9441310  14.9992620  91.3658500
  94.9477950  16.2762690  94.4017380  94.1352460  15.9019580  94.0613260
  95.4519590  15.5207770  94.7038570  99.4502930  12.9405140  95.6400450
 100.0532300  13.5125350  96.1148970  98.7095920  13.5044580  95.4174350
 102.5937530  13.3426700  90.9140730 102.7888160  14.2410150  91.1808160
 101.8067400  13.1113780  91.4073680  90.7789290  14.6887470  89.9517040
  91.3082050  13.9017270  89.8224990  91.4117610  15.3678660  90.1852570
  92.9727130  14.4262610  93.0062430  92.3429870  13.7249920  93.1732560
  92.4332270  15.1866740  92.7895590  93.0982690  13.7046590 105.4414920
  92.8166960  14.2080190 104.6775740  93.4802390  12.9068340 105.0757050
  99.6998150  13.1200170 106.0195390  99.5863600  13.4394780 106.9146910
 100.5167890  13.5212680 105.7232670 102.4796640  30.2671700 105.5014080
 103.2721960  29.7720930 105.2940040 102.7729790  30.9461840 106.1089690
  98.6056300  21.1392640  76.3830130  98.5250350  20.2247250  76.1121840
  98.1920720  21.6359710  75.6769840  96.7374340  22.9171660  78.2639400
  95.9616440  22.4372100  78.5537970  97.3887270  22.2377310  78.0895560
  96.1783330  25.5928850  78.2709560  96.1091610  24.6518790  78.1098690
  96.9403190  25.6830260  78.8432130  97.2088500  18.3999230  78.4978490
  97.5853320  17.5271110  78.3852160  97.1108010  18.7357930  77.6068930
 100.9912620  15.8949670  75.4306830 101.8122240  15.4046240  75.4732310
 101.0246700  16.4847330  76.1838670 105.2812170  17.9116420  81.9950460
 104.5764340  18.2998130  81.4765570 105.5470090  18.6066710  82.5971390
  91.4637340  14.3809790  82.5584530  91.4655780  14.8982180  81.7530430
  90.6341650  13.9039970  82.5354460  97.8508430  24.4929100  74.0574430
  97.2325700  24.9578550  73.4937150  98.3631680  25.1856580  74.4743940
 101.2274100  17.8350050  78.2034370 100.5229670  18.1234940  78.7837480
 101.5886260  18.6450160  77.8433930  87.2191630  25.1785630  71.4314060
  86.8419610  25.6672730  70.6998960  87.4764700  25.8510910  72.0620590
 104.2961020  17.2804840  78.5943580 103.3485930  17.3143820  78.7259010
 104.6211010  18.0943790  78.9792940  94.8280560  13.5802020  76.8899570
  95.1355540  13.0248910  76.1735070  93.8981260  13.7146480  76.7072560
  99.7781060  24.1999150  80.5089640 100.1949850  23.9859260  79.6743100
 100.5020880  24.4571940  81.0798260  97.2161320  21.6450850  73.6259690
  96.2890600  21.5788230  73.8548160  97.3686140  22.5830980  73.5114930
  97.2030400  17.9167850  70.6226850  96.2634070  18.0781810  70.7079310
  97.5213660  18.6353530  70.0762840 100.6885170  19.3855690  81.5460750
 100.2756350  20.2109400  81.8000740  99.9561120  18.8000730  81.3537110
  93.2899660  25.8583150  78.5718630  92.9927950  25.2528620  77.8926410
  94.2399480  25.8960460  78.4607990  99.4223310  22.4457960  71.1367690
  99.8616590  21.6080390  70.9905510 100.1351730  23.0787360  71.2231830
 103.0040450  13.7000770  69.4508730 102.6913110  13.7927600  70.3507800
 103.7652920  14.2781800  69.4006160 104.3617730  26.3839810  84.4633130
 104.4880790  26.1451690  83.5450310 104.4039110  25.5524350  84.9355210
  98.2234470  30.0867810  83.0327940  98.7379140  29.9975820  83.8350370
  97.3803550  30.4327510  83.3255850 104.2141740  18.4372270  85.4282870
 103.5986010  18.9451940  84.8998330 103.8938160  17.5370600  85.3708810
  91.9886250  14.4095640  77.2909740  91.5454400  15.1905180  76.9594260
  92.5471240  14.7325530  77.9980680  96.2756060  17.2764160  82.8945060
  95.8135430  17.4847180  83.7065000  95.8734170  16.4623510  82.5915730
 101.2760570  18.4973110  84.0241720 100.4254160  18.1978860  84.3450790
 101.1162360  18.7415120  83.1125540  95.1045070  14.0306340  72.1715570
  94.4799250  14.0266210  72.8968880  95.0175190  13.1637300  71.7751540
  94.0262150  14.9542970  79.1499340  94.3234480  15.8605800  79.0691360
  94.5747710  14.4661750  78.5358910  99.0098230  19.5392580  73.6181640
  98.4107120  20.2628380  73.4345260  99.5577840  19.4769360  72.8358090
  97.6163100  18.1756120  75.6484920  98.0092670  18.4928320  74.8353610
  97.9779950  17.2968000  75.7629440  89.3510220  16.8428460  83.8385040
  88.9573610  17.6903670  84.0457820  88.6628620  16.2054830  84.0293680
  98.2018240  20.7661870  79.7435700  97.4699360  21.2748680  80.0925800
  97.8042580  19.9491850  79.4424480  94.6395630  17.4416070  78.1488190
  94.6431690  17.0006020  77.2992730  95.5346750  17.7633400  78.2560010
  94.7015780  18.4428150  71.1394950  94.8228600  18.4014630  72.0880770
  94.3164290  19.3052300  70.9841680  98.6644150  16.2195550  79.1558640
  98.6816890  16.6704200  80.0000490  98.4159730  15.3201190  79.3692080
  93.7137280  20.7529290  70.5378250  93.1454180  20.3047540  69.9114160
  94.4226280  21.1122070  70.0043400 102.0914900  13.6327730  84.9945020
 102.4160670  12.9017390  85.5203000 102.1271410  13.3141370  84.0926010
  94.9403600  21.5017850  79.8953600  95.3073730  21.0276420  80.6414940
  94.7508660  22.3759420  80.2361940  97.4782680  15.1390800  72.7460440
  96.6647290  14.6403970  72.6705750  97.2844630  15.9789050  72.3296790
  97.3991540  23.8161900  84.4900050  97.3328850  22.8957570  84.2357640
  96.7696680  23.9137340  85.2044690 100.1931070  19.5110450  71.0422600
 101.0810690  19.8227680  70.8673940 100.1636160  18.6382700  70.6503180
  96.1891660  25.6834140  71.7210770  96.5307360  26.4276370  71.2254090
  95.3604370  25.9965260  72.0835600  91.9879820  21.8413470  86.2448720
  91.6879960  21.9870650  85.3476540  92.7591060  21.2818760  86.1522110
 102.4645340  20.8222290  70.5102460 102.3809060  21.2536510  69.6598900
 103.1839530  21.2820640  70.9429280 103.5419480  23.2789810  83.5872430
 102.8167670  23.8718590  83.3901820 104.0694940  23.2713350  82.7885800
  99.0719070  25.0049980  77.0856280  99.4242890  24.4078110  76.4257650
  98.1881400  24.6794210  77.2564530  95.1582350  25.7647670  74.4926690
  95.8453480  26.3116880  74.8734280  94.3714770  26.3088400  74.5276300
  87.2974750  21.3820490  69.9843770  88.1669600  21.6645290  70.2679690
  86.8065070  22.1956360  69.8692580  94.4609560  22.7693700  74.1052050
  94.9172340  23.5798950  74.3312240  94.1097770  22.4516840  74.9370540
  90.3621340  13.1131350  74.5774570  90.2335970  13.1049250  75.5259490
  89.5383360  13.4514440  74.2265580  98.0374250  26.2832390  80.0521800
  98.6796480  25.5825550  80.1653970  98.5623600  27.0630830  79.8718690
 101.8829970  26.5681010  69.7760940 101.6567550  25.8511450  70.3685580
 101.4926170  26.3193450  68.9382690  99.8111870  27.0827290  83.2557860
 100.1468110  27.6693980  83.9335780  98.8912210  26.9520000  83.4855650
  87.3615270  14.8722470  84.0381270  86.6473790  15.0719390  84.6433880
  87.7810310  14.0962040  84.4096070 101.4646220  24.4852950  71.4375100
 101.1767920  24.9465640  72.2252980 102.2598390  24.0250720  71.7059320
  93.6814620  27.9779070  71.3679070  93.6724720  28.7108760  70.7523580
  92.7612980  27.7310650  71.4606030  89.2821260  23.1993960  72.1125830
  88.6749210  23.9392860  72.1221130  89.7570610  23.2893320  71.2864030
  98.8554050  17.3644780  81.7882720  99.2234870  16.5439990  82.1162290
  97.9952250  17.4246670  82.2038370 102.2216080  16.3201720  72.5970280
 101.5929240  16.4247390  71.8828510 101.7268000  16.5398500  73.3864160
  94.1900110  18.5987670  74.0128160  93.4816260  19.0674010  74.4541770
  94.4744590  17.9409680  74.6473350  95.8156040  20.0184370  82.0120690
  96.3141290  20.4930190  82.6772540  95.9578990  19.0947890  82.2190720
  98.2215540  15.3238330  75.4523950  98.0983320  15.3424460  74.5033460
  99.1700100  15.3717270  75.5722350  92.3935130  16.9072750  71.3878870
  93.2425660  17.3442900  71.3219060  92.0266400  17.2193010  72.2150930
 103.0222900  16.2352330  82.8549080 102.5196500  16.9757730  83.1942890
 103.8379560  16.6236330  82.5385870  91.2926550  23.1605110  69.8614400
  92.0589820  23.0486470  70.4239830  91.3701240  22.4643080  69.2091170
  89.9873310  20.5930180  70.5447290  90.0676900  19.6457690  70.6564690
  90.8793060  20.9237060  70.6507950  98.6310930  26.0351510  86.7842820
  98.0249090  26.0583110  86.0438570  98.3265040  25.3034550  87.3210070
 102.9520500  29.1426010  70.8944140 102.6662010  28.7291150  70.0798320
 102.7540050  30.0713720  70.7744660  87.5144110  22.4145100  85.7803460
  88.0183130  21.8352380  86.3519690  86.7751530  22.6985330  86.3179830
  94.4167730  25.1359290  69.3349750  94.3118370  24.5211640  70.0611130
  94.2491950  24.6125180  68.5512760  97.6570460  24.1979320  69.9391740
  97.1080560  24.6448620  70.5834480  98.2789720  23.6928570  70.4629410
 101.7105400  25.5521420  85.8714000 102.4514870  25.8897180  85.3681460
 100.9478080  25.7213480  85.3183770  89.5467190  20.5574690  86.6753530
  89.5872530  20.2588560  87.5838760  90.4012690  20.9582300  86.5161050
  93.3245580  23.1570240  71.8357040  93.7462000  22.9910110  72.6788430
  93.4496420  22.3470470  71.3412180  95.8373220  22.1807850  69.0834140
  96.3578880  21.4656870  68.7175290  96.4841620  22.8193720  69.3834650
 100.3851060  23.6036250  84.4069210 100.7992080  23.7581330  85.2559630
  99.4502060  23.7291470  84.5694990  91.9745300  16.1029160  84.7225310
  91.8802170  15.4849910  83.9976180  91.3942690  16.8295450  84.4955220
  94.7406740  14.6602400  81.7552700  94.2924040  14.6826660  80.9098250
  94.1071940  14.2621420  82.3523000  97.4830190  21.2872910  83.7602980
  97.6026400  20.6914050  84.4997820  98.3424190  21.3242600  83.3404280
  99.8218090  21.8410100  82.3365490  99.2953310  22.3652720  81.7330630
 100.1649430  22.4737490  82.9675220  92.2204480  19.2303470  68.7815200
  92.0193540  18.3670830  69.1428540  92.0496530  19.1436830  67.8436800
  94.2498960  17.8294260  85.0178800  94.8398650  17.5210110  85.7056620
  93.4319200  17.3574010  85.1738700  99.0692390  17.4460070  85.2511820
  98.3807910  16.7841610  85.1861810  99.7898410  16.9998340  85.6960280
  99.6992790  14.0411700  71.3102080  99.9795080  13.1979600  71.6661500
  98.9258520  14.2734810  71.8240830  91.0187280  16.3304090  68.7693080
  91.3213180  16.3371520  67.8612230  91.7581870  15.9801950  69.2660740
  95.8535920  31.0960950  83.7509520  95.7794620  31.9996090  84.0581890
  94.9514760  30.7772850  83.7231590  94.2372210  15.2738710  69.7549280
  93.8894210  14.5962700  69.1751730  94.4384980  14.8128220  70.5692670
  90.0417410  25.6346510  69.6022880  90.4792280  26.1776180  70.2580460
  90.5265140  24.8093460  69.6119220  91.8525130  26.7544550  74.7145110
  91.5520670  26.6309520  75.6149020  91.7462620  25.8953140  74.3060840
 104.0773510  23.2788430  71.9205990 104.8392420  23.8485080  72.0265680
 104.0927880  22.7115630  72.6914300 100.5268290  16.5967650  70.3732140
 100.9453170  16.4098630  69.5328800 100.2204350  15.7446700  70.6835070
 103.4157640  20.6563310  83.7047460 103.1843730  20.4276060  82.8045410
 103.6762190  21.5762860  83.6592350  88.1669780  19.0988020  84.5975410
  87.2725830  19.0654780  84.9369120  88.7067330  19.2974810  85.3626660
 101.8545710  15.8819740  86.4827160 102.7315890  15.8903140  86.8661160
 101.8666550  15.1450580  85.8719510  89.3343140  18.0690830  70.0033360
  90.0434840  17.6474050  69.5180640  88.6183080  18.1366060  69.3716710
 102.7908950  18.9922630  73.3107590 103.2868070  18.7593500  74.0956470
 102.5925020  18.1534470  72.8945230  88.6709490  13.3736350  78.9458630
  89.3185680  12.8233730  78.5053790  89.0911330  13.6279500  79.7674440
 104.2196110  17.6283580  75.8445270 104.1095390  17.4739620  76.7827540
 104.9803700  17.1004520  75.6020680 102.5661830  13.5677710  82.3028270
 103.2034050  14.1811850  82.6687460 102.7136720  13.6038370  81.3577500
 105.1086380  15.4591500  69.0851410 106.0335690  15.3272680  68.8769700
 105.0862170  15.5384320  70.0387860 105.1824870  16.2302160  71.7108120
 104.3876370  16.1647280  72.2401030 105.3868150  17.1652800  71.6993470
  88.4241490  13.5292020  81.6883950  88.0756310  13.9855840  82.4542130
  88.0929190  12.6349150  81.7706380  95.9366310  14.7203900  85.2103370
  95.8755200  15.3125730  85.9598780  96.8766690  14.6129860  85.0653630
  98.5740870  14.3773960  84.8495660  99.1881280  14.6953250  84.1876740
  99.1190430  13.8922550  85.4691520  89.0962130  13.0568220  84.9634720
  89.6445120  12.8756270  84.2000830  89.1617440  12.2662330  85.4991030
  99.3148910  12.9406100  81.1764950  98.4408750  13.2741210  80.9737880
  99.2059660  12.4679280  82.0016820 100.2220890  15.1476970  82.5606670
  99.8934250  14.3328730  82.1808400 101.1703190  15.1046780  82.4372360
  93.1051220  29.2277250  78.7092370  93.6216240  28.6164610  78.1840630
  93.7548600  29.7306030  79.2003380  95.8446720  30.1185740  79.5361350
  96.1324530  29.8640040  78.6594360  96.3569940  29.5663100  80.1266920
  97.0623730  13.8575940  80.1157860  96.2795520  14.3321440  80.3954620
  96.7686660  12.9530770  80.0071040 101.6144800  14.5599040  78.1606950
 102.0552890  14.5044140  77.3128550 101.3452390  15.4757050  78.2317130
 103.4783370  14.1914280  76.1715770 103.4171770  13.2475500  76.0246790
 104.2575400  14.2994370  76.7169230  94.9477950  16.2762690  75.6273890
  94.1352460  15.9019580  75.2869770  95.4519590  15.5207770  75.9295080
  99.4502930  12.9405140  76.8656960 100.0532300  13.5125350  77.3405480
  98.7095920  13.5044580  76.6430860 102.5937530  13.3426700  72.1397240
 102.7888160  14.2410150  72.4064670 101.8067400  13.1113780  72.6330190
  90.7789290  14.6887470  71.1773550  91.3082050  13.9017270  71.0481500
  91.4117610  15.3678660  71.4109080  92.9727130  14.4262610  74.2318940
  92.3429870  13.7249920  74.3989070  92.4332270  15.1866740  74.0152100
 104.1464140  30.5827410  73.9003800 104.3216330  29.8965150  73.2564720
 103.4485710  31.1074460  73.5080470  93.0982690  13.7046590  86.6671430
  92.8166960  14.2080190  85.9032250  93.4802390  12.9068340  86.3013560
  91.9891790  30.9722250  71.4539110  92.7210610  30.6881530  70.9063000
  92.2485460  30.7335530  72.3438490  91.1506580  27.0886980  71.4585440
  90.5215460  27.5572080  72.0071270  91.2654410  26.2436200  71.8931630
  99.6998150  13.1200170  87.2451900  99.5863600  13.4394780  88.1403420
 100.5167890  13.5212680  86.9489180  98.6056300  21.1392640  57.6086640
  98.5250350  20.2247250  57.3378350  98.1920720  21.6359710  56.9026350
  96.7374340  22.9171660  59.4895910  95.9616440  22.4372100  59.7794480
  97.3887270  22.2377310  59.3152070  90.7540170  23.2291470  60.3671670
  89.9225050  22.9740180  60.7668180  91.3621150  23.3002240  61.1029590
 100.7581770  27.3231850  58.2695040 100.2963300  26.5519090  58.5982210
 101.5707320  27.3497920  58.7747490  90.7341430  27.2631560  60.5629690
  91.0369470  26.3729300  60.3839910  91.4785020  27.8201780  60.3351940
  89.1632120  18.1893360  54.1514060  88.2748820  18.5309330  54.0493940
  89.4473310  17.9893680  53.2594890  96.9845080  29.6089860  57.8899030
  96.3656520  30.0647360  57.3193470  97.8396860  29.7641320  57.4888730
  97.2088500  18.3999230  59.7235000  97.5853320  17.5271110  59.6108670
  97.1108010  18.7357930  58.8325440 100.9912620  15.8949670  56.6563340
 101.8122240  15.4046240  56.6988820 101.0246700  16.4847330  57.4095180
 105.2812170  17.9116420  63.2206970 104.5764340  18.2998130  62.7022080
 105.5470090  18.6066710  63.8227900  91.4637340  14.3809790  63.7841040
  91.4655780  14.8982180  62.9786940  90.6341650  13.9039970  63.7610970
  97.8508430  24.4929100  55.2830940  97.2325700  24.9578550  54.7193660
  98.3631680  25.1856580  55.7000450 101.2274100  17.8350050  59.4290880
 100.5229670  18.1234940  60.0093990 101.5886260  18.6450160  59.0690440
 104.2961020  17.2804840  59.8200090 103.3485930  17.3143820  59.9515520
 104.6211010  18.0943790  60.2049450  94.8280560  13.5802020  58.1156080
  95.1355540  13.0248910  57.3991580  93.8981260  13.7146480  57.9329070
 101.6741040  26.0185530  55.4953710 101.5637370  25.0759860  55.6203130
 101.6709290  26.3801170  56.3816470  97.2161320  21.6450850  54.8516200
  96.2890600  21.5788230  55.0804670  97.3686140  22.5830980  54.7371440
  97.2030400  17.9167850  51.8483360  96.2634070  18.0781810  51.9335820
  97.5213660  18.6353530  51.3019350 103.7243160  22.5986370  61.8262390
 102.8961790  22.6679460  61.3512520 104.3193640  23.1840680  61.3578220
 101.2458610  23.2071150  55.3551450 100.6271030  22.8690700  54.7077750
 101.2283060  22.5630910  56.0630640  92.8217960  22.1715590  57.6335930
  92.4174960  21.4592840  57.1381830  92.9081080  21.8268830  58.5223970
  91.2089310  22.4678160  65.0240310  91.0697080  23.3400960  65.3927710
  90.3270670  22.1250970  64.8788250  97.5318690  27.3854030  56.3305440
  97.9714600  28.1278360  55.9160830  97.4705580  27.6280600  57.2544400
 103.0040450  13.7000770  50.6765240 102.6913110  13.7927600  51.5764310
 103.7652920  14.2781800  50.6262670 100.1988870  30.3723150  53.6868450
 100.0390010  30.0826090  54.5850280 100.0335580  29.5963280  53.1513680
  99.4664930  29.5073420  56.3214940  99.9221880  28.7262800  56.6353560
  99.8057450  30.2180240  56.8656120  96.2756060  17.2764160  64.1201570
  95.8135430  17.4847180  64.9321510  95.8734170  16.4623510  63.8172240
  95.1045070  14.0306340  53.3972080  94.4799250  14.0266210  54.1225390
  95.0175190  13.1637300  53.0008050  94.0262150  14.9542970  60.3755850
  94.3234480  15.8605800  60.2947870  94.5747710  14.4661750  59.7615420
  99.0098230  19.5392580  54.8438150  98.4107120  20.2628380  54.6601770
  99.5577840  19.4769360  54.0614600  97.6163100  18.1756120  56.8741430
  98.0092670  18.4928320  56.0610120  97.9779950  17.2968000  56.9885950
  89.3510220  16.8428460  65.0641550  88.9573610  17.6903670  65.2714330
  88.6628620  16.2054830  65.2550190  95.9255270  16.9263430  68.1338290
  95.2353590  16.7335630  68.7684380  96.6687570  17.2098070  68.6662590
  86.8397500  18.7077040  50.3074350  86.7572170  19.6507800  50.4489340
  86.4880560  18.5651950  49.4286700  94.7015780  18.4428150  52.3651460
  94.8228600  18.4014630  53.3137280  94.3164290  19.3052300  52.2098190
  98.6644150  16.2195550  60.3815150  98.6816890  16.6704200  61.2257000
  98.4159730  15.3201190  60.5948590  93.7137280  20.7529290  51.7634760
  93.1454180  20.3047540  51.1370670  94.4226280  21.1122070  51.2299910
 102.0914900  13.6327730  66.2201530 102.4160670  12.9017390  66.7459510
 102.1271410  13.3141370  65.3182520  88.7906460  24.6541310  65.6401490
  88.4061250  24.0134980  66.2384450  89.1018650  25.3577430  66.2096220
  97.4782680  15.1390800  53.9716950  96.6647290  14.6403970  53.8962260
  97.2844630  15.9789050  53.5553300 100.1931070  19.5110450  52.2679110
 101.0810690  19.8227680  52.0930450 100.1636160  18.6382700  51.8759690
  88.7866700  21.3829230  64.5865680  88.4281640  22.0483080  65.1739020
  88.4921260  20.5512780  64.9578300  91.9879820  21.8413470  67.4705230
  91.6879960  21.9870650  66.5733050  92.7591060  21.2818760  67.3778620
 102.4645340  20.8222290  51.7358970 102.3809060  21.2536510  50.8855410
 103.1839530  21.2820640  52.1685790 103.5419480  23.2789810  64.8128940
 102.8167670  23.8718590  64.6158330 104.0694940  23.2713350  64.0142310
 103.4932590  27.6764550  54.4641100 102.8508750  27.0220170  54.7384820
 103.1063250  28.0819640  53.6881770  99.0719070  25.0049980  58.3112790
  99.4242890  24.4078110  57.6514160  98.1881400  24.6794210  58.4821040
  90.3621340  13.1131350  55.8031080  90.2335970  13.1049250  56.7516000
  89.5383360  13.4514440  55.4522090  87.6646000  30.5947870  51.7761910
  88.0243640  31.1937210  51.1219180  87.5238340  31.1407760  52.5496940
  87.3615270  14.8722470  65.2637780  86.6473790  15.0719390  65.8690390
  87.7810310  14.0962040  65.6352580 102.2216080  16.3201720  53.8226790
 101.5929240  16.4247390  53.1085020 101.7268000  16.5398500  54.6120670
  98.2215540  15.3238330  56.6780460  98.0983320  15.3424460  55.7289970
  99.1700100  15.3717270  56.7978860  95.3092330  30.5593630  55.9508440
  95.5633830  30.5215020  55.0287810  94.3604810  30.4326960  55.9436690
  92.3935130  16.9072750  52.6135380  93.2425660  17.3442900  52.5475570
  92.0266400  17.2193010  53.4407440 101.3144910  21.4785510  57.5266950
 100.3735050  21.4935740  57.7014640 101.6288980  20.6921470  57.9727250
  90.7888020  30.7425570  58.8738340  91.5250500  30.1941030  59.1446910
  91.1728940  31.6081580  58.7344330  89.7946300  29.9271640  68.0623920
  90.5959030  30.2483690  68.4759320  89.2798120  29.5667220  68.7843830
 102.9520500  29.1426010  52.1200650 102.6662010  28.7291150  51.3054830
 102.7540050  30.0713720  52.0001170  87.5144110  22.4145100  67.0059970
  88.0183130  21.8352380  67.5776200  86.7751530  22.6985330  67.5436340
  89.5467190  20.5574690  67.9010040  89.5872530  20.2588560  68.8095270
  90.4012690  20.9582300  67.7417560  91.4873000  19.1366790  65.8684530
  90.9569460  18.6457740  65.2407870  92.1561070  19.5650990  65.3342460
  95.8373220  22.1807850  50.3090650  96.3578880  21.4656870  49.9431800
  96.4841620  22.8193720  50.6091160  91.9745300  16.1029160  65.9481820
  91.8802170  15.4849910  65.2232690  91.3942690  16.8295450  65.7211730
  94.7406740  14.6602400  62.9809210  94.2924040  14.6826660  62.1354760
  94.1071940  14.2621420  63.5779510  92.2204480  19.2303470  50.0071710
  92.0193540  18.3670830  50.3685050  92.0496530  19.1436830  49.0693310
  94.2498960  17.8294260  66.2435310  94.8398650  17.5210110  66.9313130
  93.4319200  17.3574010  66.3995210  99.6992790  14.0411700  52.5358590
  99.9795080  13.1979600  52.8918010  98.9258520  14.2734810  53.0497340
  91.0187280  16.3304090  49.9949590  91.3213180  16.3371520  49.0868740
  91.7581870  15.9801950  50.4917250  94.2372210  15.2738710  50.9805790
  93.8894210  14.5962700  50.4008240  94.4384980  14.8128220  51.7949180
  87.2563210  28.4235540  58.2799650  87.5866220  27.5556600  58.0478290
  87.6854210  28.6294060  59.1104610 104.6217050  26.5340950  50.6428300
 103.7910010  26.6017600  51.1135530 104.7988880  27.4245070  50.3395160
 104.0773510  23.2788430  53.1462500 104.8392420  23.8485080  53.2522190
 104.0927880  22.7115630  53.9170810 104.1292680  23.5722800  50.3035020
 104.4041520  24.4801680  50.1754240 103.9403420  23.5085330  51.2397010
 100.5268290  16.5967650  51.5988650 100.9453170  16.4098630  50.7585310
 100.2204350  15.7446700  51.9091580 104.0258020  21.5091790  55.2964450
 103.6501620  20.7419720  54.8645740 103.2961140  21.8914490  55.7839380
  88.1669780  19.0988020  65.8231920  87.2725830  19.0654780  66.1625630
  88.7067330  19.2974810  66.5883170  86.7915930  19.0125290  53.3195490
  85.8880010  19.2755490  53.1447150  87.2756550  19.2836460  52.5395450
 103.3008980  19.7349280  58.5971690 103.8246460  19.2411930  57.9661860
 103.8868400  19.8699640  59.3419260  89.3343140  18.0690830  51.2289870
  90.0434840  17.6474050  50.7437150  88.6183080  18.1366060  50.5973220
  88.9817300  14.1230160  50.2692520  89.7045430  14.6639100  50.5873740
  89.2541820  13.8493580  49.3934060 102.7908950  18.9922630  54.5364100
 103.2868070  18.7593500  55.3212980 102.5925020  18.1534470  54.1201740
  88.6709490  13.3736350  60.1715140  89.3185680  12.8233730  59.7310300
  89.0911330  13.6279500  60.9930950 104.2196110  17.6283580  57.0701780
 104.1095390  17.4739620  58.0084050 104.9803700  17.1004520  56.8277190
 102.5661830  13.5677710  63.5284780 103.2034050  14.1811850  63.8943970
 102.7136720  13.6038370  62.5834010 105.1086380  15.4591500  50.3107920
 106.0335690  15.3272680  50.1026210 105.0862170  15.5384320  51.2644370
 105.1824870  16.2302160  52.9364630 104.3876370  16.1647280  53.4657540
 105.3868150  17.1652800  52.9249980 102.1243290  30.2693710  56.9303020
 102.7202360  29.9478280  56.2537440 102.3821440  29.7965530  57.7216290
  88.4241490  13.5292020  62.9140460  88.0756310  13.9855840  63.6798640
  88.0929190  12.6349150  62.9962890  90.0305860  26.7011620  67.0793650
  89.9875490  26.3304530  67.9608110  90.1616870  27.6389190  67.2195470
  95.9366310  14.7203900  66.4359880  95.8755200  15.3125730  67.1855290
  96.8766690  14.6129860  66.2910140  98.5740870  14.3773960  66.0752170
  99.1881280  14.6953250  65.4133250  99.1190430  13.8922550  66.6948030
  89.0962130  13.0568220  66.1891230  89.6445120  12.8756270  65.4257340
  89.1617440  12.2662330  66.7247540  99.3148910  12.9406100  62.4021460
  98.4408750  13.2741210  62.1994390  99.2059660  12.4679280  63.2273330
  93.1051220  29.2277250  59.9348880  93.6216240  28.6164610  59.4097140
  93.7548600  29.7306030  60.4259890  95.8446720  30.1185740  60.7617860
  96.1324530  29.8640040  59.8850870  96.3569940  29.5663100  61.3523430
  97.0623730  13.8575940  61.3414370  96.2795520  14.3321440  61.6211130
  96.7686660  12.9530770  61.2327550 101.6144800  14.5599040  59.3863460
 102.0552890  14.5044140  58.5385060 101.3452390  15.4757050  59.4573640
 103.4783370  14.1914280  57.3972280 103.4171770  13.2475500  57.2503300
 104.2575400  14.2994370  57.9425740  87.7836120  30.3306640  56.3596230
  87.6158160  29.6977320  57.0578120  86.9170630  30.5366040  56.0090420
  88.4064140  14.1623420  53.8628090  89.1643500  14.2752300  53.2892120
  87.9441310  14.9992620  53.8171520  99.4502930  12.9405140  58.0913470
 100.0532300  13.5125350  58.5661990  98.7095920  13.5044580  57.8687370
 102.5937530  13.3426700  53.3653750 102.7888160  14.2410150  53.6321180
 101.8067400  13.1113780  53.8586700  90.7789290  14.6887470  52.4030060
  91.3082050  13.9017270  52.2738010  91.4117610  15.3678660  52.6365590
 104.1464140  30.5827410  55.1260310 104.3216330  29.8965150  54.4821230
 103.4485710  31.1074460  54.7336980  93.0982690  13.7046590  67.8927940
  92.8166960  14.2080190  67.1288760  93.4802390  12.9068340  67.5270070
  99.6998150  13.1200170  68.4708410  99.5863600  13.4394780  69.3659930
 100.5167890  13.5212680  68.1745690  98.6056300  21.1392640  38.8343150
  98.5250350  20.2247250  38.5634860  98.1920720  21.6359710  38.1282860
  96.7374340  22.9171660  40.7152420  95.9616440  22.4372100  41.0050990
  97.3887270  22.2377310  40.5408580  90.7540170  23.2291470  41.5928180
  89.9225050  22.9740180  41.9924690  91.3621150  23.3002240  42.3286100
 100.7581770  27.3231850  39.4951550 100.2963300  26.5519090  39.8238720
 101.5707320  27.3497920  40.0004000  90.7341430  27.2631560  41.7886200
  91.0369470  26.3729300  41.6096420  91.4785020  27.8201780  41.5608450
  89.1632120  18.1893360  35.3770570  88.2748820  18.5309330  35.2750450
  89.4473310  17.9893680  34.4851400  87.1265130  20.7899010  41.2610270
  87.6981240  20.0221210  41.2613910  87.1266670  21.0887770  40.3516880
  96.9845080  29.6089860  39.1155540  96.3656520  30.0647360  38.5449980
  97.8396860  29.7641320  38.7145240  96.1783330  25.5928850  40.7222580
  96.1091610  24.6518790  40.5611710  96.9403190  25.6830260  41.2945150
  88.3690000  16.1983370  43.0479200  88.1892840  15.3009120  43.3281960
  87.9670080  16.7455240  43.7226150  97.2088500  18.3999230  40.9491510
  97.5853320  17.5271110  40.8365180  97.1108010  18.7357930  40.0581950
  91.3393510  16.7724860  36.4108950  91.4460260  17.6728590  36.7177710
  90.4285870  16.7242830  36.1203600 100.9912620  15.8949670  37.8819850
 101.8122240  15.4046240  37.9245330 101.0246700  16.4847330  38.6351690
  88.9876670  18.6943870  41.6561540  89.6686780  18.9582240  42.2748940
  88.6724720  17.8544740  41.9899550  93.1801240  19.7411230  40.7434130
  93.6879460  20.2392200  41.3839150  93.7114480  18.9646430  40.5673490
 105.2812170  17.9116420  44.4463480 104.5764340  18.2998130  43.9278590
 105.5470090  18.6066710  45.0484410  91.4637340  14.3809790  45.0097550
  91.4655780  14.8982180  44.2043450  90.6341650  13.9039970  44.9867480
  97.8508430  24.4929100  36.5087450  97.2325700  24.9578550  35.9450170
  98.3631680  25.1856580  36.9256960  92.7140190  24.0204970  43.1871050
  92.3809570  24.6473890  43.8292120  92.8906870  24.5466850  42.4072720
 101.2274100  17.8350050  40.6547390 100.5229670  18.1234940  41.2350500
 101.5886260  18.6450160  40.2946950  91.1452670  16.0919750  43.0168000
  91.4869480  16.9361800  42.7221870  90.2068480  16.2403490  43.1333340
  91.9259290  25.9885770  45.0020230  92.5433290  26.6636850  44.7204680
  91.0652410  26.3973750  44.9107730  87.2191630  25.1785630  33.8827080
  86.8419610  25.6672730  33.1511980  87.4764700  25.8510910  34.5133610
 102.8436880  27.4525180  42.9174870 102.1600400  28.1224290  42.9091540
 103.3831170  27.6505830  42.1519730 104.2961020  17.2804840  41.0456600
 103.3485930  17.3143820  41.1772030 104.6211010  18.0943790  41.4305960
  94.8280560  13.5802020  39.3412590  95.1355540  13.0248910  38.6248090
  93.8981260  13.7146480  39.1585580 100.3795620  29.2969310  41.6320050
 100.3922780  28.8931600  40.7642310  99.8270840  30.0716600  41.5281480
 101.6741040  26.0185530  36.7210220 101.5637370  25.0759860  36.8459640
 101.6709290  26.3801170  37.6072980  99.7781060  24.1999150  42.9602660
 100.1949850  23.9859260  42.1256120 100.5020880  24.4571940  43.5311280
  97.2161320  21.6450850  36.0772710  96.2890600  21.5788230  36.3061180
  97.3686140  22.5830980  35.9627950  97.2030400  17.9167850  33.0739870
  96.2634070  18.0781810  33.1592330  97.5213660  18.6353530  32.5275860
 103.7243160  22.5986370  43.0518900 102.8961790  22.6679460  42.5769030
 104.3193640  23.1840680  42.5834730 101.2458610  23.2071150  36.5807960
 100.6271030  22.8690700  35.9334260 101.2283060  22.5630910  37.2887150
 100.6885170  19.3855690  43.9973770 100.2756350  20.2109400  44.2513760
  99.9561120  18.8000730  43.8050130  92.8217960  22.1715590  38.8592440
  92.4174960  21.4592840  38.3638340  92.9081080  21.8268830  39.7480480
  93.2899660  25.8583150  41.0231650  92.9927950  25.2528620  40.3439430
  94.2399480  25.8960460  40.9121010  91.5346580  18.9458800  42.6391480
  92.0861170  19.0554140  41.8644730  92.0490090  19.3196400  43.3546710
  99.4223310  22.4457960  33.5880710  99.8616590  21.6080390  33.4418530
 100.1351730  23.0787360  33.6744850  91.2089310  22.4678160  46.2496820
  91.0697080  23.3400960  46.6184220  90.3270670  22.1250970  46.1044760
  97.5318690  27.3854030  37.5561950  97.9714600  28.1278360  37.1417340
  97.4705580  27.6280600  38.4800910 103.0040450  13.7000770  31.9021750
 102.6913110  13.7927600  32.8020820 103.7652920  14.2781800  31.8519180
  89.5222590  21.0660570  36.3599090  89.4020190  21.7922660  35.7480360
  89.2123480  20.2963480  35.8827000 104.9584480  29.1926960  49.7546140
 105.4344200  29.6709850  50.4335220 105.5791640  29.1244450  49.0291640
  87.1607960  24.2375710  42.1667730  87.2388380  24.3724480  41.2223450
  87.7749640  23.5291600  42.3595850  88.4055590  25.9375900  38.5773910
  87.9983670  26.0790490  37.7227510  89.2968600  25.6536060  38.3745120
 104.3617730  26.3839810  46.9146150 104.4880790  26.1451690  45.9963330
 104.4039110  25.5524350  47.3868230 100.1988870  30.3723150  34.9124960
 100.0390010  30.0826090  35.8106790 100.0335580  29.5963280  34.3770190
  92.6777250  30.1521680  36.6896580  92.5019730  29.2357220  36.4764380
  91.8232990  30.5108970  36.9294380  99.9015000  27.8810710  33.4722960
  99.2080160  27.8788000  32.8125240 100.6437860  27.4570030  33.0417130
  99.4664930  29.5073420  37.5471450  99.9221880  28.7262800  37.8610070
  99.8057450  30.2180240  38.0912630 104.2141740  18.4372270  47.8795890
 103.5986010  18.9451940  47.3511350 103.8938160  17.5370600  47.8221830
  87.2167480  25.2789880  44.7062190  87.3798520  24.8095240  43.8881560
  87.6819930  24.7713440  45.3711030  91.9886250  14.4095640  39.7422760
  91.5454400  15.1905180  39.4107280  92.5471240  14.7325530  40.4493700
  96.2756060  17.2764160  45.3458080  95.8135430  17.4847180  46.1578020
  95.8734170  16.4623510  45.0428750 101.2760570  18.4973110  46.4754740
 100.4254160  18.1978860  46.7963810 101.1162360  18.7415120  45.5638560
  98.3710280  19.9974860  48.5753530  98.6963690  19.1638610  48.2355760
  99.1590610  20.5203380  48.7231860  95.1045070  14.0306340  34.6228590
  94.4799250  14.0266210  35.3481900  95.0175190  13.1637300  34.2264560
  94.0262150  14.9542970  41.6012360  94.3234480  15.8605800  41.5204380
  94.5747710  14.4661750  40.9871930  91.7800470  19.5329210  37.4704010
  91.5541390  19.3166380  38.3750630  90.9993000  19.9657670  37.1249980
  99.0098230  19.5392580  36.0694660  98.4107120  20.2628380  35.8858280
  99.5577840  19.4769360  35.2871110  94.2199680  20.4314790  48.1364280
  94.1243280  19.4909520  47.9864680  95.0631660  20.6529860  47.7412350
  97.6163100  18.1756120  38.0997940  98.0092670  18.4928320  37.2866630
  97.9779950  17.2968000  38.2142460  89.3510220  16.8428460  46.2898060
  88.9573610  17.6903670  46.4970840  88.6628620  16.2054830  46.4806700
  95.9255270  16.9263430  49.3594800  95.2353590  16.7335630  49.9940890
  96.6687570  17.2098070  49.8919100  86.6527270  14.7656920  40.3228140
  86.3640320  15.3359780  41.0353120  87.3973030  14.2861370  40.6859370
  86.8397500  18.7077040  31.5330860  86.7572170  19.6507800  31.6745850
  86.4880560  18.5651950  30.6543210  98.2018240  20.7661870  42.1948720
  97.4699360  21.2748680  42.5438820  97.8042580  19.9491850  41.8937500
  94.6395630  17.4416070  40.6001210  94.6431690  17.0006020  39.7505750
  95.5346750  17.7633400  40.7073030  90.4898010  17.3242560  39.5595420
  90.1498060  17.8017790  40.3162470  89.7275330  16.8707680  39.1996520
  94.7015780  18.4428150  33.5907970  94.8228600  18.4014630  34.5393790
  94.3164290  19.3052300  33.4354700  98.6644150  16.2195550  41.6071660
  98.6816890  16.6704200  42.4513510  98.4159730  15.3201190  41.8205100
  93.7137280  20.7529290  32.9891270  93.1454180  20.3047540  32.3627180
  94.4226280  21.1122070  32.4556420 102.0914900  13.6327730  47.4458040
 102.4160670  12.9017390  47.9716020 102.1271410  13.3141370  46.5439030
  94.9403600  21.5017850  42.3466620  95.3073730  21.0276420  43.0927960
  94.7508660  22.3759420  42.6874960  87.8044090  16.2461540  38.4760090
  87.5191010  15.8817210  39.3138710  87.7422950  15.5142000  37.8623230
  92.7302970  20.5426490  44.6650830  92.4260040  21.4218470  44.8901190
  93.6849430  20.6026280  44.7008270  91.2584760  24.7487480  35.2617680
  90.4847020  24.2085100  35.1016400  91.9879390  24.2294090  34.9235440
 102.0172740  23.7452840  41.0544070 102.7371860  24.2408130  40.6640180
 101.8154560  23.0670730  40.4097940  97.4782680  15.1390800  35.1973460
  96.6647290  14.6403970  35.1218770  97.2844630  15.9789050  34.7809810
  97.3991540  23.8161900  46.9413070  97.3328850  22.8957570  46.6870660
  96.7696680  23.9137340  47.6557710 100.1931070  19.5110450  33.4935620
 101.0810690  19.8227680  33.3186960 100.1636160  18.6382700  33.1016200
  91.3022160  24.4167860  38.8996490  91.8200830  23.6136120  38.8453380
  90.8506180  24.3547000  39.7413320  96.1891660  25.6834140  34.1723790
  96.5307360  26.4276370  33.6767110  95.3604370  25.9965260  34.5348620
  88.7866700  21.3829230  45.8122190  88.4281640  22.0483080  46.3995530
  88.4921260  20.5512780  46.1834810  97.3308270  26.6382470  46.6916870
  97.3452810  25.7063430  46.4735780  96.6233370  26.7242230  47.3306640
 102.4645340  20.8222290  32.9615480 102.3809060  21.2536510  32.1111920
 103.1839530  21.2820640  33.3942300 103.5419480  23.2789810  46.0385450
 102.8167670  23.8718590  45.8414840 104.0694940  23.2713350  45.2398820
 103.4932590  27.6764550  35.6897610 102.8508750  27.0220170  35.9641330
 103.1063250  28.0819640  34.9138280  99.0719070  25.0049980  39.5369300
  99.4242890  24.4078110  38.8770670  98.1881400  24.6794210  39.7077550
  95.1582350  25.7647670  36.9439710  95.8453480  26.3116880  37.3247300
  94.3714770  26.3088400  36.9789320  87.2974750  21.3820490  32.4356790
  88.1669600  21.6645290  32.7192710  86.8065070  22.1956360  32.3205600
  94.4609560  22.7693700  36.5565070  94.9172340  23.5798950  36.7825260
  94.1097770  22.4516840  37.3883560  96.7642170  28.2800040  43.7857370
  97.4084390  28.4859420  44.4630790  97.1271610  27.5188440  43.3328220
  90.3621340  13.1131350  37.0287590  90.2335970  13.1049250  37.9772510
  89.5383360  13.4514440  36.6778600  98.0374250  26.2832390  42.5034820
  98.6796480  25.5825550  42.6166990  98.5623600  27.0630830  42.3231710
 101.8829970  26.5681010  32.2273960 101.6567550  25.8511450  32.8198600
 101.4926170  26.3193450  31.3895710  99.8111870  27.0827290  45.7070880
 100.1468110  27.6693980  46.3848800  98.8912210  26.9520000  45.9368670
  87.6646000  30.5947870  33.0018420  88.0243640  31.1937210  32.3475690
  87.5238340  31.1407760  33.7753450  87.3615270  14.8722470  46.4894290
  86.6473790  15.0719390  47.0946900  87.7810310  14.0962040  46.8609090
 101.4646220  24.4852950  33.8888120 101.1767920  24.9465640  34.6766000
 102.2598390  24.0250720  34.1572340  93.6814620  27.9779070  33.8192090
  93.6724720  28.7108760  33.2036600  92.7612980  27.7310650  33.9119050
  89.2821260  23.1993960  34.5638850  88.6749210  23.9392860  34.5734150
  89.7570610  23.2893320  33.7377050  98.8554050  17.3644780  44.2395740
  99.2234870  16.5439990  44.5675310  97.9952250  17.4246670  44.6551390
 102.2216080  16.3201720  35.0483300 101.5929240  16.4247390  34.3341530
 101.7268000  16.5398500  35.8377180  96.6674220  28.0407310  32.4817280
  96.7686200  27.8371300  31.5519260  95.7675960  27.7865590  32.6865060
  94.1900110  18.5987670  36.4641180  93.4816260  19.0674010  36.9054790
  94.4744590  17.9409680  37.0986370  95.8156040  20.0184370  44.4633710
  96.3141290  20.4930190  45.1285560  95.9578990  19.0947890  44.6703740
  98.2215540  15.3238330  37.9036970  98.0983320  15.3424460  36.9546480
  99.1700100  15.3717270  38.0235370  95.3092330  30.5593630  37.1764950
  95.5633830  30.5215020  36.2544320  94.3604810  30.4326960  37.1693200
  92.3935130  16.9072750  33.8391890  93.2425660  17.3442900  33.7732080
  92.0266400  17.2193010  34.6663950 103.0222900  16.2352330  45.3062100
 102.5196500  16.9757730  45.6455910 103.8379560  16.6236330  44.9898890
 101.3144910  21.4785510  38.7523460 100.3735050  21.4935740  38.9271150
 101.6288980  20.6921470  39.1983760  91.2926550  23.1605110  32.3127420
  92.0589820  23.0486470  32.8752850  91.3701240  22.4643080  31.6604190
  89.9873310  20.5930180  32.9960310  90.0676900  19.6457690  33.1077710
  90.8793060  20.9237060  33.1020970 103.3170490  28.6494360  40.4277720
 103.4417910  29.4725530  40.9001530 104.1836050  28.4385090  40.0801870
  90.7888020  30.7425570  40.0994850  91.5250500  30.1941030  40.3703420
  91.1728940  31.6081580  39.9600840  87.6733500  26.8099140  35.9736360
  86.7473280  27.0520280  35.9641770  88.1389930  27.6373400  35.8521110
  93.8990330  29.9155880  31.9220420  94.6918940  30.2044710  31.4702210
  93.3794680  29.4848050  31.2432900 102.9520500  29.1426010  33.3457160
 102.6662010  28.7291150  32.5311340 102.7540050  30.0713720  33.2257680
  94.4167730  25.1359290  31.7862770  94.3118370  24.5211640  32.5124150
  94.2491950  24.6125180  31.0025780  94.5682050  23.8216090  47.7652000
  93.8027720  24.3901090  47.6806670  94.7498010  23.5292300  46.8720230
  97.6570460  24.1979320  32.3904760  97.1080560  24.6448620  33.0347500
  98.2789720  23.6928570  32.9142430  89.5467190  20.5574690  49.1266550
  89.5872530  20.2588560  50.0351780  90.4012690  20.9582300  48.9674070
  93.3245580  23.1570240  34.2870060  93.7462000  22.9910110  35.1301450
  93.4496420  22.3470470  33.7925200  91.4873000  19.1366790  47.0941040
  90.9569460  18.6457740  46.4664380  92.1561070  19.5650990  46.5598970
  95.8373220  22.1807850  31.5347160  96.3578880  21.4656870  31.1688310
  96.4841620  22.8193720  31.8347670 100.8573230  20.9432410  48.8621380
 101.4394000  20.1884730  48.7741860 101.0335000  21.4739850  48.0852860
  91.9745300  16.1029160  47.1738330  91.8802170  15.4849910  46.4489200
  91.3942690  16.8295450  46.9468240  94.7406740  14.6602400  44.2065720
  94.2924040  14.6826660  43.3611270  94.1071940  14.2621420  44.8036020
  95.1466290  23.5556730  44.8278160  95.5654400  24.3989460  44.6554400
  94.2274920  23.6928770  44.5984940  97.4830190  21.2872910  46.2116000
  97.6026400  20.6914050  46.9510840  98.3424190  21.3242600  45.7917300
  99.8218090  21.8410100  44.7878510  99.2953310  22.3652720  44.1843650
 100.1649430  22.4737490  45.4188240  92.2204480  19.2303470  31.2328220
  92.0193540  18.3670830  31.5941560  92.0496530  19.1436830  30.2949820
  94.2498960  17.8294260  47.4691820  94.8398650  17.5210110  48.1569640
  93.4319200  17.3574010  47.6251720  99.0692390  17.4460070  47.7024840
  98.3807910  16.7841610  47.6374830  99.7898410  16.9998340  48.1473300
  99.6992790  14.0411700  33.7615100  99.9795080  13.1979600  34.1174520
  98.9258520  14.2734810  34.2753850  91.0187280  16.3304090  31.2206100
  91.3213180  16.3371520  30.3125250  91.7581870  15.9801950  31.7173760
  94.2372210  15.2738710  32.2062300  93.8894210  14.5962700  31.6264750
  94.4384980  14.8128220  33.0205690  96.4021250  30.2619460  33.8248900
  97.2972040  30.6004430  33.8467660  96.4338880  29.5398870  33.1973180
  90.0417410  25.6346510  32.0535900  90.4792280  26.1776180  32.7093480
  90.5265140  24.8093460  32.0632240  87.2563210  28.4235540  39.5056160
  87.5866220  27.5556600  39.2734800  87.6854210  28.6294060  40.3361120
  91.8525130  26.7544550  37.1658130  91.5520670  26.6309520  38.0662040
  91.7462620  25.8953140  36.7573860  87.7453420  29.2906130  42.2437790
  87.3084410  29.4706930  43.0761940  88.3131100  30.0480750  42.1019510
 104.6217050  26.5340950  31.8684810 103.7910010  26.6017600  32.3392040
 104.7988880  27.4245070  31.5651670 104.0773510  23.2788430  34.3719010
 104.8392420  23.8485080  34.4778700 104.0927880  22.7115630  35.1427320
  87.5777850  21.8026360  38.6026670  86.9226690  21.5338000  37.9586370
  88.4155800  21.6930840  38.1528650 105.0833480  24.1338530  39.2160940
 105.4542310  23.3505850  38.8096910 105.7235410  24.8227630  39.0378240
 102.0667240  25.5175110  44.6291260 101.2527080  25.9472270  44.8917050
 102.4741440  26.1293520  44.0160310 104.1292680  23.5722800  31.5291530
 104.4041520  24.4801680  31.4010750 103.9403420  23.5085330  32.4653520
 100.5268290  16.5967650  32.8245160 100.9453170  16.4098630  31.9841820
 100.2204350  15.7446700  33.1348090 104.0258020  21.5091790  36.5220960
 103.6501620  20.7419720  36.0902250 103.2961140  21.8914490  37.0095890
  88.6153780  22.1878930  43.1430010  88.9826820  22.1006330  44.0226030
  88.0464600  21.4245480  43.0436870 103.4157640  20.6563310  46.1560480
 103.1843730  20.4276060  45.2558430 103.6762190  21.5762860  46.1105370
  88.1669780  19.0988020  47.0488430  87.2725830  19.0654780  47.3882140
  88.7067330  19.2974810  47.8139680 101.8545710  15.8819740  48.9340180
 102.7315890  15.8903140  49.3174180 101.8666550  15.1450580  48.3232530
  86.7915930  19.0125290  34.5452000  85.8880010  19.2755490  34.3703660
  87.2756550  19.2836460  33.7651960 103.3008980  19.7349280  39.8228200
 103.8246460  19.2411930  39.1918370 103.8868400  19.8699640  40.5675770
 103.4798700  19.8189150  43.3447750 102.5301410  19.7852690  43.4592740
 103.6611710  20.7289260  43.1097520  89.3343140  18.0690830  32.4546380
  90.0434840  17.6474050  31.9693660  88.6183080  18.1366060  31.8229730
  88.9817300  14.1230160  31.4949030  89.7045430  14.6639100  31.8130250
  89.2541820  13.8493580  30.6190570 102.7908950  18.9922630  35.7620610
 103.2868070  18.7593500  36.5469490 102.5925020  18.1534470  35.3458250
  88.6709490  13.3736350  41.3971650  89.3185680  12.8233730  40.9566810
  89.0911330  13.6279500  42.2187460 104.2196110  17.6283580  38.2958290
 104.1095390  17.4739620  39.2340560 104.9803700  17.1004520  38.0533700
 102.5661830  13.5677710  44.7541290 103.2034050  14.1811850  45.1200480
 102.7136720  13.6038370  43.8090520 105.1086380  15.4591500  31.5364430
 106.0335690  15.3272680  31.3282720 105.0862170  15.5384320  32.4900880
 105.1824870  16.2302160  34.1621140 104.3876370  16.1647280  34.6914050
 105.3868150  17.1652800  34.1506490 102.1243290  30.2693710  38.1559530
 102.7202360  29.9478280  37.4793950 102.3821440  29.7965530  38.9472800
  88.4241490  13.5292020  44.1396970  88.0756310  13.9855840  44.9055150
  88.0929190  12.6349150  44.2219400  95.9366310  14.7203900  47.6616390
  95.8755200  15.3125730  48.4111800  96.8766690  14.6129860  47.5166650
  98.5740870  14.3773960  47.3008680  99.1881280  14.6953250  46.6389760
  99.1190430  13.8922550  47.9204540  89.0962130  13.0568220  47.4147740
  89.6445120  12.8756270  46.6513850  89.1617440  12.2662330  47.9504050
  99.3148910  12.9406100  43.6277970  98.4408750  13.2741210  43.4250900
  99.2059660  12.4679280  44.4529840 100.2220890  15.1476970  45.0119690
  99.8934250  14.3328730  44.6321420 101.1703190  15.1046780  44.8885380
  89.5006120  27.0132250  44.3755980  88.7740180  26.3937540  44.3081930
  89.5615270  27.4072860  43.5054060  93.1051220  29.2277250  41.1605390
  93.6216240  28.6164610  40.6353650  93.7548600  29.7306030  41.6516400
  97.0623730  13.8575940  42.5670880  96.2795520  14.3321440  42.8467640
  96.7686660  12.9530770  42.4584060 101.6144800  14.5599040  40.6119970
 102.0552890  14.5044140  39.7641570 101.3452390  15.4757050  40.6830150
 103.4783370  14.1914280  38.6228790 103.4171770  13.2475500  38.4759810
 104.2575400  14.2994370  39.1682250  87.7836120  30.3306640  37.5852740
  87.6158160  29.6977320  38.2834630  86.9170630  30.5366040  37.2346930
  88.4064140  14.1623420  35.0884600  89.1643500  14.2752300  34.5148630
  87.9441310  14.9992620  35.0428030  94.9477950  16.2762690  38.0786910
  94.1352460  15.9019580  37.7382790  95.4519590  15.5207770  38.3808100
  99.4502930  12.9405140  39.3169980 100.0532300  13.5125350  39.7918500
  98.7095920  13.5044580  39.0943880 102.5937530  13.3426700  34.5910260
 102.7888160  14.2410150  34.8577690 101.8067400  13.1113780  35.0843210
  89.3898820  29.0239870  35.0302880  88.8646440  29.4047900  34.3264840
  89.3143400  29.6490640  35.7512590  90.7789290  14.6887470  33.6286570
  91.3082050  13.9017270  33.4994520  91.4117610  15.3678660  33.8622100
  92.9727130  14.4262610  36.6831960  92.3429870  13.7249920  36.8502090
  92.4332270  15.1866740  36.4665120 104.1464140  30.5827410  36.3516820
 104.3216330  29.8965150  35.7077740 103.4485710  31.1074460  35.9593490
  93.0982690  13.7046590  49.1184450  92.8166960  14.2080190  48.3545270
  93.4802390  12.9068340  48.7526580  91.9891790  30.9722250  33.9052130
  92.7210610  30.6881530  33.3576020  92.2485460  30.7335530  34.7951510
  91.1506580  27.0886980  33.9098460  90.5215460  27.5572080  34.4584290
  91.2654410  26.2436200  34.3444650  99.6998150  13.1200170  49.6964920
  99.5863600  13.4394780  50.5916440 100.5167890  13.5212680  49.4002200
  98.6056300  21.1392640  20.0599660  98.5250350  20.2247250  19.7891370
  98.1920720  21.6359710  19.3539370  96.7374340  22.9171660  21.9408930
  95.9616440  22.4372100  22.2307500  97.3887270  22.2377310  21.7665090
  90.7540170  23.2291470  22.8184690  89.9225050  22.9740180  23.2181200
  91.3621150  23.3002240  23.5542610 100.7581770  27.3231850  20.7208060
 100.2963300  26.5519090  21.0495230 101.5707320  27.3497920  21.2260510
  90.7341430  27.2631560  23.0142710  91.0369470  26.3729300  22.8352930
  91.4785020  27.8201780  22.7864960  89.1632120  18.1893360  16.6027080
  88.2748820  18.5309330  16.5006960  89.4473310  17.9893680  15.7107910
  87.1265130  20.7899010  22.4866780  87.6981240  20.0221210  22.4870420
  87.1266670  21.0887770  21.5773390  96.9845080  29.6089860  20.3412050
  96.3656520  30.0647360  19.7706490  97.8396860  29.7641320  19.9401750
  96.1783330  25.5928850  21.9479090  96.1091610  24.6518790  21.7868220
  96.9403190  25.6830260  22.5201660  88.3690000  16.1983370  24.2735710
  88.1892840  15.3009120  24.5538470  87.9670080  16.7455240  24.9482660
  97.2088500  18.3999230  22.1748020  97.5853320  17.5271110  22.0621690
  97.1108010  18.7357930  21.2838460  91.3393510  16.7724860  17.6365460
  91.4460260  17.6728590  17.9434220  90.4285870  16.7242830  17.3460110
 100.9912620  15.8949670  19.1076360 101.8122240  15.4046240  19.1501840
 101.0246700  16.4847330  19.8608200  88.9876670  18.6943870  22.8818050
  89.6686780  18.9582240  23.5005450  88.6724720  17.8544740  23.2156060
  93.1801240  19.7411230  21.9690640  93.6879460  20.2392200  22.6095660
  93.7114480  18.9646430  21.7930000 105.2812170  17.9116420  25.6719990
 104.5764340  18.2998130  25.1535100 105.5470090  18.6066710  26.2740920
  91.4637340  14.3809790  26.2354060  91.4655780  14.8982180  25.4299960
  90.6341650  13.9039970  26.2123990  97.8508430  24.4929100  17.7343960
  97.2325700  24.9578550  17.1706680  98.3631680  25.1856580  18.1513470
  92.7140190  24.0204970  24.4127560  92.3809570  24.6473890  25.0548630
  92.8906870  24.5466850  23.6329230 101.2274100  17.8350050  21.8803900
 100.5229670  18.1234940  22.4607010 101.5886260  18.6450160  21.5203460
  91.1452670  16.0919750  24.2424510  91.4869480  16.9361800  23.9478380
  90.2068480  16.2403490  24.3589850  91.9259290  25.9885770  26.2276740
  92.5433290  26.6636850  25.9461190  91.0652410  26.3973750  26.1364240
  87.2191630  25.1785630  15.1083590  86.8419610  25.6672730  14.3768490
  87.4764700  25.8510910  15.7390120 102.8436880  27.4525180  24.1431380
 102.1600400  28.1224290  24.1348050 103.3831170  27.6505830  23.3776240
 104.2961020  17.2804840  22.2713110 103.3485930  17.3143820  22.4028540
 104.6211010  18.0943790  22.6562470  94.8280560  13.5802020  20.5669100
  95.1355540  13.0248910  19.8504600  93.8981260  13.7146480  20.3842090
 100.3795620  29.2969310  22.8576560 100.3922780  28.8931600  21.9898820
  99.8270840  30.0716600  22.7537990 101.6741040  26.0185530  17.9466730
 101.5637370  25.0759860  18.0716150 101.6709290  26.3801170  18.8329490
  99.7781060  24.1999150  24.1859170 100.1949850  23.9859260  23.3512630
 100.5020880  24.4571940  24.7567790  97.2161320  21.6450850  17.3029220
  96.2890600  21.5788230  17.5317690  97.3686140  22.5830980  17.1884460
  97.2030400  17.9167850  14.2996380  96.2634070  18.0781810  14.3848840
  97.5213660  18.6353530  13.7532370 103.7243160  22.5986370  24.2775410
 102.8961790  22.6679460  23.8025540 104.3193640  23.1840680  23.8091240
 101.2458610  23.2071150  17.8064470 100.6271030  22.8690700  17.1590770
 101.2283060  22.5630910  18.5143660 100.6885170  19.3855690  25.2230280
 100.2756350  20.2109400  25.4770270  99.9561120  18.8000730  25.0306640
  92.8217960  22.1715590  20.0848950  92.4174960  21.4592840  19.5894850
  92.9081080  21.8268830  20.9736990  93.2899660  25.8583150  22.2488160
  92.9927950  25.2528620  21.5695940  94.2399480  25.8960460  22.1377520
  91.5346580  18.9458800  23.8647990  92.0861170  19.0554140  23.0901240
  92.0490090  19.3196400  24.5803220 101.3785270  29.4315020  25.9111260
 100.9015830  30.2387210  25.7183870 100.6947060  28.7793350  26.0637470
  92.3818090  25.5964840  28.8995960  91.4846620  25.8204810  29.1469360
  92.4070960  25.7199780  27.9507360  99.4223310  22.4457960  14.8137220
  99.8616590  21.6080390  14.6675040 100.1351730  23.0787360  14.9001360
  91.2089310  22.4678160  27.4753330  91.0697080  23.3400960  27.8440730
  90.3270670  22.1250970  27.3301270  97.5318690  27.3854030  18.7818460
  97.9714600  28.1278360  18.3673850  97.4705580  27.6280600  19.7057420
  93.0069660  28.4099860  29.6838480  92.9785090  28.8142810  28.8166910
  92.8434630  27.4810220  29.5210080 103.0040450  13.7000770  13.1278260
 102.6913110  13.7927600  14.0277330 103.7652920  14.2781800  13.0775690
  89.5222590  21.0660570  17.5855600  89.4020190  21.7922660  16.9736870
  89.2123480  20.2963480  17.1083510 104.9584480  29.1926960  30.9802650
 105.4344200  29.6709850  31.6591730 105.5791640  29.1244450  30.2548150
  87.1607960  24.2375710  23.3924240  87.2388380  24.3724480  22.4479960
  87.7749640  23.5291600  23.5852360  88.4055590  25.9375900  19.8030420
  87.9983670  26.0790490  18.9484020  89.2968600  25.6536060  19.6001630
 104.3617730  26.3839810  28.1402660 104.4880790  26.1451690  27.2219840
 104.4039110  25.5524350  28.6124740  98.2234470  30.0867810  26.7097470
  98.7379140  29.9975820  27.5119900  97.3803550  30.4327510  27.0025380
 100.1988870  30.3723150  16.1381470 100.0390010  30.0826090  17.0363300
 100.0335580  29.5963280  15.6026700  92.6777250  30.1521680  17.9153090
  92.5019730  29.2357220  17.7020890  91.8232990  30.5108970  18.1550890
  99.9015000  27.8810710  14.6979470  99.2080160  27.8788000  14.0381750
 100.6437860  27.4570030  14.2673640  99.4664930  29.5073420  18.7727960
  99.9221880  28.7262800  19.0866580  99.8057450  30.2180240  19.3169140
 104.2141740  18.4372270  29.1052400 103.5986010  18.9451940  28.5767860
 103.8938160  17.5370600  29.0478340  87.2167480  25.2789880  25.9318700
  87.3798520  24.8095240  25.1138070  87.6819930  24.7713440  26.5967540
  91.9886250  14.4095640  20.9679270  91.5454400  15.1905180  20.6363790
  92.5471240  14.7325530  21.6750210  96.2756060  17.2764160  26.5714590
  95.8135430  17.4847180  27.3834530  95.8734170  16.4623510  26.2685260
 101.2760570  18.4973110  27.7011250 100.4254160  18.1978860  28.0220320
 101.1162360  18.7415120  26.7895070  98.3710280  19.9974860  29.8010040
  98.6963690  19.1638610  29.4612270  99.1590610  20.5203380  29.9488370
  95.1045070  14.0306340  15.8485100  94.4799250  14.0266210  16.5738410
  95.0175190  13.1637300  15.4521070  94.0262150  14.9542970  22.8268870
  94.3234480  15.8605800  22.7460890  94.5747710  14.4661750  22.2128440
  91.7800470  19.5329210  18.6960520  91.5541390  19.3166380  19.6007140
  90.9993000  19.9657670  18.3506490  99.0098230  19.5392580  17.2951170
  98.4107120  20.2628380  17.1114790  99.5577840  19.4769360  16.5127620
  94.2199680  20.4314790  29.3620790  94.1243280  19.4909520  29.2121190
  95.0631660  20.6529860  28.9668860  97.6163100  18.1756120  19.3254450
  98.0092670  18.4928320  18.5123140  97.9779950  17.2968000  19.4398970
  89.3510220  16.8428460  27.5154570  88.9573610  17.6903670  27.7227350
  88.6628620  16.2054830  27.7063210  95.9255270  16.9263430  30.5851310
  95.2353590  16.7335630  31.2197400  96.6687570  17.2098070  31.1175610
  86.6527270  14.7656920  21.5484650  86.3640320  15.3359780  22.2609630
  87.3973030  14.2861370  21.9115880  86.8397500  18.7077040  12.7587370
  86.7572170  19.6507800  12.9002360  86.4880560  18.5651950  11.8799720
  98.2018240  20.7661870  23.4205230  97.4699360  21.2748680  23.7695330
  97.8042580  19.9491850  23.1194010  94.6395630  17.4416070  21.8257720
  94.6431690  17.0006020  20.9762260  95.5346750  17.7633400  21.9329540
  90.4898010  17.3242560  20.7851930  90.1498060  17.8017790  21.5418980
  89.7275330  16.8707680  20.4253030  94.7015780  18.4428150  14.8164480
  94.8228600  18.4014630  15.7650300  94.3164290  19.3052300  14.6611210
  98.6644150  16.2195550  22.8328170  98.6816890  16.6704200  23.6770020
  98.4159730  15.3201190  23.0461610  93.7137280  20.7529290  14.2147780
  93.1454180  20.3047540  13.5883690  94.4226280  21.1122070  13.6812930
 102.0914900  13.6327730  28.6714550 102.4160670  12.9017390  29.1972530
 102.1271410  13.3141370  27.7695540  88.7906460  24.6541310  28.0914510
  88.4061250  24.0134980  28.6897470  89.1018650  25.3577430  28.6609240
  94.9403600  21.5017850  23.5723130  95.3073730  21.0276420  24.3184470
  94.7508660  22.3759420  23.9131470  87.8044090  16.2461540  19.7016600
  87.5191010  15.8817210  20.5395220  87.7422950  15.5142000  19.0879740
  92.7302970  20.5426490  25.8907340  92.4260040  21.4218470  26.1157700
  93.6849430  20.6026280  25.9264780  91.2584760  24.7487480  16.4874190
  90.4847020  24.2085100  16.3272910  91.9879390  24.2294090  16.1491950
 102.0172740  23.7452840  22.2800580 102.7371860  24.2408130  21.8896690
 101.8154560  23.0670730  21.6354450  97.4782680  15.1390800  16.4229970
  96.6647290  14.6403970  16.3475280  97.2844630  15.9789050  16.0066320
  97.3991540  23.8161900  28.1669580  97.3328850  22.8957570  27.9127170
  96.7696680  23.9137340  28.8814220 100.1931070  19.5110450  14.7192130
 101.0810690  19.8227680  14.5443470 100.1636160  18.6382700  14.3272710
  91.3022160  24.4167860  20.1253000  91.8200830  23.6136120  20.0709890
  90.8506180  24.3547000  20.9669830  96.1891660  25.6834140  15.3980300
  96.5307360  26.4276370  14.9023620  95.3604370  25.9965260  15.7605130
  88.7866700  21.3829230  27.0378700  88.4281640  22.0483080  27.6252040
  88.4921260  20.5512780  27.4091320  91.9879820  21.8413470  29.9218250
  91.6879960  21.9870650  29.0246070  92.7591060  21.2818760  29.8291640
  97.3308270  26.6382470  27.9173380  97.3452810  25.7063430  27.6992290
  96.6233370  26.7242230  28.5563150 102.4645340  20.8222290  14.1871990
 102.3809060  21.2536510  13.3368430 103.1839530  21.2820640  14.6198810
 103.5419480  23.2789810  27.2641960 102.8167670  23.8718590  27.0671350
 104.0694940  23.2713350  26.4655330 103.4932590  27.6764550  16.9154120
 102.8508750  27.0220170  17.1897840 103.1063250  28.0819640  16.1394790
  99.0719070  25.0049980  20.7625810  99.4242890  24.4078110  20.1027180
  98.1881400  24.6794210  20.9334060  95.1582350  25.7647670  18.1696220
  95.8453480  26.3116880  18.5503810  94.3714770  26.3088400  18.2045830
  87.2974750  21.3820490  13.6613300  88.1669600  21.6645290  13.9449220
  86.8065070  22.1956360  13.5462110  94.4609560  22.7693700  17.7821580
  94.9172340  23.5798950  18.0081770  94.1097770  22.4516840  18.6140070
  96.7642170  28.2800040  25.0113880  97.4084390  28.4859420  25.6887300
  97.1271610  27.5188440  24.5584730  90.3621340  13.1131350  18.2544100
  90.2335970  13.1049250  19.2029020  89.5383360  13.4514440  17.9035110
  98.0374250  26.2832390  23.7291330  98.6796480  25.5825550  23.8423500
  98.5623600  27.0630830  23.5488220 101.8829970  26.5681010  13.4530470
 101.6567550  25.8511450  14.0455110 101.4926170  26.3193450  12.6152220
  99.8111870  27.0827290  26.9327390 100.1468110  27.6693980  27.6105310
  98.8912210  26.9520000  27.1625180  87.6646000  30.5947870  14.2274930
  88.0243640  31.1937210  13.5732200  87.5238340  31.1407760  15.0009960
  87.3615270  14.8722470  27.7150800  86.6473790  15.0719390  28.3203410
  87.7810310  14.0962040  28.0865600 101.4646220  24.4852950  15.1144630
 101.1767920  24.9465640  15.9022510 102.2598390  24.0250720  15.3828850
  87.6487860  28.8602730  28.7017330  87.7578980  27.9197470  28.5612720
  86.9968420  29.1257480  28.0531060  95.6400450  27.1318620  30.1015450
  95.3197320  26.4127860  30.6461140  94.9658810  27.8073690  30.1751510
  93.6814620  27.9779070  15.0448600  93.6724720  28.7108760  14.4293110
  92.7612980  27.7310650  15.1375560  89.2821260  23.1993960  15.7895360
  88.6749210  23.9392860  15.7990660  89.7570610  23.2893320  14.9633560
  98.8554050  17.3644780  25.4652250  99.2234870  16.5439990  25.7931820
  97.9952250  17.4246670  25.8807900 102.2216080  16.3201720  16.2739810
 101.5929240  16.4247390  15.5598040 101.7268000  16.5398500  17.0633690
  96.6674220  28.0407310  13.7073790  96.7686200  27.8371300  12.7775770
  95.7675960  27.7865590  13.9121570  94.1900110  18.5987670  17.6897690
  93.4816260  19.0674010  18.1311300  94.4744590  17.9409680  18.3242880
  95.8156040  20.0184370  25.6890220  96.3141290  20.4930190  26.3542070
  95.9578990  19.0947890  25.8960250  98.2215540  15.3238330  19.1293480
  98.0983320  15.3424460  18.1802990  99.1700100  15.3717270  19.2491880
  95.3092330  30.5593630  18.4021460  95.5633830  30.5215020  17.4800830
  94.3604810  30.4326960  18.3949710  92.3935130  16.9072750  15.0648400
  93.2425660  17.3442900  14.9988590  92.0266400  17.2193010  15.8920460
 103.0222900  16.2352330  26.5318610 102.5196500  16.9757730  26.8712420
 103.8379560  16.6236330  26.2155400 101.3144910  21.4785510  19.9779970
 100.3735050  21.4935740  20.1527660 101.6288980  20.6921470  20.4240270
  91.2926550  23.1605110  13.5383930  92.0589820  23.0486470  14.1009360
  91.3701240  22.4643080  12.8860700  89.9873310  20.5930180  14.2216820
  90.0676900  19.6457690  14.3334220  90.8793060  20.9237060  14.3277480
 103.3170490  28.6494360  21.6534230 103.4417910  29.4725530  22.1258040
 104.1836050  28.4385090  21.3058380  90.7888020  30.7425570  21.3251360
  91.5250500  30.1941030  21.5959930  91.1728940  31.6081580  21.1857350
  87.6733500  26.8099140  17.1992870  86.7473280  27.0520280  17.1898280
  88.1389930  27.6373400  17.0777620  89.7946300  29.9271640  30.5136940
  90.5959030  30.2483690  30.9272340  89.2798120  29.5667220  31.2356850
  93.8990330  29.9155880  13.1476930  94.6918940  30.2044710  12.6958720
  93.3794680  29.4848050  12.4689410  98.6310930  26.0351510  30.4612350
  98.0249090  26.0583110  29.7208100  98.3265040  25.3034550  30.9979600
 100.0611300  29.7631800  29.0721760 101.0133050  29.6789820  29.0222000
  99.9139520  30.4273510  29.7455550 102.9520500  29.1426010  14.5713670
 102.6662010  28.7291150  13.7567850 102.7540050  30.0713720  14.4514190
  87.5144110  22.4145100  29.4572990  88.0183130  21.8352380  30.0289220
  86.7751530  22.6985330  29.9949360  94.4167730  25.1359290  13.0119280
  94.3118370  24.5211640  13.7380660  94.2491950  24.6125180  12.2282290
  94.5682050  23.8216090  28.9908510  93.8027720  24.3901090  28.9063180
  94.7498010  23.5292300  28.0976740  97.6570460  24.1979320  13.6161270
  97.1080560  24.6448620  14.2604010  98.2789720  23.6928570  14.1398940
 101.7105400  25.5521420  29.5483530 102.4514870  25.8897180  29.0450990
 100.9478080  25.7213480  28.9953300  89.5467190  20.5574690  30.3523060
  89.5872530  20.2588560  31.2608290  90.4012690  20.9582300  30.1930580
  93.3245580  23.1570240  15.5126570  93.7462000  22.9910110  16.3557960
  93.4496420  22.3470470  15.0181710  91.4873000  19.1366790  28.3197550
  90.9569460  18.6457740  27.6920890  92.1561070  19.5650990  27.7855480
  95.8373220  22.1807850  12.7603670  96.3578880  21.4656870  12.3944820
  96.4841620  22.8193720  13.0604180 100.3851060  23.6036250  28.0838740
 100.7992080  23.7581330  28.9329160  99.4502060  23.7291470  28.2464520
 100.8573230  20.9432410  30.0877890 101.4394000  20.1884730  29.9998370
 101.0335000  21.4739850  29.3109370  91.9745300  16.1029160  28.3994840
  91.8802170  15.4849910  27.6745710  91.3942690  16.8295450  28.1724750
  94.7406740  14.6602400  25.4322230  94.2924040  14.6826660  24.5867780
  94.1071940  14.2621420  26.0292530  95.1466290  23.5556730  26.0534670
  95.5654400  24.3989460  25.8810910  94.2274920  23.6928770  25.8241450
  97.4830190  21.2872910  27.4372510  97.6026400  20.6914050  28.1767350
  98.3424190  21.3242600  27.0173810  99.8218090  21.8410100  26.0135020
  99.2953310  22.3652720  25.4100160 100.1649430  22.4737490  26.6444750
  92.2204480  19.2303470  12.4584730  92.0193540  18.3670830  12.8198070
  92.0496530  19.1436830  11.5206330  92.9973710  29.8609740  27.1692400
  92.4594800  30.5855800  26.8501100  93.2507670  29.3840080  26.3789740
  94.2498960  17.8294260  28.6948330  94.8398650  17.5210110  29.3826150
  93.4319200  17.3574010  28.8508230  99.0692390  17.4460070  28.9281350
  98.3807910  16.7841610  28.8631340  99.7898410  16.9998340  29.3729810
  99.6992790  14.0411700  14.9871610  99.9795080  13.1979600  15.3431030
  98.9258520  14.2734810  15.5010360  91.0187280  16.3304090  12.4462610
  91.3213180  16.3371520  11.5381760  91.7581870  15.9801950  12.9430270
  95.8535920  31.0960950  27.4279050  95.7794620  31.9996090  27.7351420
  94.9514760  30.7772850  27.4001120  94.2372210  15.2738710  13.4318810
  93.8894210  14.5962700  12.8521260  94.4384980  14.8128220  14.2462200
  96.4021250  30.2619460  15.0505410  97.2972040  30.6004430  15.0724170
  96.4338880  29.5398870  14.4229690  90.0417410  25.6346510  13.2792410
  90.4792280  26.1776180  13.9349990  90.5265140  24.8093460  13.2888750
  87.2563210  28.4235540  20.7312670  87.5866220  27.5556600  20.4991310
  87.6854210  28.6294060  21.5617630  91.8525130  26.7544550  18.3914640
  91.5520670  26.6309520  19.2918550  91.7462620  25.8953140  17.9830370
  87.7453420  29.2906130  23.4694300  87.3084410  29.4706930  24.3018450
  88.3131100  30.0480750  23.3276020 103.3815600  28.7923130  27.7571610
 102.7817590  28.8515690  27.0135530 103.5109500  27.8528110  27.8868460
 104.6217050  26.5340950  13.0941320 103.7910010  26.6017600  13.5648550
 104.7988880  27.4245070  12.7908180 104.0773510  23.2788430  15.5975520
 104.8392420  23.8485080  15.7035210 104.0927880  22.7115630  16.3683830
  87.5777850  21.8026360  19.8283180  86.9226690  21.5338000  19.1842880
  88.4155800  21.6930840  19.3785160 105.0833480  24.1338530  20.4417450
 105.4542310  23.3505850  20.0353420 105.7235410  24.8227630  20.2634750
 102.0667240  25.5175110  25.8547770 101.2527080  25.9472270  26.1173560
 102.4741440  26.1293520  25.2416820 104.1292680  23.5722800  12.7548040
 104.4041520  24.4801680  12.6267260 103.9403420  23.5085330  13.6910030
 100.5268290  16.5967650  14.0501670 100.9453170  16.4098630  13.2098330
 100.2204350  15.7446700  14.3604600 104.0258020  21.5091790  17.7477470
 103.6501620  20.7419720  17.3158760 103.2961140  21.8914490  18.2352400
  88.6153780  22.1878930  24.3686520  88.9826820  22.1006330  25.2482540
  88.0464600  21.4245480  24.2693380 103.4157640  20.6563310  27.3816990
 103.1843730  20.4276060  26.4814940 103.6762190  21.5762860  27.3361880
  88.1669780  19.0988020  28.2744940  87.2725830  19.0654780  28.6138650
  88.7067330  19.2974810  29.0396190 101.8545710  15.8819740  30.1596690
 102.7315890  15.8903140  30.5430690 101.8666550  15.1450580  29.5489040
  86.7915930  19.0125290  15.7708510  85.8880010  19.2755490  15.5960170
  87.2756550  19.2836460  14.9908470 103.3008980  19.7349280  21.0484710
 103.8246460  19.2411930  20.4174880 103.8868400  19.8699640  21.7932280
 103.4798700  19.8189150  24.5704260 102.5301410  19.7852690  24.6849250
 103.6611710  20.7289260  24.3354030  89.3343140  18.0690830  13.6802890
  90.0434840  17.6474050  13.1950170  88.6183080  18.1366060  13.0486240
  88.9817300  14.1230160  12.7205540  89.7045430  14.6639100  13.0386760
  89.2541820  13.8493580  11.8447080 102.7908950  18.9922630  16.9877120
 103.2868070  18.7593500  17.7726000 102.5925020  18.1534470  16.5714760
  88.6709490  13.3736350  22.6228160  89.3185680  12.8233730  22.1823320
  89.0911330  13.6279500  23.4443970 104.2196110  17.6283580  19.5214800
 104.1095390  17.4739620  20.4597070 104.9803700  17.1004520  19.2790210
 102.5661830  13.5677710  25.9797800 103.2034050  14.1811850  26.3456990
 102.7136720  13.6038370  25.0347030 105.1086380  15.4591500  12.7620940
 106.0335690  15.3272680  12.5539230 105.0862170  15.5384320  13.7157390
 105.1824870  16.2302160  15.3877650 104.3876370  16.1647280  15.9170560
 105.3868150  17.1652800  15.3763000 102.1243290  30.2693710  19.3816040
 102.7202360  29.9478280  18.7050460 102.3821440  29.7965530  20.1729310
  88.4241490  13.5292020  25.3653480  88.0756310  13.9855840  26.1311660
  88.0929190  12.6349150  25.4475910  90.0305860  26.7011620  29.5306670
  89.9875490  26.3304530  30.4121130  90.1616870  27.6389190  29.6708490
  93.7311890  28.2571210  25.1316390  93.4903250  28.5245770  24.2446910
  94.6714530  28.4276940  25.1867250  95.9366310  14.7203900  28.8872900
  95.8755200  15.3125730  29.6368310  96.8766690  14.6129860  28.7423160
  98.5740870  14.3773960  28.5265190  99.1881280  14.6953250  27.8646270
  99.1190430  13.8922550  29.1461050 104.9916050  30.2765590  25.9327030
 104.4974330  30.6734460  25.2154160 104.3829340  29.6514800  26.3264310
  89.0962130  13.0568220  28.6404250  89.6445120  12.8756270  27.8770360
  89.1617440  12.2662330  29.1760560  89.8693890  29.6473870  26.6504450
  89.2754210  29.5158570  27.3894490  89.8617730  28.8112010  26.1846550
  99.3148910  12.9406100  24.8534480  98.4408750  13.2741210  24.6507410
  99.2059660  12.4679280  25.6786350 100.2220890  15.1476970  26.2376200
  99.8934250  14.3328730  25.8577930 101.1703190  15.1046780  26.1141890
 102.6755500  30.9189010  23.2113770 102.2158470  31.6704820  22.8371790
 102.0467960  30.1995480  23.1528570  89.5006120  27.0132250  25.6012490
  88.7740180  26.3937540  25.5338440  89.5615270  27.4072860  24.7310570
  93.1051220  29.2277250  22.3861900  93.6216240  28.6164610  21.8610160
  93.7548600  29.7306030  22.8772910  95.8446720  30.1185740  23.2130880
  96.1324530  29.8640040  22.3363890  96.3569940  29.5663100  23.8036450
  97.0623730  13.8575940  23.7927390  96.2795520  14.3321440  24.0724150
  96.7686660  12.9530770  23.6840570 101.6144800  14.5599040  21.8376480
 102.0552890  14.5044140  20.9898080 101.3452390  15.4757050  21.9086660
 103.4783370  14.1914280  19.8485300 103.4171770  13.2475500  19.7016320
 104.2575400  14.2994370  20.3938760  87.7836120  30.3306640  18.8109250
  87.6158160  29.6977320  19.5091140  86.9170630  30.5366040  18.4603440
  88.4064140  14.1623420  16.3141110  89.1643500  14.2752300  15.7405140
  87.9441310  14.9992620  16.2684540  94.9477950  16.2762690  19.3043420
  94.1352460  15.9019580  18.9639300  95.4519590  15.5207770  19.6064610
  99.4502930  12.9405140  20.5426490 100.0532300  13.5125350  21.0175010
  98.7095920  13.5044580  20.3200390 102.5937530  13.3426700  15.8166770
 102.7888160  14.2410150  16.0834200 101.8067400  13.1113780  16.3099720
  89.3898820  29.0239870  16.2559390  88.8646440  29.4047900  15.5521350
  89.3143400  29.6490640  16.9769100  90.7789290  14.6887470  14.8543080
  91.3082050  13.9017270  14.7251030  91.4117610  15.3678660  15.0878610
  92.9727130  14.4262610  17.9088470  92.3429870  13.7249920  18.0758600
  92.4332270  15.1866740  17.6921630  95.9119080  31.0401840  30.5799080
  96.8386390  30.8046110  30.6235040  95.8969510  31.8673840  30.0985110
 104.1464140  30.5827410  17.5773330 104.3216330  29.8965150  16.9334250
 103.4485710  31.1074460  17.1850000  93.0982690  13.7046590  30.3440960
  92.8166960  14.2080190  29.5801780  93.4802390  12.9068340  29.9783090
  91.9891790  30.9722250  15.1308640  92.7210610  30.6881530  14.5832530
  92.2485460  30.7335530  16.0208020  91.1506580  27.0886980  15.1354970
  90.5215460  27.5572080  15.6840800  91.2654410  26.2436200  15.5701160
  99.6998150  13.1200170  30.9221430  99.5863600  13.4394780  31.8172950
 100.5167890  13.5212680  30.6258710 102.4796640  30.2671700  30.4040120
 103.2721960  29.7720930  30.1966080 102.7729790  30.9461840  31.0115730
  96.7374340  22.9171660   3.1665440  95.9616440  22.4372100   3.4564010
  97.3887270  22.2377310   2.9921600  90.7540170  23.2291470   4.0441200
  89.9225050  22.9740180   4.4437710  91.3621150  23.3002240   4.7799120
 100.7581770  27.3231850   1.9464570 100.2963300  26.5519090   2.2751740
 101.5707320  27.3497920   2.4517020  90.7341430  27.2631560   4.2399220
  91.0369470  26.3729300   4.0609440  91.4785020  27.8201780   4.0121470
  87.1265130  20.7899010   3.7123290  87.6981240  20.0221210   3.7126930
  87.1266670  21.0887770   2.8029900  96.1783330  25.5928850   3.1735600
  96.1091610  24.6518790   3.0124730  96.9403190  25.6830260   3.7458170
  88.3690000  16.1983370   5.4992220  88.1892840  15.3009120   5.7794980
  87.9670080  16.7455240   6.1739170  97.2088500  18.3999230   3.4004530
  97.5853320  17.5271110   3.2878200  97.1108010  18.7357930   2.5094970
  88.9876670  18.6943870   4.1074560  89.6686780  18.9582240   4.7261960
  88.6724720  17.8544740   4.4412570  93.1801240  19.7411230   3.1947150
  93.6879460  20.2392200   3.8352170  93.7114480  18.9646430   3.0186510
 105.2812170  17.9116420   6.8976500 104.5764340  18.2998130   6.3791610
 105.5470090  18.6066710   7.4997430  91.4637340  14.3809790   7.4610570
  91.4655780  14.8982180   6.6556470  90.6341650  13.9039970   7.4380500
  92.7140190  24.0204970   5.6384070  92.3809570  24.6473890   6.2805140
  92.8906870  24.5466850   4.8585740 101.2274100  17.8350050   3.1060410
 100.5229670  18.1234940   3.6863520 101.5886260  18.6450160   2.7459970
  91.1452670  16.0919750   5.4681020  91.4869480  16.9361800   5.1734890
  90.2068480  16.2403490   5.5846360  91.9259290  25.9885770   7.4533250
  92.5433290  26.6636850   7.1717700  91.0652410  26.3973750   7.3620750
 102.8436880  27.4525180   5.3687890 102.1600400  28.1224290   5.3604560
 103.3831170  27.6505830   4.6032750 104.2961020  17.2804840   3.4969620
 103.3485930  17.3143820   3.6285050 104.6211010  18.0943790   3.8818980
 100.3795620  29.2969310   4.0833070 100.3922780  28.8931600   3.2155330
  99.8270840  30.0716600   3.9794500  99.7781060  24.1999150   5.4115680
 100.1949850  23.9859260   4.5769140 100.5020880  24.4571940   5.9824300
 103.7243160  22.5986370   5.5031920 102.8961790  22.6679460   5.0282050
 104.3193640  23.1840680   5.0347750 100.6885170  19.3855690   6.4486790
 100.2756350  20.2109400   6.7026780  99.9561120  18.8000730   6.2563150
  93.2899660  25.8583150   3.4744670  92.9927950  25.2528620   2.7952450
  94.2399480  25.8960460   3.3634030  91.5346580  18.9458800   5.0904500
  92.0861170  19.0554140   4.3157750  92.0490090  19.3196400   5.8059730
 101.3785270  29.4315020   7.1367770 100.9015830  30.2387210   6.9440380
 100.6947060  28.7793350   7.2893980  92.3818090  25.5964840  10.1252470
  91.4846620  25.8204810  10.3725870  92.4070960  25.7199780   9.1763870
  91.2089310  22.4678160   8.7009840  91.0697080  23.3400960   9.0697240
  90.3270670  22.1250970   8.5557780  93.0069660  28.4099860  10.9094990
  92.9785090  28.8142810  10.0423420  92.8434630  27.4810220  10.7466590
 104.9584480  29.1926960  12.2059160 105.4344200  29.6709850  12.8848240
 105.5791640  29.1244450  11.4804660  87.1607960  24.2375710   4.6180750
  87.2388380  24.3724480   3.6736470  87.7749640  23.5291600   4.8108870
 104.3617730  26.3839810   9.3659170 104.4880790  26.1451690   8.4476350
 104.4039110  25.5524350   9.8381250  98.2234470  30.0867810   7.9353980
  98.7379140  29.9975820   8.7376410  97.3803550  30.4327510   8.2281890
 104.2141740  18.4372270  10.3308910 103.5986010  18.9451940   9.8024370
 103.8938160  17.5370600  10.2734850  87.2167480  25.2789880   7.1575210
  87.3798520  24.8095240   6.3394580  87.6819930  24.7713440   7.8224050
  91.9886250  14.4095640   2.1935780  91.5454400  15.1905180   1.8620300
  92.5471240  14.7325530   2.9006720  96.2756060  17.2764160   7.7971100
  95.8135430  17.4847180   8.6091040  95.8734170  16.4623510   7.4941770
 101.2760570  18.4973110   8.9267760 100.4254160  18.1978860   9.2476830
 101.1162360  18.7415120   8.0151580  98.3710280  19.9974860  11.0266550
  98.6963690  19.1638610  10.6868780  99.1590610  20.5203380  11.1744880
  94.0262150  14.9542970   4.0525380  94.3234480  15.8605800   3.9717400
  94.5747710  14.4661750   3.4384950  94.2199680  20.4314790  10.5877300
  94.1243280  19.4909520  10.4377700  95.0631660  20.6529860  10.1925370
  89.3510220  16.8428460   8.7411080  88.9573610  17.6903670   8.9483860
  88.6628620  16.2054830   8.9319720  95.9255270  16.9263430  11.8107820
  95.2353590  16.7335630  12.4453910  96.6687570  17.2098070  12.3432120
  86.6527270  14.7656920   2.7741160  86.3640320  15.3359780   3.4866140
  87.3973030  14.2861370   3.1372390  98.2018240  20.7661870   4.6461740
  97.4699360  21.2748680   4.9951840  97.8042580  19.9491850   4.3450520
  94.6395630  17.4416070   3.0514230  94.6431690  17.0006020   2.2018770
  95.5346750  17.7633400   3.1586050  90.4898010  17.3242560   2.0108440
  90.1498060  17.8017790   2.7675490  89.7275330  16.8707680   1.6509540
  98.6644150  16.2195550   4.0584680  98.6816890  16.6704200   4.9026530
  98.4159730  15.3201190   4.2718120 102.0914900  13.6327730   9.8971060
 102.4160670  12.9017390  10.4229040 102.1271410  13.3141370   8.9952050
  88.7906460  24.6541310   9.3171020  88.4061250  24.0134980   9.9153980
  89.1018650  25.3577430   9.8865750  94.9403600  21.5017850   4.7979640
  95.3073730  21.0276420   5.5440980  94.7508660  22.3759420   5.1387980
  92.7302970  20.5426490   7.1163850  92.4260040  21.4218470   7.3414210
  93.6849430  20.6026280   7.1521290 102.0172740  23.7452840   3.5057090
 102.7371860  24.2408130   3.1153200 101.8154560  23.0670730   2.8610960
  97.3991540  23.8161900   9.3926090  97.3328850  22.8957570   9.1383680
  96.7696680  23.9137340  10.1070730  88.7866700  21.3829230   8.2635210
  88.4281640  22.0483080   8.8508550  88.4921260  20.5512780   8.6347830
  91.9879820  21.8413470  11.1474760  91.6879960  21.9870650  10.2502580
  92.7591060  21.2818760  11.0548150  97.3308270  26.6382470   9.1429890
  97.3452810  25.7063430   8.9248800  96.6233370  26.7242230   9.7819660
 103.5419480  23.2789810   8.4898470 102.8167670  23.8718590   8.2927860
 104.0694940  23.2713350   7.6911840  96.7642170  28.2800040   6.2370390
  97.4084390  28.4859420   6.9143810  97.1271610  27.5188440   5.7841240
  98.0374250  26.2832390   4.9547840  98.6796480  25.5825550   5.0680010
  98.5623600  27.0630830   4.7744730  99.8111870  27.0827290   8.1583900
 100.1468110  27.6693980   8.8361820  98.8912210  26.9520000   8.3881690
  87.3615270  14.8722470   8.9407310  86.6473790  15.0719390   9.5459920
  87.7810310  14.0962040   9.3122110  87.6487860  28.8602730   9.9273840
  87.7578980  27.9197470   9.7869230  86.9968420  29.1257480   9.2787570
  95.6400450  27.1318620  11.3271960  95.3197320  26.4127860  11.8717650
  94.9658810  27.8073690  11.4008020  98.8554050  17.3644780   6.6908760
  99.2234870  16.5439990   7.0188330  97.9952250  17.4246670   7.1064410
  95.8156040  20.0184370   6.9146730  96.3141290  20.4930190   7.5798580
  95.9578990  19.0947890   7.1216760 103.0222900  16.2352330   7.7575120
 102.5196500  16.9757730   8.0968930 103.8379560  16.6236330   7.4411910
 103.3170490  28.6494360   2.8790740 103.4417910  29.4725530   3.3514550
 104.1836050  28.4385090   2.5314890  90.7888020  30.7425570   2.5507870
  91.5250500  30.1941030   2.8216440  91.1728940  31.6081580   2.4113860
  89.7946300  29.9271640  11.7393450  90.5959030  30.2483690  12.1528850
  89.2798120  29.5667220  12.4613360  98.6310930  26.0351510  11.6868860
  98.0249090  26.0583110  10.9464610  98.3265040  25.3034550  12.2236110
 100.0611300  29.7631800  10.2978270 101.0133050  29.6789820  10.2478510
  99.9139520  30.4273510  10.9712060  87.5144110  22.4145100  10.6829500
  88.0183130  21.8352380  11.2545730  86.7751530  22.6985330  11.2205870
  94.5682050  23.8216090  10.2165020  93.8027720  24.3901090  10.1319690
  94.7498010  23.5292300   9.3233250 101.7105400  25.5521420  10.7740040
 102.4514870  25.8897180  10.2707500 100.9478080  25.7213480  10.2209810
  89.5467190  20.5574690  11.5779570  89.5872530  20.2588560  12.4864800
  90.4012690  20.9582300  11.4187090  91.4873000  19.1366790   9.5454060
  90.9569460  18.6457740   8.9177400  92.1561070  19.5650990   9.0111990
 100.3851060  23.6036250   9.3095250 100.7992080  23.7581330  10.1585670
  99.4502060  23.7291470   9.4721030 100.8573230  20.9432410  11.3134400
 101.4394000  20.1884730  11.2254880 101.0335000  21.4739850  10.5365880
  91.9745300  16.1029160   9.6251350  91.8802170  15.4849910   8.9002220
  91.3942690  16.8295450   9.3981260  94.7406740  14.6602400   6.6578740
  94.2924040  14.6826660   5.8124290  94.1071940  14.2621420   7.2549040
  95.1466290  23.5556730   7.2791180  95.5654400  24.3989460   7.1067420
  94.2274920  23.6928770   7.0497960  97.4830190  21.2872910   8.6629020
  97.6026400  20.6914050   9.4023860  98.3424190  21.3242600   8.2430320
  99.8218090  21.8410100   7.2391530  99.2953310  22.3652720   6.6356670
 100.1649430  22.4737490   7.8701260  92.9973710  29.8609740   8.3948910
  92.4594800  30.5855800   8.0757610  93.2507670  29.3840080   7.6046250
  94.2498960  17.8294260   9.9204840  94.8398650  17.5210110  10.6082660
  93.4319200  17.3574010  10.0764740  99.0692390  17.4460070  10.1537860
  98.3807910  16.7841610  10.0887850  99.7898410  16.9998340  10.5986320
  95.8535920  31.0960950   8.6535560  95.7794620  31.9996090   8.9607930
  94.9514760  30.7772850   8.6257630  87.2563210  28.4235540   1.9569180
  87.5866220  27.5556600   1.7247820  87.6854210  28.6294060   2.7874140
  87.7453420  29.2906130   4.6950810  87.3084410  29.4706930   5.5274960
  88.3131100  30.0480750   4.5532530 103.3815600  28.7923130   8.9828120
 102.7817590  28.8515690   8.2392040 103.5109500  27.8528110   9.1124970
 102.0667240  25.5175110   7.0804280 101.2527080  25.9472270   7.3430070
 102.4741440  26.1293520   6.4673330  88.6153780  22.1878930   5.5943030
  88.9826820  22.1006330   6.4739050  88.0464600  21.4245480   5.4949890
 103.4157640  20.6563310   8.6073500 103.1843730  20.4276060   7.7071450
 103.6762190  21.5762860   8.5618390  88.1669780  19.0988020   9.5001450
  87.2725830  19.0654780   9.8395160  88.7067330  19.2974810  10.2652700
 101.8545710  15.8819740  11.3853200 102.7315890  15.8903140  11.7687200
 101.8666550  15.1450580  10.7745550 103.3008980  19.7349280   2.2741220
 103.8246460  19.2411930   1.6431390 103.8868400  19.8699640   3.0188790
 103.4798700  19.8189150   5.7960770 102.5301410  19.7852690   5.9105760
 103.6611710  20.7289260   5.5610540  88.6709490  13.3736350   3.8484670
  89.3185680  12.8233730   3.4079830  89.0911330  13.6279500   4.6700480
 102.5661830  13.5677710   7.2054310 103.2034050  14.1811850   7.5713500
 102.7136720  13.6038370   6.2603540  88.4241490  13.5292020   6.5909990
  88.0756310  13.9855840   7.3568170  88.0929190  12.6349150   6.6732420
  90.0305860  26.7011620  10.7563180  89.9875490  26.3304530  11.6377640
  90.1616870  27.6389190  10.8965000  93.7311890  28.2571210   6.3572900
  93.4903250  28.5245770   5.4703420  94.6714530  28.4276940   6.4123760
  95.9366310  14.7203900  10.1129410  95.8755200  15.3125730  10.8624820
  96.8766690  14.6129860   9.9679670  98.5740870  14.3773960   9.7521700
  99.1881280  14.6953250   9.0902780  99.1190430  13.8922550  10.3717560
 104.9916050  30.2765590   7.1583540 104.4974330  30.6734460   6.4410670
 104.3829340  29.6514800   7.5520820  89.0962130  13.0568220   9.8660760
  89.6445120  12.8756270   9.1026870  89.1617440  12.2662330  10.4017070
  89.8693890  29.6473870   7.8760960  89.2754210  29.5158570   8.6151000
  89.8617730  28.8112010   7.4103060  99.3148910  12.9406100   6.0790990
  98.4408750  13.2741210   5.8763920  99.2059660  12.4679280   6.9042860
 100.2220890  15.1476970   7.4632710  99.8934250  14.3328730   7.0834440
 101.1703190  15.1046780   7.3398400 102.6755500  30.9189010   4.4370280
 102.2158470  31.6704820   4.0628300 102.0467960  30.1995480   4.3785080
  89.5006120  27.0132250   6.8269000  88.7740180  26.3937540   6.7594950
  89.5615270  27.4072860   5.9567080  93.1051220  29.2277250   3.6118410
  93.6216240  28.6164610   3.0866670  93.7548600  29.7306030   4.1029420
  95.8446720  30.1185740   4.4387390  96.1324530  29.8640040   3.5620400
  96.3569940  29.5663100   5.0292960  97.0623730  13.8575940   5.0183900
  96.2795520  14.3321440   5.2980660  96.7686660  12.9530770   4.9097080
 101.6144800  14.5599040   3.0632990 102.0552890  14.5044140   2.2154590
 101.3452390  15.4757050   3.1343170  99.4502930  12.9405140   1.7683000
 100.0532300  13.5125350   2.2431520  98.7095920  13.5044580   1.5456900
  95.9119080  31.0401840  11.8055590  96.8386390  30.8046110  11.8491550
  95.8969510  31.8673840  11.3241620  93.0982690  13.7046590  11.5697470
  92.8166960  14.2080190  10.8058290  93.4802390  12.9068340  11.2039600
  99.6998150  13.1200170  12.1477940  99.5863600  13.4394780  13.0429460
 100.5167890  13.5212680  11.8515220 102.4796640  30.2671700  11.6296630
 103.2721960  29.7720930  11.4222590 102.7729790  30.9461840  12.2372240
  96.7374340   4.1428170 153.3613360  95.9616440   3.6628610 153.6511930
  97.3887270   3.4633820 153.1869520 100.7581770   8.5488360 152.1412490
 100.2963300   7.7775600 152.4699660 101.5707320   8.5754430 152.6464940
  90.7341430   8.4888070 154.4347140  91.0369470   7.5985810 154.2557360
  91.4785020   9.0458290 154.2069390  96.9845080  10.8346370 151.7616480
  96.3656520  11.2903870 151.1910920  97.8396860  10.9897830 151.3606180
  96.1783330   6.8185360 153.3683520  96.1091610   5.8775300 153.2072650
  96.9403190   6.9086770 153.9406090  97.8508430   5.7185610 149.1548390
  97.2325700   6.1835060 148.5911110  98.3631680   6.4113090 149.5717900
  87.2191630   6.4042140 146.5288020  86.8419610   6.8929240 145.7972920
  87.4764700   7.0767420 147.1594550 100.3795620  10.5225820 154.2780990
 100.3922780  10.1188110 153.4103250  99.8270840  11.2973110 154.1742420
 101.6741040   7.2442040 149.3671160 101.5637370   6.3016370 149.4920580
 101.6709290   7.6057680 150.2533920  97.2161320   2.8707360 148.7233650
  96.2890600   2.8044740 148.9522120  97.3686140   3.8087490 148.6088890
 101.2458610   4.4327660 149.2268900 100.6271030   4.0947210 148.5795200
 101.2283060   3.7887420 149.9348090  92.8217960   3.3972100 151.5053380
  92.4174960   2.6849350 151.0099280  92.9081080   3.0525340 152.3941420
  93.2899660   7.0839660 153.6692590  92.9927950   6.4785130 152.9900370
  94.2399480   7.1216970 153.5581950  99.4223310   3.6714470 146.2341650
  99.8616590   2.8336900 146.0879470 100.1351730   4.3043870 146.3205790
  97.5318690   8.6110540 150.2022890  97.9714600   9.3534870 149.7878280
  97.4705580   8.8537110 151.1261850  88.4055590   7.1632410 151.2234850
  87.9983670   7.3047000 150.3688450  89.2968600   6.8792570 151.0206060
 100.1988870  11.5979660 147.5585900 100.0390010  11.3082600 148.4567730
 100.0335580  10.8219790 147.0231130  92.6777250  11.3778190 149.3357520
  92.5019730  10.4613730 149.1225320  91.8232990  11.7365480 149.5755320
  99.9015000   9.1067220 146.1183900  99.2080160   9.1044510 145.4586180
 100.6437860   8.6826540 145.6878070  99.4664930  10.7329930 150.1932390
  99.9221880   9.9519310 150.5071010  99.8057450  11.4436750 150.7373570
  91.2584760   5.9743990 147.9078620  90.4847020   5.4341610 147.7477340
  91.9879390   5.4550600 147.5696380 102.0172740   4.9709350 153.7005010
 102.7371860   5.4664640 153.3101120 101.8154560   4.2927240 153.0558880
  91.3022160   5.6424370 151.5457430  91.8200830   4.8392630 151.4914320
  90.8506180   5.5803510 152.3874260  96.1891660   6.9090650 146.8184730
  96.5307360   7.6532880 146.3228050  95.3604370   7.2221770 147.1809560
 102.4645340   2.0478800 145.6076420 102.3809060   2.4793020 144.7572860
 103.1839530   2.5077150 146.0403240 103.4932590   8.9021060 148.3358550
 102.8508750   8.2476680 148.6102270 103.1063250   9.3076150 147.5599220
  99.0719070   6.2306490 152.1830240  99.4242890   5.6334620 151.5231610
  98.1881400   5.9050720 152.3538490  95.1582350   6.9904180 149.5900650
  95.8453480   7.5373390 149.9708240  94.3714770   7.5344910 149.6250260
  87.2974750   2.6077000 145.0817730  88.1669600   2.8901800 145.3653650
  86.8065070   3.4212870 144.9666540  94.4609560   3.9950210 149.2026010
  94.9172340   4.8055460 149.4286200  94.1097770   3.6773350 150.0344500
 101.8829970   7.7937520 144.8734900 101.6567550   7.0767960 145.4659540
 101.4926170   7.5449960 144.0356650  87.6646000  11.8204380 145.6479360
  88.0243640  12.4193720 144.9936630  87.5238340  12.3664270 146.4214390
 101.4646220   5.7109460 146.5349060 101.1767920   6.1722150 147.3226940
 102.2598390   5.2507230 146.8033280  93.6814620   9.2035580 146.4653030
  93.6724720   9.9365270 145.8497540  92.7612980   8.9567160 146.5579990
  89.2821260   4.4250470 147.2099790  88.6749210   5.1649370 147.2195090
  89.7570610   4.5149830 146.3837990  96.6674220   9.2663820 145.1278220
  96.7686200   9.0627810 144.1980200  95.7675960   9.0122100 145.3326000
  95.3092330  11.7850140 149.8225890  95.5633830  11.7471530 148.9005260
  94.3604810  11.6583470 149.8154140 101.3144910   2.7042020 151.3984400
 100.3735050   2.7192250 151.5732090 101.6288980   1.9177980 151.8444700
  91.2926550   4.3861620 144.9588360  92.0589820   4.2742980 145.5213790
  91.3701240   3.6899590 144.3065130 103.3170490   9.8750870 153.0738660
 103.4417910  10.6982040 153.5462470 104.1836050   9.6641600 152.7262810
  90.7888020  11.9682080 152.7455790  91.5250500  11.4197540 153.0164360
  91.1728940  12.8338090 152.6061780  87.6733500   8.0355650 148.6197300
  86.7473280   8.2776790 148.6102710  88.1389930   8.8629910 148.4982050
  93.8990330  11.1412390 144.5681360  94.6918940  11.4301220 144.1163150
  93.3794680  10.7104560 143.8893840 102.9520500  10.3682520 145.9918100
 102.6662010   9.9547660 145.1772280 102.7540050  11.2970230 145.8718620
  94.4167730   6.3615800 144.4323710  94.3118370   5.7468150 145.1585090
  94.2491950   5.8381690 143.6486720  97.6570460   5.4235830 145.0365700
  97.1080560   5.8705130 145.6808440  98.2789720   4.9185080 145.5603370
  93.3245580   4.3826750 146.9331000  93.7462000   4.2166620 147.7762390
  93.4496420   3.5726980 146.4386140  95.8373220   3.4064360 144.1808100
  96.3578880   2.6913380 143.8149250  96.4841620   4.0450230 144.4808610
  96.4021250  11.4875970 146.4709840  97.2972040  11.8260940 146.4928600
  96.4338880  10.7655380 145.8434120  90.0417410   6.8603020 144.6996840
  90.4792280   7.4032690 145.3554420  90.5265140   6.0349970 144.7093180
  87.2563210   9.6492050 152.1517100  87.5866220   8.7813110 151.9195740
  87.6854210   9.8550570 152.9822060  91.8525130   7.9801060 149.8119070
  91.5520670   7.8566030 150.7122980  91.7462620   7.1209650 149.4034800
 104.6217050   7.7597460 144.5145750 103.7910010   7.8274110 144.9852980
 104.7988880   8.6501580 144.2112610 104.0773510   4.5044940 147.0179950
 104.8392420   5.0741590 147.1239640 104.0927880   3.9372140 147.7888260
  87.5777850   3.0282870 151.2487610  86.9226690   2.7594510 150.6047310
  88.4155800   2.9187350 150.7989590 105.0833480   5.3595040 151.8621880
 105.4542310   4.5762360 151.4557850 105.7235410   6.0484140 151.6839180
 104.1292680   4.7979310 144.1752470 104.4041520   5.7058190 144.0471690
 103.9403420   4.7341840 145.1114460 104.0258020   2.7348300 149.1681900
 103.6501620   1.9676230 148.7363190 103.2961140   3.1171000 149.6556830
 102.1243290  11.4950220 150.8020470 102.7202360  11.1734790 150.1254890
 102.3821440  11.0222040 151.5933740  93.1051220  10.4533760 153.8066330
  93.6216240   9.8421120 153.2814590  93.7548600  10.9562540 154.2977340
  87.7836120  11.5563150 150.2313680  87.6158160  10.9233830 150.9295570
  86.9170630  11.7622550 149.8807870  89.3898820  10.2496380 147.6763820
  88.8646440  10.6304410 146.9725780  89.3143400  10.8747150 148.3973530
 104.1464140  11.8083920 148.9977760 104.3216330  11.1221660 148.3538680
 103.4485710  12.3330970 148.6054430  91.9891790  12.1978760 146.5513070
  92.7210610  11.9138040 146.0036960  92.2485460  11.9592040 147.4412450
  91.1506580   8.3143490 146.5559400  90.5215460   8.7828590 147.1045230
  91.2654410   7.4692710 146.9905590  96.7374340   4.1428170 134.5869870
  95.9616440   3.6628610 134.8768440  97.3887270   3.4633820 134.4126030
  90.7540170   4.4547980 135.4645630  89.9225050   4.1996690 135.8642140
  91.3621150   4.5258750 136.2003550 100.7581770   8.5488360 133.3669000
 100.2963300   7.7775600 133.6956170 101.5707320   8.5754430 133.8721450
  90.7341430   8.4888070 135.6603650  91.0369470   7.5985810 135.4813870
  91.4785020   9.0458290 135.4325900  96.9845080  10.8346370 132.9872990
  96.3656520  11.2903870 132.4167430  97.8396860  10.9897830 132.5862690
  96.1783330   6.8185360 134.5940030  96.1091610   5.8775300 134.4329160
  96.9403190   6.9086770 135.1662600  97.8508430   5.7185610 130.3804900
  97.2325700   6.1835060 129.8167620  98.3631680   6.4113090 130.7974410
  92.7140190   5.2461480 137.0588500  92.3809570   5.8730400 137.7009570
  92.8906870   5.7723360 136.2790170  91.9259290   7.2142280 138.8737680
  92.5433290   7.8893360 138.5922130  91.0652410   7.6230260 138.7825180
  87.2191630   6.4042140 127.7544530  86.8419610   6.8929240 127.0229430
  87.4764700   7.0767420 128.3851060 102.8436880   8.6781690 136.7892320
 102.1600400   9.3480800 136.7808990 103.3831170   8.8762340 136.0237180
 100.3795620  10.5225820 135.5037500 100.3922780  10.1188110 134.6359760
  99.8270840  11.2973110 135.3998930 101.6741040   7.2442040 130.5927670
 101.5637370   6.3016370 130.7177090 101.6709290   7.6057680 131.4790430
  99.7781060   5.4255660 136.8320110 100.1949850   5.2115770 135.9973570
 100.5020880   5.6828450 137.4028730  97.2161320   2.8707360 129.9490160
  96.2890600   2.8044740 130.1778630  97.3686140   3.8087490 129.8345400
 103.7243160   3.8242880 136.9236350 102.8961790   3.8935970 136.4486480
 104.3193640   4.4097190 136.4552180 101.2458610   4.4327660 130.4525410
 100.6271030   4.0947210 129.8051710 101.2283060   3.7887420 131.1604600
  92.8217960   3.3972100 132.7309890  92.4174960   2.6849350 132.2355790
  92.9081080   3.0525340 133.6197930  93.2899660   7.0839660 134.8949100
  92.9927950   6.4785130 134.2156880  94.2399480   7.1216970 134.7838460
 101.3785270  10.6571530 138.5572200 100.9015830  11.4643720 138.3644810
 100.6947060  10.0049860 138.7098410  92.3818090   6.8221350 141.5456900
  91.4846620   7.0461320 141.7930300  92.4070960   6.9456290 140.5968300
  99.4223310   3.6714470 127.4598160  99.8616590   2.8336900 127.3135980
 100.1351730   4.3043870 127.5462300  91.2089310   3.6934670 140.1214270
  91.0697080   4.5657470 140.4901670  90.3270670   3.3507480 139.9762210
  97.5318690   8.6110540 131.4279400  97.9714600   9.3534870 131.0134790
  97.4705580   8.8537110 132.3518360  93.0069660   9.6356370 142.3299420
  92.9785090  10.0399320 141.4627850  92.8434630   8.7066730 142.1671020
 104.9584480  10.4183470 143.6263590 105.4344200  10.8966360 144.3052670
 105.5791640  10.3500960 142.9009090  87.1607960   5.4632220 136.0385180
  87.2388380   5.5980990 135.0940900  87.7749640   4.7548110 136.2313300
  88.4055590   7.1632410 132.4491360  87.9983670   7.3047000 131.5944960
  89.2968600   6.8792570 132.2462570 104.3617730   7.6096320 140.7863600
 104.4880790   7.3708200 139.8680780 104.4039110   6.7780860 141.2585680
  98.2234470  11.3124320 139.3558410  98.7379140  11.2232330 140.1580840
  97.3803550  11.6584020 139.6486320 100.1988870  11.5979660 128.7842410
 100.0390010  11.3082600 129.6824240 100.0335580  10.8219790 128.2487640
  92.6777250  11.3778190 130.5614030  92.5019730  10.4613730 130.3481830
  91.8232990  11.7365480 130.8011830  99.9015000   9.1067220 127.3440410
  99.2080160   9.1044510 126.6842690 100.6437860   8.6826540 126.9134580
  99.4664930  10.7329930 131.4188900  99.9221880   9.9519310 131.7327520
  99.8057450  11.4436750 131.9630080  87.2167480   6.5046390 138.5779640
  87.3798520   6.0351750 137.7599010  87.6819930   5.9969950 139.2428480
  88.7906460   5.8797820 140.7375450  88.4061250   5.2391490 141.3358410
  89.1018650   6.5833940 141.3070180  94.9403600   2.7274360 136.2184070
  95.3073730   2.2532930 136.9645410  94.7508660   3.6015930 136.5592410
  92.7302970   1.7683000 138.5368280  92.4260040   2.6474980 138.7618640
  93.6849430   1.8282790 138.5725720  91.2584760   5.9743990 129.1335130
  90.4847020   5.4341610 128.9733850  91.9879390   5.4550600 128.7952890
 102.0172740   4.9709350 134.9261520 102.7371860   5.4664640 134.5357630
 101.8154560   4.2927240 134.2815390  97.3991540   5.0418410 140.8130520
  97.3328850   4.1214080 140.5588110  96.7696680   5.1393850 141.5275160
  91.3022160   5.6424370 132.7713940  91.8200830   4.8392630 132.7170830
  90.8506180   5.5803510 133.6130770  96.1891660   6.9090650 128.0441240
  96.5307360   7.6532880 127.5484560  95.3604370   7.2221770 128.4066070
  88.7866700   2.6085740 139.6839640  88.4281640   3.2739590 140.2712980
  88.4921260   1.7769290 140.0552260  91.9879820   3.0669980 142.5679190
  91.6879960   3.2127160 141.6707010  92.7591060   2.5075270 142.4752580
  97.3308270   7.8638980 140.5634320  97.3452810   6.9319940 140.3453230
  96.6233370   7.9498740 141.2024090 102.4645340   2.0478800 126.8332930
 102.3809060   2.4793020 125.9829370 103.1839530   2.5077150 127.2659750
 103.5419480   4.5046320 139.9102900 102.8167670   5.0975100 139.7132290
 104.0694940   4.4969860 139.1116270 103.4932590   8.9021060 129.5615060
 102.8508750   8.2476680 129.8358780 103.1063250   9.3076150 128.7855730
  99.0719070   6.2306490 133.4086750  99.4242890   5.6334620 132.7488120
  98.1881400   5.9050720 133.5795000  95.1582350   6.9904180 130.8157160
  95.8453480   7.5373390 131.1964750  94.3714770   7.5344910 130.8506770
  87.2974750   2.6077000 126.3074240  88.1669600   2.8901800 126.5910160
  86.8065070   3.4212870 126.1923050  94.4609560   3.9950210 130.4282520
  94.9172340   4.8055460 130.6542710  94.1097770   3.6773350 131.2601010
  96.7642170   9.5056550 137.6574820  97.4084390   9.7115930 138.3348240
  97.1271610   8.7444950 137.2045670  98.0374250   7.5088900 136.3752270
  98.6796480   6.8082060 136.4884440  98.5623600   8.2887340 136.1949160
 101.8829970   7.7937520 126.0991410 101.6567550   7.0767960 126.6916050
 101.4926170   7.5449960 125.2613160  99.8111870   8.3083800 139.5788330
 100.1468110   8.8950490 140.2566250  98.8912210   8.1776510 139.8086120
  87.6646000  11.8204380 126.8735870  88.0243640  12.4193720 126.2193140
  87.5238340  12.3664270 127.6470900 101.4646220   5.7109460 127.7605570
 101.1767920   6.1722150 128.5483450 102.2598390   5.2507230 128.0289790
  87.6487860  10.0859240 141.3478270  87.7578980   9.1453980 141.2073660
  86.9968420  10.3513990 140.6992000  95.6400450   8.3575130 142.7476390
  95.3197320   7.6384370 143.2922080  94.9658810   9.0330200 142.8212450
  93.6814620   9.2035580 127.6909540  93.6724720   9.9365270 127.0754050
  92.7612980   8.9567160 127.7836500  89.2821260   4.4250470 128.4356300
  88.6749210   5.1649370 128.4451600  89.7570610   4.5149830 127.6094500
  96.6674220   9.2663820 126.3534730  96.7686200   9.0627810 125.4236710
  95.7675960   9.0122100 126.5582510  95.3092330  11.7850140 131.0482400
  95.5633830  11.7471530 130.1261770  94.3604810  11.6583470 131.0410650
 101.3144910   2.7042020 132.6240910 100.3735050   2.7192250 132.7988600
 101.6288980   1.9177980 133.0701210  91.2926550   4.3861620 126.1844870
  92.0589820   4.2742980 126.7470300  91.3701240   3.6899590 125.5321640
 103.3170490   9.8750870 134.2995170 103.4417910  10.6982040 134.7718980
 104.1836050   9.6641600 133.9519320  90.7888020  11.9682080 133.9712300
  91.5250500  11.4197540 134.2420870  91.1728940  12.8338090 133.8318290
  87.6733500   8.0355650 129.8453810  86.7473280   8.2776790 129.8359220
  88.1389930   8.8629910 129.7238560  89.7946300  11.1528150 143.1597880
  90.5959030  11.4740200 143.5733280  89.2798120  10.7923730 143.8817790
  93.8990330  11.1412390 125.7937870  94.6918940  11.4301220 125.3419660
  93.3794680  10.7104560 125.1150350  98.6310930   7.2608020 143.1073290
  98.0249090   7.2839620 142.3669040  98.3265040   6.5291060 143.6440540
 100.0611300  10.9888310 141.7182700 101.0133050  10.9046330 141.6682940
  99.9139520  11.6530020 142.3916490 102.9520500  10.3682520 127.2174610
 102.6662010   9.9547660 126.4028790 102.7540050  11.2970230 127.0975130
  87.5144110   3.6401610 142.1033930  88.0183130   3.0608890 142.6750160
  86.7751530   3.9241840 142.6410300  94.4167730   6.3615800 125.6580220
  94.3118370   5.7468150 126.3841600  94.2491950   5.8381690 124.8743230
  94.5682050   5.0472600 141.6369450  93.8027720   5.6157600 141.5524120
  94.7498010   4.7548810 140.7437680  97.6570460   5.4235830 126.2622210
  97.1080560   5.8705130 126.9064950  98.2789720   4.9185080 126.7859880
 101.7105400   6.7777930 142.1944470 102.4514870   7.1153690 141.6911930
 100.9478080   6.9469990 141.6414240  93.3245580   4.3826750 128.1587510
  93.7462000   4.2166620 129.0018900  93.4496420   3.5726980 127.6642650
  95.8373220   3.4064360 125.4064610  96.3578880   2.6913380 125.0405760
  96.4841620   4.0450230 125.7065120 100.3851060   4.8292760 140.7299680
 100.7992080   4.9837840 141.5790100  99.4502060   4.9547980 140.8925460
  95.1466290   4.7813240 138.6995610  95.5654400   5.6245970 138.5271850
  94.2274920   4.9185280 138.4702390  97.4830190   2.5129420 140.0833450
  97.6026400   1.9170560 140.8228290  98.3424190   2.5499110 139.6634750
  99.8218090   3.0666610 138.6595960  99.2953310   3.5909230 138.0561100
 100.1649430   3.6994000 139.2905690  92.9973710  11.0866250 139.8153340
  92.4594800  11.8112310 139.4962040  93.2507670  10.6096590 139.0250680
  95.8535920  12.3217460 140.0739990  95.7794620  13.2252600 140.3812360
  94.9514760  12.0029360 140.0462060  96.4021250  11.4875970 127.6966350
  97.2972040  11.8260940 127.7185110  96.4338880  10.7655380 127.0690630
  90.0417410   6.8603020 125.9253350  90.4792280   7.4032690 126.5810930
  90.5265140   6.0349970 125.9349690  87.2563210   9.6492050 133.3773610
  87.5866220   8.7813110 133.1452250  87.6854210   9.8550570 134.2078570
  91.8525130   7.9801060 131.0375580  91.5520670   7.8566030 131.9379490
  91.7462620   7.1209650 130.6291310  87.7453420  10.5162640 136.1155240
  87.3084410  10.6963440 136.9479390  88.3131100  11.2737260 135.9736960
 103.3815600  10.0179640 140.4032550 102.7817590  10.0772200 139.6596470
 103.5109500   9.0784620 140.5329400 104.6217050   7.7597460 125.7402260
 103.7910010   7.8274110 126.2109490 104.7988880   8.6501580 125.4369120
 104.0773510   4.5044940 128.2436460 104.8392420   5.0741590 128.3496150
 104.0927880   3.9372140 129.0144770  87.5777850   3.0282870 132.4744120
  86.9226690   2.7594510 131.8303820  88.4155800   2.9187350 132.0246100
 105.0833480   5.3595040 133.0878390 105.4542310   4.5762360 132.6814360
 105.7235410   6.0484140 132.9095690 102.0667240   6.7431620 138.5008710
 101.2527080   7.1728780 138.7634500 102.4741440   7.3550030 137.8877760
 104.1292680   4.7979310 125.4008980 104.4041520   5.7058190 125.2728200
 103.9403420   4.7341840 126.3370970 104.0258020   2.7348300 130.3938410
 103.6501620   1.9676230 129.9619700 103.2961140   3.1171000 130.8813340
  88.6153780   3.4135440 137.0147460  88.9826820   3.3262840 137.8943480
  88.0464600   2.6501990 136.9154320 103.4157640   1.8819820 140.0277930
 103.1843730   1.6532570 139.1275880 103.6762190   2.8019370 139.9822820
 102.1243290  11.4950220 132.0276980 102.7202360  11.1734790 131.3511400
 102.3821440  11.0222040 132.8190250  90.0305860   7.9268130 142.1767610
  89.9875490   7.5561040 143.0582070  90.1616870   8.8645700 142.3169430
  93.7311890   9.4827720 137.7777330  93.4903250   9.7502280 136.8907850
  94.6714530   9.6533450 137.8328190 104.9916050  11.5022100 138.5787970
 104.4974330  11.8990970 137.8615100 104.3829340  10.8771310 138.9725250
  89.8693890  10.8730380 139.2965390  89.2754210  10.7415080 140.0355430
  89.8617730  10.0368520 138.8307490 102.6755500  12.1445520 135.8574710
 102.2158470  12.8961330 135.4832730 102.0467960  11.4251990 135.7989510
  89.5006120   8.2388760 138.2473430  88.7740180   7.6194050 138.1799380
  89.5615270   8.6329370 137.3771510  93.1051220  10.4533760 135.0322840
  93.6216240   9.8421120 134.5071100  93.7548600  10.9562540 135.5233850
  95.8446720  11.3442250 135.8591820  96.1324530  11.0896550 134.9824830
  96.3569940  10.7919610 136.4497390  87.7836120  11.5563150 131.4570190
  87.6158160  10.9233830 132.1552080  86.9170630  11.7622550 131.1064380
  89.3898820  10.2496380 128.9020330  88.8646440  10.6304410 128.1982290
  89.3143400  10.8747150 129.6230040  95.9119080  12.2658350 143.2260020
  96.8386390  12.0302620 143.2695980  95.8969510  13.0930350 142.7446050
 104.1464140  11.8083920 130.2234270 104.3216330  11.1221660 129.5795190
 103.4485710  12.3330970 129.8310940  91.9891790  12.1978760 127.7769580
  92.7210610  11.9138040 127.2293470  92.2485460  11.9592040 128.6668960
  91.1506580   8.3143490 127.7815910  90.5215460   8.7828590 128.3301740
  91.2654410   7.4692710 128.2162100 102.4796640  11.4928210 143.0501060
 103.2721960  10.9977440 142.8427020 102.7729790  12.1718350 143.6576670
  96.7374340   4.1428170 115.8126380  95.9616440   3.6628610 116.1024950
  97.3887270   3.4633820 115.6382540  90.7540170   4.4547980 116.6902140
  89.9225050   4.1996690 117.0898650  91.3621150   4.5258750 117.4260060
 100.7581770   8.5488360 114.5925510 100.2963300   7.7775600 114.9212680
 101.5707320   8.5754430 115.0977960  90.7341430   8.4888070 116.8860160
  91.0369470   7.5985810 116.7070380  91.4785020   9.0458290 116.6582410
  96.9845080  10.8346370 114.2129500  96.3656520  11.2903870 113.6423940
  97.8396860  10.9897830 113.8119200  96.1783330   6.8185360 115.8196540
  96.1091610   5.8775300 115.6585670  96.9403190   6.9086770 116.3919110
  97.8508430   5.7185610 111.6061410  97.2325700   6.1835060 111.0424130
  98.3631680   6.4113090 112.0230920  92.7140190   5.2461480 118.2845010
  92.3809570   5.8730400 118.9266080  92.8906870   5.7723360 117.5046680
  91.9259290   7.2142280 120.0994190  92.5433290   7.8893360 119.8178640
  91.0652410   7.6230260 120.0081690  87.2191630   6.4042140 108.9801040
  86.8419610   6.8929240 108.2485940  87.4764700   7.0767420 109.6107570
 102.8436880   8.6781690 118.0148830 102.1600400   9.3480800 118.0065500
 103.3831170   8.8762340 117.2493690 100.3795620  10.5225820 116.7294010
 100.3922780  10.1188110 115.8616270  99.8270840  11.2973110 116.6255440
 101.6741040   7.2442040 111.8184180 101.5637370   6.3016370 111.9433600
 101.6709290   7.6057680 112.7046940  99.7781060   5.4255660 118.0576620
 100.1949850   5.2115770 117.2230080 100.5020880   5.6828450 118.6285240
  97.2161320   2.8707360 111.1746670  96.2890600   2.8044740 111.4035140
  97.3686140   3.8087490 111.0601910 103.7243160   3.8242880 118.1492860
 102.8961790   3.8935970 117.6742990 104.3193640   4.4097190 117.6808690
 101.2458610   4.4327660 111.6781920 100.6271030   4.0947210 111.0308220
 101.2283060   3.7887420 112.3861110  92.8217960   3.3972100 113.9566400
  92.4174960   2.6849350 113.4612300  92.9081080   3.0525340 114.8454440
  93.2899660   7.0839660 116.1205610  92.9927950   6.4785130 115.4413390
  94.2399480   7.1216970 116.0094970 101.3785270  10.6571530 119.7828710
 100.9015830  11.4643720 119.5901320 100.6947060  10.0049860 119.9354920
  92.3818090   6.8221350 122.7713410  91.4846620   7.0461320 123.0186810
  92.4070960   6.9456290 121.8224810  99.4223310   3.6714470 108.6854670
  99.8616590   2.8336900 108.5392490 100.1351730   4.3043870 108.7718810
  91.2089310   3.6934670 121.3470780  91.0697080   4.5657470 121.7158180
  90.3270670   3.3507480 121.2018720  97.5318690   8.6110540 112.6535910
  97.9714600   9.3534870 112.2391300  97.4705580   8.8537110 113.5774870
  93.0069660   9.6356370 123.5555930  92.9785090  10.0399320 122.6884360
  92.8434630   8.7066730 123.3927530 104.9584480  10.4183470 124.8520100
 105.4344200  10.8966360 125.5309180 105.5791640  10.3500960 124.1265600
  87.1607960   5.4632220 117.2641690  87.2388380   5.5980990 116.3197410
  87.7749640   4.7548110 117.4569810  88.4055590   7.1632410 113.6747870
  87.9983670   7.3047000 112.8201470  89.2968600   6.8792570 113.4719080
 104.3617730   7.6096320 122.0120110 104.4880790   7.3708200 121.0937290
 104.4039110   6.7780860 122.4842190  98.2234470  11.3124320 120.5814920
  98.7379140  11.2232330 121.3837350  97.3803550  11.6584020 120.8742830
 100.1988870  11.5979660 110.0098920 100.0390010  11.3082600 110.9080750
 100.0335580  10.8219790 109.4744150  92.6777250  11.3778190 111.7870540
  92.5019730  10.4613730 111.5738340  91.8232990  11.7365480 112.0268340
  99.9015000   9.1067220 108.5696920  99.2080160   9.1044510 107.9099200
 100.6437860   8.6826540 108.1391090  99.4664930  10.7329930 112.6445410
  99.9221880   9.9519310 112.9584030  99.8057450  11.4436750 113.1886590
  87.2167480   6.5046390 119.8036150  87.3798520   6.0351750 118.9855520
  87.6819930   5.9969950 120.4684990  88.7906460   5.8797820 121.9631960
  88.4061250   5.2391490 122.5614920  89.1018650   6.5833940 122.5326690
  94.9403600   2.7274360 117.4440580  95.3073730   2.2532930 118.1901920
  94.7508660   3.6015930 117.7848920  92.7302970   1.7683000 119.7624790
  92.4260040   2.6474980 119.9875150  93.6849430   1.8282790 119.7982230
  91.2584760   5.9743990 110.3591640  90.4847020   5.4341610 110.1990360
  91.9879390   5.4550600 110.0209400 102.0172740   4.9709350 116.1518030
 102.7371860   5.4664640 115.7614140 101.8154560   4.2927240 115.5071900
  97.3991540   5.0418410 122.0387030  97.3328850   4.1214080 121.7844620
  96.7696680   5.1393850 122.7531670  91.3022160   5.6424370 113.9970450
  91.8200830   4.8392630 113.9427340  90.8506180   5.5803510 114.8387280
  96.1891660   6.9090650 109.2697750  96.5307360   7.6532880 108.7741070
  95.3604370   7.2221770 109.6322580  88.7866700   2.6085740 120.9096150
  88.4281640   3.2739590 121.4969490  88.4921260   1.7769290 121.2808770
  91.9879820   3.0669980 123.7935700  91.6879960   3.2127160 122.8963520
  92.7591060   2.5075270 123.7009090  97.3308270   7.8638980 121.7890830
  97.3452810   6.9319940 121.5709740  96.6233370   7.9498740 122.4280600
 102.4645340   2.0478800 108.0589440 102.3809060   2.4793020 107.2085880
 103.1839530   2.5077150 108.4916260 103.5419480   4.5046320 121.1359410
 102.8167670   5.0975100 120.9388800 104.0694940   4.4969860 120.3372780
 103.4932590   8.9021060 110.7871570 102.8508750   8.2476680 111.0615290
 103.1063250   9.3076150 110.0112240  99.0719070   6.2306490 114.6343260
  99.4242890   5.6334620 113.9744630  98.1881400   5.9050720 114.8051510
  95.1582350   6.9904180 112.0413670  95.8453480   7.5373390 112.4221260
  94.3714770   7.5344910 112.0763280  87.2974750   2.6077000 107.5330750
  88.1669600   2.8901800 107.8166670  86.8065070   3.4212870 107.4179560
  94.4609560   3.9950210 111.6539030  94.9172340   4.8055460 111.8799220
  94.1097770   3.6773350 112.4857520  96.7642170   9.5056550 118.8831330
  97.4084390   9.7115930 119.5604750  97.1271610   8.7444950 118.4302180
  98.0374250   7.5088900 117.6008780  98.6796480   6.8082060 117.7140950
  98.5623600   8.2887340 117.4205670 101.8829970   7.7937520 107.3247920
 101.6567550   7.0767960 107.9172560 101.4926170   7.5449960 106.4869670
  99.8111870   8.3083800 120.8044840 100.1468110   8.8950490 121.4822760
  98.8912210   8.1776510 121.0342630  87.6646000  11.8204380 108.0992380
  88.0243640  12.4193720 107.4449650  87.5238340  12.3664270 108.8727410
 101.4646220   5.7109460 108.9862080 101.1767920   6.1722150 109.7739960
 102.2598390   5.2507230 109.2546300  87.6487860  10.0859240 122.5734780
  87.7578980   9.1453980 122.4330170  86.9968420  10.3513990 121.9248510
  95.6400450   8.3575130 123.9732900  95.3197320   7.6384370 124.5178590
  94.9658810   9.0330200 124.0468960  93.6814620   9.2035580 108.9166050
  93.6724720   9.9365270 108.3010560  92.7612980   8.9567160 109.0093010
  89.2821260   4.4250470 109.6612810  88.6749210   5.1649370 109.6708110
  89.7570610   4.5149830 108.8351010  96.6674220   9.2663820 107.5791240
  96.7686200   9.0627810 106.6493220  95.7675960   9.0122100 107.7839020
  95.3092330  11.7850140 112.2738910  95.5633830  11.7471530 111.3518280
  94.3604810  11.6583470 112.2667160 101.3144910   2.7042020 113.8497420
 100.3735050   2.7192250 114.0245110 101.6288980   1.9177980 114.2957720
  91.2926550   4.3861620 107.4101380  92.0589820   4.2742980 107.9726810
  91.3701240   3.6899590 106.7578150 103.3170490   9.8750870 115.5251680
 103.4417910  10.6982040 115.9975490 104.1836050   9.6641600 115.1775830
  90.7888020  11.9682080 115.1968810  91.5250500  11.4197540 115.4677380
  91.1728940  12.8338090 115.0574800  87.6733500   8.0355650 111.0710320
  86.7473280   8.2776790 111.0615730  88.1389930   8.8629910 110.9495070
  89.7946300  11.1528150 124.3854390  90.5959030  11.4740200 124.7989790
  89.2798120  10.7923730 125.1074300  93.8990330  11.1412390 107.0194380
  94.6918940  11.4301220 106.5676170  93.3794680  10.7104560 106.3406860
  98.6310930   7.2608020 124.3329800  98.0249090   7.2839620 123.5925550
  98.3265040   6.5291060 124.8697050 100.0611300  10.9888310 122.9439210
 101.0133050  10.9046330 122.8939450  99.9139520  11.6530020 123.6173000
 102.9520500  10.3682520 108.4431120 102.6662010   9.9547660 107.6285300
 102.7540050  11.2970230 108.3231640  87.5144110   3.6401610 123.3290440
  88.0183130   3.0608890 123.9006670  86.7751530   3.9241840 123.8666810
  94.4167730   6.3615800 106.8836730  94.3118370   5.7468150 107.6098110
  94.2491950   5.8381690 106.0999740  94.5682050   5.0472600 122.8625960
  93.8027720   5.6157600 122.7780630  94.7498010   4.7548810 121.9694190
  97.6570460   5.4235830 107.4878720  97.1080560   5.8705130 108.1321460
  98.2789720   4.9185080 108.0116390 101.7105400   6.7777930 123.4200980
 102.4514870   7.1153690 122.9168440 100.9478080   6.9469990 122.8670750
  93.3245580   4.3826750 109.3844020  93.7462000   4.2166620 110.2275410
  93.4496420   3.5726980 108.8899160  95.8373220   3.4064360 106.6321120
  96.3578880   2.6913380 106.2662270  96.4841620   4.0450230 106.9321630
 100.3851060   4.8292760 121.9556190 100.7992080   4.9837840 122.8046610
  99.4502060   4.9547980 122.1181970  95.1466290   4.7813240 119.9252120
  95.5654400   5.6245970 119.7528360  94.2274920   4.9185280 119.6958900
  97.4830190   2.5129420 121.3089960  97.6026400   1.9170560 122.0484800
  98.3424190   2.5499110 120.8891260  99.8218090   3.0666610 119.8852470
  99.2953310   3.5909230 119.2817610 100.1649430   3.6994000 120.5162200
  92.9973710  11.0866250 121.0409850  92.4594800  11.8112310 120.7218550
  93.2507670  10.6096590 120.2507190  95.8535920  12.3217460 121.2996500
  95.7794620  13.2252600 121.6068870  94.9514760  12.0029360 121.2718570
  96.4021250  11.4875970 108.9222860  97.2972040  11.8260940 108.9441620
  96.4338880  10.7655380 108.2947140  90.0417410   6.8603020 107.1509860
  90.4792280   7.4032690 107.8067440  90.5265140   6.0349970 107.1606200
  87.2563210   9.6492050 114.6030120  87.5866220   8.7813110 114.3708760
  87.6854210   9.8550570 115.4335080  91.8525130   7.9801060 112.2632090
  91.5520670   7.8566030 113.1636000  91.7462620   7.1209650 111.8547820
  87.7453420  10.5162640 117.3411750  87.3084410  10.6963440 118.1735900
  88.3131100  11.2737260 117.1993470 103.3815600  10.0179640 121.6289060
 102.7817590  10.0772200 120.8852980 103.5109500   9.0784620 121.7585910
 104.6217050   7.7597460 106.9658770 103.7910010   7.8274110 107.4366000
 104.7988880   8.6501580 106.6625630 104.0773510   4.5044940 109.4692970
 104.8392420   5.0741590 109.5752660 104.0927880   3.9372140 110.2401280
  87.5777850   3.0282870 113.7000630  86.9226690   2.7594510 113.0560330
  88.4155800   2.9187350 113.2502610 105.0833480   5.3595040 114.3134900
 105.4542310   4.5762360 113.9070870 105.7235410   6.0484140 114.1352200
 102.0667240   6.7431620 119.7265220 101.2527080   7.1728780 119.9891010
 102.4741440   7.3550030 119.1134270 104.1292680   4.7979310 106.6265490
 104.4041520   5.7058190 106.4984710 103.9403420   4.7341840 107.5627480
 104.0258020   2.7348300 111.6194920 103.6501620   1.9676230 111.1876210
 103.2961140   3.1171000 112.1069850  88.6153780   3.4135440 118.2403970
  88.9826820   3.3262840 119.1199990  88.0464600   2.6501990 118.1410830
 103.4157640   1.8819820 121.2534440 103.1843730   1.6532570 120.3532390
 103.6762190   2.8019370 121.2079330 102.1243290  11.4950220 113.2533490
 102.7202360  11.1734790 112.5767910 102.3821440  11.0222040 114.0446760
  90.0305860   7.9268130 123.4024120  89.9875490   7.5561040 124.2838580
  90.1616870   8.8645700 123.5425940  93.7311890   9.4827720 119.0033840
  93.4903250   9.7502280 118.1164360  94.6714530   9.6533450 119.0584700
 104.9916050  11.5022100 119.8044480 104.4974330  11.8990970 119.0871610
 104.3829340  10.8771310 120.1981760  89.8693890  10.8730380 120.5221900
  89.2754210  10.7415080 121.2611940  89.8617730  10.0368520 120.0564000
 102.6755500  12.1445520 117.0831220 102.2158470  12.8961330 116.7089240
 102.0467960  11.4251990 117.0246020  89.5006120   8.2388760 119.4729940
  88.7740180   7.6194050 119.4055890  89.5615270   8.6329370 118.6028020
  93.1051220  10.4533760 116.2579350  93.6216240   9.8421120 115.7327610
  93.7548600  10.9562540 116.7490360  95.8446720  11.3442250 117.0848330
  96.1324530  11.0896550 116.2081340  96.3569940  10.7919610 117.6753900
  87.7836120  11.5563150 112.6826700  87.6158160  10.9233830 113.3808590
  86.9170630  11.7622550 112.3320890  89.3898820  10.2496380 110.1276840
  88.8646440  10.6304410 109.4238800  89.3143400  10.8747150 110.8486550
  95.9119080  12.2658350 124.4516530  96.8386390  12.0302620 124.4952490
  95.8969510  13.0930350 123.9702560 104.1464140  11.8083920 111.4490780
 104.3216330  11.1221660 110.8051700 103.4485710  12.3330970 111.0567450
  91.9891790  12.1978760 109.0026090  92.7210610  11.9138040 108.4549980
  92.2485460  11.9592040 109.8925470  91.1506580   8.3143490 109.0072420
  90.5215460   8.7828590 109.5558250  91.2654410   7.4692710 109.4418610
 102.4796640  11.4928210 124.2757570 103.2721960  10.9977440 124.0683530
 102.7729790  12.1718350 124.8833180  96.7374340   4.1428170  97.0382890
  95.9616440   3.6628610  97.3281460  97.3887270   3.4633820  96.8639050
  90.7540170   4.4547980  97.9158650  89.9225050   4.1996690  98.3155160
  91.3621150   4.5258750  98.6516570 100.7581770   8.5488360  95.8182020
 100.2963300   7.7775600  96.1469190 101.5707320   8.5754430  96.3234470
  90.7341430   8.4888070  98.1116670  91.0369470   7.5985810  97.9326890
  91.4785020   9.0458290  97.8838920  96.9845080  10.8346370  95.4386010
  96.3656520  11.2903870  94.8680450  97.8396860  10.9897830  95.0375710
  96.1783330   6.8185360  97.0453050  96.1091610   5.8775300  96.8842180
  96.9403190   6.9086770  97.6175620  97.8508430   5.7185610  92.8317920
  97.2325700   6.1835060  92.2680640  98.3631680   6.4113090  93.2487430
  92.7140190   5.2461480  99.5101520  92.3809570   5.8730400 100.1522590
  92.8906870   5.7723360  98.7303190  91.9259290   7.2142280 101.3250700
  92.5433290   7.8893360 101.0435150  91.0652410   7.6230260 101.2338200
  87.2191630   6.4042140  90.2057550  86.8419610   6.8929240  89.4742450
  87.4764700   7.0767420  90.8364080 102.8436880   8.6781690  99.2405340
 102.1600400   9.3480800  99.2322010 103.3831170   8.8762340  98.4750200
 100.3795620  10.5225820  97.9550520 100.3922780  10.1188110  97.0872780
  99.8270840  11.2973110  97.8511950 101.6741040   7.2442040  93.0440690
 101.5637370   6.3016370  93.1690110 101.6709290   7.6057680  93.9303450
  99.7781060   5.4255660  99.2833130 100.1949850   5.2115770  98.4486590
 100.5020880   5.6828450  99.8541750  97.2161320   2.8707360  92.4003180
  96.2890600   2.8044740  92.6291650  97.3686140   3.8087490  92.2858420
 103.7243160   3.8242880  99.3749370 102.8961790   3.8935970  98.8999500
 104.3193640   4.4097190  98.9065200 101.2458610   4.4327660  92.9038430
 100.6271030   4.0947210  92.2564730 101.2283060   3.7887420  93.6117620
  92.8217960   3.3972100  95.1822910  92.4174960   2.6849350  94.6868810
  92.9081080   3.0525340  96.0710950  93.2899660   7.0839660  97.3462120
  92.9927950   6.4785130  96.6669900  94.2399480   7.1216970  97.2351480
 101.3785270  10.6571530 101.0085220 100.9015830  11.4643720 100.8157830
 100.6947060  10.0049860 101.1611430  92.3818090   6.8221350 103.9969920
  91.4846620   7.0461320 104.2443320  92.4070960   6.9456290 103.0481320
  99.4223310   3.6714470  89.9111180  99.8616590   2.8336900  89.7649000
 100.1351730   4.3043870  89.9975320  91.2089310   3.6934670 102.5727290
  91.0697080   4.5657470 102.9414690  90.3270670   3.3507480 102.4275230
  97.5318690   8.6110540  93.8792420  97.9714600   9.3534870  93.4647810
  97.4705580   8.8537110  94.8031380  93.0069660   9.6356370 104.7812440
  92.9785090  10.0399320 103.9140870  92.8434630   8.7066730 104.6184040
 104.9584480  10.4183470 106.0776610 105.4344200  10.8966360 106.7565690
 105.5791640  10.3500960 105.3522110  87.1607960   5.4632220  98.4898200
  87.2388380   5.5980990  97.5453920  87.7749640   4.7548110  98.6826320
  88.4055590   7.1632410  94.9004380  87.9983670   7.3047000  94.0457980
  89.2968600   6.8792570  94.6975590 104.3617730   7.6096320 103.2376620
 104.4880790   7.3708200 102.3193800 104.4039110   6.7780860 103.7098700
  98.2234470  11.3124320 101.8071430  98.7379140  11.2232330 102.6093860
  97.3803550  11.6584020 102.0999340 100.1988870  11.5979660  91.2355430
 100.0390010  11.3082600  92.1337260 100.0335580  10.8219790  90.7000660
  92.6777250  11.3778190  93.0127050  92.5019730  10.4613730  92.7994850
  91.8232990  11.7365480  93.2524850  99.9015000   9.1067220  89.7953430
  99.2080160   9.1044510  89.1355710 100.6437860   8.6826540  89.3647600
  99.4664930  10.7329930  93.8701920  99.9221880   9.9519310  94.1840540
  99.8057450  11.4436750  94.4143100  87.2167480   6.5046390 101.0292660
  87.3798520   6.0351750 100.2112030  87.6819930   5.9969950 101.6941500
  88.7906460   5.8797820 103.1888470  88.4061250   5.2391490 103.7871430
  89.1018650   6.5833940 103.7583200  94.9403600   2.7274360  98.6697090
  95.3073730   2.2532930  99.4158430  94.7508660   3.6015930  99.0105430
  92.7302970   1.7683000 100.9881300  92.4260040   2.6474980 101.2131660
  93.6849430   1.8282790 101.0238740  91.2584760   5.9743990  91.5848150
  90.4847020   5.4341610  91.4246870  91.9879390   5.4550600  91.2465910
 102.0172740   4.9709350  97.3774540 102.7371860   5.4664640  96.9870650
 101.8154560   4.2927240  96.7328410  97.3991540   5.0418410 103.2643540
  97.3328850   4.1214080 103.0101130  96.7696680   5.1393850 103.9788180
  91.3022160   5.6424370  95.2226960  91.8200830   4.8392630  95.1683850
  90.8506180   5.5803510  96.0643790  96.1891660   6.9090650  90.4954260
  96.5307360   7.6532880  89.9997580  95.3604370   7.2221770  90.8579090
  88.7866700   2.6085740 102.1352660  88.4281640   3.2739590 102.7226000
  88.4921260   1.7769290 102.5065280  91.9879820   3.0669980 105.0192210
  91.6879960   3.2127160 104.1220030  92.7591060   2.5075270 104.9265600
  97.3308270   7.8638980 103.0147340  97.3452810   6.9319940 102.7966250
  96.6233370   7.9498740 103.6537110 102.4645340   2.0478800  89.2845950
 102.3809060   2.4793020  88.4342390 103.1839530   2.5077150  89.7172770
 103.5419480   4.5046320 102.3615920 102.8167670   5.0975100 102.1645310
 104.0694940   4.4969860 101.5629290 103.4932590   8.9021060  92.0128080
 102.8508750   8.2476680  92.2871800 103.1063250   9.3076150  91.2368750
  99.0719070   6.2306490  95.8599770  99.4242890   5.6334620  95.2001140
  98.1881400   5.9050720  96.0308020  95.1582350   6.9904180  93.2670180
  95.8453480   7.5373390  93.6477770  94.3714770   7.5344910  93.3019790
  87.2974750   2.6077000  88.7587260  88.1669600   2.8901800  89.0423180
  86.8065070   3.4212870  88.6436070  94.4609560   3.9950210  92.8795540
  94.9172340   4.8055460  93.1055730  94.1097770   3.6773350  93.7114030
  96.7642170   9.5056550 100.1087840  97.4084390   9.7115930 100.7861260
  97.1271610   8.7444950  99.6558690  98.0374250   7.5088900  98.8265290
  98.6796480   6.8082060  98.9397460  98.5623600   8.2887340  98.6462180
 101.8829970   7.7937520  88.5504430 101.6567550   7.0767960  89.1429070
 101.4926170   7.5449960  87.7126180  99.8111870   8.3083800 102.0301350
 100.1468110   8.8950490 102.7079270  98.8912210   8.1776510 102.2599140
  87.6646000  11.8204380  89.3248890  88.0243640  12.4193720  88.6706160
  87.5238340  12.3664270  90.0983920 101.4646220   5.7109460  90.2118590
 101.1767920   6.1722150  90.9996470 102.2598390   5.2507230  90.4802810
  87.6487860  10.0859240 103.7991290  87.7578980   9.1453980 103.6586680
  86.9968420  10.3513990 103.1505020  95.6400450   8.3575130 105.1989410
  95.3197320   7.6384370 105.7435100  94.9658810   9.0330200 105.2725470
  93.6814620   9.2035580  90.1422560  93.6724720   9.9365270  89.5267070
  92.7612980   8.9567160  90.2349520  89.2821260   4.4250470  90.8869320
  88.6749210   5.1649370  90.8964620  89.7570610   4.5149830  90.0607520
  96.6674220   9.2663820  88.8047750  96.7686200   9.0627810  87.8749730
  95.7675960   9.0122100  89.0095530  95.3092330  11.7850140  93.4995420
  95.5633830  11.7471530  92.5774790  94.3604810  11.6583470  93.4923670
 101.3144910   2.7042020  95.0753930 100.3735050   2.7192250  95.2501620
 101.6288980   1.9177980  95.5214230  91.2926550   4.3861620  88.6357890
  92.0589820   4.2742980  89.1983320  91.3701240   3.6899590  87.9834660
 103.3170490   9.8750870  96.7508190 103.4417910  10.6982040  97.2232000
 104.1836050   9.6641600  96.4032340  90.7888020  11.9682080  96.4225320
  91.5250500  11.4197540  96.6933890  91.1728940  12.8338090  96.2831310
  87.6733500   8.0355650  92.2966830  86.7473280   8.2776790  92.2872240
  88.1389930   8.8629910  92.1751580  89.7946300  11.1528150 105.6110900
  90.5959030  11.4740200 106.0246300  89.2798120  10.7923730 106.3330810
  93.8990330  11.1412390  88.2450890  94.6918940  11.4301220  87.7932680
  93.3794680  10.7104560  87.5663370  98.6310930   7.2608020 105.5586310
  98.0249090   7.2839620 104.8182060  98.3265040   6.5291060 106.0953560
 100.0611300  10.9888310 104.1695720 101.0133050  10.9046330 104.1195960
  99.9139520  11.6530020 104.8429510 102.9520500  10.3682520  89.6687630
 102.6662010   9.9547660  88.8541810 102.7540050  11.2970230  89.5488150
  87.5144110   3.6401610 104.5546950  88.0183130   3.0608890 105.1263180
  86.7751530   3.9241840 105.0923320  94.4167730   6.3615800  88.1093240
  94.3118370   5.7468150  88.8354620  94.2491950   5.8381690  87.3256250
  94.5682050   5.0472600 104.0882470  93.8027720   5.6157600 104.0037140
  94.7498010   4.7548810 103.1950700  97.6570460   5.4235830  88.7135230
  97.1080560   5.8705130  89.3577970  98.2789720   4.9185080  89.2372900
 101.7105400   6.7777930 104.6457490 102.4514870   7.1153690 104.1424950
 100.9478080   6.9469990 104.0927260  93.3245580   4.3826750  90.6100530
  93.7462000   4.2166620  91.4531920  93.4496420   3.5726980  90.1155670
  95.8373220   3.4064360  87.8577630  96.3578880   2.6913380  87.4918780
  96.4841620   4.0450230  88.1578140 100.3851060   4.8292760 103.1812700
 100.7992080   4.9837840 104.0303120  99.4502060   4.9547980 103.3438480
  95.1466290   4.7813240 101.1508630  95.5654400   5.6245970 100.9784870
  94.2274920   4.9185280 100.9215410  97.4830190   2.5129420 102.5346470
  97.6026400   1.9170560 103.2741310  98.3424190   2.5499110 102.1147770
  99.8218090   3.0666610 101.1108980  99.2953310   3.5909230 100.5074120
 100.1649430   3.6994000 101.7418710  92.9973710  11.0866250 102.2666360
  92.4594800  11.8112310 101.9475060  93.2507670  10.6096590 101.4763700
  95.8535920  12.3217460 102.5253010  95.7794620  13.2252600 102.8325380
  94.9514760  12.0029360 102.4975080  96.4021250  11.4875970  90.1479370
  97.2972040  11.8260940  90.1698130  96.4338880  10.7655380  89.5203650
  90.0417410   6.8603020  88.3766370  90.4792280   7.4032690  89.0323950
  90.5265140   6.0349970  88.3862710  87.2563210   9.6492050  95.8286630
  87.5866220   8.7813110  95.5965270  87.6854210   9.8550570  96.6591590
  91.8525130   7.9801060  93.4888600  91.5520670   7.8566030  94.3892510
  91.7462620   7.1209650  93.0804330  87.7453420  10.5162640  98.5668260
  87.3084410  10.6963440  99.3992410  88.3131100  11.2737260  98.4249980
 103.3815600  10.0179640 102.8545570 102.7817590  10.0772200 102.1109490
 103.5109500   9.0784620 102.9842420 104.6217050   7.7597460  88.1915280
 103.7910010   7.8274110  88.6622510 104.7988880   8.6501580  87.8882140
 104.0773510   4.5044940  90.6949480 104.8392420   5.0741590  90.8009170
 104.0927880   3.9372140  91.4657790  87.5777850   3.0282870  94.9257140
  86.9226690   2.7594510  94.2816840  88.4155800   2.9187350  94.4759120
 105.0833480   5.3595040  95.5391410 105.4542310   4.5762360  95.1327380
 105.7235410   6.0484140  95.3608710 102.0667240   6.7431620 100.9521730
 101.2527080   7.1728780 101.2147520 102.4741440   7.3550030 100.3390780
 104.1292680   4.7979310  87.8522000 104.4041520   5.7058190  87.7241220
 103.9403420   4.7341840  88.7883990 104.0258020   2.7348300  92.8451430
 103.6501620   1.9676230  92.4132720 103.2961140   3.1171000  93.3326360
  88.6153780   3.4135440  99.4660480  88.9826820   3.3262840 100.3456500
  88.0464600   2.6501990  99.3667340 103.4157640   1.8819820 102.4790950
 103.1843730   1.6532570 101.5788900 103.6762190   2.8019370 102.4335840
 102.1243290  11.4950220  94.4790000 102.7202360  11.1734790  93.8024420
 102.3821440  11.0222040  95.2703270  90.0305860   7.9268130 104.6280630
  89.9875490   7.5561040 105.5095090  90.1616870   8.8645700 104.7682450
  93.7311890   9.4827720 100.2290350  93.4903250   9.7502280  99.3420870
  94.6714530   9.6533450 100.2841210 104.9916050  11.5022100 101.0300990
 104.4974330  11.8990970 100.3128120 104.3829340  10.8771310 101.4238270
  89.8693890  10.8730380 101.7478410  89.2754210  10.7415080 102.4868450
  89.8617730  10.0368520 101.2820510 102.6755500  12.1445520  98.3087730
 102.2158470  12.8961330  97.9345750 102.0467960  11.4251990  98.2502530
  89.5006120   8.2388760 100.6986450  88.7740180   7.6194050 100.6312400
  89.5615270   8.6329370  99.8284530  93.1051220  10.4533760  97.4835860
  93.6216240   9.8421120  96.9584120  93.7548600  10.9562540  97.9746870
  95.8446720  11.3442250  98.3104840  96.1324530  11.0896550  97.4337850
  96.3569940  10.7919610  98.9010410  87.7836120  11.5563150  93.9083210
  87.6158160  10.9233830  94.6065100  86.9170630  11.7622550  93.5577400
  89.3898820  10.2496380  91.3533350  88.8646440  10.6304410  90.6495310
  89.3143400  10.8747150  92.0743060  95.9119080  12.2658350 105.6773040
  96.8386390  12.0302620 105.7209000  95.8969510  13.0930350 105.1959070
 104.1464140  11.8083920  92.6747290 104.3216330  11.1221660  92.0308210
 103.4485710  12.3330970  92.2823960  91.9891790  12.1978760  90.2282600
  92.7210610  11.9138040  89.6806490  92.2485460  11.9592040  91.1181980
  91.1506580   8.3143490  90.2328930  90.5215460   8.7828590  90.7814760
  91.2654410   7.4692710  90.6675120 102.4796640  11.4928210 105.5014080
 103.2721960  10.9977440 105.2940040 102.7729790  12.1718350 106.1089690
  96.7374340   4.1428170  78.2639400  95.9616440   3.6628610  78.5537970
  97.3887270   3.4633820  78.0895560  90.7540170   4.4547980  79.1415160
  89.9225050   4.1996690  79.5411670  91.3621150   4.5258750  79.8773080
 100.7581770   8.5488360  77.0438530 100.2963300   7.7775600  77.3725700
 101.5707320   8.5754430  77.5490980  90.7341430   8.4888070  79.3373180
  91.0369470   7.5985810  79.1583400  91.4785020   9.0458290  79.1095430
  96.9845080  10.8346370  76.6642520  96.3656520  11.2903870  76.0936960
  97.8396860  10.9897830  76.2632220  96.1783330   6.8185360  78.2709560
  96.1091610   5.8775300  78.1098690  96.9403190   6.9086770  78.8432130
  97.8508430   5.7185610  74.0574430  97.2325700   6.1835060  73.4937150
  98.3631680   6.4113090  74.4743940  92.7140190   5.2461480  80.7358030
  92.3809570   5.8730400  81.3779100  92.8906870   5.7723360  79.9559700
  91.9259290   7.2142280  82.5507210  92.5433290   7.8893360  82.2691660
  91.0652410   7.6230260  82.4594710  87.2191630   6.4042140  71.4314060
  86.8419610   6.8929240  70.6998960  87.4764700   7.0767420  72.0620590
 102.8436880   8.6781690  80.4661850 102.1600400   9.3480800  80.4578520
 103.3831170   8.8762340  79.7006710 100.3795620  10.5225820  79.1807030
 100.3922780  10.1188110  78.3129290  99.8270840  11.2973110  79.0768460
 101.6741040   7.2442040  74.2697200 101.5637370   6.3016370  74.3946620
 101.6709290   7.6057680  75.1559960  99.7781060   5.4255660  80.5089640
 100.1949850   5.2115770  79.6743100 100.5020880   5.6828450  81.0798260
  97.2161320   2.8707360  73.6259690  96.2890600   2.8044740  73.8548160
  97.3686140   3.8087490  73.5114930 103.7243160   3.8242880  80.6005880
 102.8961790   3.8935970  80.1256010 104.3193640   4.4097190  80.1321710
 101.2458610   4.4327660  74.1294940 100.6271030   4.0947210  73.4821240
 101.2283060   3.7887420  74.8374130  92.8217960   3.3972100  76.4079420
  92.4174960   2.6849350  75.9125320  92.9081080   3.0525340  77.2967460
  93.2899660   7.0839660  78.5718630  92.9927950   6.4785130  77.8926410
  94.2399480   7.1216970  78.4607990 101.3785270  10.6571530  82.2341730
 100.9015830  11.4643720  82.0414340 100.6947060  10.0049860  82.3867940
  92.3818090   6.8221350  85.2226430  91.4846620   7.0461320  85.4699830
  92.4070960   6.9456290  84.2737830  99.4223310   3.6714470  71.1367690
  99.8616590   2.8336900  70.9905510 100.1351730   4.3043870  71.2231830
  91.2089310   3.6934670  83.7983800  91.0697080   4.5657470  84.1671200
  90.3270670   3.3507480  83.6531740  97.5318690   8.6110540  75.1048930
  97.9714600   9.3534870  74.6904320  97.4705580   8.8537110  76.0287890
  93.0069660   9.6356370  86.0068950  92.9785090  10.0399320  85.1397380
  92.8434630   8.7066730  85.8440550 104.9584480  10.4183470  87.3033120
 105.4344200  10.8966360  87.9822200 105.5791640  10.3500960  86.5778620
  87.1607960   5.4632220  79.7154710  87.2388380   5.5980990  78.7710430
  87.7749640   4.7548110  79.9082830  88.4055590   7.1632410  76.1260890
  87.9983670   7.3047000  75.2714490  89.2968600   6.8792570  75.9232100
 104.3617730   7.6096320  84.4633130 104.4880790   7.3708200  83.5450310
 104.4039110   6.7780860  84.9355210  98.2234470  11.3124320  83.0327940
  98.7379140  11.2232330  83.8350370  97.3803550  11.6584020  83.3255850
 100.1988870  11.5979660  72.4611940 100.0390010  11.3082600  73.3593770
 100.0335580  10.8219790  71.9257170  92.6777250  11.3778190  74.2383560
  92.5019730  10.4613730  74.0251360  91.8232990  11.7365480  74.4781360
  99.9015000   9.1067220  71.0209940  99.2080160   9.1044510  70.3612220
 100.6437860   8.6826540  70.5904110  99.4664930  10.7329930  75.0958430
  99.9221880   9.9519310  75.4097050  99.8057450  11.4436750  75.6399610
  87.2167480   6.5046390  82.2549170  87.3798520   6.0351750  81.4368540
  87.6819930   5.9969950  82.9198010  88.7906460   5.8797820  84.4144980
  88.4061250   5.2391490  85.0127940  89.1018650   6.5833940  84.9839710
  94.9403600   2.7274360  79.8953600  95.3073730   2.2532930  80.6414940
  94.7508660   3.6015930  80.2361940  92.7302970   1.7683000  82.2137810
  92.4260040   2.6474980  82.4388170  93.6849430   1.8282790  82.2495250
  91.2584760   5.9743990  72.8104660  90.4847020   5.4341610  72.6503380
  91.9879390   5.4550600  72.4722420 102.0172740   4.9709350  78.6031050
 102.7371860   5.4664640  78.2127160 101.8154560   4.2927240  77.9584920
  97.3991540   5.0418410  84.4900050  97.3328850   4.1214080  84.2357640
  96.7696680   5.1393850  85.2044690  91.3022160   5.6424370  76.4483470
  91.8200830   4.8392630  76.3940360  90.8506180   5.5803510  77.2900300
  96.1891660   6.9090650  71.7210770  96.5307360   7.6532880  71.2254090
  95.3604370   7.2221770  72.0835600  88.7866700   2.6085740  83.3609170
  88.4281640   3.2739590  83.9482510  88.4921260   1.7769290  83.7321790
  91.9879820   3.0669980  86.2448720  91.6879960   3.2127160  85.3476540
  92.7591060   2.5075270  86.1522110  97.3308270   7.8638980  84.2403850
  97.3452810   6.9319940  84.0222760  96.6233370   7.9498740  84.8793620
 102.4645340   2.0478800  70.5102460 102.3809060   2.4793020  69.6598900
 103.1839530   2.5077150  70.9429280 103.5419480   4.5046320  83.5872430
 102.8167670   5.0975100  83.3901820 104.0694940   4.4969860  82.7885800
 103.4932590   8.9021060  73.2384590 102.8508750   8.2476680  73.5128310
 103.1063250   9.3076150  72.4625260  99.0719070   6.2306490  77.0856280
  99.4242890   5.6334620  76.4257650  98.1881400   5.9050720  77.2564530
  95.1582350   6.9904180  74.4926690  95.8453480   7.5373390  74.8734280
  94.3714770   7.5344910  74.5276300  87.2974750   2.6077000  69.9843770
  88.1669600   2.8901800  70.2679690  86.8065070   3.4212870  69.8692580
  94.4609560   3.9950210  74.1052050  94.9172340   4.8055460  74.3312240
  94.1097770   3.6773350  74.9370540  96.7642170   9.5056550  81.3344350
  97.4084390   9.7115930  82.0117770  97.1271610   8.7444950  80.8815200
  98.0374250   7.5088900  80.0521800  98.6796480   6.8082060  80.1653970
  98.5623600   8.2887340  79.8718690 101.8829970   7.7937520  69.7760940
 101.6567550   7.0767960  70.3685580 101.4926170   7.5449960  68.9382690
  99.8111870   8.3083800  83.2557860 100.1468110   8.8950490  83.9335780
  98.8912210   8.1776510  83.4855650 101.4646220   5.7109460  71.4375100
 101.1767920   6.1722150  72.2252980 102.2598390   5.2507230  71.7059320
  87.6487860  10.0859240  85.0247800  87.7578980   9.1453980  84.8843190
  86.9968420  10.3513990  84.3761530  95.6400450   8.3575130  86.4245920
  95.3197320   7.6384370  86.9691610  94.9658810   9.0330200  86.4981980
  93.6814620   9.2035580  71.3679070  93.6724720   9.9365270  70.7523580
  92.7612980   8.9567160  71.4606030  89.2821260   4.4250470  72.1125830
  88.6749210   5.1649370  72.1221130  89.7570610   4.5149830  71.2864030
  96.6674220   9.2663820  70.0304260  96.7686200   9.0627810  69.1006240
  95.7675960   9.0122100  70.2352040  95.3092330  11.7850140  74.7251930
  95.5633830  11.7471530  73.8031300  94.3604810  11.6583470  74.7180180
 101.3144910   2.7042020  76.3010440 100.3735050   2.7192250  76.4758130
 101.6288980   1.9177980  76.7470740  91.2926550   4.3861620  69.8614400
  92.0589820   4.2742980  70.4239830  91.3701240   3.6899590  69.2091170
 103.3170490   9.8750870  77.9764700 103.4417910  10.6982040  78.4488510
 104.1836050   9.6641600  77.6288850  90.7888020  11.9682080  77.6481830
  91.5250500  11.4197540  77.9190400  91.1728940  12.8338090  77.5087820
  87.6733500   8.0355650  73.5223340  86.7473280   8.2776790  73.5128750
  88.1389930   8.8629910  73.4008090  89.7946300  11.1528150  86.8367410
  90.5959030  11.4740200  87.2502810  89.2798120  10.7923730  87.5587320
  93.8990330  11.1412390  69.4707400  94.6918940  11.4301220  69.0189190
  93.3794680  10.7104560  68.7919880  98.6310930   7.2608020  86.7842820
  98.0249090   7.2839620  86.0438570  98.3265040   6.5291060  87.3210070
 100.0611300  10.9888310  85.3952230 101.0133050  10.9046330  85.3452470
  99.9139520  11.6530020  86.0686020 102.9520500  10.3682520  70.8944140
 102.6662010   9.9547660  70.0798320 102.7540050  11.2970230  70.7744660
  87.5144110   3.6401610  85.7803460  88.0183130   3.0608890  86.3519690
  86.7751530   3.9241840  86.3179830  94.4167730   6.3615800  69.3349750
  94.3118370   5.7468150  70.0611130  94.2491950   5.8381690  68.5512760
  94.5682050   5.0472600  85.3138980  93.8027720   5.6157600  85.2293650
  94.7498010   4.7548810  84.4207210  97.6570460   5.4235830  69.9391740
  97.1080560   5.8705130  70.5834480  98.2789720   4.9185080  70.4629410
 101.7105400   6.7777930  85.8714000 102.4514870   7.1153690  85.3681460
 100.9478080   6.9469990  85.3183770  93.3245580   4.3826750  71.8357040
  93.7462000   4.2166620  72.6788430  93.4496420   3.5726980  71.3412180
  95.8373220   3.4064360  69.0834140  96.3578880   2.6913380  68.7175290
  96.4841620   4.0450230  69.3834650 100.3851060   4.8292760  84.4069210
 100.7992080   4.9837840  85.2559630  99.4502060   4.9547980  84.5694990
  95.1466290   4.7813240  82.3765140  95.5654400   5.6245970  82.2041380
  94.2274920   4.9185280  82.1471920  97.4830190   2.5129420  83.7602980
  97.6026400   1.9170560  84.4997820  98.3424190   2.5499110  83.3404280
  99.8218090   3.0666610  82.3365490  99.2953310   3.5909230  81.7330630
 100.1649430   3.6994000  82.9675220  92.9973710  11.0866250  83.4922870
  92.4594800  11.8112310  83.1731570  93.2507670  10.6096590  82.7020210
  95.8535920  12.3217460  83.7509520  95.7794620  13.2252600  84.0581890
  94.9514760  12.0029360  83.7231590  96.4021250  11.4875970  71.3735880
  97.2972040  11.8260940  71.3954640  96.4338880  10.7655380  70.7460160
  90.0417410   6.8603020  69.6022880  90.4792280   7.4032690  70.2580460
  90.5265140   6.0349970  69.6119220  87.2563210   9.6492050  77.0543140
  87.5866220   8.7813110  76.8221780  87.6854210   9.8550570  77.8848100
  91.8525130   7.9801060  74.7145110  91.5520670   7.8566030  75.6149020
  91.7462620   7.1209650  74.3060840  87.7453420  10.5162640  79.7924770
  87.3084410  10.6963440  80.6248920  88.3131100  11.2737260  79.6506490
 103.3815600  10.0179640  84.0802080 102.7817590  10.0772200  83.3366000
 103.5109500   9.0784620  84.2098930 104.6217050   7.7597460  69.4171790
 103.7910010   7.8274110  69.8879020 104.7988880   8.6501580  69.1138650
 104.0773510   4.5044940  71.9205990 104.8392420   5.0741590  72.0265680
 104.0927880   3.9372140  72.6914300  87.5777850   3.0282870  76.1513650
  86.9226690   2.7594510  75.5073350  88.4155800   2.9187350  75.7015630
 105.0833480   5.3595040  76.7647920 105.4542310   4.5762360  76.3583890
 105.7235410   6.0484140  76.5865220 102.0667240   6.7431620  82.1778240
 101.2527080   7.1728780  82.4404030 102.4741440   7.3550030  81.5647290
 104.1292680   4.7979310  69.0778510 104.4041520   5.7058190  68.9497730
 103.9403420   4.7341840  70.0140500 104.0258020   2.7348300  74.0707940
 103.6501620   1.9676230  73.6389230 103.2961140   3.1171000  74.5582870
  88.6153780   3.4135440  80.6916990  88.9826820   3.3262840  81.5713010
  88.0464600   2.6501990  80.5923850 103.4157640   1.8819820  83.7047460
 103.1843730   1.6532570  82.8045410 103.6762190   2.8019370  83.6592350
 102.1243290  11.4950220  75.7046510 102.7202360  11.1734790  75.0280930
 102.3821440  11.0222040  76.4959780  90.0305860   7.9268130  85.8537140
  89.9875490   7.5561040  86.7351600  90.1616870   8.8645700  85.9938960
  93.7311890   9.4827720  81.4546860  93.4903250   9.7502280  80.5677380
  94.6714530   9.6533450  81.5097720 104.9916050  11.5022100  82.2557500
 104.4974330  11.8990970  81.5384630 104.3829340  10.8771310  82.6494780
  89.8693890  10.8730380  82.9734920  89.2754210  10.7415080  83.7124960
  89.8617730  10.0368520  82.5077020 102.6755500  12.1445520  79.5344240
 102.2158470  12.8961330  79.1602260 102.0467960  11.4251990  79.4759040
  89.5006120   8.2388760  81.9242960  88.7740180   7.6194050  81.8568910
  89.5615270   8.6329370  81.0541040  93.1051220  10.4533760  78.7092370
  93.6216240   9.8421120  78.1840630  93.7548600  10.9562540  79.2003380
  95.8446720  11.3442250  79.5361350  96.1324530  11.0896550  78.6594360
  96.3569940  10.7919610  80.1266920  87.7836120  11.5563150  75.1339720
  87.6158160  10.9233830  75.8321610  86.9170630  11.7622550  74.7833910
  89.3898820  10.2496380  72.5789860  88.8646440  10.6304410  71.8751820
  89.3143400  10.8747150  73.2999570  95.9119080  12.2658350  86.9029550
  96.8386390  12.0302620  86.9465510  95.8969510  13.0930350  86.4215580
 104.1464140  11.8083920  73.9003800 104.3216330  11.1221660  73.2564720
 103.4485710  12.3330970  73.5080470  91.9891790  12.1978760  71.4539110
  92.7210610  11.9138040  70.9063000  92.2485460  11.9592040  72.3438490
  91.1506580   8.3143490  71.4585440  90.5215460   8.7828590  72.0071270
  91.2654410   7.4692710  71.8931630 102.4796640  11.4928210  86.7270590
 103.2721960  10.9977440  86.5196550 102.7729790  12.1718350  87.3346200
  96.7374340   4.1428170  59.4895910  95.9616440   3.6628610  59.7794480
  97.3887270   3.4633820  59.3152070  90.7540170   4.4547980  60.3671670
  89.9225050   4.1996690  60.7668180  91.3621150   4.5258750  61.1029590
 100.7581770   8.5488360  58.2695040 100.2963300   7.7775600  58.5982210
 101.5707320   8.5754430  58.7747490  90.7341430   8.4888070  60.5629690
  91.0369470   7.5985810  60.3839910  91.4785020   9.0458290  60.3351940
  96.9845080  10.8346370  57.8899030  96.3656520  11.2903870  57.3193470
  97.8396860  10.9897830  57.4888730  96.1783330   6.8185360  59.4966070
  96.1091610   5.8775300  59.3355200  96.9403190   6.9086770  60.0688640
  97.8508430   5.7185610  55.2830940  97.2325700   6.1835060  54.7193660
  98.3631680   6.4113090  55.7000450  92.7140190   5.2461480  61.9614540
  92.3809570   5.8730400  62.6035610  92.8906870   5.7723360  61.1816210
  91.9259290   7.2142280  63.7763720  92.5433290   7.8893360  63.4948170
  91.0652410   7.6230260  63.6851220  87.2191630   6.4042140  52.6570570
  86.8419610   6.8929240  51.9255470  87.4764700   7.0767420  53.2877100
 102.8436880   8.6781690  61.6918360 102.1600400   9.3480800  61.6835030
 103.3831170   8.8762340  60.9263220 100.3795620  10.5225820  60.4063540
 100.3922780  10.1188110  59.5385800  99.8270840  11.2973110  60.3024970
 101.6741040   7.2442040  55.4953710 101.5637370   6.3016370  55.6203130
 101.6709290   7.6057680  56.3816470  99.7781060   5.4255660  61.7346150
 100.1949850   5.2115770  60.8999610 100.5020880   5.6828450  62.3054770
  97.2161320   2.8707360  54.8516200  96.2890600   2.8044740  55.0804670
  97.3686140   3.8087490  54.7371440 103.7243160   3.8242880  61.8262390
 102.8961790   3.8935970  61.3512520 104.3193640   4.4097190  61.3578220
 101.2458610   4.4327660  55.3551450 100.6271030   4.0947210  54.7077750
 101.2283060   3.7887420  56.0630640  92.8217960   3.3972100  57.6335930
  92.4174960   2.6849350  57.1381830  92.9081080   3.0525340  58.5223970
  93.2899660   7.0839660  59.7975140  92.9927950   6.4785130  59.1182920
  94.2399480   7.1216970  59.6864500 101.3785270  10.6571530  63.4598240
 100.9015830  11.4643720  63.2670850 100.6947060  10.0049860  63.6124450
  92.3818090   6.8221350  66.4482940  91.4846620   7.0461320  66.6956340
  92.4070960   6.9456290  65.4994340  99.4223310   3.6714470  52.3624200
  99.8616590   2.8336900  52.2162020 100.1351730   4.3043870  52.4488340
  91.2089310   3.6934670  65.0240310  91.0697080   4.5657470  65.3927710
  90.3270670   3.3507480  64.8788250  97.5318690   8.6110540  56.3305440
  97.9714600   9.3534870  55.9160830  97.4705580   8.8537110  57.2544400
  93.0069660   9.6356370  67.2325460  92.9785090  10.0399320  66.3653890
  92.8434630   8.7066730  67.0697060 104.9584480  10.4183470  68.5289630
 105.4344200  10.8966360  69.2078710 105.5791640  10.3500960  67.8035130
  87.1607960   5.4632220  60.9411220  87.2388380   5.5980990  59.9966940
  87.7749640   4.7548110  61.1339340  88.4055590   7.1632410  57.3517400
  87.9983670   7.3047000  56.4971000  89.2968600   6.8792570  57.1488610
 104.3617730   7.6096320  65.6889640 104.4880790   7.3708200  64.7706820
 104.4039110   6.7780860  66.1611720  98.2234470  11.3124320  64.2584450
  98.7379140  11.2232330  65.0606880  97.3803550  11.6584020  64.5512360
 100.1988870  11.5979660  53.6868450 100.0390010  11.3082600  54.5850280
 100.0335580  10.8219790  53.1513680  92.6777250  11.3778190  55.4640070
  92.5019730  10.4613730  55.2507870  91.8232990  11.7365480  55.7037870
  99.9015000   9.1067220  52.2466450  99.2080160   9.1044510  51.5868730
 100.6437860   8.6826540  51.8160620  99.4664930  10.7329930  56.3214940
  99.9221880   9.9519310  56.6353560  99.8057450  11.4436750  56.8656120
  87.2167480   6.5046390  63.4805680  87.3798520   6.0351750  62.6625050
  87.6819930   5.9969950  64.1454520  88.7906460   5.8797820  65.6401490
  88.4061250   5.2391490  66.2384450  89.1018650   6.5833940  66.2096220
  94.9403600   2.7274360  61.1210110  95.3073730   2.2532930  61.8671450
  94.7508660   3.6015930  61.4618450  92.7302970   1.7683000  63.4394320
  92.4260040   2.6474980  63.6644680  93.6849430   1.8282790  63.4751760
  91.2584760   5.9743990  54.0361170  90.4847020   5.4341610  53.8759890
  91.9879390   5.4550600  53.6978930 102.0172740   4.9709350  59.8287560
 102.7371860   5.4664640  59.4383670 101.8154560   4.2927240  59.1841430
  97.3991540   5.0418410  65.7156560  97.3328850   4.1214080  65.4614150
  96.7696680   5.1393850  66.4301200  91.3022160   5.6424370  57.6739980
  91.8200830   4.8392630  57.6196870  90.8506180   5.5803510  58.5156810
  96.1891660   6.9090650  52.9467280  96.5307360   7.6532880  52.4510600
  95.3604370   7.2221770  53.3092110  88.7866700   2.6085740  64.5865680
  88.4281640   3.2739590  65.1739020  88.4921260   1.7769290  64.9578300
  91.9879820   3.0669980  67.4705230  91.6879960   3.2127160  66.5733050
  92.7591060   2.5075270  67.3778620  97.3308270   7.8638980  65.4660360
  97.3452810   6.9319940  65.2479270  96.6233370   7.9498740  66.1050130
 102.4645340   2.0478800  51.7358970 102.3809060   2.4793020  50.8855410
 103.1839530   2.5077150  52.1685790 103.5419480   4.5046320  64.8128940
 102.8167670   5.0975100  64.6158330 104.0694940   4.4969860  64.0142310
 103.4932590   8.9021060  54.4641100 102.8508750   8.2476680  54.7384820
 103.1063250   9.3076150  53.6881770  99.0719070   6.2306490  58.3112790
  99.4242890   5.6334620  57.6514160  98.1881400   5.9050720  58.4821040
  95.1582350   6.9904180  55.7183200  95.8453480   7.5373390  56.0990790
  94.3714770   7.5344910  55.7532810  87.2974750   2.6077000  51.2100280
  88.1669600   2.8901800  51.4936200  86.8065070   3.4212870  51.0949090
  94.4609560   3.9950210  55.3308560  94.9172340   4.8055460  55.5568750
  94.1097770   3.6773350  56.1627050  96.7642170   9.5056550  62.5600860
  97.4084390   9.7115930  63.2374280  97.1271610   8.7444950  62.1071710
  98.0374250   7.5088900  61.2778310  98.6796480   6.8082060  61.3910480
  98.5623600   8.2887340  61.0975200 101.8829970   7.7937520  51.0017450
 101.6567550   7.0767960  51.5942090 101.4926170   7.5449960  50.1639200
  99.8111870   8.3083800  64.4814370 100.1468110   8.8950490  65.1592290
  98.8912210   8.1776510  64.7112160  87.6646000  11.8204380  51.7761910
  88.0243640  12.4193720  51.1219180  87.5238340  12.3664270  52.5496940
 101.4646220   5.7109460  52.6631610 101.1767920   6.1722150  53.4509490
 102.2598390   5.2507230  52.9315830  87.6487860  10.0859240  66.2504310
  87.7578980   9.1453980  66.1099700  86.9968420  10.3513990  65.6018040
  95.6400450   8.3575130  67.6502430  95.3197320   7.6384370  68.1948120
  94.9658810   9.0330200  67.7238490  93.6814620   9.2035580  52.5935580
  93.6724720   9.9365270  51.9780090  92.7612980   8.9567160  52.6862540
  89.2821260   4.4250470  53.3382340  88.6749210   5.1649370  53.3477640
  89.7570610   4.5149830  52.5120540  96.6674220   9.2663820  51.2560770
  96.7686200   9.0627810  50.3262750  95.7675960   9.0122100  51.4608550
  95.3092330  11.7850140  55.9508440  95.5633830  11.7471530  55.0287810
  94.3604810  11.6583470  55.9436690 101.3144910   2.7042020  57.5266950
 100.3735050   2.7192250  57.7014640 101.6288980   1.9177980  57.9727250
  91.2926550   4.3861620  51.0870910  92.0589820   4.2742980  51.6496340
  91.3701240   3.6899590  50.4347680 103.3170490   9.8750870  59.2021210
 103.4417910  10.6982040  59.6745020 104.1836050   9.6641600  58.8545360
  90.7888020  11.9682080  58.8738340  91.5250500  11.4197540  59.1446910
  91.1728940  12.8338090  58.7344330  87.6733500   8.0355650  54.7479850
  86.7473280   8.2776790  54.7385260  88.1389930   8.8629910  54.6264600
  89.7946300  11.1528150  68.0623920  90.5959030  11.4740200  68.4759320
  89.2798120  10.7923730  68.7843830  93.8990330  11.1412390  50.6963910
  94.6918940  11.4301220  50.2445700  93.3794680  10.7104560  50.0176390
  98.6310930   7.2608020  68.0099330  98.0249090   7.2839620  67.2695080
  98.3265040   6.5291060  68.5466580 100.0611300  10.9888310  66.6208740
 101.0133050  10.9046330  66.5708980  99.9139520  11.6530020  67.2942530
 102.9520500  10.3682520  52.1200650 102.6662010   9.9547660  51.3054830
 102.7540050  11.2970230  52.0001170  87.5144110   3.6401610  67.0059970
  88.0183130   3.0608890  67.5776200  86.7751530   3.9241840  67.5436340
  94.4167730   6.3615800  50.5606260  94.3118370   5.7468150  51.2867640
  94.2491950   5.8381690  49.7769270  94.5682050   5.0472600  66.5395490
  93.8027720   5.6157600  66.4550160  94.7498010   4.7548810  65.6463720
  97.6570460   5.4235830  51.1648250  97.1080560   5.8705130  51.8090990
  98.2789720   4.9185080  51.6885920 101.7105400   6.7777930  67.0970510
 102.4514870   7.1153690  66.5937970 100.9478080   6.9469990  66.5440280
  93.3245580   4.3826750  53.0613550  93.7462000   4.2166620  53.9044940
  93.4496420   3.5726980  52.5668690  95.8373220   3.4064360  50.3090650
  96.3578880   2.6913380  49.9431800  96.4841620   4.0450230  50.6091160
 100.3851060   4.8292760  65.6325720 100.7992080   4.9837840  66.4816140
  99.4502060   4.9547980  65.7951500  95.1466290   4.7813240  63.6021650
  95.5654400   5.6245970  63.4297890  94.2274920   4.9185280  63.3728430
  97.4830190   2.5129420  64.9859490  97.6026400   1.9170560  65.7254330
  98.3424190   2.5499110  64.5660790  99.8218090   3.0666610  63.5622000
  99.2953310   3.5909230  62.9587140 100.1649430   3.6994000  64.1931730
  92.9973710  11.0866250  64.7179380  92.4594800  11.8112310  64.3988080
  93.2507670  10.6096590  63.9276720  95.8535920  12.3217460  64.9766030
  95.7794620  13.2252600  65.2838400  94.9514760  12.0029360  64.9488100
  96.4021250  11.4875970  52.5992390  97.2972040  11.8260940  52.6211150
  96.4338880  10.7655380  51.9716670  90.0417410   6.8603020  50.8279390
  90.4792280   7.4032690  51.4836970  90.5265140   6.0349970  50.8375730
  87.2563210   9.6492050  58.2799650  87.5866220   8.7813110  58.0478290
  87.6854210   9.8550570  59.1104610  91.8525130   7.9801060  55.9401620
  91.5520670   7.8566030  56.8405530  91.7462620   7.1209650  55.5317350
  87.7453420  10.5162640  61.0181280  87.3084410  10.6963440  61.8505430
  88.3131100  11.2737260  60.8763000 103.3815600  10.0179640  65.3058590
 102.7817590  10.0772200  64.5622510 103.5109500   9.0784620  65.4355440
 104.6217050   7.7597460  50.6428300 103.7910010   7.8274110  51.1135530
 104.7988880   8.6501580  50.3395160 104.0773510   4.5044940  53.1462500
 104.8392420   5.0741590  53.2522190 104.0927880   3.9372140  53.9170810
  87.5777850   3.0282870  57.3770160  86.9226690   2.7594510  56.7329860
  88.4155800   2.9187350  56.9272140 105.0833480   5.3595040  57.9904430
 105.4542310   4.5762360  57.5840400 105.7235410   6.0484140  57.8121730
 102.0667240   6.7431620  63.4034750 101.2527080   7.1728780  63.6660540
 102.4741440   7.3550030  62.7903800 104.1292680   4.7979310  50.3035020
 104.4041520   5.7058190  50.1754240 103.9403420   4.7341840  51.2397010
 104.0258020   2.7348300  55.2964450 103.6501620   1.9676230  54.8645740
 103.2961140   3.1171000  55.7839380  88.6153780   3.4135440  61.9173500
  88.9826820   3.3262840  62.7969520  88.0464600   2.6501990  61.8180360
 103.4157640   1.8819820  64.9303970 103.1843730   1.6532570  64.0301920
 103.6762190   2.8019370  64.8848860 102.1243290  11.4950220  56.9303020
 102.7202360  11.1734790  56.2537440 102.3821440  11.0222040  57.7216290
  90.0305860   7.9268130  67.0793650  89.9875490   7.5561040  67.9608110
  90.1616870   8.8645700  67.2195470  93.7311890   9.4827720  62.6803370
  93.4903250   9.7502280  61.7933890  94.6714530   9.6533450  62.7354230
 104.9916050  11.5022100  63.4814010 104.4974330  11.8990970  62.7641140
 104.3829340  10.8771310  63.8751290  89.8693890  10.8730380  64.1991430
  89.2754210  10.7415080  64.9381470  89.8617730  10.0368520  63.7333530
 102.6755500  12.1445520  60.7600750 102.2158470  12.8961330  60.3858770
 102.0467960  11.4251990  60.7015550  89.5006120   8.2388760  63.1499470
  88.7740180   7.6194050  63.0825420  89.5615270   8.6329370  62.2797550
  93.1051220  10.4533760  59.9348880  93.6216240   9.8421120  59.4097140
  93.7548600  10.9562540  60.4259890  95.8446720  11.3442250  60.7617860
  96.1324530  11.0896550  59.8850870  96.3569940  10.7919610  61.3523430
  87.7836120  11.5563150  56.3596230  87.6158160  10.9233830  57.0578120
  86.9170630  11.7622550  56.0090420  89.3898820  10.2496380  53.8046370
  88.8646440  10.6304410  53.1008330  89.3143400  10.8747150  54.5256080
  95.9119080  12.2658350  68.1286060  96.8386390  12.0302620  68.1722020
  95.8969510  13.0930350  67.6472090 104.1464140  11.8083920  55.1260310
 104.3216330  11.1221660  54.4821230 103.4485710  12.3330970  54.7336980
  91.9891790  12.1978760  52.6795620  92.7210610  11.9138040  52.1319510
  92.2485460  11.9592040  53.5695000  91.1506580   8.3143490  52.6841950
  90.5215460   8.7828590  53.2327780  91.2654410   7.4692710  53.1188140
 102.4796640  11.4928210  67.9527100 103.2721960  10.9977440  67.7453060
 102.7729790  12.1718350  68.5602710  96.7374340   4.1428170  40.7152420
  95.9616440   3.6628610  41.0050990  97.3887270   3.4633820  40.5408580
  90.7540170   4.4547980  41.5928180  89.9225050   4.1996690  41.9924690
  91.3621150   4.5258750  42.3286100 100.7581770   8.5488360  39.4951550
 100.2963300   7.7775600  39.8238720 101.5707320   8.5754430  40.0004000
  90.7341430   8.4888070  41.7886200  91.0369470   7.5985810  41.6096420
  91.4785020   9.0458290  41.5608450  96.9845080  10.8346370  39.1155540
  96.3656520  11.2903870  38.5449980  97.8396860  10.9897830  38.7145240
  96.1783330   6.8185360  40.7222580  96.1091610   5.8775300  40.5611710
  96.9403190   6.9086770  41.2945150  97.8508430   5.7185610  36.5087450
  97.2325700   6.1835060  35.9450170  98.3631680   6.4113090  36.9256960
  92.7140190   5.2461480  43.1871050  92.3809570   5.8730400  43.8292120
  92.8906870   5.7723360  42.4072720  91.9259290   7.2142280  45.0020230
  92.5433290   7.8893360  44.7204680  91.0652410   7.6230260  44.9107730
  87.2191630   6.4042140  33.8827080  86.8419610   6.8929240  33.1511980
  87.4764700   7.0767420  34.5133610 102.8436880   8.6781690  42.9174870
 102.1600400   9.3480800  42.9091540 103.3831170   8.8762340  42.1519730
 100.3795620  10.5225820  41.6320050 100.3922780  10.1188110  40.7642310
  99.8270840  11.2973110  41.5281480 101.6741040   7.2442040  36.7210220
 101.5637370   6.3016370  36.8459640 101.6709290   7.6057680  37.6072980
  99.7781060   5.4255660  42.9602660 100.1949850   5.2115770  42.1256120
 100.5020880   5.6828450  43.5311280  97.2161320   2.8707360  36.0772710
  96.2890600   2.8044740  36.3061180  97.3686140   3.8087490  35.9627950
 103.7243160   3.8242880  43.0518900 102.8961790   3.8935970  42.5769030
 104.3193640   4.4097190  42.5834730 101.2458610   4.4327660  36.5807960
 100.6271030   4.0947210  35.9334260 101.2283060   3.7887420  37.2887150
  92.8217960   3.3972100  38.8592440  92.4174960   2.6849350  38.3638340
  92.9081080   3.0525340  39.7480480  93.2899660   7.0839660  41.0231650
  92.9927950   6.4785130  40.3439430  94.2399480   7.1216970  40.9121010
 101.3785270  10.6571530  44.6854750 100.9015830  11.4643720  44.4927360
 100.6947060  10.0049860  44.8380960  92.3818090   6.8221350  47.6739450
  91.4846620   7.0461320  47.9212850  92.4070960   6.9456290  46.7250850
  99.4223310   3.6714470  33.5880710  99.8616590   2.8336900  33.4418530
 100.1351730   4.3043870  33.6744850  91.2089310   3.6934670  46.2496820
  91.0697080   4.5657470  46.6184220  90.3270670   3.3507480  46.1044760
  97.5318690   8.6110540  37.5561950  97.9714600   9.3534870  37.1417340
  97.4705580   8.8537110  38.4800910  93.0069660   9.6356370  48.4581970
  92.9785090  10.0399320  47.5910400  92.8434630   8.7066730  48.2953570
 104.9584480  10.4183470  49.7546140 105.4344200  10.8966360  50.4335220
 105.5791640  10.3500960  49.0291640  87.1607960   5.4632220  42.1667730
  87.2388380   5.5980990  41.2223450  87.7749640   4.7548110  42.3595850
  88.4055590   7.1632410  38.5773910  87.9983670   7.3047000  37.7227510
  89.2968600   6.8792570  38.3745120 104.3617730   7.6096320  46.9146150
 104.4880790   7.3708200  45.9963330 104.4039110   6.7780860  47.3868230
  98.2234470  11.3124320  45.4840960  98.7379140  11.2232330  46.2863390
  97.3803550  11.6584020  45.7768870 100.1988870  11.5979660  34.9124960
 100.0390010  11.3082600  35.8106790 100.0335580  10.8219790  34.3770190
  92.6777250  11.3778190  36.6896580  92.5019730  10.4613730  36.4764380
  91.8232990  11.7365480  36.9294380  99.9015000   9.1067220  33.4722960
  99.2080160   9.1044510  32.8125240 100.6437860   8.6826540  33.0417130
  99.4664930  10.7329930  37.5471450  99.9221880   9.9519310  37.8610070
  99.8057450  11.4436750  38.0912630  87.2167480   6.5046390  44.7062190
  87.3798520   6.0351750  43.8881560  87.6819930   5.9969950  45.3711030
  88.7906460   5.8797820  46.8658000  88.4061250   5.2391490  47.4640960
  89.1018650   6.5833940  47.4352730  94.9403600   2.7274360  42.3466620
  95.3073730   2.2532930  43.0927960  94.7508660   3.6015930  42.6874960
  92.7302970   1.7683000  44.6650830  92.4260040   2.6474980  44.8901190
  93.6849430   1.8282790  44.7008270  91.2584760   5.9743990  35.2617680
  90.4847020   5.4341610  35.1016400  91.9879390   5.4550600  34.9235440
 102.0172740   4.9709350  41.0544070 102.7371860   5.4664640  40.6640180
 101.8154560   4.2927240  40.4097940  97.3991540   5.0418410  46.9413070
  97.3328850   4.1214080  46.6870660  96.7696680   5.1393850  47.6557710
  91.3022160   5.6424370  38.8996490  91.8200830   4.8392630  38.8453380
  90.8506180   5.5803510  39.7413320  96.1891660   6.9090650  34.1723790
  96.5307360   7.6532880  33.6767110  95.3604370   7.2221770  34.5348620
  88.7866700   2.6085740  45.8122190  88.4281640   3.2739590  46.3995530
  88.4921260   1.7769290  46.1834810  91.9879820   3.0669980  48.6961740
  91.6879960   3.2127160  47.7989560  92.7591060   2.5075270  48.6035130
  97.3308270   7.8638980  46.6916870  97.3452810   6.9319940  46.4735780
  96.6233370   7.9498740  47.3306640 102.4645340   2.0478800  32.9615480
 102.3809060   2.4793020  32.1111920 103.1839530   2.5077150  33.3942300
 103.5419480   4.5046320  46.0385450 102.8167670   5.0975100  45.8414840
 104.0694940   4.4969860  45.2398820 103.4932590   8.9021060  35.6897610
 102.8508750   8.2476680  35.9641330 103.1063250   9.3076150  34.9138280
  99.0719070   6.2306490  39.5369300  99.4242890   5.6334620  38.8770670
  98.1881400   5.9050720  39.7077550  95.1582350   6.9904180  36.9439710
  95.8453480   7.5373390  37.3247300  94.3714770   7.5344910  36.9789320
  87.2974750   2.6077000  32.4356790  88.1669600   2.8901800  32.7192710
  86.8065070   3.4212870  32.3205600  94.4609560   3.9950210  36.5565070
  94.9172340   4.8055460  36.7825260  94.1097770   3.6773350  37.3883560
  96.7642170   9.5056550  43.7857370  97.4084390   9.7115930  44.4630790
  97.1271610   8.7444950  43.3328220  98.0374250   7.5088900  42.5034820
  98.6796480   6.8082060  42.6166990  98.5623600   8.2887340  42.3231710
 101.8829970   7.7937520  32.2273960 101.6567550   7.0767960  32.8198600
 101.4926170   7.5449960  31.3895710  99.8111870   8.3083800  45.7070880
 100.1468110   8.8950490  46.3848800  98.8912210   8.1776510  45.9368670
  87.6646000  11.8204380  33.0018420  88.0243640  12.4193720  32.3475690
  87.5238340  12.3664270  33.7753450 101.4646220   5.7109460  33.8888120
 101.1767920   6.1722150  34.6766000 102.2598390   5.2507230  34.1572340
  87.6487860  10.0859240  47.4760820  87.7578980   9.1453980  47.3356210
  86.9968420  10.3513990  46.8274550  95.6400450   8.3575130  48.8758940
  95.3197320   7.6384370  49.4204630  94.9658810   9.0330200  48.9495000
  93.6814620   9.2035580  33.8192090  93.6724720   9.9365270  33.2036600
  92.7612980   8.9567160  33.9119050  89.2821260   4.4250470  34.5638850
  88.6749210   5.1649370  34.5734150  89.7570610   4.5149830  33.7377050
  96.6674220   9.2663820  32.4817280  96.7686200   9.0627810  31.5519260
  95.7675960   9.0122100  32.6865060  95.3092330  11.7850140  37.1764950
  95.5633830  11.7471530  36.2544320  94.3604810  11.6583470  37.1693200
 101.3144910   2.7042020  38.7523460 100.3735050   2.7192250  38.9271150
 101.6288980   1.9177980  39.1983760  91.2926550   4.3861620  32.3127420
  92.0589820   4.2742980  32.8752850  91.3701240   3.6899590  31.6604190
 103.3170490   9.8750870  40.4277720 103.4417910  10.6982040  40.9001530
 104.1836050   9.6641600  40.0801870  90.7888020  11.9682080  40.0994850
  91.5250500  11.4197540  40.3703420  91.1728940  12.8338090  39.9600840
  87.6733500   8.0355650  35.9736360  86.7473280   8.2776790  35.9641770
  88.1389930   8.8629910  35.8521110  89.7946300  11.1528150  49.2880430
  90.5959030  11.4740200  49.7015830  89.2798120  10.7923730  50.0100340
  93.8990330  11.1412390  31.9220420  94.6918940  11.4301220  31.4702210
  93.3794680  10.7104560  31.2432900  98.6310930   7.2608020  49.2355840
  98.0249090   7.2839620  48.4951590  98.3265040   6.5291060  49.7723090
 100.0611300  10.9888310  47.8465250 101.0133050  10.9046330  47.7965490
  99.9139520  11.6530020  48.5199040 102.9520500  10.3682520  33.3457160
 102.6662010   9.9547660  32.5311340 102.7540050  11.2970230  33.2257680
  87.5144110   3.6401610  48.2316480  88.0183130   3.0608890  48.8032710
  86.7751530   3.9241840  48.7692850  94.4167730   6.3615800  31.7862770
  94.3118370   5.7468150  32.5124150  94.2491950   5.8381690  31.0025780
  94.5682050   5.0472600  47.7652000  93.8027720   5.6157600  47.6806670
  94.7498010   4.7548810  46.8720230  97.6570460   5.4235830  32.3904760
  97.1080560   5.8705130  33.0347500  98.2789720   4.9185080  32.9142430
 101.7105400   6.7777930  48.3227020 102.4514870   7.1153690  47.8194480
 100.9478080   6.9469990  47.7696790  93.3245580   4.3826750  34.2870060
  93.7462000   4.2166620  35.1301450  93.4496420   3.5726980  33.7925200
  95.8373220   3.4064360  31.5347160  96.3578880   2.6913380  31.1688310
  96.4841620   4.0450230  31.8347670 100.3851060   4.8292760  46.8582230
 100.7992080   4.9837840  47.7072650  99.4502060   4.9547980  47.0208010
  95.1466290   4.7813240  44.8278160  95.5654400   5.6245970  44.6554400
  94.2274920   4.9185280  44.5984940  97.4830190   2.5129420  46.2116000
  97.6026400   1.9170560  46.9510840  98.3424190   2.5499110  45.7917300
  99.8218090   3.0666610  44.7878510  99.2953310   3.5909230  44.1843650
 100.1649430   3.6994000  45.4188240  92.9973710  11.0866250  45.9435890
  92.4594800  11.8112310  45.6244590  93.2507670  10.6096590  45.1533230
  95.8535920  12.3217460  46.2022540  95.7794620  13.2252600  46.5094910
  94.9514760  12.0029360  46.1744610  96.4021250  11.4875970  33.8248900
  97.2972040  11.8260940  33.8467660  96.4338880  10.7655380  33.1973180
  90.0417410   6.8603020  32.0535900  90.4792280   7.4032690  32.7093480
  90.5265140   6.0349970  32.0632240  87.2563210   9.6492050  39.5056160
  87.5866220   8.7813110  39.2734800  87.6854210   9.8550570  40.3361120
  91.8525130   7.9801060  37.1658130  91.5520670   7.8566030  38.0662040
  91.7462620   7.1209650  36.7573860  87.7453420  10.5162640  42.2437790
  87.3084410  10.6963440  43.0761940  88.3131100  11.2737260  42.1019510
 103.3815600  10.0179640  46.5315100 102.7817590  10.0772200  45.7879020
 103.5109500   9.0784620  46.6611950 104.6217050   7.7597460  31.8684810
 103.7910010   7.8274110  32.3392040 104.7988880   8.6501580  31.5651670
 104.0773510   4.5044940  34.3719010 104.8392420   5.0741590  34.4778700
 104.0927880   3.9372140  35.1427320  87.5777850   3.0282870  38.6026670
  86.9226690   2.7594510  37.9586370  88.4155800   2.9187350  38.1528650
 105.0833480   5.3595040  39.2160940 105.4542310   4.5762360  38.8096910
 105.7235410   6.0484140  39.0378240 102.0667240   6.7431620  44.6291260
 101.2527080   7.1728780  44.8917050 102.4741440   7.3550030  44.0160310
 104.1292680   4.7979310  31.5291530 104.4041520   5.7058190  31.4010750
 103.9403420   4.7341840  32.4653520 104.0258020   2.7348300  36.5220960
 103.6501620   1.9676230  36.0902250 103.2961140   3.1171000  37.0095890
  88.6153780   3.4135440  43.1430010  88.9826820   3.3262840  44.0226030
  88.0464600   2.6501990  43.0436870 103.4157640   1.8819820  46.1560480
 103.1843730   1.6532570  45.2558430 103.6762190   2.8019370  46.1105370
 102.1243290  11.4950220  38.1559530 102.7202360  11.1734790  37.4793950
 102.3821440  11.0222040  38.9472800  90.0305860   7.9268130  48.3050160
  89.9875490   7.5561040  49.1864620  90.1616870   8.8645700  48.4451980
  93.7311890   9.4827720  43.9059880  93.4903250   9.7502280  43.0190400
  94.6714530   9.6533450  43.9610740 104.9916050  11.5022100  44.7070520
 104.4974330  11.8990970  43.9897650 104.3829340  10.8771310  45.1007800
  89.8693890  10.8730380  45.4247940  89.2754210  10.7415080  46.1637980
  89.8617730  10.0368520  44.9590040 102.6755500  12.1445520  41.9857260
 102.2158470  12.8961330  41.6115280 102.0467960  11.4251990  41.9272060
  89.5006120   8.2388760  44.3755980  88.7740180   7.6194050  44.3081930
  89.5615270   8.6329370  43.5054060  93.1051220  10.4533760  41.1605390
  93.6216240   9.8421120  40.6353650  93.7548600  10.9562540  41.6516400
  95.8446720  11.3442250  41.9874370  96.1324530  11.0896550  41.1107380
  96.3569940  10.7919610  42.5779940  87.7836120  11.5563150  37.5852740
  87.6158160  10.9233830  38.2834630  86.9170630  11.7622550  37.2346930
  89.3898820  10.2496380  35.0302880  88.8646440  10.6304410  34.3264840
  89.3143400  10.8747150  35.7512590  95.9119080  12.2658350  49.3542570
  96.8386390  12.0302620  49.3978530  95.8969510  13.0930350  48.8728600
 104.1464140  11.8083920  36.3516820 104.3216330  11.1221660  35.7077740
 103.4485710  12.3330970  35.9593490  91.9891790  12.1978760  33.9052130
  92.7210610  11.9138040  33.3576020  92.2485460  11.9592040  34.7951510
  91.1506580   8.3143490  33.9098460  90.5215460   8.7828590  34.4584290
  91.2654410   7.4692710  34.3444650 102.4796640  11.4928210  49.1783610
 103.2721960  10.9977440  48.9709570 102.7729790  12.1718350  49.7859220
  96.7374340   4.1428170  21.9408930  95.9616440   3.6628610  22.2307500
  97.3887270   3.4633820  21.7665090  90.7540170   4.4547980  22.8184690
  89.9225050   4.1996690  23.2181200  91.3621150   4.5258750  23.5542610
 100.7581770   8.5488360  20.7208060 100.2963300   7.7775600  21.0495230
 101.5707320   8.5754430  21.2260510  90.7341430   8.4888070  23.0142710
  91.0369470   7.5985810  22.8352930  91.4785020   9.0458290  22.7864960
  96.9845080  10.8346370  20.3412050  96.3656520  11.2903870  19.7706490
  97.8396860  10.9897830  19.9401750  96.1783330   6.8185360  21.9479090
  96.1091610   5.8775300  21.7868220  96.9403190   6.9086770  22.5201660
  97.8508430   5.7185610  17.7343960  97.2325700   6.1835060  17.1706680
  98.3631680   6.4113090  18.1513470  92.7140190   5.2461480  24.4127560
  92.3809570   5.8730400  25.0548630  92.8906870   5.7723360  23.6329230
  91.9259290   7.2142280  26.2276740  92.5433290   7.8893360  25.9461190
  91.0652410   7.6230260  26.1364240  87.2191630   6.4042140  15.1083590
  86.8419610   6.8929240  14.3768490  87.4764700   7.0767420  15.7390120
 102.8436880   8.6781690  24.1431380 102.1600400   9.3480800  24.1348050
 103.3831170   8.8762340  23.3776240 100.3795620  10.5225820  22.8576560
 100.3922780  10.1188110  21.9898820  99.8270840  11.2973110  22.7537990
 101.6741040   7.2442040  17.9466730 101.5637370   6.3016370  18.0716150
 101.6709290   7.6057680  18.8329490  99.7781060   5.4255660  24.1859170
 100.1949850   5.2115770  23.3512630 100.5020880   5.6828450  24.7567790
  97.2161320   2.8707360  17.3029220  96.2890600   2.8044740  17.5317690
  97.3686140   3.8087490  17.1884460 103.7243160   3.8242880  24.2775410
 102.8961790   3.8935970  23.8025540 104.3193640   4.4097190  23.8091240
 101.2458610   4.4327660  17.8064470 100.6271030   4.0947210  17.1590770
 101.2283060   3.7887420  18.5143660  92.8217960   3.3972100  20.0848950
  92.4174960   2.6849350  19.5894850  92.9081080   3.0525340  20.9736990
  93.2899660   7.0839660  22.2488160  92.9927950   6.4785130  21.5695940
  94.2399480   7.1216970  22.1377520 101.3785270  10.6571530  25.9111260
 100.9015830  11.4643720  25.7183870 100.6947060  10.0049860  26.0637470
  92.3818090   6.8221350  28.8995960  91.4846620   7.0461320  29.1469360
  92.4070960   6.9456290  27.9507360  99.4223310   3.6714470  14.8137220
  99.8616590   2.8336900  14.6675040 100.1351730   4.3043870  14.9001360
  91.2089310   3.6934670  27.4753330  91.0697080   4.5657470  27.8440730
  90.3270670   3.3507480  27.3301270  97.5318690   8.6110540  18.7818460
  97.9714600   9.3534870  18.3673850  97.4705580   8.8537110  19.7057420
  93.0069660   9.6356370  29.6838480  92.9785090  10.0399320  28.8166910
  92.8434630   8.7066730  29.5210080 104.9584480  10.4183470  30.9802650
 105.4344200  10.8966360  31.6591730 105.5791640  10.3500960  30.2548150
  87.1607960   5.4632220  23.3924240  87.2388380   5.5980990  22.4479960
  87.7749640   4.7548110  23.5852360  88.4055590   7.1632410  19.8030420
  87.9983670   7.3047000  18.9484020  89.2968600   6.8792570  19.6001630
 104.3617730   7.6096320  28.1402660 104.4880790   7.3708200  27.2219840
 104.4039110   6.7780860  28.6124740  98.2234470  11.3124320  26.7097470
  98.7379140  11.2232330  27.5119900  97.3803550  11.6584020  27.0025380
 100.1988870  11.5979660  16.1381470 100.0390010  11.3082600  17.0363300
 100.0335580  10.8219790  15.6026700  92.6777250  11.3778190  17.9153090
  92.5019730  10.4613730  17.7020890  91.8232990  11.7365480  18.1550890
  99.9015000   9.1067220  14.6979470  99.2080160   9.1044510  14.0381750
 100.6437860   8.6826540  14.2673640  99.4664930  10.7329930  18.7727960
  99.9221880   9.9519310  19.0866580  99.8057450  11.4436750  19.3169140
  87.2167480   6.5046390  25.9318700  87.3798520   6.0351750  25.1138070
  87.6819930   5.9969950  26.5967540  88.7906460   5.8797820  28.0914510
  88.4061250   5.2391490  28.6897470  89.1018650   6.5833940  28.6609240
  94.9403600   2.7274360  23.5723130  95.3073730   2.2532930  24.3184470
  94.7508660   3.6015930  23.9131470  92.7302970   1.7683000  25.8907340
  92.4260040   2.6474980  26.1157700  93.6849430   1.8282790  25.9264780
  91.2584760   5.9743990  16.4874190  90.4847020   5.4341610  16.3272910
  91.9879390   5.4550600  16.1491950 102.0172740   4.9709350  22.2800580
 102.7371860   5.4664640  21.8896690 101.8154560   4.2927240  21.6354450
  97.3991540   5.0418410  28.1669580  97.3328850   4.1214080  27.9127170
  96.7696680   5.1393850  28.8814220  91.3022160   5.6424370  20.1253000
  91.8200830   4.8392630  20.0709890  90.8506180   5.5803510  20.9669830
  96.1891660   6.9090650  15.3980300  96.5307360   7.6532880  14.9023620
  95.3604370   7.2221770  15.7605130  88.7866700   2.6085740  27.0378700
  88.4281640   3.2739590  27.6252040  88.4921260   1.7769290  27.4091320
  91.9879820   3.0669980  29.9218250  91.6879960   3.2127160  29.0246070
  92.7591060   2.5075270  29.8291640  97.3308270   7.8638980  27.9173380
  97.3452810   6.9319940  27.6992290  96.6233370   7.9498740  28.5563150
 102.4645340   2.0478800  14.1871990 102.3809060   2.4793020  13.3368430
 103.1839530   2.5077150  14.6198810 103.5419480   4.5046320  27.2641960
 102.8167670   5.0975100  27.0671350 104.0694940   4.4969860  26.4655330
 103.4932590   8.9021060  16.9154120 102.8508750   8.2476680  17.1897840
 103.1063250   9.3076150  16.1394790  99.0719070   6.2306490  20.7625810
  99.4242890   5.6334620  20.1027180  98.1881400   5.9050720  20.9334060
  95.1582350   6.9904180  18.1696220  95.8453480   7.5373390  18.5503810
  94.3714770   7.5344910  18.2045830  87.2974750   2.6077000  13.6613300
  88.1669600   2.8901800  13.9449220  86.8065070   3.4212870  13.5462110
  94.4609560   3.9950210  17.7821580  94.9172340   4.8055460  18.0081770
  94.1097770   3.6773350  18.6140070  96.7642170   9.5056550  25.0113880
  97.4084390   9.7115930  25.6887300  97.1271610   8.7444950  24.5584730
  98.0374250   7.5088900  23.7291330  98.6796480   6.8082060  23.8423500
  98.5623600   8.2887340  23.5488220 101.8829970   7.7937520  13.4530470
 101.6567550   7.0767960  14.0455110 101.4926170   7.5449960  12.6152220
  99.8111870   8.3083800  26.9327390 100.1468110   8.8950490  27.6105310
  98.8912210   8.1776510  27.1625180  87.6646000  11.8204380  14.2274930
  88.0243640  12.4193720  13.5732200  87.5238340  12.3664270  15.0009960
 101.4646220   5.7109460  15.1144630 101.1767920   6.1722150  15.9022510
 102.2598390   5.2507230  15.3828850  87.6487860  10.0859240  28.7017330
  87.7578980   9.1453980  28.5612720  86.9968420  10.3513990  28.0531060
  95.6400450   8.3575130  30.1015450  95.3197320   7.6384370  30.6461140
  94.9658810   9.0330200  30.1751510  93.6814620   9.2035580  15.0448600
  93.6724720   9.9365270  14.4293110  92.7612980   8.9567160  15.1375560
  89.2821260   4.4250470  15.7895360  88.6749210   5.1649370  15.7990660
  89.7570610   4.5149830  14.9633560  96.6674220   9.2663820  13.7073790
  96.7686200   9.0627810  12.7775770  95.7675960   9.0122100  13.9121570
  95.3092330  11.7850140  18.4021460  95.5633830  11.7471530  17.4800830
  94.3604810  11.6583470  18.3949710 101.3144910   2.7042020  19.9779970
 100.3735050   2.7192250  20.1527660 101.6288980   1.9177980  20.4240270
  91.2926550   4.3861620  13.5383930  92.0589820   4.2742980  14.1009360
  91.3701240   3.6899590  12.8860700 103.3170490   9.8750870  21.6534230
 103.4417910  10.6982040  22.1258040 104.1836050   9.6641600  21.3058380
  90.7888020  11.9682080  21.3251360  91.5250500  11.4197540  21.5959930
  91.1728940  12.8338090  21.1857350  87.6733500   8.0355650  17.1992870
  86.7473280   8.2776790  17.1898280  88.1389930   8.8629910  17.0777620
  89.7946300  11.1528150  30.5136940  90.5959030  11.4740200  30.9272340
  89.2798120  10.7923730  31.2356850  93.8990330  11.1412390  13.1476930
  94.6918940  11.4301220  12.6958720  93.3794680  10.7104560  12.4689410
  98.6310930   7.2608020  30.4612350  98.0249090   7.2839620  29.7208100
  98.3265040   6.5291060  30.9979600 100.0611300  10.9888310  29.0721760
 101.0133050  10.9046330  29.0222000  99.9139520  11.6530020  29.7455550
 102.9520500  10.3682520  14.5713670 102.6662010   9.9547660  13.7567850
 102.7540050  11.2970230  14.4514190  87.5144110   3.6401610  29.4572990
  88.0183130   3.0608890  30.0289220  86.7751530   3.9241840  29.9949360
  94.4167730   6.3615800  13.0119280  94.3118370   5.7468150  13.7380660
  94.2491950   5.8381690  12.2282290  94.5682050   5.0472600  28.9908510
  93.8027720   5.6157600  28.9063180  94.7498010   4.7548810  28.0976740
  97.6570460   5.4235830  13.6161270  97.1080560   5.8705130  14.2604010
  98.2789720   4.9185080  14.1398940 101.7105400   6.7777930  29.5483530
 102.4514870   7.1153690  29.0450990 100.9478080   6.9469990  28.9953300
  93.3245580   4.3826750  15.5126570  93.7462000   4.2166620  16.3557960
  93.4496420   3.5726980  15.0181710  95.8373220   3.4064360  12.7603670
  96.3578880   2.6913380  12.3944820  96.4841620   4.0450230  13.0604180
 100.3851060   4.8292760  28.0838740 100.7992080   4.9837840  28.9329160
  99.4502060   4.9547980  28.2464520  95.1466290   4.7813240  26.0534670
  95.5654400   5.6245970  25.8810910  94.2274920   4.9185280  25.8241450
  97.4830190   2.5129420  27.4372510  97.6026400   1.9170560  28.1767350
  98.3424190   2.5499110  27.0173810  99.8218090   3.0666610  26.0135020
  99.2953310   3.5909230  25.4100160 100.1649430   3.6994000  26.6444750
  92.9973710  11.0866250  27.1692400  92.4594800  11.8112310  26.8501100
  93.2507670  10.6096590  26.3789740  95.8535920  12.3217460  27.4279050
  95.7794620  13.2252600  27.7351420  94.9514760  12.0029360  27.4001120
  96.4021250  11.4875970  15.0505410  97.2972040  11.8260940  15.0724170
  96.4338880  10.7655380  14.4229690  90.0417410   6.8603020  13.2792410
  90.4792280   7.4032690  13.9349990  90.5265140   6.0349970  13.2888750
  87.2563210   9.6492050  20.7312670  87.5866220   8.7813110  20.4991310
  87.6854210   9.8550570  21.5617630  91.8525130   7.9801060  18.3914640
  91.5520670   7.8566030  19.2918550  91.7462620   7.1209650  17.9830370
  87.7453420  10.5162640  23.4694300  87.3084410  10.6963440  24.3018450
  88.3131100  11.2737260  23.3276020 103.3815600  10.0179640  27.7571610
 102.7817590  10.0772200  27.0135530 103.5109500   9.0784620  27.8868460
 104.6217050   7.7597460  13.0941320 103.7910010   7.8274110  13.5648550
 104.7988880   8.6501580  12.7908180 104.0773510   4.5044940  15.5975520
 104.8392420   5.0741590  15.7035210 104.0927880   3.9372140  16.3683830
  87.5777850   3.0282870  19.8283180  86.9226690   2.7594510  19.1842880
  88.4155800   2.9187350  19.3785160 105.0833480   5.3595040  20.4417450
 105.4542310   4.5762360  20.0353420 105.7235410   6.0484140  20.2634750
 102.0667240   6.7431620  25.8547770 101.2527080   7.1728780  26.1173560
 102.4741440   7.3550030  25.2416820 104.1292680   4.7979310  12.7548040
 104.4041520   5.7058190  12.6267260 103.9403420   4.7341840  13.6910030
 104.0258020   2.7348300  17.7477470 103.6501620   1.9676230  17.3158760
 103.2961140   3.1171000  18.2352400  88.6153780   3.4135440  24.3686520
  88.9826820   3.3262840  25.2482540  88.0464600   2.6501990  24.2693380
 103.4157640   1.8819820  27.3816990 103.1843730   1.6532570  26.4814940
 103.6762190   2.8019370  27.3361880 102.1243290  11.4950220  19.3816040
 102.7202360  11.1734790  18.7050460 102.3821440  11.0222040  20.1729310
  90.0305860   7.9268130  29.5306670  89.9875490   7.5561040  30.4121130
  90.1616870   8.8645700  29.6708490  93.7311890   9.4827720  25.1316390
  93.4903250   9.7502280  24.2446910  94.6714530   9.6533450  25.1867250
 104.9916050  11.5022100  25.9327030 104.4974330  11.8990970  25.2154160
 104.3829340  10.8771310  26.3264310  89.8693890  10.8730380  26.6504450
  89.2754210  10.7415080  27.3894490  89.8617730  10.0368520  26.1846550
 102.6755500  12.1445520  23.2113770 102.2158470  12.8961330  22.8371790
 102.0467960  11.4251990  23.1528570  89.5006120   8.2388760  25.6012490
  88.7740180   7.6194050  25.5338440  89.5615270   8.6329370  24.7310570
  93.1051220  10.4533760  22.3861900  93.6216240   9.8421120  21.8610160
  93.7548600  10.9562540  22.8772910  95.8446720  11.3442250  23.2130880
  96.1324530  11.0896550  22.3363890  96.3569940  10.7919610  23.8036450
  87.7836120  11.5563150  18.8109250  87.6158160  10.9233830  19.5091140
  86.9170630  11.7622550  18.4603440  89.3898820  10.2496380  16.2559390
  88.8646440  10.6304410  15.5521350  89.3143400  10.8747150  16.9769100
  95.9119080  12.2658350  30.5799080  96.8386390  12.0302620  30.6235040
  95.8969510  13.0930350  30.0985110 104.1464140  11.8083920  17.5773330
 104.3216330  11.1221660  16.9334250 103.4485710  12.3330970  17.1850000
  91.9891790  12.1978760  15.1308640  92.7210610  11.9138040  14.5832530
  92.2485460  11.9592040  16.0208020  91.1506580   8.3143490  15.1354970
  90.5215460   8.7828590  15.6840800  91.2654410   7.4692710  15.5701160
 102.4796640  11.4928210  30.4040120 103.2721960  10.9977440  30.1966080
 102.7729790  12.1718350  31.0115730  96.7374340   4.1428170   3.1665440
  95.9616440   3.6628610   3.4564010  97.3887270   3.4633820   2.9921600
  90.7540170   4.4547980   4.0441200  89.9225050   4.1996690   4.4437710
  91.3621150   4.5258750   4.7799120 100.7581770   8.5488360   1.9464570
 100.2963300   7.7775600   2.2751740 101.5707320   8.5754430   2.4517020
  90.7341430   8.4888070   4.2399220  91.0369470   7.5985810   4.0609440
  91.4785020   9.0458290   4.0121470  96.1783330   6.8185360   3.1735600
  96.1091610   5.8775300   3.0124730  96.9403190   6.9086770   3.7458170
  92.7140190   5.2461480   5.6384070  92.3809570   5.8730400   6.2805140
  92.8906870   5.7723360   4.8585740  91.9259290   7.2142280   7.4533250
  92.5433290   7.8893360   7.1717700  91.0652410   7.6230260   7.3620750
 102.8436880   8.6781690   5.3687890 102.1600400   9.3480800   5.3604560
 103.3831170   8.8762340   4.6032750 100.3795620  10.5225820   4.0833070
 100.3922780  10.1188110   3.2155330  99.8270840  11.2973110   3.9794500
  99.7781060   5.4255660   5.4115680 100.1949850   5.2115770   4.5769140
 100.5020880   5.6828450   5.9824300 103.7243160   3.8242880   5.5031920
 102.8961790   3.8935970   5.0282050 104.3193640   4.4097190   5.0347750
  93.2899660   7.0839660   3.4744670  92.9927950   6.4785130   2.7952450
  94.2399480   7.1216970   3.3634030 101.3785270  10.6571530   7.1367770
 100.9015830  11.4643720   6.9440380 100.6947060  10.0049860   7.2893980
  92.3818090   6.8221350  10.1252470  91.4846620   7.0461320  10.3725870
  92.4070960   6.9456290   9.1763870  91.2089310   3.6934670   8.7009840
  91.0697080   4.5657470   9.0697240  90.3270670   3.3507480   8.5557780
  93.0069660   9.6356370  10.9094990  92.9785090  10.0399320  10.0423420
  92.8434630   8.7066730  10.7466590 104.9584480  10.4183470  12.2059160
 105.4344200  10.8966360  12.8848240 105.5791640  10.3500960  11.4804660
  87.1607960   5.4632220   4.6180750  87.2388380   5.5980990   3.6736470
  87.7749640   4.7548110   4.8108870 104.3617730   7.6096320   9.3659170
 104.4880790   7.3708200   8.4476350 104.4039110   6.7780860   9.8381250
  98.2234470  11.3124320   7.9353980  98.7379140  11.2232330   8.7376410
  97.3803550  11.6584020   8.2281890  87.2167480   6.5046390   7.1575210
  87.3798520   6.0351750   6.3394580  87.6819930   5.9969950   7.8224050
  88.7906460   5.8797820   9.3171020  88.4061250   5.2391490   9.9153980
  89.1018650   6.5833940   9.8865750  94.9403600   2.7274360   4.7979640
  95.3073730   2.2532930   5.5440980  94.7508660   3.6015930   5.1387980
  92.7302970   1.7683000   7.1163850  92.4260040   2.6474980   7.3414210
  93.6849430   1.8282790   7.1521290 102.0172740   4.9709350   3.5057090
 102.7371860   5.4664640   3.1153200 101.8154560   4.2927240   2.8610960
  97.3991540   5.0418410   9.3926090  97.3328850   4.1214080   9.1383680
  96.7696680   5.1393850  10.1070730  88.7866700   2.6085740   8.2635210
  88.4281640   3.2739590   8.8508550  88.4921260   1.7769290   8.6347830
  91.9879820   3.0669980  11.1474760  91.6879960   3.2127160  10.2502580
  92.7591060   2.5075270  11.0548150  97.3308270   7.8638980   9.1429890
  97.3452810   6.9319940   8.9248800  96.6233370   7.9498740   9.7819660
 103.5419480   4.5046320   8.4898470 102.8167670   5.0975100   8.2927860
 104.0694940   4.4969860   7.6911840  96.7642170   9.5056550   6.2370390
  97.4084390   9.7115930   6.9143810  97.1271610   8.7444950   5.7841240
  98.0374250   7.5088900   4.9547840  98.6796480   6.8082060   5.0680010
  98.5623600   8.2887340   4.7744730  99.8111870   8.3083800   8.1583900
 100.1468110   8.8950490   8.8361820  98.8912210   8.1776510   8.3881690
  87.6487860  10.0859240   9.9273840  87.7578980   9.1453980   9.7869230
  86.9968420  10.3513990   9.2787570  95.6400450   8.3575130  11.3271960
  95.3197320   7.6384370  11.8717650  94.9658810   9.0330200  11.4008020
 103.3170490   9.8750870   2.8790740 103.4417910  10.6982040   3.3514550
 104.1836050   9.6641600   2.5314890  90.7888020  11.9682080   2.5507870
  91.5250500  11.4197540   2.8216440  91.1728940  12.8338090   2.4113860
  89.7946300  11.1528150  11.7393450  90.5959030  11.4740200  12.1528850
  89.2798120  10.7923730  12.4613360  98.6310930   7.2608020  11.6868860
  98.0249090   7.2839620  10.9464610  98.3265040   6.5291060  12.2236110
 100.0611300  10.9888310  10.2978270 101.0133050  10.9046330  10.2478510
  99.9139520  11.6530020  10.9712060  87.5144110   3.6401610  10.6829500
  88.0183130   3.0608890  11.2545730  86.7751530   3.9241840  11.2205870
  94.5682050   5.0472600  10.2165020  93.8027720   5.6157600  10.1319690
  94.7498010   4.7548810   9.3233250 101.7105400   6.7777930  10.7740040
 102.4514870   7.1153690  10.2707500 100.9478080   6.9469990  10.2209810
 100.3851060   4.8292760   9.3095250 100.7992080   4.9837840  10.1585670
  99.4502060   4.9547980   9.4721030  95.1466290   4.7813240   7.2791180
  95.5654400   5.6245970   7.1067420  94.2274920   4.9185280   7.0497960
  97.4830190   2.5129420   8.6629020  97.6026400   1.9170560   9.4023860
  98.3424190   2.5499110   8.2430320  99.8218090   3.0666610   7.2391530
  99.2953310   3.5909230   6.6356670 100.1649430   3.6994000   7.8701260
  92.9973710  11.0866250   8.3948910  92.4594800  11.8112310   8.0757610
  93.2507670  10.6096590   7.6046250  95.8535920  12.3217460   8.6535560
  95.7794620  13.2252600   8.9607930  94.9514760  12.0029360   8.6257630
  87.2563210   9.6492050   1.9569180  87.5866220   8.7813110   1.7247820
  87.6854210   9.8550570   2.7874140  87.7453420  10.5162640   4.6950810
  87.3084410  10.6963440   5.5274960  88.3131100  11.2737260   4.5532530
 103.3815600  10.0179640   8.9828120 102.7817590  10.0772200   8.2392040
 103.5109500   9.0784620   9.1124970 102.0667240   6.7431620   7.0804280
 101.2527080   7.1728780   7.3430070 102.4741440   7.3550030   6.4673330
  88.6153780   3.4135440   5.5943030  88.9826820   3.3262840   6.4739050
  88.0464600   2.6501990   5.4949890 103.4157640   1.8819820   8.6073500
 103.1843730   1.6532570   7.7071450 103.6762190   2.8019370   8.5618390
  90.0305860   7.9268130  10.7563180  89.9875490   7.5561040  11.6377640
  90.1616870   8.8645700  10.8965000  93.7311890   9.4827720   6.3572900
  93.4903250   9.7502280   5.4703420  94.6714530   9.6533450   6.4123760
 104.9916050  11.5022100   7.1583540 104.4974330  11.8990970   6.4410670
 104.3829340  10.8771310   7.5520820  89.8693890  10.8730380   7.8760960
  89.2754210  10.7415080   8.6151000  89.8617730  10.0368520   7.4103060
 102.6755500  12.1445520   4.4370280 102.2158470  12.8961330   4.0628300
 102.0467960  11.4251990   4.3785080  89.5006120   8.2388760   6.8269000
  88.7740180   7.6194050   6.7594950  89.5615270   8.6329370   5.9567080
  93.1051220  10.4533760   3.6118410  93.6216240   9.8421120   3.0866670
  93.7548600  10.9562540   4.1029420  95.8446720  11.3442250   4.4387390
  96.1324530  11.0896550   3.5620400  96.3569940  10.7919610   5.0292960
  95.9119080  12.2658350  11.8055590  96.8386390  12.0302620  11.8491550
  95.8969510  13.0930350  11.3241620 102.4796640  11.4928210  11.6296630
 103.2721960  10.9977440  11.4222590 102.7729790  12.1718350  12.2372240
  79.8312810 152.5597070 151.4804090  79.7506860 151.6451680 151.2095800
  79.4177230 153.0564140 150.7743800  77.9630850 154.3376090 153.3613360
  77.1872950 153.8576530 153.6511930  78.6143780 153.6581740 153.1869520
  70.3888630 149.6097790 148.0231510  69.5005330 149.9513760 147.9211390
  70.6729820 149.4098110 147.1312340  68.3521640 152.2103440 153.9071210
  68.9237750 151.4425640 153.9074850  68.3523180 152.5092200 152.9977820
  78.4345010 149.8203660 153.5952450  78.8109830 148.9475540 153.4826120
  78.3364520 150.1562360 152.7042890  72.5650020 148.1929290 149.0569890
  72.6716770 149.0933020 149.3638650  71.6542380 148.1447260 148.7664540
  82.2169130 147.3154100 150.5280790  83.0378750 146.8250670 150.5706270
  82.2503210 147.9051760 151.2812630  74.4057750 151.1615660 153.3895070
  74.9135970 151.6596630 154.0300090  74.9370990 150.3850860 153.2134430
  82.4530610 149.2554480 153.3008330  81.7486180 149.5439370 153.8811440
  82.8142770 150.0654590 152.9407890  85.5217530 148.7009270 153.6917540
  84.5742440 148.7348250 153.8232970  85.8467520 149.5148220 154.0766900
  76.0537070 145.0006450 151.9873530  76.3612050 144.4453340 151.2709030
  75.1237770 145.1350910 151.8046520  78.4417830 153.0655280 148.7233650
  77.5147110 152.9992660 148.9522120  78.5942650 154.0035410 148.6088890
  78.4286910 149.3372280 145.7200810  77.4890580 149.4986240 145.8053270
  78.7470170 150.0557960 145.1736800  82.4715120 154.6275580 149.2268900
  81.8527540 154.2895130 148.5795200  82.4539570 153.9835340 149.9348090
  74.0474470 153.5920020 151.5053380  73.6431470 152.8797270 151.0099280
  74.1337590 153.2473260 152.3941420  80.6479820 153.8662390 146.2341650
  81.0873100 153.0284820 146.0879470  81.3608240 154.4991790 146.3205790
  84.2296960 145.1205200 144.5482690  83.9169620 145.2132030 145.4481760
  84.9909430 145.6986230 144.4980120  70.7479100 152.4865000 149.0060030
  70.6276700 153.2127090 148.3941300  70.4379990 151.7167910 148.5287940
  73.2142760 145.8300070 152.3883700  72.7710910 146.6109610 152.0568220
  73.7727750 146.1529960 153.0954640  76.3301580 145.4510770 147.2689530
  75.7055760 145.4470640 147.9942840  76.2431700 144.5841730 146.8725500
  75.2518660 146.3747400 154.2473300  75.5490990 147.2810230 154.1665320
  75.8004220 145.8866180 153.6332870  73.0056980 150.9533640 150.1164950
  72.7797900 150.7370810 151.0211570  72.2249510 151.3862100 149.7710920
  80.2354740 150.9597010 148.7155600  79.6363630 151.6832810 148.5319220
  80.7834350 150.8973790 147.9332050  78.8419610 149.5960550 150.7458880
  79.2349180 149.9132750 149.9327570  79.2036460 148.7172430 150.8603400
  67.8783780 146.1861350 152.9689080  67.5896830 146.7564210 153.6814060
  68.6229540 145.7065800 153.3320310  68.0654010 150.1281470 144.1791800
  67.9828680 151.0712230 144.3206790  67.7137070 149.9856380 143.3004150
  75.8652140 148.8620500 153.2462150  75.8688200 148.4210450 152.3966690
  76.7603260 149.1837830 153.3533970  71.7154520 148.7446990 152.2056360
  71.3754570 149.2222220 152.9623410  70.9531840 148.2912110 151.8457460
  75.9272290 149.8632580 146.2368910  76.0485110 149.8219060 147.1854730
  75.5420800 150.7256730 146.0815640  74.9393790 152.1733720 145.6352210
  74.3710690 151.7251970 145.0088120  75.6482790 152.5326500 145.1017360
  69.0300600 147.6665970 151.1221030  68.7447520 147.3021640 151.9599650
  68.9679460 146.9346430 150.5084170  78.7039190 146.5595230 147.8434400
  77.8903800 146.0608400 147.7679710  78.5101140 147.3993480 147.4270750
  81.4187580 150.9314880 146.1396560  82.3067200 151.2432110 145.9647900
  81.3892670 150.0587130 145.7477140  83.6901850 152.2426720 145.6076420
  83.6065570 152.6740940 144.7572860  84.4096040 152.7025070 146.0403240
  68.5231260 152.8024920 145.0817730  69.3926110 153.0849720 145.3653650
  68.0321580 153.6160790 144.9666540  71.5877850 144.5335780 149.6748530
  71.4592480 144.5253680 150.6233450  70.7639870 144.8718870 149.3239540
  83.4472590 147.7406150 147.6944240  82.8185750 147.8451820 146.9802470
  82.9524510 147.9602930 148.4838120  75.4156620 150.0192100 149.1102120
  74.7072770 150.4878440 149.5515730  75.7001100 149.3614110 149.7447310
  79.4472050 146.7442760 150.5497910  79.3239830 146.7628890 149.6007420
  80.3956610 146.7921700 150.6696310  73.6191640 148.3277180 146.4852830
  74.4682170 148.7647330 146.4193020  73.2522910 148.6397440 147.3124890
  82.5401420 152.8989940 151.3984400  81.5991560 152.9140170 151.5732090
  82.8545490 152.1125900 151.8444700  72.5183060 154.5809540 144.9588360
  73.2846330 154.4690900 145.5213790  72.5957750 153.8847510 144.3065130
  71.2129820 152.0134610 145.6421250  71.2933410 151.0662120 145.7538650
  72.1049570 152.3441490 145.7481910  74.5502090 154.5774670 146.9331000
  74.9718510 154.4114540 147.7762390  74.6752930 153.7674900 146.4386140
  77.0629730 153.6012280 144.1808100  77.5835390 152.8861300 143.8149250
  77.7098130 154.2398150 144.4808610  73.4460990 150.6507900 143.8789160
  73.2450050 149.7875260 144.2402500  73.2753040 150.5641260 142.9410760
  80.9249300 145.4616130 146.4076040  81.2051590 144.6184030 146.7635460
  80.1515030 145.6939240 146.9214790  72.2443790 147.7508520 143.8667040
  72.5469690 147.7575950 142.9586190  72.9838380 147.4006380 144.3634700
  75.4628720 146.6943140 144.8523240  75.1150720 146.0167130 144.2725690
  75.6641490 146.2332650 145.6666630  68.8034360 153.2230790 151.2487610
  68.1483200 152.9542430 150.6047310  69.6412310 153.1135270 150.7989590
  81.7524800 148.0172080 145.4706100  82.1709680 147.8303060 144.6302760
  81.4460860 147.1651130 145.7809030  85.2514530 152.9296220 149.1681900
  84.8758130 152.1624150 148.7363190  84.5217650 153.3118920 149.6556830
  68.0172440 150.4329720 147.1912940  67.1136520 150.6959920 147.0164600
  68.5013060 150.7040890 146.4112900  84.5265490 151.1553710 152.4689140
  85.0502970 150.6616360 151.8379310  85.1124910 151.2904070 153.2136710
  70.5599650 149.4895260 145.1007320  71.2691350 149.0678480 144.6154600
  69.8439590 149.5570490 144.4690670  70.2073810 145.5434590 144.1409970
  70.9301940 146.0843530 144.4591190  70.4798330 145.2698010 143.2651510
  84.0165460 150.4127060 148.4081550  84.5124580 150.1797930 149.1930430
  83.8181530 149.5738900 147.9919190  85.4452620 149.0488010 150.9419230
  85.3351900 148.8944050 151.8801500  86.2060210 148.5208950 150.6994640
  86.3342890 146.8795930 144.1825370  87.2592200 146.7477110 143.9743660
  86.3118680 146.9588750 145.1361820  86.4081380 147.6506590 146.8082080
  85.6132880 147.5851710 147.3374990  86.6124660 148.5857230 146.7967430
  82.8401310 145.9803470 153.2580910  83.2809400 145.9248570 152.4102510
  82.5708900 146.8961480 153.3291090  84.7039880 145.6118710 151.2689730
  84.6428280 144.6679930 151.1220750  85.4831910 145.7198800 151.8143190
  69.6320650 145.5827850 147.7345540  70.3900010 145.6956730 147.1609570
  69.1697820 146.4197050 147.6888970  76.1734460 147.6967120 150.7247850
  75.3608970 147.3224010 150.3843730  76.6776100 146.9412200 151.0269040
  80.6759440 144.3609570 151.9630920  81.2788810 144.9329780 152.4379440
  79.9352430 144.9249010 151.7404820  83.8194040 144.7631130 147.2371200
  84.0144670 145.6614580 147.5038630  83.0323910 144.5318210 147.7304150
  72.0045800 146.1091900 146.2747510  72.5338560 145.3221700 146.1455460
  72.6374120 146.7883090 146.5083040  74.1983640 145.8467040 149.3292900
  73.5686380 145.1454350 149.4963030  73.6588780 146.6071170 149.1126060
  79.8312810 152.5597070 132.7060600  79.7506860 151.6451680 132.4352310
  79.4177230 153.0564140 132.0000310  77.9630850 154.3376090 134.5869870
  77.1872950 153.8576530 134.8768440  78.6143780 153.6581740 134.4126030
  71.9796680 154.6495900 135.4645630  71.1481560 154.3944610 135.8642140
  72.5877660 154.7206670 136.2003550  70.3888630 149.6097790 129.2488020
  69.5005330 149.9513760 129.1467900  70.6729820 149.4098110 128.3568850
  68.3521640 152.2103440 135.1327720  68.9237750 151.4425640 135.1331360
  68.3523180 152.5092200 134.2234330  69.5946510 147.6187800 136.9196650
  69.4149350 146.7213550 137.1999410  69.1926590 148.1659670 137.5943600
  78.4345010 149.8203660 134.8208960  78.8109830 148.9475540 134.7082630
  78.3364520 150.1562360 133.9299400  72.5650020 148.1929290 130.2826400
  72.6716770 149.0933020 130.5895160  71.6542380 148.1447260 129.9921050
  82.2169130 147.3154100 131.7537300  83.0378750 146.8250670 131.7962780
  82.2503210 147.9051760 132.5069140  70.2133180 150.1148300 135.5278990
  70.8943290 150.3786670 136.1466390  69.8981230 149.2749170 135.8617000
  74.4057750 151.1615660 134.6151580  74.9135970 151.6596630 135.2556600
  74.9370990 150.3850860 134.4390940  86.5068680 149.3320850 138.3180930
  85.8020850 149.7202560 137.7996040  86.7726600 150.0271140 138.9201860
  72.6893850 145.8014220 138.8815000  72.6912290 146.3186610 138.0760900
  71.8598160 145.3244400 138.8584930  82.4530610 149.2554480 134.5264840
  81.7486180 149.5439370 135.1067950  82.8142770 150.0654590 134.1664400
  72.3709180 147.5124180 136.8885450  72.7125990 148.3566230 136.5939320
  71.4324990 147.6607920 137.0050790  85.5217530 148.7009270 134.9174050
  84.5742440 148.7348250 135.0489480  85.8467520 149.5148220 135.3023410
  76.0537070 145.0006450 133.2130040  76.3612050 144.4453340 132.4965540
  75.1237770 145.1350910 133.0303030  78.4417830 153.0655280 129.9490160
  77.5147110 152.9992660 130.1778630  78.5942650 154.0035410 129.8345400
  78.4286910 149.3372280 126.9457320  77.4890580 149.4986240 127.0309780
  78.7470170 150.0557960 126.3993310  84.9499670 154.0190800 136.9236350
  84.1218300 154.0883890 136.4486480  85.5450150 154.6045110 136.4552180
  82.4715120 154.6275580 130.4525410  81.8527540 154.2895130 129.8051710
  82.4539570 153.9835340 131.1604600  81.9141680 150.8060120 137.8691220
  81.5012860 151.6313830 138.1231210  81.1817630 150.2205160 137.6767580
  74.0474470 153.5920020 132.7309890  73.6431470 152.8797270 132.2355790
  74.1337590 153.2473260 133.6197930  72.7603090 150.3663230 136.5108930
  73.3117680 150.4758570 135.7362180  73.2746600 150.7400830 137.2264160
  80.6479820 153.8662390 127.4598160  81.0873100 153.0284820 127.3135980
  81.3608240 154.4991790 127.5462300  72.4345820 153.8882590 140.1214270
  72.2953590 154.7605390 140.4901670  71.5527180 153.5455400 139.9762210
  84.2296960 145.1205200 125.7739200  83.9169620 145.2132030 126.6738270
  84.9909430 145.6986230 125.7236630  70.7479100 152.4865000 130.2316540
  70.6276700 153.2127090 129.6197810  70.4379990 151.7167910 129.7544450
  85.4398250 149.8576700 141.7513340  84.8242520 150.3656370 141.2228800
  85.1194670 148.9575030 141.6939280  73.2142760 145.8300070 133.6140210
  72.7710910 146.6109610 133.2824730  73.7727750 146.1529960 134.3211150
  77.5012570 148.6968590 139.2175530  77.0391940 148.9051610 140.0295470
  77.0990680 147.8827940 138.9146200  82.5017080 149.9177540 140.3472190
  81.6510670 149.6183290 140.6681260  82.3418870 150.1619550 139.4356010
  79.5966790 151.4179290 142.4470980  79.9220200 150.5843040 142.1073210
  80.3847120 151.9407810 142.5949310  76.3301580 145.4510770 128.4946040
  75.7055760 145.4470640 129.2199350  76.2431700 144.5841730 128.0982010
  75.2518660 146.3747400 135.4729810  75.5490990 147.2810230 135.3921830
  75.8004220 145.8866180 134.8589380  73.0056980 150.9533640 131.3421460
  72.7797900 150.7370810 132.2468080  72.2249510 151.3862100 130.9967430
  80.2354740 150.9597010 129.9412110  79.6363630 151.6832810 129.7575730
  80.7834350 150.8973790 129.1588560  75.4456190 151.8519220 142.0081730
  75.3499790 150.9113950 141.8582130  76.2888170 152.0734290 141.6129800
  78.8419610 149.5960550 131.9715390  79.2349180 149.9132750 131.1584080
  79.2036460 148.7172430 132.0859910  70.5766730 148.2632890 140.1615510
  70.1830120 149.1108100 140.3688290  69.8885130 147.6259260 140.3524150
  77.1511780 148.3467860 143.2312250  76.4610100 148.1540060 143.8658340
  77.8944080 148.6302500 143.7636550  67.8783780 146.1861350 134.1945590
  67.5896830 146.7564210 134.9070570  68.6229540 145.7065800 134.5576820
  68.0654010 150.1281470 125.4048310  67.9828680 151.0712230 125.5463300
  67.7137070 149.9856380 124.5260660  79.4274750 152.1866300 136.0666170
  78.6955870 152.6953110 136.4156270  79.0299090 151.3696280 135.7654950
  75.8652140 148.8620500 134.4718660  75.8688200 148.4210450 133.6223200
  76.7603260 149.1837830 134.5790480  71.7154520 148.7446990 133.4312870
  71.3754570 149.2222220 134.1879920  70.9531840 148.2912110 133.0713970
  75.9272290 149.8632580 127.4625420  76.0485110 149.8219060 128.4111240
  75.5420800 150.7256730 127.3072150  79.8900660 147.6399980 135.4789110
  79.9073400 148.0908630 136.3230960  79.6416240 146.7405620 135.6922550
  74.9393790 152.1733720 126.8608720  74.3710690 151.7251970 126.2344630
  75.6482790 152.5326500 126.3273870  83.3171410 145.0532160 141.3175490
  83.6417180 144.3221820 141.8433470  83.3527920 144.7345800 140.4156480
  76.1660110 152.9222280 136.2184070  76.5330240 152.4480850 136.9645410
  75.9765170 153.7963850 136.5592410  69.0300600 147.6665970 132.3477540
  68.7447520 147.3021640 133.1856160  68.9679460 146.9346430 131.7340680
  73.9559480 151.9630920 138.5368280  73.6516550 152.8422900 138.7618640
  74.9105940 152.0230710 138.5725720  78.7039190 146.5595230 129.0690910
  77.8903800 146.0608400 128.9936220  78.5101140 147.3993480 128.6527260
  81.4187580 150.9314880 127.3653070  82.3067200 151.2432110 127.1904410
  81.3892670 150.0587130 126.9733650  70.0123210 152.8033660 139.6839640
  69.6538150 153.4687510 140.2712980  69.7177770 151.9717210 140.0552260
  73.2136330 153.2617900 142.5679190  72.9136470 153.4075080 141.6707010
  73.9847570 152.7023190 142.4752580  83.6901850 152.2426720 126.8332930
  83.6065570 152.6740940 125.9829370  84.4096040 152.7025070 127.2659750
  68.5231260 152.8024920 126.3074240  69.3926110 153.0849720 126.5910160
  68.0321580 153.6160790 126.1923050  71.5877850 144.5335780 130.9005040
  71.4592480 144.5253680 131.8489960  70.7639870 144.8718870 130.5496050
  68.5871780 146.2926900 140.3611740  67.8730300 146.4923820 140.9664350
  69.0066820 145.5166470 140.7326540  80.0810560 148.7849210 138.1113190
  80.4491380 147.9644420 138.4392760  79.2208760 148.8451100 138.5268840
  83.4472590 147.7406150 128.9200750  82.8185750 147.8451820 128.2058980
  82.9524510 147.9602930 129.7094630  75.4156620 150.0192100 130.3358630
  74.7072770 150.4878440 130.7772240  75.7001100 149.3614110 130.9703820
  77.0412550 151.4388800 138.3351160  77.5397800 151.9134620 139.0003010
  77.1835500 150.5152320 138.5421190  79.4472050 146.7442760 131.7754420
  79.3239830 146.7628890 130.8263930  80.3956610 146.7921700 131.8952820
  73.6191640 148.3277180 127.7109340  74.4682170 148.7647330 127.6449530
  73.2522910 148.6397440 128.5381400  84.2479410 147.6556760 139.1779550
  83.7453010 148.3962160 139.5173360  85.0636070 148.0440760 138.8616340
  82.5401420 152.8989940 132.6240910  81.5991560 152.9140170 132.7988600
  82.8545490 152.1125900 133.0701210  72.5183060 154.5809540 126.1844870
  73.2846330 154.4690900 126.7470300  72.5957750 153.8847510 125.5321640
  71.2129820 152.0134610 126.8677760  71.2933410 151.0662120 126.9795160
  72.1049570 152.3441490 126.9738420  68.7400620 153.8349530 142.1033930
  69.2439640 153.2556810 142.6750160  68.0008040 154.1189760 142.6410300
  70.7723700 151.9779120 142.9984000  70.8129040 151.6792990 143.9069230
  71.6269200 152.3786730 142.8391520  74.5502090 154.5774670 128.1587510
  74.9718510 154.4114540 129.0018900  74.6752930 153.7674900 127.6642650
  72.7129510 150.5571220 140.9658490  72.1825970 150.0662170 140.3381830
  73.3817580 150.9855420 140.4316420  77.0629730 153.6012280 125.4064610
  77.5835390 152.8861300 125.0405760  77.7098130 154.2398150 125.7065120
  82.0829740 152.3636840 142.7338830  82.6650510 151.6089160 142.6459310
  82.2591510 152.8944280 141.9570310  73.2001810 147.5233590 141.0455780
  73.1058680 146.9054340 140.3206650  72.6199200 148.2499880 140.8185690
  75.9663250 146.0806830 138.0783170  75.5180550 146.1031090 137.2328720
  75.3328450 145.6825850 138.6753470  78.7086700 152.7077340 140.0833450
  78.8282910 152.1118480 140.8228290  79.5680700 152.7447030 139.6634750
  81.0474600 153.2614530 138.6595960  80.5209820 153.7857150 138.0561100
  81.3905940 153.8941920 139.2905690  73.4460990 150.6507900 125.1045670
  73.2450050 149.7875260 125.4659010  73.2753040 150.5641260 124.1667270
  75.4755470 149.2498690 141.3409270  76.0655160 148.9414540 142.0287090
  74.6575710 148.7778440 141.4969170  80.2948900 148.8664500 141.5742290
  79.6064420 148.2046040 141.5092280  81.0154920 148.4202770 142.0190750
  80.9249300 145.4616130 127.6332550  81.2051590 144.6184030 127.9891970
  80.1515030 145.6939240 128.1471300  72.2443790 147.7508520 125.0923550
  72.5469690 147.7575950 124.1842700  72.9838380 147.4006380 125.5891210
  75.4628720 146.6943140 126.0779750  75.1150720 146.0167130 125.4982200
  75.6641490 146.2332650 126.8923140  68.8034360 153.2230790 132.4744120
  68.1483200 152.9542430 131.8303820  69.6412310 153.1135270 132.0246100
  81.7524800 148.0172080 126.6962610  82.1709680 147.8303060 125.8559270
  81.4460860 147.1651130 127.0065540  85.2514530 152.9296220 130.3938410
  84.8758130 152.1624150 129.9619700  84.5217650 153.3118920 130.8813340
  69.8410290 153.6083360 137.0147460  70.2083330 153.5210760 137.8943480
  69.2721110 152.8449910 136.9154320  84.6414150 152.0767740 140.0277930
  84.4100240 151.8480490 139.1275880  84.9018700 152.9967290 139.9822820
  69.3926290 150.5192450 140.9205880  68.4982340 150.4859210 141.2599590
  69.9323840 150.7179240 141.6857130  83.0802220 147.3024170 142.8057630
  83.9572400 147.3107570 143.1891630  83.0923060 146.5655010 142.1949980
  68.0172440 150.4329720 128.4169450  67.1136520 150.6959920 128.2421110
  68.5013060 150.7040890 127.6369410  84.5265490 151.1553710 133.6945650
  85.0502970 150.6616360 133.0635820  85.1124910 151.2904070 134.4393220
  84.7055210 151.2393580 137.2165200  83.7557920 151.2057120 137.3310190
  84.8868220 152.1493690 136.9814970  70.5599650 149.4895260 126.3263830
  71.2691350 149.0678480 125.8411110  69.8439590 149.5570490 125.6947180
  70.2073810 145.5434590 125.3666480  70.9301940 146.0843530 125.6847700
  70.4798330 145.2698010 124.4908020  84.0165460 150.4127060 129.6338060
  84.5124580 150.1797930 130.4186940  83.8181530 149.5738900 129.2175700
  69.8966000 144.7940780 135.2689100  70.5442190 144.2438160 134.8284260
  70.3167840 145.0483930 136.0904910  85.4452620 149.0488010 132.1675740
  85.3351900 148.8944050 133.1058010  86.2060210 148.5208950 131.9251150
  83.7918340 144.9882140 138.6258740  84.4290560 145.6016280 138.9917930
  83.9393230 145.0242800 137.6807970  86.3342890 146.8795930 125.4081880
  87.2592200 146.7477110 125.2000170  86.3118680 146.9588750 126.3618330
  86.4081380 147.6506590 128.0338590  85.6132880 147.5851710 128.5631500
  86.6124660 148.5857230 128.0223940  69.6498000 144.9496450 138.0114420
  69.3012820 145.4060270 138.7772600  69.3185700 144.0553580 138.0936850
  77.1622820 146.1408330 141.5333840  77.1011710 146.7330160 142.2829250
  78.1023200 146.0334290 141.3884100  79.7997380 145.7978390 141.1726130
  80.4137790 146.1157680 140.5107210  80.3446940 145.3126980 141.7921990
  70.3218640 144.4772650 141.2865190  70.8701630 144.2960700 140.5231300
  70.3873950 143.6866760 141.8221500  80.5405420 144.3610530 137.4995420
  79.6665260 144.6945640 137.2968350  80.4316170 143.8883710 138.3247290
  81.4477400 146.5681400 138.8837140  81.1190760 145.7533160 138.5038870
  82.3959700 146.5251210 138.7602830  78.2880240 145.2780370 136.4388330
  77.5052030 145.7525870 136.7185090  77.9943170 144.3735200 136.3301510
  82.8401310 145.9803470 134.4837420  83.2809400 145.9248570 133.6359020
  82.5708900 146.8961480 134.5547600  84.7039880 145.6118710 132.4946240
  84.6428280 144.6679930 132.3477260  85.4831910 145.7198800 133.0399700
  69.6320650 145.5827850 128.9602050  70.3900010 145.6956730 128.3866080
  69.1697820 146.4197050 128.9145480  76.1734460 147.6967120 131.9504360
  75.3608970 147.3224010 131.6100240  76.6776100 146.9412200 132.2525550
  80.6759440 144.3609570 133.1887430  81.2788810 144.9329780 133.6635950
  79.9352430 144.9249010 132.9661330  83.8194040 144.7631130 128.4627710
  84.0144670 145.6614580 128.7295140  83.0323910 144.5318210 128.9560660
  72.0045800 146.1091900 127.5004020  72.5338560 145.3221700 127.3711970
  72.6374120 146.7883090 127.7339550  74.1983640 145.8467040 130.5549410
  73.5686380 145.1454350 130.7219540  73.6588780 146.6071170 130.3382570
  74.3239200 145.1251020 142.9901900  74.0423470 145.6284620 142.2262720
  74.7058900 144.3272770 142.6244030  80.9254660 144.5404600 143.5682370
  80.8120110 144.8599210 144.4633890  81.7424400 144.9417110 143.2719650
  79.8312810 152.5597070 113.9317110  79.7506860 151.6451680 113.6608820
  79.4177230 153.0564140 113.2256820  77.9630850 154.3376090 115.8126380
  77.1872950 153.8576530 116.1024950  78.6143780 153.6581740 115.6382540
  71.9796680 154.6495900 116.6902140  71.1481560 154.3944610 117.0898650
  72.5877660 154.7206670 117.4260060  70.3888630 149.6097790 110.4744530
  69.5005330 149.9513760 110.3724410  70.6729820 149.4098110 109.5825360
  68.3521640 152.2103440 116.3584230  68.9237750 151.4425640 116.3587870
  68.3523180 152.5092200 115.4490840  69.5946510 147.6187800 118.1453160
  69.4149350 146.7213550 118.4255920  69.1926590 148.1659670 118.8200110
  78.4345010 149.8203660 116.0465470  78.8109830 148.9475540 115.9339140
  78.3364520 150.1562360 115.1555910  72.5650020 148.1929290 111.5082910
  72.6716770 149.0933020 111.8151670  71.6542380 148.1447260 111.2177560
  82.2169130 147.3154100 112.9793810  83.0378750 146.8250670 113.0219290
  82.2503210 147.9051760 113.7325650  70.2133180 150.1148300 116.7535500
  70.8943290 150.3786670 117.3722900  69.8981230 149.2749170 117.0873510
  74.4057750 151.1615660 115.8408090  74.9135970 151.6596630 116.4813110
  74.9370990 150.3850860 115.6647450  86.5068680 149.3320850 119.5437440
  85.8020850 149.7202560 119.0252550  86.7726600 150.0271140 120.1458370
  72.6893850 145.8014220 120.1071510  72.6912290 146.3186610 119.3017410
  71.8598160 145.3244400 120.0841440  82.4530610 149.2554480 115.7521350
  81.7486180 149.5439370 116.3324460  82.8142770 150.0654590 115.3920910
  72.3709180 147.5124180 118.1141960  72.7125990 148.3566230 117.8195830
  71.4324990 147.6607920 118.2307300  85.5217530 148.7009270 116.1430560
  84.5742440 148.7348250 116.2745990  85.8467520 149.5148220 116.5279920
  76.0537070 145.0006450 114.4386550  76.3612050 144.4453340 113.7222050
  75.1237770 145.1350910 114.2559540  78.4417830 153.0655280 111.1746670
  77.5147110 152.9992660 111.4035140  78.5942650 154.0035410 111.0601910
  78.4286910 149.3372280 108.1713830  77.4890580 149.4986240 108.2566290
  78.7470170 150.0557960 107.6249820  84.9499670 154.0190800 118.1492860
  84.1218300 154.0883890 117.6742990  85.5450150 154.6045110 117.6808690
  82.4715120 154.6275580 111.6781920  81.8527540 154.2895130 111.0308220
  82.4539570 153.9835340 112.3861110  81.9141680 150.8060120 119.0947730
  81.5012860 151.6313830 119.3487720  81.1817630 150.2205160 118.9024090
  74.0474470 153.5920020 113.9566400  73.6431470 152.8797270 113.4612300
  74.1337590 153.2473260 114.8454440  72.7603090 150.3663230 117.7365440
  73.3117680 150.4758570 116.9618690  73.2746600 150.7400830 118.4520670
  80.6479820 153.8662390 108.6854670  81.0873100 153.0284820 108.5392490
  81.3608240 154.4991790 108.7718810  72.4345820 153.8882590 121.3470780
  72.2953590 154.7605390 121.7158180  71.5527180 153.5455400 121.2018720
  84.2296960 145.1205200 106.9995710  83.9169620 145.2132030 107.8994780
  84.9909430 145.6986230 106.9493140  70.7479100 152.4865000 111.4573050
  70.6276700 153.2127090 110.8454320  70.4379990 151.7167910 110.9800960
  85.4398250 149.8576700 122.9769850  84.8242520 150.3656370 122.4485310
  85.1194670 148.9575030 122.9195790  73.2142760 145.8300070 114.8396720
  72.7710910 146.6109610 114.5081240  73.7727750 146.1529960 115.5467660
  77.5012570 148.6968590 120.4432040  77.0391940 148.9051610 121.2551980
  77.0990680 147.8827940 120.1402710  82.5017080 149.9177540 121.5728700
  81.6510670 149.6183290 121.8937770  82.3418870 150.1619550 120.6612520
  79.5966790 151.4179290 123.6727490  79.9220200 150.5843040 123.3329720
  80.3847120 151.9407810 123.8205820  76.3301580 145.4510770 109.7202550
  75.7055760 145.4470640 110.4455860  76.2431700 144.5841730 109.3238520
  75.2518660 146.3747400 116.6986320  75.5490990 147.2810230 116.6178340
  75.8004220 145.8866180 116.0845890  73.0056980 150.9533640 112.5677970
  72.7797900 150.7370810 113.4724590  72.2249510 151.3862100 112.2223940
  80.2354740 150.9597010 111.1668620  79.6363630 151.6832810 110.9832240
  80.7834350 150.8973790 110.3845070  75.4456190 151.8519220 123.2338240
  75.3499790 150.9113950 123.0838640  76.2888170 152.0734290 122.8386310
  78.8419610 149.5960550 113.1971900  79.2349180 149.9132750 112.3840590
  79.2036460 148.7172430 113.3116420  70.5766730 148.2632890 121.3872020
  70.1830120 149.1108100 121.5944800  69.8885130 147.6259260 121.5780660
  77.1511780 148.3467860 124.4568760  76.4610100 148.1540060 125.0914850
  77.8944080 148.6302500 124.9893060  67.8783780 146.1861350 115.4202100
  67.5896830 146.7564210 116.1327080  68.6229540 145.7065800 115.7833330
  68.0654010 150.1281470 106.6304820  67.9828680 151.0712230 106.7719810
  67.7137070 149.9856380 105.7517170  79.4274750 152.1866300 117.2922680
  78.6955870 152.6953110 117.6412780  79.0299090 151.3696280 116.9911460
  75.8652140 148.8620500 115.6975170  75.8688200 148.4210450 114.8479710
  76.7603260 149.1837830 115.8046990  71.7154520 148.7446990 114.6569380
  71.3754570 149.2222220 115.4136430  70.9531840 148.2912110 114.2970480
  75.9272290 149.8632580 108.6881930  76.0485110 149.8219060 109.6367750
  75.5420800 150.7256730 108.5328660  79.8900660 147.6399980 116.7045620
  79.9073400 148.0908630 117.5487470  79.6416240 146.7405620 116.9179060
  74.9393790 152.1733720 108.0865230  74.3710690 151.7251970 107.4601140
  75.6482790 152.5326500 107.5530380  83.3171410 145.0532160 122.5432000
  83.6417180 144.3221820 123.0689980  83.3527920 144.7345800 121.6412990
  76.1660110 152.9222280 117.4440580  76.5330240 152.4480850 118.1901920
  75.9765170 153.7963850 117.7848920  69.0300600 147.6665970 113.5734050
  68.7447520 147.3021640 114.4112670  68.9679460 146.9346430 112.9597190
  73.9559480 151.9630920 119.7624790  73.6516550 152.8422900 119.9875150
  74.9105940 152.0230710 119.7982230  78.7039190 146.5595230 110.2947420
  77.8903800 146.0608400 110.2192730  78.5101140 147.3993480 109.8783770
  81.4187580 150.9314880 108.5909580  82.3067200 151.2432110 108.4160920
  81.3892670 150.0587130 108.1990160  70.0123210 152.8033660 120.9096150
  69.6538150 153.4687510 121.4969490  69.7177770 151.9717210 121.2808770
  73.2136330 153.2617900 123.7935700  72.9136470 153.4075080 122.8963520
  73.9847570 152.7023190 123.7009090  83.6901850 152.2426720 108.0589440
  83.6065570 152.6740940 107.2085880  84.4096040 152.7025070 108.4916260
  68.5231260 152.8024920 107.5330750  69.3926110 153.0849720 107.8166670
  68.0321580 153.6160790 107.4179560  71.5877850 144.5335780 112.1261550
  71.4592480 144.5253680 113.0746470  70.7639870 144.8718870 111.7752560
  68.5871780 146.2926900 121.5868250  67.8730300 146.4923820 122.1920860
  69.0066820 145.5166470 121.9583050  80.0810560 148.7849210 119.3369700
  80.4491380 147.9644420 119.6649270  79.2208760 148.8451100 119.7525350
  83.4472590 147.7406150 110.1457260  82.8185750 147.8451820 109.4315490
  82.9524510 147.9602930 110.9351140  75.4156620 150.0192100 111.5615140
  74.7072770 150.4878440 112.0028750  75.7001100 149.3614110 112.1960330
  77.0412550 151.4388800 119.5607670  77.5397800 151.9134620 120.2259520
  77.1835500 150.5152320 119.7677700  79.4472050 146.7442760 113.0010930
  79.3239830 146.7628890 112.0520440  80.3956610 146.7921700 113.1209330
  73.6191640 148.3277180 108.9365850  74.4682170 148.7647330 108.8706040
  73.2522910 148.6397440 109.7637910  84.2479410 147.6556760 120.4036060
  83.7453010 148.3962160 120.7429870  85.0636070 148.0440760 120.0872850
  82.5401420 152.8989940 113.8497420  81.5991560 152.9140170 114.0245110
  82.8545490 152.1125900 114.2957720  72.5183060 154.5809540 107.4101380
  73.2846330 154.4690900 107.9726810  72.5957750 153.8847510 106.7578150
  71.2129820 152.0134610 108.0934270  71.2933410 151.0662120 108.2051670
  72.1049570 152.3441490 108.1994930  68.7400620 153.8349530 123.3290440
  69.2439640 153.2556810 123.9006670  68.0008040 154.1189760 123.8666810
  70.7723700 151.9779120 124.2240510  70.8129040 151.6792990 125.1325740
  71.6269200 152.3786730 124.0648030  74.5502090 154.5774670 109.3844020
  74.9718510 154.4114540 110.2275410  74.6752930 153.7674900 108.8899160
  72.7129510 150.5571220 122.1915000  72.1825970 150.0662170 121.5638340
  73.3817580 150.9855420 121.6572930  77.0629730 153.6012280 106.6321120
  77.5835390 152.8861300 106.2662270  77.7098130 154.2398150 106.9321630
  82.0829740 152.3636840 123.9595340  82.6650510 151.6089160 123.8715820
  82.2591510 152.8944280 123.1826820  73.2001810 147.5233590 122.2712290
  73.1058680 146.9054340 121.5463160  72.6199200 148.2499880 122.0442200
  75.9663250 146.0806830 119.3039680  75.5180550 146.1031090 118.4585230
  75.3328450 145.6825850 119.9009980  78.7086700 152.7077340 121.3089960
  78.8282910 152.1118480 122.0484800  79.5680700 152.7447030 120.8891260
  81.0474600 153.2614530 119.8852470  80.5209820 153.7857150 119.2817610
  81.3905940 153.8941920 120.5162200  73.4460990 150.6507900 106.3302180
  73.2450050 149.7875260 106.6915520  73.2753040 150.5641260 105.3923780
  75.4755470 149.2498690 122.5665780  76.0655160 148.9414540 123.2543600
  74.6575710 148.7778440 122.7225680  80.2948900 148.8664500 122.7998800
  79.6064420 148.2046040 122.7348790  81.0154920 148.4202770 123.2447260
  80.9249300 145.4616130 108.8589060  81.2051590 144.6184030 109.2148480
  80.1515030 145.6939240 109.3727810  72.2443790 147.7508520 106.3180060
  72.5469690 147.7575950 105.4099210  72.9838380 147.4006380 106.8147720
  75.4628720 146.6943140 107.3036260  75.1150720 146.0167130 106.7238710
  75.6641490 146.2332650 108.1179650  68.8034360 153.2230790 113.7000630
  68.1483200 152.9542430 113.0560330  69.6412310 153.1135270 113.2502610
  81.7524800 148.0172080 107.9219120  82.1709680 147.8303060 107.0815780
  81.4460860 147.1651130 108.2322050  85.2514530 152.9296220 111.6194920
  84.8758130 152.1624150 111.1876210  84.5217650 153.3118920 112.1069850
  69.8410290 153.6083360 118.2403970  70.2083330 153.5210760 119.1199990
  69.2721110 152.8449910 118.1410830  84.6414150 152.0767740 121.2534440
  84.4100240 151.8480490 120.3532390  84.9018700 152.9967290 121.2079330
  69.3926290 150.5192450 122.1462390  68.4982340 150.4859210 122.4856100
  69.9323840 150.7179240 122.9113640  83.0802220 147.3024170 124.0314140
  83.9572400 147.3107570 124.4148140  83.0923060 146.5655010 123.4206490
  68.0172440 150.4329720 109.6425960  67.1136520 150.6959920 109.4677620
  68.5013060 150.7040890 108.8625920  84.5265490 151.1553710 114.9202160
  85.0502970 150.6616360 114.2892330  85.1124910 151.2904070 115.6649730
  84.7055210 151.2393580 118.4421710  83.7557920 151.2057120 118.5566700
  84.8868220 152.1493690 118.2071480  70.5599650 149.4895260 107.5520340
  71.2691350 149.0678480 107.0667620  69.8439590 149.5570490 106.9203690
  70.2073810 145.5434590 106.5922990  70.9301940 146.0843530 106.9104210
  70.4798330 145.2698010 105.7164530  84.0165460 150.4127060 110.8594570
  84.5124580 150.1797930 111.6443450  83.8181530 149.5738900 110.4432210
  69.8966000 144.7940780 116.4945610  70.5442190 144.2438160 116.0540770
  70.3167840 145.0483930 117.3161420  85.4452620 149.0488010 113.3932250
  85.3351900 148.8944050 114.3314520  86.2060210 148.5208950 113.1507660
  83.7918340 144.9882140 119.8515250  84.4290560 145.6016280 120.2174440
  83.9393230 145.0242800 118.9064480  86.3342890 146.8795930 106.6338390
  87.2592200 146.7477110 106.4256680  86.3118680 146.9588750 107.5874840
  86.4081380 147.6506590 109.2595100  85.6132880 147.5851710 109.7888010
  86.6124660 148.5857230 109.2480450  69.6498000 144.9496450 119.2370930
  69.3012820 145.4060270 120.0029110  69.3185700 144.0553580 119.3193360
  77.1622820 146.1408330 122.7590350  77.1011710 146.7330160 123.5085760
  78.1023200 146.0334290 122.6140610  79.7997380 145.7978390 122.3982640
  80.4137790 146.1157680 121.7363720  80.3446940 145.3126980 123.0178500
  70.3218640 144.4772650 122.5121700  70.8701630 144.2960700 121.7487810
  70.3873950 143.6866760 123.0478010  80.5405420 144.3610530 118.7251930
  79.6665260 144.6945640 118.5224860  80.4316170 143.8883710 119.5503800
  81.4477400 146.5681400 120.1093650  81.1190760 145.7533160 119.7295380
  82.3959700 146.5251210 119.9859340  78.2880240 145.2780370 117.6644840
  77.5052030 145.7525870 117.9441600  77.9943170 144.3735200 117.5558020
  82.8401310 145.9803470 115.7093930  83.2809400 145.9248570 114.8615530
  82.5708900 146.8961480 115.7804110  84.7039880 145.6118710 113.7202750
  84.6428280 144.6679930 113.5733770  85.4831910 145.7198800 114.2656210
  69.6320650 145.5827850 110.1858560  70.3900010 145.6956730 109.6122590
  69.1697820 146.4197050 110.1401990  76.1734460 147.6967120 113.1760870
  75.3608970 147.3224010 112.8356750  76.6776100 146.9412200 113.4782060
  80.6759440 144.3609570 114.4143940  81.2788810 144.9329780 114.8892460
  79.9352430 144.9249010 114.1917840  83.8194040 144.7631130 109.6884220
  84.0144670 145.6614580 109.9551650  83.0323910 144.5318210 110.1817170
  72.0045800 146.1091900 108.7260530  72.5338560 145.3221700 108.5968480
  72.6374120 146.7883090 108.9596060  74.1983640 145.8467040 111.7805920
  73.5686380 145.1454350 111.9476050  73.6588780 146.6071170 111.5639080
  74.3239200 145.1251020 124.2158410  74.0423470 145.6284620 123.4519230
  74.7058900 144.3272770 123.8500540  80.9254660 144.5404600 124.7938880
  80.8120110 144.8599210 125.6890400  81.7424400 144.9417110 124.4976160
  79.8312810 152.5597070  95.1573620  79.7506860 151.6451680  94.8865330
  79.4177230 153.0564140  94.4513330  77.9630850 154.3376090  97.0382890
  77.1872950 153.8576530  97.3281460  78.6143780 153.6581740  96.8639050
  71.9796680 154.6495900  97.9158650  71.1481560 154.3944610  98.3155160
  72.5877660 154.7206670  98.6516570  70.3888630 149.6097790  91.7001040
  69.5005330 149.9513760  91.5980920  70.6729820 149.4098110  90.8081870
  68.3521640 152.2103440  97.5840740  68.9237750 151.4425640  97.5844380
  68.3523180 152.5092200  96.6747350  69.5946510 147.6187800  99.3709670
  69.4149350 146.7213550  99.6512430  69.1926590 148.1659670 100.0456620
  78.4345010 149.8203660  97.2721980  78.8109830 148.9475540  97.1595650
  78.3364520 150.1562360  96.3812420  72.5650020 148.1929290  92.7339420
  72.6716770 149.0933020  93.0408180  71.6542380 148.1447260  92.4434070
  82.2169130 147.3154100  94.2050320  83.0378750 146.8250670  94.2475800
  82.2503210 147.9051760  94.9582160  70.2133180 150.1148300  97.9792010
  70.8943290 150.3786670  98.5979410  69.8981230 149.2749170  98.3130020
  74.4057750 151.1615660  97.0664600  74.9135970 151.6596630  97.7069620
  74.9370990 150.3850860  96.8903960  86.5068680 149.3320850 100.7693950
  85.8020850 149.7202560 100.2509060  86.7726600 150.0271140 101.3714880
  72.6893850 145.8014220 101.3328020  72.6912290 146.3186610 100.5273920
  71.8598160 145.3244400 101.3097950  82.4530610 149.2554480  96.9777860
  81.7486180 149.5439370  97.5580970  82.8142770 150.0654590  96.6177420
  72.3709180 147.5124180  99.3398470  72.7125990 148.3566230  99.0452340
  71.4324990 147.6607920  99.4563810  85.5217530 148.7009270  97.3687070
  84.5742440 148.7348250  97.5002500  85.8467520 149.5148220  97.7536430
  76.0537070 145.0006450  95.6643060  76.3612050 144.4453340  94.9478560
  75.1237770 145.1350910  95.4816050  78.4417830 153.0655280  92.4003180
  77.5147110 152.9992660  92.6291650  78.5942650 154.0035410  92.2858420
  78.4286910 149.3372280  89.3970340  77.4890580 149.4986240  89.4822800
  78.7470170 150.0557960  88.8506330  84.9499670 154.0190800  99.3749370
  84.1218300 154.0883890  98.8999500  85.5450150 154.6045110  98.9065200
  82.4715120 154.6275580  92.9038430  81.8527540 154.2895130  92.2564730
  82.4539570 153.9835340  93.6117620  81.9141680 150.8060120 100.3204240
  81.5012860 151.6313830 100.5744230  81.1817630 150.2205160 100.1280600
  74.0474470 153.5920020  95.1822910  73.6431470 152.8797270  94.6868810
  74.1337590 153.2473260  96.0710950  72.7603090 150.3663230  98.9621950
  73.3117680 150.4758570  98.1875200  73.2746600 150.7400830  99.6777180
  80.6479820 153.8662390  89.9111180  81.0873100 153.0284820  89.7649000
  81.3608240 154.4991790  89.9975320  72.4345820 153.8882590 102.5727290
  72.2953590 154.7605390 102.9414690  71.5527180 153.5455400 102.4275230
  84.2296960 145.1205200  88.2252220  83.9169620 145.2132030  89.1251290
  84.9909430 145.6986230  88.1749650  70.7479100 152.4865000  92.6829560
  70.6276700 153.2127090  92.0710830  70.4379990 151.7167910  92.2057470
  85.4398250 149.8576700 104.2026360  84.8242520 150.3656370 103.6741820
  85.1194670 148.9575030 104.1452300  73.2142760 145.8300070  96.0653230
  72.7710910 146.6109610  95.7337750  73.7727750 146.1529960  96.7724170
  77.5012570 148.6968590 101.6688550  77.0391940 148.9051610 102.4808490
  77.0990680 147.8827940 101.3659220  82.5017080 149.9177540 102.7985210
  81.6510670 149.6183290 103.1194280  82.3418870 150.1619550 101.8869030
  79.5966790 151.4179290 104.8984000  79.9220200 150.5843040 104.5586230
  80.3847120 151.9407810 105.0462330  76.3301580 145.4510770  90.9459060
  75.7055760 145.4470640  91.6712370  76.2431700 144.5841730  90.5495030
  75.2518660 146.3747400  97.9242830  75.5490990 147.2810230  97.8434850
  75.8004220 145.8866180  97.3102400  73.0056980 150.9533640  93.7934480
  72.7797900 150.7370810  94.6981100  72.2249510 151.3862100  93.4480450
  80.2354740 150.9597010  92.3925130  79.6363630 151.6832810  92.2088750
  80.7834350 150.8973790  91.6101580  75.4456190 151.8519220 104.4594750
  75.3499790 150.9113950 104.3095150  76.2888170 152.0734290 104.0642820
  78.8419610 149.5960550  94.4228410  79.2349180 149.9132750  93.6097100
  79.2036460 148.7172430  94.5372930  70.5766730 148.2632890 102.6128530
  70.1830120 149.1108100 102.8201310  69.8885130 147.6259260 102.8037170
  77.1511780 148.3467860 105.6825270  76.4610100 148.1540060 106.3171360
  77.8944080 148.6302500 106.2149570  67.8783780 146.1861350  96.6458610
  67.5896830 146.7564210  97.3583590  68.6229540 145.7065800  97.0089840
  68.0654010 150.1281470  87.8561330  67.9828680 151.0712230  87.9976320
  67.7137070 149.9856380  86.9773680  79.4274750 152.1866300  98.5179190
  78.6955870 152.6953110  98.8669290  79.0299090 151.3696280  98.2167970
  75.8652140 148.8620500  96.9231680  75.8688200 148.4210450  96.0736220
  76.7603260 149.1837830  97.0303500  71.7154520 148.7446990  95.8825890
  71.3754570 149.2222220  96.6392940  70.9531840 148.2912110  95.5226990
  75.9272290 149.8632580  89.9138440  76.0485110 149.8219060  90.8624260
  75.5420800 150.7256730  89.7585170  79.8900660 147.6399980  97.9302130
  79.9073400 148.0908630  98.7743980  79.6416240 146.7405620  98.1435570
  74.9393790 152.1733720  89.3121740  74.3710690 151.7251970  88.6857650
  75.6482790 152.5326500  88.7786890  83.3171410 145.0532160 103.7688510
  83.6417180 144.3221820 104.2946490  83.3527920 144.7345800 102.8669500
  76.1660110 152.9222280  98.6697090  76.5330240 152.4480850  99.4158430
  75.9765170 153.7963850  99.0105430  69.0300600 147.6665970  94.7990560
  68.7447520 147.3021640  95.6369180  68.9679460 146.9346430  94.1853700
  73.9559480 151.9630920 100.9881300  73.6516550 152.8422900 101.2131660
  74.9105940 152.0230710 101.0238740  78.7039190 146.5595230  91.5203930
  77.8903800 146.0608400  91.4449240  78.5101140 147.3993480  91.1040280
  81.4187580 150.9314880  89.8166090  82.3067200 151.2432110  89.6417430
  81.3892670 150.0587130  89.4246670  70.0123210 152.8033660 102.1352660
  69.6538150 153.4687510 102.7226000  69.7177770 151.9717210 102.5065280
  73.2136330 153.2617900 105.0192210  72.9136470 153.4075080 104.1220030
  73.9847570 152.7023190 104.9265600  83.6901850 152.2426720  89.2845950
  83.6065570 152.6740940  88.4342390  84.4096040 152.7025070  89.7172770
  68.5231260 152.8024920  88.7587260  69.3926110 153.0849720  89.0423180
  68.0321580 153.6160790  88.6436070  71.5877850 144.5335780  93.3518060
  71.4592480 144.5253680  94.3002980  70.7639870 144.8718870  93.0009070
  68.5871780 146.2926900 102.8124760  67.8730300 146.4923820 103.4177370
  69.0066820 145.5166470 103.1839560  80.0810560 148.7849210 100.5626210
  80.4491380 147.9644420 100.8905780  79.2208760 148.8451100 100.9781860
  83.4472590 147.7406150  91.3713770  82.8185750 147.8451820  90.6572000
  82.9524510 147.9602930  92.1607650  75.4156620 150.0192100  92.7871650
  74.7072770 150.4878440  93.2285260  75.7001100 149.3614110  93.4216840
  77.0412550 151.4388800 100.7864180  77.5397800 151.9134620 101.4516030
  77.1835500 150.5152320 100.9934210  79.4472050 146.7442760  94.2267440
  79.3239830 146.7628890  93.2776950  80.3956610 146.7921700  94.3465840
  73.6191640 148.3277180  90.1622360  74.4682170 148.7647330  90.0962550
  73.2522910 148.6397440  90.9894420  84.2479410 147.6556760 101.6292570
  83.7453010 148.3962160 101.9686380  85.0636070 148.0440760 101.3129360
  82.5401420 152.8989940  95.0753930  81.5991560 152.9140170  95.2501620
  82.8545490 152.1125900  95.5214230  72.5183060 154.5809540  88.6357890
  73.2846330 154.4690900  89.1983320  72.5957750 153.8847510  87.9834660
  71.2129820 152.0134610  89.3190780  71.2933410 151.0662120  89.4308180
  72.1049570 152.3441490  89.4251440  68.7400620 153.8349530 104.5546950
  69.2439640 153.2556810 105.1263180  68.0008040 154.1189760 105.0923320
  70.7723700 151.9779120 105.4497020  70.8129040 151.6792990 106.3582250
  71.6269200 152.3786730 105.2904540  74.5502090 154.5774670  90.6100530
  74.9718510 154.4114540  91.4531920  74.6752930 153.7674900  90.1155670
  72.7129510 150.5571220 103.4171510  72.1825970 150.0662170 102.7894850
  73.3817580 150.9855420 102.8829440  77.0629730 153.6012280  87.8577630
  77.5835390 152.8861300  87.4918780  77.7098130 154.2398150  88.1578140
  82.0829740 152.3636840 105.1851850  82.6650510 151.6089160 105.0972330
  82.2591510 152.8944280 104.4083330  73.2001810 147.5233590 103.4968800
  73.1058680 146.9054340 102.7719670  72.6199200 148.2499880 103.2698710
  75.9663250 146.0806830 100.5296190  75.5180550 146.1031090  99.6841740
  75.3328450 145.6825850 101.1266490  78.7086700 152.7077340 102.5346470
  78.8282910 152.1118480 103.2741310  79.5680700 152.7447030 102.1147770
  81.0474600 153.2614530 101.1108980  80.5209820 153.7857150 100.5074120
  81.3905940 153.8941920 101.7418710  73.4460990 150.6507900  87.5558690
  73.2450050 149.7875260  87.9172030  73.2753040 150.5641260  86.6180290
  75.4755470 149.2498690 103.7922290  76.0655160 148.9414540 104.4800110
  74.6575710 148.7778440 103.9482190  80.2948900 148.8664500 104.0255310
  79.6064420 148.2046040 103.9605300  81.0154920 148.4202770 104.4703770
  80.9249300 145.4616130  90.0845570  81.2051590 144.6184030  90.4404990
  80.1515030 145.6939240  90.5984320  72.2443790 147.7508520  87.5436570
  72.5469690 147.7575950  86.6355720  72.9838380 147.4006380  88.0404230
  75.4628720 146.6943140  88.5292770  75.1150720 146.0167130  87.9495220
  75.6641490 146.2332650  89.3436160  68.8034360 153.2230790  94.9257140
  68.1483200 152.9542430  94.2816840  69.6412310 153.1135270  94.4759120
  81.7524800 148.0172080  89.1475630  82.1709680 147.8303060  88.3072290
  81.4460860 147.1651130  89.4578560  85.2514530 152.9296220  92.8451430
  84.8758130 152.1624150  92.4132720  84.5217650 153.3118920  93.3326360
  69.8410290 153.6083360  99.4660480  70.2083330 153.5210760 100.3456500
  69.2721110 152.8449910  99.3667340  84.6414150 152.0767740 102.4790950
  84.4100240 151.8480490 101.5788900  84.9018700 152.9967290 102.4335840
  69.3926290 150.5192450 103.3718900  68.4982340 150.4859210 103.7112610
  69.9323840 150.7179240 104.1370150  83.0802220 147.3024170 105.2570650
  83.9572400 147.3107570 105.6404650  83.0923060 146.5655010 104.6463000
  68.0172440 150.4329720  90.8682470  67.1136520 150.6959920  90.6934130
  68.5013060 150.7040890  90.0882430  84.5265490 151.1553710  96.1458670
  85.0502970 150.6616360  95.5148840  85.1124910 151.2904070  96.8906240
  84.7055210 151.2393580  99.6678220  83.7557920 151.2057120  99.7823210
  84.8868220 152.1493690  99.4327990  70.5599650 149.4895260  88.7776850
  71.2691350 149.0678480  88.2924130  69.8439590 149.5570490  88.1460200
  70.2073810 145.5434590  87.8179500  70.9301940 146.0843530  88.1360720
  70.4798330 145.2698010  86.9421040  84.0165460 150.4127060  92.0851080
  84.5124580 150.1797930  92.8699960  83.8181530 149.5738900  91.6688720
  69.8966000 144.7940780  97.7202120  70.5442190 144.2438160  97.2797280
  70.3167840 145.0483930  98.5417930  85.4452620 149.0488010  94.6188760
  85.3351900 148.8944050  95.5571030  86.2060210 148.5208950  94.3764170
  83.7918340 144.9882140 101.0771760  84.4290560 145.6016280 101.4430950
  83.9393230 145.0242800 100.1320990  86.3342890 146.8795930  87.8594900
  87.2592200 146.7477110  87.6513190  86.3118680 146.9588750  88.8131350
  86.4081380 147.6506590  90.4851610  85.6132880 147.5851710  91.0144520
  86.6124660 148.5857230  90.4736960  69.6498000 144.9496450 100.4627440
  69.3012820 145.4060270 101.2285620  69.3185700 144.0553580 100.5449870
  77.1622820 146.1408330 103.9846860  77.1011710 146.7330160 104.7342270
  78.1023200 146.0334290 103.8397120  79.7997380 145.7978390 103.6239150
  80.4137790 146.1157680 102.9620230  80.3446940 145.3126980 104.2435010
  70.3218640 144.4772650 103.7378210  70.8701630 144.2960700 102.9744320
  70.3873950 143.6866760 104.2734520  80.5405420 144.3610530  99.9508440
  79.6665260 144.6945640  99.7481370  80.4316170 143.8883710 100.7760310
  81.4477400 146.5681400 101.3350160  81.1190760 145.7533160 100.9551890
  82.3959700 146.5251210 101.2115850  78.2880240 145.2780370  98.8901350
  77.5052030 145.7525870  99.1698110  77.9943170 144.3735200  98.7814530
  82.8401310 145.9803470  96.9350440  83.2809400 145.9248570  96.0872040
  82.5708900 146.8961480  97.0060620  84.7039880 145.6118710  94.9459260
  84.6428280 144.6679930  94.7990280  85.4831910 145.7198800  95.4912720
  69.6320650 145.5827850  91.4115070  70.3900010 145.6956730  90.8379100
  69.1697820 146.4197050  91.3658500  76.1734460 147.6967120  94.4017380
  75.3608970 147.3224010  94.0613260  76.6776100 146.9412200  94.7038570
  80.6759440 144.3609570  95.6400450  81.2788810 144.9329780  96.1148970
  79.9352430 144.9249010  95.4174350  83.8194040 144.7631130  90.9140730
  84.0144670 145.6614580  91.1808160  83.0323910 144.5318210  91.4073680
  72.0045800 146.1091900  89.9517040  72.5338560 145.3221700  89.8224990
  72.6374120 146.7883090  90.1852570  74.1983640 145.8467040  93.0062430
  73.5686380 145.1454350  93.1732560  73.6588780 146.6071170  92.7895590
  74.3239200 145.1251020 105.4414920  74.0423470 145.6284620 104.6775740
  74.7058900 144.3272770 105.0757050  80.9254660 144.5404600 106.0195390
  80.8120110 144.8599210 106.9146910  81.7424400 144.9417110 105.7232670
  79.8312810 152.5597070  76.3830130  79.7506860 151.6451680  76.1121840
  79.4177230 153.0564140  75.6769840  77.9630850 154.3376090  78.2639400
  77.1872950 153.8576530  78.5537970  78.6143780 153.6581740  78.0895560
  71.9796680 154.6495900  79.1415160  71.1481560 154.3944610  79.5411670
  72.5877660 154.7206670  79.8773080  70.3888630 149.6097790  72.9257550
  69.5005330 149.9513760  72.8237430  70.6729820 149.4098110  72.0338380
  68.3521640 152.2103440  78.8097250  68.9237750 151.4425640  78.8100890
  68.3523180 152.5092200  77.9003860  69.5946510 147.6187800  80.5966180
  69.4149350 146.7213550  80.8768940  69.1926590 148.1659670  81.2713130
  78.4345010 149.8203660  78.4978490  78.8109830 148.9475540  78.3852160
  78.3364520 150.1562360  77.6068930  72.5650020 148.1929290  73.9595930
  72.6716770 149.0933020  74.2664690  71.6542380 148.1447260  73.6690580
  82.2169130 147.3154100  75.4306830  83.0378750 146.8250670  75.4732310
  82.2503210 147.9051760  76.1838670  70.2133180 150.1148300  79.2048520
  70.8943290 150.3786670  79.8235920  69.8981230 149.2749170  79.5386530
  74.4057750 151.1615660  78.2921110  74.9135970 151.6596630  78.9326130
  74.9370990 150.3850860  78.1160470  86.5068680 149.3320850  81.9950460
  85.8020850 149.7202560  81.4765570  86.7726600 150.0271140  82.5971390
  72.6893850 145.8014220  82.5584530  72.6912290 146.3186610  81.7530430
  71.8598160 145.3244400  82.5354460  82.4530610 149.2554480  78.2034370
  81.7486180 149.5439370  78.7837480  82.8142770 150.0654590  77.8433930
  72.3709180 147.5124180  80.5654980  72.7125990 148.3566230  80.2708850
  71.4324990 147.6607920  80.6820320  85.5217530 148.7009270  78.5943580
  84.5742440 148.7348250  78.7259010  85.8467520 149.5148220  78.9792940
  76.0537070 145.0006450  76.8899570  76.3612050 144.4453340  76.1735070
  75.1237770 145.1350910  76.7072560  78.4417830 153.0655280  73.6259690
  77.5147110 152.9992660  73.8548160  78.5942650 154.0035410  73.5114930
  78.4286910 149.3372280  70.6226850  77.4890580 149.4986240  70.7079310
  78.7470170 150.0557960  70.0762840  84.9499670 154.0190800  80.6005880
  84.1218300 154.0883890  80.1256010  85.5450150 154.6045110  80.1321710
  82.4715120 154.6275580  74.1294940  81.8527540 154.2895130  73.4821240
  82.4539570 153.9835340  74.8374130  81.9141680 150.8060120  81.5460750
  81.5012860 151.6313830  81.8000740  81.1817630 150.2205160  81.3537110
  74.0474470 153.5920020  76.4079420  73.6431470 152.8797270  75.9125320
  74.1337590 153.2473260  77.2967460  72.7603090 150.3663230  80.1878460
  73.3117680 150.4758570  79.4131710  73.2746600 150.7400830  80.9033690
  80.6479820 153.8662390  71.1367690  81.0873100 153.0284820  70.9905510
  81.3608240 154.4991790  71.2231830  72.4345820 153.8882590  83.7983800
  72.2953590 154.7605390  84.1671200  71.5527180 153.5455400  83.6531740
  84.2296960 145.1205200  69.4508730  83.9169620 145.2132030  70.3507800
  84.9909430 145.6986230  69.4006160  70.7479100 152.4865000  73.9086070
  70.6276700 153.2127090  73.2967340  70.4379990 151.7167910  73.4313980
  85.4398250 149.8576700  85.4282870  84.8242520 150.3656370  84.8998330
  85.1194670 148.9575030  85.3708810  73.2142760 145.8300070  77.2909740
  72.7710910 146.6109610  76.9594260  73.7727750 146.1529960  77.9980680
  77.5012570 148.6968590  82.8945060  77.0391940 148.9051610  83.7065000
  77.0990680 147.8827940  82.5915730  82.5017080 149.9177540  84.0241720
  81.6510670 149.6183290  84.3450790  82.3418870 150.1619550  83.1125540
  79.5966790 151.4179290  86.1240510  79.9220200 150.5843040  85.7842740
  80.3847120 151.9407810  86.2718840  76.3301580 145.4510770  72.1715570
  75.7055760 145.4470640  72.8968880  76.2431700 144.5841730  71.7751540
  75.2518660 146.3747400  79.1499340  75.5490990 147.2810230  79.0691360
  75.8004220 145.8866180  78.5358910  73.0056980 150.9533640  75.0190990
  72.7797900 150.7370810  75.9237610  72.2249510 151.3862100  74.6736960
  80.2354740 150.9597010  73.6181640  79.6363630 151.6832810  73.4345260
  80.7834350 150.8973790  72.8358090  75.4456190 151.8519220  85.6851260
  75.3499790 150.9113950  85.5351660  76.2888170 152.0734290  85.2899330
  78.8419610 149.5960550  75.6484920  79.2349180 149.9132750  74.8353610
  79.2036460 148.7172430  75.7629440  70.5766730 148.2632890  83.8385040
  70.1830120 149.1108100  84.0457820  69.8885130 147.6259260  84.0293680
  77.1511780 148.3467860  86.9081780  76.4610100 148.1540060  87.5427870
  77.8944080 148.6302500  87.4406080  67.8783780 146.1861350  77.8715120
  67.5896830 146.7564210  78.5840100  68.6229540 145.7065800  78.2346350
  68.0654010 150.1281470  69.0817840  67.9828680 151.0712230  69.2232830
  67.7137070 149.9856380  68.2030190  79.4274750 152.1866300  79.7435700
  78.6955870 152.6953110  80.0925800  79.0299090 151.3696280  79.4424480
  75.8652140 148.8620500  78.1488190  75.8688200 148.4210450  77.2992730
  76.7603260 149.1837830  78.2560010  71.7154520 148.7446990  77.1082400
  71.3754570 149.2222220  77.8649450  70.9531840 148.2912110  76.7483500
  75.9272290 149.8632580  71.1394950  76.0485110 149.8219060  72.0880770
  75.5420800 150.7256730  70.9841680  79.8900660 147.6399980  79.1558640
  79.9073400 148.0908630  80.0000490  79.6416240 146.7405620  79.3692080
  74.9393790 152.1733720  70.5378250  74.3710690 151.7251970  69.9114160
  75.6482790 152.5326500  70.0043400  83.3171410 145.0532160  84.9945020
  83.6417180 144.3221820  85.5203000  83.3527920 144.7345800  84.0926010
  76.1660110 152.9222280  79.8953600  76.5330240 152.4480850  80.6414940
  75.9765170 153.7963850  80.2361940  69.0300600 147.6665970  76.0247070
  68.7447520 147.3021640  76.8625690  68.9679460 146.9346430  75.4110210
  73.9559480 151.9630920  82.2137810  73.6516550 152.8422900  82.4388170
  74.9105940 152.0230710  82.2495250  78.7039190 146.5595230  72.7460440
  77.8903800 146.0608400  72.6705750  78.5101140 147.3993480  72.3296790
  81.4187580 150.9314880  71.0422600  82.3067200 151.2432110  70.8673940
  81.3892670 150.0587130  70.6503180  70.0123210 152.8033660  83.3609170
  69.6538150 153.4687510  83.9482510  69.7177770 151.9717210  83.7321790
  73.2136330 153.2617900  86.2448720  72.9136470 153.4075080  85.3476540
  73.9847570 152.7023190  86.1522110  83.6901850 152.2426720  70.5102460
  83.6065570 152.6740940  69.6598900  84.4096040 152.7025070  70.9429280
  68.5231260 152.8024920  69.9843770  69.3926110 153.0849720  70.2679690
  68.0321580 153.6160790  69.8692580  71.5877850 144.5335780  74.5774570
  71.4592480 144.5253680  75.5259490  70.7639870 144.8718870  74.2265580
  68.5871780 146.2926900  84.0381270  67.8730300 146.4923820  84.6433880
  69.0066820 145.5166470  84.4096070  80.0810560 148.7849210  81.7882720
  80.4491380 147.9644420  82.1162290  79.2208760 148.8451100  82.2038370
  83.4472590 147.7406150  72.5970280  82.8185750 147.8451820  71.8828510
  82.9524510 147.9602930  73.3864160  75.4156620 150.0192100  74.0128160
  74.7072770 150.4878440  74.4541770  75.7001100 149.3614110  74.6473350
  77.0412550 151.4388800  82.0120690  77.5397800 151.9134620  82.6772540
  77.1835500 150.5152320  82.2190720  79.4472050 146.7442760  75.4523950
  79.3239830 146.7628890  74.5033460  80.3956610 146.7921700  75.5722350
  73.6191640 148.3277180  71.3878870  74.4682170 148.7647330  71.3219060
  73.2522910 148.6397440  72.2150930  84.2479410 147.6556760  82.8549080
  83.7453010 148.3962160  83.1942890  85.0636070 148.0440760  82.5385870
  82.5401420 152.8989940  76.3010440  81.5991560 152.9140170  76.4758130
  82.8545490 152.1125900  76.7470740  72.5183060 154.5809540  69.8614400
  73.2846330 154.4690900  70.4239830  72.5957750 153.8847510  69.2091170
  71.2129820 152.0134610  70.5447290  71.2933410 151.0662120  70.6564690
  72.1049570 152.3441490  70.6507950  68.7400620 153.8349530  85.7803460
  69.2439640 153.2556810  86.3519690  68.0008040 154.1189760  86.3179830
  70.7723700 151.9779120  86.6753530  70.8129040 151.6792990  87.5838760
  71.6269200 152.3786730  86.5161050  74.5502090 154.5774670  71.8357040
  74.9718510 154.4114540  72.6788430  74.6752930 153.7674900  71.3412180
  72.7129510 150.5571220  84.6428020  72.1825970 150.0662170  84.0151360
  73.3817580 150.9855420  84.1085950  77.0629730 153.6012280  69.0834140
  77.5835390 152.8861300  68.7175290  77.7098130 154.2398150  69.3834650
  82.0829740 152.3636840  86.4108360  82.6650510 151.6089160  86.3228840
  82.2591510 152.8944280  85.6339840  73.2001810 147.5233590  84.7225310
  73.1058680 146.9054340  83.9976180  72.6199200 148.2499880  84.4955220
  75.9663250 146.0806830  81.7552700  75.5180550 146.1031090  80.9098250
  75.3328450 145.6825850  82.3523000  78.7086700 152.7077340  83.7602980
  78.8282910 152.1118480  84.4997820  79.5680700 152.7447030  83.3404280
  81.0474600 153.2614530  82.3365490  80.5209820 153.7857150  81.7330630
  81.3905940 153.8941920  82.9675220  73.4460990 150.6507900  68.7815200
  73.2450050 149.7875260  69.1428540  73.2753040 150.5641260  67.8436800
  75.4755470 149.2498690  85.0178800  76.0655160 148.9414540  85.7056620
  74.6575710 148.7778440  85.1738700  80.2948900 148.8664500  85.2511820
  79.6064420 148.2046040  85.1861810  81.0154920 148.4202770  85.6960280
  80.9249300 145.4616130  71.3102080  81.2051590 144.6184030  71.6661500
  80.1515030 145.6939240  71.8240830  72.2443790 147.7508520  68.7693080
  72.5469690 147.7575950  67.8612230  72.9838380 147.4006380  69.2660740
  75.4628720 146.6943140  69.7549280  75.1150720 146.0167130  69.1751730
  75.6641490 146.2332650  70.5692670  68.8034360 153.2230790  76.1513650
  68.1483200 152.9542430  75.5073350  69.6412310 153.1135270  75.7015630
  81.7524800 148.0172080  70.3732140  82.1709680 147.8303060  69.5328800
  81.4460860 147.1651130  70.6835070  85.2514530 152.9296220  74.0707940
  84.8758130 152.1624150  73.6389230  84.5217650 153.3118920  74.5582870
  69.8410290 153.6083360  80.6916990  70.2083330 153.5210760  81.5713010
  69.2721110 152.8449910  80.5923850  84.6414150 152.0767740  83.7047460
  84.4100240 151.8480490  82.8045410  84.9018700 152.9967290  83.6592350
  69.3926290 150.5192450  84.5975410  68.4982340 150.4859210  84.9369120
  69.9323840 150.7179240  85.3626660  83.0802220 147.3024170  86.4827160
  83.9572400 147.3107570  86.8661160  83.0923060 146.5655010  85.8719510
  68.0172440 150.4329720  72.0938980  67.1136520 150.6959920  71.9190640
  68.5013060 150.7040890  71.3138940  84.5265490 151.1553710  77.3715180
  85.0502970 150.6616360  76.7405350  85.1124910 151.2904070  78.1162750
  84.7055210 151.2393580  80.8934730  83.7557920 151.2057120  81.0079720
  84.8868220 152.1493690  80.6584500  70.5599650 149.4895260  70.0033360
  71.2691350 149.0678480  69.5180640  69.8439590 149.5570490  69.3716710
  70.2073810 145.5434590  69.0436010  70.9301940 146.0843530  69.3617230
  70.4798330 145.2698010  68.1677550  84.0165460 150.4127060  73.3107590
  84.5124580 150.1797930  74.0956470  83.8181530 149.5738900  72.8945230
  69.8966000 144.7940780  78.9458630  70.5442190 144.2438160  78.5053790
  70.3167840 145.0483930  79.7674440  85.4452620 149.0488010  75.8445270
  85.3351900 148.8944050  76.7827540  86.2060210 148.5208950  75.6020680
  86.3342890 146.8795930  69.0851410  87.2592200 146.7477110  68.8769700
  86.3118680 146.9588750  70.0387860  86.4081380 147.6506590  71.7108120
  85.6132880 147.5851710  72.2401030  86.6124660 148.5857230  71.6993470
  69.6498000 144.9496450  81.6883950  69.3012820 145.4060270  82.4542130
  69.3185700 144.0553580  81.7706380  77.1622820 146.1408330  85.2103370
  77.1011710 146.7330160  85.9598780  78.1023200 146.0334290  85.0653630
  79.7997380 145.7978390  84.8495660  80.4137790 146.1157680  84.1876740
  80.3446940 145.3126980  85.4691520  70.3218640 144.4772650  84.9634720
  70.8701630 144.2960700  84.2000830  70.3873950 143.6866760  85.4991030
  81.4477400 146.5681400  82.5606670  81.1190760 145.7533160  82.1808400
  82.3959700 146.5251210  82.4372360  78.2880240 145.2780370  80.1157860
  77.5052030 145.7525870  80.3954620  77.9943170 144.3735200  80.0071040
  82.8401310 145.9803470  78.1606950  83.2809400 145.9248570  77.3128550
  82.5708900 146.8961480  78.2317130  84.7039880 145.6118710  76.1715770
  84.6428280 144.6679930  76.0246790  85.4831910 145.7198800  76.7169230
  69.6320650 145.5827850  72.6371580  70.3900010 145.6956730  72.0635610
  69.1697820 146.4197050  72.5915010  76.1734460 147.6967120  75.6273890
  75.3608970 147.3224010  75.2869770  76.6776100 146.9412200  75.9295080
  80.6759440 144.3609570  76.8656960  81.2788810 144.9329780  77.3405480
  79.9352430 144.9249010  76.6430860  83.8194040 144.7631130  72.1397240
  84.0144670 145.6614580  72.4064670  83.0323910 144.5318210  72.6330190
  72.0045800 146.1091900  71.1773550  72.5338560 145.3221700  71.0481500
  72.6374120 146.7883090  71.4109080  74.1983640 145.8467040  74.2318940
  73.5686380 145.1454350  74.3989070  73.6588780 146.6071170  74.0152100
  74.3239200 145.1251020  86.6671430  74.0423470 145.6284620  85.9032250
  74.7058900 144.3272770  86.3013560  80.9254660 144.5404600  87.2451900
  80.8120110 144.8599210  88.1403420  81.7424400 144.9417110  86.9489180
  79.8312810 152.5597070  57.6086640  79.7506860 151.6451680  57.3378350
  79.4177230 153.0564140  56.9026350  77.9630850 154.3376090  59.4895910
  77.1872950 153.8576530  59.7794480  78.6143780 153.6581740  59.3152070
  71.9796680 154.6495900  60.3671670  71.1481560 154.3944610  60.7668180
  72.5877660 154.7206670  61.1029590  70.3888630 149.6097790  54.1514060
  69.5005330 149.9513760  54.0493940  70.6729820 149.4098110  53.2594890
  68.3521640 152.2103440  60.0353760  68.9237750 151.4425640  60.0357400
  68.3523180 152.5092200  59.1260370  69.5946510 147.6187800  61.8222690
  69.4149350 146.7213550  62.1025450  69.1926590 148.1659670  62.4969640
  78.4345010 149.8203660  59.7235000  78.8109830 148.9475540  59.6108670
  78.3364520 150.1562360  58.8325440  72.5650020 148.1929290  55.1852440
  72.6716770 149.0933020  55.4921200  71.6542380 148.1447260  54.8947090
  82.2169130 147.3154100  56.6563340  83.0378750 146.8250670  56.6988820
  82.2503210 147.9051760  57.4095180  70.2133180 150.1148300  60.4305030
  70.8943290 150.3786670  61.0492430  69.8981230 149.2749170  60.7643040
  74.4057750 151.1615660  59.5177620  74.9135970 151.6596630  60.1582640
  74.9370990 150.3850860  59.3416980  86.5068680 149.3320850  63.2206970
  85.8020850 149.7202560  62.7022080  86.7726600 150.0271140  63.8227900
  72.6893850 145.8014220  63.7841040  72.6912290 146.3186610  62.9786940
  71.8598160 145.3244400  63.7610970  82.4530610 149.2554480  59.4290880
  81.7486180 149.5439370  60.0093990  82.8142770 150.0654590  59.0690440
  72.3709180 147.5124180  61.7911490  72.7125990 148.3566230  61.4965360
  71.4324990 147.6607920  61.9076830  85.5217530 148.7009270  59.8200090
  84.5742440 148.7348250  59.9515520  85.8467520 149.5148220  60.2049450
  76.0537070 145.0006450  58.1156080  76.3612050 144.4453340  57.3991580
  75.1237770 145.1350910  57.9329070  78.4417830 153.0655280  54.8516200
  77.5147110 152.9992660  55.0804670  78.5942650 154.0035410  54.7371440
  78.4286910 149.3372280  51.8483360  77.4890580 149.4986240  51.9335820
  78.7470170 150.0557960  51.3019350  84.9499670 154.0190800  61.8262390
  84.1218300 154.0883890  61.3512520  85.5450150 154.6045110  61.3578220
  82.4715120 154.6275580  55.3551450  81.8527540 154.2895130  54.7077750
  82.4539570 153.9835340  56.0630640  81.9141680 150.8060120  62.7717260
  81.5012860 151.6313830  63.0257250  81.1817630 150.2205160  62.5793620
  74.0474470 153.5920020  57.6335930  73.6431470 152.8797270  57.1381830
  74.1337590 153.2473260  58.5223970  72.7603090 150.3663230  61.4134970
  73.3117680 150.4758570  60.6388220  73.2746600 150.7400830  62.1290200
  80.6479820 153.8662390  52.3624200  81.0873100 153.0284820  52.2162020
  81.3608240 154.4991790  52.4488340  72.4345820 153.8882590  65.0240310
  72.2953590 154.7605390  65.3927710  71.5527180 153.5455400  64.8788250
  84.2296960 145.1205200  50.6765240  83.9169620 145.2132030  51.5764310
  84.9909430 145.6986230  50.6262670  70.7479100 152.4865000  55.1342580
  70.6276700 153.2127090  54.5223850  70.4379990 151.7167910  54.6570490
  85.4398250 149.8576700  66.6539380  84.8242520 150.3656370  66.1254840
  85.1194670 148.9575030  66.5965320  73.2142760 145.8300070  58.5166250
  72.7710910 146.6109610  58.1850770  73.7727750 146.1529960  59.2237190
  77.5012570 148.6968590  64.1201570  77.0391940 148.9051610  64.9321510
  77.0990680 147.8827940  63.8172240  82.5017080 149.9177540  65.2498230
  81.6510670 149.6183290  65.5707300  82.3418870 150.1619550  64.3382050
  79.5966790 151.4179290  67.3497020  79.9220200 150.5843040  67.0099250
  80.3847120 151.9407810  67.4975350  76.3301580 145.4510770  53.3972080
  75.7055760 145.4470640  54.1225390  76.2431700 144.5841730  53.0008050
  75.2518660 146.3747400  60.3755850  75.5490990 147.2810230  60.2947870
  75.8004220 145.8866180  59.7615420  73.0056980 150.9533640  56.2447500
  72.7797900 150.7370810  57.1494120  72.2249510 151.3862100  55.8993470
  80.2354740 150.9597010  54.8438150  79.6363630 151.6832810  54.6601770
  80.7834350 150.8973790  54.0614600  75.4456190 151.8519220  66.9107770
  75.3499790 150.9113950  66.7608170  76.2888170 152.0734290  66.5155840
  78.8419610 149.5960550  56.8741430  79.2349180 149.9132750  56.0610120
  79.2036460 148.7172430  56.9885950  70.5766730 148.2632890  65.0641550
  70.1830120 149.1108100  65.2714330  69.8885130 147.6259260  65.2550190
  77.1511780 148.3467860  68.1338290  76.4610100 148.1540060  68.7684380
  77.8944080 148.6302500  68.6662590  67.8783780 146.1861350  59.0971630
  67.5896830 146.7564210  59.8096610  68.6229540 145.7065800  59.4602860
  68.0654010 150.1281470  50.3074350  67.9828680 151.0712230  50.4489340
  67.7137070 149.9856380  49.4286700  79.4274750 152.1866300  60.9692210
  78.6955870 152.6953110  61.3182310  79.0299090 151.3696280  60.6680990
  75.8652140 148.8620500  59.3744700  75.8688200 148.4210450  58.5249240
  76.7603260 149.1837830  59.4816520  71.7154520 148.7446990  58.3338910
  71.3754570 149.2222220  59.0905960  70.9531840 148.2912110  57.9740010
  75.9272290 149.8632580  52.3651460  76.0485110 149.8219060  53.3137280
  75.5420800 150.7256730  52.2098190  79.8900660 147.6399980  60.3815150
  79.9073400 148.0908630  61.2257000  79.6416240 146.7405620  60.5948590
  74.9393790 152.1733720  51.7634760  74.3710690 151.7251970  51.1370670
  75.6482790 152.5326500  51.2299910  83.3171410 145.0532160  66.2201530
  83.6417180 144.3221820  66.7459510  83.3527920 144.7345800  65.3182520
  76.1660110 152.9222280  61.1210110  76.5330240 152.4480850  61.8671450
  75.9765170 153.7963850  61.4618450  69.0300600 147.6665970  57.2503580
  68.7447520 147.3021640  58.0882200  68.9679460 146.9346430  56.6366720
  73.9559480 151.9630920  63.4394320  73.6516550 152.8422900  63.6644680
  74.9105940 152.0230710  63.4751760  78.7039190 146.5595230  53.9716950
  77.8903800 146.0608400  53.8962260  78.5101140 147.3993480  53.5553300
  81.4187580 150.9314880  52.2679110  82.3067200 151.2432110  52.0930450
  81.3892670 150.0587130  51.8759690  70.0123210 152.8033660  64.5865680
  69.6538150 153.4687510  65.1739020  69.7177770 151.9717210  64.9578300
  73.2136330 153.2617900  67.4705230  72.9136470 153.4075080  66.5733050
  73.9847570 152.7023190  67.3778620  83.6901850 152.2426720  51.7358970
  83.6065570 152.6740940  50.8855410  84.4096040 152.7025070  52.1685790
  68.5231260 152.8024920  51.2100280  69.3926110 153.0849720  51.4936200
  68.0321580 153.6160790  51.0949090  71.5877850 144.5335780  55.8031080
  71.4592480 144.5253680  56.7516000  70.7639870 144.8718870  55.4522090
  68.5871780 146.2926900  65.2637780  67.8730300 146.4923820  65.8690390
  69.0066820 145.5166470  65.6352580  80.0810560 148.7849210  63.0139230
  80.4491380 147.9644420  63.3418800  79.2208760 148.8451100  63.4294880
  83.4472590 147.7406150  53.8226790  82.8185750 147.8451820  53.1085020
  82.9524510 147.9602930  54.6120670  75.4156620 150.0192100  55.2384670
  74.7072770 150.4878440  55.6798280  75.7001100 149.3614110  55.8729860
  77.0412550 151.4388800  63.2377200  77.5397800 151.9134620  63.9029050
  77.1835500 150.5152320  63.4447230  79.4472050 146.7442760  56.6780460
  79.3239830 146.7628890  55.7289970  80.3956610 146.7921700  56.7978860
  73.6191640 148.3277180  52.6135380  74.4682170 148.7647330  52.5475570
  73.2522910 148.6397440  53.4407440  84.2479410 147.6556760  64.0805590
  83.7453010 148.3962160  64.4199400  85.0636070 148.0440760  63.7642380
  82.5401420 152.8989940  57.5266950  81.5991560 152.9140170  57.7014640
  82.8545490 152.1125900  57.9727250  72.5183060 154.5809540  51.0870910
  73.2846330 154.4690900  51.6496340  72.5957750 153.8847510  50.4347680
  71.2129820 152.0134610  51.7703800  71.2933410 151.0662120  51.8821200
  72.1049570 152.3441490  51.8764460  68.7400620 153.8349530  67.0059970
  69.2439640 153.2556810  67.5776200  68.0008040 154.1189760  67.5436340
  70.7723700 151.9779120  67.9010040  70.8129040 151.6792990  68.8095270
  71.6269200 152.3786730  67.7417560  74.5502090 154.5774670  53.0613550
  74.9718510 154.4114540  53.9044940  74.6752930 153.7674900  52.5668690
  72.7129510 150.5571220  65.8684530  72.1825970 150.0662170  65.2407870
  73.3817580 150.9855420  65.3342460  77.0629730 153.6012280  50.3090650
  77.5835390 152.8861300  49.9431800  77.7098130 154.2398150  50.6091160
  82.0829740 152.3636840  67.6364870  82.6650510 151.6089160  67.5485350
  82.2591510 152.8944280  66.8596350  73.2001810 147.5233590  65.9481820
  73.1058680 146.9054340  65.2232690  72.6199200 148.2499880  65.7211730
  75.9663250 146.0806830  62.9809210  75.5180550 146.1031090  62.1354760
  75.3328450 145.6825850  63.5779510  78.7086700 152.7077340  64.9859490
  78.8282910 152.1118480  65.7254330  79.5680700 152.7447030  64.5660790
  81.0474600 153.2614530  63.5622000  80.5209820 153.7857150  62.9587140
  81.3905940 153.8941920  64.1931730  73.4460990 150.6507900  50.0071710
  73.2450050 149.7875260  50.3685050  73.2753040 150.5641260  49.0693310
  75.4755470 149.2498690  66.2435310  76.0655160 148.9414540  66.9313130
  74.6575710 148.7778440  66.3995210  80.2948900 148.8664500  66.4768330
  79.6064420 148.2046040  66.4118320  81.0154920 148.4202770  66.9216790
  80.9249300 145.4616130  52.5358590  81.2051590 144.6184030  52.8918010
  80.1515030 145.6939240  53.0497340  72.2443790 147.7508520  49.9949590
  72.5469690 147.7575950  49.0868740  72.9838380 147.4006380  50.4917250
  75.4628720 146.6943140  50.9805790  75.1150720 146.0167130  50.4008240
  75.6641490 146.2332650  51.7949180  68.8034360 153.2230790  57.3770160
  68.1483200 152.9542430  56.7329860  69.6412310 153.1135270  56.9272140
  81.7524800 148.0172080  51.5988650  82.1709680 147.8303060  50.7585310
  81.4460860 147.1651130  51.9091580  85.2514530 152.9296220  55.2964450
  84.8758130 152.1624150  54.8645740  84.5217650 153.3118920  55.7839380
  69.8410290 153.6083360  61.9173500  70.2083330 153.5210760  62.7969520
  69.2721110 152.8449910  61.8180360  84.6414150 152.0767740  64.9303970
  84.4100240 151.8480490  64.0301920  84.9018700 152.9967290  64.8848860
  69.3926290 150.5192450  65.8231920  68.4982340 150.4859210  66.1625630
  69.9323840 150.7179240  66.5883170  83.0802220 147.3024170  67.7083670
  83.9572400 147.3107570  68.0917670  83.0923060 146.5655010  67.0976020
  68.0172440 150.4329720  53.3195490  67.1136520 150.6959920  53.1447150
  68.5013060 150.7040890  52.5395450  84.5265490 151.1553710  58.5971690
  85.0502970 150.6616360  57.9661860  85.1124910 151.2904070  59.3419260
  84.7055210 151.2393580  62.1191240  83.7557920 151.2057120  62.2336230
  84.8868220 152.1493690  61.8841010  70.5599650 149.4895260  51.2289870
  71.2691350 149.0678480  50.7437150  69.8439590 149.5570490  50.5973220
  70.2073810 145.5434590  50.2692520  70.9301940 146.0843530  50.5873740
  70.4798330 145.2698010  49.3934060  84.0165460 150.4127060  54.5364100
  84.5124580 150.1797930  55.3212980  83.8181530 149.5738900  54.1201740
  69.8966000 144.7940780  60.1715140  70.5442190 144.2438160  59.7310300
  70.3167840 145.0483930  60.9930950  85.4452620 149.0488010  57.0701780
  85.3351900 148.8944050  58.0084050  86.2060210 148.5208950  56.8277190
  83.7918340 144.9882140  63.5284780  84.4290560 145.6016280  63.8943970
  83.9393230 145.0242800  62.5834010  86.3342890 146.8795930  50.3107920
  87.2592200 146.7477110  50.1026210  86.3118680 146.9588750  51.2644370
  86.4081380 147.6506590  52.9364630  85.6132880 147.5851710  53.4657540
  86.6124660 148.5857230  52.9249980  69.6498000 144.9496450  62.9140460
  69.3012820 145.4060270  63.6798640  69.3185700 144.0553580  62.9962890
  77.1622820 146.1408330  66.4359880  77.1011710 146.7330160  67.1855290
  78.1023200 146.0334290  66.2910140  79.7997380 145.7978390  66.0752170
  80.4137790 146.1157680  65.4133250  80.3446940 145.3126980  66.6948030
  70.3218640 144.4772650  66.1891230  70.8701630 144.2960700  65.4257340
  70.3873950 143.6866760  66.7247540  80.5405420 144.3610530  62.4021460
  79.6665260 144.6945640  62.1994390  80.4316170 143.8883710  63.2273330
  81.4477400 146.5681400  63.7863180  81.1190760 145.7533160  63.4064910
  82.3959700 146.5251210  63.6628870  78.2880240 145.2780370  61.3414370
  77.5052030 145.7525870  61.6211130  77.9943170 144.3735200  61.2327550
  82.8401310 145.9803470  59.3863460  83.2809400 145.9248570  58.5385060
  82.5708900 146.8961480  59.4573640  84.7039880 145.6118710  57.3972280
  84.6428280 144.6679930  57.2503300  85.4831910 145.7198800  57.9425740
  69.6320650 145.5827850  53.8628090  70.3900010 145.6956730  53.2892120
  69.1697820 146.4197050  53.8171520  76.1734460 147.6967120  56.8530400
  75.3608970 147.3224010  56.5126280  76.6776100 146.9412200  57.1551590
  80.6759440 144.3609570  58.0913470  81.2788810 144.9329780  58.5661990
  79.9352430 144.9249010  57.8687370  83.8194040 144.7631130  53.3653750
  84.0144670 145.6614580  53.6321180  83.0323910 144.5318210  53.8586700
  72.0045800 146.1091900  52.4030060  72.5338560 145.3221700  52.2738010
  72.6374120 146.7883090  52.6365590  74.1983640 145.8467040  55.4575450
  73.5686380 145.1454350  55.6245580  73.6588780 146.6071170  55.2408610
  74.3239200 145.1251020  67.8927940  74.0423470 145.6284620  67.1288760
  74.7058900 144.3272770  67.5270070  80.9254660 144.5404600  68.4708410
  80.8120110 144.8599210  69.3659930  81.7424400 144.9417110  68.1745690
  79.8312810 152.5597070  38.8343150  79.7506860 151.6451680  38.5634860
  79.4177230 153.0564140  38.1282860  77.9630850 154.3376090  40.7152420
  77.1872950 153.8576530  41.0050990  78.6143780 153.6581740  40.5408580
  71.9796680 154.6495900  41.5928180  71.1481560 154.3944610  41.9924690
  72.5877660 154.7206670  42.3286100  70.3888630 149.6097790  35.3770570
  69.5005330 149.9513760  35.2750450  70.6729820 149.4098110  34.4851400
  68.3521640 152.2103440  41.2610270  68.9237750 151.4425640  41.2613910
  68.3523180 152.5092200  40.3516880  69.5946510 147.6187800  43.0479200
  69.4149350 146.7213550  43.3281960  69.1926590 148.1659670  43.7226150
  78.4345010 149.8203660  40.9491510  78.8109830 148.9475540  40.8365180
  78.3364520 150.1562360  40.0581950  72.5650020 148.1929290  36.4108950
  72.6716770 149.0933020  36.7177710  71.6542380 148.1447260  36.1203600
  82.2169130 147.3154100  37.8819850  83.0378750 146.8250670  37.9245330
  82.2503210 147.9051760  38.6351690  70.2133180 150.1148300  41.6561540
  70.8943290 150.3786670  42.2748940  69.8981230 149.2749170  41.9899550
  74.4057750 151.1615660  40.7434130  74.9135970 151.6596630  41.3839150
  74.9370990 150.3850860  40.5673490  86.5068680 149.3320850  44.4463480
  85.8020850 149.7202560  43.9278590  86.7726600 150.0271140  45.0484410
  72.6893850 145.8014220  45.0097550  72.6912290 146.3186610  44.2043450
  71.8598160 145.3244400  44.9867480  82.4530610 149.2554480  40.6547390
  81.7486180 149.5439370  41.2350500  82.8142770 150.0654590  40.2946950
  72.3709180 147.5124180  43.0168000  72.7125990 148.3566230  42.7221870
  71.4324990 147.6607920  43.1333340  85.5217530 148.7009270  41.0456600
  84.5742440 148.7348250  41.1772030  85.8467520 149.5148220  41.4305960
  76.0537070 145.0006450  39.3412590  76.3612050 144.4453340  38.6248090
  75.1237770 145.1350910  39.1585580  78.4417830 153.0655280  36.0772710
  77.5147110 152.9992660  36.3061180  78.5942650 154.0035410  35.9627950
  78.4286910 149.3372280  33.0739870  77.4890580 149.4986240  33.1592330
  78.7470170 150.0557960  32.5275860  84.9499670 154.0190800  43.0518900
  84.1218300 154.0883890  42.5769030  85.5450150 154.6045110  42.5834730
  82.4715120 154.6275580  36.5807960  81.8527540 154.2895130  35.9334260
  82.4539570 153.9835340  37.2887150  81.9141680 150.8060120  43.9973770
  81.5012860 151.6313830  44.2513760  81.1817630 150.2205160  43.8050130
  74.0474470 153.5920020  38.8592440  73.6431470 152.8797270  38.3638340
  74.1337590 153.2473260  39.7480480  72.7603090 150.3663230  42.6391480
  73.3117680 150.4758570  41.8644730  73.2746600 150.7400830  43.3546710
  80.6479820 153.8662390  33.5880710  81.0873100 153.0284820  33.4418530
  81.3608240 154.4991790  33.6744850  72.4345820 153.8882590  46.2496820
  72.2953590 154.7605390  46.6184220  71.5527180 153.5455400  46.1044760
  84.2296960 145.1205200  31.9021750  83.9169620 145.2132030  32.8020820
  84.9909430 145.6986230  31.8519180  70.7479100 152.4865000  36.3599090
  70.6276700 153.2127090  35.7480360  70.4379990 151.7167910  35.8827000
  85.4398250 149.8576700  47.8795890  84.8242520 150.3656370  47.3511350
  85.1194670 148.9575030  47.8221830  73.2142760 145.8300070  39.7422760
  72.7710910 146.6109610  39.4107280  73.7727750 146.1529960  40.4493700
  77.5012570 148.6968590  45.3458080  77.0391940 148.9051610  46.1578020
  77.0990680 147.8827940  45.0428750  82.5017080 149.9177540  46.4754740
  81.6510670 149.6183290  46.7963810  82.3418870 150.1619550  45.5638560
  79.5966790 151.4179290  48.5753530  79.9220200 150.5843040  48.2355760
  80.3847120 151.9407810  48.7231860  76.3301580 145.4510770  34.6228590
  75.7055760 145.4470640  35.3481900  76.2431700 144.5841730  34.2264560
  75.2518660 146.3747400  41.6012360  75.5490990 147.2810230  41.5204380
  75.8004220 145.8866180  40.9871930  73.0056980 150.9533640  37.4704010
  72.7797900 150.7370810  38.3750630  72.2249510 151.3862100  37.1249980
  80.2354740 150.9597010  36.0694660  79.6363630 151.6832810  35.8858280
  80.7834350 150.8973790  35.2871110  75.4456190 151.8519220  48.1364280
  75.3499790 150.9113950  47.9864680  76.2888170 152.0734290  47.7412350
  78.8419610 149.5960550  38.0997940  79.2349180 149.9132750  37.2866630
  79.2036460 148.7172430  38.2142460  70.5766730 148.2632890  46.2898060
  70.1830120 149.1108100  46.4970840  69.8885130 147.6259260  46.4806700
  77.1511780 148.3467860  49.3594800  76.4610100 148.1540060  49.9940890
  77.8944080 148.6302500  49.8919100  67.8783780 146.1861350  40.3228140
  67.5896830 146.7564210  41.0353120  68.6229540 145.7065800  40.6859370
  68.0654010 150.1281470  31.5330860  67.9828680 151.0712230  31.6745850
  67.7137070 149.9856380  30.6543210  79.4274750 152.1866300  42.1948720
  78.6955870 152.6953110  42.5438820  79.0299090 151.3696280  41.8937500
  75.8652140 148.8620500  40.6001210  75.8688200 148.4210450  39.7505750
  76.7603260 149.1837830  40.7073030  71.7154520 148.7446990  39.5595420
  71.3754570 149.2222220  40.3162470  70.9531840 148.2912110  39.1996520
  75.9272290 149.8632580  33.5907970  76.0485110 149.8219060  34.5393790
  75.5420800 150.7256730  33.4354700  79.8900660 147.6399980  41.6071660
  79.9073400 148.0908630  42.4513510  79.6416240 146.7405620  41.8205100
  74.9393790 152.1733720  32.9891270  74.3710690 151.7251970  32.3627180
  75.6482790 152.5326500  32.4556420  83.3171410 145.0532160  47.4458040
  83.6417180 144.3221820  47.9716020  83.3527920 144.7345800  46.5439030
  76.1660110 152.9222280  42.3466620  76.5330240 152.4480850  43.0927960
  75.9765170 153.7963850  42.6874960  69.0300600 147.6665970  38.4760090
  68.7447520 147.3021640  39.3138710  68.9679460 146.9346430  37.8623230
  73.9559480 151.9630920  44.6650830  73.6516550 152.8422900  44.8901190
  74.9105940 152.0230710  44.7008270  78.7039190 146.5595230  35.1973460
  77.8903800 146.0608400  35.1218770  78.5101140 147.3993480  34.7809810
  81.4187580 150.9314880  33.4935620  82.3067200 151.2432110  33.3186960
  81.3892670 150.0587130  33.1016200  70.0123210 152.8033660  45.8122190
  69.6538150 153.4687510  46.3995530  69.7177770 151.9717210  46.1834810
  73.2136330 153.2617900  48.6961740  72.9136470 153.4075080  47.7989560
  73.9847570 152.7023190  48.6035130  83.6901850 152.2426720  32.9615480
  83.6065570 152.6740940  32.1111920  84.4096040 152.7025070  33.3942300
  68.5231260 152.8024920  32.4356790  69.3926110 153.0849720  32.7192710
  68.0321580 153.6160790  32.3205600  71.5877850 144.5335780  37.0287590
  71.4592480 144.5253680  37.9772510  70.7639870 144.8718870  36.6778600
  68.5871780 146.2926900  46.4894290  67.8730300 146.4923820  47.0946900
  69.0066820 145.5166470  46.8609090  80.0810560 148.7849210  44.2395740
  80.4491380 147.9644420  44.5675310  79.2208760 148.8451100  44.6551390
  83.4472590 147.7406150  35.0483300  82.8185750 147.8451820  34.3341530
  82.9524510 147.9602930  35.8377180  75.4156620 150.0192100  36.4641180
  74.7072770 150.4878440  36.9054790  75.7001100 149.3614110  37.0986370
  77.0412550 151.4388800  44.4633710  77.5397800 151.9134620  45.1285560
  77.1835500 150.5152320  44.6703740  79.4472050 146.7442760  37.9036970
  79.3239830 146.7628890  36.9546480  80.3956610 146.7921700  38.0235370
  73.6191640 148.3277180  33.8391890  74.4682170 148.7647330  33.7732080
  73.2522910 148.6397440  34.6663950  84.2479410 147.6556760  45.3062100
  83.7453010 148.3962160  45.6455910  85.0636070 148.0440760  44.9898890
  82.5401420 152.8989940  38.7523460  81.5991560 152.9140170  38.9271150
  82.8545490 152.1125900  39.1983760  72.5183060 154.5809540  32.3127420
  73.2846330 154.4690900  32.8752850  72.5957750 153.8847510  31.6604190
  71.2129820 152.0134610  32.9960310  71.2933410 151.0662120  33.1077710
  72.1049570 152.3441490  33.1020970  68.7400620 153.8349530  48.2316480
  69.2439640 153.2556810  48.8032710  68.0008040 154.1189760  48.7692850
  70.7723700 151.9779120  49.1266550  70.8129040 151.6792990  50.0351780
  71.6269200 152.3786730  48.9674070  74.5502090 154.5774670  34.2870060
  74.9718510 154.4114540  35.1301450  74.6752930 153.7674900  33.7925200
  72.7129510 150.5571220  47.0941040  72.1825970 150.0662170  46.4664380
  73.3817580 150.9855420  46.5598970  77.0629730 153.6012280  31.5347160
  77.5835390 152.8861300  31.1688310  77.7098130 154.2398150  31.8347670
  82.0829740 152.3636840  48.8621380  82.6650510 151.6089160  48.7741860
  82.2591510 152.8944280  48.0852860  73.2001810 147.5233590  47.1738330
  73.1058680 146.9054340  46.4489200  72.6199200 148.2499880  46.9468240
  75.9663250 146.0806830  44.2065720  75.5180550 146.1031090  43.3611270
  75.3328450 145.6825850  44.8036020  78.7086700 152.7077340  46.2116000
  78.8282910 152.1118480  46.9510840  79.5680700 152.7447030  45.7917300
  81.0474600 153.2614530  44.7878510  80.5209820 153.7857150  44.1843650
  81.3905940 153.8941920  45.4188240  73.4460990 150.6507900  31.2328220
  73.2450050 149.7875260  31.5941560  73.2753040 150.5641260  30.2949820
  75.4755470 149.2498690  47.4691820  76.0655160 148.9414540  48.1569640
  74.6575710 148.7778440  47.6251720  80.2948900 148.8664500  47.7024840
  79.6064420 148.2046040  47.6374830  81.0154920 148.4202770  48.1473300
  80.9249300 145.4616130  33.7615100  81.2051590 144.6184030  34.1174520
  80.1515030 145.6939240  34.2753850  72.2443790 147.7508520  31.2206100
  72.5469690 147.7575950  30.3125250  72.9838380 147.4006380  31.7173760
  75.4628720 146.6943140  32.2062300  75.1150720 146.0167130  31.6264750
  75.6641490 146.2332650  33.0205690  68.8034360 153.2230790  38.6026670
  68.1483200 152.9542430  37.9586370  69.6412310 153.1135270  38.1528650
  81.7524800 148.0172080  32.8245160  82.1709680 147.8303060  31.9841820
  81.4460860 147.1651130  33.1348090  85.2514530 152.9296220  36.5220960
  84.8758130 152.1624150  36.0902250  84.5217650 153.3118920  37.0095890
  69.8410290 153.6083360  43.1430010  70.2083330 153.5210760  44.0226030
  69.2721110 152.8449910  43.0436870  84.6414150 152.0767740  46.1560480
  84.4100240 151.8480490  45.2558430  84.9018700 152.9967290  46.1105370
  69.3926290 150.5192450  47.0488430  68.4982340 150.4859210  47.3882140
  69.9323840 150.7179240  47.8139680  83.0802220 147.3024170  48.9340180
  83.9572400 147.3107570  49.3174180  83.0923060 146.5655010  48.3232530
  68.0172440 150.4329720  34.5452000  67.1136520 150.6959920  34.3703660
  68.5013060 150.7040890  33.7651960  84.5265490 151.1553710  39.8228200
  85.0502970 150.6616360  39.1918370  85.1124910 151.2904070  40.5675770
  84.7055210 151.2393580  43.3447750  83.7557920 151.2057120  43.4592740
  84.8868220 152.1493690  43.1097520  70.5599650 149.4895260  32.4546380
  71.2691350 149.0678480  31.9693660  69.8439590 149.5570490  31.8229730
  70.2073810 145.5434590  31.4949030  70.9301940 146.0843530  31.8130250
  70.4798330 145.2698010  30.6190570  84.0165460 150.4127060  35.7620610
  84.5124580 150.1797930  36.5469490  83.8181530 149.5738900  35.3458250
  69.8966000 144.7940780  41.3971650  70.5442190 144.2438160  40.9566810
  70.3167840 145.0483930  42.2187460  85.4452620 149.0488010  38.2958290
  85.3351900 148.8944050  39.2340560  86.2060210 148.5208950  38.0533700
  83.7918340 144.9882140  44.7541290  84.4290560 145.6016280  45.1200480
  83.9393230 145.0242800  43.8090520  86.3342890 146.8795930  31.5364430
  87.2592200 146.7477110  31.3282720  86.3118680 146.9588750  32.4900880
  86.4081380 147.6506590  34.1621140  85.6132880 147.5851710  34.6914050
  86.6124660 148.5857230  34.1506490  69.6498000 144.9496450  44.1396970
  69.3012820 145.4060270  44.9055150  69.3185700 144.0553580  44.2219400
  77.1622820 146.1408330  47.6616390  77.1011710 146.7330160  48.4111800
  78.1023200 146.0334290  47.5166650  79.7997380 145.7978390  47.3008680
  80.4137790 146.1157680  46.6389760  80.3446940 145.3126980  47.9204540
  70.3218640 144.4772650  47.4147740  70.8701630 144.2960700  46.6513850
  70.3873950 143.6866760  47.9504050  80.5405420 144.3610530  43.6277970
  79.6665260 144.6945640  43.4250900  80.4316170 143.8883710  44.4529840
  81.4477400 146.5681400  45.0119690  81.1190760 145.7533160  44.6321420
  82.3959700 146.5251210  44.8885380  78.2880240 145.2780370  42.5670880
  77.5052030 145.7525870  42.8467640  77.9943170 144.3735200  42.4584060
  82.8401310 145.9803470  40.6119970  83.2809400 145.9248570  39.7641570
  82.5708900 146.8961480  40.6830150  84.7039880 145.6118710  38.6228790
  84.6428280 144.6679930  38.4759810  85.4831910 145.7198800  39.1682250
  69.6320650 145.5827850  35.0884600  70.3900010 145.6956730  34.5148630
  69.1697820 146.4197050  35.0428030  76.1734460 147.6967120  38.0786910
  75.3608970 147.3224010  37.7382790  76.6776100 146.9412200  38.3808100
  80.6759440 144.3609570  39.3169980  81.2788810 144.9329780  39.7918500
  79.9352430 144.9249010  39.0943880  83.8194040 144.7631130  34.5910260
  84.0144670 145.6614580  34.8577690  83.0323910 144.5318210  35.0843210
  72.0045800 146.1091900  33.6286570  72.5338560 145.3221700  33.4994520
  72.6374120 146.7883090  33.8622100  74.1983640 145.8467040  36.6831960
  73.5686380 145.1454350  36.8502090  73.6588780 146.6071170  36.4665120
  74.3239200 145.1251020  49.1184450  74.0423470 145.6284620  48.3545270
  74.7058900 144.3272770  48.7526580  80.9254660 144.5404600  49.6964920
  80.8120110 144.8599210  50.5916440  81.7424400 144.9417110  49.4002200
  79.8312810 152.5597070  20.0599660  79.7506860 151.6451680  19.7891370
  79.4177230 153.0564140  19.3539370  77.9630850 154.3376090  21.9408930
  77.1872950 153.8576530  22.2307500  78.6143780 153.6581740  21.7665090
  71.9796680 154.6495900  22.8184690  71.1481560 154.3944610  23.2181200
  72.5877660 154.7206670  23.5542610  70.3888630 149.6097790  16.6027080
  69.5005330 149.9513760  16.5006960  70.6729820 149.4098110  15.7107910
  68.3521640 152.2103440  22.4866780  68.9237750 151.4425640  22.4870420
  68.3523180 152.5092200  21.5773390  69.5946510 147.6187800  24.2735710
  69.4149350 146.7213550  24.5538470  69.1926590 148.1659670  24.9482660
  78.4345010 149.8203660  22.1748020  78.8109830 148.9475540  22.0621690
  78.3364520 150.1562360  21.2838460  72.5650020 148.1929290  17.6365460
  72.6716770 149.0933020  17.9434220  71.6542380 148.1447260  17.3460110
  82.2169130 147.3154100  19.1076360  83.0378750 146.8250670  19.1501840
  82.2503210 147.9051760  19.8608200  70.2133180 150.1148300  22.8818050
  70.8943290 150.3786670  23.5005450  69.8981230 149.2749170  23.2156060
  74.4057750 151.1615660  21.9690640  74.9135970 151.6596630  22.6095660
  74.9370990 150.3850860  21.7930000  86.5068680 149.3320850  25.6719990
  85.8020850 149.7202560  25.1535100  86.7726600 150.0271140  26.2740920
  72.6893850 145.8014220  26.2354060  72.6912290 146.3186610  25.4299960
  71.8598160 145.3244400  26.2123990  82.4530610 149.2554480  21.8803900
  81.7486180 149.5439370  22.4607010  82.8142770 150.0654590  21.5203460
  72.3709180 147.5124180  24.2424510  72.7125990 148.3566230  23.9478380
  71.4324990 147.6607920  24.3589850  85.5217530 148.7009270  22.2713110
  84.5742440 148.7348250  22.4028540  85.8467520 149.5148220  22.6562470
  76.0537070 145.0006450  20.5669100  76.3612050 144.4453340  19.8504600
  75.1237770 145.1350910  20.3842090  78.4417830 153.0655280  17.3029220
  77.5147110 152.9992660  17.5317690  78.5942650 154.0035410  17.1884460
  78.4286910 149.3372280  14.2996380  77.4890580 149.4986240  14.3848840
  78.7470170 150.0557960  13.7532370  84.9499670 154.0190800  24.2775410
  84.1218300 154.0883890  23.8025540  85.5450150 154.6045110  23.8091240
  82.4715120 154.6275580  17.8064470  81.8527540 154.2895130  17.1590770
  82.4539570 153.9835340  18.5143660  81.9141680 150.8060120  25.2230280
  81.5012860 151.6313830  25.4770270  81.1817630 150.2205160  25.0306640
  74.0474470 153.5920020  20.0848950  73.6431470 152.8797270  19.5894850
  74.1337590 153.2473260  20.9736990  72.7603090 150.3663230  23.8647990
  73.3117680 150.4758570  23.0901240  73.2746600 150.7400830  24.5803220
  80.6479820 153.8662390  14.8137220  81.0873100 153.0284820  14.6675040
  81.3608240 154.4991790  14.9001360  72.4345820 153.8882590  27.4753330
  72.2953590 154.7605390  27.8440730  71.5527180 153.5455400  27.3301270
  84.2296960 145.1205200  13.1278260  83.9169620 145.2132030  14.0277330
  84.9909430 145.6986230  13.0775690  70.7479100 152.4865000  17.5855600
  70.6276700 153.2127090  16.9736870  70.4379990 151.7167910  17.1083510
  85.4398250 149.8576700  29.1052400  84.8242520 150.3656370  28.5767860
  85.1194670 148.9575030  29.0478340  73.2142760 145.8300070  20.9679270
  72.7710910 146.6109610  20.6363790  73.7727750 146.1529960  21.6750210
  77.5012570 148.6968590  26.5714590  77.0391940 148.9051610  27.3834530
  77.0990680 147.8827940  26.2685260  82.5017080 149.9177540  27.7011250
  81.6510670 149.6183290  28.0220320  82.3418870 150.1619550  26.7895070
  79.5966790 151.4179290  29.8010040  79.9220200 150.5843040  29.4612270
  80.3847120 151.9407810  29.9488370  76.3301580 145.4510770  15.8485100
  75.7055760 145.4470640  16.5738410  76.2431700 144.5841730  15.4521070
  75.2518660 146.3747400  22.8268870  75.5490990 147.2810230  22.7460890
  75.8004220 145.8866180  22.2128440  73.0056980 150.9533640  18.6960520
  72.7797900 150.7370810  19.6007140  72.2249510 151.3862100  18.3506490
  80.2354740 150.9597010  17.2951170  79.6363630 151.6832810  17.1114790
  80.7834350 150.8973790  16.5127620  75.4456190 151.8519220  29.3620790
  75.3499790 150.9113950  29.2121190  76.2888170 152.0734290  28.9668860
  78.8419610 149.5960550  19.3254450  79.2349180 149.9132750  18.5123140
  79.2036460 148.7172430  19.4398970  70.5766730 148.2632890  27.5154570
  70.1830120 149.1108100  27.7227350  69.8885130 147.6259260  27.7063210
  77.1511780 148.3467860  30.5851310  76.4610100 148.1540060  31.2197400
  77.8944080 148.6302500  31.1175610  67.8783780 146.1861350  21.5484650
  67.5896830 146.7564210  22.2609630  68.6229540 145.7065800  21.9115880
  68.0654010 150.1281470  12.7587370  67.9828680 151.0712230  12.9002360
  67.7137070 149.9856380  11.8799720  79.4274750 152.1866300  23.4205230
  78.6955870 152.6953110  23.7695330  79.0299090 151.3696280  23.1194010
  75.8652140 148.8620500  21.8257720  75.8688200 148.4210450  20.9762260
  76.7603260 149.1837830  21.9329540  71.7154520 148.7446990  20.7851930
  71.3754570 149.2222220  21.5418980  70.9531840 148.2912110  20.4253030
  75.9272290 149.8632580  14.8164480  76.0485110 149.8219060  15.7650300
  75.5420800 150.7256730  14.6611210  79.8900660 147.6399980  22.8328170
  79.9073400 148.0908630  23.6770020  79.6416240 146.7405620  23.0461610
  74.9393790 152.1733720  14.2147780  74.3710690 151.7251970  13.5883690
  75.6482790 152.5326500  13.6812930  83.3171410 145.0532160  28.6714550
  83.6417180 144.3221820  29.1972530  83.3527920 144.7345800  27.7695540
  76.1660110 152.9222280  23.5723130  76.5330240 152.4480850  24.3184470
  75.9765170 153.7963850  23.9131470  69.0300600 147.6665970  19.7016600
  68.7447520 147.3021640  20.5395220  68.9679460 146.9346430  19.0879740
  73.9559480 151.9630920  25.8907340  73.6516550 152.8422900  26.1157700
  74.9105940 152.0230710  25.9264780  78.7039190 146.5595230  16.4229970
  77.8903800 146.0608400  16.3475280  78.5101140 147.3993480  16.0066320
  81.4187580 150.9314880  14.7192130  82.3067200 151.2432110  14.5443470
  81.3892670 150.0587130  14.3272710  70.0123210 152.8033660  27.0378700
  69.6538150 153.4687510  27.6252040  69.7177770 151.9717210  27.4091320
  73.2136330 153.2617900  29.9218250  72.9136470 153.4075080  29.0246070
  73.9847570 152.7023190  29.8291640  83.6901850 152.2426720  14.1871990
  83.6065570 152.6740940  13.3368430  84.4096040 152.7025070  14.6198810
  68.5231260 152.8024920  13.6613300  69.3926110 153.0849720  13.9449220
  68.0321580 153.6160790  13.5462110  71.5877850 144.5335780  18.2544100
  71.4592480 144.5253680  19.2029020  70.7639870 144.8718870  17.9035110
  68.5871780 146.2926900  27.7150800  67.8730300 146.4923820  28.3203410
  69.0066820 145.5166470  28.0865600  80.0810560 148.7849210  25.4652250
  80.4491380 147.9644420  25.7931820  79.2208760 148.8451100  25.8807900
  83.4472590 147.7406150  16.2739810  82.8185750 147.8451820  15.5598040
  82.9524510 147.9602930  17.0633690  75.4156620 150.0192100  17.6897690
  74.7072770 150.4878440  18.1311300  75.7001100 149.3614110  18.3242880
  77.0412550 151.4388800  25.6890220  77.5397800 151.9134620  26.3542070
  77.1835500 150.5152320  25.8960250  79.4472050 146.7442760  19.1293480
  79.3239830 146.7628890  18.1802990  80.3956610 146.7921700  19.2491880
  73.6191640 148.3277180  15.0648400  74.4682170 148.7647330  14.9988590
  73.2522910 148.6397440  15.8920460  84.2479410 147.6556760  26.5318610
  83.7453010 148.3962160  26.8712420  85.0636070 148.0440760  26.2155400
  82.5401420 152.8989940  19.9779970  81.5991560 152.9140170  20.1527660
  82.8545490 152.1125900  20.4240270  72.5183060 154.5809540  13.5383930
  73.2846330 154.4690900  14.1009360  72.5957750 153.8847510  12.8860700
  71.2129820 152.0134610  14.2216820  71.2933410 151.0662120  14.3334220
  72.1049570 152.3441490  14.3277480  68.7400620 153.8349530  29.4572990
  69.2439640 153.2556810  30.0289220  68.0008040 154.1189760  29.9949360
  70.7723700 151.9779120  30.3523060  70.8129040 151.6792990  31.2608290
  71.6269200 152.3786730  30.1930580  74.5502090 154.5774670  15.5126570
  74.9718510 154.4114540  16.3557960  74.6752930 153.7674900  15.0181710
  72.7129510 150.5571220  28.3197550  72.1825970 150.0662170  27.6920890
  73.3817580 150.9855420  27.7855480  77.0629730 153.6012280  12.7603670
  77.5835390 152.8861300  12.3944820  77.7098130 154.2398150  13.0604180
  82.0829740 152.3636840  30.0877890  82.6650510 151.6089160  29.9998370
  82.2591510 152.8944280  29.3109370  73.2001810 147.5233590  28.3994840
  73.1058680 146.9054340  27.6745710  72.6199200 148.2499880  28.1724750
  75.9663250 146.0806830  25.4322230  75.5180550 146.1031090  24.5867780
  75.3328450 145.6825850  26.0292530  78.7086700 152.7077340  27.4372510
  78.8282910 152.1118480  28.1767350  79.5680700 152.7447030  27.0173810
  81.0474600 153.2614530  26.0135020  80.5209820 153.7857150  25.4100160
  81.3905940 153.8941920  26.6444750  73.4460990 150.6507900  12.4584730
  73.2450050 149.7875260  12.8198070  73.2753040 150.5641260  11.5206330
  75.4755470 149.2498690  28.6948330  76.0655160 148.9414540  29.3826150
  74.6575710 148.7778440  28.8508230  80.2948900 148.8664500  28.9281350
  79.6064420 148.2046040  28.8631340  81.0154920 148.4202770  29.3729810
  80.9249300 145.4616130  14.9871610  81.2051590 144.6184030  15.3431030
  80.1515030 145.6939240  15.5010360  72.2443790 147.7508520  12.4462610
  72.5469690 147.7575950  11.5381760  72.9838380 147.4006380  12.9430270
  75.4628720 146.6943140  13.4318810  75.1150720 146.0167130  12.8521260
  75.6641490 146.2332650  14.2462200  68.8034360 153.2230790  19.8283180
  68.1483200 152.9542430  19.1842880  69.6412310 153.1135270  19.3785160
  81.7524800 148.0172080  14.0501670  82.1709680 147.8303060  13.2098330
  81.4460860 147.1651130  14.3604600  85.2514530 152.9296220  17.7477470
  84.8758130 152.1624150  17.3158760  84.5217650 153.3118920  18.2352400
  69.8410290 153.6083360  24.3686520  70.2083330 153.5210760  25.2482540
  69.2721110 152.8449910  24.2693380  84.6414150 152.0767740  27.3816990
  84.4100240 151.8480490  26.4814940  84.9018700 152.9967290  27.3361880
  69.3926290 150.5192450  28.2744940  68.4982340 150.4859210  28.6138650
  69.9323840 150.7179240  29.0396190  83.0802220 147.3024170  30.1596690
  83.9572400 147.3107570  30.5430690  83.0923060 146.5655010  29.5489040
  68.0172440 150.4329720  15.7708510  67.1136520 150.6959920  15.5960170
  68.5013060 150.7040890  14.9908470  84.5265490 151.1553710  21.0484710
  85.0502970 150.6616360  20.4174880  85.1124910 151.2904070  21.7932280
  84.7055210 151.2393580  24.5704260  83.7557920 151.2057120  24.6849250
  84.8868220 152.1493690  24.3354030  70.5599650 149.4895260  13.6802890
  71.2691350 149.0678480  13.1950170  69.8439590 149.5570490  13.0486240
  70.2073810 145.5434590  12.7205540  70.9301940 146.0843530  13.0386760
  70.4798330 145.2698010  11.8447080  84.0165460 150.4127060  16.9877120
  84.5124580 150.1797930  17.7726000  83.8181530 149.5738900  16.5714760
  69.8966000 144.7940780  22.6228160  70.5442190 144.2438160  22.1823320
  70.3167840 145.0483930  23.4443970  85.4452620 149.0488010  19.5214800
  85.3351900 148.8944050  20.4597070  86.2060210 148.5208950  19.2790210
  83.7918340 144.9882140  25.9797800  84.4290560 145.6016280  26.3456990
  83.9393230 145.0242800  25.0347030  86.3342890 146.8795930  12.7620940
  87.2592200 146.7477110  12.5539230  86.3118680 146.9588750  13.7157390
  86.4081380 147.6506590  15.3877650  85.6132880 147.5851710  15.9170560
  86.6124660 148.5857230  15.3763000  69.6498000 144.9496450  25.3653480
  69.3012820 145.4060270  26.1311660  69.3185700 144.0553580  25.4475910
  77.1622820 146.1408330  28.8872900  77.1011710 146.7330160  29.6368310
  78.1023200 146.0334290  28.7423160  79.7997380 145.7978390  28.5265190
  80.4137790 146.1157680  27.8646270  80.3446940 145.3126980  29.1461050
  70.3218640 144.4772650  28.6404250  70.8701630 144.2960700  27.8770360
  70.3873950 143.6866760  29.1760560  80.5405420 144.3610530  24.8534480
  79.6665260 144.6945640  24.6507410  80.4316170 143.8883710  25.6786350
  81.4477400 146.5681400  26.2376200  81.1190760 145.7533160  25.8577930
  82.3959700 146.5251210  26.1141890  78.2880240 145.2780370  23.7927390
  77.5052030 145.7525870  24.0724150  77.9943170 144.3735200  23.6840570
  82.8401310 145.9803470  21.8376480  83.2809400 145.9248570  20.9898080
  82.5708900 146.8961480  21.9086660  84.7039880 145.6118710  19.8485300
  84.6428280 144.6679930  19.7016320  85.4831910 145.7198800  20.3938760
  69.6320650 145.5827850  16.3141110  70.3900010 145.6956730  15.7405140
  69.1697820 146.4197050  16.2684540  76.1734460 147.6967120  19.3043420
  75.3608970 147.3224010  18.9639300  76.6776100 146.9412200  19.6064610
  80.6759440 144.3609570  20.5426490  81.2788810 144.9329780  21.0175010
  79.9352430 144.9249010  20.3200390  83.8194040 144.7631130  15.8166770
  84.0144670 145.6614580  16.0834200  83.0323910 144.5318210  16.3099720
  72.0045800 146.1091900  14.8543080  72.5338560 145.3221700  14.7251030
  72.6374120 146.7883090  15.0878610  74.1983640 145.8467040  17.9088470
  73.5686380 145.1454350  18.0758600  73.6588780 146.6071170  17.6921630
  74.3239200 145.1251020  30.3440960  74.0423470 145.6284620  29.5801780
  74.7058900 144.3272770  29.9783090  80.9254660 144.5404600  30.9221430
  80.8120110 144.8599210  31.8172950  81.7424400 144.9417110  30.6258710
  77.9630850 154.3376090   3.1665440  77.1872950 153.8576530   3.4564010
  78.6143780 153.6581740   2.9921600  71.9796680 154.6495900   4.0441200
  71.1481560 154.3944610   4.4437710  72.5877660 154.7206670   4.7799120
  68.3521640 152.2103440   3.7123290  68.9237750 151.4425640   3.7126930
  68.3523180 152.5092200   2.8029900  69.5946510 147.6187800   5.4992220
  69.4149350 146.7213550   5.7794980  69.1926590 148.1659670   6.1739170
  78.4345010 149.8203660   3.4004530  78.8109830 148.9475540   3.2878200
  78.3364520 150.1562360   2.5094970  70.2133180 150.1148300   4.1074560
  70.8943290 150.3786670   4.7261960  69.8981230 149.2749170   4.4412570
  74.4057750 151.1615660   3.1947150  74.9135970 151.6596630   3.8352170
  74.9370990 150.3850860   3.0186510  86.5068680 149.3320850   6.8976500
  85.8020850 149.7202560   6.3791610  86.7726600 150.0271140   7.4997430
  72.6893850 145.8014220   7.4610570  72.6912290 146.3186610   6.6556470
  71.8598160 145.3244400   7.4380500  82.4530610 149.2554480   3.1060410
  81.7486180 149.5439370   3.6863520  82.8142770 150.0654590   2.7459970
  72.3709180 147.5124180   5.4681020  72.7125990 148.3566230   5.1734890
  71.4324990 147.6607920   5.5846360  85.5217530 148.7009270   3.4969620
  84.5742440 148.7348250   3.6285050  85.8467520 149.5148220   3.8818980
  84.9499670 154.0190800   5.5031920  84.1218300 154.0883890   5.0282050
  85.5450150 154.6045110   5.0347750  81.9141680 150.8060120   6.4486790
  81.5012860 151.6313830   6.7026780  81.1817630 150.2205160   6.2563150
  72.7603090 150.3663230   5.0904500  73.3117680 150.4758570   4.3157750
  73.2746600 150.7400830   5.8059730  72.4345820 153.8882590   8.7009840
  72.2953590 154.7605390   9.0697240  71.5527180 153.5455400   8.5557780
  85.4398250 149.8576700  10.3308910  84.8242520 150.3656370   9.8024370
  85.1194670 148.9575030  10.2734850  73.2142760 145.8300070   2.1935780
  72.7710910 146.6109610   1.8620300  73.7727750 146.1529960   2.9006720
  77.5012570 148.6968590   7.7971100  77.0391940 148.9051610   8.6091040
  77.0990680 147.8827940   7.4941770  82.5017080 149.9177540   8.9267760
  81.6510670 149.6183290   9.2476830  82.3418870 150.1619550   8.0151580
  79.5966790 151.4179290  11.0266550  79.9220200 150.5843040  10.6868780
  80.3847120 151.9407810  11.1744880  75.2518660 146.3747400   4.0525380
  75.5490990 147.2810230   3.9717400  75.8004220 145.8866180   3.4384950
  75.4456190 151.8519220  10.5877300  75.3499790 150.9113950  10.4377700
  76.2888170 152.0734290  10.1925370  70.5766730 148.2632890   8.7411080
  70.1830120 149.1108100   8.9483860  69.8885130 147.6259260   8.9319720
  77.1511780 148.3467860  11.8107820  76.4610100 148.1540060  12.4453910
  77.8944080 148.6302500  12.3432120  67.8783780 146.1861350   2.7741160
  67.5896830 146.7564210   3.4866140  68.6229540 145.7065800   3.1372390
  79.4274750 152.1866300   4.6461740  78.6955870 152.6953110   4.9951840
  79.0299090 151.3696280   4.3450520  75.8652140 148.8620500   3.0514230
  75.8688200 148.4210450   2.2018770  76.7603260 149.1837830   3.1586050
  71.7154520 148.7446990   2.0108440  71.3754570 149.2222220   2.7675490
  70.9531840 148.2912110   1.6509540  79.8900660 147.6399980   4.0584680
  79.9073400 148.0908630   4.9026530  79.6416240 146.7405620   4.2718120
  83.3171410 145.0532160   9.8971060  83.6417180 144.3221820  10.4229040
  83.3527920 144.7345800   8.9952050  76.1660110 152.9222280   4.7979640
  76.5330240 152.4480850   5.5440980  75.9765170 153.7963850   5.1387980
  73.9559480 151.9630920   7.1163850  73.6516550 152.8422900   7.3414210
  74.9105940 152.0230710   7.1521290  70.0123210 152.8033660   8.2635210
  69.6538150 153.4687510   8.8508550  69.7177770 151.9717210   8.6347830
  73.2136330 153.2617900  11.1474760  72.9136470 153.4075080  10.2502580
  73.9847570 152.7023190  11.0548150  68.5871780 146.2926900   8.9407310
  67.8730300 146.4923820   9.5459920  69.0066820 145.5166470   9.3122110
  80.0810560 148.7849210   6.6908760  80.4491380 147.9644420   7.0188330
  79.2208760 148.8451100   7.1064410  77.0412550 151.4388800   6.9146730
  77.5397800 151.9134620   7.5798580  77.1835500 150.5152320   7.1216760
  84.2479410 147.6556760   7.7575120  83.7453010 148.3962160   8.0968930
  85.0636070 148.0440760   7.4411910  68.7400620 153.8349530  10.6829500
  69.2439640 153.2556810  11.2545730  68.0008040 154.1189760  11.2205870
  70.7723700 151.9779120  11.5779570  70.8129040 151.6792990  12.4864800
  71.6269200 152.3786730  11.4187090  72.7129510 150.5571220   9.5454060
  72.1825970 150.0662170   8.9177400  73.3817580 150.9855420   9.0111990
  82.0829740 152.3636840  11.3134400  82.6650510 151.6089160  11.2254880
  82.2591510 152.8944280  10.5365880  73.2001810 147.5233590   9.6251350
  73.1058680 146.9054340   8.9002220  72.6199200 148.2499880   9.3981260
  75.9663250 146.0806830   6.6578740  75.5180550 146.1031090   5.8124290
  75.3328450 145.6825850   7.2549040  78.7086700 152.7077340   8.6629020
  78.8282910 152.1118480   9.4023860  79.5680700 152.7447030   8.2430320
  81.0474600 153.2614530   7.2391530  80.5209820 153.7857150   6.6356670
  81.3905940 153.8941920   7.8701260  75.4755470 149.2498690   9.9204840
  76.0655160 148.9414540  10.6082660  74.6575710 148.7778440  10.0764740
  80.2948900 148.8664500  10.1537860  79.6064420 148.2046040  10.0887850
  81.0154920 148.4202770  10.5986320  69.8410290 153.6083360   5.5943030
  70.2083330 153.5210760   6.4739050  69.2721110 152.8449910   5.4949890
  84.6414150 152.0767740   8.6073500  84.4100240 151.8480490   7.7071450
  84.9018700 152.9967290   8.5618390  69.3926290 150.5192450   9.5001450
  68.4982340 150.4859210   9.8395160  69.9323840 150.7179240  10.2652700
  83.0802220 147.3024170  11.3853200  83.9572400 147.3107570  11.7687200
  83.0923060 146.5655010  10.7745550  84.5265490 151.1553710   2.2741220
  85.0502970 150.6616360   1.6431390  85.1124910 151.2904070   3.0188790
  84.7055210 151.2393580   5.7960770  83.7557920 151.2057120   5.9105760
  84.8868220 152.1493690   5.5610540  69.8966000 144.7940780   3.8484670
  70.5442190 144.2438160   3.4079830  70.3167840 145.0483930   4.6700480
  83.7918340 144.9882140   7.2054310  84.4290560 145.6016280   7.5713500
  83.9393230 145.0242800   6.2603540  69.6498000 144.9496450   6.5909990
  69.3012820 145.4060270   7.3568170  69.3185700 144.0553580   6.6732420
  77.1622820 146.1408330  10.1129410  77.1011710 146.7330160  10.8624820
  78.1023200 146.0334290   9.9679670  79.7997380 145.7978390   9.7521700
  80.4137790 146.1157680   9.0902780  80.3446940 145.3126980  10.3717560
  70.3218640 144.4772650   9.8660760  70.8701630 144.2960700   9.1026870
  70.3873950 143.6866760  10.4017070  80.5405420 144.3610530   6.0790990
  79.6665260 144.6945640   5.8763920  80.4316170 143.8883710   6.9042860
  81.4477400 146.5681400   7.4632710  81.1190760 145.7533160   7.0834440
  82.3959700 146.5251210   7.3398400  78.2880240 145.2780370   5.0183900
  77.5052030 145.7525870   5.2980660  77.9943170 144.3735200   4.9097080
  82.8401310 145.9803470   3.0632990  83.2809400 145.9248570   2.2154590
  82.5708900 146.8961480   3.1343170  80.6759440 144.3609570   1.7683000
  81.2788810 144.9329780   2.2431520  79.9352430 144.9249010   1.5456900
  74.3239200 145.1251020  11.5697470  74.0423470 145.6284620  10.8058290
  74.7058900 144.3272770  11.2039600  80.9254660 144.5404600  12.1477940
  80.8120110 144.8599210  13.0429460  81.7424400 144.9417110  11.8515220
  79.8312810 133.7853580 151.4804090  79.7506860 132.8708190 151.2095800
  79.4177230 134.2820650 150.7743800  77.9630850 135.5632600 153.3613360
  77.1872950 135.0833040 153.6511930  78.6143780 134.8838250 153.1869520
  81.9838280 139.9692790 152.1412490  81.5219810 139.1980030 152.4699660
  82.7963830 139.9958860 152.6464940  71.9597940 139.9092500 154.4347140
  72.2625980 139.0190240 154.2557360  72.7041530 140.4662720 154.2069390
  70.3888630 130.8354300 148.0231510  69.5005330 131.1770270 147.9211390
  70.6729820 130.6354620 147.1312340  68.3521640 133.4359950 153.9071210
  68.9237750 132.6682150 153.9074850  68.3523180 133.7348710 152.9977820
  78.2101590 142.2550800 151.7616480  77.5913030 142.7108300 151.1910920
  79.0653370 142.4102260 151.3606180  77.4039840 138.2389790 153.3683520
  77.3348120 137.2979730 153.2072650  78.1659700 138.3291200 153.9406090
  78.4345010 131.0460170 153.5952450  78.8109830 130.1732050 153.4826120
  78.3364520 131.3818870 152.7042890  72.5650020 129.4185800 149.0569890
  72.6716770 130.3189530 149.3638650  71.6542380 129.3703770 148.7664540
  82.2169130 128.5410610 150.5280790  83.0378750 128.0507180 150.5706270
  82.2503210 129.1308270 151.2812630  74.4057750 132.3872170 153.3895070
  74.9135970 132.8853140 154.0300090  74.9370990 131.6107370 153.2134430
  79.0764940 137.1390040 149.1548390  78.4582210 137.6039490 148.5911110
  79.5888190 137.8317520 149.5717900  82.4530610 130.4810990 153.3008330
  81.7486180 130.7695880 153.8811440  82.8142770 131.2911100 152.9407890
  68.4448140 137.8246570 146.5288020  68.0676120 138.3133670 145.7972920
  68.7021210 138.4971850 147.1594550  85.5217530 129.9265780 153.6917540
  84.5742440 129.9604760 153.8232970  85.8467520 130.7404730 154.0766900
  76.0537070 126.2262960 151.9873530  76.3612050 125.6709850 151.2709030
  75.1237770 126.3607420 151.8046520  81.6052130 141.9430250 154.2780990
  81.6179290 141.5392540 153.4103250  81.0527350 142.7177540 154.1742420
  82.8997550 138.6646470 149.3671160  82.7893880 137.7220800 149.4920580
  82.8965800 139.0262110 150.2533920  78.4417830 134.2911790 148.7233650
  77.5147110 134.2249170 148.9522120  78.5942650 135.2291920 148.6088890
  78.4286910 130.5628790 145.7200810  77.4890580 130.7242750 145.8053270
  78.7470170 131.2814470 145.1736800  82.4715120 135.8532090 149.2268900
  81.8527540 135.5151640 148.5795200  82.4539570 135.2091850 149.9348090
  74.0474470 134.8176530 151.5053380  73.6431470 134.1053780 151.0099280
  74.1337590 134.4729770 152.3941420  74.5156170 138.5044090 153.6692590
  74.2184460 137.8989560 152.9900370  75.4655990 138.5421400 153.5581950
  80.6479820 135.0918900 146.2341650  81.0873100 134.2541330 146.0879470
  81.3608240 135.7248300 146.3205790  78.7575200 140.0314970 150.2022890
  79.1971110 140.7739300 149.7878280  78.6962090 140.2741540 151.1261850
  84.2296960 126.3461710 144.5482690  83.9169620 126.4388540 145.4481760
  84.9909430 126.9242740 144.4980120  70.7479100 133.7121510 149.0060030
  70.6276700 134.4383600 148.3941300  70.4379990 132.9424420 148.5287940
  69.6312100 138.5836840 151.2234850  69.2240180 138.7251430 150.3688450
  70.5225110 138.2997000 151.0206060  81.4245380 143.0184090 147.5585900
  81.2646520 142.7287030 148.4567730  81.2592090 142.2424220 147.0231130
  73.9033760 142.7982620 149.3357520  73.7276240 141.8818160 149.1225320
  73.0489500 143.1569910 149.5755320  81.1271510 140.5271650 146.1183900
  80.4336670 140.5248940 145.4586180  81.8694370 140.1030970 145.6878070
  80.6921440 142.1534360 150.1932390  81.1478390 141.3723740 150.5071010
  81.0313960 142.8641180 150.7373570  73.2142760 127.0556580 152.3883700
  72.7710910 127.8366120 152.0568220  73.7727750 127.3786470 153.0954640
  76.3301580 126.6767280 147.2689530  75.7055760 126.6727150 147.9942840
  76.2431700 125.8098240 146.8725500  75.2518660 127.6003910 154.2473300
  75.5490990 128.5066740 154.1665320  75.8004220 127.1122690 153.6332870
  73.0056980 132.1790150 150.1164950  72.7797900 131.9627320 151.0211570
  72.2249510 132.6118610 149.7710920  80.2354740 132.1853520 148.7155600
  79.6363630 132.9089320 148.5319220  80.7834350 132.1230300 147.9332050
  78.8419610 130.8217060 150.7458880  79.2349180 131.1389260 149.9327570
  79.2036460 129.9428940 150.8603400  67.8783780 127.4117860 152.9689080
  67.5896830 127.9820720 153.6814060  68.6229540 126.9322310 153.3320310
  68.0654010 131.3537980 144.1791800  67.9828680 132.2968740 144.3206790
  67.7137070 131.2112890 143.3004150  75.8652140 130.0877010 153.2462150
  75.8688200 129.6466960 152.3966690  76.7603260 130.4094340 153.3533970
  71.7154520 129.9703500 152.2056360  71.3754570 130.4478730 152.9623410
  70.9531840 129.5168620 151.8457460  75.9272290 131.0889090 146.2368910
  76.0485110 131.0475570 147.1854730  75.5420800 131.9513240 146.0815640
  74.9393790 133.3990230 145.6352210  74.3710690 132.9508480 145.0088120
  75.6482790 133.7583010 145.1017360  69.0300600 128.8922480 151.1221030
  68.7447520 128.5278150 151.9599650  68.9679460 128.1602940 150.5084170
  72.4841270 137.3948420 147.9078620  71.7103530 136.8546040 147.7477340
  73.2135900 136.8755030 147.5696380  83.2429250 136.3913780 153.7005010
  83.9628370 136.8869070 153.3101120  83.0411070 135.7131670 153.0558880
  78.7039190 127.7851740 147.8434400  77.8903800 127.2864910 147.7679710
  78.5101140 128.6249990 147.4270750  81.4187580 132.1571390 146.1396560
  82.3067200 132.4688620 145.9647900  81.3892670 131.2843640 145.7477140
  72.5278670 137.0628800 151.5457430  73.0457340 136.2597060 151.4914320
  72.0762690 137.0007940 152.3874260  77.4148170 138.3295080 146.8184730
  77.7563870 139.0737310 146.3228050  76.5860880 138.6426200 147.1809560
  83.6901850 133.4683230 145.6076420  83.6065570 133.8997450 144.7572860
  84.4096040 133.9281580 146.0403240  84.7189100 140.3225490 148.3358550
  84.0765260 139.6681110 148.6102270  84.3319760 140.7280580 147.5599220
  80.2975580 137.6510920 152.1830240  80.6499400 137.0539050 151.5231610
  79.4137910 137.3255150 152.3538490  76.3838860 138.4108610 149.5900650
  77.0709990 138.9577820 149.9708240  75.5971280 138.9549340 149.6250260
  68.5231260 134.0281430 145.0817730  69.3926110 134.3106230 145.3653650
  68.0321580 134.8417300 144.9666540  75.6866070 135.4154640 149.2026010
  76.1428850 136.2259890 149.4286200  75.3354280 135.0977780 150.0344500
  71.5877850 125.7592290 149.6748530  71.4592480 125.7510190 150.6233450
  70.7639870 126.0975380 149.3239540  83.1086480 139.2141950 144.8734900
  82.8824060 138.4972390 145.4659540  82.7182680 138.9654390 144.0356650
  68.8902510 143.2408810 145.6479360  69.2500150 143.8398150 144.9936630
  68.7494850 143.7868700 146.4214390  82.6902730 137.1313890 146.5349060
  82.4024430 137.5926580 147.3226940  83.4854900 136.6711660 146.8033280
  74.9071130 140.6240010 146.4653030  74.8981230 141.3569700 145.8497540
  73.9869490 140.3771590 146.5579990  70.5077770 135.8454900 147.2099790
  69.9005720 136.5853800 147.2195090  70.9827120 135.9354260 146.3837990
  83.4472590 128.9662660 147.6944240  82.8185750 129.0708330 146.9802470
  82.9524510 129.1859440 148.4838120  77.8930730 140.6868250 145.1278220
  77.9942710 140.4832240 144.1980200  76.9932470 140.4326530 145.3326000
  75.4156620 131.2448610 149.1102120  74.7072770 131.7134950 149.5515730
  75.7001100 130.5870620 149.7447310  79.4472050 127.9699270 150.5497910
  79.3239830 127.9885400 149.6007420  80.3956610 128.0178210 150.6696310
  76.5348840 143.2054570 149.8225890  76.7890340 143.1675960 148.9005260
  75.5861320 143.0787900 149.8154140  73.6191640 129.5533690 146.4852830
  74.4682170 129.9903840 146.4193020  73.2522910 129.8653950 147.3124890
  82.5401420 134.1246450 151.3984400  81.5991560 134.1396680 151.5732090
  82.8545490 133.3382410 151.8444700  72.5183060 135.8066050 144.9588360
  73.2846330 135.6947410 145.5213790  72.5957750 135.1104020 144.3065130
  71.2129820 133.2391120 145.6421250  71.2933410 132.2918630 145.7538650
  72.1049570 133.5698000 145.7481910  84.5427000 141.2955300 153.0738660
  84.6674420 142.1186470 153.5462470  85.4092560 141.0846030 152.7262810
  72.0144530 143.3886510 152.7455790  72.7507010 142.8401970 153.0164360
  72.3985450 144.2542520 152.6061780  68.8990010 139.4560080 148.6197300
  67.9729790 139.6981220 148.6102710  69.3646440 140.2834340 148.4982050
  75.1246840 142.5616820 144.5681360  75.9175450 142.8505650 144.1163150
  74.6051190 142.1308990 143.8893840  84.1777010 141.7886950 145.9918100
  83.8918520 141.3752090 145.1772280  83.9796560 142.7174660 145.8718620
  75.6424240 137.7820230 144.4323710  75.5374880 137.1672580 145.1585090
  75.4748460 137.2586120 143.6486720  78.8826970 136.8440260 145.0365700
  78.3337070 137.2909560 145.6808440  79.5046230 136.3389510 145.5603370
  74.5502090 135.8031180 146.9331000  74.9718510 135.6371050 147.7762390
  74.6752930 134.9931410 146.4386140  77.0629730 134.8268790 144.1808100
  77.5835390 134.1117810 143.8149250  77.7098130 135.4654660 144.4808610
  73.4460990 131.8764410 143.8789160  73.2450050 131.0131770 144.2402500
  73.2753040 131.7897770 142.9410760  80.9249300 126.6872640 146.4076040
  81.2051590 125.8440540 146.7635460  80.1515030 126.9195750 146.9214790
  72.2443790 128.9765030 143.8667040  72.5469690 128.9832460 142.9586190
  72.9838380 128.6262890 144.3634700  75.4628720 127.9199650 144.8523240
  75.1150720 127.2423640 144.2725690  75.6641490 127.4589160 145.6666630
  77.6277760 142.9080400 146.4709840  78.5228550 143.2465370 146.4928600
  77.6595390 142.1859810 145.8434120  71.2673920 138.2807450 144.6996840
  71.7048790 138.8237120 145.3554420  71.7521650 137.4554400 144.7093180
  68.4819720 141.0696480 152.1517100  68.8122730 140.2017540 151.9195740
  68.9110720 141.2755000 152.9822060  73.0781640 139.4005490 149.8119070
  72.7777180 139.2770460 150.7122980  72.9719130 138.5414080 149.4034800
  85.8473560 139.1801890 144.5145750  85.0166520 139.2478540 144.9852980
  86.0245390 140.0706010 144.2112610  85.3030020 135.9249370 147.0179950
  86.0648930 136.4946020 147.1239640  85.3184390 135.3576570 147.7888260
  68.8034360 134.4487300 151.2487610  68.1483200 134.1798940 150.6047310
  69.6412310 134.3391780 150.7989590  86.3089990 136.7799470 151.8621880
  86.6798820 135.9966790 151.4557850  86.9491920 137.4688570 151.6839180
  85.3549190 136.2183740 144.1752470  85.6298030 137.1262620 144.0471690
  85.1659930 136.1546270 145.1114460  81.7524800 129.2428590 145.4706100
  82.1709680 129.0559570 144.6302760  81.4460860 128.3907640 145.7809030
  85.2514530 134.1552730 149.1681900  84.8758130 133.3880660 148.7363190
  84.5217650 134.5375430 149.6556830  68.0172440 131.6586230 147.1912940
  67.1136520 131.9216430 147.0164600  68.5013060 131.9297400 146.4112900
  84.5265490 132.3810220 152.4689140  85.0502970 131.8872870 151.8379310
  85.1124910 132.5160580 153.2136710  70.5599650 130.7151770 145.1007320
  71.2691350 130.2934990 144.6154600  69.8439590 130.7827000 144.4690670
  70.2073810 126.7691100 144.1409970  70.9301940 127.3100040 144.4591190
  70.4798330 126.4954520 143.2651510  84.0165460 131.6383570 148.4081550
  84.5124580 131.4054440 149.1930430  83.8181530 130.7995410 147.9919190
  85.4452620 130.2744520 150.9419230  85.3351900 130.1200560 151.8801500
  86.2060210 129.7465460 150.6994640  86.3342890 128.1052440 144.1825370
  87.2592200 127.9733620 143.9743660  86.3118680 128.1845260 145.1361820
  86.4081380 128.8763100 146.8082080  85.6132880 128.8108220 147.3374990
  86.6124660 129.8113740 146.7967430  83.3499800 142.9154650 150.8020470
  83.9458870 142.5939220 150.1254890  83.6077950 142.4426470 151.5933740
  74.3307730 141.8738190 153.8066330  74.8472750 141.2625550 153.2814590
  74.9805110 142.3766970 154.2977340  82.8401310 127.2059980 153.2580910
  83.2809400 127.1505080 152.4102510  82.5708900 128.1217990 153.3291090
  84.7039880 126.8375220 151.2689730  84.6428280 125.8936440 151.1220750
  85.4831910 126.9455310 151.8143190  69.0092630 142.9767580 150.2313680
  68.8414670 142.3438260 150.9295570  68.1427140 143.1826980 149.8807870
  69.6320650 126.8084360 147.7345540  70.3900010 126.9213240 147.1609570
  69.1697820 127.6453560 147.6888970  76.1734460 128.9223630 150.7247850
  75.3608970 128.5480520 150.3843730  76.6776100 128.1668710 151.0269040
  80.6759440 125.5866080 151.9630920  81.2788810 126.1586290 152.4379440
  79.9352430 126.1505520 151.7404820  83.8194040 125.9887640 147.2371200
  84.0144670 126.8871090 147.5038630  83.0323910 125.7574720 147.7304150
  70.6155330 141.6700810 147.6763820  70.0902950 142.0508840 146.9725780
  70.5399910 142.2951580 148.3973530  72.0045800 127.3348410 146.2747510
  72.5338560 126.5478210 146.1455460  72.6374120 128.0139600 146.5083040
  74.1983640 127.0723550 149.3292900  73.5686380 126.3710860 149.4963030
  73.6588780 127.8327680 149.1126060  85.3720650 143.2288350 148.9977760
  85.5472840 142.5426090 148.3538680  84.6742220 143.7535400 148.6054430
  73.2148300 143.6183190 146.5513070  73.9467120 143.3342470 146.0036960
  73.4741970 143.3796470 147.4412450  72.3763090 139.7347920 146.5559400
  71.7471970 140.2033020 147.1045230  72.4910920 138.8897140 146.9905590
  79.8312810 133.7853580 132.7060600  79.7506860 132.8708190 132.4352310
  79.4177230 134.2820650 132.0000310  77.9630850 135.5632600 134.5869870
  77.1872950 135.0833040 134.8768440  78.6143780 134.8838250 134.4126030
  71.9796680 135.8752410 135.4645630  71.1481560 135.6201120 135.8642140
  72.5877660 135.9463180 136.2003550  81.9838280 139.9692790 133.3669000
  81.5219810 139.1980030 133.6956170  82.7963830 139.9958860 133.8721450
  71.9597940 139.9092500 135.6603650  72.2625980 139.0190240 135.4813870
  72.7041530 140.4662720 135.4325900  70.3888630 130.8354300 129.2488020
  69.5005330 131.1770270 129.1467900  70.6729820 130.6354620 128.3568850
  68.3521640 133.4359950 135.1327720  68.9237750 132.6682150 135.1331360
  68.3523180 133.7348710 134.2234330  78.2101590 142.2550800 132.9872990
  77.5913030 142.7108300 132.4167430  79.0653370 142.4102260 132.5862690
  77.4039840 138.2389790 134.5940030  77.3348120 137.2979730 134.4329160
  78.1659700 138.3291200 135.1662600  69.5946510 128.8444310 136.9196650
  69.4149350 127.9470060 137.1999410  69.1926590 129.3916180 137.5943600
  78.4345010 131.0460170 134.8208960  78.8109830 130.1732050 134.7082630
  78.3364520 131.3818870 133.9299400  72.5650020 129.4185800 130.2826400
  72.6716770 130.3189530 130.5895160  71.6542380 129.3703770 129.9921050
  82.2169130 128.5410610 131.7537300  83.0378750 128.0507180 131.7962780
  82.2503210 129.1308270 132.5069140  70.2133180 131.3404810 135.5278990
  70.8943290 131.6043180 136.1466390  69.8981230 130.5005680 135.8617000
  74.4057750 132.3872170 134.6151580  74.9135970 132.8853140 135.2556600
  74.9370990 131.6107370 134.4390940  86.5068680 130.5577360 138.3180930
  85.8020850 130.9459070 137.7996040  86.7726600 131.2527650 138.9201860
  72.6893850 127.0270730 138.8815000  72.6912290 127.5443120 138.0760900
  71.8598160 126.5500910 138.8584930  79.0764940 137.1390040 130.3804900
  78.4582210 137.6039490 129.8167620  79.5888190 137.8317520 130.7974410
  73.9396700 136.6665910 137.0588500  73.6066080 137.2934830 137.7009570
  74.1163380 137.1927790 136.2790170  82.4530610 130.4810990 134.5264840
  81.7486180 130.7695880 135.1067950  82.8142770 131.2911100 134.1664400
  72.3709180 128.7380690 136.8885450  72.7125990 129.5822740 136.5939320
  71.4324990 128.8864430 137.0050790  73.1515800 138.6346710 138.8737680
  73.7689800 139.3097790 138.5922130  72.2908920 139.0434690 138.7825180
  68.4448140 137.8246570 127.7544530  68.0676120 138.3133670 127.0229430
  68.7021210 138.4971850 128.3851060  84.0693390 140.0986120 136.7892320
  83.3856910 140.7685230 136.7808990  84.6087680 140.2966770 136.0237180
  85.5217530 129.9265780 134.9174050  84.5742440 129.9604760 135.0489480
  85.8467520 130.7404730 135.3023410  76.0537070 126.2262960 133.2130040
  76.3612050 125.6709850 132.4965540  75.1237770 126.3607420 133.0303030
  81.6052130 141.9430250 135.5037500  81.6179290 141.5392540 134.6359760
  81.0527350 142.7177540 135.3998930  82.8997550 138.6646470 130.5927670
  82.7893880 137.7220800 130.7177090  82.8965800 139.0262110 131.4790430
  81.0037570 136.8460090 136.8320110  81.4206360 136.6320200 135.9973570
  81.7277390 137.1032880 137.4028730  78.4417830 134.2911790 129.9490160
  77.5147110 134.2249170 130.1778630  78.5942650 135.2291920 129.8345400
  78.4286910 130.5628790 126.9457320  77.4890580 130.7242750 127.0309780
  78.7470170 131.2814470 126.3993310  84.9499670 135.2447310 136.9236350
  84.1218300 135.3140400 136.4486480  85.5450150 135.8301620 136.4552180
  82.4715120 135.8532090 130.4525410  81.8527540 135.5151640 129.8051710
  82.4539570 135.2091850 131.1604600  81.9141680 132.0316630 137.8691220
  81.5012860 132.8570340 138.1231210  81.1817630 131.4461670 137.6767580
  74.0474470 134.8176530 132.7309890  73.6431470 134.1053780 132.2355790
  74.1337590 134.4729770 133.6197930  74.5156170 138.5044090 134.8949100
  74.2184460 137.8989560 134.2156880  75.4655990 138.5421400 134.7838460
  72.7603090 131.5919740 136.5108930  73.3117680 131.7015080 135.7362180
  73.2746600 131.9657340 137.2264160  82.6041780 142.0775960 138.5572200
  82.1272340 142.8848150 138.3644810  81.9203570 141.4254290 138.7098410
  73.6074600 138.2425780 141.5456900  72.7103130 138.4665750 141.7930300
  73.6327470 138.3660720 140.5968300  80.6479820 135.0918900 127.4598160
  81.0873100 134.2541330 127.3135980  81.3608240 135.7248300 127.5462300
  72.4345820 135.1139100 140.1214270  72.2953590 135.9861900 140.4901670
  71.5527180 134.7711910 139.9762210  78.7575200 140.0314970 131.4279400
  79.1971110 140.7739300 131.0134790  78.6962090 140.2741540 132.3518360
  74.2326170 141.0560800 142.3299420  74.2041600 141.4603750 141.4627850
  74.0691140 140.1271160 142.1671020  84.2296960 126.3461710 125.7739200
  83.9169620 126.4388540 126.6738270  84.9909430 126.9242740 125.7236630
  70.7479100 133.7121510 130.2316540  70.6276700 134.4383600 129.6197810
  70.4379990 132.9424420 129.7544450  86.1840990 141.8387900 143.6263590
  86.6600710 142.3170790 144.3052670  86.8048150 141.7705390 142.9009090
  68.3864470 136.8836650 136.0385180  68.4644890 137.0185420 135.0940900
  69.0006150 136.1752540 136.2313300  69.6312100 138.5836840 132.4491360
  69.2240180 138.7251430 131.5944960  70.5225110 138.2997000 132.2462570
  85.5874240 139.0300750 140.7863600  85.7137300 138.7912630 139.8680780
  85.6295620 138.1985290 141.2585680  79.4490980 142.7328750 139.3558410
  79.9635650 142.6436760 140.1580840  78.6060060 143.0788450 139.6486320
  81.4245380 143.0184090 128.7842410  81.2646520 142.7287030 129.6824240
  81.2592090 142.2424220 128.2487640  73.9033760 142.7982620 130.5614030
  73.7276240 141.8818160 130.3481830  73.0489500 143.1569910 130.8011830
  81.1271510 140.5271650 127.3440410  80.4336670 140.5248940 126.6842690
  81.8694370 140.1030970 126.9134580  80.6921440 142.1534360 131.4188900
  81.1478390 141.3723740 131.7327520  81.0313960 142.8641180 131.9630080
  85.4398250 131.0833210 141.7513340  84.8242520 131.5912880 141.2228800
  85.1194670 130.1831540 141.6939280  68.4423990 137.9250820 138.5779640
  68.6055030 137.4556180 137.7599010  68.9076440 137.4174380 139.2428480
  73.2142760 127.0556580 133.6140210  72.7710910 127.8366120 133.2824730
  73.7727750 127.3786470 134.3211150  77.5012570 129.9225100 139.2175530
  77.0391940 130.1308120 140.0295470  77.0990680 129.1084450 138.9146200
  82.5017080 131.1434050 140.3472190  81.6510670 130.8439800 140.6681260
  82.3418870 131.3876060 139.4356010  79.5966790 132.6435800 142.4470980
  79.9220200 131.8099550 142.1073210  80.3847120 133.1664320 142.5949310
  76.3301580 126.6767280 128.4946040  75.7055760 126.6727150 129.2199350
  76.2431700 125.8098240 128.0982010  75.2518660 127.6003910 135.4729810
  75.5490990 128.5066740 135.3921830  75.8004220 127.1122690 134.8589380
  73.0056980 132.1790150 131.3421460  72.7797900 131.9627320 132.2468080
  72.2249510 132.6118610 130.9967430  80.2354740 132.1853520 129.9412110
  79.6363630 132.9089320 129.7575730  80.7834350 132.1230300 129.1588560
  75.4456190 133.0775730 142.0081730  75.3499790 132.1370460 141.8582130
  76.2888170 133.2990800 141.6129800  78.8419610 130.8217060 131.9715390
  79.2349180 131.1389260 131.1584080  79.2036460 129.9428940 132.0859910
  70.5766730 129.4889400 140.1615510  70.1830120 130.3364610 140.3688290
  69.8885130 128.8515770 140.3524150  77.1511780 129.5724370 143.2312250
  76.4610100 129.3796570 143.8658340  77.8944080 129.8559010 143.7636550
  67.8783780 127.4117860 134.1945590  67.5896830 127.9820720 134.9070570
  68.6229540 126.9322310 134.5576820  68.0654010 131.3537980 125.4048310
  67.9828680 132.2968740 125.5463300  67.7137070 131.2112890 124.5260660
  79.4274750 133.4122810 136.0666170  78.6955870 133.9209620 136.4156270
  79.0299090 132.5952790 135.7654950  75.8652140 130.0877010 134.4718660
  75.8688200 129.6466960 133.6223200  76.7603260 130.4094340 134.5790480
  71.7154520 129.9703500 133.4312870  71.3754570 130.4478730 134.1879920
  70.9531840 129.5168620 133.0713970  75.9272290 131.0889090 127.4625420
  76.0485110 131.0475570 128.4111240  75.5420800 131.9513240 127.3072150
  79.8900660 128.8656490 135.4789110  79.9073400 129.3165140 136.3230960
  79.6416240 127.9662130 135.6922550  74.9393790 133.3990230 126.8608720
  74.3710690 132.9508480 126.2344630  75.6482790 133.7583010 126.3273870
  83.3171410 126.2788670 141.3175490  83.6417180 125.5478330 141.8433470
  83.3527920 125.9602310 140.4156480  70.0162970 137.3002250 140.7375450
  69.6317760 136.6595920 141.3358410  70.3275160 138.0038370 141.3070180
  76.1660110 134.1478790 136.2184070  76.5330240 133.6737360 136.9645410
  75.9765170 135.0220360 136.5592410  69.0300600 128.8922480 132.3477540
  68.7447520 128.5278150 133.1856160  68.9679460 128.1602940 131.7340680
  73.9559480 133.1887430 138.5368280  73.6516550 134.0679410 138.7618640
  74.9105940 133.2487220 138.5725720  72.4841270 137.3948420 129.1335130
  71.7103530 136.8546040 128.9733850  73.2135900 136.8755030 128.7952890
  83.2429250 136.3913780 134.9261520  83.9628370 136.8869070 134.5357630
  83.0411070 135.7131670 134.2815390  78.7039190 127.7851740 129.0690910
  77.8903800 127.2864910 128.9936220  78.5101140 128.6249990 128.6527260
  78.6248050 136.4622840 140.8130520  78.5585360 135.5418510 140.5588110
  77.9953190 136.5598280 141.5275160  81.4187580 132.1571390 127.3653070
  82.3067200 132.4688620 127.1904410  81.3892670 131.2843640 126.9733650
  72.5278670 137.0628800 132.7713940  73.0457340 136.2597060 132.7170830
  72.0762690 137.0007940 133.6130770  77.4148170 138.3295080 128.0441240
  77.7563870 139.0737310 127.5484560  76.5860880 138.6426200 128.4066070
  70.0123210 134.0290170 139.6839640  69.6538150 134.6944020 140.2712980
  69.7177770 133.1973720 140.0552260  73.2136330 134.4874410 142.5679190
  72.9136470 134.6331590 141.6707010  73.9847570 133.9279700 142.4752580
  78.5564780 139.2843410 140.5634320  78.5709320 138.3524370 140.3453230
  77.8489880 139.3703170 141.2024090  83.6901850 133.4683230 126.8332930
  83.6065570 133.8997450 125.9829370  84.4096040 133.9281580 127.2659750
  84.7675990 135.9250750 139.9102900  84.0424180 136.5179530 139.7132290
  85.2951450 135.9174290 139.1116270  84.7189100 140.3225490 129.5615060
  84.0765260 139.6681110 129.8358780  84.3319760 140.7280580 128.7855730
  80.2975580 137.6510920 133.4086750  80.6499400 137.0539050 132.7488120
  79.4137910 137.3255150 133.5795000  76.3838860 138.4108610 130.8157160
  77.0709990 138.9577820 131.1964750  75.5971280 138.9549340 130.8506770
  68.5231260 134.0281430 126.3074240  69.3926110 134.3106230 126.5910160
  68.0321580 134.8417300 126.1923050  75.6866070 135.4154640 130.4282520
  76.1428850 136.2259890 130.6542710  75.3354280 135.0977780 131.2601010
  77.9898680 140.9260980 137.6574820  78.6340900 141.1320360 138.3348240
  78.3528120 140.1649380 137.2045670  71.5877850 125.7592290 130.9005040
  71.4592480 125.7510190 131.8489960  70.7639870 126.0975380 130.5496050
  79.2630760 138.9293330 136.3752270  79.9052990 138.2286490 136.4884440
  79.7880110 139.7091770 136.1949160  83.1086480 139.2141950 126.0991410
  82.8824060 138.4972390 126.6916050  82.7182680 138.9654390 125.2613160
  81.0368380 139.7288230 139.5788330  81.3724620 140.3154920 140.2566250
  80.1168720 139.5980940 139.8086120  68.8902510 143.2408810 126.8735870
  69.2500150 143.8398150 126.2193140  68.7494850 143.7868700 127.6470900
  68.5871780 127.5183410 140.3611740  67.8730300 127.7180330 140.9664350
  69.0066820 126.7422980 140.7326540  82.6902730 137.1313890 127.7605570
  82.4024430 137.5926580 128.5483450  83.4854900 136.6711660 128.0289790
  68.8744370 141.5063670 141.3478270  68.9835490 140.5658410 141.2073660
  68.2224930 141.7718420 140.6992000  76.8656960 139.7779560 142.7476390
  76.5453830 139.0588800 143.2922080  76.1915320 140.4534630 142.8212450
  74.9071130 140.6240010 127.6909540  74.8981230 141.3569700 127.0754050
  73.9869490 140.3771590 127.7836500  70.5077770 135.8454900 128.4356300
  69.9005720 136.5853800 128.4451600  70.9827120 135.9354260 127.6094500
  80.0810560 130.0105720 138.1113190  80.4491380 129.1900930 138.4392760
  79.2208760 130.0707610 138.5268840  83.4472590 128.9662660 128.9200750
  82.8185750 129.0708330 128.2058980  82.9524510 129.1859440 129.7094630
  77.8930730 140.6868250 126.3534730  77.9942710 140.4832240 125.4236710
  76.9932470 140.4326530 126.5582510  75.4156620 131.2448610 130.3358630
  74.7072770 131.7134950 130.7772240  75.7001100 130.5870620 130.9703820
  77.0412550 132.6645310 138.3351160  77.5397800 133.1391130 139.0003010
  77.1835500 131.7408830 138.5421190  79.4472050 127.9699270 131.7754420
  79.3239830 127.9885400 130.8263930  80.3956610 128.0178210 131.8952820
  76.5348840 143.2054570 131.0482400  76.7890340 143.1675960 130.1261770
  75.5861320 143.0787900 131.0410650  73.6191640 129.5533690 127.7109340
  74.4682170 129.9903840 127.6449530  73.2522910 129.8653950 128.5381400
  84.2479410 128.8813270 139.1779550  83.7453010 129.6218670 139.5173360
  85.0636070 129.2697270 138.8616340  82.5401420 134.1246450 132.6240910
  81.5991560 134.1396680 132.7988600  82.8545490 133.3382410 133.0701210
  72.5183060 135.8066050 126.1844870  73.2846330 135.6947410 126.7470300
  72.5957750 135.1104020 125.5321640  71.2129820 133.2391120 126.8677760
  71.2933410 132.2918630 126.9795160  72.1049570 133.5698000 126.9738420
  84.5427000 141.2955300 134.2995170  84.6674420 142.1186470 134.7718980
  85.4092560 141.0846030 133.9519320  72.0144530 143.3886510 133.9712300
  72.7507010 142.8401970 134.2420870  72.3985450 144.2542520 133.8318290
  68.8990010 139.4560080 129.8453810  67.9729790 139.6981220 129.8359220
  69.3646440 140.2834340 129.7238560  71.0202810 142.5732580 143.1597880
  71.8215540 142.8944630 143.5733280  70.5054630 142.2128160 143.8817790
  75.1246840 142.5616820 125.7937870  75.9175450 142.8505650 125.3419660
  74.6051190 142.1308990 125.1150350  79.8567440 138.6812450 143.1073290
  79.2505600 138.7044050 142.3669040  79.5521550 137.9495490 143.6440540
  81.2867810 142.4092740 141.7182700  82.2389560 142.3250760 141.6682940
  81.1396030 143.0734450 142.3916490  84.1777010 141.7886950 127.2174610
  83.8918520 141.3752090 126.4028790  83.9796560 142.7174660 127.0975130
  68.7400620 135.0606040 142.1033930  69.2439640 134.4813320 142.6750160
  68.0008040 135.3446270 142.6410300  75.6424240 137.7820230 125.6580220
  75.5374880 137.1672580 126.3841600  75.4748460 137.2586120 124.8743230
  75.7938560 136.4677030 141.6369450  75.0284230 137.0362030 141.5524120
  75.9754520 136.1753240 140.7437680  78.8826970 136.8440260 126.2622210
  78.3337070 137.2909560 126.9064950  79.5046230 136.3389510 126.7859880
  82.9361910 138.1982360 142.1944470  83.6771380 138.5358120 141.6911930
  82.1734590 138.3674420 141.6414240  70.7723700 133.2035630 142.9984000
  70.8129040 132.9049500 143.9069230  71.6269200 133.6043240 142.8391520
  74.5502090 135.8031180 128.1587510  74.9718510 135.6371050 129.0018900
  74.6752930 134.9931410 127.6642650  72.7129510 131.7827730 140.9658490
  72.1825970 131.2918680 140.3381830  73.3817580 132.2111930 140.4316420
  77.0629730 134.8268790 125.4064610  77.5835390 134.1117810 125.0405760
  77.7098130 135.4654660 125.7065120  81.6107570 136.2497190 140.7299680
  82.0248590 136.4042270 141.5790100  80.6758570 136.3752410 140.8925460
  82.0829740 133.5893350 142.7338830  82.6650510 132.8345670 142.6459310
  82.2591510 134.1200790 141.9570310  73.2001810 128.7490100 141.0455780
  73.1058680 128.1310850 140.3206650  72.6199200 129.4756390 140.8185690
  75.9663250 127.3063340 138.0783170  75.5180550 127.3287600 137.2328720
  75.3328450 126.9082360 138.6753470  76.3722800 136.2017670 138.6995610
  76.7910910 137.0450400 138.5271850  75.4531430 136.3389710 138.4702390
  78.7086700 133.9333850 140.0833450  78.8282910 133.3374990 140.8228290
  79.5680700 133.9703540 139.6634750  81.0474600 134.4871040 138.6595960
  80.5209820 135.0113660 138.0561100  81.3905940 135.1198430 139.2905690
  73.4460990 131.8764410 125.1045670  73.2450050 131.0131770 125.4659010
  73.2753040 131.7897770 124.1667270  74.2230220 142.5070680 139.8153340
  73.6851310 143.2316740 139.4962040  74.4764180 142.0301020 139.0250680
  75.4755470 130.4755200 141.3409270  76.0655160 130.1671050 142.0287090
  74.6575710 130.0034950 141.4969170  80.2948900 130.0921010 141.5742290
  79.6064420 129.4302550 141.5092280  81.0154920 129.6459280 142.0190750
  80.9249300 126.6872640 127.6332550  81.2051590 125.8440540 127.9891970
  80.1515030 126.9195750 128.1471300  72.2443790 128.9765030 125.0923550
  72.5469690 128.9832460 124.1842700  72.9838380 128.6262890 125.5891210
  77.0792430 143.7421890 140.0739990  77.0051130 144.6457030 140.3812360
  76.1771270 143.4233790 140.0462060  75.4628720 127.9199650 126.0779750
  75.1150720 127.2423640 125.4982200  75.6641490 127.4589160 126.8923140
  77.6277760 142.9080400 127.6966350  78.5228550 143.2465370 127.7185110
  77.6595390 142.1859810 127.0690630  71.2673920 138.2807450 125.9253350
  71.7048790 138.8237120 126.5810930  71.7521650 137.4554400 125.9349690
  68.4819720 141.0696480 133.3773610  68.8122730 140.2017540 133.1452250
  68.9110720 141.2755000 134.2078570  73.0781640 139.4005490 131.0375580
  72.7777180 139.2770460 131.9379490  72.9719130 138.5414080 130.6291310
  68.9709930 141.9367070 136.1155240  68.5340920 142.1167870 136.9479390
  69.5387610 142.6941690 135.9736960  84.6072110 141.4384070 140.4032550
  84.0074100 141.4976630 139.6596470  84.7366010 140.4989050 140.5329400
  85.8473560 139.1801890 125.7402260  85.0166520 139.2478540 126.2109490
  86.0245390 140.0706010 125.4369120  85.3030020 135.9249370 128.2436460
  86.0648930 136.4946020 128.3496150  85.3184390 135.3576570 129.0144770
  68.8034360 134.4487300 132.4744120  68.1483200 134.1798940 131.8303820
  69.6412310 134.3391780 132.0246100  86.3089990 136.7799470 133.0878390
  86.6798820 135.9966790 132.6814360  86.9491920 137.4688570 132.9095690
  83.2923750 138.1636050 138.5008710  82.4783590 138.5933210 138.7634500
  83.6997950 138.7754460 137.8877760  85.3549190 136.2183740 125.4008980
  85.6298030 137.1262620 125.2728200  85.1659930 136.1546270 126.3370970
  81.7524800 129.2428590 126.6962610  82.1709680 129.0559570 125.8559270
  81.4460860 128.3907640 127.0065540  85.2514530 134.1552730 130.3938410
  84.8758130 133.3880660 129.9619700  84.5217650 134.5375430 130.8813340
  69.8410290 134.8339870 137.0147460  70.2083330 134.7467270 137.8943480
  69.2721110 134.0706420 136.9154320  84.6414150 133.3024250 140.0277930
  84.4100240 133.0737000 139.1275880  84.9018700 134.2223800 139.9822820
  69.3926290 131.7448960 140.9205880  68.4982340 131.7115720 141.2599590
  69.9323840 131.9435750 141.6857130  83.0802220 128.5280680 142.8057630
  83.9572400 128.5364080 143.1891630  83.0923060 127.7911520 142.1949980
  68.0172440 131.6586230 128.4169450  67.1136520 131.9216430 128.2421110
  68.5013060 131.9297400 127.6369410  84.5265490 132.3810220 133.6945650
  85.0502970 131.8872870 133.0635820  85.1124910 132.5160580 134.4393220
  84.7055210 132.4650090 137.2165200  83.7557920 132.4313630 137.3310190
  84.8868220 133.3750200 136.9814970  70.5599650 130.7151770 126.3263830
  71.2691350 130.2934990 125.8411110  69.8439590 130.7827000 125.6947180
  70.2073810 126.7691100 125.3666480  70.9301940 127.3100040 125.6847700
  70.4798330 126.4954520 124.4908020  84.0165460 131.6383570 129.6338060
  84.5124580 131.4054440 130.4186940  83.8181530 130.7995410 129.2175700
  69.8966000 126.0197290 135.2689100  70.5442190 125.4694670 134.8284260
  70.3167840 126.2740440 136.0904910  85.4452620 130.2744520 132.1675740
  85.3351900 130.1200560 133.1058010  86.2060210 129.7465460 131.9251150
  83.7918340 126.2138650 138.6258740  84.4290560 126.8272790 138.9917930
  83.9393230 126.2499310 137.6807970  86.3342890 128.1052440 125.4081880
  87.2592200 127.9733620 125.2000170  86.3118680 128.1845260 126.3618330
  86.4081380 128.8763100 128.0338590  85.6132880 128.8108220 128.5631500
  86.6124660 129.8113740 128.0223940  83.3499800 142.9154650 132.0276980
  83.9458870 142.5939220 131.3511400  83.6077950 142.4426470 132.8190250
  69.6498000 126.1752960 138.0114420  69.3012820 126.6316780 138.7772600
  69.3185700 125.2810090 138.0936850  71.2562370 139.3472560 142.1767610
  71.2132000 138.9765470 143.0582070  71.3873380 140.2850130 142.3169430
  74.9568400 140.9032150 137.7777330  74.7159760 141.1706710 136.8907850
  75.8971040 141.0737880 137.8328190  77.1622820 127.3664840 141.5333840
  77.1011710 127.9586670 142.2829250  78.1023200 127.2590800 141.3884100
  79.7997380 127.0234900 141.1726130  80.4137790 127.3414190 140.5107210
  80.3446940 126.5383490 141.7921990  86.2172560 142.9226530 138.5787970
  85.7230840 143.3195400 137.8615100  85.6085850 142.2975740 138.9725250
  70.3218640 125.7029160 141.2865190  70.8701630 125.5217210 140.5231300
  70.3873950 124.9123270 141.8221500  71.0950400 142.2934810 139.2965390
  70.5010720 142.1619510 140.0355430  71.0874240 141.4572950 138.8307490
  80.5405420 125.5867040 137.4995420  79.6665260 125.9202150 137.2968350
  80.4316170 125.1140220 138.3247290  81.4477400 127.7937910 138.8837140
  81.1190760 126.9789670 138.5038870  82.3959700 127.7507720 138.7602830
  83.9012010 143.5649950 135.8574710  83.4414980 144.3165760 135.4832730
  83.2724470 142.8456420 135.7989510  70.7262630 139.6593190 138.2473430
  69.9996690 139.0398480 138.1799380  70.7871780 140.0533800 137.3771510
  74.3307730 141.8738190 135.0322840  74.8472750 141.2625550 134.5071100
  74.9805110 142.3766970 135.5233850  77.0703230 142.7646680 135.8591820
  77.3581040 142.5100980 134.9824830  77.5826450 142.2124040 136.4497390
  78.2880240 126.5036880 136.4388330  77.5052030 126.9782380 136.7185090
  77.9943170 125.5991710 136.3301510  82.8401310 127.2059980 134.4837420
  83.2809400 127.1505080 133.6359020  82.5708900 128.1217990 134.5547600
  84.7039880 126.8375220 132.4946240  84.6428280 125.8936440 132.3477260
  85.4831910 126.9455310 133.0399700  69.0092630 142.9767580 131.4570190
  68.8414670 142.3438260 132.1552080  68.1427140 143.1826980 131.1064380
  69.6320650 126.8084360 128.9602050  70.3900010 126.9213240 128.3866080
  69.1697820 127.6453560 128.9145480  76.1734460 128.9223630 131.9504360
  75.3608970 128.5480520 131.6100240  76.6776100 128.1668710 132.2525550
  80.6759440 125.5866080 133.1887430  81.2788810 126.1586290 133.6635950
  79.9352430 126.1505520 132.9661330  83.8194040 125.9887640 128.4627710
  84.0144670 126.8871090 128.7295140  83.0323910 125.7574720 128.9560660
  70.6155330 141.6700810 128.9020330  70.0902950 142.0508840 128.1982290
  70.5399910 142.2951580 129.6230040  72.0045800 127.3348410 127.5004020
  72.5338560 126.5478210 127.3711970  72.6374120 128.0139600 127.7339550
  74.1983640 127.0723550 130.5549410  73.5686380 126.3710860 130.7219540
  73.6588780 127.8327680 130.3382570  77.1375590 143.6862780 143.2260020
  78.0642900 143.4507050 143.2695980  77.1226020 144.5134780 142.7446050
  85.3720650 143.2288350 130.2234270  85.5472840 142.5426090 129.5795190
  84.6742220 143.7535400 129.8310940  74.3239200 126.3507530 142.9901900
  74.0423470 126.8541130 142.2262720  74.7058900 125.5529280 142.6244030
  73.2148300 143.6183190 127.7769580  73.9467120 143.3342470 127.2293470
  73.4741970 143.3796470 128.6668960  72.3763090 139.7347920 127.7815910
  71.7471970 140.2033020 128.3301740  72.4910920 138.8897140 128.2162100
  80.9254660 125.7661110 143.5682370  80.8120110 126.0855720 144.4633890
  81.7424400 126.1673620 143.2719650  83.7053150 142.9132640 143.0501060
  84.4978470 142.4181870 142.8427020  83.9986300 143.5922780 143.6576670
  71.9796680 135.8752410 116.6902140  71.1481560 135.6201120 117.0898650
  72.5877660 135.9463180 117.4260060  81.9838280 139.9692790 114.5925510
  81.5219810 139.1980030 114.9212680  82.7963830 139.9958860 115.0977960
  71.9597940 139.9092500 116.8860160  72.2625980 139.0190240 116.7070380
  72.7041530 140.4662720 116.6582410  68.3521640 133.4359950 116.3584230
  68.9237750 132.6682150 116.3587870  68.3523180 133.7348710 115.4490840
  78.2101590 142.2550800 114.2129500  77.5913030 142.7108300 113.6423940
  79.0653370 142.4102260 113.8119200  77.4039840 138.2389790 115.8196540
  77.3348120 137.2979730 115.6585670  78.1659700 138.3291200 116.3919110
  69.5946510 128.8444310 118.1453160  69.4149350 127.9470060 118.4255920
  69.1926590 129.3916180 118.8200110  70.2133180 131.3404810 116.7535500
  70.8943290 131.6043180 117.3722900  69.8981230 130.5005680 117.0873510
  72.6893850 127.0270730 120.1071510  72.6912290 127.5443120 119.3017410
  71.8598160 126.5500910 120.0841440  79.0764940 137.1390040 111.6061410
  78.4582210 137.6039490 111.0424130  79.5888190 137.8317520 112.0230920
  73.9396700 136.6665910 118.2845010  73.6066080 137.2934830 118.9266080
  74.1163380 137.1927790 117.5046680  72.3709180 128.7380690 118.1141960
  72.7125990 129.5822740 117.8195830  71.4324990 128.8864430 118.2307300
  73.1515800 138.6346710 120.0994190  73.7689800 139.3097790 119.8178640
  72.2908920 139.0434690 120.0081690  68.4448140 137.8246570 108.9801040
  68.0676120 138.3133670 108.2485940  68.7021210 138.4971850 109.6107570
  84.0693390 140.0986120 118.0148830  83.3856910 140.7685230 118.0065500
  84.6087680 140.2966770 117.2493690  81.6052130 141.9430250 116.7294010
  81.6179290 141.5392540 115.8616270  81.0527350 142.7177540 116.6255440
  82.8997550 138.6646470 111.8184180  82.7893880 137.7220800 111.9433600
  82.8965800 139.0262110 112.7046940  81.0037570 136.8460090 118.0576620
  81.4206360 136.6320200 117.2230080  81.7277390 137.1032880 118.6285240
  78.4417830 134.2911790 111.1746670  77.5147110 134.2249170 111.4035140
  78.5942650 135.2291920 111.0601910  78.4286910 130.5628790 108.1713830
  77.4890580 130.7242750 108.2566290  78.7470170 131.2814470 107.6249820
  84.9499670 135.2447310 118.1492860  84.1218300 135.3140400 117.6742990
  85.5450150 135.8301620 117.6808690  82.4715120 135.8532090 111.6781920
  81.8527540 135.5151640 111.0308220  82.4539570 135.2091850 112.3861110
  74.0474470 134.8176530 113.9566400  73.6431470 134.1053780 113.4612300
  74.1337590 134.4729770 114.8454440  74.5156170 138.5044090 116.1205610
  74.2184460 137.8989560 115.4413390  75.4655990 138.5421400 116.0094970
  72.7603090 131.5919740 117.7365440  73.3117680 131.7015080 116.9618690
  73.2746600 131.9657340 118.4520670  82.6041780 142.0775960 119.7828710
  82.1272340 142.8848150 119.5901320  81.9203570 141.4254290 119.9354920
  73.6074600 138.2425780 122.7713410  72.7103130 138.4665750 123.0186810
  73.6327470 138.3660720 121.8224810  80.6479820 135.0918900 108.6854670
  81.0873100 134.2541330 108.5392490  81.3608240 135.7248300 108.7718810
  72.4345820 135.1139100 121.3470780  72.2953590 135.9861900 121.7158180
  71.5527180 134.7711910 121.2018720  78.7575200 140.0314970 112.6535910
  79.1971110 140.7739300 112.2391300  78.6962090 140.2741540 113.5774870
  74.2326170 141.0560800 123.5555930  74.2041600 141.4603750 122.6884360
  74.0691140 140.1271160 123.3927530  70.7479100 133.7121510 111.4573050
  70.6276700 134.4383600 110.8454320  70.4379990 132.9424420 110.9800960
  86.1840990 141.8387900 124.8520100  86.6600710 142.3170790 125.5309180
  86.8048150 141.7705390 124.1265600  68.3864470 136.8836650 117.2641690
  68.4644890 137.0185420 116.3197410  69.0006150 136.1752540 117.4569810
  69.6312100 138.5836840 113.6747870  69.2240180 138.7251430 112.8201470
  70.5225110 138.2997000 113.4719080  85.5874240 139.0300750 122.0120110
  85.7137300 138.7912630 121.0937290  85.6295620 138.1985290 122.4842190
  79.4490980 142.7328750 120.5814920  79.9635650 142.6436760 121.3837350
  78.6060060 143.0788450 120.8742830  81.4245380 143.0184090 110.0098920
  81.2646520 142.7287030 110.9080750  81.2592090 142.2424220 109.4744150
  73.9033760 142.7982620 111.7870540  73.7276240 141.8818160 111.5738340
  73.0489500 143.1569910 112.0268340  81.1271510 140.5271650 108.5696920
  80.4336670 140.5248940 107.9099200  81.8694370 140.1030970 108.1391090
  80.6921440 142.1534360 112.6445410  81.1478390 141.3723740 112.9584030
  81.0313960 142.8641180 113.1886590  85.4398250 131.0833210 122.9769850
  84.8242520 131.5912880 122.4485310  85.1194670 130.1831540 122.9195790
  68.4423990 137.9250820 119.8036150  68.6055030 137.4556180 118.9855520
  68.9076440 137.4174380 120.4684990  77.5012570 129.9225100 120.4432040
  77.0391940 130.1308120 121.2551980  77.0990680 129.1084450 120.1402710
  79.5966790 132.6435800 123.6727490  79.9220200 131.8099550 123.3329720
  80.3847120 133.1664320 123.8205820  75.2518660 127.6003910 116.6986320
  75.5490990 128.5066740 116.6178340  75.8004220 127.1122690 116.0845890
  73.0056980 132.1790150 112.5677970  72.7797900 131.9627320 113.4724590
  72.2249510 132.6118610 112.2223940  80.2354740 132.1853520 111.1668620
  79.6363630 132.9089320 110.9832240  80.7834350 132.1230300 110.3845070
  75.4456190 133.0775730 123.2338240  75.3499790 132.1370460 123.0838640
  76.2888170 133.2990800 122.8386310  70.5766730 129.4889400 121.3872020
  70.1830120 130.3364610 121.5944800  69.8885130 128.8515770 121.5780660
  77.1511780 129.5724370 124.4568760  76.4610100 129.3796570 125.0914850
  77.8944080 129.8559010 124.9893060  67.8783780 127.4117860 115.4202100
  67.5896830 127.9820720 116.1327080  68.6229540 126.9322310 115.7833330
  68.0654010 131.3537980 106.6304820  67.9828680 132.2968740 106.7719810
  67.7137070 131.2112890 105.7517170  75.9272290 131.0889090 108.6881930
  76.0485110 131.0475570 109.6367750  75.5420800 131.9513240 108.5328660
  74.9393790 133.3990230 108.0865230  74.3710690 132.9508480 107.4601140
  75.6482790 133.7583010 107.5530380  83.3171410 126.2788670 122.5432000
  83.6417180 125.5478330 123.0689980  83.3527920 125.9602310 121.6412990
  70.0162970 137.3002250 121.9631960  69.6317760 136.6595920 122.5614920
  70.3275160 138.0038370 122.5326690  69.0300600 128.8922480 113.5734050
  68.7447520 128.5278150 114.4112670  68.9679460 128.1602940 112.9597190
  73.9559480 133.1887430 119.7624790  73.6516550 134.0679410 119.9875150
  74.9105940 133.2487220 119.7982230  72.4841270 137.3948420 110.3591640
  71.7103530 136.8546040 110.1990360  73.2135900 136.8755030 110.0209400
  83.2429250 136.3913780 116.1518030  83.9628370 136.8869070 115.7614140
  83.0411070 135.7131670 115.5071900  78.7039190 127.7851740 110.2947420
  77.8903800 127.2864910 110.2192730  78.5101140 128.6249990 109.8783770
  78.6248050 136.4622840 122.0387030  78.5585360 135.5418510 121.7844620
  77.9953190 136.5598280 122.7531670  81.4187580 132.1571390 108.5909580
  82.3067200 132.4688620 108.4160920  81.3892670 131.2843640 108.1990160
  72.5278670 137.0628800 113.9970450  73.0457340 136.2597060 113.9427340
  72.0762690 137.0007940 114.8387280  77.4148170 138.3295080 109.2697750
  77.7563870 139.0737310 108.7741070  76.5860880 138.6426200 109.6322580
  70.0123210 134.0290170 120.9096150  69.6538150 134.6944020 121.4969490
  69.7177770 133.1973720 121.2808770  73.2136330 134.4874410 123.7935700
  72.9136470 134.6331590 122.8963520  73.9847570 133.9279700 123.7009090
  78.5564780 139.2843410 121.7890830  78.5709320 138.3524370 121.5709740
  77.8489880 139.3703170 122.4280600  83.6901850 133.4683230 108.0589440
  83.6065570 133.8997450 107.2085880  84.4096040 133.9281580 108.4916260
  84.7675990 135.9250750 121.1359410  84.0424180 136.5179530 120.9388800
  85.2951450 135.9174290 120.3372780  84.7189100 140.3225490 110.7871570
  84.0765260 139.6681110 111.0615290  84.3319760 140.7280580 110.0112240
  80.2975580 137.6510920 114.6343260  80.6499400 137.0539050 113.9744630
  79.4137910 137.3255150 114.8051510  76.3838860 138.4108610 112.0413670
  77.0709990 138.9577820 112.4221260  75.5971280 138.9549340 112.0763280
  68.5231260 134.0281430 107.5330750  69.3926110 134.3106230 107.8166670
  68.0321580 134.8417300 107.4179560  75.6866070 135.4154640 111.6539030
  76.1428850 136.2259890 111.8799220  75.3354280 135.0977780 112.4857520
  77.9898680 140.9260980 118.8831330  78.6340900 141.1320360 119.5604750
  78.3528120 140.1649380 118.4302180  79.2630760 138.9293330 117.6008780
  79.9052990 138.2286490 117.7140950  79.7880110 139.7091770 117.4205670
  83.1086480 139.2141950 107.3247920  82.8824060 138.4972390 107.9172560
  82.7182680 138.9654390 106.4869670  81.0368380 139.7288230 120.8044840
  81.3724620 140.3154920 121.4822760  80.1168720 139.5980940 121.0342630
  68.8902510 143.2408810 108.0992380  69.2500150 143.8398150 107.4449650
  68.7494850 143.7868700 108.8727410  68.5871780 127.5183410 121.5868250
  67.8730300 127.7180330 122.1920860  69.0066820 126.7422980 121.9583050
  82.6902730 137.1313890 108.9862080  82.4024430 137.5926580 109.7739960
  83.4854900 136.6711660 109.2546300  68.8744370 141.5063670 122.5734780
  68.9835490 140.5658410 122.4330170  68.2224930 141.7718420 121.9248510
  76.8656960 139.7779560 123.9732900  76.5453830 139.0588800 124.5178590
  76.1915320 140.4534630 124.0468960  74.9071130 140.6240010 108.9166050
  74.8981230 141.3569700 108.3010560  73.9869490 140.3771590 109.0093010
  70.5077770 135.8454900 109.6612810  69.9005720 136.5853800 109.6708110
  70.9827120 135.9354260 108.8351010  83.4472590 128.9662660 110.1457260
  82.8185750 129.0708330 109.4315490  82.9524510 129.1859440 110.9351140
  77.8930730 140.6868250 107.5791240  77.9942710 140.4832240 106.6493220
  76.9932470 140.4326530 107.7839020  75.4156620 131.2448610 111.5615140
  74.7072770 131.7134950 112.0028750  75.7001100 130.5870620 112.1960330
  76.5348840 143.2054570 112.2738910  76.7890340 143.1675960 111.3518280
  75.5861320 143.0787900 112.2667160  82.5401420 134.1246450 113.8497420
  81.5991560 134.1396680 114.0245110  82.8545490 133.3382410 114.2957720
  72.5183060 135.8066050 107.4101380  73.2846330 135.6947410 107.9726810
  72.5957750 135.1104020 106.7578150  71.2129820 133.2391120 108.0934270
  71.2933410 132.2918630 108.2051670  72.1049570 133.5698000 108.1994930
  84.5427000 141.2955300 115.5251680  84.6674420 142.1186470 115.9975490
  85.4092560 141.0846030 115.1775830  72.0144530 143.3886510 115.1968810
  72.7507010 142.8401970 115.4677380  72.3985450 144.2542520 115.0574800
  68.8990010 139.4560080 111.0710320  67.9729790 139.6981220 111.0615730
  69.3646440 140.2834340 110.9495070  71.0202810 142.5732580 124.3854390
  71.8215540 142.8944630 124.7989790  70.5054630 142.2128160 125.1074300
  75.1246840 142.5616820 107.0194380  75.9175450 142.8505650 106.5676170
  74.6051190 142.1308990 106.3406860  79.8567440 138.6812450 124.3329800
  79.2505600 138.7044050 123.5925550  79.5521550 137.9495490 124.8697050
  81.2867810 142.4092740 122.9439210  82.2389560 142.3250760 122.8939450
  81.1396030 143.0734450 123.6173000  84.1777010 141.7886950 108.4431120
  83.8918520 141.3752090 107.6285300  83.9796560 142.7174660 108.3231640
  68.7400620 135.0606040 123.3290440  69.2439640 134.4813320 123.9006670
  68.0008040 135.3446270 123.8666810  75.6424240 137.7820230 106.8836730
  75.5374880 137.1672580 107.6098110  75.4748460 137.2586120 106.0999740
  75.7938560 136.4677030 122.8625960  75.0284230 137.0362030 122.7780630
  75.9754520 136.1753240 121.9694190  78.8826970 136.8440260 107.4878720
  78.3337070 137.2909560 108.1321460  79.5046230 136.3389510 108.0116390
  82.9361910 138.1982360 123.4200980  83.6771380 138.5358120 122.9168440
  82.1734590 138.3674420 122.8670750  70.7723700 133.2035630 124.2240510
  70.8129040 132.9049500 125.1325740  71.6269200 133.6043240 124.0648030
  74.5502090 135.8031180 109.3844020  74.9718510 135.6371050 110.2275410
  74.6752930 134.9931410 108.8899160  72.7129510 131.7827730 122.1915000
  72.1825970 131.2918680 121.5638340  73.3817580 132.2111930 121.6572930
  77.0629730 134.8268790 106.6321120  77.5835390 134.1117810 106.2662270
  77.7098130 135.4654660 106.9321630  81.6107570 136.2497190 121.9556190
  82.0248590 136.4042270 122.8046610  80.6758570 136.3752410 122.1181970
  82.0829740 133.5893350 123.9595340  82.6650510 132.8345670 123.8715820
  82.2591510 134.1200790 123.1826820  73.2001810 128.7490100 122.2712290
  73.1058680 128.1310850 121.5463160  72.6199200 129.4756390 122.0442200
  75.9663250 127.3063340 119.3039680  75.5180550 127.3287600 118.4585230
  75.3328450 126.9082360 119.9009980  76.3722800 136.2017670 119.9252120
  76.7910910 137.0450400 119.7528360  75.4531430 136.3389710 119.6958900
  78.7086700 133.9333850 121.3089960  78.8282910 133.3374990 122.0484800
  79.5680700 133.9703540 120.8891260  81.0474600 134.4871040 119.8852470
  80.5209820 135.0113660 119.2817610  81.3905940 135.1198430 120.5162200
  73.4460990 131.8764410 106.3302180  73.2450050 131.0131770 106.6915520
  73.2753040 131.7897770 105.3923780  74.2230220 142.5070680 121.0409850
  73.6851310 143.2316740 120.7218550  74.4764180 142.0301020 120.2507190
  75.4755470 130.4755200 122.5665780  76.0655160 130.1671050 123.2543600
  74.6575710 130.0034950 122.7225680  80.2948900 130.0921010 122.7998800
  79.6064420 129.4302550 122.7348790  81.0154920 129.6459280 123.2447260
  80.9249300 126.6872640 108.8589060  81.2051590 125.8440540 109.2148480
  80.1515030 126.9195750 109.3727810  77.0792430 143.7421890 121.2996500
  77.0051130 144.6457030 121.6068870  76.1771270 143.4233790 121.2718570
  77.6277760 142.9080400 108.9222860  78.5228550 143.2465370 108.9441620
  77.6595390 142.1859810 108.2947140  71.2673920 138.2807450 107.1509860
  71.7048790 138.8237120 107.8067440  71.7521650 137.4554400 107.1606200
  68.4819720 141.0696480 114.6030120  68.8122730 140.2017540 114.3708760
  68.9110720 141.2755000 115.4335080  73.0781640 139.4005490 112.2632090
  72.7777180 139.2770460 113.1636000  72.9719130 138.5414080 111.8547820
  68.9709930 141.9367070 117.3411750  68.5340920 142.1167870 118.1735900
  69.5387610 142.6941690 117.1993470  84.6072110 141.4384070 121.6289060
  84.0074100 141.4976630 120.8852980  84.7366010 140.4989050 121.7585910
  85.8473560 139.1801890 106.9658770  85.0166520 139.2478540 107.4366000
  86.0245390 140.0706010 106.6625630  85.3030020 135.9249370 109.4692970
  86.0648930 136.4946020 109.5752660  85.3184390 135.3576570 110.2401280
  68.8034360 134.4487300 113.7000630  68.1483200 134.1798940 113.0560330
  69.6412310 134.3391780 113.2502610  86.3089990 136.7799470 114.3134900
  86.6798820 135.9966790 113.9070870  86.9491920 137.4688570 114.1352200
  83.2923750 138.1636050 119.7265220  82.4783590 138.5933210 119.9891010
  83.6997950 138.7754460 119.1134270  85.3549190 136.2183740 106.6265490
  85.6298030 137.1262620 106.4984710  85.1659930 136.1546270 107.5627480
  81.7524800 129.2428590 107.9219120  82.1709680 129.0559570 107.0815780
  81.4460860 128.3907640 108.2322050  85.2514530 134.1552730 111.6194920
  84.8758130 133.3880660 111.1876210  84.5217650 134.5375430 112.1069850
  69.8410290 134.8339870 118.2403970  70.2083330 134.7467270 119.1199990
  69.2721110 134.0706420 118.1410830  84.6414150 133.3024250 121.2534440
  84.4100240 133.0737000 120.3532390  84.9018700 134.2223800 121.2079330
  69.3926290 131.7448960 122.1462390  68.4982340 131.7115720 122.4856100
  69.9323840 131.9435750 122.9113640  83.0802220 128.5280680 124.0314140
  83.9572400 128.5364080 124.4148140  83.0923060 127.7911520 123.4206490
  68.0172440 131.6586230 109.6425960  67.1136520 131.9216430 109.4677620
  68.5013060 131.9297400 108.8625920  84.5265490 132.3810220 114.9202160
  85.0502970 131.8872870 114.2892330  85.1124910 132.5160580 115.6649730
  84.7055210 132.4650090 118.4421710  83.7557920 132.4313630 118.5566700
  84.8868220 133.3750200 118.2071480  70.5599650 130.7151770 107.5520340
  71.2691350 130.2934990 107.0667620  69.8439590 130.7827000 106.9203690
  84.0165460 131.6383570 110.8594570  84.5124580 131.4054440 111.6443450
  83.8181530 130.7995410 110.4432210  85.4452620 130.2744520 113.3932250
  85.3351900 130.1200560 114.3314520  86.2060210 129.7465460 113.1507660
  86.4081380 128.8763100 109.2595100  85.6132880 128.8108220 109.7888010
  86.6124660 129.8113740 109.2480450  83.3499800 142.9154650 113.2533490
  83.9458870 142.5939220 112.5767910  83.6077950 142.4426470 114.0446760
  69.6498000 126.1752960 119.2370930  69.3012820 126.6316780 120.0029110
  69.3185700 125.2810090 119.3193360  71.2562370 139.3472560 123.4024120
  71.2132000 138.9765470 124.2838580  71.3873380 140.2850130 123.5425940
  74.9568400 140.9032150 119.0033840  74.7159760 141.1706710 118.1164360
  75.8971040 141.0737880 119.0584700  77.1622820 127.3664840 122.7590350
  77.1011710 127.9586670 123.5085760  78.1023200 127.2590800 122.6140610
  79.7997380 127.0234900 122.3982640  80.4137790 127.3414190 121.7363720
  80.3446940 126.5383490 123.0178500  86.2172560 142.9226530 119.8044480
  85.7230840 143.3195400 119.0871610  85.6085850 142.2975740 120.1981760
  70.3218640 125.7029160 122.5121700  70.8701630 125.5217210 121.7487810
  70.3873950 124.9123270 123.0478010  71.0950400 142.2934810 120.5221900
  70.5010720 142.1619510 121.2611940  71.0874240 141.4572950 120.0564000
  83.9012010 143.5649950 117.0831220  83.4414980 144.3165760 116.7089240
  83.2724470 142.8456420 117.0246020  70.7262630 139.6593190 119.4729940
  69.9996690 139.0398480 119.4055890  70.7871780 140.0533800 118.6028020
  74.3307730 141.8738190 116.2579350  74.8472750 141.2625550 115.7327610
  74.9805110 142.3766970 116.7490360  77.0703230 142.7646680 117.0848330
  77.3581040 142.5100980 116.2081340  77.5826450 142.2124040 117.6753900
  69.0092630 142.9767580 112.6826700  68.8414670 142.3438260 113.3808590
  68.1427140 143.1826980 112.3320890  83.8194040 125.9887640 109.6884220
  84.0144670 126.8871090 109.9551650  83.0323910 125.7574720 110.1817170
  70.6155330 141.6700810 110.1276840  70.0902950 142.0508840 109.4238800
  70.5399910 142.2951580 110.8486550  77.1375590 143.6862780 124.4516530
  78.0642900 143.4507050 124.4952490  77.1226020 144.5134780 123.9702560
  85.3720650 143.2288350 111.4490780  85.5472840 142.5426090 110.8051700
  84.6742220 143.7535400 111.0567450  74.3239200 126.3507530 124.2158410
  74.0423470 126.8541130 123.4519230  74.7058900 125.5529280 123.8500540
  73.2148300 143.6183190 109.0026090  73.9467120 143.3342470 108.4549980
  73.4741970 143.3796470 109.8925470  72.3763090 139.7347920 109.0072420
  71.7471970 140.2033020 109.5558250  72.4910920 138.8897140 109.4418610
  80.9254660 125.7661110 124.7938880  80.8120110 126.0855720 125.6890400
  81.7424400 126.1673620 124.4976160  83.7053150 142.9132640 124.2757570
  84.4978470 142.4181870 124.0683530  83.9986300 143.5922780 124.8833180
  77.9630850 135.5632600  97.0382890  77.1872950 135.0833040  97.3281460
  78.6143780 134.8838250  96.8639050  71.9796680 135.8752410  97.9158650
  71.1481560 135.6201120  98.3155160  72.5877660 135.9463180  98.6516570
  81.9838280 139.9692790  95.8182020  81.5219810 139.1980030  96.1469190
  82.7963830 139.9958860  96.3234470  71.9597940 139.9092500  98.1116670
  72.2625980 139.0190240  97.9326890  72.7041530 140.4662720  97.8838920
  68.3521640 133.4359950  97.5840740  68.9237750 132.6682150  97.5844380
  68.3523180 133.7348710  96.6747350  78.2101590 142.2550800  95.4386010
  77.5913030 142.7108300  94.8680450  79.0653370 142.4102260  95.0375710
  77.4039840 138.2389790  97.0453050  77.3348120 137.2979730  96.8842180
  78.1659700 138.3291200  97.6175620  69.5946510 128.8444310  99.3709670
  69.4149350 127.9470060  99.6512430  69.1926590 129.3916180 100.0456620
  70.2133180 131.3404810  97.9792010  70.8943290 131.6043180  98.5979410
  69.8981230 130.5005680  98.3130020  74.4057750 132.3872170  97.0664600
  74.9135970 132.8853140  97.7069620  74.9370990 131.6107370  96.8903960
  79.0764940 137.1390040  92.8317920  78.4582210 137.6039490  92.2680640
  79.5888190 137.8317520  93.2487430  73.9396700 136.6665910  99.5101520
  73.6066080 137.2934830 100.1522590  74.1163380 137.1927790  98.7303190
  73.1515800 138.6346710 101.3250700  73.7689800 139.3097790 101.0435150
  72.2908920 139.0434690 101.2338200  68.4448140 137.8246570  90.2057550
  68.0676120 138.3133670  89.4742450  68.7021210 138.4971850  90.8364080
  84.0693390 140.0986120  99.2405340  83.3856910 140.7685230  99.2322010
  84.6087680 140.2966770  98.4750200  81.6052130 141.9430250  97.9550520
  81.6179290 141.5392540  97.0872780  81.0527350 142.7177540  97.8511950
  82.8997550 138.6646470  93.0440690  82.7893880 137.7220800  93.1690110
  82.8965800 139.0262110  93.9303450  78.4417830 134.2911790  92.4003180
  77.5147110 134.2249170  92.6291650  78.5942650 135.2291920  92.2858420
  82.4715120 135.8532090  92.9038430  81.8527540 135.5151640  92.2564730
  82.4539570 135.2091850  93.6117620  74.0474470 134.8176530  95.1822910
  73.6431470 134.1053780  94.6868810  74.1337590 134.4729770  96.0710950
  74.5156170 138.5044090  97.3462120  74.2184460 137.8989560  96.6669900
  75.4655990 138.5421400  97.2351480  72.7603090 131.5919740  98.9621950
  73.3117680 131.7015080  98.1875200  73.2746600 131.9657340  99.6777180
  82.6041780 142.0775960 101.0085220  82.1272340 142.8848150 100.8157830
  81.9203570 141.4254290 101.1611430  73.6074600 138.2425780 103.9969920
  72.7103130 138.4665750 104.2443320  73.6327470 138.3660720 103.0481320
  72.4345820 135.1139100 102.5727290  72.2953590 135.9861900 102.9414690
  71.5527180 134.7711910 102.4275230  78.7575200 140.0314970  93.8792420
  79.1971110 140.7739300  93.4647810  78.6962090 140.2741540  94.8031380
  74.2326170 141.0560800 104.7812440  74.2041600 141.4603750 103.9140870
  74.0691140 140.1271160 104.6184040  84.2296960 126.3461710  88.2252220
  83.9169620 126.4388540  89.1251290  84.9909430 126.9242740  88.1749650
  70.7479100 133.7121510  92.6829560  70.6276700 134.4383600  92.0710830
  70.4379990 132.9424420  92.2057470  86.1840990 141.8387900 106.0776610
  86.6600710 142.3170790 106.7565690  86.8048150 141.7705390 105.3522110
  68.3864470 136.8836650  98.4898200  68.4644890 137.0185420  97.5453920
  69.0006150 136.1752540  98.6826320  69.6312100 138.5836840  94.9004380
  69.2240180 138.7251430  94.0457980  70.5225110 138.2997000  94.6975590
  79.4490980 142.7328750 101.8071430  79.9635650 142.6436760 102.6093860
  78.6060060 143.0788450 102.0999340  81.4245380 143.0184090  91.2355430
  81.2646520 142.7287030  92.1337260  81.2592090 142.2424220  90.7000660
  73.9033760 142.7982620  93.0127050  73.7276240 141.8818160  92.7994850
  73.0489500 143.1569910  93.2524850  80.6921440 142.1534360  93.8701920
  81.1478390 141.3723740  94.1840540  81.0313960 142.8641180  94.4143100
  68.4423990 137.9250820 101.0292660  68.6055030 137.4556180 100.2112030
  68.9076440 137.4174380 101.6941500  82.5017080 131.1434050 102.7985210
  81.6510670 130.8439800 103.1194280  82.3418870 131.3876060 101.8869030
  79.5966790 132.6435800 104.8984000  79.9220200 131.8099550 104.5586230
  80.3847120 133.1664320 105.0462330  73.0056980 132.1790150  93.7934480
  72.7797900 131.9627320  94.6981100  72.2249510 132.6118610  93.4480450
  75.4456190 133.0775730 104.4594750  75.3499790 132.1370460 104.3095150
  76.2888170 133.2990800 104.0642820  70.5766730 129.4889400 102.6128530
  70.1830120 130.3364610 102.8201310  69.8885130 128.8515770 102.8037170
  77.1511780 129.5724370 105.6825270  76.4610100 129.3796570 106.3171360
  77.8944080 129.8559010 106.2149570  68.0654010 131.3537980  87.8561330
  67.9828680 132.2968740  87.9976320  67.7137070 131.2112890  86.9773680
  71.7154520 129.9703500  95.8825890  71.3754570 130.4478730  96.6392940
  70.9531840 129.5168620  95.5226990  70.0162970 137.3002250 103.1888470
  69.6317760 136.6595920 103.7871430  70.3275160 138.0038370 103.7583200
  76.1660110 134.1478790  98.6697090  76.5330240 133.6737360  99.4158430
  75.9765170 135.0220360  99.0105430  73.9559480 133.1887430 100.9881300
  73.6516550 134.0679410 101.2131660  74.9105940 133.2487220 101.0238740
  72.4841270 137.3948420  91.5848150  71.7103530 136.8546040  91.4246870
  73.2135900 136.8755030  91.2465910  78.6248050 136.4622840 103.2643540
  78.5585360 135.5418510 103.0101130  77.9953190 136.5598280 103.9788180
  72.5278670 137.0628800  95.2226960  73.0457340 136.2597060  95.1683850
  72.0762690 137.0007940  96.0643790  70.0123210 134.0290170 102.1352660
  69.6538150 134.6944020 102.7226000  69.7177770 133.1973720 102.5065280
  73.2136330 134.4874410 105.0192210  72.9136470 134.6331590 104.1220030
  73.9847570 133.9279700 104.9265600  78.5564780 139.2843410 103.0147340
  78.5709320 138.3524370 102.7966250  77.8489880 139.3703170 103.6537110
  84.7189100 140.3225490  92.0128080  84.0765260 139.6681110  92.2871800
  84.3319760 140.7280580  91.2368750  80.2975580 137.6510920  95.8599770
  80.6499400 137.0539050  95.2001140  79.4137910 137.3255150  96.0308020
  76.3838860 138.4108610  93.2670180  77.0709990 138.9577820  93.6477770
  75.5971280 138.9549340  93.3019790  68.5231260 134.0281430  88.7587260
  69.3926110 134.3106230  89.0423180  68.0321580 134.8417300  88.6436070
  75.6866070 135.4154640  92.8795540  76.1428850 136.2259890  93.1055730
  75.3354280 135.0977780  93.7114030  77.9898680 140.9260980 100.1087840
  78.6340900 141.1320360 100.7861260  78.3528120 140.1649380  99.6558690
  79.2630760 138.9293330  98.8265290  79.9052990 138.2286490  98.9397460
  79.7880110 139.7091770  98.6462180  81.0368380 139.7288230 102.0301350
  81.3724620 140.3154920 102.7079270  80.1168720 139.5980940 102.2599140
  68.8902510 143.2408810  89.3248890  69.2500150 143.8398150  88.6706160
  68.7494850 143.7868700  90.0983920  68.5871780 127.5183410 102.8124760
  67.8730300 127.7180330 103.4177370  69.0066820 126.7422980 103.1839560
  68.8744370 141.5063670 103.7991290  68.9835490 140.5658410 103.6586680
  68.2224930 141.7718420 103.1505020  76.8656960 139.7779560 105.1989410
  76.5453830 139.0588800 105.7435100  76.1915320 140.4534630 105.2725470
  74.9071130 140.6240010  90.1422560  74.8981230 141.3569700  89.5267070
  73.9869490 140.3771590  90.2349520  70.5077770 135.8454900  90.8869320
  69.9005720 136.5853800  90.8964620  70.9827120 135.9354260  90.0607520
  76.5348840 143.2054570  93.4995420  76.7890340 143.1675960  92.5774790
  75.5861320 143.0787900  93.4923670  84.5427000 141.2955300  96.7508190
  84.6674420 142.1186470  97.2232000  85.4092560 141.0846030  96.4032340
  72.0144530 143.3886510  96.4225320  72.7507010 142.8401970  96.6933890
  72.3985450 144.2542520  96.2831310  68.8990010 139.4560080  92.2966830
  67.9729790 139.6981220  92.2872240  69.3646440 140.2834340  92.1751580
  71.0202810 142.5732580 105.6110900  71.8215540 142.8944630 106.0246300
  70.5054630 142.2128160 106.3330810  75.1246840 142.5616820  88.2450890
  75.9175450 142.8505650  87.7932680  74.6051190 142.1308990  87.5663370
  79.8567440 138.6812450 105.5586310  79.2505600 138.7044050 104.8182060
  79.5521550 137.9495490 106.0953560  81.2867810 142.4092740 104.1695720
  82.2389560 142.3250760 104.1195960  81.1396030 143.0734450 104.8429510
  84.1777010 141.7886950  89.6687630  83.8918520 141.3752090  88.8541810
  83.9796560 142.7174660  89.5488150  68.7400620 135.0606040 104.5546950
  69.2439640 134.4813320 105.1263180  68.0008040 135.3446270 105.0923320
  75.7938560 136.4677030 104.0882470  75.0284230 137.0362030 104.0037140
  75.9754520 136.1753240 103.1950700  82.9361910 138.1982360 104.6457490
  83.6771380 138.5358120 104.1424950  82.1734590 138.3674420 104.0927260
  70.7723700 133.2035630 105.4497020  70.8129040 132.9049500 106.3582250
  71.6269200 133.6043240 105.2904540  74.5502090 135.8031180  90.6100530
  74.9718510 135.6371050  91.4531920  74.6752930 134.9931410  90.1155670
  72.7129510 131.7827730 103.4171510  72.1825970 131.2918680 102.7894850
  73.3817580 132.2111930 102.8829440  81.6107570 136.2497190 103.1812700
  82.0248590 136.4042270 104.0303120  80.6758570 136.3752410 103.3438480
  82.0829740 133.5893350 105.1851850  82.6650510 132.8345670 105.0972330
  82.2591510 134.1200790 104.4083330  73.2001810 128.7490100 103.4968800
  73.1058680 128.1310850 102.7719670  72.6199200 129.4756390 103.2698710
  76.3722800 136.2017670 101.1508630  76.7910910 137.0450400 100.9784870
  75.4531430 136.3389710 100.9215410  78.7086700 133.9333850 102.5346470
  78.8282910 133.3374990 103.2741310  79.5680700 133.9703540 102.1147770
  74.2230220 142.5070680 102.2666360  73.6851310 143.2316740 101.9475060
  74.4764180 142.0301020 101.4763700  75.4755470 130.4755200 103.7922290
  76.0655160 130.1671050 104.4800110  74.6575710 130.0034950 103.9482190
  80.9249300 126.6872640  90.0845570  81.2051590 125.8440540  90.4404990
  80.1515030 126.9195750  90.5984320  77.0792430 143.7421890 102.5253010
  77.0051130 144.6457030 102.8325380  76.1771270 143.4233790 102.4975080
  77.6277760 142.9080400  90.1479370  78.5228550 143.2465370  90.1698130
  77.6595390 142.1859810  89.5203650  71.2673920 138.2807450  88.3766370
  71.7048790 138.8237120  89.0323950  71.7521650 137.4554400  88.3862710
  68.4819720 141.0696480  95.8286630  68.8122730 140.2017540  95.5965270
  68.9110720 141.2755000  96.6591590  73.0781640 139.4005490  93.4888600
  72.7777180 139.2770460  94.3892510  72.9719130 138.5414080  93.0804330
  68.9709930 141.9367070  98.5668260  68.5340920 142.1167870  99.3992410
  69.5387610 142.6941690  98.4249980  84.6072110 141.4384070 102.8545570
  84.0074100 141.4976630 102.1109490  84.7366010 140.4989050 102.9842420
  85.3030020 135.9249370  90.6949480  86.0648930 136.4946020  90.8009170
  85.3184390 135.3576570  91.4657790  86.3089990 136.7799470  95.5391410
  86.6798820 135.9966790  95.1327380  86.9491920 137.4688570  95.3608710
  83.2923750 138.1636050 100.9521730  82.4783590 138.5933210 101.2147520
  83.6997950 138.7754460 100.3390780  85.3549190 136.2183740  87.8522000
  85.6298030 137.1262620  87.7241220  85.1659930 136.1546270  88.7883990
  69.8410290 134.8339870  99.4660480  70.2083330 134.7467270 100.3456500
  69.2721110 134.0706420  99.3667340  84.6414150 133.3024250 102.4790950
  84.4100240 133.0737000 101.5788900  84.9018700 134.2223800 102.4335840
  69.3926290 131.7448960 103.3718900  68.4982340 131.7115720 103.7112610
  69.9323840 131.9435750 104.1370150  70.5599650 130.7151770  88.7776850
  71.2691350 130.2934990  88.2924130  69.8439590 130.7827000  88.1460200
  86.3342890 128.1052440  87.8594900  87.2592200 127.9733620  87.6513190
  86.3118680 128.1845260  88.8131350  86.4081380 128.8763100  90.4851610
  85.6132880 128.8108220  91.0144520  86.6124660 129.8113740  90.4736960
  83.3499800 142.9154650  94.4790000  83.9458870 142.5939220  93.8024420
  83.6077950 142.4426470  95.2703270  69.6498000 126.1752960 100.4627440
  69.3012820 126.6316780 101.2285620  69.3185700 125.2810090 100.5449870
  71.2562370 139.3472560 104.6280630  71.2132000 138.9765470 105.5095090
  71.3873380 140.2850130 104.7682450  74.9568400 140.9032150 100.2290350
  74.7159760 141.1706710  99.3420870  75.8971040 141.0737880 100.2841210
  86.2172560 142.9226530 101.0300990  85.7230840 143.3195400 100.3128120
  85.6085850 142.2975740 101.4238270  70.3218640 125.7029160 103.7378210
  70.8701630 125.5217210 102.9744320  70.3873950 124.9123270 104.2734520
  71.0950400 142.2934810 101.7478410  70.5010720 142.1619510 102.4868450
  71.0874240 141.4572950 101.2820510  83.9012010 143.5649950  98.3087730
  83.4414980 144.3165760  97.9345750  83.2724470 142.8456420  98.2502530
  70.7262630 139.6593190 100.6986450  69.9996690 139.0398480 100.6312400
  70.7871780 140.0533800  99.8284530  74.3307730 141.8738190  97.4835860
  74.8472750 141.2625550  96.9584120  74.9805110 142.3766970  97.9746870
  77.0703230 142.7646680  98.3104840  77.3581040 142.5100980  97.4337850
  77.5826450 142.2124040  98.9010410  69.0092630 142.9767580  93.9083210
  68.8414670 142.3438260  94.6065100  68.1427140 143.1826980  93.5577400
  83.8194040 125.9887640  90.9140730  84.0144670 126.8871090  91.1808160
  83.0323910 125.7574720  91.4073680  70.6155330 141.6700810  91.3533350
  70.0902950 142.0508840  90.6495310  70.5399910 142.2951580  92.0743060
  77.1375590 143.6862780 105.6773040  78.0642900 143.4507050 105.7209000
  77.1226020 144.5134780 105.1959070  85.3720650 143.2288350  92.6747290
  85.5472840 142.5426090  92.0308210  84.6742220 143.7535400  92.2823960
  73.2148300 143.6183190  90.2282600  73.9467120 143.3342470  89.6806490
  73.4741970 143.3796470  91.1181980  72.3763090 139.7347920  90.2328930
  71.7471970 140.2033020  90.7814760  72.4910920 138.8897140  90.6675120
  83.7053150 142.9132640 105.5014080  84.4978470 142.4181870 105.2940040
  83.9986300 143.5922780 106.1089690  77.9630850 135.5632600  78.2639400
  77.1872950 135.0833040  78.5537970  78.6143780 134.8838250  78.0895560
  71.9796680 135.8752410  79.1415160  71.1481560 135.6201120  79.5411670
  72.5877660 135.9463180  79.8773080  81.9838280 139.9692790  77.0438530
  81.5219810 139.1980030  77.3725700  82.7963830 139.9958860  77.5490980
  71.9597940 139.9092500  79.3373180  72.2625980 139.0190240  79.1583400
  72.7041530 140.4662720  79.1095430  70.3888630 130.8354300  72.9257550
  69.5005330 131.1770270  72.8237430  70.6729820 130.6354620  72.0338380
  78.2101590 142.2550800  76.6642520  77.5913030 142.7108300  76.0936960
  79.0653370 142.4102260  76.2632220  77.4039840 138.2389790  78.2709560
  77.3348120 137.2979730  78.1098690  78.1659700 138.3291200  78.8432130
  74.4057750 132.3872170  78.2921110  74.9135970 132.8853140  78.9326130
  74.9370990 131.6107370  78.1160470  86.5068680 130.5577360  81.9950460
  85.8020850 130.9459070  81.4765570  86.7726600 131.2527650  82.5971390
  72.6893850 127.0270730  82.5584530  72.6912290 127.5443120  81.7530430
  71.8598160 126.5500910  82.5354460  73.9396700 136.6665910  80.7358030
  73.6066080 137.2934830  81.3779100  74.1163380 137.1927790  79.9559700
  72.3709180 128.7380690  80.5654980  72.7125990 129.5822740  80.2708850
  71.4324990 128.8864430  80.6820320  73.1515800 138.6346710  82.5507210
  73.7689800 139.3097790  82.2691660  72.2908920 139.0434690  82.4594710
  68.4448140 137.8246570  71.4314060  68.0676120 138.3133670  70.6998960
  68.7021210 138.4971850  72.0620590  81.0037570 136.8460090  80.5089640
  81.4206360 136.6320200  79.6743100  81.7277390 137.1032880  81.0798260
  84.9499670 135.2447310  80.6005880  84.1218300 135.3140400  80.1256010
  85.5450150 135.8301620  80.1321710  74.0474470 134.8176530  76.4079420
  73.6431470 134.1053780  75.9125320  74.1337590 134.4729770  77.2967460
  74.5156170 138.5044090  78.5718630  74.2184460 137.8989560  77.8926410
  75.4655990 138.5421400  78.4607990  72.7603090 131.5919740  80.1878460
  73.3117680 131.7015080  79.4131710  73.2746600 131.9657340  80.9033690
  73.6074600 138.2425780  85.2226430  72.7103130 138.4665750  85.4699830
  73.6327470 138.3660720  84.2737830  78.7575200 140.0314970  75.1048930
  79.1971110 140.7739300  74.6904320  78.6962090 140.2741540  76.0287890
  74.2326170 141.0560800  86.0068950  74.2041600 141.4603750  85.1397380
  74.0691140 140.1271160  85.8440550  70.7479100 133.7121510  73.9086070
  70.6276700 134.4383600  73.2967340  70.4379990 132.9424420  73.4313980
  68.3864470 136.8836650  79.7154710  68.4644890 137.0185420  78.7710430
  69.0006150 136.1752540  79.9082830  69.6312100 138.5836840  76.1260890
  69.2240180 138.7251430  75.2714490  70.5225110 138.2997000  75.9232100
  81.4245380 143.0184090  72.4611940  81.2646520 142.7287030  73.3593770
  81.2592090 142.2424220  71.9257170  73.9033760 142.7982620  74.2383560
  73.7276240 141.8818160  74.0251360  73.0489500 143.1569910  74.4781360
  81.1271510 140.5271650  71.0209940  80.4336670 140.5248940  70.3612220
  81.8694370 140.1030970  70.5904110  80.6921440 142.1534360  75.0958430
  81.1478390 141.3723740  75.4097050  81.0313960 142.8641180  75.6399610
  85.4398250 131.0833210  85.4282870  84.8242520 131.5912880  84.8998330
  85.1194670 130.1831540  85.3708810  68.4423990 137.9250820  82.2549170
  68.6055030 137.4556180  81.4368540  68.9076440 137.4174380  82.9198010
  77.5012570 129.9225100  82.8945060  77.0391940 130.1308120  83.7065000
  77.0990680 129.1084450  82.5915730  79.5966790 132.6435800  86.1240510
  79.9220200 131.8099550  85.7842740  80.3847120 133.1664320  86.2718840
  73.0056980 132.1790150  75.0190990  72.7797900 131.9627320  75.9237610
  72.2249510 132.6118610  74.6736960  70.5766730 129.4889400  83.8385040
  70.1830120 130.3364610  84.0457820  69.8885130 128.8515770  84.0293680
  68.0654010 131.3537980  69.0817840  67.9828680 132.2968740  69.2232830
  67.7137070 131.2112890  68.2030190  71.7154520 129.9703500  77.1082400
  71.3754570 130.4478730  77.8649450  70.9531840 129.5168620  76.7483500
  74.9393790 133.3990230  70.5378250  74.3710690 132.9508480  69.9114160
  75.6482790 133.7583010  70.0043400  83.3171410 126.2788670  84.9945020
  83.6417180 125.5478330  85.5203000  83.3527920 125.9602310  84.0926010
  70.0162970 137.3002250  84.4144980  69.6317760 136.6595920  85.0127940
  70.3275160 138.0038370  84.9839710  76.1660110 134.1478790  79.8953600
  76.5330240 133.6737360  80.6414940  75.9765170 135.0220360  80.2361940
  69.0300600 128.8922480  76.0247070  68.7447520 128.5278150  76.8625690
  68.9679460 128.1602940  75.4110210  73.9559480 133.1887430  82.2137810
  73.6516550 134.0679410  82.4388170  74.9105940 133.2487220  82.2495250
  72.4841270 137.3948420  72.8104660  71.7103530 136.8546040  72.6503380
  73.2135900 136.8755030  72.4722420  83.2429250 136.3913780  78.6031050
  83.9628370 136.8869070  78.2127160  83.0411070 135.7131670  77.9584920
  78.6248050 136.4622840  84.4900050  78.5585360 135.5418510  84.2357640
  77.9953190 136.5598280  85.2044690  72.5278670 137.0628800  76.4483470
  73.0457340 136.2597060  76.3940360  72.0762690 137.0007940  77.2900300
  77.4148170 138.3295080  71.7210770  77.7563870 139.0737310  71.2254090
  76.5860880 138.6426200  72.0835600  70.0123210 134.0290170  83.3609170
  69.6538150 134.6944020  83.9482510  69.7177770 133.1973720  83.7321790
  78.5564780 139.2843410  84.2403850  78.5709320 138.3524370  84.0222760
  77.8489880 139.3703170  84.8793620  84.7675990 135.9250750  83.5872430
  84.0424180 136.5179530  83.3901820  85.2951450 135.9174290  82.7885800
  84.7189100 140.3225490  73.2384590  84.0765260 139.6681110  73.5128310
  84.3319760 140.7280580  72.4625260  80.2975580 137.6510920  77.0856280
  80.6499400 137.0539050  76.4257650  79.4137910 137.3255150  77.2564530
  76.3838860 138.4108610  74.4926690  77.0709990 138.9577820  74.8734280
  75.5971280 138.9549340  74.5276300  68.5231260 134.0281430  69.9843770
  69.3926110 134.3106230  70.2679690  68.0321580 134.8417300  69.8692580
  75.6866070 135.4154640  74.1052050  76.1428850 136.2259890  74.3312240
  75.3354280 135.0977780  74.9370540  83.1086480 139.2141950  69.7760940
  82.8824060 138.4972390  70.3685580  82.7182680 138.9654390  68.9382690
  68.8902510 143.2408810  70.5505400  69.2500150 143.8398150  69.8962670
  68.7494850 143.7868700  71.3240430  68.5871780 127.5183410  84.0381270
  67.8730300 127.7180330  84.6433880  69.0066820 126.7422980  84.4096070
  68.8744370 141.5063670  85.0247800  68.9835490 140.5658410  84.8843190
  68.2224930 141.7718420  84.3761530  74.9071130 140.6240010  71.3679070
  74.8981230 141.3569700  70.7523580  73.9869490 140.3771590  71.4606030
  70.5077770 135.8454900  72.1125830  69.9005720 136.5853800  72.1221130
  70.9827120 135.9354260  71.2864030  77.8930730 140.6868250  70.0304260
  77.9942710 140.4832240  69.1006240  76.9932470 140.4326530  70.2352040
  75.4156620 131.2448610  74.0128160  74.7072770 131.7134950  74.4541770
  75.7001100 130.5870620  74.6473350  77.0412550 132.6645310  82.0120690
  77.5397800 133.1391130  82.6772540  77.1835500 131.7408830  82.2190720
  76.5348840 143.2054570  74.7251930  76.7890340 143.1675960  73.8031300
  75.5861320 143.0787900  74.7180180  73.6191640 129.5533690  71.3878870
  74.4682170 129.9903840  71.3219060  73.2522910 129.8653950  72.2150930
  72.5183060 135.8066050  69.8614400  73.2846330 135.6947410  70.4239830
  72.5957750 135.1104020  69.2091170  71.2129820 133.2391120  70.5447290
  71.2933410 132.2918630  70.6564690  72.1049570 133.5698000  70.6507950
  84.5427000 141.2955300  77.9764700  84.6674420 142.1186470  78.4488510
  85.4092560 141.0846030  77.6288850  72.0144530 143.3886510  77.6481830
  72.7507010 142.8401970  77.9190400  72.3985450 144.2542520  77.5087820
  68.8990010 139.4560080  73.5223340  67.9729790 139.6981220  73.5128750
  69.3646440 140.2834340  73.4008090  71.0202810 142.5732580  86.8367410
  71.8215540 142.8944630  87.2502810  70.5054630 142.2128160  87.5587320
  75.1246840 142.5616820  69.4707400  75.9175450 142.8505650  69.0189190
  74.6051190 142.1308990  68.7919880  81.2867810 142.4092740  85.3952230
  82.2389560 142.3250760  85.3452470  81.1396030 143.0734450  86.0686020
  84.1777010 141.7886950  70.8944140  83.8918520 141.3752090  70.0798320
  83.9796560 142.7174660  70.7744660  75.6424240 137.7820230  69.3349750
  75.5374880 137.1672580  70.0611130  75.4748460 137.2586120  68.5512760
  78.8826970 136.8440260  69.9391740  78.3337070 137.2909560  70.5834480
  79.5046230 136.3389510  70.4629410  74.5502090 135.8031180  71.8357040
  74.9718510 135.6371050  72.6788430  74.6752930 134.9931410  71.3412180
  77.0629730 134.8268790  69.0834140  77.5835390 134.1117810  68.7175290
  77.7098130 135.4654660  69.3834650  81.6107570 136.2497190  84.4069210
  82.0248590 136.4042270  85.2559630  80.6758570 136.3752410  84.5694990
  82.0829740 133.5893350  86.4108360  82.6650510 132.8345670  86.3228840
  82.2591510 134.1200790  85.6339840  75.9663250 127.3063340  81.7552700
  75.5180550 127.3287600  80.9098250  75.3328450 126.9082360  82.3523000
  76.3722800 136.2017670  82.3765140  76.7910910 137.0450400  82.2041380
  75.4531430 136.3389710  82.1471920  78.7086700 133.9333850  83.7602980
  78.8282910 133.3374990  84.4997820  79.5680700 133.9703540  83.3404280
  81.0474600 134.4871040  82.3365490  80.5209820 135.0113660  81.7330630
  81.3905940 135.1198430  82.9675220  73.4460990 131.8764410  68.7815200
  73.2450050 131.0131770  69.1428540  73.2753040 131.7897770  67.8436800
  74.2230220 142.5070680  83.4922870  73.6851310 143.2316740  83.1731570
  74.4764180 142.0301020  82.7020210  80.2948900 130.0921010  85.2511820
  79.6064420 129.4302550  85.1861810  81.0154920 129.6459280  85.6960280
  72.2443790 128.9765030  68.7693080  72.5469690 128.9832460  67.8612230
  72.9838380 128.6262890  69.2660740  77.0792430 143.7421890  83.7509520
  77.0051130 144.6457030  84.0581890  76.1771270 143.4233790  83.7231590
  75.4628720 127.9199650  69.7549280  75.1150720 127.2423640  69.1751730
  75.6641490 127.4589160  70.5692670  77.6277760 142.9080400  71.3735880
  78.5228550 143.2465370  71.3954640  77.6595390 142.1859810  70.7460160
  71.2673920 138.2807450  69.6022880  71.7048790 138.8237120  70.2580460
  71.7521650 137.4554400  69.6119220  68.4819720 141.0696480  77.0543140
  68.8122730 140.2017540  76.8221780  68.9110720 141.2755000  77.8848100
  73.0781640 139.4005490  74.7145110  72.7777180 139.2770460  75.6149020
  72.9719130 138.5414080  74.3060840  68.9709930 141.9367070  79.7924770
  68.5340920 142.1167870  80.6248920  69.5387610 142.6941690  79.6506490
  85.8473560 139.1801890  69.4171790  85.0166520 139.2478540  69.8879020
  86.0245390 140.0706010  69.1138650  68.8034360 134.4487300  76.1513650
  68.1483200 134.1798940  75.5073350  69.6412310 134.3391780  75.7015630
  86.3089990 136.7799470  76.7647920  86.6798820 135.9966790  76.3583890
  86.9491920 137.4688570  76.5865220  83.2923750 138.1636050  82.1778240
  82.4783590 138.5933210  82.4404030  83.6997950 138.7754460  81.5647290
  85.3549190 136.2183740  69.0778510  85.6298030 137.1262620  68.9497730
  85.1659930 136.1546270  70.0140500  84.6414150 133.3024250  83.7047460
  84.4100240 133.0737000  82.8045410  84.9018700 134.2223800  83.6592350
  69.3926290 131.7448960  84.5975410  68.4982340 131.7115720  84.9369120
  69.9323840 131.9435750  85.3626660  83.0802220 128.5280680  86.4827160
  83.9572400 128.5364080  86.8661160  83.0923060 127.7911520  85.8719510
  68.0172440 131.6586230  72.0938980  67.1136520 131.9216430  71.9190640
  68.5013060 131.9297400  71.3138940  84.5265490 132.3810220  77.3715180
  85.0502970 131.8872870  76.7405350  85.1124910 132.5160580  78.1162750
  84.7055210 132.4650090  80.8934730  83.7557920 132.4313630  81.0079720
  84.8868220 133.3750200  80.6584500  70.5599650 130.7151770  70.0033360
  71.2691350 130.2934990  69.5180640  69.8439590 130.7827000  69.3716710
  70.2073810 126.7691100  69.0436010  70.9301940 127.3100040  69.3617230
  70.4798330 126.4954520  68.1677550  69.8966000 126.0197290  78.9458630
  70.5442190 125.4694670  78.5053790  70.3167840 126.2740440  79.7674440
  85.4452620 130.2744520  75.8445270  85.3351900 130.1200560  76.7827540
  86.2060210 129.7465460  75.6020680  83.3499800 142.9154650  75.7046510
  83.9458870 142.5939220  75.0280930  83.6077950 142.4426470  76.4959780
  69.6498000 126.1752960  81.6883950  69.3012820 126.6316780  82.4542130
  69.3185700 125.2810090  81.7706380  71.2562370 139.3472560  85.8537140
  71.2132000 138.9765470  86.7351600  71.3873380 140.2850130  85.9938960
  74.9568400 140.9032150  81.4546860  74.7159760 141.1706710  80.5677380
  75.8971040 141.0737880  81.5097720  79.7997380 127.0234900  84.8495660
  80.4137790 127.3414190  84.1876740  80.3446940 126.5383490  85.4691520
  86.2172560 142.9226530  82.2557500  85.7230840 143.3195400  81.5384630
  85.6085850 142.2975740  82.6494780  70.3218640 125.7029160  84.9634720
  70.8701630 125.5217210  84.2000830  70.3873950 124.9123270  85.4991030
  71.0950400 142.2934810  82.9734920  70.5010720 142.1619510  83.7124960
  71.0874240 141.4572950  82.5077020  80.5405420 125.5867040  81.1764950
  79.6665260 125.9202150  80.9737880  80.4316170 125.1140220  82.0016820
  70.7262630 139.6593190  81.9242960  69.9996690 139.0398480  81.8568910
  70.7871780 140.0533800  81.0541040  74.3307730 141.8738190  78.7092370
  74.8472750 141.2625550  78.1840630  74.9805110 142.3766970  79.2003380
  77.0703230 142.7646680  79.5361350  77.3581040 142.5100980  78.6594360
  77.5826450 142.2124040  80.1266920  78.2880240 126.5036880  80.1157860
  77.5052030 126.9782380  80.3954620  77.9943170 125.5991710  80.0071040
  69.0092630 142.9767580  75.1339720  68.8414670 142.3438260  75.8321610
  68.1427140 143.1826980  74.7833910  69.6320650 126.8084360  72.6371580
  70.3900010 126.9213240  72.0635610  69.1697820 127.6453560  72.5915010
  80.6759440 125.5866080  76.8656960  81.2788810 126.1586290  77.3405480
  79.9352430 126.1505520  76.6430860  70.6155330 141.6700810  72.5789860
  70.0902950 142.0508840  71.8751820  70.5399910 142.2951580  73.2999570
  77.1375590 143.6862780  86.9029550  78.0642900 143.4507050  86.9465510
  77.1226020 144.5134780  86.4215580  85.3720650 143.2288350  73.9003800
  85.5472840 142.5426090  73.2564720  84.6742220 143.7535400  73.5080470
  73.2148300 143.6183190  71.4539110  73.9467120 143.3342470  70.9063000
  73.4741970 143.3796470  72.3438490  72.3763090 139.7347920  71.4585440
  71.7471970 140.2033020  72.0071270  72.4910920 138.8897140  71.8931630
  80.9254660 125.7661110  87.2451900  80.8120110 126.0855720  88.1403420
  81.7424400 126.1673620  86.9489180  81.9838280 139.9692790  58.2695040
  81.5219810 139.1980030  58.5982210  82.7963830 139.9958860  58.7747490
  71.9597940 139.9092500  60.5629690  72.2625980 139.0190240  60.3839910
  72.7041530 140.4662720  60.3351940  70.3888630 130.8354300  54.1514060
  69.5005330 131.1770270  54.0493940  70.6729820 130.6354620  53.2594890
  68.3521640 133.4359950  60.0353760  68.9237750 132.6682150  60.0357400
  68.3523180 133.7348710  59.1260370  78.2101590 142.2550800  57.8899030
  77.5913030 142.7108300  57.3193470  79.0653370 142.4102260  57.4888730
  77.4039840 138.2389790  59.4966070  77.3348120 137.2979730  59.3355200
  78.1659700 138.3291200  60.0688640  69.5946510 128.8444310  61.8222690
  69.4149350 127.9470060  62.1025450  69.1926590 129.3916180  62.4969640
  72.5650020 129.4185800  55.1852440  72.6716770 130.3189530  55.4921200
  71.6542380 129.3703770  54.8947090  82.2169130 128.5410610  56.6563340
  83.0378750 128.0507180  56.6988820  82.2503210 129.1308270  57.4095180
  86.5068680 130.5577360  63.2206970  85.8020850 130.9459070  62.7022080
  86.7726600 131.2527650  63.8227900  72.6893850 127.0270730  63.7841040
  72.6912290 127.5443120  62.9786940  71.8598160 126.5500910  63.7610970
  79.0764940 137.1390040  55.2830940  78.4582210 137.6039490  54.7193660
  79.5888190 137.8317520  55.7000450  82.4530610 130.4810990  59.4290880
  81.7486180 130.7695880  60.0093990  82.8142770 131.2911100  59.0690440
  84.0693390 140.0986120  61.6918360  83.3856910 140.7685230  61.6835030
  84.6087680 140.2966770  60.9263220  85.5217530 129.9265780  59.8200090
  84.5742440 129.9604760  59.9515520  85.8467520 130.7404730  60.2049450
  76.0537070 126.2262960  58.1156080  76.3612050 125.6709850  57.3991580
  75.1237770 126.3607420  57.9329070  81.6052130 141.9430250  60.4063540
  81.6179290 141.5392540  59.5385800  81.0527350 142.7177540  60.3024970
  82.8997550 138.6646470  55.4953710  82.7893880 137.7220800  55.6203130
  82.8965800 139.0262110  56.3816470  81.0037570 136.8460090  61.7346150
  81.4206360 136.6320200  60.8999610  81.7277390 137.1032880  62.3054770
  78.4417830 134.2911790  54.8516200  77.5147110 134.2249170  55.0804670
  78.5942650 135.2291920  54.7371440  84.9499670 135.2447310  61.8262390
  84.1218300 135.3140400  61.3512520  85.5450150 135.8301620  61.3578220
  82.4715120 135.8532090  55.3551450  81.8527540 135.5151640  54.7077750
  82.4539570 135.2091850  56.0630640  81.9141680 132.0316630  62.7717260
  81.5012860 132.8570340  63.0257250  81.1817630 131.4461670  62.5793620
  74.5156170 138.5044090  59.7975140  74.2184460 137.8989560  59.1182920
  75.4655990 138.5421400  59.6864500  82.6041780 142.0775960  63.4598240
  82.1272340 142.8848150  63.2670850  81.9203570 141.4254290  63.6124450
  73.6074600 138.2425780  66.4482940  72.7103130 138.4665750  66.6956340
  73.6327470 138.3660720  65.4994340  80.6479820 135.0918900  52.3624200
  81.0873100 134.2541330  52.2162020  81.3608240 135.7248300  52.4488340
  78.7575200 140.0314970  56.3305440  79.1971110 140.7739300  55.9160830
  78.6962090 140.2741540  57.2544400  74.2326170 141.0560800  67.2325460
  74.2041600 141.4603750  66.3653890  74.0691140 140.1271160  67.0697060
  70.7479100 133.7121510  55.1342580  70.6276700 134.4383600  54.5223850
  70.4379990 132.9424420  54.6570490  86.1840990 141.8387900  68.5289630
  86.6600710 142.3170790  69.2078710  86.8048150 141.7705390  67.8035130
  68.3864470 136.8836650  60.9411220  68.4644890 137.0185420  59.9966940
  69.0006150 136.1752540  61.1339340  85.5874240 139.0300750  65.6889640
  85.7137300 138.7912630  64.7706820  85.6295620 138.1985290  66.1611720
  79.4490980 142.7328750  64.2584450  79.9635650 142.6436760  65.0606880
  78.6060060 143.0788450  64.5512360  81.4245380 143.0184090  53.6868450
  81.2646520 142.7287030  54.5850280  81.2592090 142.2424220  53.1513680
  73.9033760 142.7982620  55.4640070  73.7276240 141.8818160  55.2507870
  73.0489500 143.1569910  55.7037870  81.1271510 140.5271650  52.2466450
  80.4336670 140.5248940  51.5868730  81.8694370 140.1030970  51.8160620
  80.6921440 142.1534360  56.3214940  81.1478390 141.3723740  56.6353560
  81.0313960 142.8641180  56.8656120  85.4398250 131.0833210  66.6539380
  84.8242520 131.5912880  66.1254840  85.1194670 130.1831540  66.5965320
  68.4423990 137.9250820  63.4805680  68.6055030 137.4556180  62.6625050
  68.9076440 137.4174380  64.1454520  73.2142760 127.0556580  58.5166250
  72.7710910 127.8366120  58.1850770  73.7727750 127.3786470  59.2237190
  77.5012570 129.9225100  64.1201570  77.0391940 130.1308120  64.9321510
  77.0990680 129.1084450  63.8172240  82.5017080 131.1434050  65.2498230
  81.6510670 130.8439800  65.5707300  82.3418870 131.3876060  64.3382050
  79.5966790 132.6435800  67.3497020  79.9220200 131.8099550  67.0099250
  80.3847120 133.1664320  67.4975350  76.3301580 126.6767280  53.3972080
  75.7055760 126.6727150  54.1225390  76.2431700 125.8098240  53.0008050
  75.2518660 127.6003910  60.3755850  75.5490990 128.5066740  60.2947870
  75.8004220 127.1122690  59.7615420  80.2354740 132.1853520  54.8438150
  79.6363630 132.9089320  54.6601770  80.7834350 132.1230300  54.0614600
  75.4456190 133.0775730  66.9107770  75.3499790 132.1370460  66.7608170
  76.2888170 133.2990800  66.5155840  70.5766730 129.4889400  65.0641550
  70.1830120 130.3364610  65.2714330  69.8885130 128.8515770  65.2550190
  77.1511780 129.5724370  68.1338290  76.4610100 129.3796570  68.7684380
  77.8944080 129.8559010  68.6662590  67.8783780 127.4117860  59.0971630
  67.5896830 127.9820720  59.8096610  68.6229540 126.9322310  59.4602860
  75.9272290 131.0889090  52.3651460  76.0485110 131.0475570  53.3137280
  75.5420800 131.9513240  52.2098190  79.8900660 128.8656490  60.3815150
  79.9073400 129.3165140  61.2257000  79.6416240 127.9662130  60.5948590
  74.9393790 133.3990230  51.7634760  74.3710690 132.9508480  51.1370670
  75.6482790 133.7583010  51.2299910  70.0162970 137.3002250  65.6401490
  69.6317760 136.6595920  66.2384450  70.3275160 138.0038370  66.2096220
  69.0300600 128.8922480  57.2503580  68.7447520 128.5278150  58.0882200
  68.9679460 128.1602940  56.6366720  83.2429250 136.3913780  59.8287560
  83.9628370 136.8869070  59.4383670  83.0411070 135.7131670  59.1841430
  78.7039190 127.7851740  53.9716950  77.8903800 127.2864910  53.8962260
  78.5101140 128.6249990  53.5553300  78.6248050 136.4622840  65.7156560
  78.5585360 135.5418510  65.4614150  77.9953190 136.5598280  66.4301200
  77.4148170 138.3295080  52.9467280  77.7563870 139.0737310  52.4510600
  76.5860880 138.6426200  53.3092110  73.2136330 134.4874410  67.4705230
  72.9136470 134.6331590  66.5733050  73.9847570 133.9279700  67.3778620
  78.5564780 139.2843410  65.4660360  78.5709320 138.3524370  65.2479270
  77.8489880 139.3703170  66.1050130  83.6901850 133.4683230  51.7358970
  83.6065570 133.8997450  50.8855410  84.4096040 133.9281580  52.1685790
  84.7675990 135.9250750  64.8128940  84.0424180 136.5179530  64.6158330
  85.2951450 135.9174290  64.0142310  84.7189100 140.3225490  54.4641100
  84.0765260 139.6681110  54.7384820  84.3319760 140.7280580  53.6881770
  80.2975580 137.6510920  58.3112790  80.6499400 137.0539050  57.6514160
  79.4137910 137.3255150  58.4821040  76.3838860 138.4108610  55.7183200
  77.0709990 138.9577820  56.0990790  75.5971280 138.9549340  55.7532810
  77.9898680 140.9260980  62.5600860  78.6340900 141.1320360  63.2374280
  78.3528120 140.1649380  62.1071710  71.5877850 125.7592290  55.8031080
  71.4592480 125.7510190  56.7516000  70.7639870 126.0975380  55.4522090
  79.2630760 138.9293330  61.2778310  79.9052990 138.2286490  61.3910480
  79.7880110 139.7091770  61.0975200  83.1086480 139.2141950  51.0017450
  82.8824060 138.4972390  51.5942090  82.7182680 138.9654390  50.1639200
  81.0368380 139.7288230  64.4814370  81.3724620 140.3154920  65.1592290
  80.1168720 139.5980940  64.7112160  68.8902510 143.2408810  51.7761910
  69.2500150 143.8398150  51.1219180  68.7494850 143.7868700  52.5496940
  82.6902730 137.1313890  52.6631610  82.4024430 137.5926580  53.4509490
  83.4854900 136.6711660  52.9315830  68.8744370 141.5063670  66.2504310
  68.9835490 140.5658410  66.1099700  68.2224930 141.7718420  65.6018040
  76.8656960 139.7779560  67.6502430  76.5453830 139.0588800  68.1948120
  76.1915320 140.4534630  67.7238490  80.0810560 130.0105720  63.0139230
  80.4491380 129.1900930  63.3418800  79.2208760 130.0707610  63.4294880
  77.8930730 140.6868250  51.2560770  77.9942710 140.4832240  50.3262750
  76.9932470 140.4326530  51.4608550  75.4156620 131.2448610  55.2384670
  74.7072770 131.7134950  55.6798280  75.7001100 130.5870620  55.8729860
  79.4472050 127.9699270  56.6780460  79.3239830 127.9885400  55.7289970
  80.3956610 128.0178210  56.7978860  76.5348840 143.2054570  55.9508440
  76.7890340 143.1675960  55.0287810  75.5861320 143.0787900  55.9436690
  73.6191640 129.5533690  52.6135380  74.4682170 129.9903840  52.5475570
  73.2522910 129.8653950  53.4407440  82.5401420 134.1246450  57.5266950
  81.5991560 134.1396680  57.7014640  82.8545490 133.3382410  57.9727250
  84.5427000 141.2955300  59.2021210  84.6674420 142.1186470  59.6745020
  85.4092560 141.0846030  58.8545360  72.0144530 143.3886510  58.8738340
  72.7507010 142.8401970  59.1446910  72.3985450 144.2542520  58.7344330
  71.0202810 142.5732580  68.0623920  71.8215540 142.8944630  68.4759320
  70.5054630 142.2128160  68.7843830  75.1246840 142.5616820  50.6963910
  75.9175450 142.8505650  50.2445700  74.6051190 142.1308990  50.0176390
  79.8567440 138.6812450  68.0099330  79.2505600 138.7044050  67.2695080
  79.5521550 137.9495490  68.5466580  81.2867810 142.4092740  66.6208740
  82.2389560 142.3250760  66.5708980  81.1396030 143.0734450  67.2942530
  84.1777010 141.7886950  52.1200650  83.8918520 141.3752090  51.3054830
  83.9796560 142.7174660  52.0001170  68.7400620 135.0606040  67.0059970
  69.2439640 134.4813320  67.5776200  68.0008040 135.3446270  67.5436340
  75.7938560 136.4677030  66.5395490  75.0284230 137.0362030  66.4550160
  75.9754520 136.1753240  65.6463720  78.8826970 136.8440260  51.1648250
  78.3337070 137.2909560  51.8090990  79.5046230 136.3389510  51.6885920
  82.9361910 138.1982360  67.0970510  83.6771380 138.5358120  66.5937970
  82.1734590 138.3674420  66.5440280  70.7723700 133.2035630  67.9010040
  70.8129040 132.9049500  68.8095270  71.6269200 133.6043240  67.7417560
  77.0629730 134.8268790  50.3090650  77.5835390 134.1117810  49.9431800
  77.7098130 135.4654660  50.6091160  81.6107570 136.2497190  65.6325720
  82.0248590 136.4042270  66.4816140  80.6758570 136.3752410  65.7951500
  82.0829740 133.5893350  67.6364870  82.6650510 132.8345670  67.5485350
  82.2591510 134.1200790  66.8596350  73.2001810 128.7490100  65.9481820
  73.1058680 128.1310850  65.2232690  72.6199200 129.4756390  65.7211730
  75.9663250 127.3063340  62.9809210  75.5180550 127.3287600  62.1354760
  75.3328450 126.9082360  63.5779510  78.7086700 133.9333850  64.9859490
  78.8282910 133.3374990  65.7254330  79.5680700 133.9703540  64.5660790
  81.0474600 134.4871040  63.5622000  80.5209820 135.0113660  62.9587140
  81.3905940 135.1198430  64.1931730  73.4460990 131.8764410  50.0071710
  73.2450050 131.0131770  50.3685050  73.2753040 131.7897770  49.0693310
  74.2230220 142.5070680  64.7179380  73.6851310 143.2316740  64.3988080
  74.4764180 142.0301020  63.9276720  75.4755470 130.4755200  66.2435310
  76.0655160 130.1671050  66.9313130  74.6575710 130.0034950  66.3995210
  80.2948900 130.0921010  66.4768330  79.6064420 129.4302550  66.4118320
  81.0154920 129.6459280  66.9216790  72.2443790 128.9765030  49.9949590
  72.5469690 128.9832460  49.0868740  72.9838380 128.6262890  50.4917250
  77.0792430 143.7421890  64.9766030  77.0051130 144.6457030  65.2838400
  76.1771270 143.4233790  64.9488100  75.4628720 127.9199650  50.9805790
  75.1150720 127.2423640  50.4008240  75.6641490 127.4589160  51.7949180
  77.6277760 142.9080400  52.5992390  78.5228550 143.2465370  52.6211150
  77.6595390 142.1859810  51.9716670  68.4819720 141.0696480  58.2799650
  68.8122730 140.2017540  58.0478290  68.9110720 141.2755000  59.1104610
  68.9709930 141.9367070  61.0181280  68.5340920 142.1167870  61.8505430
  69.5387610 142.6941690  60.8763000  84.6072110 141.4384070  65.3058590
  84.0074100 141.4976630  64.5622510  84.7366010 140.4989050  65.4355440
  85.8473560 139.1801890  50.6428300  85.0166520 139.2478540  51.1135530
  86.0245390 140.0706010  50.3395160  85.3030020 135.9249370  53.1462500
  86.0648930 136.4946020  53.2522190  85.3184390 135.3576570  53.9170810
  68.8034360 134.4487300  57.3770160  68.1483200 134.1798940  56.7329860
  69.6412310 134.3391780  56.9272140  86.3089990 136.7799470  57.9904430
  86.6798820 135.9966790  57.5840400  86.9491920 137.4688570  57.8121730
  83.2923750 138.1636050  63.4034750  82.4783590 138.5933210  63.6660540
  83.6997950 138.7754460  62.7903800  85.3549190 136.2183740  50.3035020
  85.6298030 137.1262620  50.1754240  85.1659930 136.1546270  51.2397010
  85.2514530 134.1552730  55.2964450  84.8758130 133.3880660  54.8645740
  84.5217650 134.5375430  55.7839380  84.6414150 133.3024250  64.9303970
  84.4100240 133.0737000  64.0301920  84.9018700 134.2223800  64.8848860
  84.5265490 132.3810220  58.5971690  85.0502970 131.8872870  57.9661860
  85.1124910 132.5160580  59.3419260  84.7055210 132.4650090  62.1191240
  83.7557920 132.4313630  62.2336230  84.8868220 133.3750200  61.8841010
  70.5599650 130.7151770  51.2289870  71.2691350 130.2934990  50.7437150
  69.8439590 130.7827000  50.5973220  84.0165460 131.6383570  54.5364100
  84.5124580 131.4054440  55.3212980  83.8181530 130.7995410  54.1201740
  85.4452620 130.2744520  57.0701780  85.3351900 130.1200560  58.0084050
  86.2060210 129.7465460  56.8277190  83.3499800 142.9154650  56.9303020
  83.9458870 142.5939220  56.2537440  83.6077950 142.4426470  57.7216290
  71.2562370 139.3472560  67.0793650  71.2132000 138.9765470  67.9608110
  71.3873380 140.2850130  67.2195470  74.9568400 140.9032150  62.6803370
  74.7159760 141.1706710  61.7933890  75.8971040 141.0737880  62.7354230
  77.1622820 127.3664840  66.4359880  77.1011710 127.9586670  67.1855290
  78.1023200 127.2590800  66.2910140  79.7997380 127.0234900  66.0752170
  80.4137790 127.3414190  65.4133250  80.3446940 126.5383490  66.6948030
  86.2172560 142.9226530  63.4814010  85.7230840 143.3195400  62.7641140
  85.6085850 142.2975740  63.8751290  71.0950400 142.2934810  64.1991430
  70.5010720 142.1619510  64.9381470  71.0874240 141.4572950  63.7333530
  83.9012010 143.5649950  60.7600750  83.4414980 144.3165760  60.3858770
  83.2724470 142.8456420  60.7015550  70.7262630 139.6593190  63.1499470
  69.9996690 139.0398480  63.0825420  70.7871780 140.0533800  62.2797550
  74.3307730 141.8738190  59.9348880  74.8472750 141.2625550  59.4097140
  74.9805110 142.3766970  60.4259890  77.0703230 142.7646680  60.7617860
  77.3581040 142.5100980  59.8850870  77.5826450 142.2124040  61.3523430
  78.2880240 126.5036880  61.3414370  77.5052030 126.9782380  61.6211130
  77.9943170 125.5991710  61.2327550  82.8401310 127.2059980  59.3863460
  83.2809400 127.1505080  58.5385060  82.5708900 128.1217990  59.4573640
  69.0092630 142.9767580  56.3596230  68.8414670 142.3438260  57.0578120
  68.1427140 143.1826980  56.0090420  69.6320650 126.8084360  53.8628090
  70.3900010 126.9213240  53.2892120  69.1697820 127.6453560  53.8171520
  76.1734460 128.9223630  56.8530400  75.3608970 128.5480520  56.5126280
  76.6776100 128.1668710  57.1551590  74.1983640 127.0723550  55.4575450
  73.5686380 126.3710860  55.6245580  73.6588780 127.8327680  55.2408610
  77.1375590 143.6862780  68.1286060  78.0642900 143.4507050  68.1722020
  77.1226020 144.5134780  67.6472090  85.3720650 143.2288350  55.1260310
  85.5472840 142.5426090  54.4821230  84.6742220 143.7535400  54.7336980
  74.3239200 126.3507530  67.8927940  74.0423470 126.8541130  67.1288760
  74.7058900 125.5529280  67.5270070  73.2148300 143.6183190  52.6795620
  73.9467120 143.3342470  52.1319510  73.4741970 143.3796470  53.5695000
  83.7053150 142.9132640  67.9527100  84.4978470 142.4181870  67.7453060
  83.9986300 143.5922780  68.5602710  79.8312810 133.7853580  38.8343150
  79.7506860 132.8708190  38.5634860  79.4177230 134.2820650  38.1282860
  77.9630850 135.5632600  40.7152420  77.1872950 135.0833040  41.0050990
  78.6143780 134.8838250  40.5408580  71.9796680 135.8752410  41.5928180
  71.1481560 135.6201120  41.9924690  72.5877660 135.9463180  42.3286100
  81.9838280 139.9692790  39.4951550  81.5219810 139.1980030  39.8238720
  82.7963830 139.9958860  40.0004000  71.9597940 139.9092500  41.7886200
  72.2625980 139.0190240  41.6096420  72.7041530 140.4662720  41.5608450
  70.3888630 130.8354300  35.3770570  69.5005330 131.1770270  35.2750450
  70.6729820 130.6354620  34.4851400  68.3521640 133.4359950  41.2610270
  68.9237750 132.6682150  41.2613910  68.3523180 133.7348710  40.3516880
  78.2101590 142.2550800  39.1155540  77.5913030 142.7108300  38.5449980
  79.0653370 142.4102260  38.7145240  77.4039840 138.2389790  40.7222580
  77.3348120 137.2979730  40.5611710  78.1659700 138.3291200  41.2945150
  69.5946510 128.8444310  43.0479200  69.4149350 127.9470060  43.3281960
  69.1926590 129.3916180  43.7226150  78.4345010 131.0460170  40.9491510
  78.8109830 130.1732050  40.8365180  78.3364520 131.3818870  40.0581950
  72.5650020 129.4185800  36.4108950  72.6716770 130.3189530  36.7177710
  71.6542380 129.3703770  36.1203600  70.2133180 131.3404810  41.6561540
  70.8943290 131.6043180  42.2748940  69.8981230 130.5005680  41.9899550
  74.4057750 132.3872170  40.7434130  74.9135970 132.8853140  41.3839150
  74.9370990 131.6107370  40.5673490  72.6893850 127.0270730  45.0097550
  72.6912290 127.5443120  44.2043450  71.8598160 126.5500910  44.9867480
  79.0764940 137.1390040  36.5087450  78.4582210 137.6039490  35.9450170
  79.5888190 137.8317520  36.9256960  73.9396700 136.6665910  43.1871050
  73.6066080 137.2934830  43.8292120  74.1163380 137.1927790  42.4072720
  73.1515800 138.6346710  45.0020230  73.7689800 139.3097790  44.7204680
  72.2908920 139.0434690  44.9107730  68.4448140 137.8246570  33.8827080
  68.0676120 138.3133670  33.1511980  68.7021210 138.4971850  34.5133610
  84.0693390 140.0986120  42.9174870  83.3856910 140.7685230  42.9091540
  84.6087680 140.2966770  42.1519730  85.5217530 129.9265780  41.0456600
  84.5742440 129.9604760  41.1772030  85.8467520 130.7404730  41.4305960
  76.0537070 126.2262960  39.3412590  76.3612050 125.6709850  38.6248090
  75.1237770 126.3607420  39.1585580  81.6052130 141.9430250  41.6320050
  81.6179290 141.5392540  40.7642310  81.0527350 142.7177540  41.5281480
  82.8997550 138.6646470  36.7210220  82.7893880 137.7220800  36.8459640
  82.8965800 139.0262110  37.6072980  81.0037570 136.8460090  42.9602660
  81.4206360 136.6320200  42.1256120  81.7277390 137.1032880  43.5311280
  78.4417830 134.2911790  36.0772710  77.5147110 134.2249170  36.3061180
  78.5942650 135.2291920  35.9627950  78.4286910 130.5628790  33.0739870
  77.4890580 130.7242750  33.1592330  78.7470170 131.2814470  32.5275860
  82.4715120 135.8532090  36.5807960  81.8527540 135.5151640  35.9334260
  82.4539570 135.2091850  37.2887150  74.0474470 134.8176530  38.8592440
  73.6431470 134.1053780  38.3638340  74.1337590 134.4729770  39.7480480
  74.5156170 138.5044090  41.0231650  74.2184460 137.8989560  40.3439430
  75.4655990 138.5421400  40.9121010  72.7603090 131.5919740  42.6391480
  73.3117680 131.7015080  41.8644730  73.2746600 131.9657340  43.3546710
  82.6041780 142.0775960  44.6854750  82.1272340 142.8848150  44.4927360
  81.9203570 141.4254290  44.8380960  73.6074600 138.2425780  47.6739450
  72.7103130 138.4665750  47.9212850  73.6327470 138.3660720  46.7250850
  80.6479820 135.0918900  33.5880710  81.0873100 134.2541330  33.4418530
  81.3608240 135.7248300  33.6744850  72.4345820 135.1139100  46.2496820
  72.2953590 135.9861900  46.6184220  71.5527180 134.7711910  46.1044760
  78.7575200 140.0314970  37.5561950  79.1971110 140.7739300  37.1417340
  78.6962090 140.2741540  38.4800910  74.2326170 141.0560800  48.4581970
  74.2041600 141.4603750  47.5910400  74.0691140 140.1271160  48.2953570
  84.2296960 126.3461710  31.9021750  83.9169620 126.4388540  32.8020820
  84.9909430 126.9242740  31.8519180  70.7479100 133.7121510  36.3599090
  70.6276700 134.4383600  35.7480360  70.4379990 132.9424420  35.8827000
  86.1840990 141.8387900  49.7546140  86.6600710 142.3170790  50.4335220
  86.8048150 141.7705390  49.0291640  68.3864470 136.8836650  42.1667730
  68.4644890 137.0185420  41.2223450  69.0006150 136.1752540  42.3595850
  69.6312100 138.5836840  38.5773910  69.2240180 138.7251430  37.7227510
  70.5225110 138.2997000  38.3745120  85.5874240 139.0300750  46.9146150
  85.7137300 138.7912630  45.9963330  85.6295620 138.1985290  47.3868230
  79.4490980 142.7328750  45.4840960  79.9635650 142.6436760  46.2863390
  78.6060060 143.0788450  45.7768870  81.4245380 143.0184090  34.9124960
  81.2646520 142.7287030  35.8106790  81.2592090 142.2424220  34.3770190
  73.9033760 142.7982620  36.6896580  73.7276240 141.8818160  36.4764380
  73.0489500 143.1569910  36.9294380  81.1271510 140.5271650  33.4722960
  80.4336670 140.5248940  32.8125240  81.8694370 140.1030970  33.0417130
  80.6921440 142.1534360  37.5471450  81.1478390 141.3723740  37.8610070
  81.0313960 142.8641180  38.0912630  68.4423990 137.9250820  44.7062190
  68.6055030 137.4556180  43.8881560  68.9076440 137.4174380  45.3711030
  76.3301580 126.6767280  34.6228590  75.7055760 126.6727150  35.3481900
  76.2431700 125.8098240  34.2264560  73.0056980 132.1790150  37.4704010
  72.7797900 131.9627320  38.3750630  72.2249510 132.6118610  37.1249980
  80.2354740 132.1853520  36.0694660  79.6363630 132.9089320  35.8858280
  80.7834350 132.1230300  35.2871110  75.4456190 133.0775730  48.1364280
  75.3499790 132.1370460  47.9864680  76.2888170 133.2990800  47.7412350
  78.8419610 130.8217060  38.0997940  79.2349180 131.1389260  37.2866630
  79.2036460 129.9428940  38.2142460  70.5766730 129.4889400  46.2898060
  70.1830120 130.3364610  46.4970840  69.8885130 128.8515770  46.4806700
  67.8783780 127.4117860  40.3228140  67.5896830 127.9820720  41.0353120
  68.6229540 126.9322310  40.6859370  68.0654010 131.3537980  31.5330860
  67.9828680 132.2968740  31.6745850  67.7137070 131.2112890  30.6543210
  79.4274750 133.4122810  42.1948720  78.6955870 133.9209620  42.5438820
  79.0299090 132.5952790  41.8937500  75.8652140 130.0877010  40.6001210
  75.8688200 129.6466960  39.7505750  76.7603260 130.4094340  40.7073030
  71.7154520 129.9703500  39.5595420  71.3754570 130.4478730  40.3162470
  70.9531840 129.5168620  39.1996520  75.9272290 131.0889090  33.5907970
  76.0485110 131.0475570  34.5393790  75.5420800 131.9513240  33.4354700
  74.9393790 133.3990230  32.9891270  74.3710690 132.9508480  32.3627180
  75.6482790 133.7583010  32.4556420  70.0162970 137.3002250  46.8658000
  69.6317760 136.6595920  47.4640960  70.3275160 138.0038370  47.4352730
  76.1660110 134.1478790  42.3466620  76.5330240 133.6737360  43.0927960
  75.9765170 135.0220360  42.6874960  73.9559480 133.1887430  44.6650830
  73.6516550 134.0679410  44.8901190  74.9105940 133.2487220  44.7008270
  72.4841270 137.3948420  35.2617680  71.7103530 136.8546040  35.1016400
  73.2135900 136.8755030  34.9235440  83.2429250 136.3913780  41.0544070
  83.9628370 136.8869070  40.6640180  83.0411070 135.7131670  40.4097940
  78.7039190 127.7851740  35.1973460  77.8903800 127.2864910  35.1218770
  78.5101140 128.6249990  34.7809810  78.6248050 136.4622840  46.9413070
  78.5585360 135.5418510  46.6870660  77.9953190 136.5598280  47.6557710
  81.4187580 132.1571390  33.4935620  82.3067200 132.4688620  33.3186960
  81.3892670 131.2843640  33.1016200  72.5278670 137.0628800  38.8996490
  73.0457340 136.2597060  38.8453380  72.0762690 137.0007940  39.7413320
  77.4148170 138.3295080  34.1723790  77.7563870 139.0737310  33.6767110
  76.5860880 138.6426200  34.5348620  70.0123210 134.0290170  45.8122190
  69.6538150 134.6944020  46.3995530  69.7177770 133.1973720  46.1834810
  73.2136330 134.4874410  48.6961740  72.9136470 134.6331590  47.7989560
  73.9847570 133.9279700  48.6035130  78.5564780 139.2843410  46.6916870
  78.5709320 138.3524370  46.4735780  77.8489880 139.3703170  47.3306640
  83.6901850 133.4683230  32.9615480  83.6065570 133.8997450  32.1111920
  84.4096040 133.9281580  33.3942300  84.7189100 140.3225490  35.6897610
  84.0765260 139.6681110  35.9641330  84.3319760 140.7280580  34.9138280
  80.2975580 137.6510920  39.5369300  80.6499400 137.0539050  38.8770670
  79.4137910 137.3255150  39.7077550  76.3838860 138.4108610  36.9439710
  77.0709990 138.9577820  37.3247300  75.5971280 138.9549340  36.9789320
  68.5231260 134.0281430  32.4356790  69.3926110 134.3106230  32.7192710
  68.0321580 134.8417300  32.3205600  75.6866070 135.4154640  36.5565070
  76.1428850 136.2259890  36.7825260  75.3354280 135.0977780  37.3883560
  77.9898680 140.9260980  43.7857370  78.6340900 141.1320360  44.4630790
  78.3528120 140.1649380  43.3328220  79.2630760 138.9293330  42.5034820
  79.9052990 138.2286490  42.6166990  79.7880110 139.7091770  42.3231710
  83.1086480 139.2141950  32.2273960  82.8824060 138.4972390  32.8198600
  82.7182680 138.9654390  31.3895710  81.0368380 139.7288230  45.7070880
  81.3724620 140.3154920  46.3848800  80.1168720 139.5980940  45.9368670
  68.8902510 143.2408810  33.0018420  69.2500150 143.8398150  32.3475690
  68.7494850 143.7868700  33.7753450  68.5871780 127.5183410  46.4894290
  67.8730300 127.7180330  47.0946900  69.0066820 126.7422980  46.8609090
  82.6902730 137.1313890  33.8888120  82.4024430 137.5926580  34.6766000
  83.4854900 136.6711660  34.1572340  68.8744370 141.5063670  47.4760820
  68.9835490 140.5658410  47.3356210  68.2224930 141.7718420  46.8274550
  76.8656960 139.7779560  48.8758940  76.5453830 139.0588800  49.4204630
  76.1915320 140.4534630  48.9495000  74.9071130 140.6240010  33.8192090
  74.8981230 141.3569700  33.2036600  73.9869490 140.3771590  33.9119050
  70.5077770 135.8454900  34.5638850  69.9005720 136.5853800  34.5734150
  70.9827120 135.9354260  33.7377050  77.8930730 140.6868250  32.4817280
  77.9942710 140.4832240  31.5519260  76.9932470 140.4326530  32.6865060
  75.4156620 131.2448610  36.4641180  74.7072770 131.7134950  36.9054790
  75.7001100 130.5870620  37.0986370  77.0412550 132.6645310  44.4633710
  77.5397800 133.1391130  45.1285560  77.1835500 131.7408830  44.6703740
  79.4472050 127.9699270  37.9036970  79.3239830 127.9885400  36.9546480
  80.3956610 128.0178210  38.0235370  76.5348840 143.2054570  37.1764950
  76.7890340 143.1675960  36.2544320  75.5861320 143.0787900  37.1693200
  73.6191640 129.5533690  33.8391890  74.4682170 129.9903840  33.7732080
  73.2522910 129.8653950  34.6663950  82.5401420 134.1246450  38.7523460
  81.5991560 134.1396680  38.9271150  82.8545490 133.3382410  39.1983760
  72.5183060 135.8066050  32.3127420  73.2846330 135.6947410  32.8752850
  72.5957750 135.1104020  31.6604190  71.2129820 133.2391120  32.9960310
  71.2933410 132.2918630  33.1077710  72.1049570 133.5698000  33.1020970
  84.5427000 141.2955300  40.4277720  84.6674420 142.1186470  40.9001530
  85.4092560 141.0846030  40.0801870  72.0144530 143.3886510  40.0994850
  72.7507010 142.8401970  40.3703420  72.3985450 144.2542520  39.9600840
  68.8990010 139.4560080  35.9736360  67.9729790 139.6981220  35.9641770
  69.3646440 140.2834340  35.8521110  71.0202810 142.5732580  49.2880430
  71.8215540 142.8944630  49.7015830  70.5054630 142.2128160  50.0100340
  75.1246840 142.5616820  31.9220420  75.9175450 142.8505650  31.4702210
  74.6051190 142.1308990  31.2432900  79.8567440 138.6812450  49.2355840
  79.2505600 138.7044050  48.4951590  79.5521550 137.9495490  49.7723090
  81.2867810 142.4092740  47.8465250  82.2389560 142.3250760  47.7965490
  81.1396030 143.0734450  48.5199040  84.1777010 141.7886950  33.3457160
  83.8918520 141.3752090  32.5311340  83.9796560 142.7174660  33.2257680
  75.6424240 137.7820230  31.7862770  75.5374880 137.1672580  32.5124150
  75.4748460 137.2586120  31.0025780  75.7938560 136.4677030  47.7652000
  75.0284230 137.0362030  47.6806670  75.9754520 136.1753240  46.8720230
  78.8826970 136.8440260  32.3904760  78.3337070 137.2909560  33.0347500
  79.5046230 136.3389510  32.9142430  82.9361910 138.1982360  48.3227020
  83.6771380 138.5358120  47.8194480  82.1734590 138.3674420  47.7696790
  70.7723700 133.2035630  49.1266550  70.8129040 132.9049500  50.0351780
  71.6269200 133.6043240  48.9674070  74.5502090 135.8031180  34.2870060
  74.9718510 135.6371050  35.1301450  74.6752930 134.9931410  33.7925200
  72.7129510 131.7827730  47.0941040  72.1825970 131.2918680  46.4664380
  73.3817580 132.2111930  46.5598970  77.0629730 134.8268790  31.5347160
  77.5835390 134.1117810  31.1688310  77.7098130 135.4654660  31.8347670
  81.6107570 136.2497190  46.8582230  82.0248590 136.4042270  47.7072650
  80.6758570 136.3752410  47.0208010  73.2001810 128.7490100  47.1738330
  73.1058680 128.1310850  46.4489200  72.6199200 129.4756390  46.9468240
  76.3722800 136.2017670  44.8278160  76.7910910 137.0450400  44.6554400
  75.4531430 136.3389710  44.5984940  78.7086700 133.9333850  46.2116000
  78.8282910 133.3374990  46.9510840  79.5680700 133.9703540  45.7917300
  81.0474600 134.4871040  44.7878510  80.5209820 135.0113660  44.1843650
  81.3905940 135.1198430  45.4188240  73.4460990 131.8764410  31.2328220
  73.2450050 131.0131770  31.5941560  73.2753040 131.7897770  30.2949820
  74.2230220 142.5070680  45.9435890  73.6851310 143.2316740  45.6244590
  74.4764180 142.0301020  45.1533230  75.4755470 130.4755200  47.4691820
  76.0655160 130.1671050  48.1569640  74.6575710 130.0034950  47.6251720
  80.9249300 126.6872640  33.7615100  81.2051590 125.8440540  34.1174520
  80.1515030 126.9195750  34.2753850  72.2443790 128.9765030  31.2206100
  72.5469690 128.9832460  30.3125250  72.9838380 128.6262890  31.7173760
  77.0792430 143.7421890  46.2022540  77.0051130 144.6457030  46.5094910
  76.1771270 143.4233790  46.1744610  75.4628720 127.9199650  32.2062300
  75.1150720 127.2423640  31.6264750  75.6641490 127.4589160  33.0205690
  77.6277760 142.9080400  33.8248900  78.5228550 143.2465370  33.8467660
  77.6595390 142.1859810  33.1973180  71.2673920 138.2807450  32.0535900
  71.7048790 138.8237120  32.7093480  71.7521650 137.4554400  32.0632240
  68.4819720 141.0696480  39.5056160  68.8122730 140.2017540  39.2734800
  68.9110720 141.2755000  40.3361120  73.0781640 139.4005490  37.1658130
  72.7777180 139.2770460  38.0662040  72.9719130 138.5414080  36.7573860
  68.9709930 141.9367070  42.2437790  68.5340920 142.1167870  43.0761940
  69.5387610 142.6941690  42.1019510  84.6072110 141.4384070  46.5315100
  84.0074100 141.4976630  45.7879020  84.7366010 140.4989050  46.6611950
  85.8473560 139.1801890  31.8684810  85.0166520 139.2478540  32.3392040
  86.0245390 140.0706010  31.5651670  85.3030020 135.9249370  34.3719010
  86.0648930 136.4946020  34.4778700  85.3184390 135.3576570  35.1427320
  68.8034360 134.4487300  38.6026670  68.1483200 134.1798940  37.9586370
  69.6412310 134.3391780  38.1528650  86.3089990 136.7799470  39.2160940
  86.6798820 135.9966790  38.8096910  86.9491920 137.4688570  39.0378240
  83.2923750 138.1636050  44.6291260  82.4783590 138.5933210  44.8917050
  83.6997950 138.7754460  44.0160310  85.3549190 136.2183740  31.5291530
  85.6298030 137.1262620  31.4010750  85.1659930 136.1546270  32.4653520
  81.7524800 129.2428590  32.8245160  82.1709680 129.0559570  31.9841820
  81.4460860 128.3907640  33.1348090  85.2514530 134.1552730  36.5220960
  84.8758130 133.3880660  36.0902250  84.5217650 134.5375430  37.0095890
  69.8410290 134.8339870  43.1430010  70.2083330 134.7467270  44.0226030
  69.2721110 134.0706420  43.0436870  69.3926290 131.7448960  47.0488430
  68.4982340 131.7115720  47.3882140  69.9323840 131.9435750  47.8139680
  68.0172440 131.6586230  34.5452000  67.1136520 131.9216430  34.3703660
  68.5013060 131.9297400  33.7651960  84.5265490 132.3810220  39.8228200
  85.0502970 131.8872870  39.1918370  85.1124910 132.5160580  40.5675770
  70.5599650 130.7151770  32.4546380  71.2691350 130.2934990  31.9693660
  69.8439590 130.7827000  31.8229730  84.0165460 131.6383570  35.7620610
  84.5124580 131.4054440  36.5469490  83.8181530 130.7995410  35.3458250
  86.3342890 128.1052440  31.5364430  87.2592200 127.9733620  31.3282720
  86.3118680 128.1845260  32.4900880  83.3499800 142.9154650  38.1559530
  83.9458870 142.5939220  37.4793950  83.6077950 142.4426470  38.9472800
  69.6498000 126.1752960  44.1396970  69.3012820 126.6316780  44.9055150
  69.3185700 125.2810090  44.2219400  71.2562370 139.3472560  48.3050160
  71.2132000 138.9765470  49.1864620  71.3873380 140.2850130  48.4451980
  74.9568400 140.9032150  43.9059880  74.7159760 141.1706710  43.0190400
  75.8971040 141.0737880  43.9610740  86.2172560 142.9226530  44.7070520
  85.7230840 143.3195400  43.9897650  85.6085850 142.2975740  45.1007800
  70.3218640 125.7029160  47.4147740  70.8701630 125.5217210  46.6513850
  70.3873950 124.9123270  47.9504050  71.0950400 142.2934810  45.4247940
  70.5010720 142.1619510  46.1637980  71.0874240 141.4572950  44.9590040
  83.9012010 143.5649950  41.9857260  83.4414980 144.3165760  41.6115280
  83.2724470 142.8456420  41.9272060  70.7262630 139.6593190  44.3755980
  69.9996690 139.0398480  44.3081930  70.7871780 140.0533800  43.5054060
  74.3307730 141.8738190  41.1605390  74.8472750 141.2625550  40.6353650
  74.9805110 142.3766970  41.6516400  77.0703230 142.7646680  41.9874370
  77.3581040 142.5100980  41.1107380  77.5826450 142.2124040  42.5779940
  69.0092630 142.9767580  37.5852740  68.8414670 142.3438260  38.2834630
  68.1427140 143.1826980  37.2346930  76.1734460 128.9223630  38.0786910
  75.3608970 128.5480520  37.7382790  76.6776100 128.1668710  38.3808100
  80.6759440 125.5866080  39.3169980  81.2788810 126.1586290  39.7918500
  79.9352430 126.1505520  39.0943880  70.6155330 141.6700810  35.0302880
  70.0902950 142.0508840  34.3264840  70.5399910 142.2951580  35.7512590
  77.1375590 143.6862780  49.3542570  78.0642900 143.4507050  49.3978530
  77.1226020 144.5134780  48.8728600  85.3720650 143.2288350  36.3516820
  85.5472840 142.5426090  35.7077740  84.6742220 143.7535400  35.9593490
  73.2148300 143.6183190  33.9052130  73.9467120 143.3342470  33.3576020
  73.4741970 143.3796470  34.7951510  72.3763090 139.7347920  33.9098460
  71.7471970 140.2033020  34.4584290  72.4910920 138.8897140  34.3444650
  83.7053150 142.9132640  49.1783610  84.4978470 142.4181870  48.9709570
  83.9986300 143.5922780  49.7859220  79.8312810 133.7853580  20.0599660
  79.7506860 132.8708190  19.7891370  79.4177230 134.2820650  19.3539370
  77.9630850 135.5632600  21.9408930  77.1872950 135.0833040  22.2307500
  78.6143780 134.8838250  21.7665090  71.9796680 135.8752410  22.8184690
  71.1481560 135.6201120  23.2181200  72.5877660 135.9463180  23.5542610
  81.9838280 139.9692790  20.7208060  81.5219810 139.1980030  21.0495230
  82.7963830 139.9958860  21.2260510  71.9597940 139.9092500  23.0142710
  72.2625980 139.0190240  22.8352930  72.7041530 140.4662720  22.7864960
  70.3888630 130.8354300  16.6027080  69.5005330 131.1770270  16.5006960
  70.6729820 130.6354620  15.7107910  68.3521640 133.4359950  22.4866780
  68.9237750 132.6682150  22.4870420  68.3523180 133.7348710  21.5773390
  78.2101590 142.2550800  20.3412050  77.5913030 142.7108300  19.7706490
  79.0653370 142.4102260  19.9401750  77.4039840 138.2389790  21.9479090
  77.3348120 137.2979730  21.7868220  78.1659700 138.3291200  22.5201660
  69.5946510 128.8444310  24.2735710  69.4149350 127.9470060  24.5538470
  69.1926590 129.3916180  24.9482660  78.4345010 131.0460170  22.1748020
  78.8109830 130.1732050  22.0621690  78.3364520 131.3818870  21.2838460
  72.5650020 129.4185800  17.6365460  72.6716770 130.3189530  17.9434220
  71.6542380 129.3703770  17.3460110  82.2169130 128.5410610  19.1076360
  83.0378750 128.0507180  19.1501840  82.2503210 129.1308270  19.8608200
  70.2133180 131.3404810  22.8818050  70.8943290 131.6043180  23.5005450
  69.8981230 130.5005680  23.2156060  74.4057750 132.3872170  21.9690640
  74.9135970 132.8853140  22.6095660  74.9370990 131.6107370  21.7930000
  86.5068680 130.5577360  25.6719990  85.8020850 130.9459070  25.1535100
  86.7726600 131.2527650  26.2740920  72.6893850 127.0270730  26.2354060
  72.6912290 127.5443120  25.4299960  71.8598160 126.5500910  26.2123990
  79.0764940 137.1390040  17.7343960  78.4582210 137.6039490  17.1706680
  79.5888190 137.8317520  18.1513470  73.9396700 136.6665910  24.4127560
  73.6066080 137.2934830  25.0548630  74.1163380 137.1927790  23.6329230
  82.4530610 130.4810990  21.8803900  81.7486180 130.7695880  22.4607010
  82.8142770 131.2911100  21.5203460  72.3709180 128.7380690  24.2424510
  72.7125990 129.5822740  23.9478380  71.4324990 128.8864430  24.3589850
  73.1515800 138.6346710  26.2276740  73.7689800 139.3097790  25.9461190
  72.2908920 139.0434690  26.1364240  68.4448140 137.8246570  15.1083590
  68.0676120 138.3133670  14.3768490  68.7021210 138.4971850  15.7390120
  84.0693390 140.0986120  24.1431380  83.3856910 140.7685230  24.1348050
  84.6087680 140.2966770  23.3776240  85.5217530 129.9265780  22.2713110
  84.5742440 129.9604760  22.4028540  85.8467520 130.7404730  22.6562470
  76.0537070 126.2262960  20.5669100  76.3612050 125.6709850  19.8504600
  75.1237770 126.3607420  20.3842090  81.6052130 141.9430250  22.8576560
  81.6179290 141.5392540  21.9898820  81.0527350 142.7177540  22.7537990
  82.8997550 138.6646470  17.9466730  82.7893880 137.7220800  18.0716150
  82.8965800 139.0262110  18.8329490  81.0037570 136.8460090  24.1859170
  81.4206360 136.6320200  23.3512630  81.7277390 137.1032880  24.7567790
  78.4417830 134.2911790  17.3029220  77.5147110 134.2249170  17.5317690
  78.5942650 135.2291920  17.1884460  78.4286910 130.5628790  14.2996380
  77.4890580 130.7242750  14.3848840  78.7470170 131.2814470  13.7532370
  84.9499670 135.2447310  24.2775410  84.1218300 135.3140400  23.8025540
  85.5450150 135.8301620  23.8091240  82.4715120 135.8532090  17.8064470
  81.8527540 135.5151640  17.1590770  82.4539570 135.2091850  18.5143660
  81.9141680 132.0316630  25.2230280  81.5012860 132.8570340  25.4770270
  81.1817630 131.4461670  25.0306640  74.0474470 134.8176530  20.0848950
  73.6431470 134.1053780  19.5894850  74.1337590 134.4729770  20.9736990
  74.5156170 138.5044090  22.2488160  74.2184460 137.8989560  21.5695940
  75.4655990 138.5421400  22.1377520  72.7603090 131.5919740  23.8647990
  73.3117680 131.7015080  23.0901240  73.2746600 131.9657340  24.5803220
  82.6041780 142.0775960  25.9111260  82.1272340 142.8848150  25.7183870
  81.9203570 141.4254290  26.0637470  73.6074600 138.2425780  28.8995960
  72.7103130 138.4665750  29.1469360  73.6327470 138.3660720  27.9507360
  80.6479820 135.0918900  14.8137220  81.0873100 134.2541330  14.6675040
  81.3608240 135.7248300  14.9001360  72.4345820 135.1139100  27.4753330
  72.2953590 135.9861900  27.8440730  71.5527180 134.7711910  27.3301270
  78.7575200 140.0314970  18.7818460  79.1971110 140.7739300  18.3673850
  78.6962090 140.2741540  19.7057420  74.2326170 141.0560800  29.6838480
  74.2041600 141.4603750  28.8166910  74.0691140 140.1271160  29.5210080
  84.2296960 126.3461710  13.1278260  83.9169620 126.4388540  14.0277330
  84.9909430 126.9242740  13.0775690  70.7479100 133.7121510  17.5855600
  70.6276700 134.4383600  16.9736870  70.4379990 132.9424420  17.1083510
  86.1840990 141.8387900  30.9802650  86.6600710 142.3170790  31.6591730
  86.8048150 141.7705390  30.2548150  68.3864470 136.8836650  23.3924240
  68.4644890 137.0185420  22.4479960  69.0006150 136.1752540  23.5852360
  69.6312100 138.5836840  19.8030420  69.2240180 138.7251430  18.9484020
  70.5225110 138.2997000  19.6001630  85.5874240 139.0300750  28.1402660
  85.7137300 138.7912630  27.2219840  85.6295620 138.1985290  28.6124740
  79.4490980 142.7328750  26.7097470  79.9635650 142.6436760  27.5119900
  78.6060060 143.0788450  27.0025380  81.4245380 143.0184090  16.1381470
  81.2646520 142.7287030  17.0363300  81.2592090 142.2424220  15.6026700
  73.9033760 142.7982620  17.9153090  73.7276240 141.8818160  17.7020890
  73.0489500 143.1569910  18.1550890  81.1271510 140.5271650  14.6979470
  80.4336670 140.5248940  14.0381750  81.8694370 140.1030970  14.2673640
  80.6921440 142.1534360  18.7727960  81.1478390 141.3723740  19.0866580
  81.0313960 142.8641180  19.3169140  85.4398250 131.0833210  29.1052400
  84.8242520 131.5912880  28.5767860  85.1194670 130.1831540  29.0478340
  68.4423990 137.9250820  25.9318700  68.6055030 137.4556180  25.1138070
  68.9076440 137.4174380  26.5967540  73.2142760 127.0556580  20.9679270
  72.7710910 127.8366120  20.6363790  73.7727750 127.3786470  21.6750210
  77.5012570 129.9225100  26.5714590  77.0391940 130.1308120  27.3834530
  77.0990680 129.1084450  26.2685260  82.5017080 131.1434050  27.7011250
  81.6510670 130.8439800  28.0220320  82.3418870 131.3876060  26.7895070
  79.5966790 132.6435800  29.8010040  79.9220200 131.8099550  29.4612270
  80.3847120 133.1664320  29.9488370  76.3301580 126.6767280  15.8485100
  75.7055760 126.6727150  16.5738410  76.2431700 125.8098240  15.4521070
  75.2518660 127.6003910  22.8268870  75.5490990 128.5066740  22.7460890
  75.8004220 127.1122690  22.2128440  73.0056980 132.1790150  18.6960520
  72.7797900 131.9627320  19.6007140  72.2249510 132.6118610  18.3506490
  80.2354740 132.1853520  17.2951170  79.6363630 132.9089320  17.1114790
  80.7834350 132.1230300  16.5127620  75.4456190 133.0775730  29.3620790
  75.3499790 132.1370460  29.2121190  76.2888170 133.2990800  28.9668860
  78.8419610 130.8217060  19.3254450  79.2349180 131.1389260  18.5123140
  79.2036460 129.9428940  19.4398970  70.5766730 129.4889400  27.5154570
  70.1830120 130.3364610  27.7227350  69.8885130 128.8515770  27.7063210
  77.1511780 129.5724370  30.5851310  76.4610100 129.3796570  31.2197400
  77.8944080 129.8559010  31.1175610  67.8783780 127.4117860  21.5484650
  67.5896830 127.9820720  22.2609630  68.6229540 126.9322310  21.9115880
  68.0654010 131.3537980  12.7587370  67.9828680 132.2968740  12.9002360
  67.7137070 131.2112890  11.8799720  79.4274750 133.4122810  23.4205230
  78.6955870 133.9209620  23.7695330  79.0299090 132.5952790  23.1194010
  75.8652140 130.0877010  21.8257720  75.8688200 129.6466960  20.9762260
  76.7603260 130.4094340  21.9329540  71.7154520 129.9703500  20.7851930
  71.3754570 130.4478730  21.5418980  70.9531840 129.5168620  20.4253030
  75.9272290 131.0889090  14.8164480  76.0485110 131.0475570  15.7650300
  75.5420800 131.9513240  14.6611210  79.8900660 128.8656490  22.8328170
  79.9073400 129.3165140  23.6770020  79.6416240 127.9662130  23.0461610
  74.9393790 133.3990230  14.2147780  74.3710690 132.9508480  13.5883690
  75.6482790 133.7583010  13.6812930  83.3171410 126.2788670  28.6714550
  83.6417180 125.5478330  29.1972530  83.3527920 125.9602310  27.7695540
  70.0162970 137.3002250  28.0914510  69.6317760 136.6595920  28.6897470
  70.3275160 138.0038370  28.6609240  76.1660110 134.1478790  23.5723130
  76.5330240 133.6737360  24.3184470  75.9765170 135.0220360  23.9131470
  69.0300600 128.8922480  19.7016600  68.7447520 128.5278150  20.5395220
  68.9679460 128.1602940  19.0879740  73.9559480 133.1887430  25.8907340
  73.6516550 134.0679410  26.1157700  74.9105940 133.2487220  25.9264780
  72.4841270 137.3948420  16.4874190  71.7103530 136.8546040  16.3272910
  73.2135900 136.8755030  16.1491950  83.2429250 136.3913780  22.2800580
  83.9628370 136.8869070  21.8896690  83.0411070 135.7131670  21.6354450
  78.7039190 127.7851740  16.4229970  77.8903800 127.2864910  16.3475280
  78.5101140 128.6249990  16.0066320  78.6248050 136.4622840  28.1669580
  78.5585360 135.5418510  27.9127170  77.9953190 136.5598280  28.8814220
  81.4187580 132.1571390  14.7192130  82.3067200 132.4688620  14.5443470
  81.3892670 131.2843640  14.3272710  72.5278670 137.0628800  20.1253000
  73.0457340 136.2597060  20.0709890  72.0762690 137.0007940  20.9669830
  77.4148170 138.3295080  15.3980300  77.7563870 139.0737310  14.9023620
  76.5860880 138.6426200  15.7605130  70.0123210 134.0290170  27.0378700
  69.6538150 134.6944020  27.6252040  69.7177770 133.1973720  27.4091320
  73.2136330 134.4874410  29.9218250  72.9136470 134.6331590  29.0246070
  73.9847570 133.9279700  29.8291640  78.5564780 139.2843410  27.9173380
  78.5709320 138.3524370  27.6992290  77.8489880 139.3703170  28.5563150
  83.6901850 133.4683230  14.1871990  83.6065570 133.8997450  13.3368430
  84.4096040 133.9281580  14.6198810  84.7675990 135.9250750  27.2641960
  84.0424180 136.5179530  27.0671350  85.2951450 135.9174290  26.4655330
  84.7189100 140.3225490  16.9154120  84.0765260 139.6681110  17.1897840
  84.3319760 140.7280580  16.1394790  80.2975580 137.6510920  20.7625810
  80.6499400 137.0539050  20.1027180  79.4137910 137.3255150  20.9334060
  76.3838860 138.4108610  18.1696220  77.0709990 138.9577820  18.5503810
  75.5971280 138.9549340  18.2045830  68.5231260 134.0281430  13.6613300
  69.3926110 134.3106230  13.9449220  68.0321580 134.8417300  13.5462110
  75.6866070 135.4154640  17.7821580  76.1428850 136.2259890  18.0081770
  75.3354280 135.0977780  18.6140070  77.9898680 140.9260980  25.0113880
  78.6340900 141.1320360  25.6887300  78.3528120 140.1649380  24.5584730
  71.5877850 125.7592290  18.2544100  71.4592480 125.7510190  19.2029020
  70.7639870 126.0975380  17.9035110  79.2630760 138.9293330  23.7291330
  79.9052990 138.2286490  23.8423500  79.7880110 139.7091770  23.5488220
  83.1086480 139.2141950  13.4530470  82.8824060 138.4972390  14.0455110
  82.7182680 138.9654390  12.6152220  81.0368380 139.7288230  26.9327390
  81.3724620 140.3154920  27.6105310  80.1168720 139.5980940  27.1625180
  68.8902510 143.2408810  14.2274930  69.2500150 143.8398150  13.5732200
  68.7494850 143.7868700  15.0009960  68.5871780 127.5183410  27.7150800
  67.8730300 127.7180330  28.3203410  69.0066820 126.7422980  28.0865600
  82.6902730 137.1313890  15.1144630  82.4024430 137.5926580  15.9022510
  83.4854900 136.6711660  15.3828850  68.8744370 141.5063670  28.7017330
  68.9835490 140.5658410  28.5612720  68.2224930 141.7718420  28.0531060
  76.8656960 139.7779560  30.1015450  76.5453830 139.0588800  30.6461140
  76.1915320 140.4534630  30.1751510  74.9071130 140.6240010  15.0448600
  74.8981230 141.3569700  14.4293110  73.9869490 140.3771590  15.1375560
  70.5077770 135.8454900  15.7895360  69.9005720 136.5853800  15.7990660
  70.9827120 135.9354260  14.9633560  80.0810560 130.0105720  25.4652250
  80.4491380 129.1900930  25.7931820  79.2208760 130.0707610  25.8807900
  83.4472590 128.9662660  16.2739810  82.8185750 129.0708330  15.5598040
  82.9524510 129.1859440  17.0633690  77.8930730 140.6868250  13.7073790
  77.9942710 140.4832240  12.7775770  76.9932470 140.4326530  13.9121570
  75.4156620 131.2448610  17.6897690  74.7072770 131.7134950  18.1311300
  75.7001100 130.5870620  18.3242880  77.0412550 132.6645310  25.6890220
  77.5397800 133.1391130  26.3542070  77.1835500 131.7408830  25.8960250
  79.4472050 127.9699270  19.1293480  79.3239830 127.9885400  18.1802990
  80.3956610 128.0178210  19.2491880  76.5348840 143.2054570  18.4021460
  76.7890340 143.1675960  17.4800830  75.5861320 143.0787900  18.3949710
  73.6191640 129.5533690  15.0648400  74.4682170 129.9903840  14.9988590
  73.2522910 129.8653950  15.8920460  84.2479410 128.8813270  26.5318610
  83.7453010 129.6218670  26.8712420  85.0636070 129.2697270  26.2155400
  82.5401420 134.1246450  19.9779970  81.5991560 134.1396680  20.1527660
  82.8545490 133.3382410  20.4240270  72.5183060 135.8066050  13.5383930
  73.2846330 135.6947410  14.1009360  72.5957750 135.1104020  12.8860700
  71.2129820 133.2391120  14.2216820  71.2933410 132.2918630  14.3334220
  72.1049570 133.5698000  14.3277480  84.5427000 141.2955300  21.6534230
  84.6674420 142.1186470  22.1258040  85.4092560 141.0846030  21.3058380
  72.0144530 143.3886510  21.3251360  72.7507010 142.8401970  21.5959930
  72.3985450 144.2542520  21.1857350  68.8990010 139.4560080  17.1992870
  67.9729790 139.6981220  17.1898280  69.3646440 140.2834340  17.0777620
  71.0202810 142.5732580  30.5136940  71.8215540 142.8944630  30.9272340
  70.5054630 142.2128160  31.2356850  75.1246840 142.5616820  13.1476930
  75.9175450 142.8505650  12.6958720  74.6051190 142.1308990  12.4689410
  79.8567440 138.6812450  30.4612350  79.2505600 138.7044050  29.7208100
  79.5521550 137.9495490  30.9979600  81.2867810 142.4092740  29.0721760
  82.2389560 142.3250760  29.0222000  81.1396030 143.0734450  29.7455550
  84.1777010 141.7886950  14.5713670  83.8918520 141.3752090  13.7567850
  83.9796560 142.7174660  14.4514190  68.7400620 135.0606040  29.4572990
  69.2439640 134.4813320  30.0289220  68.0008040 135.3446270  29.9949360
  75.6424240 137.7820230  13.0119280  75.5374880 137.1672580  13.7380660
  75.4748460 137.2586120  12.2282290  75.7938560 136.4677030  28.9908510
  75.0284230 137.0362030  28.9063180  75.9754520 136.1753240  28.0976740
  78.8826970 136.8440260  13.6161270  78.3337070 137.2909560  14.2604010
  79.5046230 136.3389510  14.1398940  82.9361910 138.1982360  29.5483530
  83.6771380 138.5358120  29.0450990  82.1734590 138.3674420  28.9953300
  70.7723700 133.2035630  30.3523060  70.8129040 132.9049500  31.2608290
  71.6269200 133.6043240  30.1930580  74.5502090 135.8031180  15.5126570
  74.9718510 135.6371050  16.3557960  74.6752930 134.9931410  15.0181710
  72.7129510 131.7827730  28.3197550  72.1825970 131.2918680  27.6920890
  73.3817580 132.2111930  27.7855480  77.0629730 134.8268790  12.7603670
  77.5835390 134.1117810  12.3944820  77.7098130 135.4654660  13.0604180
  81.6107570 136.2497190  28.0838740  82.0248590 136.4042270  28.9329160
  80.6758570 136.3752410  28.2464520  82.0829740 133.5893350  30.0877890
  82.6650510 132.8345670  29.9998370  82.2591510 134.1200790  29.3109370
  73.2001810 128.7490100  28.3994840  73.1058680 128.1310850  27.6745710
  72.6199200 129.4756390  28.1724750  75.9663250 127.3063340  25.4322230
  75.5180550 127.3287600  24.5867780  75.3328450 126.9082360  26.0292530
  76.3722800 136.2017670  26.0534670  76.7910910 137.0450400  25.8810910
  75.4531430 136.3389710  25.8241450  78.7086700 133.9333850  27.4372510
  78.8282910 133.3374990  28.1767350  79.5680700 133.9703540  27.0173810
  81.0474600 134.4871040  26.0135020  80.5209820 135.0113660  25.4100160
  81.3905940 135.1198430  26.6444750  73.4460990 131.8764410  12.4584730
  73.2450050 131.0131770  12.8198070  73.2753040 131.7897770  11.5206330
  74.2230220 142.5070680  27.1692400  73.6851310 143.2316740  26.8501100
  74.4764180 142.0301020  26.3789740  75.4755470 130.4755200  28.6948330
  76.0655160 130.1671050  29.3826150  74.6575710 130.0034950  28.8508230
  80.2948900 130.0921010  28.9281350  79.6064420 129.4302550  28.8631340
  81.0154920 129.6459280  29.3729810  80.9249300 126.6872640  14.9871610
  81.2051590 125.8440540  15.3431030  80.1515030 126.9195750  15.5010360
  72.2443790 128.9765030  12.4462610  72.5469690 128.9832460  11.5381760
  72.9838380 128.6262890  12.9430270  77.0792430 143.7421890  27.4279050
  77.0051130 144.6457030  27.7351420  76.1771270 143.4233790  27.4001120
  75.4628720 127.9199650  13.4318810  75.1150720 127.2423640  12.8521260
  75.6641490 127.4589160  14.2462200  77.6277760 142.9080400  15.0505410
  78.5228550 143.2465370  15.0724170  77.6595390 142.1859810  14.4229690
  71.2673920 138.2807450  13.2792410  71.7048790 138.8237120  13.9349990
  71.7521650 137.4554400  13.2888750  68.4819720 141.0696480  20.7312670
  68.8122730 140.2017540  20.4991310  68.9110720 141.2755000  21.5617630
  73.0781640 139.4005490  18.3914640  72.7777180 139.2770460  19.2918550
  72.9719130 138.5414080  17.9830370  68.9709930 141.9367070  23.4694300
  68.5340920 142.1167870  24.3018450  69.5387610 142.6941690  23.3276020
  84.6072110 141.4384070  27.7571610  84.0074100 141.4976630  27.0135530
  84.7366010 140.4989050  27.8868460  85.8473560 139.1801890  13.0941320
  85.0166520 139.2478540  13.5648550  86.0245390 140.0706010  12.7908180
  85.3030020 135.9249370  15.5975520  86.0648930 136.4946020  15.7035210
  85.3184390 135.3576570  16.3683830  68.8034360 134.4487300  19.8283180
  68.1483200 134.1798940  19.1842880  69.6412310 134.3391780  19.3785160
  86.3089990 136.7799470  20.4417450  86.6798820 135.9966790  20.0353420
  86.9491920 137.4688570  20.2634750  83.2923750 138.1636050  25.8547770
  82.4783590 138.5933210  26.1173560  83.6997950 138.7754460  25.2416820
  85.3549190 136.2183740  12.7548040  85.6298030 137.1262620  12.6267260
  85.1659930 136.1546270  13.6910030  81.7524800 129.2428590  14.0501670
  82.1709680 129.0559570  13.2098330  81.4460860 128.3907640  14.3604600
  85.2514530 134.1552730  17.7477470  84.8758130 133.3880660  17.3158760
  84.5217650 134.5375430  18.2352400  69.8410290 134.8339870  24.3686520
  70.2083330 134.7467270  25.2482540  69.2721110 134.0706420  24.2693380
  84.6414150 133.3024250  27.3816990  84.4100240 133.0737000  26.4814940
  84.9018700 134.2223800  27.3361880  69.3926290 131.7448960  28.2744940
  68.4982340 131.7115720  28.6138650  69.9323840 131.9435750  29.0396190
  83.0802220 128.5280680  30.1596690  83.9572400 128.5364080  30.5430690
  83.0923060 127.7911520  29.5489040  68.0172440 131.6586230  15.7708510
  67.1136520 131.9216430  15.5960170  68.5013060 131.9297400  14.9908470
  84.5265490 132.3810220  21.0484710  85.0502970 131.8872870  20.4174880
  85.1124910 132.5160580  21.7932280  84.7055210 132.4650090  24.5704260
  83.7557920 132.4313630  24.6849250  84.8868220 133.3750200  24.3354030
  70.5599650 130.7151770  13.6802890  71.2691350 130.2934990  13.1950170
  69.8439590 130.7827000  13.0486240  70.2073810 126.7691100  12.7205540
  70.9301940 127.3100040  13.0386760  70.4798330 126.4954520  11.8447080
  84.0165460 131.6383570  16.9877120  84.5124580 131.4054440  17.7726000
  83.8181530 130.7995410  16.5714760  69.8966000 126.0197290  22.6228160
  70.5442190 125.4694670  22.1823320  70.3167840 126.2740440  23.4443970
  85.4452620 130.2744520  19.5214800  85.3351900 130.1200560  20.4597070
  86.2060210 129.7465460  19.2790210  83.7918340 126.2138650  25.9797800
  84.4290560 126.8272790  26.3456990  83.9393230 126.2499310  25.0347030
  86.3342890 128.1052440  12.7620940  87.2592200 127.9733620  12.5539230
  86.3118680 128.1845260  13.7157390  86.4081380 128.8763100  15.3877650
  85.6132880 128.8108220  15.9170560  86.6124660 129.8113740  15.3763000
  83.3499800 142.9154650  19.3816040  83.9458870 142.5939220  18.7050460
  83.6077950 142.4426470  20.1729310  69.6498000 126.1752960  25.3653480
  69.3012820 126.6316780  26.1311660  69.3185700 125.2810090  25.4475910
  71.2562370 139.3472560  29.5306670  71.2132000 138.9765470  30.4121130
  71.3873380 140.2850130  29.6708490  74.9568400 140.9032150  25.1316390
  74.7159760 141.1706710  24.2446910  75.8971040 141.0737880  25.1867250
  77.1622820 127.3664840  28.8872900  77.1011710 127.9586670  29.6368310
  78.1023200 127.2590800  28.7423160  79.7997380 127.0234900  28.5265190
  80.4137790 127.3414190  27.8646270  80.3446940 126.5383490  29.1461050
  86.2172560 142.9226530  25.9327030  85.7230840 143.3195400  25.2154160
  85.6085850 142.2975740  26.3264310  70.3218640 125.7029160  28.6404250
  70.8701630 125.5217210  27.8770360  70.3873950 124.9123270  29.1760560
  71.0950400 142.2934810  26.6504450  70.5010720 142.1619510  27.3894490
  71.0874240 141.4572950  26.1846550  80.5405420 125.5867040  24.8534480
  79.6665260 125.9202150  24.6507410  80.4316170 125.1140220  25.6786350
  81.4477400 127.7937910  26.2376200  81.1190760 126.9789670  25.8577930
  82.3959700 127.7507720  26.1141890  83.9012010 143.5649950  23.2113770
  83.4414980 144.3165760  22.8371790  83.2724470 142.8456420  23.1528570
  70.7262630 139.6593190  25.6012490  69.9996690 139.0398480  25.5338440
  70.7871780 140.0533800  24.7310570  74.3307730 141.8738190  22.3861900
  74.8472750 141.2625550  21.8610160  74.9805110 142.3766970  22.8772910
  77.0703230 142.7646680  23.2130880  77.3581040 142.5100980  22.3363890
  77.5826450 142.2124040  23.8036450  78.2880240 126.5036880  23.7927390
  77.5052030 126.9782380  24.0724150  77.9943170 125.5991710  23.6840570
  82.8401310 127.2059980  21.8376480  83.2809400 127.1505080  20.9898080
  82.5708900 128.1217990  21.9086660  84.7039880 126.8375220  19.8485300
  84.6428280 125.8936440  19.7016320  85.4831910 126.9455310  20.3938760
  69.0092630 142.9767580  18.8109250  68.8414670 142.3438260  19.5091140
  68.1427140 143.1826980  18.4603440  69.6320650 126.8084360  16.3141110
  70.3900010 126.9213240  15.7405140  69.1697820 127.6453560  16.2684540
  76.1734460 128.9223630  19.3043420  75.3608970 128.5480520  18.9639300
  76.6776100 128.1668710  19.6064610  80.6759440 125.5866080  20.5426490
  81.2788810 126.1586290  21.0175010  79.9352430 126.1505520  20.3200390
  83.8194040 125.9887640  15.8166770  84.0144670 126.8871090  16.0834200
  83.0323910 125.7574720  16.3099720  70.6155330 141.6700810  16.2559390
  70.0902950 142.0508840  15.5521350  70.5399910 142.2951580  16.9769100
  72.0045800 127.3348410  14.8543080  72.5338560 126.5478210  14.7251030
  72.6374120 128.0139600  15.0878610  74.1983640 127.0723550  17.9088470
  73.5686380 126.3710860  18.0758600  73.6588780 127.8327680  17.6921630
  77.1375590 143.6862780  30.5799080  78.0642900 143.4507050  30.6235040
  77.1226020 144.5134780  30.0985110  85.3720650 143.2288350  17.5773330
  85.5472840 142.5426090  16.9334250  84.6742220 143.7535400  17.1850000
  74.3239200 126.3507530  30.3440960  74.0423470 126.8541130  29.5801780
  74.7058900 125.5529280  29.9783090  73.2148300 143.6183190  15.1308640
  73.9467120 143.3342470  14.5832530  73.4741970 143.3796470  16.0208020
  72.3763090 139.7347920  15.1354970  71.7471970 140.2033020  15.6840800
  72.4910920 138.8897140  15.5701160  80.9254660 125.7661110  30.9221430
  80.8120110 126.0855720  31.8172950  81.7424400 126.1673620  30.6258710
  83.7053150 142.9132640  30.4040120  84.4978470 142.4181870  30.1966080
  83.9986300 143.5922780  31.0115730  77.9630850 135.5632600   3.1665440
  77.1872950 135.0833040   3.4564010  78.6143780 134.8838250   2.9921600
  71.9796680 135.8752410   4.0441200  71.1481560 135.6201120   4.4437710
  72.5877660 135.9463180   4.7799120  81.9838280 139.9692790   1.9464570
  81.5219810 139.1980030   2.2751740  82.7963830 139.9958860   2.4517020
  71.9597940 139.9092500   4.2399220  72.2625980 139.0190240   4.0609440
  72.7041530 140.4662720   4.0121470  68.3521640 133.4359950   3.7123290
  68.9237750 132.6682150   3.7126930  68.3523180 133.7348710   2.8029900
  77.4039840 138.2389790   3.1735600  77.3348120 137.2979730   3.0124730
  78.1659700 138.3291200   3.7458170  69.5946510 128.8444310   5.4992220
  69.4149350 127.9470060   5.7794980  69.1926590 129.3916180   6.1739170
  78.4345010 131.0460170   3.4004530  78.8109830 130.1732050   3.2878200
  78.3364520 131.3818870   2.5094970  70.2133180 131.3404810   4.1074560
  70.8943290 131.6043180   4.7261960  69.8981230 130.5005680   4.4412570
  74.4057750 132.3872170   3.1947150  74.9135970 132.8853140   3.8352170
  74.9370990 131.6107370   3.0186510  86.5068680 130.5577360   6.8976500
  85.8020850 130.9459070   6.3791610  86.7726600 131.2527650   7.4997430
  72.6893850 127.0270730   7.4610570  72.6912290 127.5443120   6.6556470
  71.8598160 126.5500910   7.4380500  73.9396700 136.6665910   5.6384070
  73.6066080 137.2934830   6.2805140  74.1163380 137.1927790   4.8585740
  82.4530610 130.4810990   3.1060410  81.7486180 130.7695880   3.6863520
  82.8142770 131.2911100   2.7459970  72.3709180 128.7380690   5.4681020
  72.7125990 129.5822740   5.1734890  71.4324990 128.8864430   5.5846360
  73.1515800 138.6346710   7.4533250  73.7689800 139.3097790   7.1717700
  72.2908920 139.0434690   7.3620750  84.0693390 140.0986120   5.3687890
  83.3856910 140.7685230   5.3604560  84.6087680 140.2966770   4.6032750
  85.5217530 129.9265780   3.4969620  84.5742440 129.9604760   3.6285050
  85.8467520 130.7404730   3.8818980  81.6052130 141.9430250   4.0833070
  81.6179290 141.5392540   3.2155330  81.0527350 142.7177540   3.9794500
  81.0037570 136.8460090   5.4115680  81.4206360 136.6320200   4.5769140
  81.7277390 137.1032880   5.9824300  84.9499670 135.2447310   5.5031920
  84.1218300 135.3140400   5.0282050  85.5450150 135.8301620   5.0347750
  81.9141680 132.0316630   6.4486790  81.5012860 132.8570340   6.7026780
  81.1817630 131.4461670   6.2563150  74.5156170 138.5044090   3.4744670
  74.2184460 137.8989560   2.7952450  75.4655990 138.5421400   3.3634030
  72.7603090 131.5919740   5.0904500  73.3117680 131.7015080   4.3157750
  73.2746600 131.9657340   5.8059730  82.6041780 142.0775960   7.1367770
  82.1272340 142.8848150   6.9440380  81.9203570 141.4254290   7.2893980
  73.6074600 138.2425780  10.1252470  72.7103130 138.4665750  10.3725870
  73.6327470 138.3660720   9.1763870  72.4345820 135.1139100   8.7009840
  72.2953590 135.9861900   9.0697240  71.5527180 134.7711910   8.5557780
  74.2326170 141.0560800  10.9094990  74.2041600 141.4603750  10.0423420
  74.0691140 140.1271160  10.7466590  86.1840990 141.8387900  12.2059160
  86.6600710 142.3170790  12.8848240  86.8048150 141.7705390  11.4804660
  68.3864470 136.8836650   4.6180750  68.4644890 137.0185420   3.6736470
  69.0006150 136.1752540   4.8108870  85.5874240 139.0300750   9.3659170
  85.7137300 138.7912630   8.4476350  85.6295620 138.1985290   9.8381250
  79.4490980 142.7328750   7.9353980  79.9635650 142.6436760   8.7376410
  78.6060060 143.0788450   8.2281890  85.4398250 131.0833210  10.3308910
  84.8242520 131.5912880   9.8024370  85.1194670 130.1831540  10.2734850
  68.4423990 137.9250820   7.1575210  68.6055030 137.4556180   6.3394580
  68.9076440 137.4174380   7.8224050  73.2142760 127.0556580   2.1935780
  72.7710910 127.8366120   1.8620300  73.7727750 127.3786470   2.9006720
  77.5012570 129.9225100   7.7971100  77.0391940 130.1308120   8.6091040
  77.0990680 129.1084450   7.4941770  82.5017080 131.1434050   8.9267760
  81.6510670 130.8439800   9.2476830  82.3418870 131.3876060   8.0151580
  79.5966790 132.6435800  11.0266550  79.9220200 131.8099550  10.6868780
  80.3847120 133.1664320  11.1744880  75.2518660 127.6003910   4.0525380
  75.5490990 128.5066740   3.9717400  75.8004220 127.1122690   3.4384950
  75.4456190 133.0775730  10.5877300  75.3499790 132.1370460  10.4377700
  76.2888170 133.2990800  10.1925370  70.5766730 129.4889400   8.7411080
  70.1830120 130.3364610   8.9483860  69.8885130 128.8515770   8.9319720
  77.1511780 129.5724370  11.8107820  76.4610100 129.3796570  12.4453910
  77.8944080 129.8559010  12.3432120  67.8783780 127.4117860   2.7741160
  67.5896830 127.9820720   3.4866140  68.6229540 126.9322310   3.1372390
  79.4274750 133.4122810   4.6461740  78.6955870 133.9209620   4.9951840
  79.0299090 132.5952790   4.3450520  75.8652140 130.0877010   3.0514230
  75.8688200 129.6466960   2.2018770  76.7603260 130.4094340   3.1586050
  71.7154520 129.9703500   2.0108440  71.3754570 130.4478730   2.7675490
  70.9531840 129.5168620   1.6509540  79.8900660 128.8656490   4.0584680
  79.9073400 129.3165140   4.9026530  79.6416240 127.9662130   4.2718120
  83.3171410 126.2788670   9.8971060  83.6417180 125.5478330  10.4229040
  83.3527920 125.9602310   8.9952050  70.0162970 137.3002250   9.3171020
  69.6317760 136.6595920   9.9153980  70.3275160 138.0038370   9.8865750
  76.1660110 134.1478790   4.7979640  76.5330240 133.6737360   5.5440980
  75.9765170 135.0220360   5.1387980  73.9559480 133.1887430   7.1163850
  73.6516550 134.0679410   7.3414210  74.9105940 133.2487220   7.1521290
  83.2429250 136.3913780   3.5057090  83.9628370 136.8869070   3.1153200
  83.0411070 135.7131670   2.8610960  78.6248050 136.4622840   9.3926090
  78.5585360 135.5418510   9.1383680  77.9953190 136.5598280  10.1070730
  70.0123210 134.0290170   8.2635210  69.6538150 134.6944020   8.8508550
  69.7177770 133.1973720   8.6347830  73.2136330 134.4874410  11.1474760
  72.9136470 134.6331590  10.2502580  73.9847570 133.9279700  11.0548150
  78.5564780 139.2843410   9.1429890  78.5709320 138.3524370   8.9248800
  77.8489880 139.3703170   9.7819660  84.7675990 135.9250750   8.4898470
  84.0424180 136.5179530   8.2927860  85.2951450 135.9174290   7.6911840
  77.9898680 140.9260980   6.2370390  78.6340900 141.1320360   6.9143810
  78.3528120 140.1649380   5.7841240  79.2630760 138.9293330   4.9547840
  79.9052990 138.2286490   5.0680010  79.7880110 139.7091770   4.7744730
  81.0368380 139.7288230   8.1583900  81.3724620 140.3154920   8.8361820
  80.1168720 139.5980940   8.3881690  68.5871780 127.5183410   8.9407310
  67.8730300 127.7180330   9.5459920  69.0066820 126.7422980   9.3122110
  68.8744370 141.5063670   9.9273840  68.9835490 140.5658410   9.7869230
  68.2224930 141.7718420   9.2787570  76.8656960 139.7779560  11.3271960
  76.5453830 139.0588800  11.8717650  76.1915320 140.4534630  11.4008020
  80.0810560 130.0105720   6.6908760  80.4491380 129.1900930   7.0188330
  79.2208760 130.0707610   7.1064410  77.0412550 132.6645310   6.9146730
  77.5397800 133.1391130   7.5798580  77.1835500 131.7408830   7.1216760
  84.2479410 128.8813270   7.7575120  83.7453010 129.6218670   8.0968930
  85.0636070 129.2697270   7.4411910  84.5427000 141.2955300   2.8790740
  84.6674420 142.1186470   3.3514550  85.4092560 141.0846030   2.5314890
  72.0144530 143.3886510   2.5507870  72.7507010 142.8401970   2.8216440
  72.3985450 144.2542520   2.4113860  71.0202810 142.5732580  11.7393450
  71.8215540 142.8944630  12.1528850  70.5054630 142.2128160  12.4613360
  79.8567440 138.6812450  11.6868860  79.2505600 138.7044050  10.9464610
  79.5521550 137.9495490  12.2236110  81.2867810 142.4092740  10.2978270
  82.2389560 142.3250760  10.2478510  81.1396030 143.0734450  10.9712060
  68.7400620 135.0606040  10.6829500  69.2439640 134.4813320  11.2545730
  68.0008040 135.3446270  11.2205870  75.7938560 136.4677030  10.2165020
  75.0284230 137.0362030  10.1319690  75.9754520 136.1753240   9.3233250
  82.9361910 138.1982360  10.7740040  83.6771380 138.5358120  10.2707500
  82.1734590 138.3674420  10.2209810  70.7723700 133.2035630  11.5779570
  70.8129040 132.9049500  12.4864800  71.6269200 133.6043240  11.4187090
  72.7129510 131.7827730   9.5454060  72.1825970 131.2918680   8.9177400
  73.3817580 132.2111930   9.0111990  81.6107570 136.2497190   9.3095250
  82.0248590 136.4042270  10.1585670  80.6758570 136.3752410   9.4721030
  82.0829740 133.5893350  11.3134400  82.6650510 132.8345670  11.2254880
  82.2591510 134.1200790  10.5365880  73.2001810 128.7490100   9.6251350
  73.1058680 128.1310850   8.9002220  72.6199200 129.4756390   9.3981260
  75.9663250 127.3063340   6.6578740  75.5180550 127.3287600   5.8124290
  75.3328450 126.9082360   7.2549040  76.3722800 136.2017670   7.2791180
  76.7910910 137.0450400   7.1067420  75.4531430 136.3389710   7.0497960
  78.7086700 133.9333850   8.6629020  78.8282910 133.3374990   9.4023860
  79.5680700 133.9703540   8.2430320  81.0474600 134.4871040   7.2391530
  80.5209820 135.0113660   6.6356670  81.3905940 135.1198430   7.8701260
  74.2230220 142.5070680   8.3948910  73.6851310 143.2316740   8.0757610
  74.4764180 142.0301020   7.6046250  75.4755470 130.4755200   9.9204840
  76.0655160 130.1671050  10.6082660  74.6575710 130.0034950  10.0764740
  80.2948900 130.0921010  10.1537860  79.6064420 129.4302550  10.0887850
  81.0154920 129.6459280  10.5986320  77.0792430 143.7421890   8.6535560
  77.0051130 144.6457030   8.9607930  76.1771270 143.4233790   8.6257630
  68.4819720 141.0696480   1.9569180  68.8122730 140.2017540   1.7247820
  68.9110720 141.2755000   2.7874140  68.9709930 141.9367070   4.6950810
  68.5340920 142.1167870   5.5274960  69.5387610 142.6941690   4.5532530
  84.6072110 141.4384070   8.9828120  84.0074100 141.4976630   8.2392040
  84.7366010 140.4989050   9.1124970  83.2923750 138.1636050   7.0804280
  82.4783590 138.5933210   7.3430070  83.6997950 138.7754460   6.4673330
  69.8410290 134.8339870   5.5943030  70.2083330 134.7467270   6.4739050
  69.2721110 134.0706420   5.4949890  84.6414150 133.3024250   8.6073500
  84.4100240 133.0737000   7.7071450  84.9018700 134.2223800   8.5618390
  69.3926290 131.7448960   9.5001450  68.4982340 131.7115720   9.8395160
  69.9323840 131.9435750  10.2652700  83.0802220 128.5280680  11.3853200
  83.9572400 128.5364080  11.7687200  83.0923060 127.7911520  10.7745550
  84.5265490 132.3810220   2.2741220  85.0502970 131.8872870   1.6431390
  85.1124910 132.5160580   3.0188790  84.7055210 132.4650090   5.7960770
  83.7557920 132.4313630   5.9105760  84.8868220 133.3750200   5.5610540
  69.8966000 126.0197290   3.8484670  70.5442190 125.4694670   3.4079830
  70.3167840 126.2740440   4.6700480  83.7918340 126.2138650   7.2054310
  84.4290560 126.8272790   7.5713500  83.9393230 126.2499310   6.2603540
  69.6498000 126.1752960   6.5909990  69.3012820 126.6316780   7.3568170
  69.3185700 125.2810090   6.6732420  71.2562370 139.3472560  10.7563180
  71.2132000 138.9765470  11.6377640  71.3873380 140.2850130  10.8965000
  74.9568400 140.9032150   6.3572900  74.7159760 141.1706710   5.4703420
  75.8971040 141.0737880   6.4123760  77.1622820 127.3664840  10.1129410
  77.1011710 127.9586670  10.8624820  78.1023200 127.2590800   9.9679670
  79.7997380 127.0234900   9.7521700  80.4137790 127.3414190   9.0902780
  80.3446940 126.5383490  10.3717560  86.2172560 142.9226530   7.1583540
  85.7230840 143.3195400   6.4410670  85.6085850 142.2975740   7.5520820
  70.3218640 125.7029160   9.8660760  70.8701630 125.5217210   9.1026870
  70.3873950 124.9123270  10.4017070  71.0950400 142.2934810   7.8760960
  70.5010720 142.1619510   8.6151000  71.0874240 141.4572950   7.4103060
  80.5405420 125.5867040   6.0790990  79.6665260 125.9202150   5.8763920
  80.4316170 125.1140220   6.9042860  81.4477400 127.7937910   7.4632710
  81.1190760 126.9789670   7.0834440  82.3959700 127.7507720   7.3398400
  83.9012010 143.5649950   4.4370280  83.4414980 144.3165760   4.0628300
  83.2724470 142.8456420   4.3785080  70.7262630 139.6593190   6.8269000
  69.9996690 139.0398480   6.7594950  70.7871780 140.0533800   5.9567080
  74.3307730 141.8738190   3.6118410  74.8472750 141.2625550   3.0866670
  74.9805110 142.3766970   4.1029420  77.0703230 142.7646680   4.4387390
  77.3581040 142.5100980   3.5620400  77.5826450 142.2124040   5.0292960
  78.2880240 126.5036880   5.0183900  77.5052030 126.9782380   5.2980660
  77.9943170 125.5991710   4.9097080  82.8401310 127.2059980   3.0632990
  83.2809400 127.1505080   2.2154590  82.5708900 128.1217990   3.1343170
  80.6759440 125.5866080   1.7683000  81.2788810 126.1586290   2.2431520
  79.9352430 126.1505520   1.5456900  77.1375590 143.6862780  11.8055590
  78.0642900 143.4507050  11.8491550  77.1226020 144.5134780  11.3241620
  74.3239200 126.3507530  11.5697470  74.0423470 126.8541130  10.8058290
  74.7058900 125.5529280  11.2039600  80.9254660 125.7661110  12.1477940
  80.8120110 126.0855720  13.0429460  81.7424400 126.1673620  11.8515220
  83.7053150 142.9132640  11.6296630  84.4978470 142.4181870  11.4222590
  83.9986300 143.5922780  12.2372240  79.8312810 115.0110090 151.4804090
  79.7506860 114.0964700 151.2095800  79.4177230 115.5077160 150.7743800
  77.9630850 116.7889110 153.3613360  77.1872950 116.3089550 153.6511930
  78.6143780 116.1094760 153.1869520  81.9838280 121.1949300 152.1412490
  81.5219810 120.4236540 152.4699660  82.7963830 121.2215370 152.6464940
  71.9597940 121.1349010 154.4347140  72.2625980 120.2446750 154.2557360
  72.7041530 121.6919230 154.2069390  70.3888630 112.0610810 148.0231510
  69.5005330 112.4026780 147.9211390  70.6729820 111.8611130 147.1312340
  68.3521640 114.6616460 153.9071210  68.9237750 113.8938660 153.9074850
  68.3523180 114.9605220 152.9977820  78.2101590 123.4807310 151.7616480
  77.5913030 123.9364810 151.1910920  79.0653370 123.6358770 151.3606180
  77.4039840 119.4646300 153.3683520  77.3348120 118.5236240 153.2072650
  78.1659700 119.5547710 153.9406090  78.4345010 112.2716680 153.5952450
  78.8109830 111.3988560 153.4826120  78.3364520 112.6075380 152.7042890
  72.5650020 110.6442310 149.0569890  72.6716770 111.5446040 149.3638650
  71.6542380 110.5960280 148.7664540  82.2169130 109.7667120 150.5280790
  83.0378750 109.2763690 150.5706270  82.2503210 110.3564780 151.2812630
  74.4057750 113.6128680 153.3895070  74.9135970 114.1109650 154.0300090
  74.9370990 112.8363880 153.2134430  79.0764940 118.3646550 149.1548390
  78.4582210 118.8296000 148.5911110  79.5888190 119.0574030 149.5717900
  82.4530610 111.7067500 153.3008330  81.7486180 111.9952390 153.8811440
  82.8142770 112.5167610 152.9407890  68.4448140 119.0503080 146.5288020
  68.0676120 119.5390180 145.7972920  68.7021210 119.7228360 147.1594550
  85.5217530 111.1522290 153.6917540  84.5742440 111.1861270 153.8232970
  85.8467520 111.9661240 154.0766900  76.0537070 107.4519470 151.9873530
  76.3612050 106.8966360 151.2709030  75.1237770 107.5863930 151.8046520
  81.6052130 123.1686760 154.2780990  81.6179290 122.7649050 153.4103250
  81.0527350 123.9434050 154.1742420  82.8997550 119.8902980 149.3671160
  82.7893880 118.9477310 149.4920580  82.8965800 120.2518620 150.2533920
  78.4417830 115.5168300 148.7233650  77.5147110 115.4505680 148.9522120
  78.5942650 116.4548430 148.6088890  78.4286910 111.7885300 145.7200810
  77.4890580 111.9499260 145.8053270  78.7470170 112.5070980 145.1736800
  82.4715120 117.0788600 149.2268900  81.8527540 116.7408150 148.5795200
  82.4539570 116.4348360 149.9348090  74.0474470 116.0433040 151.5053380
  73.6431470 115.3310290 151.0099280  74.1337590 115.6986280 152.3941420
  74.5156170 119.7300600 153.6692590  74.2184460 119.1246070 152.9900370
  75.4655990 119.7677910 153.5581950  80.6479820 116.3175410 146.2341650
  81.0873100 115.4797840 146.0879470  81.3608240 116.9504810 146.3205790
  78.7575200 121.2571480 150.2022890  79.1971110 121.9995810 149.7878280
  78.6962090 121.4998050 151.1261850  84.2296960 107.5718220 144.5482690
  83.9169620 107.6645050 145.4481760  84.9909430 108.1499250 144.4980120
  70.7479100 114.9378020 149.0060030  70.6276700 115.6640110 148.3941300
  70.4379990 114.1680930 148.5287940  69.6312100 119.8093350 151.2234850
  69.2240180 119.9507940 150.3688450  70.5225110 119.5253510 151.0206060
  81.4245380 124.2440600 147.5585900  81.2646520 123.9543540 148.4567730
  81.2592090 123.4680730 147.0231130  73.9033760 124.0239130 149.3357520
  73.7276240 123.1074670 149.1225320  73.0489500 124.3826420 149.5755320
  81.1271510 121.7528160 146.1183900  80.4336670 121.7505450 145.4586180
  81.8694370 121.3287480 145.6878070  80.6921440 123.3790870 150.1932390
  81.1478390 122.5980250 150.5071010  81.0313960 124.0897690 150.7373570
  73.2142760 108.2813090 152.3883700  72.7710910 109.0622630 152.0568220
  73.7727750 108.6042980 153.0954640  76.3301580 107.9023790 147.2689530
  75.7055760 107.8983660 147.9942840  76.2431700 107.0354750 146.8725500
  75.2518660 108.8260420 154.2473300  75.5490990 109.7323250 154.1665320
  75.8004220 108.3379200 153.6332870  73.0056980 113.4046660 150.1164950
  72.7797900 113.1883830 151.0211570  72.2249510 113.8375120 149.7710920
  80.2354740 113.4110030 148.7155600  79.6363630 114.1345830 148.5319220
  80.7834350 113.3486810 147.9332050  78.8419610 112.0473570 150.7458880
  79.2349180 112.3645770 149.9327570  79.2036460 111.1685450 150.8603400
  67.8783780 108.6374370 152.9689080  67.5896830 109.2077230 153.6814060
  68.6229540 108.1578820 153.3320310  68.0654010 112.5794490 144.1791800
  67.9828680 113.5225250 144.3206790  67.7137070 112.4369400 143.3004150
  75.8652140 111.3133520 153.2462150  75.8688200 110.8723470 152.3966690
  76.7603260 111.6350850 153.3533970  71.7154520 111.1960010 152.2056360
  71.3754570 111.6735240 152.9623410  70.9531840 110.7425130 151.8457460
  75.9272290 112.3145600 146.2368910  76.0485110 112.2732080 147.1854730
  75.5420800 113.1769750 146.0815640  74.9393790 114.6246740 145.6352210
  74.3710690 114.1764990 145.0088120  75.6482790 114.9839520 145.1017360
  69.0300600 110.1178990 151.1221030  68.7447520 109.7534660 151.9599650
  68.9679460 109.3859450 150.5084170  72.4841270 118.6204930 147.9078620
  71.7103530 118.0802550 147.7477340  73.2135900 118.1011540 147.5696380
  83.2429250 117.6170290 153.7005010  83.9628370 118.1125580 153.3101120
  83.0411070 116.9388180 153.0558880  78.7039190 109.0108250 147.8434400
  77.8903800 108.5121420 147.7679710  78.5101140 109.8506500 147.4270750
  81.4187580 113.3827900 146.1396560  82.3067200 113.6945130 145.9647900
  81.3892670 112.5100150 145.7477140  72.5278670 118.2885310 151.5457430
  73.0457340 117.4853570 151.4914320  72.0762690 118.2264450 152.3874260
  77.4148170 119.5551590 146.8184730  77.7563870 120.2993820 146.3228050
  76.5860880 119.8682710 147.1809560  83.6901850 114.6939740 145.6076420
  83.6065570 115.1253960 144.7572860  84.4096040 115.1538090 146.0403240
  84.7189100 121.5482000 148.3358550  84.0765260 120.8937620 148.6102270
  84.3319760 121.9537090 147.5599220  80.2975580 118.8767430 152.1830240
  80.6499400 118.2795560 151.5231610  79.4137910 118.5511660 152.3538490
  76.3838860 119.6365120 149.5900650  77.0709990 120.1834330 149.9708240
  75.5971280 120.1805850 149.6250260  68.5231260 115.2537940 145.0817730
  69.3926110 115.5362740 145.3653650  68.0321580 116.0673810 144.9666540
  75.6866070 116.6411150 149.2026010  76.1428850 117.4516400 149.4286200
  75.3354280 116.3234290 150.0344500  71.5877850 106.9848800 149.6748530
  71.4592480 106.9766700 150.6233450  70.7639870 107.3231890 149.3239540
  83.1086480 120.4398460 144.8734900  82.8824060 119.7228900 145.4659540
  82.7182680 120.1910900 144.0356650  68.8902510 124.4665320 145.6479360
  69.2500150 125.0654660 144.9936630  68.7494850 125.0125210 146.4214390
  82.6902730 118.3570400 146.5349060  82.4024430 118.8183090 147.3226940
  83.4854900 117.8968170 146.8033280  74.9071130 121.8496520 146.4653030
  74.8981230 122.5826210 145.8497540  73.9869490 121.6028100 146.5579990
  70.5077770 117.0711410 147.2099790  69.9005720 117.8110310 147.2195090
  70.9827120 117.1610770 146.3837990  83.4472590 110.1919170 147.6944240
  82.8185750 110.2964840 146.9802470  82.9524510 110.4115950 148.4838120
  77.8930730 121.9124760 145.1278220  77.9942710 121.7088750 144.1980200
  76.9932470 121.6583040 145.3326000  75.4156620 112.4705120 149.1102120
  74.7072770 112.9391460 149.5515730  75.7001100 111.8127130 149.7447310
  79.4472050 109.1955780 150.5497910  79.3239830 109.2141910 149.6007420
  80.3956610 109.2434720 150.6696310  76.5348840 124.4311080 149.8225890
  76.7890340 124.3932470 148.9005260  75.5861320 124.3044410 149.8154140
  73.6191640 110.7790200 146.4852830  74.4682170 111.2160350 146.4193020
  73.2522910 111.0910460 147.3124890  82.5401420 115.3502960 151.3984400
  81.5991560 115.3653190 151.5732090  82.8545490 114.5638920 151.8444700
  72.5183060 117.0322560 144.9588360  73.2846330 116.9203920 145.5213790
  72.5957750 116.3360530 144.3065130  71.2129820 114.4647630 145.6421250
  71.2933410 113.5175140 145.7538650  72.1049570 114.7954510 145.7481910
  84.5427000 122.5211810 153.0738660  84.6674420 123.3442980 153.5462470
  85.4092560 122.3102540 152.7262810  72.0144530 124.6143020 152.7455790
  72.7507010 124.0658480 153.0164360  72.3985450 125.4799030 152.6061780
  68.8990010 120.6816590 148.6197300  67.9729790 120.9237730 148.6102710
  69.3646440 121.5090850 148.4982050  75.1246840 123.7873330 144.5681360
  75.9175450 124.0762160 144.1163150  74.6051190 123.3565500 143.8893840
  84.1777010 123.0143460 145.9918100  83.8918520 122.6008600 145.1772280
  83.9796560 123.9431170 145.8718620  75.6424240 119.0076740 144.4323710
  75.5374880 118.3929090 145.1585090  75.4748460 118.4842630 143.6486720
  78.8826970 118.0696770 145.0365700  78.3337070 118.5166070 145.6808440
  79.5046230 117.5646020 145.5603370  74.5502090 117.0287690 146.9331000
  74.9718510 116.8627560 147.7762390  74.6752930 116.2187920 146.4386140
  77.0629730 116.0525300 144.1808100  77.5835390 115.3374320 143.8149250
  77.7098130 116.6911170 144.4808610  73.4460990 113.1020920 143.8789160
  73.2450050 112.2388280 144.2402500  73.2753040 113.0154280 142.9410760
  80.9249300 107.9129150 146.4076040  81.2051590 107.0697050 146.7635460
  80.1515030 108.1452260 146.9214790  72.2443790 110.2021540 143.8667040
  72.5469690 110.2088970 142.9586190  72.9838380 109.8519400 144.3634700
  75.4628720 109.1456160 144.8523240  75.1150720 108.4680150 144.2725690
  75.6641490 108.6845670 145.6666630  77.6277760 124.1336910 146.4709840
  78.5228550 124.4721880 146.4928600  77.6595390 123.4116320 145.8434120
  71.2673920 119.5063960 144.6996840  71.7048790 120.0493630 145.3554420
  71.7521650 118.6810910 144.7093180  68.4819720 122.2952990 152.1517100
  68.8122730 121.4274050 151.9195740  68.9110720 122.5011510 152.9822060
  73.0781640 120.6262000 149.8119070  72.7777180 120.5026970 150.7122980
  72.9719130 119.7670590 149.4034800  85.8473560 120.4058400 144.5145750
  85.0166520 120.4735050 144.9852980  86.0245390 121.2962520 144.2112610
  85.3030020 117.1505880 147.0179950  86.0648930 117.7202530 147.1239640
  85.3184390 116.5833080 147.7888260  68.8034360 115.6743810 151.2487610
  68.1483200 115.4055450 150.6047310  69.6412310 115.5648290 150.7989590
  86.3089990 118.0055980 151.8621880  86.6798820 117.2223300 151.4557850
  86.9491920 118.6945080 151.6839180  85.3549190 117.4440250 144.1752470
  85.6298030 118.3519130 144.0471690  85.1659930 117.3802780 145.1114460
  81.7524800 110.4685100 145.4706100  82.1709680 110.2816080 144.6302760
  81.4460860 109.6164150 145.7809030  85.2514530 115.3809240 149.1681900
  84.8758130 114.6137170 148.7363190  84.5217650 115.7631940 149.6556830
  68.0172440 112.8842740 147.1912940  67.1136520 113.1472940 147.0164600
  68.5013060 113.1553910 146.4112900  84.5265490 113.6066730 152.4689140
  85.0502970 113.1129380 151.8379310  85.1124910 113.7417090 153.2136710
  70.5599650 111.9408280 145.1007320  71.2691350 111.5191500 144.6154600
  69.8439590 112.0083510 144.4690670  70.2073810 107.9947610 144.1409970
  70.9301940 108.5356550 144.4591190  70.4798330 107.7211030 143.2651510
  84.0165460 112.8640080 148.4081550  84.5124580 112.6310950 149.1930430
  83.8181530 112.0251920 147.9919190  85.4452620 111.5001030 150.9419230
  85.3351900 111.3457070 151.8801500  86.2060210 110.9721970 150.6994640
  86.3342890 109.3308950 144.1825370  87.2592200 109.1990130 143.9743660
  86.3118680 109.4101770 145.1361820  86.4081380 110.1019610 146.8082080
  85.6132880 110.0364730 147.3374990  86.6124660 111.0370250 146.7967430
  83.3499800 124.1411160 150.8020470  83.9458870 123.8195730 150.1254890
  83.6077950 123.6682980 151.5933740  74.3307730 123.0994700 153.8066330
  74.8472750 122.4882060 153.2814590  74.9805110 123.6023480 154.2977340
  82.8401310 108.4316490 153.2580910  83.2809400 108.3761590 152.4102510
  82.5708900 109.3474500 153.3291090  84.7039880 108.0631730 151.2689730
  84.6428280 107.1192950 151.1220750  85.4831910 108.1711820 151.8143190
  69.0092630 124.2024090 150.2313680  68.8414670 123.5694770 150.9295570
  68.1427140 124.4083490 149.8807870  69.6320650 108.0340870 147.7345540
  70.3900010 108.1469750 147.1609570  69.1697820 108.8710070 147.6888970
  76.1734460 110.1480140 150.7247850  75.3608970 109.7737030 150.3843730
  76.6776100 109.3925220 151.0269040  80.6759440 106.8122590 151.9630920
  81.2788810 107.3842800 152.4379440  79.9352430 107.3762030 151.7404820
  83.8194040 107.2144150 147.2371200  84.0144670 108.1127600 147.5038630
  83.0323910 106.9831230 147.7304150  70.6155330 122.8957320 147.6763820
  70.0902950 123.2765350 146.9725780  70.5399910 123.5208090 148.3973530
  72.0045800 108.5604920 146.2747510  72.5338560 107.7734720 146.1455460
  72.6374120 109.2396110 146.5083040  74.1983640 108.2980060 149.3292900
  73.5686380 107.5967370 149.4963030  73.6588780 109.0584190 149.1126060
  85.3720650 124.4544860 148.9977760  85.5472840 123.7682600 148.3538680
  84.6742220 124.9791910 148.6054430  73.2148300 124.8439700 146.5513070
  73.9467120 124.5598980 146.0036960  73.4741970 124.6052980 147.4412450
  72.3763090 120.9604430 146.5559400  71.7471970 121.4289530 147.1045230
  72.4910920 120.1153650 146.9905590  79.8312810 115.0110090 132.7060600
  79.7506860 114.0964700 132.4352310  79.4177230 115.5077160 132.0000310
  77.9630850 116.7889110 134.5869870  77.1872950 116.3089550 134.8768440
  78.6143780 116.1094760 134.4126030  71.9796680 117.1008920 135.4645630
  71.1481560 116.8457630 135.8642140  72.5877660 117.1719690 136.2003550
  81.9838280 121.1949300 133.3669000  81.5219810 120.4236540 133.6956170
  82.7963830 121.2215370 133.8721450  71.9597940 121.1349010 135.6603650
  72.2625980 120.2446750 135.4813870  72.7041530 121.6919230 135.4325900
  68.3521640 114.6616460 135.1327720  68.9237750 113.8938660 135.1331360
  68.3523180 114.9605220 134.2234330  78.2101590 123.4807310 132.9872990
  77.5913030 123.9364810 132.4167430  79.0653370 123.6358770 132.5862690
  77.4039840 119.4646300 134.5940030  77.3348120 118.5236240 134.4329160
  78.1659700 119.5547710 135.1662600  69.5946510 110.0700820 136.9196650
  69.4149350 109.1726570 137.1999410  69.1926590 110.6172690 137.5943600
  78.4345010 112.2716680 134.8208960  78.8109830 111.3988560 134.7082630
  78.3364520 112.6075380 133.9299400  86.5068680 111.7833870 138.3180930
  85.8020850 112.1715580 137.7996040  86.7726600 112.4784160 138.9201860
  72.6893850 108.2527240 138.8815000  72.6912290 108.7699630 138.0760900
  71.8598160 107.7757420 138.8584930  79.0764940 118.3646550 130.3804900
  78.4582210 118.8296000 129.8167620  79.5888190 119.0574030 130.7974410
  73.9396700 117.8922420 137.0588500  73.6066080 118.5191340 137.7009570
  74.1163380 118.4184300 136.2790170  72.3709180 109.9637200 136.8885450
  72.7125990 110.8079250 136.5939320  71.4324990 110.1120940 137.0050790
  73.1515800 119.8603220 138.8737680  73.7689800 120.5354300 138.5922130
  72.2908920 120.2691200 138.7825180  68.4448140 119.0503080 127.7544530
  68.0676120 119.5390180 127.0229430  68.7021210 119.7228360 128.3851060
  84.0693390 121.3242630 136.7892320  83.3856910 121.9941740 136.7808990
  84.6087680 121.5223280 136.0237180  85.5217530 111.1522290 134.9174050
  84.5742440 111.1861270 135.0489480  85.8467520 111.9661240 135.3023410
  81.6052130 123.1686760 135.5037500  81.6179290 122.7649050 134.6359760
  81.0527350 123.9434050 135.3998930  82.8997550 119.8902980 130.5927670
  82.7893880 118.9477310 130.7177090  82.8965800 120.2518620 131.4790430
  81.0037570 118.0716600 136.8320110  81.4206360 117.8576710 135.9973570
  81.7277390 118.3289390 137.4028730  84.9499670 116.4703820 136.9236350
  84.1218300 116.5396910 136.4486480  85.5450150 117.0558130 136.4552180
  82.4715120 117.0788600 130.4525410  81.8527540 116.7408150 129.8051710
  82.4539570 116.4348360 131.1604600  81.9141680 113.2573140 137.8691220
  81.5012860 114.0826850 138.1231210  81.1817630 112.6718180 137.6767580
  74.5156170 119.7300600 134.8949100  74.2184460 119.1246070 134.2156880
  75.4655990 119.7677910 134.7838460  72.7603090 112.8176250 136.5108930
  73.3117680 112.9271590 135.7362180  73.2746600 113.1913850 137.2264160
  82.6041780 123.3032470 138.5572200  82.1272340 124.1104660 138.3644810
  81.9203570 122.6510800 138.7098410  73.6074600 119.4682290 141.5456900
  72.7103130 119.6922260 141.7930300  73.6327470 119.5917230 140.5968300
  80.6479820 116.3175410 127.4598160  81.0873100 115.4797840 127.3135980
  81.3608240 116.9504810 127.5462300  72.4345820 116.3395610 140.1214270
  72.2953590 117.2118410 140.4901670  71.5527180 115.9968420 139.9762210
  78.7575200 121.2571480 131.4279400  79.1971110 121.9995810 131.0134790
  78.6962090 121.4998050 132.3518360  74.2326170 122.2817310 142.3299420
  74.2041600 122.6860260 141.4627850  74.0691140 121.3527670 142.1671020
  86.1840990 123.0644410 143.6263590  86.6600710 123.5427300 144.3052670
  86.8048150 122.9961900 142.9009090  68.3864470 118.1093160 136.0385180
  68.4644890 118.2441930 135.0940900  69.0006150 117.4009050 136.2313300
  69.6312100 119.8093350 132.4491360  69.2240180 119.9507940 131.5944960
  70.5225110 119.5253510 132.2462570  85.5874240 120.2557260 140.7863600
  85.7137300 120.0169140 139.8680780  85.6295620 119.4241800 141.2585680
  79.4490980 123.9585260 139.3558410  79.9635650 123.8693270 140.1580840
  78.6060060 124.3044960 139.6486320  81.4245380 124.2440600 128.7842410
  81.2646520 123.9543540 129.6824240  81.2592090 123.4680730 128.2487640
  73.9033760 124.0239130 130.5614030  73.7276240 123.1074670 130.3481830
  73.0489500 124.3826420 130.8011830  81.1271510 121.7528160 127.3440410
  80.4336670 121.7505450 126.6842690  81.8694370 121.3287480 126.9134580
  80.6921440 123.3790870 131.4188900  81.1478390 122.5980250 131.7327520
  81.0313960 124.0897690 131.9630080  85.4398250 112.3089720 141.7513340
  84.8242520 112.8169390 141.2228800  85.1194670 111.4088050 141.6939280
  68.4423990 119.1507330 138.5779640  68.6055030 118.6812690 137.7599010
  68.9076440 118.6430890 139.2428480  73.2142760 108.2813090 133.6140210
  72.7710910 109.0622630 133.2824730  73.7727750 108.6042980 134.3211150
  77.5012570 111.1481610 139.2175530  77.0391940 111.3564630 140.0295470
  77.0990680 110.3340960 138.9146200  82.5017080 112.3690560 140.3472190
  81.6510670 112.0696310 140.6681260  82.3418870 112.6132570 139.4356010
  79.5966790 113.8692310 142.4470980  79.9220200 113.0356060 142.1073210
  80.3847120 114.3920830 142.5949310  75.2518660 108.8260420 135.4729810
  75.5490990 109.7323250 135.3921830  75.8004220 108.3379200 134.8589380
  75.4456190 114.3032240 142.0081730  75.3499790 113.3626970 141.8582130
  76.2888170 114.5247310 141.6129800  70.5766730 110.7145910 140.1615510
  70.1830120 111.5621120 140.3688290  69.8885130 110.0772280 140.3524150
  77.1511780 110.7980880 143.2312250  76.4610100 110.6053080 143.8658340
  77.8944080 111.0815520 143.7636550  67.8783780 108.6374370 134.1945590
  67.5896830 109.2077230 134.9070570  68.6229540 108.1578820 134.5576820
  68.0654010 112.5794490 125.4048310  67.9828680 113.5225250 125.5463300
  67.7137070 112.4369400 124.5260660  79.4274750 114.6379320 136.0666170
  78.6955870 115.1466130 136.4156270  79.0299090 113.8209300 135.7654950
  75.8652140 111.3133520 134.4718660  75.8688200 110.8723470 133.6223200
  76.7603260 111.6350850 134.5790480  83.3171410 107.5045180 141.3175490
  83.6417180 106.7734840 141.8433470  83.3527920 107.1858820 140.4156480
  70.0162970 118.5258760 140.7375450  69.6317760 117.8852430 141.3358410
  70.3275160 119.2294880 141.3070180  76.1660110 115.3735300 136.2184070
  76.5330240 114.8993870 136.9645410  75.9765170 116.2476870 136.5592410
  73.9559480 114.4143940 138.5368280  73.6516550 115.2935920 138.7618640
  74.9105940 114.4743730 138.5725720  72.4841270 118.6204930 129.1335130
  71.7103530 118.0802550 128.9733850  73.2135900 118.1011540 128.7952890
  83.2429250 117.6170290 134.9261520  83.9628370 118.1125580 134.5357630
  83.0411070 116.9388180 134.2815390  78.6248050 117.6879350 140.8130520
  78.5585360 116.7675020 140.5588110  77.9953190 117.7854790 141.5275160
  81.4187580 113.3827900 127.3653070  82.3067200 113.6945130 127.1904410
  81.3892670 112.5100150 126.9733650  72.5278670 118.2885310 132.7713940
  73.0457340 117.4853570 132.7170830  72.0762690 118.2264450 133.6130770
  77.4148170 119.5551590 128.0441240  77.7563870 120.2993820 127.5484560
  76.5860880 119.8682710 128.4066070  70.0123210 115.2546680 139.6839640
  69.6538150 115.9200530 140.2712980  69.7177770 114.4230230 140.0552260
  73.2136330 115.7130920 142.5679190  72.9136470 115.8588100 141.6707010
  73.9847570 115.1536210 142.4752580  78.5564780 120.5099920 140.5634320
  78.5709320 119.5780880 140.3453230  77.8489880 120.5959680 141.2024090
  83.6901850 114.6939740 126.8332930  83.6065570 115.1253960 125.9829370
  84.4096040 115.1538090 127.2659750  84.7675990 117.1507260 139.9102900
  84.0424180 117.7436040 139.7132290  85.2951450 117.1430800 139.1116270
  84.7189100 121.5482000 129.5615060  84.0765260 120.8937620 129.8358780
  84.3319760 121.9537090 128.7855730  80.2975580 118.8767430 133.4086750
  80.6499400 118.2795560 132.7488120  79.4137910 118.5511660 133.5795000
  76.3838860 119.6365120 130.8157160  77.0709990 120.1834330 131.1964750
  75.5971280 120.1805850 130.8506770  68.5231260 115.2537940 126.3074240
  69.3926110 115.5362740 126.5910160  68.0321580 116.0673810 126.1923050
  77.9898680 122.1517490 137.6574820  78.6340900 122.3576870 138.3348240
  78.3528120 121.3905890 137.2045670  71.5877850 106.9848800 130.9005040
  71.4592480 106.9766700 131.8489960  70.7639870 107.3231890 130.5496050
  79.2630760 120.1549840 136.3752270  79.9052990 119.4543000 136.4884440
  79.7880110 120.9348280 136.1949160  81.0368380 120.9544740 139.5788330
  81.3724620 121.5411430 140.2566250  80.1168720 120.8237450 139.8086120
  68.8902510 124.4665320 126.8735870  69.2500150 125.0654660 126.2193140
  68.7494850 125.0125210 127.6470900  68.5871780 108.7439920 140.3611740
  67.8730300 108.9436840 140.9664350  69.0066820 107.9679490 140.7326540
  82.6902730 118.3570400 127.7605570  82.4024430 118.8183090 128.5483450
  83.4854900 117.8968170 128.0289790  68.8744370 122.7320180 141.3478270
  68.9835490 121.7914920 141.2073660  68.2224930 122.9974930 140.6992000
  76.8656960 121.0036070 142.7476390  76.5453830 120.2845310 143.2922080
  76.1915320 121.6791140 142.8212450  74.9071130 121.8496520 127.6909540
  74.8981230 122.5826210 127.0754050  73.9869490 121.6028100 127.7836500
  80.0810560 111.2362230 138.1113190  80.4491380 110.4157440 138.4392760
  79.2208760 111.2964120 138.5268840  77.8930730 121.9124760 126.3534730
  77.9942710 121.7088750 125.4236710  76.9932470 121.6583040 126.5582510
  77.0412550 113.8901820 138.3351160  77.5397800 114.3647640 139.0003010
  77.1835500 112.9665340 138.5421190  76.5348840 124.4311080 131.0482400
  76.7890340 124.3932470 130.1261770  75.5861320 124.3044410 131.0410650
  84.2479410 110.1069780 139.1779550  83.7453010 110.8475180 139.5173360
  85.0636070 110.4953780 138.8616340  72.5183060 117.0322560 126.1844870
  73.2846330 116.9203920 126.7470300  72.5957750 116.3360530 125.5321640
  71.2129820 114.4647630 126.8677760  71.2933410 113.5175140 126.9795160
  72.1049570 114.7954510 126.9738420  84.5427000 122.5211810 134.2995170
  84.6674420 123.3442980 134.7718980  85.4092560 122.3102540 133.9519320
  72.0144530 124.6143020 133.9712300  72.7507010 124.0658480 134.2420870
  72.3985450 125.4799030 133.8318290  68.8990010 120.6816590 129.8453810
  67.9729790 120.9237730 129.8359220  69.3646440 121.5090850 129.7238560
  71.0202810 123.7989090 143.1597880  71.8215540 124.1201140 143.5733280
  70.5054630 123.4384670 143.8817790  75.1246840 123.7873330 125.7937870
  75.9175450 124.0762160 125.3419660  74.6051190 123.3565500 125.1150350
  79.8567440 119.9068960 143.1073290  79.2505600 119.9300560 142.3669040
  79.5521550 119.1752000 143.6440540  81.2867810 123.6349250 141.7182700
  82.2389560 123.5507270 141.6682940  81.1396030 124.2990960 142.3916490
  84.1777010 123.0143460 127.2174610  83.8918520 122.6008600 126.4028790
  83.9796560 123.9431170 127.0975130  68.7400620 116.2862550 142.1033930
  69.2439640 115.7069830 142.6750160  68.0008040 116.5702780 142.6410300
  75.6424240 119.0076740 125.6580220  75.5374880 118.3929090 126.3841600
  75.4748460 118.4842630 124.8743230  75.7938560 117.6933540 141.6369450
  75.0284230 118.2618540 141.5524120  75.9754520 117.4009750 140.7437680
  82.9361910 119.4238870 142.1944470  83.6771380 119.7614630 141.6911930
  82.1734590 119.5930930 141.6414240  70.7723700 114.4292140 142.9984000
  70.8129040 114.1306010 143.9069230  71.6269200 114.8299750 142.8391520
  74.5502090 117.0287690 128.1587510  74.9718510 116.8627560 129.0018900
  74.6752930 116.2187920 127.6642650  72.7129510 113.0084240 140.9658490
  72.1825970 112.5175190 140.3381830  73.3817580 113.4368440 140.4316420
  77.0629730 116.0525300 125.4064610  77.5835390 115.3374320 125.0405760
  77.7098130 116.6911170 125.7065120  81.6107570 117.4753700 140.7299680
  82.0248590 117.6298780 141.5790100  80.6758570 117.6008920 140.8925460
  82.0829740 114.8149860 142.7338830  82.6650510 114.0602180 142.6459310
  82.2591510 115.3457300 141.9570310  73.2001810 109.9746610 141.0455780
  73.1058680 109.3567360 140.3206650  72.6199200 110.7012900 140.8185690
  75.9663250 108.5319850 138.0783170  75.5180550 108.5544110 137.2328720
  75.3328450 108.1338870 138.6753470  76.3722800 117.4274180 138.6995610
  76.7910910 118.2706910 138.5271850  75.4531430 117.5646220 138.4702390
  78.7086700 115.1590360 140.0833450  78.8282910 114.5631500 140.8228290
  79.5680700 115.1960050 139.6634750  81.0474600 115.7127550 138.6595960
  80.5209820 116.2370170 138.0561100  81.3905940 116.3454940 139.2905690
  73.4460990 113.1020920 125.1045670  73.2450050 112.2388280 125.4659010
  73.2753040 113.0154280 124.1667270  74.2230220 123.7327190 139.8153340
  73.6851310 124.4573250 139.4962040  74.4764180 123.2557530 139.0250680
  75.4755470 111.7011710 141.3409270  76.0655160 111.3927560 142.0287090
  74.6575710 111.2291460 141.4969170  80.2948900 111.3177520 141.5742290
  79.6064420 110.6559060 141.5092280  81.0154920 110.8715790 142.0190750
  72.2443790 110.2021540 125.0923550  72.5469690 110.2088970 124.1842700
  72.9838380 109.8519400 125.5891210  77.0792430 124.9678400 140.0739990
  77.0051130 125.8713540 140.3812360  76.1771270 124.6490300 140.0462060
  77.6277760 124.1336910 127.6966350  78.5228550 124.4721880 127.7185110
  77.6595390 123.4116320 127.0690630  71.2673920 119.5063960 125.9253350
  71.7048790 120.0493630 126.5810930  71.7521650 118.6810910 125.9349690
  68.4819720 122.2952990 133.3773610  68.8122730 121.4274050 133.1452250
  68.9110720 122.5011510 134.2078570  73.0781640 120.6262000 131.0375580
  72.7777180 120.5026970 131.9379490  72.9719130 119.7670590 130.6291310
  68.9709930 123.1623580 136.1155240  68.5340920 123.3424380 136.9479390
  69.5387610 123.9198200 135.9736960  84.6072110 122.6640580 140.4032550
  84.0074100 122.7233140 139.6596470  84.7366010 121.7245560 140.5329400
  85.3030020 117.1505880 128.2436460  86.0648930 117.7202530 128.3496150
  85.3184390 116.5833080 129.0144770  86.3089990 118.0055980 133.0878390
  86.6798820 117.2223300 132.6814360  86.9491920 118.6945080 132.9095690
  83.2923750 119.3892560 138.5008710  82.4783590 119.8189720 138.7634500
  83.6997950 120.0010970 137.8877760  69.8410290 116.0596380 137.0147460
  70.2083330 115.9723780 137.8943480  69.2721110 115.2962930 136.9154320
  84.6414150 114.5280760 140.0277930  84.4100240 114.2993510 139.1275880
  84.9018700 115.4480310 139.9822820  69.3926290 112.9705470 140.9205880
  68.4982340 112.9372230 141.2599590  69.9323840 113.1692260 141.6857130
  83.0802220 109.7537190 142.8057630  83.9572400 109.7620590 143.1891630
  83.0923060 109.0168030 142.1949980  84.7055210 113.6906600 137.2165200
  83.7557920 113.6570140 137.3310190  84.8868220 114.6006710 136.9814970
  70.5599650 111.9408280 126.3263830  71.2691350 111.5191500 125.8411110
  69.8439590 112.0083510 125.6947180  70.2073810 107.9947610 125.3666480
  70.9301940 108.5356550 125.6847700  70.4798330 107.7211030 124.4908020
  69.8966000 107.2453800 135.2689100  70.5442190 106.6951180 134.8284260
  70.3167840 107.4996950 136.0904910  86.3342890 109.3308950 125.4081880
  87.2592200 109.1990130 125.2000170  86.3118680 109.4101770 126.3618330
  83.3499800 124.1411160 132.0276980  83.9458870 123.8195730 131.3511400
  83.6077950 123.6682980 132.8190250  69.6498000 107.4009470 138.0114420
  69.3012820 107.8573290 138.7772600  69.3185700 106.5066600 138.0936850
  71.2562370 120.5729070 142.1767610  71.2132000 120.2021980 143.0582070
  71.3873380 121.5106640 142.3169430  74.9568400 122.1288660 137.7777330
  74.7159760 122.3963220 136.8907850  75.8971040 122.2994390 137.8328190
  77.1622820 108.5921350 141.5333840  77.1011710 109.1843180 142.2829250
  78.1023200 108.4847310 141.3884100  79.7997380 108.2491410 141.1726130
  80.4137790 108.5670700 140.5107210  80.3446940 107.7640000 141.7921990
  86.2172560 124.1483040 138.5787970  85.7230840 124.5451910 137.8615100
  85.6085850 123.5232250 138.9725250  70.3218640 106.9285670 141.2865190
  70.8701630 106.7473720 140.5231300  70.3873950 106.1379780 141.8221500
  71.0950400 123.5191320 139.2965390  70.5010720 123.3876020 140.0355430
  71.0874240 122.6829460 138.8307490  80.5405420 106.8123550 137.4995420
  79.6665260 107.1458660 137.2968350  80.4316170 106.3396730 138.3247290
  81.4477400 109.0194420 138.8837140  81.1190760 108.2046180 138.5038870
  82.3959700 108.9764230 138.7602830  83.9012010 124.7906460 135.8574710
  83.4414980 125.5422270 135.4832730  83.2724470 124.0712930 135.7989510
  70.7262630 120.8849700 138.2473430  69.9996690 120.2654990 138.1799380
  70.7871780 121.2790310 137.3771510  74.3307730 123.0994700 135.0322840
  74.8472750 122.4882060 134.5071100  74.9805110 123.6023480 135.5233850
  77.0703230 123.9903190 135.8591820  77.3581040 123.7357490 134.9824830
  77.5826450 123.4380550 136.4497390  78.2880240 107.7293390 136.4388330
  77.5052030 108.2038890 136.7185090  77.9943170 106.8248220 136.3301510
  69.0092630 124.2024090 131.4570190  68.8414670 123.5694770 132.1552080
  68.1427140 124.4083490 131.1064380  69.6320650 108.0340870 128.9602050
  70.3900010 108.1469750 128.3866080  69.1697820 108.8710070 128.9145480
  70.6155330 122.8957320 128.9020330  70.0902950 123.2765350 128.1982290
  70.5399910 123.5208090 129.6230040  77.1375590 124.9119290 143.2260020
  78.0642900 124.6763560 143.2695980  77.1226020 125.7391290 142.7446050
  85.3720650 124.4544860 130.2234270  85.5472840 123.7682600 129.5795190
  84.6742220 124.9791910 129.8310940  74.3239200 107.5764040 142.9901900
  74.0423470 108.0797640 142.2262720  74.7058900 106.7785790 142.6244030
  73.2148300 124.8439700 127.7769580  73.9467120 124.5598980 127.2293470
  73.4741970 124.6052980 128.6668960  72.3763090 120.9604430 127.7815910
  71.7471970 121.4289530 128.3301740  72.4910920 120.1153650 128.2162100
  80.9254660 106.9917620 143.5682370  80.8120110 107.3112230 144.4633890
  81.7424400 107.3930130 143.2719650  83.7053150 124.1389150 143.0501060
  84.4978470 123.6438380 142.8427020  83.9986300 124.8179290 143.6576670
  79.8312810 115.0110090 113.9317110  79.7506860 114.0964700 113.6608820
  79.4177230 115.5077160 113.2256820  77.9630850 116.7889110 115.8126380
  77.1872950 116.3089550 116.1024950  78.6143780 116.1094760 115.6382540
  81.9838280 121.1949300 114.5925510  81.5219810 120.4236540 114.9212680
  82.7963830 121.2215370 115.0977960  70.3888630 112.0610810 110.4744530
  69.5005330 112.4026780 110.3724410  70.6729820 111.8611130 109.5825360
  78.4345010 112.2716680 116.0465470  78.8109830 111.3988560 115.9339140
  78.3364520 112.6075380 115.1555910  82.2169130 109.7667120 112.9793810
  83.0378750 109.2763690 113.0219290  82.2503210 110.3564780 113.7325650
  86.5068680 111.7833870 119.5437440  85.8020850 112.1715580 119.0252550
  86.7726600 112.4784160 120.1458370  79.0764940 118.3646550 111.6061410
  78.4582210 118.8296000 111.0424130  79.5888190 119.0574030 112.0230920
  82.4530610 111.7067500 115.7521350  81.7486180 111.9952390 116.3324460
  82.8142770 112.5167610 115.3920910  68.4448140 119.0503080 108.9801040
  68.0676120 119.5390180 108.2485940  68.7021210 119.7228360 109.6107570
  84.0693390 121.3242630 118.0148830  83.3856910 121.9941740 118.0065500
  84.6087680 121.5223280 117.2493690  85.5217530 111.1522290 116.1430560
  84.5742440 111.1861270 116.2745990  85.8467520 111.9661240 116.5279920
  81.0037570 118.0716600 118.0576620  81.4206360 117.8576710 117.2230080
  81.7277390 118.3289390 118.6285240  78.4417830 115.5168300 111.1746670
  77.5147110 115.4505680 111.4035140  78.5942650 116.4548430 111.0601910
  84.9499670 116.4703820 118.1492860  84.1218300 116.5396910 117.6742990
  85.5450150 117.0558130 117.6808690  81.9141680 113.2573140 119.0947730
  81.5012860 114.0826850 119.3487720  81.1817630 112.6718180 118.9024090
  82.6041780 123.3032470 119.7828710  82.1272340 124.1104660 119.5901320
  81.9203570 122.6510800 119.9354920  73.6074600 119.4682290 122.7713410
  72.7103130 119.6922260 123.0186810  73.6327470 119.5917230 121.8224810
  80.6479820 116.3175410 108.6854670  81.0873100 115.4797840 108.5392490
  81.3608240 116.9504810 108.7718810  72.4345820 116.3395610 121.3470780
  72.2953590 117.2118410 121.7158180  71.5527180 115.9968420 121.2018720
  78.7575200 121.2571480 112.6535910  79.1971110 121.9995810 112.2391300
  78.6962090 121.4998050 113.5774870  74.2326170 122.2817310 123.5555930
  74.2041600 122.6860260 122.6884360  74.0691140 121.3527670 123.3927530
  68.3864470 118.1093160 117.2641690  68.4644890 118.2441930 116.3197410
  69.0006150 117.4009050 117.4569810  79.4490980 123.9585260 120.5814920
  79.9635650 123.8693270 121.3837350  78.6060060 124.3044960 120.8742830
  81.4245380 124.2440600 110.0098920  81.2646520 123.9543540 110.9080750
  81.2592090 123.4680730 109.4744150  81.1271510 121.7528160 108.5696920
  80.4336670 121.7505450 107.9099200  81.8694370 121.3287480 108.1391090
  85.4398250 112.3089720 122.9769850  84.8242520 112.8169390 122.4485310
  85.1194670 111.4088050 122.9195790  68.4423990 119.1507330 119.8036150
  68.6055030 118.6812690 118.9855520  68.9076440 118.6430890 120.4684990
  77.5012570 111.1481610 120.4432040  77.0391940 111.3564630 121.2551980
  77.0990680 110.3340960 120.1402710  82.5017080 112.3690560 121.5728700
  81.6510670 112.0696310 121.8937770  82.3418870 112.6132570 120.6612520
  79.5966790 113.8692310 123.6727490  79.9220200 113.0356060 123.3329720
  80.3847120 114.3920830 123.8205820  80.2354740 113.4110030 111.1668620
  79.6363630 114.1345830 110.9832240  80.7834350 113.3486810 110.3845070
  75.4456190 114.3032240 123.2338240  75.3499790 113.3626970 123.0838640
  76.2888170 114.5247310 122.8386310  78.8419610 112.0473570 113.1971900
  79.2349180 112.3645770 112.3840590  79.2036460 111.1685450 113.3116420
  77.1511780 110.7980880 124.4568760  76.4610100 110.6053080 125.0914850
  77.8944080 111.0815520 124.9893060  67.8783780 108.6374370 115.4202100
  67.5896830 109.2077230 116.1327080  68.6229540 108.1578820 115.7833330
  79.4274750 114.6379320 117.2922680  78.6955870 115.1466130 117.6412780
  79.0299090 113.8209300 116.9911460  75.9272290 112.3145600 108.6881930
  76.0485110 112.2732080 109.6367750  75.5420800 113.1769750 108.5328660
  74.9393790 114.6246740 108.0865230  74.3710690 114.1764990 107.4601140
  75.6482790 114.9839520 107.5530380  70.0162970 118.5258760 121.9631960
  69.6317760 117.8852430 122.5614920  70.3275160 119.2294880 122.5326690
  76.1660110 115.3735300 117.4440580  76.5330240 114.8993870 118.1901920
  75.9765170 116.2476870 117.7848920  83.2429250 117.6170290 116.1518030
  83.9628370 118.1125580 115.7614140  83.0411070 116.9388180 115.5071900
  81.4187580 113.3827900 108.5909580  82.3067200 113.6945130 108.4160920
  81.3892670 112.5100150 108.1990160  77.4148170 119.5551590 109.2697750
  77.7563870 120.2993820 108.7741070  76.5860880 119.8682710 109.6322580
  73.2136330 115.7130920 123.7935700  72.9136470 115.8588100 122.8963520
  73.9847570 115.1536210 123.7009090  83.6901850 114.6939740 108.0589440
  83.6065570 115.1253960 107.2085880  84.4096040 115.1538090 108.4916260
  84.7675990 117.1507260 121.1359410  84.0424180 117.7436040 120.9388800
  85.2951450 117.1430800 120.3372780  80.2975580 118.8767430 114.6343260
  80.6499400 118.2795560 113.9744630  79.4137910 118.5511660 114.8051510
  76.3838860 119.6365120 112.0413670  77.0709990 120.1834330 112.4221260
  75.5971280 120.1805850 112.0763280  68.5231260 115.2537940 107.5330750
  69.3926110 115.5362740 107.8166670  68.0321580 116.0673810 107.4179560
  75.6866070 116.6411150 111.6539030  76.1428850 117.4516400 111.8799220
  75.3354280 116.3234290 112.4857520  83.1086480 120.4398460 107.3247920
  82.8824060 119.7228900 107.9172560  82.7182680 120.1910900 106.4869670
  82.6902730 118.3570400 108.9862080  82.4024430 118.8183090 109.7739960
  83.4854900 117.8968170 109.2546300  68.8744370 122.7320180 122.5734780
  68.9835490 121.7914920 122.4330170  68.2224930 122.9974930 121.9248510
  76.8656960 121.0036070 123.9732900  76.5453830 120.2845310 124.5178590
  76.1915320 121.6791140 124.0468960  83.4472590 110.1919170 110.1457260
  82.8185750 110.2964840 109.4315490  82.9524510 110.4115950 110.9351140
  77.0412550 113.8901820 119.5607670  77.5397800 114.3647640 120.2259520
  77.1835500 112.9665340 119.7677700  73.6191640 110.7790200 108.9365850
  74.4682170 111.2160350 108.8706040  73.2522910 111.0910460 109.7637910
  82.5401420 115.3502960 113.8497420  81.5991560 115.3653190 114.0245110
  82.8545490 114.5638920 114.2957720  72.5183060 117.0322560 107.4101380
  73.2846330 116.9203920 107.9726810  72.5957750 116.3360530 106.7578150
  71.2129820 114.4647630 108.0934270  71.2933410 113.5175140 108.2051670
  72.1049570 114.7954510 108.1994930  71.0202810 123.7989090 124.3854390
  71.8215540 124.1201140 124.7989790  70.5054630 123.4384670 125.1074300
  81.2867810 123.6349250 122.9439210  82.2389560 123.5507270 122.8939450
  81.1396030 124.2990960 123.6173000  84.1777010 123.0143460 108.4431120
  83.8918520 122.6008600 107.6285300  83.9796560 123.9431170 108.3231640
  68.7400620 116.2862550 123.3290440  69.2439640 115.7069830 123.9006670
  68.0008040 116.5702780 123.8666810  75.7938560 117.6933540 122.8625960
  75.0284230 118.2618540 122.7780630  75.9754520 117.4009750 121.9694190
  78.8826970 118.0696770 107.4878720  78.3337070 118.5166070 108.1321460
  79.5046230 117.5646020 108.0116390  70.7723700 114.4292140 124.2240510
  70.8129040 114.1306010 125.1325740  71.6269200 114.8299750 124.0648030
  74.5502090 117.0287690 109.3844020  74.9718510 116.8627560 110.2275410
  74.6752930 116.2187920 108.8899160  77.0629730 116.0525300 106.6321120
  77.5835390 115.3374320 106.2662270  77.7098130 116.6911170 106.9321630
  75.9663250 108.5319850 119.3039680  75.5180550 108.5544110 118.4585230
  75.3328450 108.1338870 119.9009980  76.3722800 117.4274180 119.9252120
  76.7910910 118.2706910 119.7528360  75.4531430 117.5646220 119.6958900
  81.0474600 115.7127550 119.8852470  80.5209820 116.2370170 119.2817610
  81.3905940 116.3454940 120.5162200  73.4460990 113.1020920 106.3302180
  73.2450050 112.2388280 106.6915520  73.2753040 113.0154280 105.3923780
  75.4755470 111.7011710 122.5665780  76.0655160 111.3927560 123.2543600
  74.6575710 111.2291460 122.7225680  80.2948900 111.3177520 122.7998800
  79.6064420 110.6559060 122.7348790  81.0154920 110.8715790 123.2447260
  72.2443790 110.2021540 106.3180060  72.5469690 110.2088970 105.4099210
  72.9838380 109.8519400 106.8147720  77.0792430 124.9678400 121.2996500
  77.0051130 125.8713540 121.6068870  76.1771270 124.6490300 121.2718570
  71.2673920 119.5063960 107.1509860  71.7048790 120.0493630 107.8067440
  71.7521650 118.6810910 107.1606200  73.0781640 120.6262000 112.2632090
  72.7777180 120.5026970 113.1636000  72.9719130 119.7670590 111.8547820
  68.9709930 123.1623580 117.3411750  68.5340920 123.3424380 118.1735900
  69.5387610 123.9198200 117.1993470  84.6072110 122.6640580 121.6289060
  84.0074100 122.7233140 120.8852980  84.7366010 121.7245560 121.7585910
  85.8473560 120.4058400 106.9658770  85.0166520 120.4735050 107.4366000
  86.0245390 121.2962520 106.6625630  83.2923750 119.3892560 119.7265220
  82.4783590 119.8189720 119.9891010  83.6997950 120.0010970 119.1134270
  85.3549190 117.4440250 106.6265490  85.6298030 118.3519130 106.4984710
  85.1659930 117.3802780 107.5627480  81.7524800 110.4685100 107.9219120
  82.1709680 110.2816080 107.0815780  81.4460860 109.6164150 108.2322050
  84.6414150 114.5280760 121.2534440  84.4100240 114.2993510 120.3532390
  84.9018700 115.4480310 121.2079330  68.0172440 112.8842740 109.6425960
  67.1136520 113.1472940 109.4677620  68.5013060 113.1553910 108.8625920
  84.5265490 113.6066730 114.9202160  85.0502970 113.1129380 114.2892330
  85.1124910 113.7417090 115.6649730  84.7055210 113.6906600 118.4421710
  83.7557920 113.6570140 118.5566700  84.8868220 114.6006710 118.2071480
  70.5599650 111.9408280 107.5520340  71.2691350 111.5191500 107.0667620
  69.8439590 112.0083510 106.9203690  84.0165460 112.8640080 110.8594570
  84.5124580 112.6310950 111.6443450  83.8181530 112.0251920 110.4432210
  85.4452620 111.5001030 113.3932250  85.3351900 111.3457070 114.3314520
  86.2060210 110.9721970 113.1507660  83.3499800 124.1411160 113.2533490
  83.9458870 123.8195730 112.5767910  83.6077950 123.6682980 114.0446760
  71.2562370 120.5729070 123.4024120  71.2132000 120.2021980 124.2838580
  71.3873380 121.5106640 123.5425940  71.0950400 123.5191320 120.5221900
  70.5010720 123.3876020 121.2611940  71.0874240 122.6829460 120.0564000
  83.9012010 124.7906460 117.0831220  83.4414980 125.5422270 116.7089240
  83.2724470 124.0712930 117.0246020  70.7262630 120.8849700 119.4729940
  69.9996690 120.2654990 119.4055890  70.7871780 121.2790310 118.6028020
  84.7039880 108.0631730 113.7202750  84.6428280 107.1192950 113.5733770
  85.4831910 108.1711820 114.2656210  69.6320650 108.0340870 110.1858560
  70.3900010 108.1469750 109.6122590  69.1697820 108.8710070 110.1401990
  77.1375590 124.9119290 124.4516530  78.0642900 124.6763560 124.4952490
  77.1226020 125.7391290 123.9702560  74.3239200 107.5764040 124.2158410
  74.0423470 108.0797640 123.4519230  74.7058900 106.7785790 123.8500540
  83.7053150 124.1389150 124.2757570  84.4978470 123.6438380 124.0683530
  83.9986300 124.8179290 124.8833180  71.9796680 117.1008920  97.9158650
  71.1481560 116.8457630  98.3155160  72.5877660 117.1719690  98.6516570
  71.9597940 121.1349010  98.1116670  72.2625980 120.2446750  97.9326890
  72.7041530 121.6919230  97.8838920  68.3521640 114.6616460  97.5840740
  68.9237750 113.8938660  97.5844380  68.3523180 114.9605220  96.6747350
  78.2101590 123.4807310  95.4386010  77.5913030 123.9364810  94.8680450
  79.0653370 123.6358770  95.0375710  73.9396700 117.8922420  99.5101520
  73.6066080 118.5191340 100.1522590  74.1163380 118.4184300  98.7303190
  73.1515800 119.8603220 101.3250700  73.7689800 120.5354300 101.0435150
  72.2908920 120.2691200 101.2338200  68.4448140 119.0503080  90.2057550
  68.0676120 119.5390180  89.4742450  68.7021210 119.7228360  90.8364080
  81.0037570 118.0716600  99.2833130  81.4206360 117.8576710  98.4486590
  81.7277390 118.3289390  99.8541750  84.9499670 116.4703820  99.3749370
  84.1218300 116.5396910  98.8999500  85.5450150 117.0558130  98.9065200
  74.5156170 119.7300600  97.3462120  74.2184460 119.1246070  96.6669900
  75.4655990 119.7677910  97.2351480  72.4345820 116.3395610 102.5727290
  72.2953590 117.2118410 102.9414690  71.5527180 115.9968420 102.4275230
  86.1840990 123.0644410 106.0776610  86.6600710 123.5427300 106.7565690
  86.8048150 122.9961900 105.3522110  68.3864470 118.1093160  98.4898200
  68.4644890 118.2441930  97.5453920  69.0006150 117.4009050  98.6826320
  69.6312100 119.8093350  94.9004380  69.2240180 119.9507940  94.0457980
  70.5225110 119.5253510  94.6975590  85.5874240 120.2557260 103.2376620
  85.7137300 120.0169140 102.3193800  85.6295620 119.4241800 103.7098700
  81.4245380 124.2440600  91.2355430  81.2646520 123.9543540  92.1337260
  81.2592090 123.4680730  90.7000660  81.1271510 121.7528160  89.7953430
  80.4336670 121.7505450  89.1355710  81.8694370 121.3287480  89.3647600
  80.6921440 123.3790870  93.8701920  81.1478390 122.5980250  94.1840540
  81.0313960 124.0897690  94.4143100  85.4398250 112.3089720 104.2026360
  84.8242520 112.8169390 103.6741820  85.1194670 111.4088050 104.1452300
  68.4423990 119.1507330 101.0292660  68.6055030 118.6812690 100.2112030
  68.9076440 118.6430890 101.6941500  79.5966790 113.8692310 104.8984000
  79.9220200 113.0356060 104.5586230  80.3847120 114.3920830 105.0462330
  77.1511780 110.7980880 105.6825270  76.4610100 110.6053080 106.3171360
  77.8944080 111.0815520 106.2149570  70.0162970 118.5258760 103.1888470
  69.6317760 117.8852430 103.7871430  70.3275160 119.2294880 103.7583200
  72.4841270 118.6204930  91.5848150  71.7103530 118.0802550  91.4246870
  73.2135900 118.1011540  91.2465910  78.6248050 117.6879350 103.2643540
  78.5585360 116.7675020 103.0101130  77.9953190 117.7854790 103.9788180
  72.5278670 118.2885310  95.2226960  73.0457340 117.4853570  95.1683850
  72.0762690 118.2264450  96.0643790  70.0123210 115.2546680 102.1352660
  69.6538150 115.9200530 102.7226000  69.7177770 114.4230230 102.5065280
  73.2136330 115.7130920 105.0192210  72.9136470 115.8588100 104.1220030
  73.9847570 115.1536210 104.9265600  78.5564780 120.5099920 103.0147340
  78.5709320 119.5780880 102.7966250  77.8489880 120.5959680 103.6537110
  84.7675990 117.1507260 102.3615920  84.0424180 117.7436040 102.1645310
  85.2951450 117.1430800 101.5629290  84.7189100 121.5482000  92.0128080
  84.0765260 120.8937620  92.2871800  84.3319760 121.9537090  91.2368750
  68.5231260 115.2537940  88.7587260  69.3926110 115.5362740  89.0423180
  68.0321580 116.0673810  88.6436070  79.2630760 120.1549840  98.8265290
  79.9052990 119.4543000  98.9397460  79.7880110 120.9348280  98.6462180
  83.1086480 120.4398460  88.5504430  82.8824060 119.7228900  89.1429070
  82.7182680 120.1910900  87.7126180  68.8902510 124.4665320  89.3248890
  69.2500150 125.0654660  88.6706160  68.7494850 125.0125210  90.0983920
  68.8744370 122.7320180 103.7991290  68.9835490 121.7914920 103.6586680
  68.2224930 122.9974930 103.1505020  70.5077770 117.0711410  90.8869320
  69.9005720 117.8110310  90.8964620  70.9827120 117.1610770  90.0607520
  72.5183060 117.0322560  88.6357890  73.2846330 116.9203920  89.1983320
  72.5957750 116.3360530  87.9834660  68.8990010 120.6816590  92.2966830
  67.9729790 120.9237730  92.2872240  69.3646440 121.5090850  92.1751580
  79.8567440 119.9068960 105.5586310  79.2505600 119.9300560 104.8182060
  79.5521550 119.1752000 106.0953560  84.1777010 123.0143460  89.6687630
  83.8918520 122.6008600  88.8541810  83.9796560 123.9431170  89.5488150
  68.7400620 116.2862550 104.5546950  69.2439640 115.7069830 105.1263180
  68.0008040 116.5702780 105.0923320  75.6424240 119.0076740  88.1093240
  75.5374880 118.3929090  88.8354620  75.4748460 118.4842630  87.3256250
  75.7938560 117.6933540 104.0882470  75.0284230 118.2618540 104.0037140
  75.9754520 117.4009750 103.1950700  78.8826970 118.0696770  88.7135230
  78.3337070 118.5166070  89.3577970  79.5046230 117.5646020  89.2372900
  82.9361910 119.4238870 104.6457490  83.6771380 119.7614630 104.1424950
  82.1734590 119.5930930 104.0927260  70.7723700 114.4292140 105.4497020
  70.8129040 114.1306010 106.3582250  71.6269200 114.8299750 105.2904540
  74.5502090 117.0287690  90.6100530  74.9718510 116.8627560  91.4531920
  74.6752930 116.2187920  90.1155670  81.6107570 117.4753700 103.1812700
  82.0248590 117.6298780 104.0303120  80.6758570 117.6008920 103.3438480
  82.0829740 114.8149860 105.1851850  82.6650510 114.0602180 105.0972330
  82.2591510 115.3457300 104.4083330  76.3722800 117.4274180 101.1508630
  76.7910910 118.2706910 100.9784870  75.4531430 117.5646220 100.9215410
  78.7086700 115.1590360 102.5346470  78.8282910 114.5631500 103.2741310
  79.5680700 115.1960050 102.1147770  80.2948900 111.3177520 104.0255310
  79.6064420 110.6559060 103.9605300  81.0154920 110.8715790 104.4703770
  77.6277760 124.1336910  90.1479370  78.5228550 124.4721880  90.1698130
  77.6595390 123.4116320  89.5203650  68.4819720 122.2952990  95.8286630
  68.8122730 121.4274050  95.5965270  68.9110720 122.5011510  96.6591590
  73.0781640 120.6262000  93.4888600  72.7777180 120.5026970  94.3892510
  72.9719130 119.7670590  93.0804330  85.8473560 120.4058400  88.1915280
  85.0166520 120.4735050  88.6622510  86.0245390 121.2962520  87.8882140
  68.8034360 115.6743810  94.9257140  68.1483200 115.4055450  94.2816840
  69.6412310 115.5648290  94.4759120  83.2923750 119.3892560 100.9521730
  82.4783590 119.8189720 101.2147520  83.6997950 120.0010970 100.3390780
  69.8410290 116.0596380  99.4660480  70.2083330 115.9723780 100.3456500
  69.2721110 115.2962930  99.3667340  69.3926290 112.9705470 103.3718900
  68.4982340 112.9372230 103.7112610  69.9323840 113.1692260 104.1370150
  83.3499800 124.1411160  94.4790000  83.9458870 123.8195730  93.8024420
  83.6077950 123.6682980  95.2703270  71.0950400 123.5191320 101.7478410
  70.5010720 123.3876020 102.4868450  71.0874240 122.6829460 101.2820510
  70.7262630 120.8849700 100.6986450  69.9996690 120.2654990 100.6312400
  70.7871780 121.2790310  99.8284530  69.0092630 124.2024090  93.9083210
  68.8414670 123.5694770  94.6065100  68.1427140 124.4083490  93.5577400
  70.6155330 122.8957320  91.3533350  70.0902950 123.2765350  90.6495310
  70.5399910 123.5208090  92.0743060  85.3720650 124.4544860  92.6747290
  85.5472840 123.7682600  92.0308210  84.6742220 124.9791910  92.2823960
  77.9630850 116.7889110  78.2639400  77.1872950 116.3089550  78.5537970
  78.6143780 116.1094760  78.0895560  71.9796680 117.1008920  79.1415160
  71.1481560 116.8457630  79.5411670  72.5877660 117.1719690  79.8773080
  81.9838280 121.1949300  77.0438530  81.5219810 120.4236540  77.3725700
  82.7963830 121.2215370  77.5490980  71.9597940 121.1349010  79.3373180
  72.2625980 120.2446750  79.1583400  72.7041530 121.6919230  79.1095430
  70.3888630 112.0610810  72.9257550  69.5005330 112.4026780  72.8237430
  70.6729820 111.8611130  72.0338380  68.3521640 114.6616460  78.8097250
  68.9237750 113.8938660  78.8100890  68.3523180 114.9605220  77.9003860
  69.5946510 110.0700820  80.5966180  69.4149350 109.1726570  80.8768940
  69.1926590 110.6172690  81.2713130  72.5650020 110.6442310  73.9595930
  72.6716770 111.5446040  74.2664690  71.6542380 110.5960280  73.6690580
  70.2133180 112.5661320  79.2048520  70.8943290 112.8299690  79.8235920
  69.8981230 111.7262190  79.5386530  74.4057750 113.6128680  78.2921110
  74.9135970 114.1109650  78.9326130  74.9370990 112.8363880  78.1160470
  79.0764940 118.3646550  74.0574430  78.4582210 118.8296000  73.4937150
  79.5888190 119.0574030  74.4743940  73.9396700 117.8922420  80.7358030
  73.6066080 118.5191340  81.3779100  74.1163380 118.4184300  79.9559700
  73.1515800 119.8603220  82.5507210  73.7689800 120.5354300  82.2691660
  72.2908920 120.2691200  82.4594710  68.4448140 119.0503080  71.4314060
  68.0676120 119.5390180  70.6998960  68.7021210 119.7228360  72.0620590
  84.0693390 121.3242630  80.4661850  83.3856910 121.9941740  80.4578520
  84.6087680 121.5223280  79.7006710  81.6052130 123.1686760  79.1807030
  81.6179290 122.7649050  78.3129290  81.0527350 123.9434050  79.0768460
  82.8997550 119.8902980  74.2697200  82.7893880 118.9477310  74.3946620
  82.8965800 120.2518620  75.1559960  81.0037570 118.0716600  80.5089640
  81.4206360 117.8576710  79.6743100  81.7277390 118.3289390  81.0798260
  78.4286910 111.7885300  70.6226850  77.4890580 111.9499260  70.7079310
  78.7470170 112.5070980  70.0762840  82.4715120 117.0788600  74.1294940
  81.8527540 116.7408150  73.4821240  82.4539570 116.4348360  74.8374130
  82.6041780 123.3032470  82.2341730  82.1272340 124.1104660  82.0414340
  81.9203570 122.6510800  82.3867940  80.6479820 116.3175410  71.1367690
  81.0873100 115.4797840  70.9905510  81.3608240 116.9504810  71.2231830
  72.4345820 116.3395610  83.7983800  72.2953590 117.2118410  84.1671200
  71.5527180 115.9968420  83.6531740  78.7575200 121.2571480  75.1048930
  79.1971110 121.9995810  74.6904320  78.6962090 121.4998050  76.0287890
  70.7479100 114.9378020  73.9086070  70.6276700 115.6640110  73.2967340
  70.4379990 114.1680930  73.4313980  86.1840990 123.0644410  87.3033120
  86.6600710 123.5427300  87.9822200  86.8048150 122.9961900  86.5778620
  68.3864470 118.1093160  79.7154710  68.4644890 118.2441930  78.7710430
  69.0006150 117.4009050  79.9082830  69.6312100 119.8093350  76.1260890
  69.2240180 119.9507940  75.2714490  70.5225110 119.5253510  75.9232100
  85.5874240 120.2557260  84.4633130  85.7137300 120.0169140  83.5450310
  85.6295620 119.4241800  84.9355210  81.1271510 121.7528160  71.0209940
  80.4336670 121.7505450  70.3612220  81.8694370 121.3287480  70.5904110
  80.6921440 123.3790870  75.0958430  81.1478390 122.5980250  75.4097050
  81.0313960 124.0897690  75.6399610  68.4423990 119.1507330  82.2549170
  68.6055030 118.6812690  81.4368540  68.9076440 118.6430890  82.9198010
  73.0056980 113.4046660  75.0190990  72.7797900 113.1883830  75.9237610
  72.2249510 113.8375120  74.6736960  67.8783780 108.6374370  77.8715120
  67.5896830 109.2077230  78.5840100  68.6229540 108.1578820  78.2346350
  71.7154520 111.1960010  77.1082400  71.3754570 111.6735240  77.8649450
  70.9531840 110.7425130  76.7483500  70.0162970 118.5258760  84.4144980
  69.6317760 117.8852430  85.0127940  70.3275160 119.2294880  84.9839710
  76.1660110 115.3735300  79.8953600  76.5330240 114.8993870  80.6414940
  75.9765170 116.2476870  80.2361940  69.0300600 110.1178990  76.0247070
  68.7447520 109.7534660  76.8625690  68.9679460 109.3859450  75.4110210
  72.4841270 118.6204930  72.8104660  71.7103530 118.0802550  72.6503380
  73.2135900 118.1011540  72.4722420  78.6248050 117.6879350  84.4900050
  78.5585360 116.7675020  84.2357640  77.9953190 117.7854790  85.2044690
  81.4187580 113.3827900  71.0422600  82.3067200 113.6945130  70.8673940
  81.3892670 112.5100150  70.6503180  72.5278670 118.2885310  76.4483470
  73.0457340 117.4853570  76.3940360  72.0762690 118.2264450  77.2900300
  77.4148170 119.5551590  71.7210770  77.7563870 120.2993820  71.2254090
  76.5860880 119.8682710  72.0835600  70.0123210 115.2546680  83.3609170
  69.6538150 115.9200530  83.9482510  69.7177770 114.4230230  83.7321790
  73.2136330 115.7130920  86.2448720  72.9136470 115.8588100  85.3476540
  73.9847570 115.1536210  86.1522110  83.6901850 114.6939740  70.5102460
  83.6065570 115.1253960  69.6598900  84.4096040 115.1538090  70.9429280
  84.7189100 121.5482000  73.2384590  84.0765260 120.8937620  73.5128310
  84.3319760 121.9537090  72.4625260  80.2975580 118.8767430  77.0856280
  80.6499400 118.2795560  76.4257650  79.4137910 118.5511660  77.2564530
  76.3838860 119.6365120  74.4926690  77.0709990 120.1834330  74.8734280
  75.5971280 120.1805850  74.5276300  83.1086480 120.4398460  69.7760940
  82.8824060 119.7228900  70.3685580  82.7182680 120.1910900  68.9382690
  68.8902510 124.4665320  70.5505400  69.2500150 125.0654660  69.8962670
  68.7494850 125.0125210  71.3240430  68.5871780 108.7439920  84.0381270
  67.8730300 108.9436840  84.6433880  69.0066820 107.9679490  84.4096070
  82.6902730 118.3570400  71.4375100  82.4024430 118.8183090  72.2252980
  83.4854900 117.8968170  71.7059320  68.8744370 122.7320180  85.0247800
  68.9835490 121.7914920  84.8843190  68.2224930 122.9974930  84.3761530
  74.9071130 121.8496520  71.3679070  74.8981230 122.5826210  70.7523580
  73.9869490 121.6028100  71.4606030  70.5077770 117.0711410  72.1125830
  69.9005720 117.8110310  72.1221130  70.9827120 117.1610770  71.2864030
  77.8930730 121.9124760  70.0304260  77.9942710 121.7088750  69.1006240
  76.9932470 121.6583040  70.2352040  73.6191640 110.7790200  71.3878870
  74.4682170 111.2160350  71.3219060  73.2522910 111.0910460  72.2150930
  84.5427000 122.5211810  77.9764700  84.6674420 123.3442980  78.4488510
  85.4092560 122.3102540  77.6288850  72.0144530 124.6143020  77.6481830
  72.7507010 124.0658480  77.9190400  72.3985450 125.4799030  77.5087820
  68.8990010 120.6816590  73.5223340  67.9729790 120.9237730  73.5128750
  69.3646440 121.5090850  73.4008090  81.2867810 123.6349250  85.3952230
  82.2389560 123.5507270  85.3452470  81.1396030 124.2990960  86.0686020
  84.1777010 123.0143460  70.8944140  83.8918520 122.6008600  70.0798320
  83.9796560 123.9431170  70.7744660  68.7400620 116.2862550  85.7803460
  69.2439640 115.7069830  86.3519690  68.0008040 116.5702780  86.3179830
  75.6424240 119.0076740  69.3349750  75.5374880 118.3929090  70.0611130
  75.4748460 118.4842630  68.5512760  75.7938560 117.6933540  85.3138980
  75.0284230 118.2618540  85.2293650  75.9754520 117.4009750  84.4207210
  78.8826970 118.0696770  69.9391740  78.3337070 118.5166070  70.5834480
  79.5046230 117.5646020  70.4629410  82.9361910 119.4238870  85.8714000
  83.6771380 119.7614630  85.3681460  82.1734590 119.5930930  85.3183770
  70.7723700 114.4292140  86.6753530  70.8129040 114.1306010  87.5838760
  71.6269200 114.8299750  86.5161050  74.5502090 117.0287690  71.8357040
  74.9718510 116.8627560  72.6788430  74.6752930 116.2187920  71.3412180
  77.0629730 116.0525300  69.0834140  77.5835390 115.3374320  68.7175290
  77.7098130 116.6911170  69.3834650  81.6107570 117.4753700  84.4069210
  82.0248590 117.6298780  85.2559630  80.6758570 117.6008920  84.5694990
  78.7086700 115.1590360  83.7602980  78.8282910 114.5631500  84.4997820
  79.5680700 115.1960050  83.3404280  72.2443790 110.2021540  68.7693080
  72.5469690 110.2088970  67.8612230  72.9838380 109.8519400  69.2660740
  75.4628720 109.1456160  69.7549280  75.1150720 108.4680150  69.1751730
  75.6641490 108.6845670  70.5692670  71.2673920 119.5063960  69.6022880
  71.7048790 120.0493630  70.2580460  71.7521650 118.6810910  69.6119220
  68.4819720 122.2952990  77.0543140  68.8122730 121.4274050  76.8221780
  68.9110720 122.5011510  77.8848100  73.0781640 120.6262000  74.7145110
  72.7777180 120.5026970  75.6149020  72.9719130 119.7670590  74.3060840
  68.9709930 123.1623580  79.7924770  68.5340920 123.3424380  80.6248920
  69.5387610 123.9198200  79.6506490  84.6072110 122.6640580  84.0802080
  84.0074100 122.7233140  83.3366000  84.7366010 121.7245560  84.2098930
  85.8473560 120.4058400  69.4171790  85.0166520 120.4735050  69.8879020
  86.0245390 121.2962520  69.1138650  85.3030020 117.1505880  71.9205990
  86.0648930 117.7202530  72.0265680  85.3184390 116.5833080  72.6914300
  83.2923750 119.3892560  82.1778240  82.4783590 119.8189720  82.4404030
  83.6997950 120.0010970  81.5647290  85.3549190 117.4440250  69.0778510
  85.6298030 118.3519130  68.9497730  85.1659930 117.3802780  70.0140500
  81.7524800 110.4685100  70.3732140  82.1709680 110.2816080  69.5328800
  81.4460860 109.6164150  70.6835070  69.8410290 116.0596380  80.6916990
  70.2083330 115.9723780  81.5713010  69.2721110 115.2962930  80.5923850
  69.3926290 112.9705470  84.5975410  68.4982340 112.9372230  84.9369120
  69.9323840 113.1692260  85.3626660  70.2073810 107.9947610  69.0436010
  70.9301940 108.5356550  69.3617230  70.4798330 107.7211030  68.1677550
  83.3499800 124.1411160  75.7046510  83.9458870 123.8195730  75.0280930
  83.6077950 123.6682980  76.4959780  86.2172560 124.1483040  82.2557500
  85.7230840 124.5451910  81.5384630  85.6085850 123.5232250  82.6494780
  71.0950400 123.5191320  82.9734920  70.5010720 123.3876020  83.7124960
  71.0874240 122.6829460  82.5077020  83.9012010 124.7906460  79.5344240
  83.4414980 125.5422270  79.1602260  83.2724470 124.0712930  79.4759040
  70.7262630 120.8849700  81.9242960  69.9996690 120.2654990  81.8568910
  70.7871780 121.2790310  81.0541040  74.3307730 123.0994700  78.7092370
  74.8472750 122.4882060  78.1840630  74.9805110 123.6023480  79.2003380
  69.0092630 124.2024090  75.1339720  68.8414670 123.5694770  75.8321610
  68.1427140 124.4083490  74.7833910  69.6320650 108.0340870  72.6371580
  70.3900010 108.1469750  72.0635610  69.1697820 108.8710070  72.5915010
  70.6155330 122.8957320  72.5789860  70.0902950 123.2765350  71.8751820
  70.5399910 123.5208090  73.2999570  72.0045800 108.5604920  71.1773550
  72.5338560 107.7734720  71.0481500  72.6374120 109.2396110  71.4109080
  85.3720650 124.4544860  73.9003800  85.5472840 123.7682600  73.2564720
  84.6742220 124.9791910  73.5080470  72.3763090 120.9604430  71.4585440
  71.7471970 121.4289530  72.0071270  72.4910920 120.1153650  71.8931630
  83.7053150 124.1389150  86.7270590  84.4978470 123.6438380  86.5196550
  83.9986300 124.8179290  87.3346200  68.3521640 114.6616460  60.0353760
  68.9237750 113.8938660  60.0357400  68.3523180 114.9605220  59.1260370
  69.5946510 110.0700820  61.8222690  69.4149350 109.1726570  62.1025450
  69.1926590 110.6172690  62.4969640  70.2133180 112.5661320  60.4305030
  70.8943290 112.8299690  61.0492430  69.8981230 111.7262190  60.7643040
  72.6893850 108.2527240  63.7841040  72.6912290 108.7699630  62.9786940
  71.8598160 107.7757420  63.7610970  72.3709180 109.9637200  61.7911490
  72.7125990 110.8079250  61.4965360  71.4324990 110.1120940  61.9076830
  72.7603090 112.8176250  61.4134970  73.3117680 112.9271590  60.6388220
  73.2746600 113.1913850  62.1290200  80.6479820 116.3175410  52.3624200
  81.0873100 115.4797840  52.2162020  81.3608240 116.9504810  52.4488340
  74.2326170 122.2817310  67.2325460  74.2041600 122.6860260  66.3653890
  74.0691140 121.3527670  67.0697060  85.4398250 112.3089720  66.6539380
  84.8242520 112.8169390  66.1254840  85.1194670 111.4088050  66.5965320
  79.5966790 113.8692310  67.3497020  79.9220200 113.0356060  67.0099250
  80.3847120 114.3920830  67.4975350  70.5766730 110.7145910  65.0641550
  70.1830120 111.5621120  65.2714330  69.8885130 110.0772280  65.2550190
  83.3171410 107.5045180  66.2201530  83.6417180 106.7734840  66.7459510
  83.3527920 107.1858820  65.3182520  81.4187580 113.3827900  52.2679110
  82.3067200 113.6945130  52.0930450  81.3892670 112.5100150  51.8759690
  70.0123210 115.2546680  64.5865680  69.6538150 115.9200530  65.1739020
  69.7177770 114.4230230  64.9578300  78.5564780 120.5099920  65.4660360
  78.5709320 119.5780880  65.2479270  77.8489880 120.5959680  66.1050130
  83.6901850 114.6939740  51.7358970  83.6065570 115.1253960  50.8855410
  84.4096040 115.1538090  52.1685790  68.5871780 108.7439920  65.2637780
  67.8730300 108.9436840  65.8690390  69.0066820 107.9679490  65.6352580
  76.8656960 121.0036070  67.6502430  76.5453830 120.2845310  68.1948120
  76.1915320 121.6791140  67.7238490  83.4472590 110.1919170  53.8226790
  82.8185750 110.2964840  53.1085020  82.9524510 110.4115950  54.6120670
  71.0202810 123.7989090  68.0623920  71.8215540 124.1201140  68.4759320
  70.5054630 123.4384670  68.7843830  79.8567440 119.9068960  68.0099330
  79.2505600 119.9300560  67.2695080  79.5521550 119.1752000  68.5466580
  75.6424240 119.0076740  50.5606260  75.5374880 118.3929090  51.2867640
  75.4748460 118.4842630  49.7769270  82.9361910 119.4238870  67.0970510
  83.6771380 119.7614630  66.5937970  82.1734590 119.5930930  66.5440280
  74.5502090 117.0287690  53.0613550  74.9718510 116.8627560  53.9044940
  74.6752930 116.2187920  52.5668690  72.7129510 113.0084240  65.8684530
  72.1825970 112.5175190  65.2407870  73.3817580 113.4368440  65.3342460
  77.0629730 116.0525300  50.3090650  77.5835390 115.3374320  49.9431800
  77.7098130 116.6911170  50.6091160  81.6107570 117.4753700  65.6325720
  82.0248590 117.6298780  66.4816140  80.6758570 117.6008920  65.7951500
  82.0829740 114.8149860  67.6364870  82.6650510 114.0602180  67.5485350
  82.2591510 115.3457300  66.8596350  73.2001810 109.9746610  65.9481820
  73.1058680 109.3567360  65.2232690  72.6199200 110.7012900  65.7211730
  73.4460990 113.1020920  50.0071710  73.2450050 112.2388280  50.3685050
  73.2753040 113.0154280  49.0693310  74.2230220 123.7327190  64.7179380
  73.6851310 124.4573250  64.3988080  74.4764180 123.2557530  63.9276720
  75.4755470 111.7011710  66.2435310  76.0655160 111.3927560  66.9313130
  74.6575710 111.2291460  66.3995210  77.0792430 124.9678400  64.9766030
  77.0051130 125.8713540  65.2838400  76.1771270 124.6490300  64.9488100
  81.7524800 110.4685100  51.5988650  82.1709680 110.2816080  50.7585310
  81.4460860 109.6164150  51.9091580  69.8410290 116.0596380  61.9173500
  70.2083330 115.9723780  62.7969520  69.2721110 115.2962930  61.8180360
  83.0802220 109.7537190  67.7083670  83.9572400 109.7620590  68.0917670
  83.0923060 109.0168030  67.0976020  84.0165460 112.8640080  54.5364100
  84.5124580 112.6310950  55.3212980  83.8181530 112.0251920  54.1201740
  83.7918340 107.4395160  63.5284780  84.4290560 108.0529300  63.8943970
  83.9393230 107.4755820  62.5834010  69.6498000 107.4009470  62.9140460
  69.3012820 107.8573290  63.6798640  69.3185700 106.5066600  62.9962890
  71.2562370 120.5729070  67.0793650  71.2132000 120.2021980  67.9608110
  71.3873380 121.5106640  67.2195470  70.3218640 106.9285670  66.1891230
  70.8701630 106.7473720  65.4257340  70.3873950 106.1379780  66.7247540
  77.0703230 123.9903190  60.7617860  77.3581040 123.7357490  59.8850870
  77.5826450 123.4380550  61.3523430  82.8401310 108.4316490  59.3863460
  83.2809400 108.3761590  58.5385060  82.5708900 109.3474500  59.4573640
  84.7039880 108.0631730  57.3972280  84.6428280 107.1192950  57.2503300
  85.4831910 108.1711820  57.9425740  69.6320650 108.0340870  53.8628090
  70.3900010 108.1469750  53.2892120  69.1697820 108.8710070  53.8171520
  77.1375590 124.9119290  68.1286060  78.0642900 124.6763560  68.1722020
  77.1226020 125.7391290  67.6472090  74.3239200 107.5764040  67.8927940
  74.0423470 108.0797640  67.1288760  74.7058900 106.7785790  67.5270070
  80.9254660 106.9917620  68.4708410  80.8120110 107.3112230  69.3659930
  81.7424400 107.3930130  68.1745690  70.3888630 112.0610810  35.3770570
  69.5005330 112.4026780  35.2750450  70.6729820 111.8611130  34.4851400
  69.5946510 110.0700820  43.0479200  69.4149350 109.1726570  43.3281960
  69.1926590 110.6172690  43.7226150  72.5650020 110.6442310  36.4108950
  72.6716770 111.5446040  36.7177710  71.6542380 110.5960280  36.1203600
  82.2169130 109.7667120  37.8819850  83.0378750 109.2763690  37.9245330
  82.2503210 110.3564780  38.6351690  86.5068680 111.7833870  44.4463480
  85.8020850 112.1715580  43.9278590  86.7726600 112.4784160  45.0484410
  72.6893850 108.2527240  45.0097550  72.6912290 108.7699630  44.2043450
  71.8598160 107.7757420  44.9867480  72.3709180 109.9637200  43.0168000
  72.7125990 110.8079250  42.7221870  71.4324990 110.1120940  43.1333340
  73.1515800 119.8603220  45.0020230  73.7689800 120.5354300  44.7204680
  72.2908920 120.2691200  44.9107730  85.5217530 111.1522290  41.0456600
  84.5742440 111.1861270  41.1772030  85.8467520 111.9661240  41.4305960
  76.0537070 107.4519470  39.3412590  76.3612050 106.8966360  38.6248090
  75.1237770 107.5863930  39.1585580  73.6074600 119.4682290  47.6739450
  72.7103130 119.6922260  47.9212850  73.6327470 119.5917230  46.7250850
  70.7479100 114.9378020  36.3599090  70.6276700 115.6640110  35.7480360
  70.4379990 114.1680930  35.8827000  80.6921440 123.3790870  37.5471450
  81.1478390 122.5980250  37.8610070  81.0313960 124.0897690  38.0912630
  73.2142760 108.2813090  39.7422760  72.7710910 109.0622630  39.4107280
  73.7727750 108.6042980  40.4493700  82.5017080 112.3690560  46.4754740
  81.6510670 112.0696310  46.7963810  82.3418870 112.6132570  45.5638560
  79.5966790 113.8692310  48.5753530  79.9220200 113.0356060  48.2355760
  80.3847120 114.3920830  48.7231860  75.2518660 108.8260420  41.6012360
  75.5490990 109.7323250  41.5204380  75.8004220 108.3379200  40.9871930
  73.0056980 113.4046660  37.4704010  72.7797900 113.1883830  38.3750630
  72.2249510 113.8375120  37.1249980  75.4456190 114.3032240  48.1364280
  75.3499790 113.3626970  47.9864680  76.2888170 114.5247310  47.7412350
  70.5766730 110.7145910  46.2898060  70.1830120 111.5621120  46.4970840
  69.8885130 110.0772280  46.4806700  77.1511780 110.7980880  49.3594800
  76.4610100 110.6053080  49.9940890  77.8944080 111.0815520  49.8919100
  67.8783780 108.6374370  40.3228140  67.5896830 109.2077230  41.0353120
  68.6229540 108.1578820  40.6859370  71.7154520 111.1960010  39.5595420
  71.3754570 111.6735240  40.3162470  70.9531840 110.7425130  39.1996520
  83.3171410 107.5045180  47.4458040  83.6417180 106.7734840  47.9716020
  83.3527920 107.1858820  46.5439030  70.0162970 118.5258760  46.8658000
  69.6317760 117.8852430  47.4640960  70.3275160 119.2294880  47.4352730
  69.0300600 110.1178990  38.4760090  68.7447520 109.7534660  39.3138710
  68.9679460 109.3859450  37.8623230  78.6248050 117.6879350  46.9413070
  78.5585360 116.7675020  46.6870660  77.9953190 117.7854790  47.6557710
  81.4187580 113.3827900  33.4935620  82.3067200 113.6945130  33.3186960
  81.3892670 112.5100150  33.1016200  73.2136330 115.7130920  48.6961740
  72.9136470 115.8588100  47.7989560  73.9847570 115.1536210  48.6035130
  83.6901850 114.6939740  32.9615480  83.6065570 115.1253960  32.1111920
  84.4096040 115.1538090  33.3942300  84.7675990 117.1507260  46.0385450
  84.0424180 117.7436040  45.8414840  85.2951450 117.1430800  45.2398820
  68.5871780 108.7439920  46.4894290  67.8730300 108.9436840  47.0946900
  69.0066820 107.9679490  46.8609090  68.8744370 122.7320180  47.4760820
  68.9835490 121.7914920  47.3356210  68.2224930 122.9974930  46.8274550
  76.8656960 121.0036070  48.8758940  76.5453830 120.2845310  49.4204630
  76.1915320 121.6791140  48.9495000  79.4472050 109.1955780  37.9036970
  79.3239830 109.2141910  36.9546480  80.3956610 109.2434720  38.0235370
  76.5348840 124.4311080  37.1764950  76.7890340 124.3932470  36.2544320
  75.5861320 124.3044410  37.1693200  84.2479410 110.1069780  45.3062100
  83.7453010 110.8475180  45.6455910  85.0636070 110.4953780  44.9898890
  68.8990010 120.6816590  35.9736360  67.9729790 120.9237730  35.9641770
  69.3646440 121.5090850  35.8521110  75.1246840 123.7873330  31.9220420
  75.9175450 124.0762160  31.4702210  74.6051190 123.3565500  31.2432900
  75.7938560 117.6933540  47.7652000  75.0284230 118.2618540  47.6806670
  75.9754520 117.4009750  46.8720230  82.9361910 119.4238870  48.3227020
  83.6771380 119.7614630  47.8194480  82.1734590 119.5930930  47.7696790
  72.7129510 113.0084240  47.0941040  72.1825970 112.5175190  46.4664380
  73.3817580 113.4368440  46.5598970  81.6107570 117.4753700  46.8582230
  82.0248590 117.6298780  47.7072650  80.6758570 117.6008920  47.0208010
  82.0829740 114.8149860  48.8621380  82.6650510 114.0602180  48.7741860
  82.2591510 115.3457300  48.0852860  73.2001810 109.9746610  47.1738330
  73.1058680 109.3567360  46.4489200  72.6199200 110.7012900  46.9468240
  75.9663250 108.5319850  44.2065720  75.5180550 108.5544110  43.3611270
  75.3328450 108.1338870  44.8036020  75.4755470 111.7011710  47.4691820
  76.0655160 111.3927560  48.1569640  74.6575710 111.2291460  47.6251720
  80.2948900 111.3177520  47.7024840  79.6064420 110.6559060  47.6374830
  81.0154920 110.8715790  48.1473300  80.9249300 107.9129150  33.7615100
  81.2051590 107.0697050  34.1174520  80.1515030 108.1452260  34.2753850
  77.6277760 124.1336910  33.8248900  78.5228550 124.4721880  33.8467660
  77.6595390 123.4116320  33.1973180  68.4819720 122.2952990  39.5056160
  68.8122730 121.4274050  39.2734800  68.9110720 122.5011510  40.3361120
  68.9709930 123.1623580  42.2437790  68.5340920 123.3424380  43.0761940
  69.5387610 123.9198200  42.1019510  85.8473560 120.4058400  31.8684810
  85.0166520 120.4735050  32.3392040  86.0245390 121.2962520  31.5651670
  85.3030020 117.1505880  34.3719010  86.0648930 117.7202530  34.4778700
  85.3184390 116.5833080  35.1427320  85.3549190 117.4440250  31.5291530
  85.6298030 118.3519130  31.4010750  85.1659930 117.3802780  32.4653520
  84.6414150 114.5280760  46.1560480  84.4100240 114.2993510  45.2558430
  84.9018700 115.4480310  46.1105370  69.3926290 112.9705470  47.0488430
  68.4982340 112.9372230  47.3882140  69.9323840 113.1692260  47.8139680
  84.7055210 113.6906600  43.3447750  83.7557920 113.6570140  43.4592740
  84.8868220 114.6006710  43.1097520  70.2073810 107.9947610  31.4949030
  70.9301940 108.5356550  31.8130250  70.4798330 107.7211030  30.6190570
  69.8966000 107.2453800  41.3971650  70.5442190 106.6951180  40.9566810
  70.3167840 107.4996950  42.2187460  85.4452620 111.5001030  38.2958290
  85.3351900 111.3457070  39.2340560  86.2060210 110.9721970  38.0533700
  69.6498000 107.4009470  44.1396970  69.3012820 107.8573290  44.9055150
  69.3185700 106.5066600  44.2219400  71.2562370 120.5729070  48.3050160
  71.2132000 120.2021980  49.1864620  71.3873380 121.5106640  48.4451980
  77.1622820 108.5921350  47.6616390  77.1011710 109.1843180  48.4111800
  78.1023200 108.4847310  47.5166650  79.7997380 108.2491410  47.3008680
  80.4137790 108.5670700  46.6389760  80.3446940 107.7640000  47.9204540
  71.0950400 123.5191320  45.4247940  70.5010720 123.3876020  46.1637980
  71.0874240 122.6829460  44.9590040  80.5405420 106.8123550  43.6277970
  79.6665260 107.1458660  43.4250900  80.4316170 106.3396730  44.4529840
  81.4477400 109.0194420  45.0119690  81.1190760 108.2046180  44.6321420
  82.3959700 108.9764230  44.8885380  70.7262630 120.8849700  44.3755980
  69.9996690 120.2654990  44.3081930  70.7871780 121.2790310  43.5054060
  78.2880240 107.7293390  42.5670880  77.5052030 108.2038890  42.8467640
  77.9943170 106.8248220  42.4584060  82.8401310 108.4316490  40.6119970
  83.2809400 108.3761590  39.7641570  82.5708900 109.3474500  40.6830150
  84.7039880 108.0631730  38.6228790  84.6428280 107.1192950  38.4759810
  85.4831910 108.1711820  39.1682250  69.6320650 108.0340870  35.0884600
  70.3900010 108.1469750  34.5148630  69.1697820 108.8710070  35.0428030
  76.1734460 110.1480140  38.0786910  75.3608970 109.7737030  37.7382790
  76.6776100 109.3925220  38.3808100  80.6759440 106.8122590  39.3169980
  81.2788810 107.3842800  39.7918500  79.9352430 107.3762030  39.0943880
  74.1983640 108.2980060  36.6831960  73.5686380 107.5967370  36.8502090
  73.6588780 109.0584190  36.4665120  80.9254660 106.9917620  49.6964920
  80.8120110 107.3112230  50.5916440  81.7424400 107.3930130  49.4002200
  79.8312810 115.0110090  20.0599660  79.7506860 114.0964700  19.7891370
  79.4177230 115.5077160  19.3539370  77.9630850 116.7889110  21.9408930
  77.1872950 116.3089550  22.2307500  78.6143780 116.1094760  21.7665090
  71.9796680 117.1008920  22.8184690  71.1481560 116.8457630  23.2181200
  72.5877660 117.1719690  23.5542610  81.9838280 121.1949300  20.7208060
  81.5219810 120.4236540  21.0495230  82.7963830 121.2215370  21.2260510
  71.9597940 121.1349010  23.0142710  72.2625980 120.2446750  22.8352930
  72.7041530 121.6919230  22.7864960  70.3888630 112.0610810  16.6027080
  69.5005330 112.4026780  16.5006960  70.6729820 111.8611130  15.7107910
  68.3521640 114.6616460  22.4866780  68.9237750 113.8938660  22.4870420
  68.3523180 114.9605220  21.5773390  78.2101590 123.4807310  20.3412050
  77.5913030 123.9364810  19.7706490  79.0653370 123.6358770  19.9401750
  77.4039840 119.4646300  21.9479090  77.3348120 118.5236240  21.7868220
  78.1659700 119.5547710  22.5201660  78.4345010 112.2716680  22.1748020
  78.8109830 111.3988560  22.0621690  78.3364520 112.6075380  21.2838460
  72.5650020 110.6442310  17.6365460  72.6716770 111.5446040  17.9434220
  71.6542380 110.5960280  17.3460110  82.2169130 109.7667120  19.1076360
  83.0378750 109.2763690  19.1501840  82.2503210 110.3564780  19.8608200
  70.2133180 112.5661320  22.8818050  70.8943290 112.8299690  23.5005450
  69.8981230 111.7262190  23.2156060  74.4057750 113.6128680  21.9690640
  74.9135970 114.1109650  22.6095660  74.9370990 112.8363880  21.7930000
  86.5068680 111.7833870  25.6719990  85.8020850 112.1715580  25.1535100
  86.7726600 112.4784160  26.2740920  72.6893850 108.2527240  26.2354060
  72.6912290 108.7699630  25.4299960  71.8598160 107.7757420  26.2123990
  79.0764940 118.3646550  17.7343960  78.4582210 118.8296000  17.1706680
  79.5888190 119.0574030  18.1513470  73.9396700 117.8922420  24.4127560
  73.6066080 118.5191340  25.0548630  74.1163380 118.4184300  23.6329230
  82.4530610 111.7067500  21.8803900  81.7486180 111.9952390  22.4607010
  82.8142770 112.5167610  21.5203460  72.3709180 109.9637200  24.2424510
  72.7125990 110.8079250  23.9478380  71.4324990 110.1120940  24.3589850
  73.1515800 119.8603220  26.2276740  73.7689800 120.5354300  25.9461190
  72.2908920 120.2691200  26.1364240  68.4448140 119.0503080  15.1083590
  68.0676120 119.5390180  14.3768490  68.7021210 119.7228360  15.7390120
  84.0693390 121.3242630  24.1431380  83.3856910 121.9941740  24.1348050
  84.6087680 121.5223280  23.3776240  85.5217530 111.1522290  22.2713110
  84.5742440 111.1861270  22.4028540  85.8467520 111.9661240  22.6562470
  76.0537070 107.4519470  20.5669100  76.3612050 106.8966360  19.8504600
  75.1237770 107.5863930  20.3842090  81.6052130 123.1686760  22.8576560
  81.6179290 122.7649050  21.9898820  81.0527350 123.9434050  22.7537990
  82.8997550 119.8902980  17.9466730  82.7893880 118.9477310  18.0716150
  82.8965800 120.2518620  18.8329490  81.0037570 118.0716600  24.1859170
  81.4206360 117.8576710  23.3512630  81.7277390 118.3289390  24.7567790
  78.4417830 115.5168300  17.3029220  77.5147110 115.4505680  17.5317690
  78.5942650 116.4548430  17.1884460  78.4286910 111.7885300  14.2996380
  77.4890580 111.9499260  14.3848840  78.7470170 112.5070980  13.7532370
  84.9499670 116.4703820  24.2775410  84.1218300 116.5396910  23.8025540
  85.5450150 117.0558130  23.8091240  82.4715120 117.0788600  17.8064470
  81.8527540 116.7408150  17.1590770  82.4539570 116.4348360  18.5143660
  81.9141680 113.2573140  25.2230280  81.5012860 114.0826850  25.4770270
  81.1817630 112.6718180  25.0306640  74.0474470 116.0433040  20.0848950
  73.6431470 115.3310290  19.5894850  74.1337590 115.6986280  20.9736990
  74.5156170 119.7300600  22.2488160  74.2184460 119.1246070  21.5695940
  75.4655990 119.7677910  22.1377520  72.7603090 112.8176250  23.8647990
  73.3117680 112.9271590  23.0901240  73.2746600 113.1913850  24.5803220
  82.6041780 123.3032470  25.9111260  82.1272340 124.1104660  25.7183870
  81.9203570 122.6510800  26.0637470  80.6479820 116.3175410  14.8137220
  81.0873100 115.4797840  14.6675040  81.3608240 116.9504810  14.9001360
  78.7575200 121.2571480  18.7818460  79.1971110 121.9995810  18.3673850
  78.6962090 121.4998050  19.7057420  74.2326170 122.2817310  29.6838480
  74.2041600 122.6860260  28.8166910  74.0691140 121.3527670  29.5210080
  84.2296960 107.5718220  13.1278260  83.9169620 107.6645050  14.0277330
  84.9909430 108.1499250  13.0775690  70.7479100 114.9378020  17.5855600
  70.6276700 115.6640110  16.9736870  70.4379990 114.1680930  17.1083510
  86.1840990 123.0644410  30.9802650  86.6600710 123.5427300  31.6591730
  86.8048150 122.9961900  30.2548150  68.3864470 118.1093160  23.3924240
  68.4644890 118.2441930  22.4479960  69.0006150 117.4009050  23.5852360
  69.6312100 119.8093350  19.8030420  69.2240180 119.9507940  18.9484020
  70.5225110 119.5253510  19.6001630  85.5874240 120.2557260  28.1402660
  85.7137300 120.0169140  27.2219840  85.6295620 119.4241800  28.6124740
  79.4490980 123.9585260  26.7097470  79.9635650 123.8693270  27.5119900
  78.6060060 124.3044960  27.0025380  81.4245380 124.2440600  16.1381470
  81.2646520 123.9543540  17.0363300  81.2592090 123.4680730  15.6026700
  73.9033760 124.0239130  17.9153090  73.7276240 123.1074670  17.7020890
  73.0489500 124.3826420  18.1550890  81.1271510 121.7528160  14.6979470
  80.4336670 121.7505450  14.0381750  81.8694370 121.3287480  14.2673640
  80.6921440 123.3790870  18.7727960  81.1478390 122.5980250  19.0866580
  81.0313960 124.0897690  19.3169140  68.4423990 119.1507330  25.9318700
  68.6055030 118.6812690  25.1138070  68.9076440 118.6430890  26.5967540
  73.2142760 108.2813090  20.9679270  72.7710910 109.0622630  20.6363790
  73.7727750 108.6042980  21.6750210  77.5012570 111.1481610  26.5714590
  77.0391940 111.3564630  27.3834530  77.0990680 110.3340960  26.2685260
  82.5017080 112.3690560  27.7011250  81.6510670 112.0696310  28.0220320
  82.3418870 112.6132570  26.7895070  79.5966790 113.8692310  29.8010040
  79.9220200 113.0356060  29.4612270  80.3847120 114.3920830  29.9488370
  76.3301580 107.9023790  15.8485100  75.7055760 107.8983660  16.5738410
  76.2431700 107.0354750  15.4521070  75.2518660 108.8260420  22.8268870
  75.5490990 109.7323250  22.7460890  75.8004220 108.3379200  22.2128440
  73.0056980 113.4046660  18.6960520  72.7797900 113.1883830  19.6007140
  72.2249510 113.8375120  18.3506490  80.2354740 113.4110030  17.2951170
  79.6363630 114.1345830  17.1114790  80.7834350 113.3486810  16.5127620
  78.8419610 112.0473570  19.3254450  79.2349180 112.3645770  18.5123140
  79.2036460 111.1685450  19.4398970  70.5766730 110.7145910  27.5154570
  70.1830120 111.5621120  27.7227350  69.8885130 110.0772280  27.7063210
  67.8783780 108.6374370  21.5484650  67.5896830 109.2077230  22.2609630
  68.6229540 108.1578820  21.9115880  68.0654010 112.5794490  12.7587370
  67.9828680 113.5225250  12.9002360  67.7137070 112.4369400  11.8799720
  79.4274750 114.6379320  23.4205230  78.6955870 115.1466130  23.7695330
  79.0299090 113.8209300  23.1194010  75.8652140 111.3133520  21.8257720
  75.8688200 110.8723470  20.9762260  76.7603260 111.6350850  21.9329540
  71.7154520 111.1960010  20.7851930  71.3754570 111.6735240  21.5418980
  70.9531840 110.7425130  20.4253030  75.9272290 112.3145600  14.8164480
  76.0485110 112.2732080  15.7650300  75.5420800 113.1769750  14.6611210
  79.8900660 110.0913000  22.8328170  79.9073400 110.5421650  23.6770020
  79.6416240 109.1918640  23.0461610  74.9393790 114.6246740  14.2147780
  74.3710690 114.1764990  13.5883690  75.6482790 114.9839520  13.6812930
  83.3171410 107.5045180  28.6714550  83.6417180 106.7734840  29.1972530
  83.3527920 107.1858820  27.7695540  70.0162970 118.5258760  28.0914510
  69.6317760 117.8852430  28.6897470  70.3275160 119.2294880  28.6609240
  76.1660110 115.3735300  23.5723130  76.5330240 114.8993870  24.3184470
  75.9765170 116.2476870  23.9131470  69.0300600 110.1178990  19.7016600
  68.7447520 109.7534660  20.5395220  68.9679460 109.3859450  19.0879740
  73.9559480 114.4143940  25.8907340  73.6516550 115.2935920  26.1157700
  74.9105940 114.4743730  25.9264780  72.4841270 118.6204930  16.4874190
  71.7103530 118.0802550  16.3272910  73.2135900 118.1011540  16.1491950
  83.2429250 117.6170290  22.2800580  83.9628370 118.1125580  21.8896690
  83.0411070 116.9388180  21.6354450  78.7039190 109.0108250  16.4229970
  77.8903800 108.5121420  16.3475280  78.5101140 109.8506500  16.0066320
  81.4187580 113.3827900  14.7192130  82.3067200 113.6945130  14.5443470
  81.3892670 112.5100150  14.3272710  72.5278670 118.2885310  20.1253000
  73.0457340 117.4853570  20.0709890  72.0762690 118.2264450  20.9669830
  77.4148170 119.5551590  15.3980300  77.7563870 120.2993820  14.9023620
  76.5860880 119.8682710  15.7605130  83.6901850 114.6939740  14.1871990
  83.6065570 115.1253960  13.3368430  84.4096040 115.1538090  14.6198810
  84.7675990 117.1507260  27.2641960  84.0424180 117.7436040  27.0671350
  85.2951450 117.1430800  26.4655330  84.7189100 121.5482000  16.9154120
  84.0765260 120.8937620  17.1897840  84.3319760 121.9537090  16.1394790
  80.2975580 118.8767430  20.7625810  80.6499400 118.2795560  20.1027180
  79.4137910 118.5511660  20.9334060  76.3838860 119.6365120  18.1696220
  77.0709990 120.1834330  18.5503810  75.5971280 120.1805850  18.2045830
  68.5231260 115.2537940  13.6613300  69.3926110 115.5362740  13.9449220
  68.0321580 116.0673810  13.5462110  75.6866070 116.6411150  17.7821580
  76.1428850 117.4516400  18.0081770  75.3354280 116.3234290  18.6140070
  77.9898680 122.1517490  25.0113880  78.6340900 122.3576870  25.6887300
  78.3528120 121.3905890  24.5584730  71.5877850 106.9848800  18.2544100
  71.4592480 106.9766700  19.2029020  70.7639870 107.3231890  17.9035110
  79.2630760 120.1549840  23.7291330  79.9052990 119.4543000  23.8423500
  79.7880110 120.9348280  23.5488220  83.1086480 120.4398460  13.4530470
  82.8824060 119.7228900  14.0455110  82.7182680 120.1910900  12.6152220
  81.0368380 120.9544740  26.9327390  81.3724620 121.5411430  27.6105310
  80.1168720 120.8237450  27.1625180  68.8902510 124.4665320  14.2274930
  69.2500150 125.0654660  13.5732200  68.7494850 125.0125210  15.0009960
  82.6902730 118.3570400  15.1144630  82.4024430 118.8183090  15.9022510
  83.4854900 117.8968170  15.3828850  68.8744370 122.7320180  28.7017330
  68.9835490 121.7914920  28.5612720  68.2224930 122.9974930  28.0531060
  74.9071130 121.8496520  15.0448600  74.8981230 122.5826210  14.4293110
  73.9869490 121.6028100  15.1375560  70.5077770 117.0711410  15.7895360
  69.9005720 117.8110310  15.7990660  70.9827120 117.1610770  14.9633560
  80.0810560 111.2362230  25.4652250  80.4491380 110.4157440  25.7931820
  79.2208760 111.2964120  25.8807900  83.4472590 110.1919170  16.2739810
  82.8185750 110.2964840  15.5598040  82.9524510 110.4115950  17.0633690
  77.8930730 121.9124760  13.7073790  77.9942710 121.7088750  12.7775770
  76.9932470 121.6583040  13.9121570  75.4156620 112.4705120  17.6897690
  74.7072770 112.9391460  18.1311300  75.7001100 111.8127130  18.3242880
  77.0412550 113.8901820  25.6890220  77.5397800 114.3647640  26.3542070
  77.1835500 112.9665340  25.8960250  79.4472050 109.1955780  19.1293480
  79.3239830 109.2141910  18.1802990  80.3956610 109.2434720  19.2491880
  76.5348840 124.4311080  18.4021460  76.7890340 124.3932470  17.4800830
  75.5861320 124.3044410  18.3949710  73.6191640 110.7790200  15.0648400
  74.4682170 111.2160350  14.9988590  73.2522910 111.0910460  15.8920460
  84.2479410 110.1069780  26.5318610  83.7453010 110.8475180  26.8712420
  85.0636070 110.4953780  26.2155400  82.5401420 115.3502960  19.9779970
  81.5991560 115.3653190  20.1527660  82.8545490 114.5638920  20.4240270
  72.5183060 117.0322560  13.5383930  73.2846330 116.9203920  14.1009360
  72.5957750 116.3360530  12.8860700  71.2129820 114.4647630  14.2216820
  71.2933410 113.5175140  14.3334220  72.1049570 114.7954510  14.3277480
  84.5427000 122.5211810  21.6534230  84.6674420 123.3442980  22.1258040
  85.4092560 122.3102540  21.3058380  72.0144530 124.6143020  21.3251360
  72.7507010 124.0658480  21.5959930  72.3985450 125.4799030  21.1857350
  68.8990010 120.6816590  17.1992870  67.9729790 120.9237730  17.1898280
  69.3646440 121.5090850  17.0777620  71.0202810 123.7989090  30.5136940
  71.8215540 124.1201140  30.9272340  70.5054630 123.4384670  31.2356850
  75.1246840 123.7873330  13.1476930  75.9175450 124.0762160  12.6958720
  74.6051190 123.3565500  12.4689410  81.2867810 123.6349250  29.0721760
  82.2389560 123.5507270  29.0222000  81.1396030 124.2990960  29.7455550
  84.1777010 123.0143460  14.5713670  83.8918520 122.6008600  13.7567850
  83.9796560 123.9431170  14.4514190  75.6424240 119.0076740  13.0119280
  75.5374880 118.3929090  13.7380660  75.4748460 118.4842630  12.2282290
  78.8826970 118.0696770  13.6161270  78.3337070 118.5166070  14.2604010
  79.5046230 117.5646020  14.1398940  82.9361910 119.4238870  29.5483530
  83.6771380 119.7614630  29.0450990  82.1734590 119.5930930  28.9953300
  74.5502090 117.0287690  15.5126570  74.9718510 116.8627560  16.3557960
  74.6752930 116.2187920  15.0181710  77.0629730 116.0525300  12.7603670
  77.5835390 115.3374320  12.3944820  77.7098130 116.6911170  13.0604180
  81.6107570 117.4753700  28.0838740  82.0248590 117.6298780  28.9329160
  80.6758570 117.6008920  28.2464520  82.0829740 114.8149860  30.0877890
  82.6650510 114.0602180  29.9998370  82.2591510 115.3457300  29.3109370
  73.2001810 109.9746610  28.3994840  73.1058680 109.3567360  27.6745710
  72.6199200 110.7012900  28.1724750  75.9663250 108.5319850  25.4322230
  75.5180550 108.5544110  24.5867780  75.3328450 108.1338870  26.0292530
  76.3722800 117.4274180  26.0534670  76.7910910 118.2706910  25.8810910
  75.4531430 117.5646220  25.8241450  78.7086700 115.1590360  27.4372510
  78.8282910 114.5631500  28.1767350  79.5680700 115.1960050  27.0173810
  81.0474600 115.7127550  26.0135020  80.5209820 116.2370170  25.4100160
  81.3905940 116.3454940  26.6444750  73.4460990 113.1020920  12.4584730
  73.2450050 112.2388280  12.8198070  73.2753040 113.0154280  11.5206330
  74.2230220 123.7327190  27.1692400  73.6851310 124.4573250  26.8501100
  74.4764180 123.2557530  26.3789740  75.4755470 111.7011710  28.6948330
  76.0655160 111.3927560  29.3826150  74.6575710 111.2291460  28.8508230
  80.2948900 111.3177520  28.9281350  79.6064420 110.6559060  28.8631340
  81.0154920 110.8715790  29.3729810  80.9249300 107.9129150  14.9871610
  81.2051590 107.0697050  15.3431030  80.1515030 108.1452260  15.5010360
  72.2443790 110.2021540  12.4462610  72.5469690 110.2088970  11.5381760
  72.9838380 109.8519400  12.9430270  77.0792430 124.9678400  27.4279050
  77.0051130 125.8713540  27.7351420  76.1771270 124.6490300  27.4001120
  75.4628720 109.1456160  13.4318810  75.1150720 108.4680150  12.8521260
  75.6641490 108.6845670  14.2462200  77.6277760 124.1336910  15.0505410
  78.5228550 124.4721880  15.0724170  77.6595390 123.4116320  14.4229690
  71.2673920 119.5063960  13.2792410  71.7048790 120.0493630  13.9349990
  71.7521650 118.6810910  13.2888750  68.4819720 122.2952990  20.7312670
  68.8122730 121.4274050  20.4991310  68.9110720 122.5011510  21.5617630
  73.0781640 120.6262000  18.3914640  72.7777180 120.5026970  19.2918550
  72.9719130 119.7670590  17.9830370  68.9709930 123.1623580  23.4694300
  68.5340920 123.3424380  24.3018450  69.5387610 123.9198200  23.3276020
  84.6072110 122.6640580  27.7571610  84.0074100 122.7233140  27.0135530
  84.7366010 121.7245560  27.8868460  85.8473560 120.4058400  13.0941320
  85.0166520 120.4735050  13.5648550  86.0245390 121.2962520  12.7908180
  85.3030020 117.1505880  15.5975520  86.0648930 117.7202530  15.7035210
  85.3184390 116.5833080  16.3683830  68.8034360 115.6743810  19.8283180
  68.1483200 115.4055450  19.1842880  69.6412310 115.5648290  19.3785160
  86.3089990 118.0055980  20.4417450  86.6798820 117.2223300  20.0353420
  86.9491920 118.6945080  20.2634750  83.2923750 119.3892560  25.8547770
  82.4783590 119.8189720  26.1173560  83.6997950 120.0010970  25.2416820
  85.3549190 117.4440250  12.7548040  85.6298030 118.3519130  12.6267260
  85.1659930 117.3802780  13.6910030  81.7524800 110.4685100  14.0501670
  82.1709680 110.2816080  13.2098330  81.4460860 109.6164150  14.3604600
  85.2514530 115.3809240  17.7477470  84.8758130 114.6137170  17.3158760
  84.5217650 115.7631940  18.2352400  69.8410290 116.0596380  24.3686520
  70.2083330 115.9723780  25.2482540  69.2721110 115.2962930  24.2693380
  84.6414150 114.5280760  27.3816990  84.4100240 114.2993510  26.4814940
  84.9018700 115.4480310  27.3361880  68.0172440 112.8842740  15.7708510
  67.1136520 113.1472940  15.5960170  68.5013060 113.1553910  14.9908470
  84.5265490 113.6066730  21.0484710  85.0502970 113.1129380  20.4174880
  85.1124910 113.7417090  21.7932280  84.7055210 113.6906600  24.5704260
  83.7557920 113.6570140  24.6849250  84.8868220 114.6006710  24.3354030
  70.5599650 111.9408280  13.6802890  71.2691350 111.5191500  13.1950170
  69.8439590 112.0083510  13.0486240  70.2073810 107.9947610  12.7205540
  70.9301940 108.5356550  13.0386760  70.4798330 107.7211030  11.8447080
  84.0165460 112.8640080  16.9877120  84.5124580 112.6310950  17.7726000
  83.8181530 112.0251920  16.5714760  85.4452620 111.5001030  19.5214800
  85.3351900 111.3457070  20.4597070  86.2060210 110.9721970  19.2790210
  83.7918340 107.4395160  25.9797800  84.4290560 108.0529300  26.3456990
  83.9393230 107.4755820  25.0347030  86.3342890 109.3308950  12.7620940
  87.2592200 109.1990130  12.5539230  86.3118680 109.4101770  13.7157390
  86.4081380 110.1019610  15.3877650  85.6132880 110.0364730  15.9170560
  86.6124660 111.0370250  15.3763000  83.3499800 124.1411160  19.3816040
  83.9458870 123.8195730  18.7050460  83.6077950 123.6682980  20.1729310
  74.9568400 122.1288660  25.1316390  74.7159760 122.3963220  24.2446910
  75.8971040 122.2994390  25.1867250  79.7997380 108.2491410  28.5265190
  80.4137790 108.5670700  27.8646270  80.3446940 107.7640000  29.1461050
  86.2172560 124.1483040  25.9327030  85.7230840 124.5451910  25.2154160
  85.6085850 123.5232250  26.3264310  70.3218640 106.9285670  28.6404250
  70.8701630 106.7473720  27.8770360  70.3873950 106.1379780  29.1760560
  71.0950400 123.5191320  26.6504450  70.5010720 123.3876020  27.3894490
  71.0874240 122.6829460  26.1846550  80.5405420 106.8123550  24.8534480
  79.6665260 107.1458660  24.6507410  80.4316170 106.3396730  25.6786350
  81.4477400 109.0194420  26.2376200  81.1190760 108.2046180  25.8577930
  82.3959700 108.9764230  26.1141890  83.9012010 124.7906460  23.2113770
  83.4414980 125.5422270  22.8371790  83.2724470 124.0712930  23.1528570
  70.7262630 120.8849700  25.6012490  69.9996690 120.2654990  25.5338440
  70.7871780 121.2790310  24.7310570  74.3307730 123.0994700  22.3861900
  74.8472750 122.4882060  21.8610160  74.9805110 123.6023480  22.8772910
  77.0703230 123.9903190  23.2130880  77.3581040 123.7357490  22.3363890
  77.5826450 123.4380550  23.8036450  78.2880240 107.7293390  23.7927390
  77.5052030 108.2038890  24.0724150  77.9943170 106.8248220  23.6840570
  82.8401310 108.4316490  21.8376480  83.2809400 108.3761590  20.9898080
  82.5708900 109.3474500  21.9086660  84.7039880 108.0631730  19.8485300
  84.6428280 107.1192950  19.7016320  85.4831910 108.1711820  20.3938760
  69.0092630 124.2024090  18.8109250  68.8414670 123.5694770  19.5091140
  68.1427140 124.4083490  18.4603440  69.6320650 108.0340870  16.3141110
  70.3900010 108.1469750  15.7405140  69.1697820 108.8710070  16.2684540
  76.1734460 110.1480140  19.3043420  75.3608970 109.7737030  18.9639300
  76.6776100 109.3925220  19.6064610  80.6759440 106.8122590  20.5426490
  81.2788810 107.3842800  21.0175010  79.9352430 107.3762030  20.3200390
  83.8194040 107.2144150  15.8166770  84.0144670 108.1127600  16.0834200
  83.0323910 106.9831230  16.3099720  70.6155330 122.8957320  16.2559390
  70.0902950 123.2765350  15.5521350  70.5399910 123.5208090  16.9769100
  72.0045800 108.5604920  14.8543080  72.5338560 107.7734720  14.7251030
  72.6374120 109.2396110  15.0878610  74.1983640 108.2980060  17.9088470
  73.5686380 107.5967370  18.0758600  73.6588780 109.0584190  17.6921630
  77.1375590 124.9119290  30.5799080  78.0642900 124.6763560  30.6235040
  77.1226020 125.7391290  30.0985110  85.3720650 124.4544860  17.5773330
  85.5472840 123.7682600  16.9334250  84.6742220 124.9791910  17.1850000
  73.2148300 124.8439700  15.1308640  73.9467120 124.5598980  14.5832530
  73.4741970 124.6052980  16.0208020  72.3763090 120.9604430  15.1354970
  71.7471970 121.4289530  15.6840800  72.4910920 120.1153650  15.5701160
  80.9254660 106.9917620  30.9221430  80.8120110 107.3112230  31.8172950
  81.7424400 107.3930130  30.6258710  83.7053150 124.1389150  30.4040120
  84.4978470 123.6438380  30.1966080  83.9986300 124.8179290  31.0115730
  77.9630850 116.7889110   3.1665440  77.1872950 116.3089550   3.4564010
  78.6143780 116.1094760   2.9921600  71.9796680 117.1008920   4.0441200
  71.1481560 116.8457630   4.4437710  72.5877660 117.1719690   4.7799120
  81.9838280 121.1949300   1.9464570  81.5219810 120.4236540   2.2751740
  82.7963830 121.2215370   2.4517020  71.9597940 121.1349010   4.2399220
  72.2625980 120.2446750   4.0609440  72.7041530 121.6919230   4.0121470
  68.3521640 114.6616460   3.7123290  68.9237750 113.8938660   3.7126930
  68.3523180 114.9605220   2.8029900  77.4039840 119.4646300   3.1735600
  77.3348120 118.5236240   3.0124730  78.1659700 119.5547710   3.7458170
  69.5946510 110.0700820   5.4992220  69.4149350 109.1726570   5.7794980
  69.1926590 110.6172690   6.1739170  78.4345010 112.2716680   3.4004530
  78.8109830 111.3988560   3.2878200  78.3364520 112.6075380   2.5094970
  70.2133180 112.5661320   4.1074560  70.8943290 112.8299690   4.7261960
  69.8981230 111.7262190   4.4412570  74.4057750 113.6128680   3.1947150
  74.9135970 114.1109650   3.8352170  74.9370990 112.8363880   3.0186510
  86.5068680 111.7833870   6.8976500  85.8020850 112.1715580   6.3791610
  86.7726600 112.4784160   7.4997430  72.6893850 108.2527240   7.4610570
  72.6912290 108.7699630   6.6556470  71.8598160 107.7757420   7.4380500
  73.9396700 117.8922420   5.6384070  73.6066080 118.5191340   6.2805140
  74.1163380 118.4184300   4.8585740  82.4530610 111.7067500   3.1060410
  81.7486180 111.9952390   3.6863520  82.8142770 112.5167610   2.7459970
  72.3709180 109.9637200   5.4681020  72.7125990 110.8079250   5.1734890
  71.4324990 110.1120940   5.5846360  73.1515800 119.8603220   7.4533250
  73.7689800 120.5354300   7.1717700  72.2908920 120.2691200   7.3620750
  84.0693390 121.3242630   5.3687890  83.3856910 121.9941740   5.3604560
  84.6087680 121.5223280   4.6032750  85.5217530 111.1522290   3.4969620
  84.5742440 111.1861270   3.6285050  85.8467520 111.9661240   3.8818980
  81.6052130 123.1686760   4.0833070  81.6179290 122.7649050   3.2155330
  81.0527350 123.9434050   3.9794500  81.0037570 118.0716600   5.4115680
  81.4206360 117.8576710   4.5769140  81.7277390 118.3289390   5.9824300
  84.9499670 116.4703820   5.5031920  84.1218300 116.5396910   5.0282050
  85.5450150 117.0558130   5.0347750  81.9141680 113.2573140   6.4486790
  81.5012860 114.0826850   6.7026780  81.1817630 112.6718180   6.2563150
  74.5156170 119.7300600   3.4744670  74.2184460 119.1246070   2.7952450
  75.4655990 119.7677910   3.3634030  72.7603090 112.8176250   5.0904500
  73.3117680 112.9271590   4.3157750  73.2746600 113.1913850   5.8059730
  82.6041780 123.3032470   7.1367770  82.1272340 124.1104660   6.9440380
  81.9203570 122.6510800   7.2893980  73.6074600 119.4682290  10.1252470
  72.7103130 119.6922260  10.3725870  73.6327470 119.5917230   9.1763870
  72.4345820 116.3395610   8.7009840  72.2953590 117.2118410   9.0697240
  71.5527180 115.9968420   8.5557780  74.2326170 122.2817310  10.9094990
  74.2041600 122.6860260  10.0423420  74.0691140 121.3527670  10.7466590
  86.1840990 123.0644410  12.2059160  86.6600710 123.5427300  12.8848240
  86.8048150 122.9961900  11.4804660  68.3864470 118.1093160   4.6180750
  68.4644890 118.2441930   3.6736470  69.0006150 117.4009050   4.8108870
  85.5874240 120.2557260   9.3659170  85.7137300 120.0169140   8.4476350
  85.6295620 119.4241800   9.8381250  79.4490980 123.9585260   7.9353980
  79.9635650 123.8693270   8.7376410  78.6060060 124.3044960   8.2281890
  85.4398250 112.3089720  10.3308910  84.8242520 112.8169390   9.8024370
  85.1194670 111.4088050  10.2734850  68.4423990 119.1507330   7.1575210
  68.6055030 118.6812690   6.3394580  68.9076440 118.6430890   7.8224050
  73.2142760 108.2813090   2.1935780  72.7710910 109.0622630   1.8620300
  73.7727750 108.6042980   2.9006720  77.5012570 111.1481610   7.7971100
  77.0391940 111.3564630   8.6091040  77.0990680 110.3340960   7.4941770
  82.5017080 112.3690560   8.9267760  81.6510670 112.0696310   9.2476830
  82.3418870 112.6132570   8.0151580  79.5966790 113.8692310  11.0266550
  79.9220200 113.0356060  10.6868780  80.3847120 114.3920830  11.1744880
  75.2518660 108.8260420   4.0525380  75.5490990 109.7323250   3.9717400
  75.8004220 108.3379200   3.4384950  75.4456190 114.3032240  10.5877300
  75.3499790 113.3626970  10.4377700  76.2888170 114.5247310  10.1925370
  70.5766730 110.7145910   8.7411080  70.1830120 111.5621120   8.9483860
  69.8885130 110.0772280   8.9319720  77.1511780 110.7980880  11.8107820
  76.4610100 110.6053080  12.4453910  77.8944080 111.0815520  12.3432120
  67.8783780 108.6374370   2.7741160  67.5896830 109.2077230   3.4866140
  68.6229540 108.1578820   3.1372390  79.4274750 114.6379320   4.6461740
  78.6955870 115.1466130   4.9951840  79.0299090 113.8209300   4.3450520
  75.8652140 111.3133520   3.0514230  75.8688200 110.8723470   2.2018770
  76.7603260 111.6350850   3.1586050  71.7154520 111.1960010   2.0108440
  71.3754570 111.6735240   2.7675490  70.9531840 110.7425130   1.6509540
  79.8900660 110.0913000   4.0584680  79.9073400 110.5421650   4.9026530
  79.6416240 109.1918640   4.2718120  83.3171410 107.5045180   9.8971060
  83.6417180 106.7734840  10.4229040  83.3527920 107.1858820   8.9952050
  70.0162970 118.5258760   9.3171020  69.6317760 117.8852430   9.9153980
  70.3275160 119.2294880   9.8865750  76.1660110 115.3735300   4.7979640
  76.5330240 114.8993870   5.5440980  75.9765170 116.2476870   5.1387980
  73.9559480 114.4143940   7.1163850  73.6516550 115.2935920   7.3414210
  74.9105940 114.4743730   7.1521290  83.2429250 117.6170290   3.5057090
  83.9628370 118.1125580   3.1153200  83.0411070 116.9388180   2.8610960
  78.6248050 117.6879350   9.3926090  78.5585360 116.7675020   9.1383680
  77.9953190 117.7854790  10.1070730  70.0123210 115.2546680   8.2635210
  69.6538150 115.9200530   8.8508550  69.7177770 114.4230230   8.6347830
  73.2136330 115.7130920  11.1474760  72.9136470 115.8588100  10.2502580
  73.9847570 115.1536210  11.0548150  78.5564780 120.5099920   9.1429890
  78.5709320 119.5780880   8.9248800  77.8489880 120.5959680   9.7819660
  84.7675990 117.1507260   8.4898470  84.0424180 117.7436040   8.2927860
  85.2951450 117.1430800   7.6911840  77.9898680 122.1517490   6.2370390
  78.6340900 122.3576870   6.9143810  78.3528120 121.3905890   5.7841240
  79.2630760 120.1549840   4.9547840  79.9052990 119.4543000   5.0680010
  79.7880110 120.9348280   4.7744730  81.0368380 120.9544740   8.1583900
  81.3724620 121.5411430   8.8361820  80.1168720 120.8237450   8.3881690
  68.5871780 108.7439920   8.9407310  67.8730300 108.9436840   9.5459920
  69.0066820 107.9679490   9.3122110  68.8744370 122.7320180   9.9273840
  68.9835490 121.7914920   9.7869230  68.2224930 122.9974930   9.2787570
  76.8656960 121.0036070  11.3271960  76.5453830 120.2845310  11.8717650
  76.1915320 121.6791140  11.4008020  80.0810560 111.2362230   6.6908760
  80.4491380 110.4157440   7.0188330  79.2208760 111.2964120   7.1064410
  77.0412550 113.8901820   6.9146730  77.5397800 114.3647640   7.5798580
  77.1835500 112.9665340   7.1216760  84.2479410 110.1069780   7.7575120
  83.7453010 110.8475180   8.0968930  85.0636070 110.4953780   7.4411910
  84.5427000 122.5211810   2.8790740  84.6674420 123.3442980   3.3514550
  85.4092560 122.3102540   2.5314890  72.0144530 124.6143020   2.5507870
  72.7507010 124.0658480   2.8216440  72.3985450 125.4799030   2.4113860
  71.0202810 123.7989090  11.7393450  71.8215540 124.1201140  12.1528850
  70.5054630 123.4384670  12.4613360  79.8567440 119.9068960  11.6868860
  79.2505600 119.9300560  10.9464610  79.5521550 119.1752000  12.2236110
  81.2867810 123.6349250  10.2978270  82.2389560 123.5507270  10.2478510
  81.1396030 124.2990960  10.9712060  68.7400620 116.2862550  10.6829500
  69.2439640 115.7069830  11.2545730  68.0008040 116.5702780  11.2205870
  75.7938560 117.6933540  10.2165020  75.0284230 118.2618540  10.1319690
  75.9754520 117.4009750   9.3233250  82.9361910 119.4238870  10.7740040
  83.6771380 119.7614630  10.2707500  82.1734590 119.5930930  10.2209810
  70.7723700 114.4292140  11.5779570  70.8129040 114.1306010  12.4864800
  71.6269200 114.8299750  11.4187090  72.7129510 113.0084240   9.5454060
  72.1825970 112.5175190   8.9177400  73.3817580 113.4368440   9.0111990
  81.6107570 117.4753700   9.3095250  82.0248590 117.6298780  10.1585670
  80.6758570 117.6008920   9.4721030  82.0829740 114.8149860  11.3134400
  82.6650510 114.0602180  11.2254880  82.2591510 115.3457300  10.5365880
  73.2001810 109.9746610   9.6251350  73.1058680 109.3567360   8.9002220
  72.6199200 110.7012900   9.3981260  75.9663250 108.5319850   6.6578740
  75.5180550 108.5544110   5.8124290  75.3328450 108.1338870   7.2549040
  76.3722800 117.4274180   7.2791180  76.7910910 118.2706910   7.1067420
  75.4531430 117.5646220   7.0497960  78.7086700 115.1590360   8.6629020
  78.8282910 114.5631500   9.4023860  79.5680700 115.1960050   8.2430320
  81.0474600 115.7127550   7.2391530  80.5209820 116.2370170   6.6356670
  81.3905940 116.3454940   7.8701260  74.2230220 123.7327190   8.3948910
  73.6851310 124.4573250   8.0757610  74.4764180 123.2557530   7.6046250
  75.4755470 111.7011710   9.9204840  76.0655160 111.3927560  10.6082660
  74.6575710 111.2291460  10.0764740  80.2948900 111.3177520  10.1537860
  79.6064420 110.6559060  10.0887850  81.0154920 110.8715790  10.5986320
  77.0792430 124.9678400   8.6535560  77.0051130 125.8713540   8.9607930
  76.1771270 124.6490300   8.6257630  68.4819720 122.2952990   1.9569180
  68.8122730 121.4274050   1.7247820  68.9110720 122.5011510   2.7874140
  68.9709930 123.1623580   4.6950810  68.5340920 123.3424380   5.5274960
  69.5387610 123.9198200   4.5532530  84.6072110 122.6640580   8.9828120
  84.0074100 122.7233140   8.2392040  84.7366010 121.7245560   9.1124970
  83.2923750 119.3892560   7.0804280  82.4783590 119.8189720   7.3430070
  83.6997950 120.0010970   6.4673330  69.8410290 116.0596380   5.5943030
  70.2083330 115.9723780   6.4739050  69.2721110 115.2962930   5.4949890
  84.6414150 114.5280760   8.6073500  84.4100240 114.2993510   7.7071450
  84.9018700 115.4480310   8.5618390  69.3926290 112.9705470   9.5001450
  68.4982340 112.9372230   9.8395160  69.9323840 113.1692260  10.2652700
  83.0802220 109.7537190  11.3853200  83.9572400 109.7620590  11.7687200
  83.0923060 109.0168030  10.7745550  84.5265490 113.6066730   2.2741220
  85.0502970 113.1129380   1.6431390  85.1124910 113.7417090   3.0188790
  84.7055210 113.6906600   5.7960770  83.7557920 113.6570140   5.9105760
  84.8868220 114.6006710   5.5610540  69.8966000 107.2453800   3.8484670
  70.5442190 106.6951180   3.4079830  70.3167840 107.4996950   4.6700480
  83.7918340 107.4395160   7.2054310  84.4290560 108.0529300   7.5713500
  83.9393230 107.4755820   6.2603540  69.6498000 107.4009470   6.5909990
  69.3012820 107.8573290   7.3568170  69.3185700 106.5066600   6.6732420
  71.2562370 120.5729070  10.7563180  71.2132000 120.2021980  11.6377640
  71.3873380 121.5106640  10.8965000  74.9568400 122.1288660   6.3572900
  74.7159760 122.3963220   5.4703420  75.8971040 122.2994390   6.4123760
  77.1622820 108.5921350  10.1129410  77.1011710 109.1843180  10.8624820
  78.1023200 108.4847310   9.9679670  79.7997380 108.2491410   9.7521700
  80.4137790 108.5670700   9.0902780  80.3446940 107.7640000  10.3717560
  86.2172560 124.1483040   7.1583540  85.7230840 124.5451910   6.4410670
  85.6085850 123.5232250   7.5520820  70.3218640 106.9285670   9.8660760
  70.8701630 106.7473720   9.1026870  70.3873950 106.1379780  10.4017070
  71.0950400 123.5191320   7.8760960  70.5010720 123.3876020   8.6151000
  71.0874240 122.6829460   7.4103060  80.5405420 106.8123550   6.0790990
  79.6665260 107.1458660   5.8763920  80.4316170 106.3396730   6.9042860
  81.4477400 109.0194420   7.4632710  81.1190760 108.2046180   7.0834440
  82.3959700 108.9764230   7.3398400  83.9012010 124.7906460   4.4370280
  83.4414980 125.5422270   4.0628300  83.2724470 124.0712930   4.3785080
  70.7262630 120.8849700   6.8269000  69.9996690 120.2654990   6.7594950
  70.7871780 121.2790310   5.9567080  74.3307730 123.0994700   3.6118410
  74.8472750 122.4882060   3.0866670  74.9805110 123.6023480   4.1029420
  77.0703230 123.9903190   4.4387390  77.3581040 123.7357490   3.5620400
  77.5826450 123.4380550   5.0292960  78.2880240 107.7293390   5.0183900
  77.5052030 108.2038890   5.2980660  77.9943170 106.8248220   4.9097080
  82.8401310 108.4316490   3.0632990  83.2809400 108.3761590   2.2154590
  82.5708900 109.3474500   3.1343170  80.6759440 106.8122590   1.7683000
  81.2788810 107.3842800   2.2431520  79.9352430 107.3762030   1.5456900
  77.1375590 124.9119290  11.8055590  78.0642900 124.6763560  11.8491550
  77.1226020 125.7391290  11.3241620  74.3239200 107.5764040  11.5697470
  74.0423470 108.0797640  10.8058290  74.7058900 106.7785790  11.2039600
  80.9254660 106.9917620  12.1477940  80.8120110 107.3112230  13.0429460
  81.7424400 107.3930130  11.8515220  83.7053150 124.1389150  11.6296630
  84.4978470 123.6438380  11.4222590  83.9986300 124.8179290  12.2372240
  79.8312810  96.2366600 151.4804090  79.7506860  95.3221210 151.2095800
  79.4177230  96.7333670 150.7743800  77.9630850  98.0145620 153.3613360
  77.1872950  97.5346060 153.6511930  78.6143780  97.3351270 153.1869520
  81.9838280 102.4205810 152.1412490  81.5219810 101.6493050 152.4699660
  82.7963830 102.4471880 152.6464940  71.9597940 102.3605520 154.4347140
  72.2625980 101.4703260 154.2557360  72.7041530 102.9175740 154.2069390
  70.3888630  93.2867320 148.0231510  69.5005330  93.6283290 147.9211390
  70.6729820  93.0867640 147.1312340  68.3521640  95.8872970 153.9071210
  68.9237750  95.1195170 153.9074850  68.3523180  96.1861730 152.9977820
  78.2101590 104.7063820 151.7616480  77.5913030 105.1621320 151.1910920
  79.0653370 104.8615280 151.3606180  77.4039840 100.6902810 153.3683520
  77.3348120  99.7492750 153.2072650  78.1659700 100.7804220 153.9406090
  78.4345010  93.4973190 153.5952450  78.8109830  92.6245070 153.4826120
  78.3364520  93.8331890 152.7042890  72.5650020  91.8698820 149.0569890
  72.6716770  92.7702550 149.3638650  71.6542380  91.8216790 148.7664540
  82.2169130  90.9923630 150.5280790  83.0378750  90.5020200 150.5706270
  82.2503210  91.5821290 151.2812630  74.4057750  94.8385190 153.3895070
  74.9135970  95.3366160 154.0300090  74.9370990  94.0620390 153.2134430
  79.0764940  99.5903060 149.1548390  78.4582210 100.0552510 148.5911110
  79.5888190 100.2830540 149.5717900  82.4530610  92.9324010 153.3008330
  81.7486180  93.2208900 153.8811440  82.8142770  93.7424120 152.9407890
  68.4448140 100.2759590 146.5288020  68.0676120 100.7646690 145.7972920
  68.7021210 100.9484870 147.1594550  85.5217530  92.3778800 153.6917540
  84.5742440  92.4117780 153.8232970  85.8467520  93.1917750 154.0766900
  76.0537070  88.6775980 151.9873530  76.3612050  88.1222870 151.2709030
  75.1237770  88.8120440 151.8046520  81.6052130 104.3943270 154.2780990
  81.6179290 103.9905560 153.4103250  81.0527350 105.1690560 154.1742420
  82.8997550 101.1159490 149.3671160  82.7893880 100.1733820 149.4920580
  82.8965800 101.4775130 150.2533920  78.4417830  96.7424810 148.7233650
  77.5147110  96.6762190 148.9522120  78.5942650  97.6804940 148.6088890
  78.4286910  93.0141810 145.7200810  77.4890580  93.1755770 145.8053270
  78.7470170  93.7327490 145.1736800  82.4715120  98.3045110 149.2268900
  81.8527540  97.9664660 148.5795200  82.4539570  97.6604870 149.9348090
  74.0474470  97.2689550 151.5053380  73.6431470  96.5566800 151.0099280
  74.1337590  96.9242790 152.3941420  74.5156170 100.9557110 153.6692590
  74.2184460 100.3502580 152.9900370  75.4655990 100.9934420 153.5581950
  80.6479820  97.5431920 146.2341650  81.0873100  96.7054350 146.0879470
  81.3608240  98.1761320 146.3205790  78.7575200 102.4827990 150.2022890
  79.1971110 103.2252320 149.7878280  78.6962090 102.7254560 151.1261850
  70.7479100  96.1634530 149.0060030  70.6276700  96.8896620 148.3941300
  70.4379990  95.3937440 148.5287940  69.6312100 101.0349860 151.2234850
  69.2240180 101.1764450 150.3688450  70.5225110 100.7510020 151.0206060
  81.4245380 105.4697110 147.5585900  81.2646520 105.1800050 148.4567730
  81.2592090 104.6937240 147.0231130  73.9033760 105.2495640 149.3357520
  73.7276240 104.3331180 149.1225320  73.0489500 105.6082930 149.5755320
  81.1271510 102.9784670 146.1183900  80.4336670 102.9761960 145.4586180
  81.8694370 102.5543990 145.6878070  80.6921440 104.6047380 150.1932390
  81.1478390 103.8236760 150.5071010  81.0313960 105.3154200 150.7373570
  73.2142760  89.5069600 152.3883700  72.7710910  90.2879140 152.0568220
  73.7727750  89.8299490 153.0954640  76.3301580  89.1280300 147.2689530
  75.7055760  89.1240170 147.9942840  76.2431700  88.2611260 146.8725500
  75.2518660  90.0516930 154.2473300  75.5490990  90.9579760 154.1665320
  75.8004220  89.5635710 153.6332870  73.0056980  94.6303170 150.1164950
  72.7797900  94.4140340 151.0211570  72.2249510  95.0631630 149.7710920
  80.2354740  94.6366540 148.7155600  79.6363630  95.3602340 148.5319220
  80.7834350  94.5743320 147.9332050  78.8419610  93.2730080 150.7458880
  79.2349180  93.5902280 149.9327570  79.2036460  92.3941960 150.8603400
  67.8783780  89.8630880 152.9689080  67.5896830  90.4333740 153.6814060
  68.6229540  89.3835330 153.3320310  68.0654010  93.8051000 144.1791800
  67.9828680  94.7481760 144.3206790  67.7137070  93.6625910 143.3004150
  75.8652140  92.5390030 153.2462150  75.8688200  92.0979980 152.3966690
  76.7603260  92.8607360 153.3533970  71.7154520  92.4216520 152.2056360
  71.3754570  92.8991750 152.9623410  70.9531840  91.9681640 151.8457460
  75.9272290  93.5402110 146.2368910  76.0485110  93.4988590 147.1854730
  75.5420800  94.4026260 146.0815640  74.9393790  95.8503250 145.6352210
  74.3710690  95.4021500 145.0088120  75.6482790  96.2096030 145.1017360
  69.0300600  91.3435500 151.1221030  68.7447520  90.9791170 151.9599650
  68.9679460  90.6115960 150.5084170  72.4841270  99.8461440 147.9078620
  71.7103530  99.3059060 147.7477340  73.2135900  99.3268050 147.5696380
  83.2429250  98.8426800 153.7005010  83.9628370  99.3382090 153.3101120
  83.0411070  98.1644690 153.0558880  78.7039190  90.2364760 147.8434400
  77.8903800  89.7377930 147.7679710  78.5101140  91.0763010 147.4270750
  81.4187580  94.6084410 146.1396560  82.3067200  94.9201640 145.9647900
  81.3892670  93.7356660 145.7477140  72.5278670  99.5141820 151.5457430
  73.0457340  98.7110080 151.4914320  72.0762690  99.4520960 152.3874260
  77.4148170 100.7808100 146.8184730  77.7563870 101.5250330 146.3228050
  76.5860880 101.0939220 147.1809560  83.6901850  95.9196250 145.6076420
  83.6065570  96.3510470 144.7572860  84.4096040  96.3794600 146.0403240
  84.7189100 102.7738510 148.3358550  84.0765260 102.1194130 148.6102270
  84.3319760 103.1793600 147.5599220  80.2975580 100.1023940 152.1830240
  80.6499400  99.5052070 151.5231610  79.4137910  99.7768170 152.3538490
  76.3838860 100.8621630 149.5900650  77.0709990 101.4090840 149.9708240
  75.5971280 101.4062360 149.6250260  68.5231260  96.4794450 145.0817730
  69.3926110  96.7619250 145.3653650  68.0321580  97.2930320 144.9666540
  75.6866070  97.8667660 149.2026010  76.1428850  98.6772910 149.4286200
  75.3354280  97.5490800 150.0344500  71.5877850  88.2105310 149.6748530
  71.4592480  88.2023210 150.6233450  70.7639870  88.5488400 149.3239540
  83.1086480 101.6654970 144.8734900  82.8824060 100.9485410 145.4659540
  82.7182680 101.4167410 144.0356650  68.8902510 105.6921830 145.6479360
  69.2500150 106.2911170 144.9936630  68.7494850 106.2381720 146.4214390
  82.6902730  99.5826910 146.5349060  82.4024430 100.0439600 147.3226940
  83.4854900  99.1224680 146.8033280  74.9071130 103.0753030 146.4653030
  74.8981230 103.8082720 145.8497540  73.9869490 102.8284610 146.5579990
  70.5077770  98.2967920 147.2099790  69.9005720  99.0366820 147.2195090
  70.9827120  98.3867280 146.3837990  83.4472590  91.4175680 147.6944240
  82.8185750  91.5221350 146.9802470  82.9524510  91.6372460 148.4838120
  77.8930730 103.1381270 145.1278220  77.9942710 102.9345260 144.1980200
  76.9932470 102.8839550 145.3326000  75.4156620  93.6961630 149.1102120
  74.7072770  94.1647970 149.5515730  75.7001100  93.0383640 149.7447310
  79.4472050  90.4212290 150.5497910  79.3239830  90.4398420 149.6007420
  80.3956610  90.4691230 150.6696310  76.5348840 105.6567590 149.8225890
  76.7890340 105.6188980 148.9005260  75.5861320 105.5300920 149.8154140
  73.6191640  92.0046710 146.4852830  74.4682170  92.4416860 146.4193020
  73.2522910  92.3166970 147.3124890  82.5401420  96.5759470 151.3984400
  81.5991560  96.5909700 151.5732090  82.8545490  95.7895430 151.8444700
  72.5183060  98.2579070 144.9588360  73.2846330  98.1460430 145.5213790
  72.5957750  97.5617040 144.3065130  71.2129820  95.6904140 145.6421250
  71.2933410  94.7431650 145.7538650  72.1049570  96.0211020 145.7481910
  84.5427000 103.7468320 153.0738660  84.6674420 104.5699490 153.5462470
  85.4092560 103.5359050 152.7262810  72.0144530 105.8399530 152.7455790
  72.7507010 105.2914990 153.0164360  72.3985450 106.7055540 152.6061780
  68.8990010 101.9073100 148.6197300  67.9729790 102.1494240 148.6102710
  69.3646440 102.7347360 148.4982050  75.1246840 105.0129840 144.5681360
  75.9175450 105.3018670 144.1163150  74.6051190 104.5822010 143.8893840
  84.1777010 104.2399970 145.9918100  83.8918520 103.8265110 145.1772280
  83.9796560 105.1687680 145.8718620  75.6424240 100.2333250 144.4323710
  75.5374880  99.6185600 145.1585090  75.4748460  99.7099140 143.6486720
  78.8826970  99.2953280 145.0365700  78.3337070  99.7422580 145.6808440
  79.5046230  98.7902530 145.5603370  74.5502090  98.2544200 146.9331000
  74.9718510  98.0884070 147.7762390  74.6752930  97.4444430 146.4386140
  77.0629730  97.2781810 144.1808100  77.5835390  96.5630830 143.8149250
  77.7098130  97.9167680 144.4808610  73.4460990  94.3277430 143.8789160
  73.2450050  93.4644790 144.2402500  73.2753040  94.2410790 142.9410760
  80.9249300  89.1385660 146.4076040  81.2051590  88.2953560 146.7635460
  80.1515030  89.3708770 146.9214790  72.2443790  91.4278050 143.8667040
  72.5469690  91.4345480 142.9586190  72.9838380  91.0775910 144.3634700
  75.4628720  90.3712670 144.8523240  75.1150720  89.6936660 144.2725690
  75.6641490  89.9102180 145.6666630  77.6277760 105.3593420 146.4709840
  78.5228550 105.6978390 146.4928600  77.6595390 104.6372830 145.8434120
  71.2673920 100.7320470 144.6996840  71.7048790 101.2750140 145.3554420
  71.7521650  99.9067420 144.7093180  68.4819720 103.5209500 152.1517100
  68.8122730 102.6530560 151.9195740  68.9110720 103.7268020 152.9822060
  73.0781640 101.8518510 149.8119070  72.7777180 101.7283480 150.7122980
  72.9719130 100.9927100 149.4034800  85.8473560 101.6314910 144.5145750
  85.0166520 101.6991560 144.9852980  86.0245390 102.5219030 144.2112610
  85.3030020  98.3762390 147.0179950  86.0648930  98.9459040 147.1239640
  85.3184390  97.8089590 147.7888260  68.8034360  96.9000320 151.2487610
  68.1483200  96.6311960 150.6047310  69.6412310  96.7904800 150.7989590
  86.3089990  99.2312490 151.8621880  86.6798820  98.4479810 151.4557850
  86.9491920  99.9201590 151.6839180  85.3549190  98.6696760 144.1752470
  85.6298030  99.5775640 144.0471690  85.1659930  98.6059290 145.1114460
  81.7524800  91.6941610 145.4706100  82.1709680  91.5072590 144.6302760
  81.4460860  90.8420660 145.7809030  85.2514530  96.6065750 149.1681900
  84.8758130  95.8393680 148.7363190  84.5217650  96.9888450 149.6556830
  68.0172440  94.1099250 147.1912940  67.1136520  94.3729450 147.0164600
  68.5013060  94.3810420 146.4112900  84.5265490  94.8323240 152.4689140
  85.0502970  94.3385890 151.8379310  85.1124910  94.9673600 153.2136710
  70.5599650  93.1664790 145.1007320  71.2691350  92.7448010 144.6154600
  69.8439590  93.2340020 144.4690670  70.2073810  89.2204120 144.1409970
  70.9301940  89.7613060 144.4591190  70.4798330  88.9467540 143.2651510
  84.0165460  94.0896590 148.4081550  84.5124580  93.8567460 149.1930430
  83.8181530  93.2508430 147.9919190  85.4452620  92.7257540 150.9419230
  85.3351900  92.5713580 151.8801500  86.2060210  92.1978480 150.6994640
  86.4081380  91.3276120 146.8082080  85.6132880  91.2621240 147.3374990
  86.6124660  92.2626760 146.7967430  83.3499800 105.3667670 150.8020470
  83.9458870 105.0452240 150.1254890  83.6077950 104.8939490 151.5933740
  74.3307730 104.3251210 153.8066330  74.8472750 103.7138570 153.2814590
  74.9805110 104.8279990 154.2977340  82.8401310  89.6573000 153.2580910
  83.2809400  89.6018100 152.4102510  82.5708900  90.5731010 153.3291090
  84.7039880  89.2888240 151.2689730  84.6428280  88.3449460 151.1220750
  85.4831910  89.3968330 151.8143190  69.0092630 105.4280600 150.2313680
  68.8414670 104.7951280 150.9295570  68.1427140 105.6340000 149.8807870
  69.6320650  89.2597380 147.7345540  70.3900010  89.3726260 147.1609570
  69.1697820  90.0966580 147.6888970  76.1734460  91.3736650 150.7247850
  75.3608970  90.9993540 150.3843730  76.6776100  90.6181730 151.0269040
  80.6759440  88.0379100 151.9630920  81.2788810  88.6099310 152.4379440
  79.9352430  88.6018540 151.7404820  83.8194040  88.4400660 147.2371200
  84.0144670  89.3384110 147.5038630  83.0323910  88.2087740 147.7304150
  70.6155330 104.1213830 147.6763820  70.0902950 104.5021860 146.9725780
  70.5399910 104.7464600 148.3973530  72.0045800  89.7861430 146.2747510
  72.5338560  88.9991230 146.1455460  72.6374120  90.4652620 146.5083040
  74.1983640  89.5236570 149.3292900  73.5686380  88.8223880 149.4963030
  73.6588780  90.2840700 149.1126060  85.3720650 105.6801370 148.9977760
  85.5472840 104.9939110 148.3538680  84.6742220 106.2048420 148.6054430
  73.2148300 106.0696210 146.5513070  73.9467120 105.7855490 146.0036960
  73.4741970 105.8309490 147.4412450  72.3763090 102.1860940 146.5559400
  71.7471970 102.6546040 147.1045230  72.4910920 101.3410160 146.9905590
  79.8312810  96.2366600 132.7060600  79.7506860  95.3221210 132.4352310
  79.4177230  96.7333670 132.0000310  77.9630850  98.0145620 134.5869870
  77.1872950  97.5346060 134.8768440  78.6143780  97.3351270 134.4126030
  71.9796680  98.3265430 135.4645630  71.1481560  98.0714140 135.8642140
  72.5877660  98.3976200 136.2003550  71.9597940 102.3605520 135.6603650
  72.2625980 101.4703260 135.4813870  72.7041530 102.9175740 135.4325900
  70.3888630  93.2867320 129.2488020  69.5005330  93.6283290 129.1467900
  70.6729820  93.0867640 128.3568850  68.3521640  95.8872970 135.1327720
  68.9237750  95.1195170 135.1331360  68.3523180  96.1861730 134.2234330
  77.4039840 100.6902810 134.5940030  77.3348120  99.7492750 134.4329160
  78.1659700 100.7804220 135.1662600  78.4345010  93.4973190 134.8208960
  78.8109830  92.6245070 134.7082630  78.3364520  93.8331890 133.9299400
  82.2169130  90.9923630 131.7537300  83.0378750  90.5020200 131.7962780
  82.2503210  91.5821290 132.5069140  70.2133180  93.7917830 135.5278990
  70.8943290  94.0556200 136.1466390  69.8981230  92.9518700 135.8617000
  86.5068680  93.0090380 138.3180930  85.8020850  93.3972090 137.7996040
  86.7726600  93.7040670 138.9201860  79.0764940  99.5903060 130.3804900
  78.4582210 100.0552510 129.8167620  79.5888190 100.2830540 130.7974410
  82.4530610  92.9324010 134.5264840  81.7486180  93.2208900 135.1067950
  82.8142770  93.7424120 134.1664400  73.1515800 101.0859730 138.8737680
  73.7689800 101.7610810 138.5922130  72.2908920 101.4947710 138.7825180
  68.4448140 100.2759590 127.7544530  68.0676120 100.7646690 127.0229430
  68.7021210 100.9484870 128.3851060  85.5217530  92.3778800 134.9174050
  84.5742440  92.4117780 135.0489480  85.8467520  93.1917750 135.3023410
  76.0537070  88.6775980 133.2130040  76.3612050  88.1222870 132.4965540
  75.1237770  88.8120440 133.0303030  82.8997550 101.1159490 130.5927670
  82.7893880 100.1733820 130.7177090  82.8965800 101.4775130 131.4790430
  81.0037570  99.2973110 136.8320110  81.4206360  99.0833220 135.9973570
  81.7277390  99.5545900 137.4028730  78.4417830  96.7424810 129.9490160
  77.5147110  96.6762190 130.1778630  78.5942650  97.6804940 129.8345400
  84.9499670  97.6960330 136.9236350  84.1218300  97.7653420 136.4486480
  85.5450150  98.2814640 136.4552180  82.4715120  98.3045110 130.4525410
  81.8527540  97.9664660 129.8051710  82.4539570  97.6604870 131.1604600
  81.9141680  94.4829650 137.8691220  81.5012860  95.3083360 138.1231210
  81.1817630  93.8974690 137.6767580  74.0474470  97.2689550 132.7309890
  73.6431470  96.5566800 132.2355790  74.1337590  96.9242790 133.6197930
  74.5156170 100.9557110 134.8949100  74.2184460 100.3502580 134.2156880
  75.4655990 100.9934420 134.7838460  73.6074600 100.6938800 141.5456900
  72.7103130 100.9178770 141.7930300  73.6327470 100.8173740 140.5968300
  80.6479820  97.5431920 127.4598160  81.0873100  96.7054350 127.3135980
  81.3608240  98.1761320 127.5462300  74.2326170 103.5073820 142.3299420
  74.2041600 103.9116770 141.4627850  74.0691140 102.5784180 142.1671020
  70.7479100  96.1634530 130.2316540  70.6276700  96.8896620 129.6197810
  70.4379990  95.3937440 129.7544450  86.1840990 104.2900920 143.6263590
  86.6600710 104.7683810 144.3052670  86.8048150 104.2218410 142.9009090
  68.3864470  99.3349670 136.0385180  68.4644890  99.4698440 135.0940900
  69.0006150  98.6265560 136.2313300  69.6312100 101.0349860 132.4491360
  69.2240180 101.1764450 131.5944960  70.5225110 100.7510020 132.2462570
  79.4490980 105.1841770 139.3558410  79.9635650 105.0949780 140.1580840
  78.6060060 105.5301470 139.6486320  81.1271510 102.9784670 127.3440410
  80.4336670 102.9761960 126.6842690  81.8694370 102.5543990 126.9134580
  68.4423990 100.3763840 138.5779640  68.6055030  99.9069200 137.7599010
  68.9076440  99.8687400 139.2428480  76.3301580  89.1280300 128.4946040
  75.7055760  89.1240170 129.2199350  76.2431700  88.2611260 128.0982010
  80.2354740  94.6366540 129.9412110  79.6363630  95.3602340 129.7575730
  80.7834350  94.5743320 129.1588560  78.8419610  93.2730080 131.9715390
  79.2349180  93.5902280 131.1584080  79.2036460  92.3941960 132.0859910
  67.8783780  89.8630880 134.1945590  67.5896830  90.4333740 134.9070570
  68.6229540  89.3835330 134.5576820  79.4274750  95.8635830 136.0666170
  78.6955870  96.3722640 136.4156270  79.0299090  95.0465810 135.7654950
  79.8900660  91.3169510 135.4789110  79.9073400  91.7678160 136.3230960
  79.6416240  90.4175150 135.6922550  70.0162970  99.7515270 140.7375450
  69.6317760  99.1108940 141.3358410  70.3275160 100.4551390 141.3070180
  69.0300600  91.3435500 132.3477540  68.7447520  90.9791170 133.1856160
  68.9679460  90.6115960 131.7340680  72.4841270  99.8461440 129.1335130
  71.7103530  99.3059060 128.9733850  73.2135900  99.3268050 128.7952890
  83.2429250  98.8426800 134.9261520  83.9628370  99.3382090 134.5357630
  83.0411070  98.1644690 134.2815390  78.7039190  90.2364760 129.0690910
  77.8903800  89.7377930 128.9936220  78.5101140  91.0763010 128.6527260
  78.6248050  98.9135860 140.8130520  78.5585360  97.9931530 140.5588110
  77.9953190  99.0111300 141.5275160  81.4187580  94.6084410 127.3653070
  82.3067200  94.9201640 127.1904410  81.3892670  93.7356660 126.9733650
  72.5278670  99.5141820 132.7713940  73.0457340  98.7110080 132.7170830
  72.0762690  99.4520960 133.6130770  77.4148170 100.7808100 128.0441240
  77.7563870 101.5250330 127.5484560  76.5860880 101.0939220 128.4066070
  70.0123210  96.4803190 139.6839640  69.6538150  97.1457040 140.2712980
  69.7177770  95.6486740 140.0552260  73.2136330  96.9387430 142.5679190
  72.9136470  97.0844610 141.6707010  73.9847570  96.3792720 142.4752580
  78.5564780 101.7356430 140.5634320  78.5709320 100.8037390 140.3453230
  77.8489880 101.8216190 141.2024090  83.6901850  95.9196250 126.8332930
  83.6065570  96.3510470 125.9829370  84.4096040  96.3794600 127.2659750
  84.7675990  98.3763770 139.9102900  84.0424180  98.9692550 139.7132290
  85.2951450  98.3687310 139.1116270  84.7189100 102.7738510 129.5615060
  84.0765260 102.1194130 129.8358780  84.3319760 103.1793600 128.7855730
  80.2975580 100.1023940 133.4086750  80.6499400  99.5052070 132.7488120
  79.4137910  99.7768170 133.5795000  76.3838860 100.8621630 130.8157160
  77.0709990 101.4090840 131.1964750  75.5971280 101.4062360 130.8506770
  75.6866070  97.8667660 130.4282520  76.1428850  98.6772910 130.6542710
  75.3354280  97.5490800 131.2601010  77.9898680 103.3774000 137.6574820
  78.6340900 103.5833380 138.3348240  78.3528120 102.6162400 137.2045670
  71.5877850  88.2105310 130.9005040  71.4592480  88.2023210 131.8489960
  70.7639870  88.5488400 130.5496050  79.2630760 101.3806350 136.3752270
  79.9052990 100.6799510 136.4884440  79.7880110 102.1604790 136.1949160
  83.1086480 101.6654970 126.0991410  82.8824060 100.9485410 126.6916050
  82.7182680 101.4167410 125.2613160  68.8902510 105.6921830 126.8735870
  69.2500150 106.2911170 126.2193140  68.7494850 106.2381720 127.6470900
  82.6902730  99.5826910 127.7605570  82.4024430 100.0439600 128.5483450
  83.4854900  99.1224680 128.0289790  68.8744370 103.9576690 141.3478270
  68.9835490 103.0171430 141.2073660  68.2224930 104.2231440 140.6992000
  76.8656960 102.2292580 142.7476390  76.5453830 101.5101820 143.2922080
  76.1915320 102.9047650 142.8212450  83.4472590  91.4175680 128.9200750
  82.8185750  91.5221350 128.2058980  82.9524510  91.6372460 129.7094630
  77.8930730 103.1381270 126.3534730  77.9942710 102.9345260 125.4236710
  76.9932470 102.8839550 126.5582510  79.4472050  90.4212290 131.7754420
  79.3239830  90.4398420 130.8263930  80.3956610  90.4691230 131.8952820
  82.5401420  96.5759470 132.6240910  81.5991560  96.5909700 132.7988600
  82.8545490  95.7895430 133.0701210  72.0144530 105.8399530 133.9712300
  72.7507010 105.2914990 134.2420870  72.3985450 106.7055540 133.8318290
  68.8990010 101.9073100 129.8453810  67.9729790 102.1494240 129.8359220
  69.3646440 102.7347360 129.7238560  71.0202810 105.0245600 143.1597880
  71.8215540 105.3457650 143.5733280  70.5054630 104.6641180 143.8817790
  79.8567440 101.1325470 143.1073290  79.2505600 101.1557070 142.3669040
  79.5521550 100.4008510 143.6440540  81.2867810 104.8605760 141.7182700
  82.2389560 104.7763780 141.6682940  81.1396030 105.5247470 142.3916490
  84.1777010 104.2399970 127.2174610  83.8918520 103.8265110 126.4028790
  83.9796560 105.1687680 127.0975130  68.7400620  97.5119060 142.1033930
  69.2439640  96.9326340 142.6750160  68.0008040  97.7959290 142.6410300
  75.6424240 100.2333250 125.6580220  75.5374880  99.6185600 126.3841600
  75.4748460  99.7099140 124.8743230  75.7938560  98.9190050 141.6369450
  75.0284230  99.4875050 141.5524120  75.9754520  98.6266260 140.7437680
  78.8826970  99.2953280 126.2622210  78.3337070  99.7422580 126.9064950
  79.5046230  98.7902530 126.7859880  82.9361910 100.6495380 142.1944470
  83.6771380 100.9871140 141.6911930  82.1734590 100.8187440 141.6414240
  70.7723700  95.6548650 142.9984000  70.8129040  95.3562520 143.9069230
  71.6269200  96.0556260 142.8391520  72.7129510  94.2340750 140.9658490
  72.1825970  93.7431700 140.3381830  73.3817580  94.6624950 140.4316420
  81.6107570  98.7010210 140.7299680  82.0248590  98.8555290 141.5790100
  80.6758570  98.8265430 140.8925460  82.0829740  96.0406370 142.7338830
  82.6650510  95.2858690 142.6459310  82.2591510  96.5713810 141.9570310
  75.9663250  89.7576360 138.0783170  75.5180550  89.7800620 137.2328720
  75.3328450  89.3595380 138.6753470  81.0474600  96.9384060 138.6595960
  80.5209820  97.4626680 138.0561100  81.3905940  97.5711450 139.2905690
  74.2230220 104.9583700 139.8153340  73.6851310 105.6829760 139.4962040
  74.4764180 104.4814040 139.0250680  77.0792430 106.1934910 140.0739990
  77.0051130 107.0970050 140.3812360  76.1771270 105.8746810 140.0462060
  68.4819720 103.5209500 133.3773610  68.8122730 102.6530560 133.1452250
  68.9110720 103.7268020 134.2078570  73.0781640 101.8518510 131.0375580
  72.7777180 101.7283480 131.9379490  72.9719130 100.9927100 130.6291310
  68.9709930 104.3880090 136.1155240  68.5340920 104.5680890 136.9479390
  69.5387610 105.1454710 135.9736960  85.8473560 101.6314910 125.7402260
  85.0166520 101.6991560 126.2109490  86.0245390 102.5219030 125.4369120
  85.3030020  98.3762390 128.2436460  86.0648930  98.9459040 128.3496150
  85.3184390  97.8089590 129.0144770  68.8034360  96.9000320 132.4744120
  68.1483200  96.6311960 131.8303820  69.6412310  96.7904800 132.0246100
  85.3549190  98.6696760 125.4008980  85.6298030  99.5775640 125.2728200
  85.1659930  98.6059290 126.3370970  81.7524800  91.6941610 126.6962610
  82.1709680  91.5072590 125.8559270  81.4460860  90.8420660 127.0065540
  85.2514530  96.6065750 130.3938410  84.8758130  95.8393680 129.9619700
  84.5217650  96.9888450 130.8813340  69.8410290  97.2852890 137.0147460
  70.2083330  97.1980290 137.8943480  69.2721110  96.5219440 136.9154320
  84.6414150  95.7537270 140.0277930  84.4100240  95.5250020 139.1275880
  84.9018700  96.6736820 139.9822820  69.3926290  94.1961980 140.9205880
  68.4982340  94.1628740 141.2599590  69.9323840  94.3948770 141.6857130
  84.5265490  94.8323240 133.6945650  85.0502970  94.3385890 133.0635820
  85.1124910  94.9673600 134.4393220  84.7055210  94.9163110 137.2165200
  83.7557920  94.8826650 137.3310190  84.8868220  95.8263220 136.9814970
  70.2073810  89.2204120 125.3666480  70.9301940  89.7613060 125.6847700
  70.4798330  88.9467540 124.4908020  84.0165460  94.0896590 129.6338060
  84.5124580  93.8567460 130.4186940  83.8181530  93.2508430 129.2175700
  85.4452620  92.7257540 132.1675740  85.3351900  92.5713580 133.1058010
  86.2060210  92.1978480 131.9251150  71.2562370 101.7985580 142.1767610
  71.2132000 101.4278490 143.0582070  71.3873380 102.7363150 142.3169430
  74.9568400 103.3545170 137.7777330  74.7159760 103.6219730 136.8907850
  75.8971040 103.5250900 137.8328190  71.0950400 104.7447830 139.2965390
  70.5010720 104.6132530 140.0355430  71.0874240 103.9085970 138.8307490
  70.7262630 102.1106210 138.2473430  69.9996690 101.4911500 138.1799380
  70.7871780 102.5046820 137.3771510  74.3307730 104.3251210 135.0322840
  74.8472750 103.7138570 134.5071100  74.9805110 104.8279990 135.5233850
  77.0703230 105.2159700 135.8591820  77.3581040 104.9614000 134.9824830
  77.5826450 104.6637060 136.4497390  82.8401310  89.6573000 134.4837420
  83.2809400  89.6018100 133.6359020  82.5708900  90.5731010 134.5547600
  84.7039880  89.2888240 132.4946240  84.6428280  88.3449460 132.3477260
  85.4831910  89.3968330 133.0399700  69.0092630 105.4280600 131.4570190
  68.8414670 104.7951280 132.1552080  68.1427140 105.6340000 131.1064380
  69.6320650  89.2597380 128.9602050  70.3900010  89.3726260 128.3866080
  69.1697820  90.0966580 128.9145480  80.6759440  88.0379100 133.1887430
  81.2788810  88.6099310 133.6635950  79.9352430  88.6018540 132.9661330
  70.6155330 104.1213830 128.9020330  70.0902950 104.5021860 128.1982290
  70.5399910 104.7464600 129.6230040  72.0045800  89.7861430 127.5004020
  72.5338560  88.9991230 127.3711970  72.6374120  90.4652620 127.7339550
  77.1375590 106.1375800 143.2260020  78.0642900 105.9020070 143.2695980
  77.1226020 106.9647800 142.7446050  74.3239200  88.8020550 142.9901900
  74.0423470  89.3054150 142.2262720  74.7058900  88.0042300 142.6244030
  72.3763090 102.1860940 127.7815910  71.7471970 102.6546040 128.3301740
  72.4910920 101.3410160 128.2162100  83.7053150 105.3645660 143.0501060
  84.4978470 104.8694890 142.8427020  83.9986300 106.0435800 143.6576670
  79.8312810  96.2366600 113.9317110  79.7506860  95.3221210 113.6608820
  79.4177230  96.7333670 113.2256820  77.9630850  98.0145620 115.8126380
  77.1872950  97.5346060 116.1024950  78.6143780  97.3351270 115.6382540
  81.9838280 102.4205810 114.5925510  81.5219810 101.6493050 114.9212680
  82.7963830 102.4471880 115.0977960  70.3888630  93.2867320 110.4744530
  69.5005330  93.6283290 110.3724410  70.6729820  93.0867640 109.5825360
  68.3521640  95.8872970 116.3584230  68.9237750  95.1195170 116.3587870
  68.3523180  96.1861730 115.4490840  77.4039840 100.6902810 115.8196540
  77.3348120  99.7492750 115.6585670  78.1659700 100.7804220 116.3919110
  69.5946510  91.2957330 118.1453160  69.4149350  90.3983080 118.4255920
  69.1926590  91.8429200 118.8200110  78.4345010  93.4973190 116.0465470
  78.8109830  92.6245070 115.9339140  78.3364520  93.8331890 115.1555910
  72.5650020  91.8698820 111.5082910  72.6716770  92.7702550 111.8151670
  71.6542380  91.8216790 111.2177560  82.2169130  90.9923630 112.9793810
  83.0378750  90.5020200 113.0219290  82.2503210  91.5821290 113.7325650
  70.2133180  93.7917830 116.7535500  70.8943290  94.0556200 117.3722900
  69.8981230  92.9518700 117.0873510  74.4057750  94.8385190 115.8408090
  74.9135970  95.3366160 116.4813110  74.9370990  94.0620390 115.6647450
  72.6893850  89.4783750 120.1071510  72.6912290  89.9956140 119.3017410
  71.8598160  89.0013930 120.0841440  79.0764940  99.5903060 111.6061410
  78.4582210 100.0552510 111.0424130  79.5888190 100.2830540 112.0230920
  73.9396700  99.1178930 118.2845010  73.6066080  99.7447850 118.9266080
  74.1163380  99.6440810 117.5046680  82.4530610  92.9324010 115.7521350
  81.7486180  93.2208900 116.3324460  82.8142770  93.7424120 115.3920910
  72.3709180  91.1893710 118.1141960  72.7125990  92.0335760 117.8195830
  71.4324990  91.3377450 118.2307300  73.1515800 101.0859730 120.0994190
  73.7689800 101.7610810 119.8178640  72.2908920 101.4947710 120.0081690
  68.4448140 100.2759590 108.9801040  68.0676120 100.7646690 108.2485940
  68.7021210 100.9484870 109.6107570  82.8997550 101.1159490 111.8184180
  82.7893880 100.1733820 111.9433600  82.8965800 101.4775130 112.7046940
  78.4417830  96.7424810 111.1746670  77.5147110  96.6762190 111.4035140
  78.5942650  97.6804940 111.0601910  82.4715120  98.3045110 111.6781920
  81.8527540  97.9664660 111.0308220  82.4539570  97.6604870 112.3861110
  74.0474470  97.2689550 113.9566400  73.6431470  96.5566800 113.4612300
  74.1337590  96.9242790 114.8454440  78.7575200 102.4827990 112.6535910
  79.1971110 103.2252320 112.2391300  78.6962090 102.7254560 113.5774870
  74.2326170 103.5073820 123.5555930  74.2041600 103.9116770 122.6884360
  74.0691140 102.5784180 123.3927530  70.7479100  96.1634530 111.4573050
  70.6276700  96.8896620 110.8454320  70.4379990  95.3937440 110.9800960
  86.1840990 104.2900920 124.8520100  86.6600710 104.7683810 125.5309180
  86.8048150 104.2218410 124.1265600  85.5874240 101.4813770 122.0120110
  85.7137300 101.2425650 121.0937290  85.6295620 100.6498310 122.4842190
  81.4245380 105.4697110 110.0098920  81.2646520 105.1800050 110.9080750
  81.2592090 104.6937240 109.4744150  80.6921440 104.6047380 112.6445410
  81.1478390 103.8236760 112.9584030  81.0313960 105.3154200 113.1886590
  73.2142760  89.5069600 114.8396720  72.7710910  90.2879140 114.5081240
  73.7727750  89.8299490 115.5467660  82.5017080  93.5947070 121.5728700
  81.6510670  93.2952820 121.8937770  82.3418870  93.8389080 120.6612520
  75.2518660  90.0516930 116.6986320  75.5490990  90.9579760 116.6178340
  75.8004220  89.5635710 116.0845890  73.0056980  94.6303170 112.5677970
  72.7797900  94.4140340 113.4724590  72.2249510  95.0631630 112.2223940
  78.8419610  93.2730080 113.1971900  79.2349180  93.5902280 112.3840590
  79.2036460  92.3941960 113.3116420  70.5766730  91.9402420 121.3872020
  70.1830120  92.7877630 121.5944800  69.8885130  91.3028790 121.5780660
  68.0654010  93.8051000 106.6304820  67.9828680  94.7481760 106.7719810
  67.7137070  93.6625910 105.7517170  79.4274750  95.8635830 117.2922680
  78.6955870  96.3722640 117.6412780  79.0299090  95.0465810 116.9911460
  75.8652140  92.5390030 115.6975170  75.8688200  92.0979980 114.8479710
  76.7603260  92.8607360 115.8046990  71.7154520  92.4216520 114.6569380
  71.3754570  92.8991750 115.4136430  70.9531840  91.9681640 114.2970480
  83.3171410  88.7301690 122.5432000  83.6417180  87.9991350 123.0689980
  83.3527920  88.4115330 121.6412990  69.0300600  91.3435500 113.5734050
  68.7447520  90.9791170 114.4112670  68.9679460  90.6115960 112.9597190
  72.4841270  99.8461440 110.3591640  71.7103530  99.3059060 110.1990360
  73.2135900  99.3268050 110.0209400  83.2429250  98.8426800 116.1518030
  83.9628370  99.3382090 115.7614140  83.0411070  98.1644690 115.5071900
  84.7189100 102.7738510 110.7871570  84.0765260 102.1194130 111.0615290
  84.3319760 103.1793600 110.0112240  80.2975580 100.1023940 114.6343260
  80.6499400  99.5052070 113.9744630  79.4137910  99.7768170 114.8051510
  76.3838860 100.8621630 112.0413670  77.0709990 101.4090840 112.4221260
  75.5971280 101.4062360 112.0763280  75.6866070  97.8667660 111.6539030
  76.1428850  98.6772910 111.8799220  75.3354280  97.5490800 112.4857520
  71.5877850  88.2105310 112.1261550  71.4592480  88.2023210 113.0746470
  70.7639870  88.5488400 111.7752560  79.2630760 101.3806350 117.6008780
  79.9052990 100.6799510 117.7140950  79.7880110 102.1604790 117.4205670
  76.8656960 102.2292580 123.9732900  76.5453830 101.5101820 124.5178590
  76.1915320 102.9047650 124.0468960  70.5077770  98.2967920 109.6612810
  69.9005720  99.0366820 109.6708110  70.9827120  98.3867280 108.8351010
  75.4156620  93.6961630 111.5615140  74.7072770  94.1647970 112.0028750
  75.7001100  93.0383640 112.1960330  79.4472050  90.4212290 113.0010930
  79.3239830  90.4398420 112.0520440  80.3956610  90.4691230 113.1209330
  84.2479410  91.3326290 120.4036060  83.7453010  92.0731690 120.7429870
  85.0636070  91.7210290 120.0872850  82.5401420  96.5759470 113.8497420
  81.5991560  96.5909700 114.0245110  82.8545490  95.7895430 114.2957720
  84.5427000 103.7468320 115.5251680  84.6674420 104.5699490 115.9975490
  85.4092560 103.5359050 115.1775830  68.8990010 101.9073100 111.0710320
  67.9729790 102.1494240 111.0615730  69.3646440 102.7347360 110.9495070
  71.0202810 105.0245600 124.3854390  71.8215540 105.3457650 124.7989790
  70.5054630 104.6641180 125.1074300  74.2230220 104.9583700 121.0409850
  73.6851310 105.6829760 120.7218550  74.4764180 104.4814040 120.2507190
  71.2673920 100.7320470 107.1509860  71.7048790 101.2750140 107.8067440
  71.7521650  99.9067420 107.1606200  86.3089990  99.2312490 114.3134900
  86.6798820  98.4479810 113.9070870  86.9491920  99.9201590 114.1352200
  69.8410290  97.2852890 118.2403970  70.2083330  97.1980290 119.1199990
  69.2721110  96.5219440 118.1410830  68.0172440  94.1099250 109.6425960
  67.1136520  94.3729450 109.4677620  68.5013060  94.3810420 108.8625920
  83.3499800 105.3667670 113.2533490  83.9458870 105.0452240 112.5767910
  83.6077950 104.8939490 114.0446760  71.2562370 101.7985580 123.4024120
  71.2132000 101.4278490 124.2838580  71.3873380 102.7363150 123.5425940
  70.3218640  88.1542180 122.5121700  70.8701630  87.9730230 121.7487810
  70.3873950  87.3636290 123.0478010  82.8401310  89.6573000 115.7093930
  83.2809400  89.6018100 114.8615530  82.5708900  90.5731010 115.7804110
  84.7039880  89.2888240 113.7202750  84.6428280  88.3449460 113.5733770
  85.4831910  89.3968330 114.2656210  69.0092630 105.4280600 112.6826700
  68.8414670 104.7951280 113.3808590  68.1427140 105.6340000 112.3320890
  69.6320650  89.2597380 110.1858560  70.3900010  89.3726260 109.6122590
  69.1697820  90.0966580 110.1401990  80.6759440  88.0379100 114.4143940
  81.2788810  88.6099310 114.8892460  79.9352430  88.6018540 114.1917840
  83.8194040  88.4400660 109.6884220  84.0144670  89.3384110 109.9551650
  83.0323910  88.2087740 110.1817170  70.6155330 104.1213830 110.1276840
  70.0902950 104.5021860 109.4238800  70.5399910 104.7464600 110.8486550
  73.2148300 106.0696210 109.0026090  73.9467120 105.7855490 108.4549980
  73.4741970 105.8309490 109.8925470  72.3763090 102.1860940 109.0072420
  71.7471970 102.6546040 109.5558250  72.4910920 101.3410160 109.4418610
  68.8902510 105.6921830  70.5505400  69.2500150 106.2911170  69.8962670
  68.7494850 106.2381720  71.3240430  86.5068680  93.0090380  63.2206970
  85.8020850  93.3972090  62.7022080  86.7726600  93.7040670  63.8227900
  85.5217530  92.3778800  59.8200090  84.5742440  92.4117780  59.9515520
  85.8467520  93.1917750  60.2049450  78.4417830  96.7424810  54.8516200
  77.5147110  96.6762190  55.0804670  78.5942650  97.6804940  54.7371440
  84.9499670  97.6960330  61.8262390  84.1218300  97.7653420  61.3512520
  85.5450150  98.2814640  61.3578220  82.6041780 104.5288980  63.4598240
  82.1272340 105.3361170  63.2670850  81.9203570 103.8767310  63.6124450
  80.6479820  97.5431920  52.3624200  81.0873100  96.7054350  52.2162020
  81.3608240  98.1761320  52.4488340  68.3864470  99.3349670  60.9411220
  68.4644890  99.4698440  59.9966940  69.0006150  98.6265560  61.1339340
  85.5874240 101.4813770  65.6889640  85.7137300 101.2425650  64.7706820
  85.6295620 100.6498310  66.1611720  77.4148170 100.7808100  52.9467280
  77.7563870 101.5250330  52.4510600  76.5860880 101.0939220  53.3092110
  83.6901850  95.9196250  51.7358970  83.6065570  96.3510470  50.8855410
  84.4096040  96.3794600  52.1685790  84.7675990  98.3763770  64.8128940
  84.0424180  98.9692550  64.6158330  85.2951450  98.3687310  64.0142310
  68.8744370 103.9576690  66.2504310  68.9835490 103.0171430  66.1099700
  68.2224930 104.2231440  65.6018040  74.9071130 103.0753030  52.5935580
  74.8981230 103.8082720  51.9780090  73.9869490 102.8284610  52.6862540
  77.8930730 103.1381270  51.2560770  77.9942710 102.9345260  50.3262750
  76.9932470 102.8839550  51.4608550  82.5401420  96.5759470  57.5266950
  81.5991560  96.5909700  57.7014640  82.8545490  95.7895430  57.9727250
  68.8990010 101.9073100  54.7479850  67.9729790 102.1494240  54.7385260
  69.3646440 102.7347360  54.6264600  71.0202810 105.0245600  68.0623920
  71.8215540 105.3457650  68.4759320  70.5054630 104.6641180  68.7843830
  81.2867810 104.8605760  66.6208740  82.2389560 104.7763780  66.5708980
  81.1396030 105.5247470  67.2942530  75.6424240 100.2333250  50.5606260
  75.5374880  99.6185600  51.2867640  75.4748460  99.7099140  49.7769270
  78.8826970  99.2953280  51.1648250  78.3337070  99.7422580  51.8090990
  79.5046230  98.7902530  51.6885920  74.5502090  98.2544200  53.0613550
  74.9718510  98.0884070  53.9044940  74.6752930  97.4444430  52.5668690
  77.0629730  97.2781810  50.3090650  77.5835390  96.5630830  49.9431800
  77.7098130  97.9167680  50.6091160  71.2673920 100.7320470  50.8279390
  71.7048790 101.2750140  51.4836970  71.7521650  99.9067420  50.8375730
  84.6072110 103.8897090  65.3058590  84.0074100 103.9489650  64.5622510
  84.7366010 102.9502070  65.4355440  85.8473560 101.6314910  50.6428300
  85.0166520 101.6991560  51.1135530  86.0245390 102.5219030  50.3395160
  86.3089990  99.2312490  57.9904430  86.6798820  98.4479810  57.5840400
  86.9491920  99.9201590  57.8121730  83.2923750 100.6149070  63.4034750
  82.4783590 101.0446230  63.6660540  83.6997950 101.2267480  62.7903800
  85.3549190  98.6696760  50.3035020  85.6298030  99.5775640  50.1754240
  85.1659930  98.6059290  51.2397010  85.2514530  96.6065750  55.2964450
  84.8758130  95.8393680  54.8645740  84.5217650  96.9888450  55.7839380
  84.5265490  94.8323240  58.5971690  85.0502970  94.3385890  57.9661860
  85.1124910  94.9673600  59.3419260  84.7055210  94.9163110  62.1191240
  83.7557920  94.8826650  62.2336230  84.8868220  95.8263220  61.8841010
  84.0165460  94.0896590  54.5364100  84.5124580  93.8567460  55.3212980
  83.8181530  93.2508430  54.1201740  86.3342890  90.5565460  50.3107920
  87.2592200  90.4246640  50.1026210  86.3118680  90.6358280  51.2644370
  86.4081380  91.3276120  52.9364630  85.6132880  91.2621240  53.4657540
  86.6124660  92.2626760  52.9249980  74.9568400 103.3545170  62.6803370
  74.7159760 103.6219730  61.7933890  75.8971040 103.5250900  62.7354230
  86.2172560 105.3739550  63.4814010  85.7230840 105.7708420  62.7641140
  85.6085850 104.7488760  63.8751290  71.0950400 104.7447830  64.1991430
  70.5010720 104.6132530  64.9381470  71.0874240 103.9085970  63.7333530
  83.9012010 106.0162970  60.7600750  83.4414980 106.7678780  60.3858770
  83.2724470 105.2969440  60.7015550  70.7262630 102.1106210  63.1499470
  69.9996690 101.4911500  63.0825420  70.7871780 102.5046820  62.2797550
  70.6155330 104.1213830  53.8046370  70.0902950 104.5021860  53.1008330
  70.5399910 104.7464600  54.5256080  72.3763090 102.1860940  52.6841950
  71.7471970 102.6546040  53.2327780  72.4910920 101.3410160  53.1188140
  83.7053150 105.3645660  67.9527100  84.4978470 104.8694890  67.7453060
  83.9986300 106.0435800  68.5602710  71.9796680  98.3265430  41.5928180
  71.1481560  98.0714140  41.9924690  72.5877660  98.3976200  42.3286100
  70.3888630  93.2867320  35.3770570  69.5005330  93.6283290  35.2750450
  70.6729820  93.0867640  34.4851400  78.4345010  93.4973190  40.9491510
  78.8109830  92.6245070  40.8365180  78.3364520  93.8331890  40.0581950
  72.5650020  91.8698820  36.4108950  72.6716770  92.7702550  36.7177710
  71.6542380  91.8216790  36.1203600  82.2169130  90.9923630  37.8819850
  83.0378750  90.5020200  37.9245330  82.2503210  91.5821290  38.6351690
  74.4057750  94.8385190  40.7434130  74.9135970  95.3366160  41.3839150
  74.9370990  94.0620390  40.5673490  86.5068680  93.0090380  44.4463480
  85.8020850  93.3972090  43.9278590  86.7726600  93.7040670  45.0484410
  73.9396700  99.1178930  43.1871050  73.6066080  99.7447850  43.8292120
  74.1163380  99.6440810  42.4072720  73.1515800 101.0859730  45.0020230
  73.7689800 101.7610810  44.7204680  72.2908920 101.4947710  44.9107730
  85.5217530  92.3778800  41.0456600  84.5742440  92.4117780  41.1772030
  85.8467520  93.1917750  41.4305960  76.0537070  88.6775980  39.3412590
  76.3612050  88.1222870  38.6248090  75.1237770  88.8120440  39.1585580
  81.0037570  99.2973110  42.9602660  81.4206360  99.0833220  42.1256120
  81.7277390  99.5545900  43.5311280  84.9499670  97.6960330  43.0518900
  84.1218300  97.7653420  42.5769030  85.5450150  98.2814640  42.5834730
  81.9141680  94.4829650  43.9973770  81.5012860  95.3083360  44.2513760
  81.1817630  93.8974690  43.8050130  74.0474470  97.2689550  38.8592440
  73.6431470  96.5566800  38.3638340  74.1337590  96.9242790  39.7480480
  74.5156170 100.9557110  41.0231650  74.2184460 100.3502580  40.3439430
  75.4655990 100.9934420  40.9121010  72.7603090  94.0432760  42.6391480
  73.3117680  94.1528100  41.8644730  73.2746600  94.4170360  43.3546710
  73.6074600 100.6938800  47.6739450  72.7103130 100.9178770  47.9212850
  73.6327470 100.8173740  46.7250850  74.2326170 103.5073820  48.4581970
  74.2041600 103.9116770  47.5910400  74.0691140 102.5784180  48.2953570
  84.2296960  88.7974730  31.9021750  83.9169620  88.8901560  32.8020820
  84.9909430  89.3755760  31.8519180  85.5874240 101.4813770  46.9146150
  85.7137300 101.2425650  45.9963330  85.6295620 100.6498310  47.3868230
  81.4245380 105.4697110  34.9124960  81.2646520 105.1800050  35.8106790
  81.2592090 104.6937240  34.3770190  81.1271510 102.9784670  33.4722960
  80.4336670 102.9761960  32.8125240  81.8694370 102.5543990  33.0417130
  85.4398250  93.5346230  47.8795890  84.8242520  94.0425900  47.3511350
  85.1194670  92.6344560  47.8221830  73.2142760  89.5069600  39.7422760
  72.7710910  90.2879140  39.4107280  73.7727750  89.8299490  40.4493700
  77.5012570  92.3738120  45.3458080  77.0391940  92.5821140  46.1578020
  77.0990680  91.5597470  45.0428750  82.5017080  93.5947070  46.4754740
  81.6510670  93.2952820  46.7963810  82.3418870  93.8389080  45.5638560
  79.5966790  95.0948820  48.5753530  79.9220200  94.2612570  48.2355760
  80.3847120  95.6177340  48.7231860  76.3301580  89.1280300  34.6228590
  75.7055760  89.1240170  35.3481900  76.2431700  88.2611260  34.2264560
  75.2518660  90.0516930  41.6012360  75.5490990  90.9579760  41.5204380
  75.8004220  89.5635710  40.9871930  68.0654010  93.8051000  31.5330860
  67.9828680  94.7481760  31.6745850  67.7137070  93.6625910  30.6543210
  79.4274750  95.8635830  42.1948720  78.6955870  96.3722640  42.5438820
  79.0299090  95.0465810  41.8937500  75.8652140  92.5390030  40.6001210
  75.8688200  92.0979980  39.7505750  76.7603260  92.8607360  40.7073030
  75.9272290  93.5402110  33.5907970  76.0485110  93.4988590  34.5393790
  75.5420800  94.4026260  33.4354700  79.8900660  91.3169510  41.6071660
  79.9073400  91.7678160  42.4513510  79.6416240  90.4175150  41.8205100
  83.3171410  88.7301690  47.4458040  83.6417180  87.9991350  47.9716020
  83.3527920  88.4115330  46.5439030  70.0162970  99.7515270  46.8658000
  69.6317760  99.1108940  47.4640960  70.3275160 100.4551390  47.4352730
  76.1660110  96.5991810  42.3466620  76.5330240  96.1250380  43.0927960
  75.9765170  97.4733380  42.6874960  83.2429250  98.8426800  41.0544070
  83.9628370  99.3382090  40.6640180  83.0411070  98.1644690  40.4097940
  78.7039190  90.2364760  35.1973460  77.8903800  89.7377930  35.1218770
  78.5101140  91.0763010  34.7809810  78.6248050  98.9135860  46.9413070
  78.5585360  97.9931530  46.6870660  77.9953190  99.0111300  47.6557710
  72.5278670  99.5141820  38.8996490  73.0457340  98.7110080  38.8453380
  72.0762690  99.4520960  39.7413320  77.4148170 100.7808100  34.1723790
  77.7563870 101.5250330  33.6767110  76.5860880 101.0939220  34.5348620
  84.7675990  98.3763770  46.0385450  84.0424180  98.9692550  45.8414840
  85.2951450  98.3687310  45.2398820  77.9898680 103.3774000  43.7857370
  78.6340900 103.5833380  44.4630790  78.3528120 102.6162400  43.3328220
  71.5877850  88.2105310  37.0287590  71.4592480  88.2023210  37.9772510
  70.7639870  88.5488400  36.6778600  83.1086480 101.6654970  32.2273960
  82.8824060 100.9485410  32.8198600  82.7182680 101.4167410  31.3895710
  68.8902510 105.6921830  33.0018420  69.2500150 106.2911170  32.3475690
  68.7494850 106.2381720  33.7753450  82.6902730  99.5826910  33.8888120
  82.4024430 100.0439600  34.6766000  83.4854900  99.1224680  34.1572340
  68.8744370 103.9576690  47.4760820  68.9835490 103.0171430  47.3356210
  68.2224930 104.2231440  46.8274550  76.8656960 102.2292580  48.8758940
  76.5453830 101.5101820  49.4204630  76.1915320 102.9047650  48.9495000
  80.0810560  92.4618740  44.2395740  80.4491380  91.6413950  44.5675310
  79.2208760  92.5220630  44.6551390  77.8930730 103.1381270  32.4817280
  77.9942710 102.9345260  31.5519260  76.9932470 102.8839550  32.6865060
  75.4156620  93.6961630  36.4641180  74.7072770  94.1647970  36.9054790
  75.7001100  93.0383640  37.0986370  77.0412550  95.1158330  44.4633710
  77.5397800  95.5904150  45.1285560  77.1835500  94.1921850  44.6703740
  79.4472050  90.4212290  37.9036970  79.3239830  90.4398420  36.9546480
  80.3956610  90.4691230  38.0235370  84.2479410  91.3326290  45.3062100
  83.7453010  92.0731690  45.6455910  85.0636070  91.7210290  44.9898890
  84.1777010 104.2399970  33.3457160  83.8918520 103.8265110  32.5311340
  83.9796560 105.1687680  33.2257680  75.7938560  98.9190050  47.7652000
  75.0284230  99.4875050  47.6806670  75.9754520  98.6266260  46.8720230
  82.0829740  96.0406370  48.8621380  82.6650510  95.2858690  48.7741860
  82.2591510  96.5713810  48.0852860  76.3722800  98.6530690  44.8278160
  76.7910910  99.4963420  44.6554400  75.4531430  98.7902730  44.5984940
  78.7086700  96.3846870  46.2116000  78.8282910  95.7888010  46.9510840
  79.5680700  96.4216560  45.7917300  81.0474600  96.9384060  44.7878510
  80.5209820  97.4626680  44.1843650  81.3905940  97.5711450  45.4188240
  74.2230220 104.9583700  45.9435890  73.6851310 105.6829760  45.6244590
  74.4764180 104.4814040  45.1533230  80.9249300  89.1385660  33.7615100
  81.2051590  88.2953560  34.1174520  80.1515030  89.3708770  34.2753850
  77.0792430 106.1934910  46.2022540  77.0051130 107.0970050  46.5094910
  76.1771270 105.8746810  46.1744610  68.9709930 104.3880090  42.2437790
  68.5340920 104.5680890  43.0761940  69.5387610 105.1454710  42.1019510
  85.8473560 101.6314910  31.8684810  85.0166520 101.6991560  32.3392040
  86.0245390 102.5219030  31.5651670  69.8410290  97.2852890  43.1430010
  70.2083330  97.1980290  44.0226030  69.2721110  96.5219440  43.0436870
  84.6414150  95.7537270  46.1560480  84.4100240  95.5250020  45.2558430
  84.9018700  96.6736820  46.1105370  83.0802220  90.9793700  48.9340180
  83.9572400  90.9877100  49.3174180  83.0923060  90.2424540  48.3232530
  68.0172440  94.1099250  34.5452000  67.1136520  94.3729450  34.3703660
  68.5013060  94.3810420  33.7651960  84.7055210  94.9163110  43.3447750
  83.7557920  94.8826650  43.4592740  84.8868220  95.8263220  43.1097520
  70.2073810  89.2204120  31.4949030  70.9301940  89.7613060  31.8130250
  70.4798330  88.9467540  30.6190570  85.4452620  92.7257540  38.2958290
  85.3351900  92.5713580  39.2340560  86.2060210  92.1978480  38.0533700
  83.7918340  88.6651670  44.7541290  84.4290560  89.2785810  45.1200480
  83.9393230  88.7012330  43.8090520  86.3342890  90.5565460  31.5364430
  87.2592200  90.4246640  31.3282720  86.3118680  90.6358280  32.4900880
  83.3499800 105.3667670  38.1559530  83.9458870 105.0452240  37.4793950
  83.6077950 104.8939490  38.9472800  71.2562370 101.7985580  48.3050160
  71.2132000 101.4278490  49.1864620  71.3873380 102.7363150  48.4451980
  74.9568400 103.3545170  43.9059880  74.7159760 103.6219730  43.0190400
  75.8971040 103.5250900  43.9610740  71.0950400 104.7447830  45.4247940
  70.5010720 104.6132530  46.1637980  71.0874240 103.9085970  44.9590040
  80.5405420  88.0380060  43.6277970  79.6665260  88.3715170  43.4250900
  80.4316170  87.5653240  44.4529840  81.4477400  90.2450930  45.0119690
  81.1190760  89.4302690  44.6321420  82.3959700  90.2020740  44.8885380
  70.7262630 102.1106210  44.3755980  69.9996690 101.4911500  44.3081930
  70.7871780 102.5046820  43.5054060  77.0703230 105.2159700  41.9874370
  77.3581040 104.9614000  41.1107380  77.5826450 104.6637060  42.5779940
  78.2880240  88.9549900  42.5670880  77.5052030  89.4295400  42.8467640
  77.9943170  88.0504730  42.4584060  82.8401310  89.6573000  40.6119970
  83.2809400  89.6018100  39.7641570  82.5708900  90.5731010  40.6830150
  84.7039880  89.2888240  38.6228790  84.6428280  88.3449460  38.4759810
  85.4831910  89.3968330  39.1682250  69.6320650  89.2597380  35.0884600
  70.3900010  89.3726260  34.5148630  69.1697820  90.0966580  35.0428030
  76.1734460  91.3736650  38.0786910  75.3608970  90.9993540  37.7382790
  76.6776100  90.6181730  38.3808100  80.6759440  88.0379100  39.3169980
  81.2788810  88.6099310  39.7918500  79.9352430  88.6018540  39.0943880
  83.8194040  88.4400660  34.5910260  84.0144670  89.3384110  34.8577690
  83.0323910  88.2087740  35.0843210  72.0045800  89.7861430  33.6286570
  72.5338560  88.9991230  33.4994520  72.6374120  90.4652620  33.8622100
  74.1983640  89.5236570  36.6831960  73.5686380  88.8223880  36.8502090
  73.6588780  90.2840700  36.4665120  77.1375590 106.1375800  49.3542570
  78.0642900 105.9020070  49.3978530  77.1226020 106.9647800  48.8728600
  85.3720650 105.6801370  36.3516820  85.5472840 104.9939110  35.7077740
  84.6742220 106.2048420  35.9593490  81.9838280 102.4205810  20.7208060
  81.5219810 101.6493050  21.0495230  82.7963830 102.4471880  21.2260510
  70.3888630  93.2867320  16.6027080  69.5005330  93.6283290  16.5006960
  70.6729820  93.0867640  15.7107910  68.3521640  95.8872970  22.4866780
  68.9237750  95.1195170  22.4870420  68.3523180  96.1861730  21.5773390
  78.2101590 104.7063820  20.3412050  77.5913030 105.1621320  19.7706490
  79.0653370 104.8615280  19.9401750  69.5946510  91.2957330  24.2735710
  69.4149350  90.3983080  24.5538470  69.1926590  91.8429200  24.9482660
  72.5650020  91.8698820  17.6365460  72.6716770  92.7702550  17.9434220
  71.6542380  91.8216790  17.3460110  70.2133180  93.7917830  22.8818050
  70.8943290  94.0556200  23.5005450  69.8981230  92.9518700  23.2156060
  72.3709180  91.1893710  24.2424510  72.7125990  92.0335760  23.9478380
  71.4324990  91.3377450  24.3589850  68.4448140 100.2759590  15.1083590
  68.0676120 100.7646690  14.3768490  68.7021210 100.9484870  15.7390120
  76.0537070  88.6775980  20.5669100  76.3612050  88.1222870  19.8504600
  75.1237770  88.8120440  20.3842090  81.6052130 104.3943270  22.8576560
  81.6179290 103.9905560  21.9898820  81.0527350 105.1690560  22.7537990
  82.8997550 101.1159490  17.9466730  82.7893880 100.1733820  18.0716150
  82.8965800 101.4775130  18.8329490  82.6041780 104.5288980  25.9111260
  82.1272340 105.3361170  25.7183870  81.9203570 103.8767310  26.0637470
  78.7575200 102.4827990  18.7818460  79.1971110 103.2252320  18.3673850
  78.6962090 102.7254560  19.7057420  74.2326170 103.5073820  29.6838480
  74.2041600 103.9116770  28.8166910  74.0691140 102.5784180  29.5210080
  84.2296960  88.7974730  13.1278260  83.9169620  88.8901560  14.0277330
  84.9909430  89.3755760  13.0775690  70.7479100  96.1634530  17.5855600
  70.6276700  96.8896620  16.9736870  70.4379990  95.3937440  17.1083510
  86.1840990 104.2900920  30.9802650  86.6600710 104.7683810  31.6591730
  86.8048150 104.2218410  30.2548150  68.3864470  99.3349670  23.3924240
  68.4644890  99.4698440  22.4479960  69.0006150  98.6265560  23.5852360
  69.6312100 101.0349860  19.8030420  69.2240180 101.1764450  18.9484020
  70.5225110 100.7510020  19.6001630  79.4490980 105.1841770  26.7097470
  79.9635650 105.0949780  27.5119900  78.6060060 105.5301470  27.0025380
  81.4245380 105.4697110  16.1381470  81.2646520 105.1800050  17.0363300
  81.2592090 104.6937240  15.6026700  73.9033760 105.2495640  17.9153090
  73.7276240 104.3331180  17.7020890  73.0489500 105.6082930  18.1550890
  81.1271510 102.9784670  14.6979470  80.4336670 102.9761960  14.0381750
  81.8694370 102.5543990  14.2673640  80.6921440 104.6047380  18.7727960
  81.1478390 103.8236760  19.0866580  81.0313960 105.3154200  19.3169140
  73.2142760  89.5069600  20.9679270  72.7710910  90.2879140  20.6363790
  73.7727750  89.8299490  21.6750210  77.5012570  92.3738120  26.5714590
  77.0391940  92.5821140  27.3834530  77.0990680  91.5597470  26.2685260
  75.2518660  90.0516930  22.8268870  75.5490990  90.9579760  22.7460890
  75.8004220  89.5635710  22.2128440  73.0056980  94.6303170  18.6960520
  72.7797900  94.4140340  19.6007140  72.2249510  95.0631630  18.3506490
  67.8783780  89.8630880  21.5484650  67.5896830  90.4333740  22.2609630
  68.6229540  89.3835330  21.9115880  68.0654010  93.8051000  12.7587370
  67.9828680  94.7481760  12.9002360  67.7137070  93.6625910  11.8799720
  71.7154520  92.4216520  20.7851930  71.3754570  92.8991750  21.5418980
  70.9531840  91.9681640  20.4253030  79.8900660  91.3169510  22.8328170
  79.9073400  91.7678160  23.6770020  79.6416240  90.4175150  23.0461610
  74.9393790  95.8503250  14.2147780  74.3710690  95.4021500  13.5883690
  75.6482790  96.2096030  13.6812930  83.3171410  88.7301690  28.6714550
  83.6417180  87.9991350  29.1972530  83.3527920  88.4115330  27.7695540
  69.0300600  91.3435500  19.7016600  68.7447520  90.9791170  20.5395220
  68.9679460  90.6115960  19.0879740  72.4841270  99.8461440  16.4874190
  71.7103530  99.3059060  16.3272910  73.2135900  99.3268050  16.1491950
  77.4148170 100.7808100  15.3980300  77.7563870 101.5250330  14.9023620
  76.5860880 101.0939220  15.7605130  84.7189100 102.7738510  16.9154120
  84.0765260 102.1194130  17.1897840  84.3319760 103.1793600  16.1394790
  76.3838860 100.8621630  18.1696220  77.0709990 101.4090840  18.5503810
  75.5971280 101.4062360  18.2045830  68.5231260  96.4794450  13.6613300
  69.3926110  96.7619250  13.9449220  68.0321580  97.2930320  13.5462110
  75.6866070  97.8667660  17.7821580  76.1428850  98.6772910  18.0081770
  75.3354280  97.5490800  18.6140070  77.9898680 103.3774000  25.0113880
  78.6340900 103.5833380  25.6887300  78.3528120 102.6162400  24.5584730
  71.5877850  88.2105310  18.2544100  71.4592480  88.2023210  19.2029020
  70.7639870  88.5488400  17.9035110  83.1086480 101.6654970  13.4530470
  82.8824060 100.9485410  14.0455110  82.7182680 101.4167410  12.6152220
  68.8902510 105.6921830  14.2274930  69.2500150 106.2911170  13.5732200
  68.7494850 106.2381720  15.0009960  68.5871780  89.9696430  27.7150800
  67.8730300  90.1693350  28.3203410  69.0066820  89.1936000  28.0865600
  74.9071130 103.0753030  15.0448600  74.8981230 103.8082720  14.4293110
  73.9869490 102.8284610  15.1375560  70.5077770  98.2967920  15.7895360
  69.9005720  99.0366820  15.7990660  70.9827120  98.3867280  14.9633560
  80.0810560  92.4618740  25.4652250  80.4491380  91.6413950  25.7931820
  79.2208760  92.5220630  25.8807900  83.4472590  91.4175680  16.2739810
  82.8185750  91.5221350  15.5598040  82.9524510  91.6372460  17.0633690
  77.8930730 103.1381270  13.7073790  77.9942710 102.9345260  12.7775770
  76.9932470 102.8839550  13.9121570  76.5348840 105.6567590  18.4021460
  76.7890340 105.6188980  17.4800830  75.5861320 105.5300920  18.3949710
  73.6191640  92.0046710  15.0648400  74.4682170  92.4416860  14.9988590
  73.2522910  92.3166970  15.8920460  84.2479410  91.3326290  26.5318610
  83.7453010  92.0731690  26.8712420  85.0636070  91.7210290  26.2155400
  72.5183060  98.2579070  13.5383930  73.2846330  98.1460430  14.1009360
  72.5957750  97.5617040  12.8860700  71.2129820  95.6904140  14.2216820
  71.2933410  94.7431650  14.3334220  72.1049570  96.0211020  14.3277480
  72.0144530 105.8399530  21.3251360  72.7507010 105.2914990  21.5959930
  72.3985450 106.7055540  21.1857350  68.8990010 101.9073100  17.1992870
  67.9729790 102.1494240  17.1898280  69.3646440 102.7347360  17.0777620
  75.1246840 105.0129840  13.1476930  75.9175450 105.3018670  12.6958720
  74.6051190 104.5822010  12.4689410  81.2867810 104.8605760  29.0721760
  82.2389560 104.7763780  29.0222000  81.1396030 105.5247470  29.7455550
  84.1777010 104.2399970  14.5713670  83.8918520 103.8265110  13.7567850
  83.9796560 105.1687680  14.4514190  75.6424240 100.2333250  13.0119280
  75.5374880  99.6185600  13.7380660  75.4748460  99.7099140  12.2282290
  78.8826970  99.2953280  13.6161270  78.3337070  99.7422580  14.2604010
  79.5046230  98.7902530  14.1398940  74.5502090  98.2544200  15.5126570
  74.9718510  98.0884070  16.3557960  74.6752930  97.4444430  15.0181710
  77.0629730  97.2781810  12.7603670  77.5835390  96.5630830  12.3944820
  77.7098130  97.9167680  13.0604180  75.9663250  89.7576360  25.4322230
  75.5180550  89.7800620  24.5867780  75.3328450  89.3595380  26.0292530
  73.4460990  94.3277430  12.4584730  73.2450050  93.4644790  12.8198070
  73.2753040  94.2410790  11.5206330  80.2948900  92.5434030  28.9281350
  79.6064420  91.8815570  28.8631340  81.0154920  92.0972300  29.3729810
  72.2443790  91.4278050  12.4462610  72.5469690  91.4345480  11.5381760
  72.9838380  91.0775910  12.9430270  77.0792430 106.1934910  27.4279050
  77.0051130 107.0970050  27.7351420  76.1771270 105.8746810  27.4001120
  75.4628720  90.3712670  13.4318810  75.1150720  89.6936660  12.8521260
  75.6641490  89.9102180  14.2462200  77.6277760 105.3593420  15.0505410
  78.5228550 105.6978390  15.0724170  77.6595390 104.6372830  14.4229690
  71.2673920 100.7320470  13.2792410  71.7048790 101.2750140  13.9349990
  71.7521650  99.9067420  13.2888750  68.4819720 103.5209500  20.7312670
  68.8122730 102.6530560  20.4991310  68.9110720 103.7268020  21.5617630
  73.0781640 101.8518510  18.3914640  72.7777180 101.7283480  19.2918550
  72.9719130 100.9927100  17.9830370  84.6072110 103.8897090  27.7571610
  84.0074100 103.9489650  27.0135530  84.7366010 102.9502070  27.8868460
  85.8473560 101.6314910  13.0941320  85.0166520 101.6991560  13.5648550
  86.0245390 102.5219030  12.7908180  68.8034360  96.9000320  19.8283180
  68.1483200  96.6311960  19.1842880  69.6412310  96.7904800  19.3785160
  85.3549190  98.6696760  12.7548040  85.6298030  99.5775640  12.6267260
  85.1659930  98.6059290  13.6910030  83.0802220  90.9793700  30.1596690
  83.9572400  90.9877100  30.5430690  83.0923060  90.2424540  29.5489040
  68.0172440  94.1099250  15.7708510  67.1136520  94.3729450  15.5960170
  68.5013060  94.3810420  14.9908470  70.5599650  93.1664790  13.6802890
  71.2691350  92.7448010  13.1950170  69.8439590  93.2340020  13.0486240
  70.2073810  89.2204120  12.7205540  70.9301940  89.7613060  13.0386760
  70.4798330  88.9467540  11.8447080  85.4452620  92.7257540  19.5214800
  85.3351900  92.5713580  20.4597070  86.2060210  92.1978480  19.2790210
  83.7918340  88.6651670  25.9797800  84.4290560  89.2785810  26.3456990
  83.9393230  88.7012330  25.0347030  86.3342890  90.5565460  12.7620940
  87.2592200  90.4246640  12.5539230  86.3118680  90.6358280  13.7157390
  86.4081380  91.3276120  15.3877650  85.6132880  91.2621240  15.9170560
  86.6124660  92.2626760  15.3763000  83.3499800 105.3667670  19.3816040
  83.9458870 105.0452240  18.7050460  83.6077950 104.8939490  20.1729310
  69.6498000  88.6265980  25.3653480  69.3012820  89.0829800  26.1311660
  69.3185700  87.7323110  25.4475910  79.7997380  89.4747920  28.5265190
  80.4137790  89.7927210  27.8646270  80.3446940  88.9896510  29.1461050
  70.3218640  88.1542180  28.6404250  70.8701630  87.9730230  27.8770360
  70.3873950  87.3636290  29.1760560  80.5405420  88.0380060  24.8534480
  79.6665260  88.3715170  24.6507410  80.4316170  87.5653240  25.6786350
  81.4477400  90.2450930  26.2376200  81.1190760  89.4302690  25.8577930
  82.3959700  90.2020740  26.1141890  74.3307730 104.3251210  22.3861900
  74.8472750 103.7138570  21.8610160  74.9805110 104.8279990  22.8772910
  77.0703230 105.2159700  23.2130880  77.3581040 104.9614000  22.3363890
  77.5826450 104.6637060  23.8036450  78.2880240  88.9549900  23.7927390
  77.5052030  89.4295400  24.0724150  77.9943170  88.0504730  23.6840570
  82.8401310  89.6573000  21.8376480  83.2809400  89.6018100  20.9898080
  82.5708900  90.5731010  21.9086660  84.7039880  89.2888240  19.8485300
  84.6428280  88.3449460  19.7016320  85.4831910  89.3968330  20.3938760
  69.0092630 105.4280600  18.8109250  68.8414670 104.7951280  19.5091140
  68.1427140 105.6340000  18.4603440  69.6320650  89.2597380  16.3141110
  70.3900010  89.3726260  15.7405140  69.1697820  90.0966580  16.2684540
  80.6759440  88.0379100  20.5426490  81.2788810  88.6099310  21.0175010
  79.9352430  88.6018540  20.3200390  83.8194040  88.4400660  15.8166770
  84.0144670  89.3384110  16.0834200  83.0323910  88.2087740  16.3099720
  70.6155330 104.1213830  16.2559390  70.0902950 104.5021860  15.5521350
  70.5399910 104.7464600  16.9769100  72.0045800  89.7861430  14.8543080
  72.5338560  88.9991230  14.7251030  72.6374120  90.4652620  15.0878610
  74.1983640  89.5236570  17.9088470  73.5686380  88.8223880  18.0758600
  73.6588780  90.2840700  17.6921630  85.3720650 105.6801370  17.5773330
  85.5472840 104.9939110  16.9334250  84.6742220 106.2048420  17.1850000
  73.2148300 106.0696210  15.1308640  73.9467120 105.7855490  14.5832530
  73.4741970 105.8309490  16.0208020  72.3763090 102.1860940  15.1354970
  71.7471970 102.6546040  15.6840800  72.4910920 101.3410160  15.5701160
  80.9254660  88.2174130  30.9221430  80.8120110  88.5368740  31.8172950
  81.7424400  88.6186640  30.6258710  83.7053150 105.3645660  30.4040120
  84.4978470 104.8694890  30.1966080  83.9986300 106.0435800  31.0115730
  77.9630850  98.0145620   3.1665440  77.1872950  97.5346060   3.4564010
  78.6143780  97.3351270   2.9921600  71.9796680  98.3265430   4.0441200
  71.1481560  98.0714140   4.4437710  72.5877660  98.3976200   4.7799120
  81.9838280 102.4205810   1.9464570  81.5219810 101.6493050   2.2751740
  82.7963830 102.4471880   2.4517020  71.9597940 102.3605520   4.2399220
  72.2625980 101.4703260   4.0609440  72.7041530 102.9175740   4.0121470
  68.3521640  95.8872970   3.7123290  68.9237750  95.1195170   3.7126930
  68.3523180  96.1861730   2.8029900  77.4039840 100.6902810   3.1735600
  77.3348120  99.7492750   3.0124730  78.1659700 100.7804220   3.7458170
  69.5946510  91.2957330   5.4992220  69.4149350  90.3983080   5.7794980
  69.1926590  91.8429200   6.1739170  78.4345010  93.4973190   3.4004530
  78.8109830  92.6245070   3.2878200  78.3364520  93.8331890   2.5094970
  70.2133180  93.7917830   4.1074560  70.8943290  94.0556200   4.7261960
  69.8981230  92.9518700   4.4412570  74.4057750  94.8385190   3.1947150
  74.9135970  95.3366160   3.8352170  74.9370990  94.0620390   3.0186510
  86.5068680  93.0090380   6.8976500  85.8020850  93.3972090   6.3791610
  86.7726600  93.7040670   7.4997430  72.6893850  89.4783750   7.4610570
  72.6912290  89.9956140   6.6556470  71.8598160  89.0013930   7.4380500
  73.9396700  99.1178930   5.6384070  73.6066080  99.7447850   6.2805140
  74.1163380  99.6440810   4.8585740  82.4530610  92.9324010   3.1060410
  81.7486180  93.2208900   3.6863520  82.8142770  93.7424120   2.7459970
  72.3709180  91.1893710   5.4681020  72.7125990  92.0335760   5.1734890
  71.4324990  91.3377450   5.5846360  73.1515800 101.0859730   7.4533250
  73.7689800 101.7610810   7.1717700  72.2908920 101.4947710   7.3620750
  84.0693390 102.5499140   5.3687890  83.3856910 103.2198250   5.3604560
  84.6087680 102.7479790   4.6032750  85.5217530  92.3778800   3.4969620
  84.5742440  92.4117780   3.6285050  85.8467520  93.1917750   3.8818980
  81.6052130 104.3943270   4.0833070  81.6179290 103.9905560   3.2155330
  81.0527350 105.1690560   3.9794500  81.0037570  99.2973110   5.4115680
  81.4206360  99.0833220   4.5769140  81.7277390  99.5545900   5.9824300
  84.9499670  97.6960330   5.5031920  84.1218300  97.7653420   5.0282050
  85.5450150  98.2814640   5.0347750  81.9141680  94.4829650   6.4486790
  81.5012860  95.3083360   6.7026780  81.1817630  93.8974690   6.2563150
  74.5156170 100.9557110   3.4744670  74.2184460 100.3502580   2.7952450
  75.4655990 100.9934420   3.3634030  72.7603090  94.0432760   5.0904500
  73.3117680  94.1528100   4.3157750  73.2746600  94.4170360   5.8059730
  82.6041780 104.5288980   7.1367770  82.1272340 105.3361170   6.9440380
  81.9203570 103.8767310   7.2893980  73.6074600 100.6938800  10.1252470
  72.7103130 100.9178770  10.3725870  73.6327470 100.8173740   9.1763870
  72.4345820  97.5652120   8.7009840  72.2953590  98.4374920   9.0697240
  71.5527180  97.2224930   8.5557780  74.2326170 103.5073820  10.9094990
  74.2041600 103.9116770  10.0423420  74.0691140 102.5784180  10.7466590
  86.1840990 104.2900920  12.2059160  86.6600710 104.7683810  12.8848240
  86.8048150 104.2218410  11.4804660  68.3864470  99.3349670   4.6180750
  68.4644890  99.4698440   3.6736470  69.0006150  98.6265560   4.8108870
  85.5874240 101.4813770   9.3659170  85.7137300 101.2425650   8.4476350
  85.6295620 100.6498310   9.8381250  79.4490980 105.1841770   7.9353980
  79.9635650 105.0949780   8.7376410  78.6060060 105.5301470   8.2281890
  85.4398250  93.5346230  10.3308910  84.8242520  94.0425900   9.8024370
  85.1194670  92.6344560  10.2734850  68.4423990 100.3763840   7.1575210
  68.6055030  99.9069200   6.3394580  68.9076440  99.8687400   7.8224050
  73.2142760  89.5069600   2.1935780  72.7710910  90.2879140   1.8620300
  73.7727750  89.8299490   2.9006720  77.5012570  92.3738120   7.7971100
  77.0391940  92.5821140   8.6091040  77.0990680  91.5597470   7.4941770
  82.5017080  93.5947070   8.9267760  81.6510670  93.2952820   9.2476830
  82.3418870  93.8389080   8.0151580  79.5966790  95.0948820  11.0266550
  79.9220200  94.2612570  10.6868780  80.3847120  95.6177340  11.1744880
  75.2518660  90.0516930   4.0525380  75.5490990  90.9579760   3.9717400
  75.8004220  89.5635710   3.4384950  75.4456190  95.5288750  10.5877300
  75.3499790  94.5883480  10.4377700  76.2888170  95.7503820  10.1925370
  70.5766730  91.9402420   8.7411080  70.1830120  92.7877630   8.9483860
  69.8885130  91.3028790   8.9319720  77.1511780  92.0237390  11.8107820
  76.4610100  91.8309590  12.4453910  77.8944080  92.3072030  12.3432120
  67.8783780  89.8630880   2.7741160  67.5896830  90.4333740   3.4866140
  68.6229540  89.3835330   3.1372390  79.4274750  95.8635830   4.6461740
  78.6955870  96.3722640   4.9951840  79.0299090  95.0465810   4.3450520
  75.8652140  92.5390030   3.0514230  75.8688200  92.0979980   2.2018770
  76.7603260  92.8607360   3.1586050  71.7154520  92.4216520   2.0108440
  71.3754570  92.8991750   2.7675490  70.9531840  91.9681640   1.6509540
  79.8900660  91.3169510   4.0584680  79.9073400  91.7678160   4.9026530
  79.6416240  90.4175150   4.2718120  83.3171410  88.7301690   9.8971060
  83.6417180  87.9991350  10.4229040  83.3527920  88.4115330   8.9952050
  70.0162970  99.7515270   9.3171020  69.6317760  99.1108940   9.9153980
  70.3275160 100.4551390   9.8865750  76.1660110  96.5991810   4.7979640
  76.5330240  96.1250380   5.5440980  75.9765170  97.4733380   5.1387980
  73.9559480  95.6400450   7.1163850  73.6516550  96.5192430   7.3414210
  74.9105940  95.7000240   7.1521290  83.2429250  98.8426800   3.5057090
  83.9628370  99.3382090   3.1153200  83.0411070  98.1644690   2.8610960
  78.6248050  98.9135860   9.3926090  78.5585360  97.9931530   9.1383680
  77.9953190  99.0111300  10.1070730  70.0123210  96.4803190   8.2635210
  69.6538150  97.1457040   8.8508550  69.7177770  95.6486740   8.6347830
  73.2136330  96.9387430  11.1474760  72.9136470  97.0844610  10.2502580
  73.9847570  96.3792720  11.0548150  78.5564780 101.7356430   9.1429890
  78.5709320 100.8037390   8.9248800  77.8489880 101.8216190   9.7819660
  84.7675990  98.3763770   8.4898470  84.0424180  98.9692550   8.2927860
  85.2951450  98.3687310   7.6911840  77.9898680 103.3774000   6.2370390
  78.6340900 103.5833380   6.9143810  78.3528120 102.6162400   5.7841240
  79.2630760 101.3806350   4.9547840  79.9052990 100.6799510   5.0680010
  79.7880110 102.1604790   4.7744730  81.0368380 102.1801250   8.1583900
  81.3724620 102.7667940   8.8361820  80.1168720 102.0493960   8.3881690
  68.5871780  89.9696430   8.9407310  67.8730300  90.1693350   9.5459920
  69.0066820  89.1936000   9.3122110  68.8744370 103.9576690   9.9273840
  68.9835490 103.0171430   9.7869230  68.2224930 104.2231440   9.2787570
  76.8656960 102.2292580  11.3271960  76.5453830 101.5101820  11.8717650
  76.1915320 102.9047650  11.4008020  80.0810560  92.4618740   6.6908760
  80.4491380  91.6413950   7.0188330  79.2208760  92.5220630   7.1064410
  77.0412550  95.1158330   6.9146730  77.5397800  95.5904150   7.5798580
  77.1835500  94.1921850   7.1216760  84.2479410  91.3326290   7.7575120
  83.7453010  92.0731690   8.0968930  85.0636070  91.7210290   7.4411910
  84.5427000 103.7468320   2.8790740  84.6674420 104.5699490   3.3514550
  85.4092560 103.5359050   2.5314890  72.0144530 105.8399530   2.5507870
  72.7507010 105.2914990   2.8216440  72.3985450 106.7055540   2.4113860
  71.0202810 105.0245600  11.7393450  71.8215540 105.3457650  12.1528850
  70.5054630 104.6641180  12.4613360  79.8567440 101.1325470  11.6868860
  79.2505600 101.1557070  10.9464610  79.5521550 100.4008510  12.2236110
  81.2867810 104.8605760  10.2978270  82.2389560 104.7763780  10.2478510
  81.1396030 105.5247470  10.9712060  68.7400620  97.5119060  10.6829500
  69.2439640  96.9326340  11.2545730  68.0008040  97.7959290  11.2205870
  75.7938560  98.9190050  10.2165020  75.0284230  99.4875050  10.1319690
  75.9754520  98.6266260   9.3233250  82.9361910 100.6495380  10.7740040
  83.6771380 100.9871140  10.2707500  82.1734590 100.8187440  10.2209810
  70.7723700  95.6548650  11.5779570  70.8129040  95.3562520  12.4864800
  71.6269200  96.0556260  11.4187090  72.7129510  94.2340750   9.5454060
  72.1825970  93.7431700   8.9177400  73.3817580  94.6624950   9.0111990
  81.6107570  98.7010210   9.3095250  82.0248590  98.8555290  10.1585670
  80.6758570  98.8265430   9.4721030  73.2001810  91.2003120   9.6251350
  73.1058680  90.5823870   8.9002220  72.6199200  91.9269410   9.3981260
  75.9663250  89.7576360   6.6578740  75.5180550  89.7800620   5.8124290
  75.3328450  89.3595380   7.2549040  76.3722800  98.6530690   7.2791180
  76.7910910  99.4963420   7.1067420  75.4531430  98.7902730   7.0497960
  78.7086700  96.3846870   8.6629020  78.8282910  95.7888010   9.4023860
  79.5680700  96.4216560   8.2430320  81.0474600  96.9384060   7.2391530
  80.5209820  97.4626680   6.6356670  81.3905940  97.5711450   7.8701260
  74.2230220 104.9583700   8.3948910  73.6851310 105.6829760   8.0757610
  74.4764180 104.4814040   7.6046250  75.4755470  92.9268220   9.9204840
  76.0655160  92.6184070  10.6082660  74.6575710  92.4547970  10.0764740
  80.2948900  92.5434030  10.1537860  79.6064420  91.8815570  10.0887850
  81.0154920  92.0972300  10.5986320  77.0792430 106.1934910   8.6535560
  77.0051130 107.0970050   8.9607930  76.1771270 105.8746810   8.6257630
  68.4819720 103.5209500   1.9569180  68.8122730 102.6530560   1.7247820
  68.9110720 103.7268020   2.7874140  68.9709930 104.3880090   4.6950810
  68.5340920 104.5680890   5.5274960  69.5387610 105.1454710   4.5532530
  84.6072110 103.8897090   8.9828120  84.0074100 103.9489650   8.2392040
  84.7366010 102.9502070   9.1124970  83.2923750 100.6149070   7.0804280
  82.4783590 101.0446230   7.3430070  83.6997950 101.2267480   6.4673330
  69.8410290  97.2852890   5.5943030  70.2083330  97.1980290   6.4739050
  69.2721110  96.5219440   5.4949890  84.6414150  95.7537270   8.6073500
  84.4100240  95.5250020   7.7071450  84.9018700  96.6736820   8.5618390
  69.3926290  94.1961980   9.5001450  68.4982340  94.1628740   9.8395160
  69.9323840  94.3948770  10.2652700  83.0802220  90.9793700  11.3853200
  83.9572400  90.9877100  11.7687200  83.0923060  90.2424540  10.7745550
  84.5265490  94.8323240   2.2741220  85.0502970  94.3385890   1.6431390
  85.1124910  94.9673600   3.0188790  84.7055210  94.9163110   5.7960770
  83.7557920  94.8826650   5.9105760  84.8868220  95.8263220   5.5610540
  69.8966000  88.4710310   3.8484670  70.5442190  87.9207690   3.4079830
  70.3167840  88.7253460   4.6700480  83.7918340  88.6651670   7.2054310
  84.4290560  89.2785810   7.5713500  83.9393230  88.7012330   6.2603540
  69.6498000  88.6265980   6.5909990  69.3012820  89.0829800   7.3568170
  69.3185700  87.7323110   6.6732420  71.2562370 101.7985580  10.7563180
  71.2132000 101.4278490  11.6377640  71.3873380 102.7363150  10.8965000
  74.9568400 103.3545170   6.3572900  74.7159760 103.6219730   5.4703420
  75.8971040 103.5250900   6.4123760  77.1622820  89.8177860  10.1129410
  77.1011710  90.4099690  10.8624820  78.1023200  89.7103820   9.9679670
  79.7997380  89.4747920   9.7521700  80.4137790  89.7927210   9.0902780
  80.3446940  88.9896510  10.3717560  86.2172560 105.3739550   7.1583540
  85.7230840 105.7708420   6.4410670  85.6085850 104.7488760   7.5520820
  70.3218640  88.1542180   9.8660760  70.8701630  87.9730230   9.1026870
  70.3873950  87.3636290  10.4017070  71.0950400 104.7447830   7.8760960
  70.5010720 104.6132530   8.6151000  71.0874240 103.9085970   7.4103060
  80.5405420  88.0380060   6.0790990  79.6665260  88.3715170   5.8763920
  80.4316170  87.5653240   6.9042860  81.4477400  90.2450930   7.4632710
  81.1190760  89.4302690   7.0834440  82.3959700  90.2020740   7.3398400
  83.9012010 106.0162970   4.4370280  83.4414980 106.7678780   4.0628300
  83.2724470 105.2969440   4.3785080  70.7262630 102.1106210   6.8269000
  69.9996690 101.4911500   6.7594950  70.7871780 102.5046820   5.9567080
  74.3307730 104.3251210   3.6118410  74.8472750 103.7138570   3.0866670
  74.9805110 104.8279990   4.1029420  77.0703230 105.2159700   4.4387390
  77.3581040 104.9614000   3.5620400  77.5826450 104.6637060   5.0292960
  78.2880240  88.9549900   5.0183900  77.5052030  89.4295400   5.2980660
  77.9943170  88.0504730   4.9097080  82.8401310  89.6573000   3.0632990
  83.2809400  89.6018100   2.2154590  82.5708900  90.5731010   3.1343170
  80.6759440  88.0379100   1.7683000  81.2788810  88.6099310   2.2431520
  79.9352430  88.6018540   1.5456900  77.1375590 106.1375800  11.8055590
  78.0642900 105.9020070  11.8491550  77.1226020 106.9647800  11.3241620
  74.3239200  88.8020550  11.5697470  74.0423470  89.3054150  10.8058290
  74.7058900  88.0042300  11.2039600  83.7053150 105.3645660  11.6296630
  84.4978470 104.8694890  11.4222590  83.9986300 106.0435800  12.2372240
  79.8312810  77.4623110 151.4804090  79.7506860  76.5477720 151.2095800
  79.4177230  77.9590180 150.7743800  77.9630850  79.2402130 153.3613360
  77.1872950  78.7602570 153.6511930  78.6143780  78.5607780 153.1869520
  81.9838280  83.6462320 152.1412490  81.5219810  82.8749560 152.4699660
  82.7963830  83.6728390 152.6464940  71.9597940  83.5862030 154.4347140
  72.2625980  82.6959770 154.2557360  72.7041530  84.1432250 154.2069390
  70.3888630  74.5123830 148.0231510  69.5005330  74.8539800 147.9211390
  70.6729820  74.3124150 147.1312340  68.3521640  77.1129480 153.9071210
  68.9237750  76.3451680 153.9074850  68.3523180  77.4118240 152.9977820
  78.2101590  85.9320330 151.7616480  77.5913030  86.3877830 151.1910920
  79.0653370  86.0871790 151.3606180  77.4039840  81.9159320 153.3683520
  77.3348120  80.9749260 153.2072650  78.1659700  82.0060730 153.9406090
  78.4345010  74.7229700 153.5952450  78.8109830  73.8501580 153.4826120
  78.3364520  75.0588400 152.7042890  72.5650020  73.0955330 149.0569890
  72.6716770  73.9959060 149.3638650  71.6542380  73.0473300 148.7664540
  82.2169130  72.2180140 150.5280790  83.0378750  71.7276710 150.5706270
  82.2503210  72.8077800 151.2812630  74.4057750  76.0641700 153.3895070
  74.9135970  76.5622670 154.0300090  74.9370990  75.2876900 153.2134430
  79.0764940  80.8159570 149.1548390  78.4582210  81.2809020 148.5911110
  79.5888190  81.5087050 149.5717900  82.4530610  74.1580520 153.3008330
  81.7486180  74.4465410 153.8811440  82.8142770  74.9680630 152.9407890
  68.4448140  81.5016100 146.5288020  68.0676120  81.9903200 145.7972920
  68.7021210  82.1741380 147.1594550  85.5217530  73.6035310 153.6917540
  84.5742440  73.6374290 153.8232970  85.8467520  74.4174260 154.0766900
  76.0537070  69.9032490 151.9873530  76.3612050  69.3479380 151.2709030
  75.1237770  70.0376950 151.8046520  81.6052130  85.6199780 154.2780990
  81.6179290  85.2162070 153.4103250  81.0527350  86.3947070 154.1742420
  82.8997550  82.3416000 149.3671160  82.7893880  81.3990330 149.4920580
  82.8965800  82.7031640 150.2533920  78.4417830  77.9681320 148.7233650
  77.5147110  77.9018700 148.9522120  78.5942650  78.9061450 148.6088890
  78.4286910  74.2398320 145.7200810  77.4890580  74.4012280 145.8053270
  78.7470170  74.9584000 145.1736800  82.4715120  79.5301620 149.2268900
  81.8527540  79.1921170 148.5795200  82.4539570  78.8861380 149.9348090
  74.0474470  78.4946060 151.5053380  73.6431470  77.7823310 151.0099280
  74.1337590  78.1499300 152.3941420  74.5156170  82.1813620 153.6692590
  74.2184460  81.5759090 152.9900370  75.4655990  82.2190930 153.5581950
  80.6479820  78.7688430 146.2341650  81.0873100  77.9310860 146.0879470
  81.3608240  79.4017830 146.3205790  78.7575200  83.7084500 150.2022890
  79.1971110  84.4508830 149.7878280  78.6962090  83.9511070 151.1261850
  84.2296960  70.0231240 144.5482690  83.9169620  70.1158070 145.4481760
  84.9909430  70.6012270 144.4980120  70.7479100  77.3891040 149.0060030
  70.6276700  78.1153130 148.3941300  70.4379990  76.6193950 148.5287940
  69.6312100  82.2606370 151.2234850  69.2240180  82.4020960 150.3688450
  70.5225110  81.9766530 151.0206060  81.4245380  86.6953620 147.5585900
  81.2646520  86.4056560 148.4567730  81.2592090  85.9193750 147.0231130
  73.9033760  86.4752150 149.3357520  73.7276240  85.5587690 149.1225320
  73.0489500  86.8339440 149.5755320  81.1271510  84.2041180 146.1183900
  80.4336670  84.2018470 145.4586180  81.8694370  83.7800500 145.6878070
  80.6921440  85.8303890 150.1932390  81.1478390  85.0493270 150.5071010
  81.0313960  86.5410710 150.7373570  73.2142760  70.7326110 152.3883700
  72.7710910  71.5135650 152.0568220  73.7727750  71.0556000 153.0954640
  76.3301580  70.3536810 147.2689530  75.7055760  70.3496680 147.9942840
  76.2431700  69.4867770 146.8725500  75.2518660  71.2773440 154.2473300
  75.5490990  72.1836270 154.1665320  75.8004220  70.7892220 153.6332870
  73.0056980  75.8559680 150.1164950  72.7797900  75.6396850 151.0211570
  72.2249510  76.2888140 149.7710920  80.2354740  75.8623050 148.7155600
  79.6363630  76.5858850 148.5319220  80.7834350  75.7999830 147.9332050
  78.8419610  74.4986590 150.7458880  79.2349180  74.8158790 149.9327570
  79.2036460  73.6198470 150.8603400  67.8783780  71.0887390 152.9689080
  67.5896830  71.6590250 153.6814060  68.6229540  70.6091840 153.3320310
  68.0654010  75.0307510 144.1791800  67.9828680  75.9738270 144.3206790
  67.7137070  74.8882420 143.3004150  75.8652140  73.7646540 153.2462150
  75.8688200  73.3236490 152.3966690  76.7603260  74.0863870 153.3533970
  71.7154520  73.6473030 152.2056360  71.3754570  74.1248260 152.9623410
  70.9531840  73.1938150 151.8457460  75.9272290  74.7658620 146.2368910
  76.0485110  74.7245100 147.1854730  75.5420800  75.6282770 146.0815640
  74.9393790  77.0759760 145.6352210  74.3710690  76.6278010 145.0088120
  75.6482790  77.4352540 145.1017360  69.0300600  72.5692010 151.1221030
  68.7447520  72.2047680 151.9599650  68.9679460  71.8372470 150.5084170
  72.4841270  81.0717950 147.9078620  71.7103530  80.5315570 147.7477340
  73.2135900  80.5524560 147.5696380  83.2429250  80.0683310 153.7005010
  83.9628370  80.5638600 153.3101120  83.0411070  79.3901200 153.0558880
  78.7039190  71.4621270 147.8434400  77.8903800  70.9634440 147.7679710
  78.5101140  72.3019520 147.4270750  81.4187580  75.8340920 146.1396560
  82.3067200  76.1458150 145.9647900  81.3892670  74.9613170 145.7477140
  72.5278670  80.7398330 151.5457430  73.0457340  79.9366590 151.4914320
  72.0762690  80.6777470 152.3874260  77.4148170  82.0064610 146.8184730
  77.7563870  82.7506840 146.3228050  76.5860880  82.3195730 147.1809560
  83.6901850  77.1452760 145.6076420  83.6065570  77.5766980 144.7572860
  84.4096040  77.6051110 146.0403240  84.7189100  83.9995020 148.3358550
  84.0765260  83.3450640 148.6102270  84.3319760  84.4050110 147.5599220
  80.2975580  81.3280450 152.1830240  80.6499400  80.7308580 151.5231610
  79.4137910  81.0024680 152.3538490  76.3838860  82.0878140 149.5900650
  77.0709990  82.6347350 149.9708240  75.5971280  82.6318870 149.6250260
  68.5231260  77.7050960 145.0817730  69.3926110  77.9875760 145.3653650
  68.0321580  78.5186830 144.9666540  75.6866070  79.0924170 149.2026010
  76.1428850  79.9029420 149.4286200  75.3354280  78.7747310 150.0344500
  71.5877850  69.4361820 149.6748530  71.4592480  69.4279720 150.6233450
  70.7639870  69.7744910 149.3239540  83.1086480  82.8911480 144.8734900
  82.8824060  82.1741920 145.4659540  82.7182680  82.6423920 144.0356650
  68.8902510  86.9178340 145.6479360  69.2500150  87.5167680 144.9936630
  68.7494850  87.4638230 146.4214390  82.6902730  80.8083420 146.5349060
  82.4024430  81.2696110 147.3226940  83.4854900  80.3481190 146.8033280
  74.9071130  84.3009540 146.4653030  74.8981230  85.0339230 145.8497540
  73.9869490  84.0541120 146.5579990  70.5077770  79.5224430 147.2099790
  69.9005720  80.2623330 147.2195090  70.9827120  79.6123790 146.3837990
  83.4472590  72.6432190 147.6944240  82.8185750  72.7477860 146.9802470
  82.9524510  72.8628970 148.4838120  77.8930730  84.3637780 145.1278220
  77.9942710  84.1601770 144.1980200  76.9932470  84.1096060 145.3326000
  75.4156620  74.9218140 149.1102120  74.7072770  75.3904480 149.5515730
  75.7001100  74.2640150 149.7447310  79.4472050  71.6468800 150.5497910
  79.3239830  71.6654930 149.6007420  80.3956610  71.6947740 150.6696310
  76.5348840  86.8824100 149.8225890  76.7890340  86.8445490 148.9005260
  75.5861320  86.7557430 149.8154140  73.6191640  73.2303220 146.4852830
  74.4682170  73.6673370 146.4193020  73.2522910  73.5423480 147.3124890
  82.5401420  77.8015980 151.3984400  81.5991560  77.8166210 151.5732090
  82.8545490  77.0151940 151.8444700  72.5183060  79.4835580 144.9588360
  73.2846330  79.3716940 145.5213790  72.5957750  78.7873550 144.3065130
  71.2129820  76.9160650 145.6421250  71.2933410  75.9688160 145.7538650
  72.1049570  77.2467530 145.7481910  84.5427000  84.9724830 153.0738660
  84.6674420  85.7956000 153.5462470  85.4092560  84.7615560 152.7262810
  72.0144530  87.0656040 152.7455790  72.7507010  86.5171500 153.0164360
  72.3985450  87.9312050 152.6061780  68.8990010  83.1329610 148.6197300
  67.9729790  83.3750750 148.6102710  69.3646440  83.9603870 148.4982050
  75.1246840  86.2386350 144.5681360  75.9175450  86.5275180 144.1163150
  74.6051190  85.8078520 143.8893840  84.1777010  85.4656480 145.9918100
  83.8918520  85.0521620 145.1772280  83.9796560  86.3944190 145.8718620
  75.6424240  81.4589760 144.4323710  75.5374880  80.8442110 145.1585090
  75.4748460  80.9355650 143.6486720  78.8826970  80.5209790 145.0365700
  78.3337070  80.9679090 145.6808440  79.5046230  80.0159040 145.5603370
  74.5502090  79.4800710 146.9331000  74.9718510  79.3140580 147.7762390
  74.6752930  78.6700940 146.4386140  77.0629730  78.5038320 144.1808100
  77.5835390  77.7887340 143.8149250  77.7098130  79.1424190 144.4808610
  73.4460990  75.5533940 143.8789160  73.2450050  74.6901300 144.2402500
  73.2753040  75.4667300 142.9410760  80.9249300  70.3642170 146.4076040
  81.2051590  69.5210070 146.7635460  80.1515030  70.5965280 146.9214790
  72.2443790  72.6534560 143.8667040  72.5469690  72.6601990 142.9586190
  72.9838380  72.3032420 144.3634700  75.4628720  71.5969180 144.8523240
  75.1150720  70.9193170 144.2725690  75.6641490  71.1358690 145.6666630
  77.6277760  86.5849930 146.4709840  78.5228550  86.9234900 146.4928600
  77.6595390  85.8629340 145.8434120  71.2673920  81.9576980 144.6996840
  71.7048790  82.5006650 145.3554420  71.7521650  81.1323930 144.7093180
  68.4819720  84.7466010 152.1517100  68.8122730  83.8787070 151.9195740
  68.9110720  84.9524530 152.9822060  73.0781640  83.0775020 149.8119070
  72.7777180  82.9539990 150.7122980  72.9719130  82.2183610 149.4034800
  85.8473560  82.8571420 144.5145750  85.0166520  82.9248070 144.9852980
  86.0245390  83.7475540 144.2112610  85.3030020  79.6018900 147.0179950
  86.0648930  80.1715550 147.1239640  85.3184390  79.0346100 147.7888260
  68.8034360  78.1256830 151.2487610  68.1483200  77.8568470 150.6047310
  69.6412310  78.0161310 150.7989590  86.3089990  80.4569000 151.8621880
  86.6798820  79.6736320 151.4557850  86.9491920  81.1458100 151.6839180
  85.3549190  79.8953270 144.1752470  85.6298030  80.8032150 144.0471690
  85.1659930  79.8315800 145.1114460  81.7524800  72.9198120 145.4706100
  82.1709680  72.7329100 144.6302760  81.4460860  72.0677170 145.7809030
  85.2514530  77.8322260 149.1681900  84.8758130  77.0650190 148.7363190
  84.5217650  78.2144960 149.6556830  68.0172440  75.3355760 147.1912940
  67.1136520  75.5985960 147.0164600  68.5013060  75.6066930 146.4112900
  84.5265490  76.0579750 152.4689140  85.0502970  75.5642400 151.8379310
  85.1124910  76.1930110 153.2136710  70.5599650  74.3921300 145.1007320
  71.2691350  73.9704520 144.6154600  69.8439590  74.4596530 144.4690670
  84.0165460  75.3153100 148.4081550  84.5124580  75.0823970 149.1930430
  83.8181530  74.4764940 147.9919190  85.4452620  73.9514050 150.9419230
  85.3351900  73.7970090 151.8801500  86.2060210  73.4234990 150.6994640
  86.3342890  71.7821970 144.1825370  87.2592200  71.6503150 143.9743660
  86.3118680  71.8614790 145.1361820  86.4081380  72.5532630 146.8082080
  85.6132880  72.4877750 147.3374990  86.6124660  73.4883270 146.7967430
  83.3499800  86.5924180 150.8020470  83.9458870  86.2708750 150.1254890
  83.6077950  86.1196000 151.5933740  74.3307730  85.5507720 153.8066330
  74.8472750  84.9395080 153.2814590  74.9805110  86.0536500 154.2977340
  82.8401310  70.8829510 153.2580910  83.2809400  70.8274610 152.4102510
  82.5708900  71.7987520 153.3291090  84.7039880  70.5144750 151.2689730
  84.6428280  69.5705970 151.1220750  85.4831910  70.6224840 151.8143190
  69.0092630  86.6537110 150.2313680  68.8414670  86.0207790 150.9295570
  68.1427140  86.8596510 149.8807870  69.6320650  70.4853890 147.7345540
  70.3900010  70.5982770 147.1609570  69.1697820  71.3223090 147.6888970
  76.1734460  72.5993160 150.7247850  75.3608970  72.2250050 150.3843730
  76.6776100  71.8438240 151.0269040  80.6759440  69.2635610 151.9630920
  81.2788810  69.8355820 152.4379440  79.9352430  69.8275050 151.7404820
  83.8194040  69.6657170 147.2371200  84.0144670  70.5640620 147.5038630
  83.0323910  69.4344250 147.7304150  70.6155330  85.3470340 147.6763820
  70.0902950  85.7278370 146.9725780  70.5399910  85.9721110 148.3973530
  72.0045800  71.0117940 146.2747510  72.5338560  70.2247740 146.1455460
  72.6374120  71.6909130 146.5083040  74.1983640  70.7493080 149.3292900
  73.5686380  70.0480390 149.4963030  73.6588780  71.5097210 149.1126060
  85.3720650  86.9057880 148.9977760  85.5472840  86.2195620 148.3538680
  84.6742220  87.4304930 148.6054430  73.2148300  87.2952720 146.5513070
  73.9467120  87.0112000 146.0036960  73.4741970  87.0566000 147.4412450
  72.3763090  83.4117450 146.5559400  71.7471970  83.8802550 147.1045230
  72.4910920  82.5666670 146.9905590  82.2169130  72.2180140 131.7537300
  83.0378750  71.7276710 131.7962780  82.2503210  72.8077800 132.5069140
  86.5068680  74.2346890 138.3180930  85.8020850  74.6228600 137.7996040
  86.7726600  74.9297180 138.9201860  82.4530610  74.1580520 134.5264840
  81.7486180  74.4465410 135.1067950  82.8142770  74.9680630 134.1664400
  72.3709180  72.4150220 136.8885450  72.7125990  73.2592270 136.5939320
  71.4324990  72.5633960 137.0050790  73.1515800  82.3116240 138.8737680
  73.7689800  82.9867320 138.5922130  72.2908920  82.7204220 138.7825180
  68.4448140  81.5016100 127.7544530  68.0676120  81.9903200 127.0229430
  68.7021210  82.1741380 128.3851060  85.5217530  73.6035310 134.9174050
  84.5742440  73.6374290 135.0489480  85.8467520  74.4174260 135.3023410
  76.0537070  69.9032490 133.2130040  76.3612050  69.3479380 132.4965540
  75.1237770  70.0376950 133.0303030  84.9499670  78.9216840 136.9236350
  84.1218300  78.9909930 136.4486480  85.5450150  79.5071150 136.4552180
  81.9141680  75.7086160 137.8691220  81.5012860  76.5339870 138.1231210
  81.1817630  75.1231200 137.6767580  73.6074600  81.9195310 141.5456900
  72.7103130  82.1435280 141.7930300  73.6327470  82.0430250 140.5968300
  72.4345820  78.7908630 140.1214270  72.2953590  79.6631430 140.4901670
  71.5527180  78.4481440 139.9762210  78.7575200  83.7084500 131.4279400
  79.1971110  84.4508830 131.0134790  78.6962090  83.9511070 132.3518360
  74.2326170  84.7330330 142.3299420  74.2041600  85.1373280 141.4627850
  74.0691140  83.8040690 142.1671020  84.2296960  70.0231240 125.7739200
  83.9169620  70.1158070 126.6738270  84.9909430  70.6012270 125.7236630
  86.1840990  85.5157430 143.6263590  86.6600710  85.9940320 144.3052670
  86.8048150  85.4474920 142.9009090  68.3864470  80.5606180 136.0385180
  68.4644890  80.6954950 135.0940900  69.0006150  79.8522070 136.2313300
  85.5874240  82.7070280 140.7863600  85.7137300  82.4682160 139.8680780
  85.6295620  81.8754820 141.2585680  73.9033760  86.4752150 130.5614030
  73.7276240  85.5587690 130.3481830  73.0489500  86.8339440 130.8011830
  80.6921440  85.8303890 131.4188900  81.1478390  85.0493270 131.7327520
  81.0313960  86.5410710 131.9630080  85.4398250  74.7602740 141.7513340
  84.8242520  75.2682410 141.2228800  85.1194670  73.8601070 141.6939280
  68.4423990  81.6020350 138.5779640  68.6055030  81.1325710 137.7599010
  68.9076440  81.0943910 139.2428480  73.2142760  70.7326110 133.6140210
  72.7710910  71.5135650 133.2824730  73.7727750  71.0556000 134.3211150
  77.5012570  73.5994630 139.2175530  77.0391940  73.8077650 140.0295470
  77.0990680  72.7853980 138.9146200  82.5017080  74.8203580 140.3472190
  81.6510670  74.5209330 140.6681260  82.3418870  75.0645590 139.4356010
  79.5966790  76.3205330 142.4470980  79.9220200  75.4869080 142.1073210
  80.3847120  76.8433850 142.5949310  76.3301580  70.3536810 128.4946040
  75.7055760  70.3496680 129.2199350  76.2431700  69.4867770 128.0982010
  75.4456190  76.7545260 142.0081730  75.3499790  75.8139990 141.8582130
  76.2888170  76.9760330 141.6129800  77.1511780  73.2493900 143.2312250
  76.4610100  73.0566100 143.8658340  77.8944080  73.5328540 143.7636550
  79.4274750  77.0892340 136.0666170  78.6955870  77.5979150 136.4156270
  79.0299090  76.2722320 135.7654950  79.8900660  72.5426020 135.4789110
  79.9073400  72.9934670 136.3230960  79.6416240  71.6431660 135.6922550
  70.0162970  80.9771780 140.7375450  69.6317760  80.3365450 141.3358410
  70.3275160  81.6807900 141.3070180  76.1660110  77.8248320 136.2184070
  76.5330240  77.3506890 136.9645410  75.9765170  78.6989890 136.5592410
  73.9559480  76.8656960 138.5368280  73.6516550  77.7448940 138.7618640
  74.9105940  76.9256750 138.5725720  72.4841270  81.0717950 129.1335130
  71.7103530  80.5315570 128.9733850  73.2135900  80.5524560 128.7952890
  83.2429250  80.0683310 134.9261520  83.9628370  80.5638600 134.5357630
  83.0411070  79.3901200 134.2815390  78.7039190  71.4621270 129.0690910
  77.8903800  70.9634440 128.9936220  78.5101140  72.3019520 128.6527260
  78.6248050  80.1392370 140.8130520  78.5585360  79.2188040 140.5588110
  77.9953190  80.2367810 141.5275160  81.4187580  75.8340920 127.3653070
  82.3067200  76.1458150 127.1904410  81.3892670  74.9613170 126.9733650
  70.0123210  77.7059700 139.6839640  69.6538150  78.3713550 140.2712980
  69.7177770  76.8743250 140.0552260  73.2136330  78.1643940 142.5679190
  72.9136470  78.3101120 141.6707010  73.9847570  77.6049230 142.4752580
  78.5564780  82.9612940 140.5634320  78.5709320  82.0293900 140.3453230
  77.8489880  83.0472700 141.2024090  83.6901850  77.1452760 126.8332930
  83.6065570  77.5766980 125.9829370  84.4096040  77.6051110 127.2659750
  84.7675990  79.6020280 139.9102900  84.0424180  80.1949060 139.7132290
  85.2951450  79.5943820 139.1116270  76.3838860  82.0878140 130.8157160
  77.0709990  82.6347350 131.1964750  75.5971280  82.6318870 130.8506770
  68.5231260  77.7050960 126.3074240  69.3926110  77.9875760 126.5910160
  68.0321580  78.5186830 126.1923050  71.5877850  69.4361820 130.9005040
  71.4592480  69.4279720 131.8489960  70.7639870  69.7744910 130.5496050
  68.8902510  86.9178340 126.8735870  69.2500150  87.5167680 126.2193140
  68.7494850  87.4638230 127.6470900  68.8744370  85.1833200 141.3478270
  68.9835490  84.2427940 141.2073660  68.2224930  85.4487950 140.6992000
  76.8656960  83.4549090 142.7476390  76.5453830  82.7358330 143.2922080
  76.1915320  84.1304160 142.8212450  74.9071130  84.3009540 127.6909540
  74.8981230  85.0339230 127.0754050  73.9869490  84.0541120 127.7836500
  70.5077770  79.5224430 128.4356300  69.9005720  80.2623330 128.4451600
  70.9827120  79.6123790 127.6094500  80.0810560  73.6875250 138.1113190
  80.4491380  72.8670460 138.4392760  79.2208760  73.7477140 138.5268840
  83.4472590  72.6432190 128.9200750  82.8185750  72.7477860 128.2058980
  82.9524510  72.8628970 129.7094630  77.0412550  76.3414840 138.3351160
  77.5397800  76.8160660 139.0003010  77.1835500  75.4178360 138.5421190
  79.4472050  71.6468800 131.7754420  79.3239830  71.6654930 130.8263930
  80.3956610  71.6947740 131.8952820  76.5348840  86.8824100 131.0482400
  76.7890340  86.8445490 130.1261770  75.5861320  86.7557430 131.0410650
  84.2479410  72.5582800 139.1779550  83.7453010  73.2988200 139.5173360
  85.0636070  72.9466800 138.8616340  82.5401420  77.8015980 132.6240910
  81.5991560  77.8166210 132.7988600  82.8545490  77.0151940 133.0701210
  72.5183060  79.4835580 126.1844870  73.2846330  79.3716940 126.7470300
  72.5957750  78.7873550 125.5321640  71.2129820  76.9160650 126.8677760
  71.2933410  75.9688160 126.9795160  72.1049570  77.2467530 126.9738420
  84.5427000  84.9724830 134.2995170  84.6674420  85.7956000 134.7718980
  85.4092560  84.7615560 133.9519320  72.0144530  87.0656040 133.9712300
  72.7507010  86.5171500 134.2420870  72.3985450  87.9312050 133.8318290
  68.8990010  83.1329610 129.8453810  67.9729790  83.3750750 129.8359220
  69.3646440  83.9603870 129.7238560  71.0202810  86.2502110 143.1597880
  71.8215540  86.5714160 143.5733280  70.5054630  85.8897690 143.8817790
  79.8567440  82.3581980 143.1073290  79.2505600  82.3813580 142.3669040
  79.5521550  81.6265020 143.6440540  68.7400620  78.7375570 142.1033930
  69.2439640  78.1582850 142.6750160  68.0008040  79.0215800 142.6410300
  75.6424240  81.4589760 125.6580220  75.5374880  80.8442110 126.3841600
  75.4748460  80.9355650 124.8743230  75.7938560  80.1446560 141.6369450
  75.0284230  80.7131560 141.5524120  75.9754520  79.8522770 140.7437680
  78.8826970  80.5209790 126.2622210  78.3337070  80.9679090 126.9064950
  79.5046230  80.0159040 126.7859880  82.9361910  81.8751890 142.1944470
  83.6771380  82.2127650 141.6911930  82.1734590  82.0443950 141.6414240
  70.7723700  76.8805160 142.9984000  70.8129040  76.5819030 143.9069230
  71.6269200  77.2812770 142.8391520  74.5502090  79.4800710 128.1587510
  74.9718510  79.3140580 129.0018900  74.6752930  78.6700940 127.6642650
  72.7129510  75.4597260 140.9658490  72.1825970  74.9688210 140.3381830
  73.3817580  75.8881460 140.4316420  77.0629730  78.5038320 125.4064610
  77.5835390  77.7887340 125.0405760  77.7098130  79.1424190 125.7065120
  81.6107570  79.9266720 140.7299680  82.0248590  80.0811800 141.5790100
  80.6758570  80.0521940 140.8925460  82.0829740  77.2662880 142.7338830
  82.6650510  76.5115200 142.6459310  82.2591510  77.7970320 141.9570310
  73.2001810  72.4259630 141.0455780  73.1058680  71.8080380 140.3206650
  72.6199200  73.1525920 140.8185690  76.3722800  79.8787200 138.6995610
  76.7910910  80.7219930 138.5271850  75.4531430  80.0159240 138.4702390
  78.7086700  77.6103380 140.0833450  78.8282910  77.0144520 140.8228290
  79.5680700  77.6473070 139.6634750  81.0474600  78.1640570 138.6595960
  80.5209820  78.6883190 138.0561100  81.3905940  78.7967960 139.2905690
  74.2230220  86.1840210 139.8153340  73.6851310  86.9086270 139.4962040
  74.4764180  85.7070550 139.0250680  75.4755470  74.1524730 141.3409270
  76.0655160  73.8440580 142.0287090  74.6575710  73.6804480 141.4969170
  80.2948900  73.7690540 141.5742290  79.6064420  73.1072080 141.5092280
  81.0154920  73.3228810 142.0190750  77.0792430  87.4191420 140.0739990
  77.0051130  88.3226560 140.3812360  76.1771270  87.1003320 140.0462060
  71.2673920  81.9576980 125.9253350  71.7048790  82.5006650 126.5810930
  71.7521650  81.1323930 125.9349690  68.4819720  84.7466010 133.3773610
  68.8122730  83.8787070 133.1452250  68.9110720  84.9524530 134.2078570
  68.9709930  85.6136600 136.1155240  68.5340920  85.7937400 136.9479390
  69.5387610  86.3711220 135.9736960  84.6072110  85.1153600 140.4032550
  84.0074100  85.1746160 139.6596470  84.7366010  84.1758580 140.5329400
  85.3030020  79.6018900 128.2436460  86.0648930  80.1715550 128.3496150
  85.3184390  79.0346100 129.0144770  86.3089990  80.4569000 133.0878390
  86.6798820  79.6736320 132.6814360  86.9491920  81.1458100 132.9095690
  83.2923750  81.8405580 138.5008710  82.4783590  82.2702740 138.7634500
  83.6997950  82.4523990 137.8877760  85.3549190  79.8953270 125.4008980
  85.6298030  80.8032150 125.2728200  85.1659930  79.8315800 126.3370970
  81.7524800  72.9198120 126.6962610  82.1709680  72.7329100 125.8559270
  81.4460860  72.0677170 127.0065540  85.2514530  77.8322260 130.3938410
  84.8758130  77.0650190 129.9619700  84.5217650  78.2144960 130.8813340
  69.8410290  78.5109400 137.0147460  70.2083330  78.4236800 137.8943480
  69.2721110  77.7475950 136.9154320  84.6414150  76.9793780 140.0277930
  84.4100240  76.7506530 139.1275880  84.9018700  77.8993330 139.9822820
  69.3926290  75.4218490 140.9205880  68.4982340  75.3885250 141.2599590
  69.9323840  75.6205280 141.6857130  83.0802220  72.2050210 142.8057630
  83.9572400  72.2133610 143.1891630  83.0923060  71.4681050 142.1949980
  68.0172440  75.3355760 128.4169450  67.1136520  75.5985960 128.2421110
  68.5013060  75.6066930 127.6369410  84.5265490  76.0579750 133.6945650
  85.0502970  75.5642400 133.0635820  85.1124910  76.1930110 134.4393220
  84.7055210  76.1419620 137.2165200  83.7557920  76.1083160 137.3310190
  84.8868220  77.0519730 136.9814970  84.0165460  75.3153100 129.6338060
  84.5124580  75.0823970 130.4186940  83.8181530  74.4764940 129.2175700
  85.4452620  73.9514050 132.1675740  85.3351900  73.7970090 133.1058010
  86.2060210  73.4234990 131.9251150  86.3342890  71.7821970 125.4081880
  87.2592200  71.6503150 125.2000170  86.3118680  71.8614790 126.3618330
  86.4081380  72.5532630 128.0338590  85.6132880  72.4877750 128.5631500
  86.6124660  73.4883270 128.0223940  83.3499800  86.5924180 132.0276980
  83.9458870  86.2708750 131.3511400  83.6077950  86.1196000 132.8190250
  71.2562370  83.0242090 142.1767610  71.2132000  82.6535000 143.0582070
  71.3873380  83.9619660 142.3169430  74.9568400  84.5801680 137.7777330
  74.7159760  84.8476240 136.8907850  75.8971040  84.7507410 137.8328190
  77.1622820  71.0434370 141.5333840  77.1011710  71.6356200 142.2829250
  78.1023200  70.9360330 141.3884100  86.2172560  86.5996060 138.5787970
  85.7230840  86.9964930 137.8615100  85.6085850  85.9745270 138.9725250
  81.4477400  71.4707440 138.8837140  81.1190760  70.6559200 138.5038870
  82.3959700  71.4277250 138.7602830  70.7262630  83.3362720 138.2473430
  69.9996690  82.7168010 138.1799380  70.7871780  83.7303330 137.3771510
  74.3307730  85.5507720 135.0322840  74.8472750  84.9395080 134.5071100
  74.9805110  86.0536500 135.5233850  82.8401310  70.8829510 134.4837420
  83.2809400  70.8274610 133.6359020  82.5708900  71.7987520 134.5547600
  84.7039880  70.5144750 132.4946240  84.6428280  69.5705970 132.3477260
  85.4831910  70.6224840 133.0399700  69.0092630  86.6537110 131.4570190
  68.8414670  86.0207790 132.1552080  68.1427140  86.8596510 131.1064380
  69.6320650  70.4853890 128.9602050  70.3900010  70.5982770 128.3866080
  69.1697820  71.3223090 128.9145480  80.6759440  69.2635610 133.1887430
  81.2788810  69.8355820 133.6635950  79.9352430  69.8275050 132.9661330
  70.6155330  85.3470340 128.9020330  70.0902950  85.7278370 128.1982290
  70.5399910  85.9721110 129.6230040  77.1375590  87.3632310 143.2260020
  78.0642900  87.1276580 143.2695980  77.1226020  88.1904310 142.7446050
  74.3239200  70.0277060 142.9901900  74.0423470  70.5310660 142.2262720
  74.7058900  69.2298810 142.6244030  73.2148300  87.2952720 127.7769580
  73.9467120  87.0112000 127.2293470  73.4741970  87.0566000 128.6668960
  72.3763090  83.4117450 127.7815910  71.7471970  83.8802550 128.3301740
  72.4910920  82.5666670 128.2162100  71.9796680  79.5521940 116.6902140
  71.1481560  79.2970650 117.0898650  72.5877660  79.6232710 117.4260060
  81.9838280  83.6462320 114.5925510  81.5219810  82.8749560 114.9212680
  82.7963830  83.6728390 115.0977960  68.3521640  77.1129480 116.3584230
  68.9237750  76.3451680 116.3587870  68.3523180  77.4118240 115.4490840
  77.4039840  81.9159320 115.8196540  77.3348120  80.9749260 115.6585670
  78.1659700  82.0060730 116.3919110  73.9396700  80.3435440 118.2845010
  73.6066080  80.9704360 118.9266080  74.1163380  80.8697320 117.5046680
  82.4530610  74.1580520 115.7521350  81.7486180  74.4465410 116.3324460
  82.8142770  74.9680630 115.3920910  85.5217530  73.6035310 116.1430560
  84.5742440  73.6374290 116.2745990  85.8467520  74.4174260 116.5279920
  81.6052130  85.6199780 116.7294010  81.6179290  85.2162070 115.8616270
  81.0527350  86.3947070 116.6255440  82.8997550  82.3416000 111.8184180
  82.7893880  81.3990330 111.9433600  82.8965800  82.7031640 112.7046940
  81.9141680  75.7086160 119.0947730  81.5012860  76.5339870 119.3487720
  81.1817630  75.1231200 118.9024090  74.0474470  78.4946060 113.9566400
  73.6431470  77.7823310 113.4612300  74.1337590  78.1499300 114.8454440
  74.5156170  82.1813620 116.1205610  74.2184460  81.5759090 115.4413390
  75.4655990  82.2190930 116.0094970  82.6041780  85.7545490 119.7828710
  82.1272340  86.5617680 119.5901320  81.9203570  85.1023820 119.9354920
  72.4345820  78.7908630 121.3470780  72.2953590  79.6631430 121.7158180
  71.5527180  78.4481440 121.2018720  78.7575200  83.7084500 112.6535910
  79.1971110  84.4508830 112.2391300  78.6962090  83.9511070 113.5774870
  74.2326170  84.7330330 123.5555930  74.2041600  85.1373280 122.6884360
  74.0691140  83.8040690 123.3927530  86.1840990  85.5157430 124.8520100
  86.6600710  85.9940320 125.5309180  86.8048150  85.4474920 124.1265600
  69.6312100  82.2606370 113.6747870  69.2240180  82.4020960 112.8201470
  70.5225110  81.9766530 113.4719080  85.5874240  82.7070280 122.0120110
  85.7137300  82.4682160 121.0937290  85.6295620  81.8754820 122.4842190
  80.6921440  85.8303890 112.6445410  81.1478390  85.0493270 112.9584030
  81.0313960  86.5410710 113.1886590  77.5012570  73.5994630 120.4432040
  77.0391940  73.8077650 121.2551980  77.0990680  72.7853980 120.1402710
  82.5017080  74.8203580 121.5728700  81.6510670  74.5209330 121.8937770
  82.3418870  75.0645590 120.6612520  79.5966790  76.3205330 123.6727490
  79.9220200  75.4869080 123.3329720  80.3847120  76.8433850 123.8205820
  75.2518660  71.2773440 116.6986320  75.5490990  72.1836270 116.6178340
  75.8004220  70.7892220 116.0845890  75.4456190  76.7545260 123.2338240
  75.3499790  75.8139990 123.0838640  76.2888170  76.9760330 122.8386310
  79.8900660  72.5426020 116.7045620  79.9073400  72.9934670 117.5487470
  79.6416240  71.6431660 116.9179060  76.1660110  77.8248320 117.4440580
  76.5330240  77.3506890 118.1901920  75.9765170  78.6989890 117.7848920
  73.9559480  76.8656960 119.7624790  73.6516550  77.7448940 119.9875150
  74.9105940  76.9256750 119.7982230  78.6248050  80.1392370 122.0387030
  78.5585360  79.2188040 121.7844620  77.9953190  80.2367810 122.7531670
  72.5278670  80.7398330 113.9970450  73.0457340  79.9366590 113.9427340
  72.0762690  80.6777470 114.8387280  70.0123210  77.7059700 120.9096150
  69.6538150  78.3713550 121.4969490  69.7177770  76.8743250 121.2808770
  73.2136330  78.1643940 123.7935700  72.9136470  78.3101120 122.8963520
  73.9847570  77.6049230 123.7009090  78.5564780  82.9612940 121.7890830
  78.5709320  82.0293900 121.5709740  77.8489880  83.0472700 122.4280600
  80.2975580  81.3280450 114.6343260  80.6499400  80.7308580 113.9744630
  79.4137910  81.0024680 114.8051510  79.2630760  82.6062860 117.6008780
  79.9052990  81.9056020 117.7140950  79.7880110  83.3861300 117.4205670
  81.0368380  83.4057760 120.8044840  81.3724620  83.9924450 121.4822760
  80.1168720  83.2750470 121.0342630  76.8656960  83.4549090 123.9732900
  76.5453830  82.7358330 124.5178590  76.1915320  84.1304160 124.0468960
  80.0810560  73.6875250 119.3369700  80.4491380  72.8670460 119.6649270
  79.2208760  73.7477140 119.7525350  77.0412550  76.3414840 119.5607670
  77.5397800  76.8160660 120.2259520  77.1835500  75.4178360 119.7677700
  84.2479410  72.5582800 120.4036060  83.7453010  73.2988200 120.7429870
  85.0636070  72.9466800 120.0872850  84.5427000  84.9724830 115.5251680
  84.6674420  85.7956000 115.9975490  85.4092560  84.7615560 115.1775830
  68.8990010  83.1329610 111.0710320  67.9729790  83.3750750 111.0615730
  69.3646440  83.9603870 110.9495070  71.0202810  86.2502110 124.3854390
  71.8215540  86.5714160 124.7989790  70.5054630  85.8897690 125.1074300
  79.8567440  82.3581980 124.3329800  79.2505600  82.3813580 123.5925550
  79.5521550  81.6265020 124.8697050  81.2867810  86.0862270 122.9439210
  82.2389560  86.0020290 122.8939450  81.1396030  86.7503980 123.6173000
  68.7400620  78.7375570 123.3290440  69.2439640  78.1582850 123.9006670
  68.0008040  79.0215800 123.8666810  75.7938560  80.1446560 122.8625960
  75.0284230  80.7131560 122.7780630  75.9754520  79.8522770 121.9694190
  82.9361910  81.8751890 123.4200980  83.6771380  82.2127650 122.9168440
  82.1734590  82.0443950 122.8670750  70.7723700  76.8805160 124.2240510
  70.8129040  76.5819030 125.1325740  71.6269200  77.2812770 124.0648030
  72.7129510  75.4597260 122.1915000  72.1825970  74.9688210 121.5638340
  73.3817580  75.8881460 121.6572930  81.6107570  79.9266720 121.9556190
  82.0248590  80.0811800 122.8046610  80.6758570  80.0521940 122.1181970
  82.0829740  77.2662880 123.9595340  82.6650510  76.5115200 123.8715820
  82.2591510  77.7970320 123.1826820  76.3722800  79.8787200 119.9252120
  76.7910910  80.7219930 119.7528360  75.4531430  80.0159240 119.6958900
  78.7086700  77.6103380 121.3089960  78.8282910  77.0144520 122.0484800
  79.5680700  77.6473070 120.8891260  81.0474600  78.1640570 119.8852470
  80.5209820  78.6883190 119.2817610  81.3905940  78.7967960 120.5162200
  80.2948900  73.7690540 122.7998800  79.6064420  73.1072080 122.7348790
  81.0154920  73.3228810 123.2447260  84.6072110  85.1153600 121.6289060
  84.0074100  85.1746160 120.8852980  84.7366010  84.1758580 121.7585910
  69.8410290  78.5109400 118.2403970  70.2083330  78.4236800 119.1199990
  69.2721110  77.7475950 118.1410830  83.0802220  72.2050210 124.0314140
  83.9572400  72.2133610 124.4148140  83.0923060  71.4681050 123.4206490
  84.5265490  76.0579750 114.9202160  85.0502970  75.5642400 114.2892330
  85.1124910  76.1930110 115.6649730  85.4452620  73.9514050 113.3932250
  85.3351900  73.7970090 114.3314520  86.2060210  73.4234990 113.1507660
  83.3499800  86.5924180 113.2533490  83.9458870  86.2708750 112.5767910
  83.6077950  86.1196000 114.0446760  86.2172560  86.5996060 119.8044480
  85.7230840  86.9964930 119.0871610  85.6085850  85.9745270 120.1981760
  81.4477400  71.4707440 120.1093650  81.1190760  70.6559200 119.7295380
  82.3959700  71.4277250 119.9859340  83.9012010  87.2419480 117.0831220
  83.4414980  87.9935290 116.7089240  83.2724470  86.5225950 117.0246020
  74.3307730  85.5507720 116.2579350  74.8472750  84.9395080 115.7327610
  74.9805110  86.0536500 116.7490360  78.2880240  70.1806410 117.6644840
  77.5052030  70.6551910 117.9441600  77.9943170  69.2761240 117.5558020
  82.8401310  70.8829510 115.7093930  83.2809400  70.8274610 114.8615530
  82.5708900  71.7987520 115.7804110  84.7039880  70.5144750 113.7202750
  84.6428280  69.5705970 113.5733770  85.4831910  70.6224840 114.2656210
  85.3720650  86.9057880 111.4490780  85.5472840  86.2195620 110.8051700
  84.6742220  87.4304930 111.0567450  79.8312810  77.4623110  76.3830130
  79.7506860  76.5477720  76.1121840  79.4177230  77.9590180  75.6769840
  77.9630850  79.2402130  78.2639400  77.1872950  78.7602570  78.5537970
  78.6143780  78.5607780  78.0895560  71.9796680  79.5521940  79.1415160
  71.1481560  79.2970650  79.5411670  72.5877660  79.6232710  79.8773080
  71.9597940  83.5862030  79.3373180  72.2625980  82.6959770  79.1583400
  72.7041530  84.1432250  79.1095430  68.3521640  77.1129480  78.8097250
  68.9237750  76.3451680  78.8100890  68.3523180  77.4118240  77.9003860
  69.5946510  72.5213840  80.5966180  69.4149350  71.6239590  80.8768940
  69.1926590  73.0685710  81.2713130  70.2133180  75.0174340  79.2048520
  70.8943290  75.2812710  79.8235920  69.8981230  74.1775210  79.5386530
  74.4057750  76.0641700  78.2921110  74.9135970  76.5622670  78.9326130
  74.9370990  75.2876900  78.1160470  79.0764940  80.8159570  74.0574430
  78.4582210  81.2809020  73.4937150  79.5888190  81.5087050  74.4743940
  73.9396700  80.3435440  80.7358030  73.6066080  80.9704360  81.3779100
  74.1163380  80.8697320  79.9559700  72.3709180  72.4150220  80.5654980
  72.7125990  73.2592270  80.2708850  71.4324990  72.5633960  80.6820320
  81.0037570  80.5229620  80.5089640  81.4206360  80.3089730  79.6743100
  81.7277390  80.7802410  81.0798260  78.4417830  77.9681320  73.6259690
  77.5147110  77.9018700  73.8548160  78.5942650  78.9061450  73.5114930
  82.4715120  79.5301620  74.1294940  81.8527540  79.1921170  73.4821240
  82.4539570  78.8861380  74.8374130  74.0474470  78.4946060  76.4079420
  73.6431470  77.7823310  75.9125320  74.1337590  78.1499300  77.2967460
  74.5156170  82.1813620  78.5718630  74.2184460  81.5759090  77.8926410
  75.4655990  82.2190930  78.4607990  72.7603090  75.2689270  80.1878460
  73.3117680  75.3784610  79.4131710  73.2746600  75.6426870  80.9033690
  68.3864470  80.5606180  79.7154710  68.4644890  80.6954950  78.7710430
  69.0006150  79.8522070  79.9082830  69.6312100  82.2606370  76.1260890
  69.2240180  82.4020960  75.2714490  70.5225110  81.9766530  75.9232100
  85.5874240  82.7070280  84.4633130  85.7137300  82.4682160  83.5450310
  85.6295620  81.8754820  84.9355210  68.4423990  81.6020350  82.2549170
  68.6055030  81.1325710  81.4368540  68.9076440  81.0943910  82.9198010
  77.5012570  73.5994630  82.8945060  77.0391940  73.8077650  83.7065000
  77.0990680  72.7853980  82.5915730  79.5966790  76.3205330  86.1240510
  79.9220200  75.4869080  85.7842740  80.3847120  76.8433850  86.2718840
  80.2354740  75.8623050  73.6181640  79.6363630  76.5858850  73.4345260
  80.7834350  75.7999830  72.8358090  77.1511780  73.2493900  86.9081780
  76.4610100  73.0566100  87.5427870  77.8944080  73.5328540  87.4406080
  67.8783780  71.0887390  77.8715120  67.5896830  71.6590250  78.5840100
  68.6229540  70.6091840  78.2346350  79.4274750  77.0892340  79.7435700
  78.6955870  77.5979150  80.0925800  79.0299090  76.2722320  79.4424480
  75.8652140  73.7646540  78.1488190  75.8688200  73.3236490  77.2992730
  76.7603260  74.0863870  78.2560010  71.7154520  73.6473030  77.1082400
  71.3754570  74.1248260  77.8649450  70.9531840  73.1938150  76.7483500
  76.1660110  77.8248320  79.8953600  76.5330240  77.3506890  80.6414940
  75.9765170  78.6989890  80.2361940  73.9559480  76.8656960  82.2137810
  73.6516550  77.7448940  82.4388170  74.9105940  76.9256750  82.2495250
  72.5278670  80.7398330  76.4483470  73.0457340  79.9366590  76.3940360
  72.0762690  80.6777470  77.2900300  77.4148170  82.0064610  71.7210770
  77.7563870  82.7506840  71.2254090  76.5860880  82.3195730  72.0835600
  84.7675990  79.6020280  83.5872430  84.0424180  80.1949060  83.3901820
  85.2951450  79.5943820  82.7885800  80.2975580  81.3280450  77.0856280
  80.6499400  80.7308580  76.4257650  79.4137910  81.0024680  77.2564530
  76.3838860  82.0878140  74.4926690  77.0709990  82.6347350  74.8734280
  75.5971280  82.6318870  74.5276300  75.6866070  79.0924170  74.1052050
  76.1428850  79.9029420  74.3312240  75.3354280  78.7747310  74.9370540
  80.0810560  73.6875250  81.7882720  80.4491380  72.8670460  82.1162290
  79.2208760  73.7477140  82.2038370  83.4472590  72.6432190  72.5970280
  82.8185750  72.7477860  71.8828510  82.9524510  72.8628970  73.3864160
  77.0412550  76.3414840  82.0120690  77.5397800  76.8160660  82.6772540
  77.1835500  75.4178360  82.2190720  81.6107570  79.9266720  84.4069210
  82.0248590  80.0811800  85.2559630  80.6758570  80.0521940  84.5694990
  73.2001810  72.4259630  84.7225310  73.1058680  71.8080380  83.9976180
  72.6199200  73.1525920  84.4955220  76.3722800  79.8787200  82.3765140
  76.7910910  80.7219930  82.2041380  75.4531430  80.0159240  82.1471920
  78.7086700  77.6103380  83.7602980  78.8282910  77.0144520  84.4997820
  79.5680700  77.6473070  83.3404280  81.0474600  78.1640570  82.3365490
  80.5209820  78.6883190  81.7330630  81.3905940  78.7967960  82.9675220
  75.4755470  74.1524730  85.0178800  76.0655160  73.8440580  85.7056620
  74.6575710  73.6804480  85.1738700  80.2948900  73.7690540  85.2511820
  79.6064420  73.1072080  85.1861810  81.0154920  73.3228810  85.6960280
  68.4819720  84.7466010  77.0543140  68.8122730  83.8787070  76.8221780
  68.9110720  84.9524530  77.8848100  73.0781640  83.0775020  74.7145110
  72.7777180  82.9539990  75.6149020  72.9719130  82.2183610  74.3060840
  68.9709930  85.6136600  79.7924770  68.5340920  85.7937400  80.6248920
  69.5387610  86.3711220  79.6506490  68.8034360  78.1256830  76.1513650
  68.1483200  77.8568470  75.5073350  69.6412310  78.0161310  75.7015630
  69.8410290  78.5109400  80.6916990  70.2083330  78.4236800  81.5713010
  69.2721110  77.7475950  80.5923850  69.8966000  69.6966820  78.9458630
  70.5442190  69.1464200  78.5053790  70.3167840  69.9509970  79.7674440
  86.4081380  72.5532630  71.7108120  85.6132880  72.4877750  72.2401030
  86.6124660  73.4883270  71.6993470  69.6498000  69.8522490  81.6883950
  69.3012820  70.3086310  82.4542130  69.3185700  68.9579620  81.7706380
  77.1622820  71.0434370  85.2103370  77.1011710  71.6356200  85.9598780
  78.1023200  70.9360330  85.0653630  79.7997380  70.7004430  84.8495660
  80.4137790  71.0183720  84.1876740  80.3446940  70.2153020  85.4691520
  79.8312810  77.4623110  38.8343150  79.7506860  76.5477720  38.5634860
  79.4177230  77.9590180  38.1282860  81.9838280  83.6462320  39.4951550
  81.5219810  82.8749560  39.8238720  82.7963830  83.6728390  40.0004000
  71.9597940  83.5862030  41.7886200  72.2625980  82.6959770  41.6096420
  72.7041530  84.1432250  41.5608450  68.3521640  77.1129480  41.2610270
  68.9237750  76.3451680  41.2613910  68.3523180  77.4118240  40.3516880
  78.2101590  85.9320330  39.1155540  77.5913030  86.3877830  38.5449980
  79.0653370  86.0871790  38.7145240  77.4039840  81.9159320  40.7222580
  77.3348120  80.9749260  40.5611710  78.1659700  82.0060730  41.2945150
  69.5946510  72.5213840  43.0479200  69.4149350  71.6239590  43.3281960
  69.1926590  73.0685710  43.7226150  78.4345010  74.7229700  40.9491510
  78.8109830  73.8501580  40.8365180  78.3364520  75.0588400  40.0581950
  70.2133180  75.0174340  41.6561540  70.8943290  75.2812710  42.2748940
  69.8981230  74.1775210  41.9899550  74.4057750  76.0641700  40.7434130
  74.9135970  76.5622670  41.3839150  74.9370990  75.2876900  40.5673490
  86.5068680  74.2346890  44.4463480  85.8020850  74.6228600  43.9278590
  86.7726600  74.9297180  45.0484410  72.3709180  72.4150220  43.0168000
  72.7125990  73.2592270  42.7221870  71.4324990  72.5633960  43.1333340
  84.0693390  83.7755650  42.9174870  83.3856910  84.4454760  42.9091540
  84.6087680  83.9736300  42.1519730  85.5217530  73.6035310  41.0456600
  84.5742440  73.6374290  41.1772030  85.8467520  74.4174260  41.4305960
  76.0537070  69.9032490  39.3412590  76.3612050  69.3479380  38.6248090
  75.1237770  70.0376950  39.1585580  81.6052130  85.6199780  41.6320050
  81.6179290  85.2162070  40.7642310  81.0527350  86.3947070  41.5281480
  81.0037570  80.5229620  42.9602660  81.4206360  80.3089730  42.1256120
  81.7277390  80.7802410  43.5311280  78.4286910  74.2398320  33.0739870
  77.4890580  74.4012280  33.1592330  78.7470170  74.9584000  32.5275860
  84.9499670  78.9216840  43.0518900  84.1218300  78.9909930  42.5769030
  85.5450150  79.5071150  42.5834730  81.9141680  75.7086160  43.9973770
  81.5012860  76.5339870  44.2513760  81.1817630  75.1231200  43.8050130
  74.0474470  78.4946060  38.8592440  73.6431470  77.7823310  38.3638340
  74.1337590  78.1499300  39.7480480  74.5156170  82.1813620  41.0231650
  74.2184460  81.5759090  40.3439430  75.4655990  82.2190930  40.9121010
  72.7603090  75.2689270  42.6391480  73.3117680  75.3784610  41.8644730
  73.2746600  75.6426870  43.3546710  82.6041780  85.7545490  44.6854750
  82.1272340  86.5617680  44.4927360  81.9203570  85.1023820  44.8380960
  86.1840990  85.5157430  49.7546140  86.6600710  85.9940320  50.4335220
  86.8048150  85.4474920  49.0291640  69.6312100  82.2606370  38.5773910
  69.2240180  82.4020960  37.7227510  70.5225110  81.9766530  38.3745120
  81.4245380  86.6953620  34.9124960  81.2646520  86.4056560  35.8106790
  81.2592090  85.9193750  34.3770190  73.9033760  86.4752150  36.6896580
  73.7276240  85.5587690  36.4764380  73.0489500  86.8339440  36.9294380
  80.6921440  85.8303890  37.5471450  81.1478390  85.0493270  37.8610070
  81.0313960  86.5410710  38.0912630  73.2142760  70.7326110  39.7422760
  72.7710910  71.5135650  39.4107280  73.7727750  71.0556000  40.4493700
  77.5012570  73.5994630  45.3458080  77.0391940  73.8077650  46.1578020
  77.0990680  72.7853980  45.0428750  75.2518660  71.2773440  41.6012360
  75.5490990  72.1836270  41.5204380  75.8004220  70.7892220  40.9871930
  79.4274750  77.0892340  42.1948720  78.6955870  77.5979150  42.5438820
  79.0299090  76.2722320  41.8937500  75.8652140  73.7646540  40.6001210
  75.8688200  73.3236490  39.7505750  76.7603260  74.0863870  40.7073030
  71.7154520  73.6473030  39.5595420  71.3754570  74.1248260  40.3162470
  70.9531840  73.1938150  39.1996520  79.8900660  72.5426020  41.6071660
  79.9073400  72.9934670  42.4513510  79.6416240  71.6431660  41.8205100
  72.4841270  81.0717950  35.2617680  71.7103530  80.5315570  35.1016400
  73.2135900  80.5524560  34.9235440  83.2429250  80.0683310  41.0544070
  83.9628370  80.5638600  40.6640180  83.0411070  79.3901200  40.4097940
  72.5278670  80.7398330  38.8996490  73.0457340  79.9366590  38.8453380
  72.0762690  80.6777470  39.7413320  84.7189100  83.9995020  35.6897610
  84.0765260  83.3450640  35.9641330  84.3319760  84.4050110  34.9138280
  80.2975580  81.3280450  39.5369300  80.6499400  80.7308580  38.8770670
  79.4137910  81.0024680  39.7077550  76.3838860  82.0878140  36.9439710
  77.0709990  82.6347350  37.3247300  75.5971280  82.6318870  36.9789320
  68.5231260  77.7050960  32.4356790  69.3926110  77.9875760  32.7192710
  68.0321580  78.5186830  32.3205600  71.5877850  69.4361820  37.0287590
  71.4592480  69.4279720  37.9772510  70.7639870  69.7744910  36.6778600
  79.2630760  82.6062860  42.5034820  79.9052990  81.9056020  42.6166990
  79.7880110  83.3861300  42.3231710  83.1086480  82.8911480  32.2273960
  82.8824060  82.1741920  32.8198600  82.7182680  82.6423920  31.3895710
  68.8902510  86.9178340  33.0018420  69.2500150  87.5167680  32.3475690
  68.7494850  87.4638230  33.7753450  74.9071130  84.3009540  33.8192090
  74.8981230  85.0339230  33.2036600  73.9869490  84.0541120  33.9119050
  80.0810560  73.6875250  44.2395740  80.4491380  72.8670460  44.5675310
  79.2208760  73.7477140  44.6551390  79.4472050  71.6468800  37.9036970
  79.3239830  71.6654930  36.9546480  80.3956610  71.6947740  38.0235370
  76.5348840  86.8824100  37.1764950  76.7890340  86.8445490  36.2544320
  75.5861320  86.7557430  37.1693200  84.2479410  72.5582800  45.3062100
  83.7453010  73.2988200  45.6455910  85.0636070  72.9466800  44.9898890
  82.5401420  77.8015980  38.7523460  81.5991560  77.8166210  38.9271150
  82.8545490  77.0151940  39.1983760  72.5183060  79.4835580  32.3127420
  73.2846330  79.3716940  32.8752850  72.5957750  78.7873550  31.6604190
  84.5427000  84.9724830  40.4277720  84.6674420  85.7956000  40.9001530
  85.4092560  84.7615560  40.0801870  75.1246840  86.2386350  31.9220420
  75.9175450  86.5275180  31.4702210  74.6051190  85.8078520  31.2432900
  84.1777010  85.4656480  33.3457160  83.8918520  85.0521620  32.5311340
  83.9796560  86.3944190  33.2257680  75.9663250  70.9832870  44.2065720
  75.5180550  71.0057130  43.3611270  75.3328450  70.5851890  44.8036020
  73.4460990  75.5533940  31.2328220  73.2450050  74.6901300  31.5941560
  73.2753040  75.4667300  30.2949820  72.2443790  72.6534560  31.2206100
  72.5469690  72.6601990  30.3125250  72.9838380  72.3032420  31.7173760
  77.6277760  86.5849930  33.8248900  78.5228550  86.9234900  33.8467660
  77.6595390  85.8629340  33.1973180  68.4819720  84.7466010  39.5056160
  68.8122730  83.8787070  39.2734800  68.9110720  84.9524530  40.3361120
  73.0781640  83.0775020  37.1658130  72.7777180  82.9539990  38.0662040
  72.9719130  82.2183610  36.7573860  84.6072110  85.1153600  46.5315100
  84.0074100  85.1746160  45.7879020  84.7366010  84.1758580  46.6611950
  85.8473560  82.8571420  31.8684810  85.0166520  82.9248070  32.3392040
  86.0245390  83.7475540  31.5651670  85.3030020  79.6018900  34.3719010
  86.0648930  80.1715550  34.4778700  85.3184390  79.0346100  35.1427320
  68.8034360  78.1256830  38.6026670  68.1483200  77.8568470  37.9586370
  69.6412310  78.0161310  38.1528650  86.3089990  80.4569000  39.2160940
  86.6798820  79.6736320  38.8096910  86.9491920  81.1458100  39.0378240
  85.2514530  77.8322260  36.5220960  84.8758130  77.0650190  36.0902250
  84.5217650  78.2144960  37.0095890  84.5265490  76.0579750  39.8228200
  85.0502970  75.5642400  39.1918370  85.1124910  76.1930110  40.5675770
  84.7055210  76.1419620  43.3447750  83.7557920  76.1083160  43.4592740
  84.8868220  77.0519730  43.1097520  84.0165460  75.3153100  35.7620610
  84.5124580  75.0823970  36.5469490  83.8181530  74.4764940  35.3458250
  69.8966000  69.6966820  41.3971650  70.5442190  69.1464200  40.9566810
  70.3167840  69.9509970  42.2187460  83.7918340  69.8908180  44.7541290
  84.4290560  70.5042320  45.1200480  83.9393230  69.9268840  43.8090520
  86.4081380  72.5532630  34.1621140  85.6132880  72.4877750  34.6914050
  86.6124660  73.4883270  34.1506490  83.3499800  86.5924180  38.1559530
  83.9458870  86.2708750  37.4793950  83.6077950  86.1196000  38.9472800
  69.6498000  69.8522490  44.1396970  69.3012820  70.3086310  44.9055150
  69.3185700  68.9579620  44.2219400  86.2172560  86.5996060  44.7070520
  85.7230840  86.9964930  43.9897650  85.6085850  85.9745270  45.1007800
  80.5405420  69.2636570  43.6277970  79.6665260  69.5971680  43.4250900
  80.4316170  68.7909750  44.4529840  81.4477400  71.4707440  45.0119690
  81.1190760  70.6559200  44.6321420  82.3959700  71.4277250  44.8885380
  83.9012010  87.2419480  41.9857260  83.4414980  87.9935290  41.6115280
  83.2724470  86.5225950  41.9272060  74.3307730  85.5507720  41.1605390
  74.8472750  84.9395080  40.6353650  74.9805110  86.0536500  41.6516400
  77.0703230  86.4416210  41.9874370  77.3581040  86.1870510  41.1107380
  77.5826450  85.8893570  42.5779940  78.2880240  70.1806410  42.5670880
  77.5052030  70.6551910  42.8467640  77.9943170  69.2761240  42.4584060
  69.0092630  86.6537110  37.5852740  68.8414670  86.0207790  38.2834630
  68.1427140  86.8596510  37.2346930  85.3720650  86.9057880  36.3516820
  85.5472840  86.2195620  35.7077740  84.6742220  87.4304930  35.9593490
  73.2148300  87.2952720  33.9052130  73.9467120  87.0112000  33.3576020
  73.4741970  87.0566000  34.7951510  83.7053150  86.5902170  49.1783610
  84.4978470  86.0951400  48.9709570  83.9986300  87.2692310  49.7859220
  79.8312810  77.4623110  20.0599660  79.7506860  76.5477720  19.7891370
  79.4177230  77.9590180  19.3539370  77.9630850  79.2402130  21.9408930
  77.1872950  78.7602570  22.2307500  78.6143780  78.5607780  21.7665090
  71.9796680  79.5521940  22.8184690  71.1481560  79.2970650  23.2181200
  72.5877660  79.6232710  23.5542610  81.9838280  83.6462320  20.7208060
  81.5219810  82.8749560  21.0495230  82.7963830  83.6728390  21.2260510
  70.3888630  74.5123830  16.6027080  69.5005330  74.8539800  16.5006960
  70.6729820  74.3124150  15.7107910  78.2101590  85.9320330  20.3412050
  77.5913030  86.3877830  19.7706490  79.0653370  86.0871790  19.9401750
  77.4039840  81.9159320  21.9479090  77.3348120  80.9749260  21.7868220
  78.1659700  82.0060730  22.5201660  78.4345010  74.7229700  22.1748020
  78.8109830  73.8501580  22.0621690  78.3364520  75.0588400  21.2838460
  72.5650020  73.0955330  17.6365460  72.6716770  73.9959060  17.9434220
  71.6542380  73.0473300  17.3460110  82.2169130  72.2180140  19.1076360
  83.0378750  71.7276710  19.1501840  82.2503210  72.8077800  19.8608200
  74.4057750  76.0641700  21.9690640  74.9135970  76.5622670  22.6095660
  74.9370990  75.2876900  21.7930000  86.5068680  74.2346890  25.6719990
  85.8020850  74.6228600  25.1535100  86.7726600  74.9297180  26.2740920
  72.6893850  70.7040260  26.2354060  72.6912290  71.2212650  25.4299960
  71.8598160  70.2270440  26.2123990  73.9396700  80.3435440  24.4127560
  73.6066080  80.9704360  25.0548630  74.1163380  80.8697320  23.6329230
  82.4530610  74.1580520  21.8803900  81.7486180  74.4465410  22.4607010
  82.8142770  74.9680630  21.5203460  72.3709180  72.4150220  24.2424510
  72.7125990  73.2592270  23.9478380  71.4324990  72.5633960  24.3589850
  73.1515800  82.3116240  26.2276740  73.7689800  82.9867320  25.9461190
  72.2908920  82.7204220  26.1364240  68.4448140  81.5016100  15.1083590
  68.0676120  81.9903200  14.3768490  68.7021210  82.1741380  15.7390120
  84.0693390  83.7755650  24.1431380  83.3856910  84.4454760  24.1348050
  84.6087680  83.9736300  23.3776240  85.5217530  73.6035310  22.2713110
  84.5742440  73.6374290  22.4028540  85.8467520  74.4174260  22.6562470
  76.0537070  69.9032490  20.5669100  76.3612050  69.3479380  19.8504600
  75.1237770  70.0376950  20.3842090  81.6052130  85.6199780  22.8576560
  81.6179290  85.2162070  21.9898820  81.0527350  86.3947070  22.7537990
  82.8997550  82.3416000  17.9466730  82.7893880  81.3990330  18.0716150
  82.8965800  82.7031640  18.8329490  81.0037570  80.5229620  24.1859170
  81.4206360  80.3089730  23.3512630  81.7277390  80.7802410  24.7567790
  78.4417830  77.9681320  17.3029220  77.5147110  77.9018700  17.5317690
  78.5942650  78.9061450  17.1884460  78.4286910  74.2398320  14.2996380
  77.4890580  74.4012280  14.3848840  78.7470170  74.9584000  13.7532370
  84.9499670  78.9216840  24.2775410  84.1218300  78.9909930  23.8025540
  85.5450150  79.5071150  23.8091240  82.4715120  79.5301620  17.8064470
  81.8527540  79.1921170  17.1590770  82.4539570  78.8861380  18.5143660
  81.9141680  75.7086160  25.2230280  81.5012860  76.5339870  25.4770270
  81.1817630  75.1231200  25.0306640  74.0474470  78.4946060  20.0848950
  73.6431470  77.7823310  19.5894850  74.1337590  78.1499300  20.9736990
  74.5156170  82.1813620  22.2488160  74.2184460  81.5759090  21.5695940
  75.4655990  82.2190930  22.1377520  72.7603090  75.2689270  23.8647990
  73.3117680  75.3784610  23.0901240  73.2746600  75.6426870  24.5803220
  82.6041780  85.7545490  25.9111260  82.1272340  86.5617680  25.7183870
  81.9203570  85.1023820  26.0637470  73.6074600  81.9195310  28.8995960
  72.7103130  82.1435280  29.1469360  73.6327470  82.0430250  27.9507360
  80.6479820  78.7688430  14.8137220  81.0873100  77.9310860  14.6675040
  81.3608240  79.4017830  14.9001360  72.4345820  78.7908630  27.4753330
  72.2953590  79.6631430  27.8440730  71.5527180  78.4481440  27.3301270
  78.7575200  83.7084500  18.7818460  79.1971110  84.4508830  18.3673850
  78.6962090  83.9511070  19.7057420  74.2326170  84.7330330  29.6838480
  74.2041600  85.1373280  28.8166910  74.0691140  83.8040690  29.5210080
  84.2296960  70.0231240  13.1278260  83.9169620  70.1158070  14.0277330
  84.9909430  70.6012270  13.0775690  70.7479100  77.3891040  17.5855600
  70.6276700  78.1153130  16.9736870  70.4379990  76.6193950  17.1083510
  86.1840990  85.5157430  30.9802650  86.6600710  85.9940320  31.6591730
  86.8048150  85.4474920  30.2548150  85.5874240  82.7070280  28.1402660
  85.7137300  82.4682160  27.2219840  85.6295620  81.8754820  28.6124740
  79.4490980  86.4098280  26.7097470  79.9635650  86.3206290  27.5119900
  78.6060060  86.7557980  27.0025380  73.9033760  86.4752150  17.9153090
  73.7276240  85.5587690  17.7020890  73.0489500  86.8339440  18.1550890
  80.6921440  85.8303890  18.7727960  81.1478390  85.0493270  19.0866580
  81.0313960  86.5410710  19.3169140  73.2142760  70.7326110  20.9679270
  72.7710910  71.5135650  20.6363790  73.7727750  71.0556000  21.6750210
  77.5012570  73.5994630  26.5714590  77.0391940  73.8077650  27.3834530
  77.0990680  72.7853980  26.2685260  82.5017080  74.8203580  27.7011250
  81.6510670  74.5209330  28.0220320  82.3418870  75.0645590  26.7895070
  79.5966790  76.3205330  29.8010040  79.9220200  75.4869080  29.4612270
  80.3847120  76.8433850  29.9488370  76.3301580  70.3536810  15.8485100
  75.7055760  70.3496680  16.5738410  76.2431700  69.4867770  15.4521070
  75.2518660  71.2773440  22.8268870  75.5490990  72.1836270  22.7460890
  75.8004220  70.7892220  22.2128440  73.0056980  75.8559680  18.6960520
  72.7797900  75.6396850  19.6007140  72.2249510  76.2888140  18.3506490
  80.2354740  75.8623050  17.2951170  79.6363630  76.5858850  17.1114790
  80.7834350  75.7999830  16.5127620  75.4456190  76.7545260  29.3620790
  75.3499790  75.8139990  29.2121190  76.2888170  76.9760330  28.9668860
  78.8419610  74.4986590  19.3254450  79.2349180  74.8158790  18.5123140
  79.2036460  73.6198470  19.4398970  77.1511780  73.2493900  30.5851310
  76.4610100  73.0566100  31.2197400  77.8944080  73.5328540  31.1175610
  68.0654010  75.0307510  12.7587370  67.9828680  75.9738270  12.9002360
  67.7137070  74.8882420  11.8799720  79.4274750  77.0892340  23.4205230
  78.6955870  77.5979150  23.7695330  79.0299090  76.2722320  23.1194010
  75.8652140  73.7646540  21.8257720  75.8688200  73.3236490  20.9762260
  76.7603260  74.0863870  21.9329540  71.7154520  73.6473030  20.7851930
  71.3754570  74.1248260  21.5418980  70.9531840  73.1938150  20.4253030
  75.9272290  74.7658620  14.8164480  76.0485110  74.7245100  15.7650300
  75.5420800  75.6282770  14.6611210  79.8900660  72.5426020  22.8328170
  79.9073400  72.9934670  23.6770020  79.6416240  71.6431660  23.0461610
  74.9393790  77.0759760  14.2147780  74.3710690  76.6278010  13.5883690
  75.6482790  77.4352540  13.6812930  70.0162970  80.9771780  28.0914510
  69.6317760  80.3365450  28.6897470  70.3275160  81.6807900  28.6609240
  76.1660110  77.8248320  23.5723130  76.5330240  77.3506890  24.3184470
  75.9765170  78.6989890  23.9131470  73.9559480  76.8656960  25.8907340
  73.6516550  77.7448940  26.1157700  74.9105940  76.9256750  25.9264780
  72.4841270  81.0717950  16.4874190  71.7103530  80.5315570  16.3272910
  73.2135900  80.5524560  16.1491950  83.2429250  80.0683310  22.2800580
  83.9628370  80.5638600  21.8896690  83.0411070  79.3901200  21.6354450
  78.7039190  71.4621270  16.4229970  77.8903800  70.9634440  16.3475280
  78.5101140  72.3019520  16.0066320  78.6248050  80.1392370  28.1669580
  78.5585360  79.2188040  27.9127170  77.9953190  80.2367810  28.8814220
  81.4187580  75.8340920  14.7192130  82.3067200  76.1458150  14.5443470
  81.3892670  74.9613170  14.3272710  72.5278670  80.7398330  20.1253000
  73.0457340  79.9366590  20.0709890  72.0762690  80.6777470  20.9669830
  70.0123210  77.7059700  27.0378700  69.6538150  78.3713550  27.6252040
  69.7177770  76.8743250  27.4091320  73.2136330  78.1643940  29.9218250
  72.9136470  78.3101120  29.0246070  73.9847570  77.6049230  29.8291640
  78.5564780  82.9612940  27.9173380  78.5709320  82.0293900  27.6992290
  77.8489880  83.0472700  28.5563150  83.6901850  77.1452760  14.1871990
  83.6065570  77.5766980  13.3368430  84.4096040  77.6051110  14.6198810
  84.7675990  79.6020280  27.2641960  84.0424180  80.1949060  27.0671350
  85.2951450  79.5943820  26.4655330  84.7189100  83.9995020  16.9154120
  84.0765260  83.3450640  17.1897840  84.3319760  84.4050110  16.1394790
  80.2975580  81.3280450  20.7625810  80.6499400  80.7308580  20.1027180
  79.4137910  81.0024680  20.9334060  68.5231260  77.7050960  13.6613300
  69.3926110  77.9875760  13.9449220  68.0321580  78.5186830  13.5462110
  75.6866070  79.0924170  17.7821580  76.1428850  79.9029420  18.0081770
  75.3354280  78.7747310  18.6140070  77.9898680  84.6030510  25.0113880
  78.6340900  84.8089890  25.6887300  78.3528120  83.8418910  24.5584730
  71.5877850  69.4361820  18.2544100  71.4592480  69.4279720  19.2029020
  70.7639870  69.7744910  17.9035110  79.2630760  82.6062860  23.7291330
  79.9052990  81.9056020  23.8423500  79.7880110  83.3861300  23.5488220
  83.1086480  82.8911480  13.4530470  82.8824060  82.1741920  14.0455110
  82.7182680  82.6423920  12.6152220  81.0368380  83.4057760  26.9327390
  81.3724620  83.9924450  27.6105310  80.1168720  83.2750470  27.1625180
  68.8902510  86.9178340  14.2274930  69.2500150  87.5167680  13.5732200
  68.7494850  87.4638230  15.0009960  82.6902730  80.8083420  15.1144630
  82.4024430  81.2696110  15.9022510  83.4854900  80.3481190  15.3828850
  68.8744370  85.1833200  28.7017330  68.9835490  84.2427940  28.5612720
  68.2224930  85.4487950  28.0531060  76.8656960  83.4549090  30.1015450
  76.5453830  82.7358330  30.6461140  76.1915320  84.1304160  30.1751510
  70.5077770  79.5224430  15.7895360  69.9005720  80.2623330  15.7990660
  70.9827120  79.6123790  14.9633560  80.0810560  73.6875250  25.4652250
  80.4491380  72.8670460  25.7931820  79.2208760  73.7477140  25.8807900
  83.4472590  72.6432190  16.2739810  82.8185750  72.7477860  15.5598040
  82.9524510  72.8628970  17.0633690  75.4156620  74.9218140  17.6897690
  74.7072770  75.3904480  18.1311300  75.7001100  74.2640150  18.3242880
  77.0412550  76.3414840  25.6890220  77.5397800  76.8160660  26.3542070
  77.1835500  75.4178360  25.8960250  79.4472050  71.6468800  19.1293480
  79.3239830  71.6654930  18.1802990  80.3956610  71.6947740  19.2491880
  76.5348840  86.8824100  18.4021460  76.7890340  86.8445490  17.4800830
  75.5861320  86.7557430  18.3949710  73.6191640  73.2303220  15.0648400
  74.4682170  73.6673370  14.9988590  73.2522910  73.5423480  15.8920460
  82.5401420  77.8015980  19.9779970  81.5991560  77.8166210  20.1527660
  82.8545490  77.0151940  20.4240270  72.5183060  79.4835580  13.5383930
  73.2846330  79.3716940  14.1009360  72.5957750  78.7873550  12.8860700
  71.2129820  76.9160650  14.2216820  71.2933410  75.9688160  14.3334220
  72.1049570  77.2467530  14.3277480  84.5427000  84.9724830  21.6534230
  84.6674420  85.7956000  22.1258040  85.4092560  84.7615560  21.3058380
  68.8990010  83.1329610  17.1992870  67.9729790  83.3750750  17.1898280
  69.3646440  83.9603870  17.0777620  71.0202810  86.2502110  30.5136940
  71.8215540  86.5714160  30.9272340  70.5054630  85.8897690  31.2356850
  75.1246840  86.2386350  13.1476930  75.9175450  86.5275180  12.6958720
  74.6051190  85.8078520  12.4689410  81.2867810  86.0862270  29.0721760
  82.2389560  86.0020290  29.0222000  81.1396030  86.7503980  29.7455550
  84.1777010  85.4656480  14.5713670  83.8918520  85.0521620  13.7567850
  83.9796560  86.3944190  14.4514190  68.7400620  78.7375570  29.4572990
  69.2439640  78.1582850  30.0289220  68.0008040  79.0215800  29.9949360
  75.7938560  80.1446560  28.9908510  75.0284230  80.7131560  28.9063180
  75.9754520  79.8522770  28.0976740  82.9361910  81.8751890  29.5483530
  83.6771380  82.2127650  29.0450990  82.1734590  82.0443950  28.9953300
  70.7723700  76.8805160  30.3523060  70.8129040  76.5819030  31.2608290
  71.6269200  77.2812770  30.1930580  72.7129510  75.4597260  28.3197550
  72.1825970  74.9688210  27.6920890  73.3817580  75.8881460  27.7855480
  81.6107570  79.9266720  28.0838740  82.0248590  80.0811800  28.9329160
  80.6758570  80.0521940  28.2464520  82.0829740  77.2662880  30.0877890
  82.6650510  76.5115200  29.9998370  82.2591510  77.7970320  29.3109370
  73.2001810  72.4259630  28.3994840  73.1058680  71.8080380  27.6745710
  72.6199200  73.1525920  28.1724750  75.9663250  70.9832870  25.4322230
  75.5180550  71.0057130  24.5867780  75.3328450  70.5851890  26.0292530
  76.3722800  79.8787200  26.0534670  76.7910910  80.7219930  25.8810910
  75.4531430  80.0159240  25.8241450  78.7086700  77.6103380  27.4372510
  78.8282910  77.0144520  28.1767350  79.5680700  77.6473070  27.0173810
  81.0474600  78.1640570  26.0135020  80.5209820  78.6883190  25.4100160
  81.3905940  78.7967960  26.6444750  73.4460990  75.5533940  12.4584730
  73.2450050  74.6901300  12.8198070  73.2753040  75.4667300  11.5206330
  74.2230220  86.1840210  27.1692400  73.6851310  86.9086270  26.8501100
  74.4764180  85.7070550  26.3789740  75.4755470  74.1524730  28.6948330
  76.0655160  73.8440580  29.3826150  74.6575710  73.6804480  28.8508230
  80.2948900  73.7690540  28.9281350  79.6064420  73.1072080  28.8631340
  81.0154920  73.3228810  29.3729810  80.9249300  70.3642170  14.9871610
  81.2051590  69.5210070  15.3431030  80.1515030  70.5965280  15.5010360
  72.2443790  72.6534560  12.4462610  72.5469690  72.6601990  11.5381760
  72.9838380  72.3032420  12.9430270  77.0792430  87.4191420  27.4279050
  77.0051130  88.3226560  27.7351420  76.1771270  87.1003320  27.4001120
  75.4628720  71.5969180  13.4318810  75.1150720  70.9193170  12.8521260
  75.6641490  71.1358690  14.2462200  71.2673920  81.9576980  13.2792410
  71.7048790  82.5006650  13.9349990  71.7521650  81.1323930  13.2888750
  73.0781640  83.0775020  18.3914640  72.7777180  82.9539990  19.2918550
  72.9719130  82.2183610  17.9830370  84.6072110  85.1153600  27.7571610
  84.0074100  85.1746160  27.0135530  84.7366010  84.1758580  27.8868460
  85.8473560  82.8571420  13.0941320  85.0166520  82.9248070  13.5648550
  86.0245390  83.7475540  12.7908180  85.3030020  79.6018900  15.5975520
  86.0648930  80.1715550  15.7035210  85.3184390  79.0346100  16.3683830
  86.3089990  80.4569000  20.4417450  86.6798820  79.6736320  20.0353420
  86.9491920  81.1458100  20.2634750  83.2923750  81.8405580  25.8547770
  82.4783590  82.2702740  26.1173560  83.6997950  82.4523990  25.2416820
  85.3549190  79.8953270  12.7548040  85.6298030  80.8032150  12.6267260
  85.1659930  79.8315800  13.6910030  81.7524800  72.9198120  14.0501670
  82.1709680  72.7329100  13.2098330  81.4460860  72.0677170  14.3604600
  85.2514530  77.8322260  17.7477470  84.8758130  77.0650190  17.3158760
  84.5217650  78.2144960  18.2352400  68.0172440  75.3355760  15.7708510
  67.1136520  75.5985960  15.5960170  68.5013060  75.6066930  14.9908470
  84.5265490  76.0579750  21.0484710  85.0502970  75.5642400  20.4174880
  85.1124910  76.1930110  21.7932280  84.7055210  76.1419620  24.5704260
  83.7557920  76.1083160  24.6849250  84.8868220  77.0519730  24.3354030
  70.5599650  74.3921300  13.6802890  71.2691350  73.9704520  13.1950170
  69.8439590  74.4596530  13.0486240  70.2073810  70.4460630  12.7205540
  70.9301940  70.9869570  13.0386760  70.4798330  70.1724050  11.8447080
  84.0165460  75.3153100  16.9877120  84.5124580  75.0823970  17.7726000
  83.8181530  74.4764940  16.5714760  69.8966000  69.6966820  22.6228160
  70.5442190  69.1464200  22.1823320  70.3167840  69.9509970  23.4443970
  85.4452620  73.9514050  19.5214800  85.3351900  73.7970090  20.4597070
  86.2060210  73.4234990  19.2790210  86.3342890  71.7821970  12.7620940
  87.2592200  71.6503150  12.5539230  86.3118680  71.8614790  13.7157390
  86.4081380  72.5532630  15.3877650  85.6132880  72.4877750  15.9170560
  86.6124660  73.4883270  15.3763000  83.3499800  86.5924180  19.3816040
  83.9458870  86.2708750  18.7050460  83.6077950  86.1196000  20.1729310
  74.9568400  84.5801680  25.1316390  74.7159760  84.8476240  24.2446910
  75.8971040  84.7507410  25.1867250  77.1622820  71.0434370  28.8872900
  77.1011710  71.6356200  29.6368310  78.1023200  70.9360330  28.7423160
  86.2172560  86.5996060  25.9327030  85.7230840  86.9964930  25.2154160
  85.6085850  85.9745270  26.3264310  70.3218640  69.3798690  28.6404250
  70.8701630  69.1986740  27.8770360  70.3873950  68.5892800  29.1760560
  83.9012010  87.2419480  23.2113770  83.4414980  87.9935290  22.8371790
  83.2724470  86.5225950  23.1528570  74.3307730  85.5507720  22.3861900
  74.8472750  84.9395080  21.8610160  74.9805110  86.0536500  22.8772910
  77.0703230  86.4416210  23.2130880  77.3581040  86.1870510  22.3363890
  77.5826450  85.8893570  23.8036450  78.2880240  70.1806410  23.7927390
  77.5052030  70.6551910  24.0724150  77.9943170  69.2761240  23.6840570
  82.8401310  70.8829510  21.8376480  83.2809400  70.8274610  20.9898080
  82.5708900  71.7987520  21.9086660  84.7039880  70.5144750  19.8485300
  84.6428280  69.5705970  19.7016320  85.4831910  70.6224840  20.3938760
  69.0092630  86.6537110  18.8109250  68.8414670  86.0207790  19.5091140
  68.1427140  86.8596510  18.4603440  69.6320650  70.4853890  16.3141110
  70.3900010  70.5982770  15.7405140  69.1697820  71.3223090  16.2684540
  76.1734460  72.5993160  19.3043420  75.3608970  72.2250050  18.9639300
  76.6776100  71.8438240  19.6064610  80.6759440  69.2635610  20.5426490
  81.2788810  69.8355820  21.0175010  79.9352430  69.8275050  20.3200390
  83.8194040  69.6657170  15.8166770  84.0144670  70.5640620  16.0834200
  83.0323910  69.4344250  16.3099720  70.6155330  85.3470340  16.2559390
  70.0902950  85.7278370  15.5521350  70.5399910  85.9721110  16.9769100
  72.0045800  71.0117940  14.8543080  72.5338560  70.2247740  14.7251030
  72.6374120  71.6909130  15.0878610  74.1983640  70.7493080  17.9088470
  73.5686380  70.0480390  18.0758600  73.6588780  71.5097210  17.6921630
  77.1375590  87.3632310  30.5799080  78.0642900  87.1276580  30.6235040
  77.1226020  88.1904310  30.0985110  85.3720650  86.9057880  17.5773330
  85.5472840  86.2195620  16.9334250  84.6742220  87.4304930  17.1850000
  73.2148300  87.2952720  15.1308640  73.9467120  87.0112000  14.5832530
  73.4741970  87.0566000  16.0208020  72.3763090  83.4117450  15.1354970
  71.7471970  83.8802550  15.6840800  72.4910920  82.5666670  15.5701160
  83.7053150  86.5902170  30.4040120  84.4978470  86.0951400  30.1966080
  83.9986300  87.2692310  31.0115730  77.9630850  79.2402130   3.1665440
  77.1872950  78.7602570   3.4564010  78.6143780  78.5607780   2.9921600
  71.9796680  79.5521940   4.0441200  71.1481560  79.2970650   4.4437710
  72.5877660  79.6232710   4.7799120  81.9838280  83.6462320   1.9464570
  81.5219810  82.8749560   2.2751740  82.7963830  83.6728390   2.4517020
  71.9597940  83.5862030   4.2399220  72.2625980  82.6959770   4.0609440
  72.7041530  84.1432250   4.0121470  68.3521640  77.1129480   3.7123290
  68.9237750  76.3451680   3.7126930  68.3523180  77.4118240   2.8029900
  77.4039840  81.9159320   3.1735600  77.3348120  80.9749260   3.0124730
  78.1659700  82.0060730   3.7458170  69.5946510  72.5213840   5.4992220
  69.4149350  71.6239590   5.7794980  69.1926590  73.0685710   6.1739170
  78.4345010  74.7229700   3.4004530  78.8109830  73.8501580   3.2878200
  78.3364520  75.0588400   2.5094970  70.2133180  75.0174340   4.1074560
  70.8943290  75.2812710   4.7261960  69.8981230  74.1775210   4.4412570
  74.4057750  76.0641700   3.1947150  74.9135970  76.5622670   3.8352170
  74.9370990  75.2876900   3.0186510  86.5068680  74.2346890   6.8976500
  85.8020850  74.6228600   6.3791610  86.7726600  74.9297180   7.4997430
  72.6893850  70.7040260   7.4610570  72.6912290  71.2212650   6.6556470
  71.8598160  70.2270440   7.4380500  73.9396700  80.3435440   5.6384070
  73.6066080  80.9704360   6.2805140  74.1163380  80.8697320   4.8585740
  82.4530610  74.1580520   3.1060410  81.7486180  74.4465410   3.6863520
  82.8142770  74.9680630   2.7459970  72.3709180  72.4150220   5.4681020
  72.7125990  73.2592270   5.1734890  71.4324990  72.5633960   5.5846360
  73.1515800  82.3116240   7.4533250  73.7689800  82.9867320   7.1717700
  72.2908920  82.7204220   7.3620750  84.0693390  83.7755650   5.3687890
  83.3856910  84.4454760   5.3604560  84.6087680  83.9736300   4.6032750
  85.5217530  73.6035310   3.4969620  84.5742440  73.6374290   3.6285050
  85.8467520  74.4174260   3.8818980  81.6052130  85.6199780   4.0833070
  81.6179290  85.2162070   3.2155330  81.0527350  86.3947070   3.9794500
  81.0037570  80.5229620   5.4115680  81.4206360  80.3089730   4.5769140
  81.7277390  80.7802410   5.9824300  84.9499670  78.9216840   5.5031920
  84.1218300  78.9909930   5.0282050  85.5450150  79.5071150   5.0347750
  81.9141680  75.7086160   6.4486790  81.5012860  76.5339870   6.7026780
  81.1817630  75.1231200   6.2563150  74.5156170  82.1813620   3.4744670
  74.2184460  81.5759090   2.7952450  75.4655990  82.2190930   3.3634030
  72.7603090  75.2689270   5.0904500  73.3117680  75.3784610   4.3157750
  73.2746600  75.6426870   5.8059730  82.6041780  85.7545490   7.1367770
  82.1272340  86.5617680   6.9440380  81.9203570  85.1023820   7.2893980
  73.6074600  81.9195310  10.1252470  72.7103130  82.1435280  10.3725870
  73.6327470  82.0430250   9.1763870  72.4345820  78.7908630   8.7009840
  72.2953590  79.6631430   9.0697240  71.5527180  78.4481440   8.5557780
  74.2326170  84.7330330  10.9094990  74.2041600  85.1373280  10.0423420
  74.0691140  83.8040690  10.7466590  86.1840990  85.5157430  12.2059160
  86.6600710  85.9940320  12.8848240  86.8048150  85.4474920  11.4804660
  68.3864470  80.5606180   4.6180750  68.4644890  80.6954950   3.6736470
  69.0006150  79.8522070   4.8108870  85.5874240  82.7070280   9.3659170
  85.7137300  82.4682160   8.4476350  85.6295620  81.8754820   9.8381250
  79.4490980  86.4098280   7.9353980  79.9635650  86.3206290   8.7376410
  78.6060060  86.7557980   8.2281890  85.4398250  74.7602740  10.3308910
  84.8242520  75.2682410   9.8024370  85.1194670  73.8601070  10.2734850
  68.4423990  81.6020350   7.1575210  68.6055030  81.1325710   6.3394580
  68.9076440  81.0943910   7.8224050  73.2142760  70.7326110   2.1935780
  72.7710910  71.5135650   1.8620300  73.7727750  71.0556000   2.9006720
  77.5012570  73.5994630   7.7971100  77.0391940  73.8077650   8.6091040
  77.0990680  72.7853980   7.4941770  82.5017080  74.8203580   8.9267760
  81.6510670  74.5209330   9.2476830  82.3418870  75.0645590   8.0151580
  79.5966790  76.3205330  11.0266550  79.9220200  75.4869080  10.6868780
  80.3847120  76.8433850  11.1744880  75.2518660  71.2773440   4.0525380
  75.5490990  72.1836270   3.9717400  75.8004220  70.7892220   3.4384950
  75.4456190  76.7545260  10.5877300  75.3499790  75.8139990  10.4377700
  76.2888170  76.9760330  10.1925370  70.5766730  73.1658930   8.7411080
  70.1830120  74.0134140   8.9483860  69.8885130  72.5285300   8.9319720
  77.1511780  73.2493900  11.8107820  76.4610100  73.0566100  12.4453910
  77.8944080  73.5328540  12.3432120  67.8783780  71.0887390   2.7741160
  67.5896830  71.6590250   3.4866140  68.6229540  70.6091840   3.1372390
  79.4274750  77.0892340   4.6461740  78.6955870  77.5979150   4.9951840
  79.0299090  76.2722320   4.3450520  75.8652140  73.7646540   3.0514230
  75.8688200  73.3236490   2.2018770  76.7603260  74.0863870   3.1586050
  71.7154520  73.6473030   2.0108440  71.3754570  74.1248260   2.7675490
  70.9531840  73.1938150   1.6509540  79.8900660  72.5426020   4.0584680
  79.9073400  72.9934670   4.9026530  79.6416240  71.6431660   4.2718120
  83.3171410  69.9558200   9.8971060  83.6417180  69.2247860  10.4229040
  83.3527920  69.6371840   8.9952050  70.0162970  80.9771780   9.3171020
  69.6317760  80.3365450   9.9153980  70.3275160  81.6807900   9.8865750
  76.1660110  77.8248320   4.7979640  76.5330240  77.3506890   5.5440980
  75.9765170  78.6989890   5.1387980  73.9559480  76.8656960   7.1163850
  73.6516550  77.7448940   7.3414210  74.9105940  76.9256750   7.1521290
  83.2429250  80.0683310   3.5057090  83.9628370  80.5638600   3.1153200
  83.0411070  79.3901200   2.8610960  78.6248050  80.1392370   9.3926090
  78.5585360  79.2188040   9.1383680  77.9953190  80.2367810  10.1070730
  70.0123210  77.7059700   8.2635210  69.6538150  78.3713550   8.8508550
  69.7177770  76.8743250   8.6347830  73.2136330  78.1643940  11.1474760
  72.9136470  78.3101120  10.2502580  73.9847570  77.6049230  11.0548150
  78.5564780  82.9612940   9.1429890  78.5709320  82.0293900   8.9248800
  77.8489880  83.0472700   9.7819660  84.7675990  79.6020280   8.4898470
  84.0424180  80.1949060   8.2927860  85.2951450  79.5943820   7.6911840
  77.9898680  84.6030510   6.2370390  78.6340900  84.8089890   6.9143810
  78.3528120  83.8418910   5.7841240  79.2630760  82.6062860   4.9547840
  79.9052990  81.9056020   5.0680010  79.7880110  83.3861300   4.7744730
  81.0368380  83.4057760   8.1583900  81.3724620  83.9924450   8.8361820
  80.1168720  83.2750470   8.3881690  68.5871780  71.1952940   8.9407310
  67.8730300  71.3949860   9.5459920  69.0066820  70.4192510   9.3122110
  68.8744370  85.1833200   9.9273840  68.9835490  84.2427940   9.7869230
  68.2224930  85.4487950   9.2787570  80.0810560  73.6875250   6.6908760
  80.4491380  72.8670460   7.0188330  79.2208760  73.7477140   7.1064410
  77.0412550  76.3414840   6.9146730  77.5397800  76.8160660   7.5798580
  77.1835500  75.4178360   7.1216760  84.2479410  72.5582800   7.7575120
  83.7453010  73.2988200   8.0968930  85.0636070  72.9466800   7.4411910
  84.5427000  84.9724830   2.8790740  84.6674420  85.7956000   3.3514550
  85.4092560  84.7615560   2.5314890  72.0144530  87.0656040   2.5507870
  72.7507010  86.5171500   2.8216440  72.3985450  87.9312050   2.4113860
  71.0202810  86.2502110  11.7393450  71.8215540  86.5714160  12.1528850
  70.5054630  85.8897690  12.4613360  79.8567440  82.3581980  11.6868860
  79.2505600  82.3813580  10.9464610  79.5521550  81.6265020  12.2236110
  68.7400620  78.7375570  10.6829500  69.2439640  78.1582850  11.2545730
  68.0008040  79.0215800  11.2205870  75.7938560  80.1446560  10.2165020
  75.0284230  80.7131560  10.1319690  75.9754520  79.8522770   9.3233250
  82.9361910  81.8751890  10.7740040  83.6771380  82.2127650  10.2707500
  82.1734590  82.0443950  10.2209810  70.7723700  76.8805160  11.5779570
  70.8129040  76.5819030  12.4864800  71.6269200  77.2812770  11.4187090
  72.7129510  75.4597260   9.5454060  72.1825970  74.9688210   8.9177400
  73.3817580  75.8881460   9.0111990  81.6107570  79.9266720   9.3095250
  82.0248590  80.0811800  10.1585670  80.6758570  80.0521940   9.4721030
  82.0829740  77.2662880  11.3134400  82.6650510  76.5115200  11.2254880
  82.2591510  77.7970320  10.5365880  73.2001810  72.4259630   9.6251350
  73.1058680  71.8080380   8.9002220  72.6199200  73.1525920   9.3981260
  75.9663250  70.9832870   6.6578740  75.5180550  71.0057130   5.8124290
  75.3328450  70.5851890   7.2549040  76.3722800  79.8787200   7.2791180
  76.7910910  80.7219930   7.1067420  75.4531430  80.0159240   7.0497960
  78.7086700  77.6103380   8.6629020  78.8282910  77.0144520   9.4023860
  79.5680700  77.6473070   8.2430320  81.0474600  78.1640570   7.2391530
  80.5209820  78.6883190   6.6356670  81.3905940  78.7967960   7.8701260
  74.2230220  86.1840210   8.3948910  73.6851310  86.9086270   8.0757610
  74.4764180  85.7070550   7.6046250  75.4755470  74.1524730   9.9204840
  76.0655160  73.8440580  10.6082660  74.6575710  73.6804480  10.0764740
  80.2948900  73.7690540  10.1537860  79.6064420  73.1072080  10.0887850
  81.0154920  73.3228810  10.5986320  77.0792430  87.4191420   8.6535560
  77.0051130  88.3226560   8.9607930  76.1771270  87.1003320   8.6257630
  68.4819720  84.7466010   1.9569180  68.8122730  83.8787070   1.7247820
  68.9110720  84.9524530   2.7874140  68.9709930  85.6136600   4.6950810
  68.5340920  85.7937400   5.5274960  69.5387610  86.3711220   4.5532530
  84.6072110  85.1153600   8.9828120  84.0074100  85.1746160   8.2392040
  84.7366010  84.1758580   9.1124970  83.2923750  81.8405580   7.0804280
  82.4783590  82.2702740   7.3430070  83.6997950  82.4523990   6.4673330
  69.8410290  78.5109400   5.5943030  70.2083330  78.4236800   6.4739050
  69.2721110  77.7475950   5.4949890  84.6414150  76.9793780   8.6073500
  84.4100240  76.7506530   7.7071450  84.9018700  77.8993330   8.5618390
  69.3926290  75.4218490   9.5001450  68.4982340  75.3885250   9.8395160
  69.9323840  75.6205280  10.2652700  83.0802220  72.2050210  11.3853200
  83.9572400  72.2133610  11.7687200  83.0923060  71.4681050  10.7745550
  84.5265490  76.0579750   2.2741220  85.0502970  75.5642400   1.6431390
  85.1124910  76.1930110   3.0188790  84.7055210  76.1419620   5.7960770
  83.7557920  76.1083160   5.9105760  84.8868220  77.0519730   5.5610540
  69.8966000  69.6966820   3.8484670  70.5442190  69.1464200   3.4079830
  70.3167840  69.9509970   4.6700480  83.7918340  69.8908180   7.2054310
  84.4290560  70.5042320   7.5713500  83.9393230  69.9268840   6.2603540
  69.6498000  69.8522490   6.5909990  69.3012820  70.3086310   7.3568170
  69.3185700  68.9579620   6.6732420  71.2562370  83.0242090  10.7563180
  71.2132000  82.6535000  11.6377640  71.3873380  83.9619660  10.8965000
  74.9568400  84.5801680   6.3572900  74.7159760  84.8476240   5.4703420
  75.8971040  84.7507410   6.4123760  77.1622820  71.0434370  10.1129410
  77.1011710  71.6356200  10.8624820  78.1023200  70.9360330   9.9679670
  79.7997380  70.7004430   9.7521700  80.4137790  71.0183720   9.0902780
  80.3446940  70.2153020  10.3717560  86.2172560  86.5996060   7.1583540
  85.7230840  86.9964930   6.4410670  85.6085850  85.9745270   7.5520820
  70.3218640  69.3798690   9.8660760  70.8701630  69.1986740   9.1026870
  70.3873950  68.5892800  10.4017070  71.0950400  85.9704340   7.8760960
  70.5010720  85.8389040   8.6151000  71.0874240  85.1342480   7.4103060
  80.5405420  69.2636570   6.0790990  79.6665260  69.5971680   5.8763920
  80.4316170  68.7909750   6.9042860  81.4477400  71.4707440   7.4632710
  81.1190760  70.6559200   7.0834440  82.3959700  71.4277250   7.3398400
  83.9012010  87.2419480   4.4370280  83.4414980  87.9935290   4.0628300
  83.2724470  86.5225950   4.3785080  70.7262630  83.3362720   6.8269000
  69.9996690  82.7168010   6.7594950  70.7871780  83.7303330   5.9567080
  74.3307730  85.5507720   3.6118410  74.8472750  84.9395080   3.0866670
  74.9805110  86.0536500   4.1029420  77.0703230  86.4416210   4.4387390
  77.3581040  86.1870510   3.5620400  77.5826450  85.8893570   5.0292960
  78.2880240  70.1806410   5.0183900  77.5052030  70.6551910   5.2980660
  77.9943170  69.2761240   4.9097080  82.8401310  70.8829510   3.0632990
  83.2809400  70.8274610   2.2154590  82.5708900  71.7987520   3.1343170
  80.6759440  69.2635610   1.7683000  81.2788810  69.8355820   2.2431520
  79.9352430  69.8275050   1.5456900  74.3239200  70.0277060  11.5697470
  74.0423470  70.5310660  10.8058290  74.7058900  69.2298810  11.2039600
  80.9254660  69.4430640  12.1477940  80.8120110  69.7625250  13.0429460
  81.7424400  69.8443150  11.8515220  83.7053150  86.5902170  11.6296630
  84.4978470  86.0951400  11.4222590  83.9986300  87.2692310  12.2372240
  79.8312810  58.6879620 151.4804090  79.7506860  57.7734230 151.2095800
  79.4177230  59.1846690 150.7743800  77.9630850  60.4658640 153.3613360
  77.1872950  59.9859080 153.6511930  78.6143780  59.7864290 153.1869520
  81.9838280  64.8718830 152.1412490  81.5219810  64.1006070 152.4699660
  82.7963830  64.8984900 152.6464940  71.9597940  64.8118540 154.4347140
  72.2625980  63.9216280 154.2557360  72.7041530  65.3688760 154.2069390
  70.3888630  55.7380340 148.0231510  69.5005330  56.0796310 147.9211390
  70.6729820  55.5380660 147.1312340  68.3521640  58.3385990 153.9071210
  68.9237750  57.5708190 153.9074850  68.3523180  58.6374750 152.9977820
  78.2101590  67.1576840 151.7616480  77.5913030  67.6134340 151.1910920
  79.0653370  67.3128300 151.3606180  77.4039840  63.1415830 153.3683520
  77.3348120  62.2005770 153.2072650  78.1659700  63.2317240 153.9406090
  78.4345010  55.9486210 153.5952450  78.8109830  55.0758090 153.4826120
  78.3364520  56.2844910 152.7042890  72.5650020  54.3211840 149.0569890
  72.6716770  55.2215570 149.3638650  71.6542380  54.2729810 148.7664540
  82.2169130  53.4436650 150.5280790  83.0378750  52.9533220 150.5706270
  82.2503210  54.0334310 151.2812630  74.4057750  57.2898210 153.3895070
  74.9135970  57.7879180 154.0300090  74.9370990  56.5133410 153.2134430
  79.0764940  62.0416080 149.1548390  78.4582210  62.5065530 148.5911110
  79.5888190  62.7343560 149.5717900  82.4530610  55.3837030 153.3008330
  81.7486180  55.6721920 153.8811440  82.8142770  56.1937140 152.9407890
  68.4448140  62.7272610 146.5288020  68.0676120  63.2159710 145.7972920
  68.7021210  63.3997890 147.1594550  85.5217530  54.8291820 153.6917540
  84.5742440  54.8630800 153.8232970  85.8467520  55.6430770 154.0766900
  76.0537070  51.1289000 151.9873530  76.3612050  50.5735890 151.2709030
  75.1237770  51.2633460 151.8046520  81.6052130  66.8456290 154.2780990
  81.6179290  66.4418580 153.4103250  81.0527350  67.6203580 154.1742420
  82.8997550  63.5672510 149.3671160  82.7893880  62.6246840 149.4920580
  82.8965800  63.9288150 150.2533920  78.4417830  59.1937830 148.7233650
  77.5147110  59.1275210 148.9522120  78.5942650  60.1317960 148.6088890
  78.4286910  55.4654830 145.7200810  77.4890580  55.6268790 145.8053270
  78.7470170  56.1840510 145.1736800  82.4715120  60.7558130 149.2268900
  81.8527540  60.4177680 148.5795200  82.4539570  60.1117890 149.9348090
  74.0474470  59.7202570 151.5053380  73.6431470  59.0079820 151.0099280
  74.1337590  59.3755810 152.3941420  74.5156170  63.4070130 153.6692590
  74.2184460  62.8015600 152.9900370  75.4655990  63.4447440 153.5581950
  80.6479820  59.9944940 146.2341650  81.0873100  59.1567370 146.0879470
  81.3608240  60.6274340 146.3205790  78.7575200  64.9341010 150.2022890
  79.1971110  65.6765340 149.7878280  78.6962090  65.1767580 151.1261850
  84.2296960  51.2487750 144.5482690  83.9169620  51.3414580 145.4481760
  84.9909430  51.8268780 144.4980120  70.7479100  58.6147550 149.0060030
  70.6276700  59.3409640 148.3941300  70.4379990  57.8450460 148.5287940
  69.6312100  63.4862880 151.2234850  69.2240180  63.6277470 150.3688450
  70.5225110  63.2023040 151.0206060  81.4245380  67.9210130 147.5585900
  81.2646520  67.6313070 148.4567730  81.2592090  67.1450260 147.0231130
  73.9033760  67.7008660 149.3357520  73.7276240  66.7844200 149.1225320
  73.0489500  68.0595950 149.5755320  81.1271510  65.4297690 146.1183900
  80.4336670  65.4274980 145.4586180  81.8694370  65.0057010 145.6878070
  80.6921440  67.0560400 150.1932390  81.1478390  66.2749780 150.5071010
  81.0313960  67.7667220 150.7373570  73.2142760  51.9582620 152.3883700
  72.7710910  52.7392160 152.0568220  73.7727750  52.2812510 153.0954640
  76.3301580  51.5793320 147.2689530  75.7055760  51.5753190 147.9942840
  76.2431700  50.7124280 146.8725500  75.2518660  52.5029950 154.2473300
  75.5490990  53.4092780 154.1665320  75.8004220  52.0148730 153.6332870
  73.0056980  57.0816190 150.1164950  72.7797900  56.8653360 151.0211570
  72.2249510  57.5144650 149.7710920  80.2354740  57.0879560 148.7155600
  79.6363630  57.8115360 148.5319220  80.7834350  57.0256340 147.9332050
  78.8419610  55.7243100 150.7458880  79.2349180  56.0415300 149.9327570
  79.2036460  54.8454980 150.8603400  67.8783780  52.3143900 152.9689080
  67.5896830  52.8846760 153.6814060  68.6229540  51.8348350 153.3320310
  68.0654010  56.2564020 144.1791800  67.9828680  57.1994780 144.3206790
  67.7137070  56.1138930 143.3004150  75.8652140  54.9903050 153.2462150
  75.8688200  54.5493000 152.3966690  76.7603260  55.3120380 153.3533970
  71.7154520  54.8729540 152.2056360  71.3754570  55.3504770 152.9623410
  70.9531840  54.4194660 151.8457460  75.9272290  55.9915130 146.2368910
  76.0485110  55.9501610 147.1854730  75.5420800  56.8539280 146.0815640
  74.9393790  58.3016270 145.6352210  74.3710690  57.8534520 145.0088120
  75.6482790  58.6609050 145.1017360  69.0300600  53.7948520 151.1221030
  68.7447520  53.4304190 151.9599650  68.9679460  53.0628980 150.5084170
  72.4841270  62.2974460 147.9078620  71.7103530  61.7572080 147.7477340
  73.2135900  61.7781070 147.5696380  83.2429250  61.2939820 153.7005010
  83.9628370  61.7895110 153.3101120  83.0411070  60.6157710 153.0558880
  78.7039190  52.6877780 147.8434400  77.8903800  52.1890950 147.7679710
  78.5101140  53.5276030 147.4270750  81.4187580  57.0597430 146.1396560
  82.3067200  57.3714660 145.9647900  81.3892670  56.1869680 145.7477140
  72.5278670  61.9654840 151.5457430  73.0457340  61.1623100 151.4914320
  72.0762690  61.9033980 152.3874260  77.4148170  63.2321120 146.8184730
  77.7563870  63.9763350 146.3228050  76.5860880  63.5452240 147.1809560
  83.6901850  58.3709270 145.6076420  83.6065570  58.8023490 144.7572860
  84.4096040  58.8307620 146.0403240  84.7189100  65.2251530 148.3358550
  84.0765260  64.5707150 148.6102270  84.3319760  65.6306620 147.5599220
  80.2975580  62.5536960 152.1830240  80.6499400  61.9565090 151.5231610
  79.4137910  62.2281190 152.3538490  76.3838860  63.3134650 149.5900650
  77.0709990  63.8603860 149.9708240  75.5971280  63.8575380 149.6250260
  68.5231260  58.9307470 145.0817730  69.3926110  59.2132270 145.3653650
  68.0321580  59.7443340 144.9666540  75.6866070  60.3180680 149.2026010
  76.1428850  61.1285930 149.4286200  75.3354280  60.0003820 150.0344500
  71.5877850  50.6618330 149.6748530  71.4592480  50.6536230 150.6233450
  70.7639870  51.0001420 149.3239540  83.1086480  64.1167990 144.8734900
  82.8824060  63.3998430 145.4659540  82.7182680  63.8680430 144.0356650
  68.8902510  68.1434850 145.6479360  69.2500150  68.7424190 144.9936630
  68.7494850  68.6894740 146.4214390  82.6902730  62.0339930 146.5349060
  82.4024430  62.4952620 147.3226940  83.4854900  61.5737700 146.8033280
  74.9071130  65.5266050 146.4653030  74.8981230  66.2595740 145.8497540
  73.9869490  65.2797630 146.5579990  70.5077770  60.7480940 147.2099790
  69.9005720  61.4879840 147.2195090  70.9827120  60.8380300 146.3837990
  83.4472590  53.8688700 147.6944240  82.8185750  53.9734370 146.9802470
  82.9524510  54.0885480 148.4838120  77.8930730  65.5894290 145.1278220
  77.9942710  65.3858280 144.1980200  76.9932470  65.3352570 145.3326000
  75.4156620  56.1474650 149.1102120  74.7072770  56.6160990 149.5515730
  75.7001100  55.4896660 149.7447310  79.4472050  52.8725310 150.5497910
  79.3239830  52.8911440 149.6007420  80.3956610  52.9204250 150.6696310
  76.5348840  68.1080610 149.8225890  76.7890340  68.0702000 148.9005260
  75.5861320  67.9813940 149.8154140  73.6191640  54.4559730 146.4852830
  74.4682170  54.8929880 146.4193020  73.2522910  54.7679990 147.3124890
  82.5401420  59.0272490 151.3984400  81.5991560  59.0422720 151.5732090
  82.8545490  58.2408450 151.8444700  72.5183060  60.7092090 144.9588360
  73.2846330  60.5973450 145.5213790  72.5957750  60.0130060 144.3065130
  71.2129820  58.1417160 145.6421250  71.2933410  57.1944670 145.7538650
  72.1049570  58.4724040 145.7481910  84.5427000  66.1981340 153.0738660
  84.6674420  67.0212510 153.5462470  85.4092560  65.9872070 152.7262810
  72.0144530  68.2912550 152.7455790  72.7507010  67.7428010 153.0164360
  72.3985450  69.1568560 152.6061780  68.8990010  64.3586120 148.6197300
  67.9729790  64.6007260 148.6102710  69.3646440  65.1860380 148.4982050
  75.1246840  67.4642860 144.5681360  75.9175450  67.7531690 144.1163150
  74.6051190  67.0335030 143.8893840  84.1777010  66.6912990 145.9918100
  83.8918520  66.2778130 145.1772280  83.9796560  67.6200700 145.8718620
  75.6424240  62.6846270 144.4323710  75.5374880  62.0698620 145.1585090
  75.4748460  62.1612160 143.6486720  78.8826970  61.7466300 145.0365700
  78.3337070  62.1935600 145.6808440  79.5046230  61.2415550 145.5603370
  74.5502090  60.7057220 146.9331000  74.9718510  60.5397090 147.7762390
  74.6752930  59.8957450 146.4386140  77.0629730  59.7294830 144.1808100
  77.5835390  59.0143850 143.8149250  77.7098130  60.3680700 144.4808610
  73.4460990  56.7790450 143.8789160  73.2450050  55.9157810 144.2402500
  73.2753040  56.6923810 142.9410760  80.9249300  51.5898680 146.4076040
  81.2051590  50.7466580 146.7635460  80.1515030  51.8221790 146.9214790
  72.2443790  53.8791070 143.8667040  72.5469690  53.8858500 142.9586190
  72.9838380  53.5288930 144.3634700  75.4628720  52.8225690 144.8523240
  75.1150720  52.1449680 144.2725690  75.6641490  52.3615200 145.6666630
  77.6277760  67.8106440 146.4709840  78.5228550  68.1491410 146.4928600
  77.6595390  67.0885850 145.8434120  71.2673920  63.1833490 144.6996840
  71.7048790  63.7263160 145.3554420  71.7521650  62.3580440 144.7093180
  68.4819720  65.9722520 152.1517100  68.8122730  65.1043580 151.9195740
  68.9110720  66.1781040 152.9822060  73.0781640  64.3031530 149.8119070
  72.7777180  64.1796500 150.7122980  72.9719130  63.4440120 149.4034800
  85.8473560  64.0827930 144.5145750  85.0166520  64.1504580 144.9852980
  86.0245390  64.9732050 144.2112610  85.3030020  60.8275410 147.0179950
  86.0648930  61.3972060 147.1239640  85.3184390  60.2602610 147.7888260
  68.8034360  59.3513340 151.2487610  68.1483200  59.0824980 150.6047310
  69.6412310  59.2417820 150.7989590  86.3089990  61.6825510 151.8621880
  86.6798820  60.8992830 151.4557850  86.9491920  62.3714610 151.6839180
  85.3549190  61.1209780 144.1752470  85.6298030  62.0288660 144.0471690
  85.1659930  61.0572310 145.1114460  81.7524800  54.1454630 145.4706100
  82.1709680  53.9585610 144.6302760  81.4460860  53.2933680 145.7809030
  85.2514530  59.0578770 149.1681900  84.8758130  58.2906700 148.7363190
  84.5217650  59.4401470 149.6556830  68.0172440  56.5612270 147.1912940
  67.1136520  56.8242470 147.0164600  68.5013060  56.8323440 146.4112900
  84.5265490  57.2836260 152.4689140  85.0502970  56.7898910 151.8379310
  85.1124910  57.4186620 153.2136710  70.5599650  55.6177810 145.1007320
  71.2691350  55.1961030 144.6154600  69.8439590  55.6853040 144.4690670
  70.2073810  51.6717140 144.1409970  70.9301940  52.2126080 144.4591190
  70.4798330  51.3980560 143.2651510  84.0165460  56.5409610 148.4081550
  84.5124580  56.3080480 149.1930430  83.8181530  55.7021450 147.9919190
  85.4452620  55.1770560 150.9419230  85.3351900  55.0226600 151.8801500
  86.2060210  54.6491500 150.6994640  86.3342890  53.0078480 144.1825370
  87.2592200  52.8759660 143.9743660  86.3118680  53.0871300 145.1361820
  86.4081380  53.7789140 146.8082080  85.6132880  53.7134260 147.3374990
  86.6124660  54.7139780 146.7967430  83.3499800  67.8180690 150.8020470
  83.9458870  67.4965260 150.1254890  83.6077950  67.3452510 151.5933740
  74.3307730  66.7764230 153.8066330  74.8472750  66.1651590 153.2814590
  74.9805110  67.2793010 154.2977340  82.8401310  52.1086020 153.2580910
  83.2809400  52.0531120 152.4102510  82.5708900  53.0244030 153.3291090
  84.7039880  51.7401260 151.2689730  84.6428280  50.7962480 151.1220750
  85.4831910  51.8481350 151.8143190  69.0092630  67.8793620 150.2313680
  68.8414670  67.2464300 150.9295570  68.1427140  68.0853020 149.8807870
  69.6320650  51.7110400 147.7345540  70.3900010  51.8239280 147.1609570
  69.1697820  52.5479600 147.6888970  76.1734460  53.8249670 150.7247850
  75.3608970  53.4506560 150.3843730  76.6776100  53.0694750 151.0269040
  80.6759440  50.4892120 151.9630920  81.2788810  51.0612330 152.4379440
  79.9352430  51.0531560 151.7404820  83.8194040  50.8913680 147.2371200
  84.0144670  51.7897130 147.5038630  83.0323910  50.6600760 147.7304150
  70.6155330  66.5726850 147.6763820  70.0902950  66.9534880 146.9725780
  70.5399910  67.1977620 148.3973530  72.0045800  52.2374450 146.2747510
  72.5338560  51.4504250 146.1455460  72.6374120  52.9165640 146.5083040
  74.1983640  51.9749590 149.3292900  73.5686380  51.2736900 149.4963030
  73.6588780  52.7353720 149.1126060  85.3720650  68.1314390 148.9977760
  85.5472840  67.4452130 148.3538680  84.6742220  68.6561440 148.6054430
  73.2148300  68.5209230 146.5513070  73.9467120  68.2368510 146.0036960
  73.4741970  68.2822510 147.4412450  72.3763090  64.6373960 146.5559400
  71.7471970  65.1059060 147.1045230  72.4910920  63.7923180 146.9905590
  69.5946510  53.7470350 136.9196650  69.4149350  52.8496100 137.1999410
  69.1926590  54.2942220 137.5943600  78.4345010  55.9486210 134.8208960
  78.8109830  55.0758090 134.7082630  78.3364520  56.2844910 133.9299400
  72.6893850  51.9296770 138.8815000  72.6912290  52.4469160 138.0760900
  71.8598160  51.4526950 138.8584930  73.1515800  63.5372750 138.8737680
  73.7689800  64.2123830 138.5922130  72.2908920  63.9460730 138.7825180
  68.4448140  62.7272610 127.7544530  68.0676120  63.2159710 127.0229430
  68.7021210  63.3997890 128.3851060  78.4286910  55.4654830 126.9457320
  77.4890580  55.6268790 127.0309780  78.7470170  56.1840510 126.3993310
  81.9141680  56.9342670 137.8691220  81.5012860  57.7596380 138.1231210
  81.1817630  56.3487710 137.6767580  73.6074600  63.1451820 141.5456900
  72.7103130  63.3691790 141.7930300  73.6327470  63.2686760 140.5968300
  72.4345820  60.0165140 140.1214270  72.2953590  60.8887940 140.4901670
  71.5527180  59.6737950 139.9762210  74.2326170  65.9586840 142.3299420
  74.2041600  66.3629790 141.4627850  74.0691140  65.0297200 142.1671020
  86.1840990  66.7413940 143.6263590  86.6600710  67.2196830 144.3052670
  86.8048150  66.6731430 142.9009090  68.3864470  61.7862690 136.0385180
  68.4644890  61.9211460 135.0940900  69.0006150  61.0778580 136.2313300
  73.9033760  67.7008660 130.5614030  73.7276240  66.7844200 130.3481830
  73.0489500  68.0595950 130.8011830  85.4398250  55.9859250 141.7513340
  84.8242520  56.4938920 141.2228800  85.1194670  55.0857580 141.6939280
  68.4423990  62.8276860 138.5779640  68.6055030  62.3582220 137.7599010
  68.9076440  62.3200420 139.2428480  77.5012570  54.8251140 139.2175530
  77.0391940  55.0334160 140.0295470  77.0990680  54.0110490 138.9146200
  82.5017080  56.0460090 140.3472190  81.6510670  55.7465840 140.6681260
  82.3418870  56.2902100 139.4356010  79.5966790  57.5461840 142.4470980
  79.9220200  56.7125590 142.1073210  80.3847120  58.0690360 142.5949310
  75.2518660  52.5029950 135.4729810  75.5490990  53.4092780 135.3921830
  75.8004220  52.0148730 134.8589380  80.2354740  57.0879560 129.9412110
  79.6363630  57.8115360 129.7575730  80.7834350  57.0256340 129.1588560
  75.4456190  57.9801770 142.0081730  75.3499790  57.0396500 141.8582130
  76.2888170  58.2016840 141.6129800  70.5766730  54.3915440 140.1615510
  70.1830120  55.2390650 140.3688290  69.8885130  53.7541810 140.3524150
  77.1511780  54.4750410 143.2312250  76.4610100  54.2822610 143.8658340
  77.8944080  54.7585050 143.7636550  79.4274750  58.3148850 136.0666170
  78.6955870  58.8235660 136.4156270  79.0299090  57.4978830 135.7654950
  75.9272290  55.9915130 127.4625420  76.0485110  55.9501610 128.4111240
  75.5420800  56.8539280 127.3072150  74.9393790  58.3016270 126.8608720
  74.3710690  57.8534520 126.2344630  75.6482790  58.6609050 126.3273870
  83.3171410  51.1814710 141.3175490  83.6417180  50.4504370 141.8433470
  83.3527920  50.8628350 140.4156480  70.0162970  62.2028290 140.7375450
  69.6317760  61.5621960 141.3358410  70.3275160  62.9064410 141.3070180
  73.9559480  58.0913470 138.5368280  73.6516550  58.9705450 138.7618640
  74.9105940  58.1513260 138.5725720  72.4841270  62.2974460 129.1335130
  71.7103530  61.7572080 128.9733850  73.2135900  61.7781070 128.7952890
  78.6248050  61.3648880 140.8130520  78.5585360  60.4444550 140.5588110
  77.9953190  61.4624320 141.5275160  70.0123210  58.9316210 139.6839640
  69.6538150  59.5970060 140.2712980  69.7177770  58.0999760 140.0552260
  73.2136330  59.3900450 142.5679190  72.9136470  59.5357630 141.6707010
  73.9847570  58.8305740 142.4752580  84.7675990  60.8276790 139.9102900
  84.0424180  61.4205570 139.7132290  85.2951450  60.8200330 139.1116270
  68.5871780  52.4209450 140.3611740  67.8730300  52.6206370 140.9664350
  69.0066820  51.6449020 140.7326540  68.8744370  66.4089710 141.3478270
  68.9835490  65.4684450 141.2073660  68.2224930  66.6744460 140.6992000
  76.8656960  64.6805600 142.7476390  76.5453830  63.9614840 143.2922080
  76.1915320  65.3560670 142.8212450  74.9071130  65.5266050 127.6909540
  74.8981230  66.2595740 127.0754050  73.9869490  65.2797630 127.7836500
  70.5077770  60.7480940 128.4356300  69.9005720  61.4879840 128.4451600
  70.9827120  60.8380300 127.6094500  80.0810560  54.9131760 138.1113190
  80.4491380  54.0926970 138.4392760  79.2208760  54.9733650 138.5268840
  83.4472590  53.8688700 128.9200750  82.8185750  53.9734370 128.2058980
  82.9524510  54.0885480 129.7094630  77.0412550  57.5671350 138.3351160
  77.5397800  58.0417170 139.0003010  77.1835500  56.6434870 138.5421190
  76.5348840  68.1080610 131.0482400  76.7890340  68.0702000 130.1261770
  75.5861320  67.9813940 131.0410650  84.2479410  53.7839310 139.1779550
  83.7453010  54.5244710 139.5173360  85.0636070  54.1723310 138.8616340
  72.5183060  60.7092090 126.1844870  73.2846330  60.5973450 126.7470300
  72.5957750  60.0130060 125.5321640  71.2129820  58.1417160 126.8677760
  71.2933410  57.1944670 126.9795160  72.1049570  58.4724040 126.9738420
  68.8990010  64.3586120 129.8453810  67.9729790  64.6007260 129.8359220
  69.3646440  65.1860380 129.7238560  71.0202810  67.4758620 143.1597880
  71.8215540  67.7970670 143.5733280  70.5054630  67.1154200 143.8817790
  75.1246840  67.4642860 125.7937870  75.9175450  67.7531690 125.3419660
  74.6051190  67.0335030 125.1150350  79.8567440  63.5838490 143.1073290
  79.2505600  63.6070090 142.3669040  79.5521550  62.8521530 143.6440540
  68.7400620  59.9632080 142.1033930  69.2439640  59.3839360 142.6750160
  68.0008040  60.2472310 142.6410300  75.7938560  61.3703070 141.6369450
  75.0284230  61.9388070 141.5524120  75.9754520  61.0779280 140.7437680
  82.9361910  63.1008400 142.1944470  83.6771380  63.4384160 141.6911930
  82.1734590  63.2700460 141.6414240  70.7723700  58.1061670 142.9984000
  70.8129040  57.8075540 143.9069230  71.6269200  58.5069280 142.8391520
  72.7129510  56.6853770 140.9658490  72.1825970  56.1944720 140.3381830
  73.3817580  57.1137970 140.4316420  81.6107570  61.1523230 140.7299680
  82.0248590  61.3068310 141.5790100  80.6758570  61.2778450 140.8925460
  82.0829740  58.4919390 142.7338830  82.6650510  57.7371710 142.6459310
  82.2591510  59.0226830 141.9570310  73.2001810  53.6516140 141.0455780
  73.1058680  53.0336890 140.3206650  72.6199200  54.3782430 140.8185690
  75.9663250  52.2089380 138.0783170  75.5180550  52.2313640 137.2328720
  75.3328450  51.8108400 138.6753470  78.7086700  58.8359890 140.0833450
  78.8282910  58.2401030 140.8228290  79.5680700  58.8729580 139.6634750
  81.0474600  59.3897080 138.6595960  80.5209820  59.9139700 138.0561100
  81.3905940  60.0224470 139.2905690  73.4460990  56.7790450 125.1045670
  73.2450050  55.9157810 125.4659010  73.2753040  56.6923810 124.1667270
  75.4755470  55.3781240 141.3409270  76.0655160  55.0697090 142.0287090
  74.6575710  54.9060990 141.4969170  80.2948900  54.9947050 141.5742290
  79.6064420  54.3328590 141.5092280  81.0154920  54.5485320 142.0190750
  80.9249300  51.5898680 127.6332550  81.2051590  50.7466580 127.9891970
  80.1515030  51.8221790 128.1471300  71.2673920  63.1833490 125.9253350
  71.7048790  63.7263160 126.5810930  71.7521650  62.3580440 125.9349690
  73.0781640  64.3031530 131.0375580  72.7777180  64.1796500 131.9379490
  72.9719130  63.4440120 130.6291310  85.8473560  64.0827930 125.7402260
  85.0166520  64.1504580 126.2109490  86.0245390  64.9732050 125.4369120
  81.7524800  54.1454630 126.6962610  82.1709680  53.9585610 125.8559270
  81.4460860  53.2933680 127.0065540  85.2514530  59.0578770 130.3938410
  84.8758130  58.2906700 129.9619700  84.5217650  59.4401470 130.8813340
  84.6414150  58.2050290 140.0277930  84.4100240  57.9763040 139.1275880
  84.9018700  59.1249840 139.9822820  69.3926290  56.6475000 140.9205880
  68.4982340  56.6141760 141.2599590  69.9323840  56.8461790 141.6857130
  83.0802220  53.4306720 142.8057630  83.9572400  53.4390120 143.1891630
  83.0923060  52.6937560 142.1949980  84.7055210  57.3676130 137.2165200
  83.7557920  57.3339670 137.3310190  84.8868220  58.2776240 136.9814970
  70.5599650  55.6177810 126.3263830  71.2691350  55.1961030 125.8411110
  69.8439590  55.6853040 125.6947180  83.7918340  51.1164690 138.6258740
  84.4290560  51.7298830 138.9917930  83.9393230  51.1525350 137.6807970
  69.6498000  51.0779000 138.0114420  69.3012820  51.5342820 138.7772600
  69.3185700  50.1836130 138.0936850  71.2562370  64.2498600 142.1767610
  71.2132000  63.8791510 143.0582070  71.3873380  65.1876170 142.3169430
  77.1622820  52.2690880 141.5333840  77.1011710  52.8612710 142.2829250
  78.1023200  52.1616840 141.3884100  79.7997380  51.9260940 141.1726130
  80.4137790  52.2440230 140.5107210  80.3446940  51.4409530 141.7921990
  70.3218640  50.6055200 141.2865190  70.8701630  50.4243250 140.5231300
  70.3873950  49.8149310 141.8221500  80.5405420  50.4893080 137.4995420
  79.6665260  50.8228190 137.2968350  80.4316170  50.0166260 138.3247290
  81.4477400  52.6963950 138.8837140  81.1190760  51.8815710 138.5038870
  82.3959700  52.6533760 138.7602830  78.2880240  51.4062920 136.4388330
  77.5052030  51.8808420 136.7185090  77.9943170  50.5017750 136.3301510
  84.7039880  51.7401260 132.4946240  84.6428280  50.7962480 132.3477260
  85.4831910  51.8481350 133.0399700  69.0092630  67.8793620 131.4570190
  68.8414670  67.2464300 132.1552080  68.1427140  68.0853020 131.1064380
  69.6320650  51.7110400 128.9602050  70.3900010  51.8239280 128.3866080
  69.1697820  52.5479600 128.9145480  83.8194040  50.8913680 128.4627710
  84.0144670  51.7897130 128.7295140  83.0323910  50.6600760 128.9560660
  70.6155330  66.5726850 128.9020330  70.0902950  66.9534880 128.1982290
  70.5399910  67.1977620 129.6230040  74.3239200  51.2533570 142.9901900
  74.0423470  51.7567170 142.2262720  74.7058900  50.4555320 142.6244030
  73.2148300  68.5209230 127.7769580  73.9467120  68.2368510 127.2293470
  73.4741970  68.2822510 128.6668960  72.3763090  64.6373960 127.7815910
  71.7471970  65.1059060 128.3301740  72.4910920  63.7923180 128.2162100
  80.9254660  50.6687150 143.5682370  80.8120110  50.9881760 144.4633890
  81.7424400  51.0699660 143.2719650  81.9838280  64.8718830 114.5925510
  81.5219810  64.1006070 114.9212680  82.7963830  64.8984900 115.0977960
  78.2101590  67.1576840 114.2129500  77.5913030  67.6134340 113.6423940
  79.0653370  67.3128300 113.8119200  69.5946510  53.7470350 118.1453160
  69.4149350  52.8496100 118.4255920  69.1926590  54.2942220 118.8200110
  82.2169130  53.4436650 112.9793810  83.0378750  52.9533220 113.0219290
  82.2503210  54.0334310 113.7325650  74.4057750  57.2898210 115.8408090
  74.9135970  57.7879180 116.4813110  74.9370990  56.5133410 115.6647450
  72.6893850  51.9296770 120.1071510  72.6912290  52.4469160 119.3017410
  71.8598160  51.4526950 120.0841440  72.3709180  53.6406730 118.1141960
  72.7125990  54.4848780 117.8195830  71.4324990  53.7890470 118.2307300
  73.1515800  63.5372750 120.0994190  73.7689800  64.2123830 119.8178640
  72.2908920  63.9460730 120.0081690  82.8997550  63.5672510 111.8184180
  82.7893880  62.6246840 111.9433600  82.8965800  63.9288150 112.7046940
  78.4286910  55.4654830 108.1713830  77.4890580  55.6268790 108.2566290
  78.7470170  56.1840510 107.6249820  82.4715120  60.7558130 111.6781920
  81.8527540  60.4177680 111.0308220  82.4539570  60.1117890 112.3861110
  73.6074600  63.1451820 122.7713410  72.7103130  63.3691790 123.0186810
  73.6327470  63.2686760 121.8224810  80.6479820  59.9944940 108.6854670
  81.0873100  59.1567370 108.5392490  81.3608240  60.6274340 108.7718810
  72.4345820  60.0165140 121.3470780  72.2953590  60.8887940 121.7158180
  71.5527180  59.6737950 121.2018720  78.7575200  64.9341010 112.6535910
  79.1971110  65.6765340 112.2391300  78.6962090  65.1767580 113.5774870
  86.1840990  66.7413940 124.8520100  86.6600710  67.2196830 125.5309180
  86.8048150  66.6731430 124.1265600  80.6921440  67.0560400 112.6445410
  81.1478390  66.2749780 112.9584030  81.0313960  67.7667220 113.1886590
  68.4423990  62.8276860 119.8036150  68.6055030  62.3582220 118.9855520
  68.9076440  62.3200420 120.4684990  73.2142760  51.9582620 114.8396720
  72.7710910  52.7392160 114.5081240  73.7727750  52.2812510 115.5467660
  75.2518660  52.5029950 116.6986320  75.5490990  53.4092780 116.6178340
  75.8004220  52.0148730 116.0845890  80.2354740  57.0879560 111.1668620
  79.6363630  57.8115360 110.9832240  80.7834350  57.0256340 110.3845070
  70.5766730  54.3915440 121.3872020  70.1830120  55.2390650 121.5944800
  69.8885130  53.7541810 121.5780660  77.1511780  54.4750410 124.4568760
  76.4610100  54.2822610 125.0914850  77.8944080  54.7585050 124.9893060
  67.8783780  52.3143900 115.4202100  67.5896830  52.8846760 116.1327080
  68.6229540  51.8348350 115.7833330  68.0654010  56.2564020 106.6304820
  67.9828680  57.1994780 106.7719810  67.7137070  56.1138930 105.7517170
  75.8652140  54.9903050 115.6975170  75.8688200  54.5493000 114.8479710
  76.7603260  55.3120380 115.8046990  75.9272290  55.9915130 108.6881930
  76.0485110  55.9501610 109.6367750  75.5420800  56.8539280 108.5328660
  70.0162970  62.2028290 121.9631960  69.6317760  61.5621960 122.5614920
  70.3275160  62.9064410 122.5326690  73.9559480  58.0913470 119.7624790
  73.6516550  58.9705450 119.9875150  74.9105940  58.1513260 119.7982230
  81.4187580  57.0597430 108.5909580  82.3067200  57.3714660 108.4160920
  81.3892670  56.1869680 108.1990160  70.0123210  58.9316210 120.9096150
  69.6538150  59.5970060 121.4969490  69.7177770  58.0999760 121.2808770
  73.2136330  59.3900450 123.7935700  72.9136470  59.5357630 122.8963520
  73.9847570  58.8305740 123.7009090  83.6901850  58.3709270 108.0589440
  83.6065570  58.8023490 107.2085880  84.4096040  58.8307620 108.4916260
  84.7189100  65.2251530 110.7871570  84.0765260  64.5707150 111.0615290
  84.3319760  65.6306620 110.0112240  80.2975580  62.5536960 114.6343260
  80.6499400  61.9565090 113.9744630  79.4137910  62.2281190 114.8051510
  77.9898680  65.8287020 118.8831330  78.6340900  66.0346400 119.5604750
  78.3528120  65.0675420 118.4302180  79.2630760  63.8319370 117.6008780
  79.9052990  63.1312530 117.7140950  79.7880110  64.6117810 117.4205670
  68.5871780  52.4209450 121.5868250  67.8730300  52.6206370 122.1920860
  69.0066820  51.6449020 121.9583050  83.4472590  53.8688700 110.1457260
  82.8185750  53.9734370 109.4315490  82.9524510  54.0885480 110.9351140
  75.4156620  56.1474650 111.5615140  74.7072770  56.6160990 112.0028750
  75.7001100  55.4896660 112.1960330  82.5401420  59.0272490 113.8497420
  81.5991560  59.0422720 114.0245110  82.8545490  58.2408450 114.2957720
  68.7400620  59.9632080 123.3290440  69.2439640  59.3839360 123.9006670
  68.0008040  60.2472310 123.8666810  70.7723700  58.1061670 124.2240510
  70.8129040  57.8075540 125.1325740  71.6269200  58.5069280 124.0648030
  72.7129510  56.6853770 122.1915000  72.1825970  56.1944720 121.5638340
  73.3817580  57.1137970 121.6572930  75.9663250  52.2089380 119.3039680
  75.5180550  52.2313640 118.4585230  75.3328450  51.8108400 119.9009980
  75.4755470  55.3781240 122.5665780  76.0655160  55.0697090 123.2543600
  74.6575710  54.9060990 122.7225680  85.8473560  64.0827930 106.9658770
  85.0166520  64.1504580 107.4366000  86.0245390  64.9732050 106.6625630
  85.3030020  60.8275410 109.4692970  86.0648930  61.3972060 109.5752660
  85.3184390  60.2602610 110.2401280  86.3089990  61.6825510 114.3134900
  86.6798820  60.8992830 113.9070870  86.9491920  62.3714610 114.1352200
  85.3549190  61.1209780 106.6265490  85.6298030  62.0288660 106.4984710
  85.1659930  61.0572310 107.5627480  81.7524800  54.1454630 107.9219120
  82.1709680  53.9585610 107.0815780  81.4460860  53.2933680 108.2322050
  85.2514530  59.0578770 111.6194920  84.8758130  58.2906700 111.1876210
  84.5217650  59.4401470 112.1069850  84.6414150  58.2050290 121.2534440
  84.4100240  57.9763040 120.3532390  84.9018700  59.1249840 121.2079330
  69.3926290  56.6475000 122.1462390  68.4982340  56.6141760 122.4856100
  69.9323840  56.8461790 122.9113640  84.5265490  57.2836260 114.9202160
  85.0502970  56.7898910 114.2892330  85.1124910  57.4186620 115.6649730
  84.7055210  57.3676130 118.4421710  83.7557920  57.3339670 118.5566700
  84.8868220  58.2776240 118.2071480  84.0165460  56.5409610 110.8594570
  84.5124580  56.3080480 111.6443450  83.8181530  55.7021450 110.4432210
  69.8966000  50.9223330 116.4945610  70.5442190  50.3720710 116.0540770
  70.3167840  51.1766480 117.3161420  85.4452620  55.1770560 113.3932250
  85.3351900  55.0226600 114.3314520  86.2060210  54.6491500 113.1507660
  86.3342890  53.0078480 106.6338390  87.2592200  52.8759660 106.4256680
  86.3118680  53.0871300 107.5874840  83.3499800  67.8180690 113.2533490
  83.9458870  67.4965260 112.5767910  83.6077950  67.3452510 114.0446760
  69.6498000  51.0779000 119.2370930  69.3012820  51.5342820 120.0029110
  69.3185700  50.1836130 119.3193360  71.0950400  67.1960850 120.5221900
  70.5010720  67.0645550 121.2611940  71.0874240  66.3598990 120.0564000
  80.5405420  50.4893080 118.7251930  79.6665260  50.8228190 118.5224860
  80.4316170  50.0166260 119.5503800  70.7262630  64.5619230 119.4729940
  69.9996690  63.9424520 119.4055890  70.7871780  64.9559840 118.6028020
  77.0703230  67.6672720 117.0848330  77.3581040  67.4127020 116.2081340
  77.5826450  67.1150080 117.6753900  78.2880240  51.4062920 117.6644840
  77.5052030  51.8808420 117.9441600  77.9943170  50.5017750 117.5558020
  84.7039880  51.7401260 113.7202750  84.6428280  50.7962480 113.5733770
  85.4831910  51.8481350 114.2656210  80.6759440  50.4892120 114.4143940
  81.2788810  51.0612330 114.8892460  79.9352430  51.0531560 114.1917840
  83.8194040  50.8913680 109.6884220  84.0144670  51.7897130 109.9551650
  83.0323910  50.6600760 110.1817170  85.3720650  68.1314390 111.4490780
  85.5472840  67.4452130 110.8051700  84.6742220  68.6561440 111.0567450
  69.5946510  53.7470350  99.3709670  69.4149350  52.8496100  99.6512430
  69.1926590  54.2942220 100.0456620  82.2169130  53.4436650  94.2050320
  83.0378750  52.9533220  94.2475800  82.2503210  54.0334310  94.9582160
  82.4530610  55.3837030  96.9777860  81.7486180  55.6721920  97.5580970
  82.8142770  56.1937140  96.6177420  85.5217530  54.8291820  97.3687070
  84.5742440  54.8630800  97.5002500  85.8467520  55.6430770  97.7536430
  76.0537070  51.1289000  95.6643060  76.3612050  50.5735890  94.9478560
  75.1237770  51.2633460  95.4816050  84.9499670  60.1473350  99.3749370
  84.1218300  60.2166440  98.8999500  85.5450150  60.7327660  98.9065200
  81.9141680  56.9342670 100.3204240  81.5012860  57.7596380 100.5744230
  81.1817630  56.3487710 100.1280600  84.2296960  51.2487750  88.2252220
  83.9169620  51.3414580  89.1251290  84.9909430  51.8268780  88.1749650
  73.2142760  51.9582620  96.0653230  72.7710910  52.7392160  95.7337750
  73.7727750  52.2812510  96.7724170  82.5017080  56.0460090 102.7985210
  81.6510670  55.7465840 103.1194280  82.3418870  56.2902100 101.8869030
  79.5966790  57.5461840 104.8984000  79.9220200  56.7125590 104.5586230
  80.3847120  58.0690360 105.0462330  70.5766730  54.3915440 102.6128530
  70.1830120  55.2390650 102.8201310  69.8885130  53.7541810 102.8037170
  67.8783780  52.3143900  96.6458610  67.5896830  52.8846760  97.3583590
  68.6229540  51.8348350  97.0089840  71.7154520  54.8729540  95.8825890
  71.3754570  55.3504770  96.6392940  70.9531840  54.4194660  95.5226990
  79.8900660  53.7682530  97.9302130  79.9073400  54.2191180  98.7743980
  79.6416240  52.8688170  98.1435570  69.0300600  53.7948520  94.7990560
  68.7447520  53.4304190  95.6369180  68.9679460  53.0628980  94.1853700
  84.7675990  60.8276790 102.3615920  84.0424180  61.4205570 102.1645310
  85.2951450  60.8200330 101.5629290  71.5877850  50.6618330  93.3518060
  71.4592480  50.6536230  94.3002980  70.7639870  51.0001420  93.0009070
  80.0810560  54.9131760 100.5626210  80.4491380  54.0926970 100.8905780
  79.2208760  54.9733650 100.9781860  83.4472590  53.8688700  91.3713770
  82.8185750  53.9734370  90.6572000  82.9524510  54.0885480  92.1607650
  79.4472050  52.8725310  94.2267440  79.3239830  52.8911440  93.2776950
  80.3956610  52.9204250  94.3465840  82.0829740  58.4919390 105.1851850
  82.6650510  57.7371710 105.0972330  82.2591510  59.0226830 104.4083330
  78.7086700  58.8359890 102.5346470  78.8282910  58.2401030 103.2741310
  79.5680700  58.8729580 102.1147770  81.0474600  59.3897080 101.1108980
  80.5209820  59.9139700 100.5074120  81.3905940  60.0224470 101.7418710
  80.2948900  54.9947050 104.0255310  79.6064420  54.3328590 103.9605300
  81.0154920  54.5485320 104.4703770  80.9249300  51.5898680  90.0845570
  81.2051590  50.7466580  90.4404990  80.1515030  51.8221790  90.5984320
  86.3089990  61.6825510  95.5391410  86.6798820  60.8992830  95.1327380
  86.9491920  62.3714610  95.3608710  85.2514530  59.0578770  92.8451430
  84.8758130  58.2906700  92.4132720  84.5217650  59.4401470  93.3326360
  83.0802220  53.4306720 105.2570650  83.9572400  53.4390120 105.6404650
  83.0923060  52.6937560 104.6463000  84.5265490  57.2836260  96.1458670
  85.0502970  56.7898910  95.5148840  85.1124910  57.4186620  96.8906240
  84.0165460  56.5409610  92.0851080  84.5124580  56.3080480  92.8699960
  83.8181530  55.7021450  91.6688720  85.4452620  55.1770560  94.6188760
  85.3351900  55.0226600  95.5571030  86.2060210  54.6491500  94.3764170
  86.4081380  53.7789140  90.4851610  85.6132880  53.7134260  91.0144520
  86.6124660  54.7139780  90.4736960  84.7039880  51.7401260  94.9459260
  84.6428280  50.7962480  94.7990280  85.4831910  51.8481350  95.4912720
  76.1734460  53.8249670  94.4017380  75.3608970  53.4506560  94.0613260
  76.6776100  53.0694750  94.7038570  83.8194040  50.8913680  90.9140730
  84.0144670  51.7897130  91.1808160  83.0323910  50.6600760  91.4073680
  74.1983640  51.9749590  93.0062430  73.5686380  51.2736900  93.1732560
  73.6588780  52.7353720  92.7895590  68.0654010  56.2564020  50.3074350
  67.9828680  57.1994780  50.4489340  67.7137070  56.1138930  49.4286700
  79.8312810  58.6879620  38.8343150  79.7506860  57.7734230  38.5634860
  79.4177230  59.1846690  38.1282860  77.9630850  60.4658640  40.7152420
  77.1872950  59.9859080  41.0050990  78.6143780  59.7864290  40.5408580
  71.9796680  60.7778450  41.5928180  71.1481560  60.5227160  41.9924690
  72.5877660  60.8489220  42.3286100  71.9597940  64.8118540  41.7886200
  72.2625980  63.9216280  41.6096420  72.7041530  65.3688760  41.5608450
  68.3521640  58.3385990  41.2610270  68.9237750  57.5708190  41.2613910
  68.3523180  58.6374750  40.3516880  78.2101590  67.1576840  39.1155540
  77.5913030  67.6134340  38.5449980  79.0653370  67.3128300  38.7145240
  77.4039840  63.1415830  40.7222580  77.3348120  62.2005770  40.5611710
  78.1659700  63.2317240  41.2945150  78.4345010  55.9486210  40.9491510
  78.8109830  55.0758090  40.8365180  78.3364520  56.2844910  40.0581950
  70.2133180  56.2430850  41.6561540  70.8943290  56.5069220  42.2748940
  69.8981230  55.4031720  41.9899550  86.5068680  55.4603400  44.4463480
  85.8020850  55.8485110  43.9278590  86.7726600  56.1553690  45.0484410
  73.9396700  61.5691950  43.1871050  73.6066080  62.1960870  43.8292120
  74.1163380  62.0953830  42.4072720  82.4530610  55.3837030  40.6547390
  81.7486180  55.6721920  41.2350500  82.8142770  56.1937140  40.2946950
  72.3709180  53.6406730  43.0168000  72.7125990  54.4848780  42.7221870
  71.4324990  53.7890470  43.1333340  73.1515800  63.5372750  45.0020230
  73.7689800  64.2123830  44.7204680  72.2908920  63.9460730  44.9107730
  84.0693390  65.0012160  42.9174870  83.3856910  65.6711270  42.9091540
  84.6087680  65.1992810  42.1519730  85.5217530  54.8291820  41.0456600
  84.5742440  54.8630800  41.1772030  85.8467520  55.6430770  41.4305960
  81.0037570  61.7486130  42.9602660  81.4206360  61.5346240  42.1256120
  81.7277390  62.0058920  43.5311280  78.4417830  59.1937830  36.0772710
  77.5147110  59.1275210  36.3061180  78.5942650  60.1317960  35.9627950
  81.9141680  56.9342670  43.9973770  81.5012860  57.7596380  44.2513760
  81.1817630  56.3487710  43.8050130  74.5156170  63.4070130  41.0231650
  74.2184460  62.8015600  40.3439430  75.4655990  63.4447440  40.9121010
  72.7603090  56.4945780  42.6391480  73.3117680  56.6041120  41.8644730
  73.2746600  56.8683380  43.3546710  82.6041780  66.9802000  44.6854750
  82.1272340  67.7874190  44.4927360  81.9203570  66.3280330  44.8380960
  80.6479820  59.9944940  33.5880710  81.0873100  59.1567370  33.4418530
  81.3608240  60.6274340  33.6744850  72.4345820  60.0165140  46.2496820
  72.2953590  60.8887940  46.6184220  71.5527180  59.6737950  46.1044760
  84.2296960  51.2487750  31.9021750  83.9169620  51.3414580  32.8020820
  84.9909430  51.8268780  31.8519180  68.3864470  61.7862690  42.1667730
  68.4644890  61.9211460  41.2223450  69.0006150  61.0778580  42.3595850
  69.6312100  63.4862880  38.5773910  69.2240180  63.6277470  37.7227510
  70.5225110  63.2023040  38.3745120  79.4490980  67.6354790  45.4840960
  79.9635650  67.5462800  46.2863390  78.6060060  67.9814490  45.7768870
  73.9033760  67.7008660  36.6896580  73.7276240  66.7844200  36.4764380
  73.0489500  68.0595950  36.9294380  68.4423990  62.8276860  44.7062190
  68.6055030  62.3582220  43.8881560  68.9076440  62.3200420  45.3711030
  77.5012570  54.8251140  45.3458080  77.0391940  55.0334160  46.1578020
  77.0990680  54.0110490  45.0428750  82.5017080  56.0460090  46.4754740
  81.6510670  55.7465840  46.7963810  82.3418870  56.2902100  45.5638560
  75.2518660  52.5029950  41.6012360  75.5490990  53.4092780  41.5204380
  75.8004220  52.0148730  40.9871930  75.4456190  57.9801770  48.1364280
  75.3499790  57.0396500  47.9864680  76.2888170  58.2016840  47.7412350
  67.8783780  52.3143900  40.3228140  67.5896830  52.8846760  41.0353120
  68.6229540  51.8348350  40.6859370  79.4274750  58.3148850  42.1948720
  78.6955870  58.8235660  42.5438820  79.0299090  57.4978830  41.8937500
  79.8900660  53.7682530  41.6071660  79.9073400  54.2191180  42.4513510
  79.6416240  52.8688170  41.8205100  70.0162970  62.2028290  46.8658000
  69.6317760  61.5621960  47.4640960  70.3275160  62.9064410  47.4352730
  76.1660110  59.0504830  42.3466620  76.5330240  58.5763400  43.0927960
  75.9765170  59.9246400  42.6874960  73.9559480  58.0913470  44.6650830
  73.6516550  58.9705450  44.8901190  74.9105940  58.1513260  44.7008270
  72.4841270  62.2974460  35.2617680  71.7103530  61.7572080  35.1016400
  73.2135900  61.7781070  34.9235440  83.2429250  61.2939820  41.0544070
  83.9628370  61.7895110  40.6640180  83.0411070  60.6157710  40.4097940
  72.5278670  61.9654840  38.8996490  73.0457340  61.1623100  38.8453380
  72.0762690  61.9033980  39.7413320  70.0123210  58.9316210  45.8122190
  69.6538150  59.5970060  46.3995530  69.7177770  58.0999760  46.1834810
  76.3838860  63.3134650  36.9439710  77.0709990  63.8603860  37.3247300
  75.5971280  63.8575380  36.9789320  77.9898680  65.8287020  43.7857370
  78.6340900  66.0346400  44.4630790  78.3528120  65.0675420  43.3328220
  79.2630760  63.8319370  42.5034820  79.9052990  63.1312530  42.6166990
  79.7880110  64.6117810  42.3231710  68.8744370  66.4089710  47.4760820
  68.9835490  65.4684450  47.3356210  68.2224930  66.6744460  46.8274550
  70.5077770  60.7480940  34.5638850  69.9005720  61.4879840  34.5734150
  70.9827120  60.8380300  33.7377050  80.0810560  54.9131760  44.2395740
  80.4491380  54.0926970  44.5675310  79.2208760  54.9733650  44.6551390
  77.0412550  57.5671350  44.4633710  77.5397800  58.0417170  45.1285560
  77.1835500  56.6434870  44.6703740  76.5348840  68.1080610  37.1764950
  76.7890340  68.0702000  36.2544320  75.5861320  67.9813940  37.1693200
  84.2479410  53.7839310  45.3062100  83.7453010  54.5244710  45.6455910
  85.0636070  54.1723310  44.9898890  82.5401420  59.0272490  38.7523460
  81.5991560  59.0422720  38.9271150  82.8545490  58.2408450  39.1983760
  72.5183060  60.7092090  32.3127420  73.2846330  60.5973450  32.8752850
  72.5957750  60.0130060  31.6604190  71.2129820  58.1417160  32.9960310
  71.2933410  57.1944670  33.1077710  72.1049570  58.4724040  33.1020970
  72.0144530  68.2912550  40.0994850  72.7507010  67.7428010  40.3703420
  72.3985450  69.1568560  39.9600840  68.7400620  59.9632080  48.2316480
  69.2439640  59.3839360  48.8032710  68.0008040  60.2472310  48.7692850
  74.5502090  60.7057220  34.2870060  74.9718510  60.5397090  35.1301450
  74.6752930  59.8957450  33.7925200  72.7129510  56.6853770  47.0941040
  72.1825970  56.1944720  46.4664380  73.3817580  57.1137970  46.5598970
  77.0629730  59.7294830  31.5347160  77.5835390  59.0143850  31.1688310
  77.7098130  60.3680700  31.8347670  76.3722800  61.1043710  44.8278160
  76.7910910  61.9476440  44.6554400  75.4531430  61.2415750  44.5984940
  71.2673920  63.1833490  32.0535900  71.7048790  63.7263160  32.7093480
  71.7521650  62.3580440  32.0632240  73.0781640  64.3031530  37.1658130
  72.7777180  64.1796500  38.0662040  72.9719130  63.4440120  36.7573860
  68.9709930  66.8393110  42.2437790  68.5340920  67.0193910  43.0761940
  69.5387610  67.5967730  42.1019510  86.3089990  61.6825510  39.2160940
  86.6798820  60.8992830  38.8096910  86.9491920  62.3714610  39.0378240
  69.8410290  59.7365910  43.1430010  70.2083330  59.6493310  44.0226030
  69.2721110  58.9732460  43.0436870  69.3926290  56.6475000  47.0488430
  68.4982340  56.6141760  47.3882140  69.9323840  56.8461790  47.8139680
  83.0802220  53.4306720  48.9340180  83.9572400  53.4390120  49.3174180
  83.0923060  52.6937560  48.3232530  84.5265490  57.2836260  39.8228200
  85.0502970  56.7898910  39.1918370  85.1124910  57.4186620  40.5675770
  84.7055210  57.3676130  43.3447750  83.7557920  57.3339670  43.4592740
  84.8868220  58.2776240  43.1097520  79.7997380  51.9260940  47.3008680
  80.4137790  52.2440230  46.6389760  80.3446940  51.4409530  47.9204540
  80.5405420  50.4893080  43.6277970  79.6665260  50.8228190  43.4250900
  80.4316170  50.0166260  44.4529840  81.4477400  52.6963950  45.0119690
  81.1190760  51.8815710  44.6321420  82.3959700  52.6533760  44.8885380
  70.7262630  64.5619230  44.3755980  69.9996690  63.9424520  44.3081930
  70.7871780  64.9559840  43.5054060  74.3307730  66.7764230  41.1605390
  74.8472750  66.1651590  40.6353650  74.9805110  67.2793010  41.6516400
  77.0703230  67.6672720  41.9874370  77.3581040  67.4127020  41.1107380
  77.5826450  67.1150080  42.5779940  78.2880240  51.4062920  42.5670880
  77.5052030  51.8808420  42.8467640  77.9943170  50.5017750  42.4584060
  82.8401310  52.1086020  40.6119970  83.2809400  52.0531120  39.7641570
  82.5708900  53.0244030  40.6830150  70.6155330  66.5726850  35.0302880
  70.0902950  66.9534880  34.3264840  70.5399910  67.1977620  35.7512590
  80.9254660  50.6687150  49.6964920  80.8120110  50.9881760  50.5916440
  81.7424400  51.0699660  49.4002200  79.8312810  58.6879620  20.0599660
  79.7506860  57.7734230  19.7891370  79.4177230  59.1846690  19.3539370
  77.9630850  60.4658640  21.9408930  77.1872950  59.9859080  22.2307500
  78.6143780  59.7864290  21.7665090  70.3888630  55.7380340  16.6027080
  69.5005330  56.0796310  16.5006960  70.6729820  55.5380660  15.7107910
  78.2101590  67.1576840  20.3412050  77.5913030  67.6134340  19.7706490
  79.0653370  67.3128300  19.9401750  72.5650020  54.3211840  17.6365460
  72.6716770  55.2215570  17.9434220  71.6542380  54.2729810  17.3460110
  82.2169130  53.4436650  19.1076360  83.0378750  52.9533220  19.1501840
  82.2503210  54.0334310  19.8608200  79.0764940  62.0416080  17.7343960
  78.4582210  62.5065530  17.1706680  79.5888190  62.7343560  18.1513470
  82.4530610  55.3837030  21.8803900  81.7486180  55.6721920  22.4607010
  82.8142770  56.1937140  21.5203460  72.3709180  53.6406730  24.2424510
  72.7125990  54.4848780  23.9478380  71.4324990  53.7890470  24.3589850
  73.1515800  63.5372750  26.2276740  73.7689800  64.2123830  25.9461190
  72.2908920  63.9460730  26.1364240  68.4448140  62.7272610  15.1083590
  68.0676120  63.2159710  14.3768490  68.7021210  63.3997890  15.7390120
  82.8997550  63.5672510  17.9466730  82.7893880  62.6246840  18.0716150
  82.8965800  63.9288150  18.8329490  78.4417830  59.1937830  17.3029220
  77.5147110  59.1275210  17.5317690  78.5942650  60.1317960  17.1884460
  78.4286910  55.4654830  14.2996380  77.4890580  55.6268790  14.3848840
  78.7470170  56.1840510  13.7532370  82.4715120  60.7558130  17.8064470
  81.8527540  60.4177680  17.1590770  82.4539570  60.1117890  18.5143660
  73.6074600  63.1451820  28.8995960  72.7103130  63.3691790  29.1469360
  73.6327470  63.2686760  27.9507360  80.6479820  59.9944940  14.8137220
  81.0873100  59.1567370  14.6675040  81.3608240  60.6274340  14.9001360
  72.4345820  60.0165140  27.4753330  72.2953590  60.8887940  27.8440730
  71.5527180  59.6737950  27.3301270  78.7575200  64.9341010  18.7818460
  79.1971110  65.6765340  18.3673850  78.6962090  65.1767580  19.7057420
  84.2296960  51.2487750  13.1278260  83.9169620  51.3414580  14.0277330
  84.9909430  51.8268780  13.0775690  70.7479100  58.6147550  17.5855600
  70.6276700  59.3409640  16.9736870  70.4379990  57.8450460  17.1083510
  81.4245380  67.9210130  16.1381470  81.2646520  67.6313070  17.0363300
  81.2592090  67.1450260  15.6026700  73.9033760  67.7008660  17.9153090
  73.7276240  66.7844200  17.7020890  73.0489500  68.0595950  18.1550890
  81.1271510  65.4297690  14.6979470  80.4336670  65.4274980  14.0381750
  81.8694370  65.0057010  14.2673640  80.6921440  67.0560400  18.7727960
  81.1478390  66.2749780  19.0866580  81.0313960  67.7667220  19.3169140
  68.4423990  62.8276860  25.9318700  68.6055030  62.3582220  25.1138070
  68.9076440  62.3200420  26.5967540  73.2142760  51.9582620  20.9679270
  72.7710910  52.7392160  20.6363790  73.7727750  52.2812510  21.6750210
  76.3301580  51.5793320  15.8485100  75.7055760  51.5753190  16.5738410
  76.2431700  50.7124280  15.4521070  73.0056980  57.0816190  18.6960520
  72.7797900  56.8653360  19.6007140  72.2249510  57.5144650  18.3506490
  80.2354740  57.0879560  17.2951170  79.6363630  57.8115360  17.1114790
  80.7834350  57.0256340  16.5127620  75.4456190  57.9801770  29.3620790
  75.3499790  57.0396500  29.2121190  76.2888170  58.2016840  28.9668860
  67.8783780  52.3143900  21.5484650  67.5896830  52.8846760  22.2609630
  68.6229540  51.8348350  21.9115880  68.0654010  56.2564020  12.7587370
  67.9828680  57.1994780  12.9002360  67.7137070  56.1138930  11.8799720
  71.7154520  54.8729540  20.7851930  71.3754570  55.3504770  21.5418980
  70.9531840  54.4194660  20.4253030  75.9272290  55.9915130  14.8164480
  76.0485110  55.9501610  15.7650300  75.5420800  56.8539280  14.6611210
  74.9393790  58.3016270  14.2147780  74.3710690  57.8534520  13.5883690
  75.6482790  58.6609050  13.6812930  83.3171410  51.1814710  28.6714550
  83.6417180  50.4504370  29.1972530  83.3527920  50.8628350  27.7695540
  69.0300600  53.7948520  19.7016600  68.7447520  53.4304190  20.5395220
  68.9679460  53.0628980  19.0879740  78.7039190  52.6877780  16.4229970
  77.8903800  52.1890950  16.3475280  78.5101140  53.5276030  16.0066320
  81.4187580  57.0597430  14.7192130  82.3067200  57.3714660  14.5443470
  81.3892670  56.1869680  14.3272710  77.4148170  63.2321120  15.3980300
  77.7563870  63.9763350  14.9023620  76.5860880  63.5452240  15.7605130
  73.2136330  59.3900450  29.9218250  72.9136470  59.5357630  29.0246070
  73.9847570  58.8305740  29.8291640  83.6901850  58.3709270  14.1871990
  83.6065570  58.8023490  13.3368430  84.4096040  58.8307620  14.6198810
  84.7189100  65.2251530  16.9154120  84.0765260  64.5707150  17.1897840
  84.3319760  65.6306620  16.1394790  76.3838860  63.3134650  18.1696220
  77.0709990  63.8603860  18.5503810  75.5971280  63.8575380  18.2045830
  68.5231260  58.9307470  13.6613300  69.3926110  59.2132270  13.9449220
  68.0321580  59.7443340  13.5462110  75.6866070  60.3180680  17.7821580
  76.1428850  61.1285930  18.0081770  75.3354280  60.0003820  18.6140070
  71.5877850  50.6618330  18.2544100  71.4592480  50.6536230  19.2029020
  70.7639870  51.0001420  17.9035110  83.1086480  64.1167990  13.4530470
  82.8824060  63.3998430  14.0455110  82.7182680  63.8680430  12.6152220
  68.8902510  68.1434850  14.2274930  69.2500150  68.7424190  13.5732200
  68.7494850  68.6894740  15.0009960  82.6902730  62.0339930  15.1144630
  82.4024430  62.4952620  15.9022510  83.4854900  61.5737700  15.3828850
  68.8744370  66.4089710  28.7017330  68.9835490  65.4684450  28.5612720
  68.2224930  66.6744460  28.0531060  74.9071130  65.5266050  15.0448600
  74.8981230  66.2595740  14.4293110  73.9869490  65.2797630  15.1375560
  70.5077770  60.7480940  15.7895360  69.9005720  61.4879840  15.7990660
  70.9827120  60.8380300  14.9633560  83.4472590  53.8688700  16.2739810
  82.8185750  53.9734370  15.5598040  82.9524510  54.0885480  17.0633690
  77.8930730  65.5894290  13.7073790  77.9942710  65.3858280  12.7775770
  76.9932470  65.3352570  13.9121570  76.5348840  68.1080610  18.4021460
  76.7890340  68.0702000  17.4800830  75.5861320  67.9813940  18.3949710
  73.6191640  54.4559730  15.0648400  74.4682170  54.8929880  14.9988590
  73.2522910  54.7679990  15.8920460  84.2479410  53.7839310  26.5318610
  83.7453010  54.5244710  26.8712420  85.0636070  54.1723310  26.2155400
  82.5401420  59.0272490  19.9779970  81.5991560  59.0422720  20.1527660
  82.8545490  58.2408450  20.4240270  72.5183060  60.7092090  13.5383930
  73.2846330  60.5973450  14.1009360  72.5957750  60.0130060  12.8860700
  71.2129820  58.1417160  14.2216820  71.2933410  57.1944670  14.3334220
  72.1049570  58.4724040  14.3277480  72.0144530  68.2912550  21.3251360
  72.7507010  67.7428010  21.5959930  72.3985450  69.1568560  21.1857350
  68.8990010  64.3586120  17.1992870  67.9729790  64.6007260  17.1898280
  69.3646440  65.1860380  17.0777620  75.1246840  67.4642860  13.1476930
  75.9175450  67.7531690  12.6958720  74.6051190  67.0335030  12.4689410
  84.1777010  66.6912990  14.5713670  83.8918520  66.2778130  13.7567850
  83.9796560  67.6200700  14.4514190  75.6424240  62.6846270  13.0119280
  75.5374880  62.0698620  13.7380660  75.4748460  62.1612160  12.2282290
  78.8826970  61.7466300  13.6161270  78.3337070  62.1935600  14.2604010
  79.5046230  61.2415550  14.1398940  82.9361910  63.1008400  29.5483530
  83.6771380  63.4384160  29.0450990  82.1734590  63.2700460  28.9953300
  74.5502090  60.7057220  15.5126570  74.9718510  60.5397090  16.3557960
  74.6752930  59.8957450  15.0181710  77.0629730  59.7294830  12.7603670
  77.5835390  59.0143850  12.3944820  77.7098130  60.3680700  13.0604180
  82.0829740  58.4919390  30.0877890  82.6650510  57.7371710  29.9998370
  82.2591510  59.0226830  29.3109370  75.9663250  52.2089380  25.4322230
  75.5180550  52.2313640  24.5867780  75.3328450  51.8108400  26.0292530
  73.4460990  56.7790450  12.4584730  73.2450050  55.9157810  12.8198070
  73.2753040  56.6923810  11.5206330  74.2230220  67.4096720  27.1692400
  73.6851310  68.1342780  26.8501100  74.4764180  66.9327060  26.3789740
  80.9249300  51.5898680  14.9871610  81.2051590  50.7466580  15.3431030
  80.1515030  51.8221790  15.5010360  72.2443790  53.8791070  12.4462610
  72.5469690  53.8858500  11.5381760  72.9838380  53.5288930  12.9430270
  77.0792430  68.6447930  27.4279050  77.0051130  69.5483070  27.7351420
  76.1771270  68.3259830  27.4001120  75.4628720  52.8225690  13.4318810
  75.1150720  52.1449680  12.8521260  75.6641490  52.3615200  14.2462200
  77.6277760  67.8106440  15.0505410  78.5228550  68.1491410  15.0724170
  77.6595390  67.0885850  14.4229690  71.2673920  63.1833490  13.2792410
  71.7048790  63.7263160  13.9349990  71.7521650  62.3580440  13.2888750
  68.9709930  66.8393110  23.4694300  68.5340920  67.0193910  24.3018450
  69.5387610  67.5967730  23.3276020  85.8473560  64.0827930  13.0941320
  85.0166520  64.1504580  13.5648550  86.0245390  64.9732050  12.7908180
  85.3030020  60.8275410  15.5975520  86.0648930  61.3972060  15.7035210
  85.3184390  60.2602610  16.3683830  85.3549190  61.1209780  12.7548040
  85.6298030  62.0288660  12.6267260  85.1659930  61.0572310  13.6910030
  81.7524800  54.1454630  14.0501670  82.1709680  53.9585610  13.2098330
  81.4460860  53.2933680  14.3604600  85.2514530  59.0578770  17.7477470
  84.8758130  58.2906700  17.3158760  84.5217650  59.4401470  18.2352400
  84.6414150  58.2050290  27.3816990  84.4100240  57.9763040  26.4814940
  84.9018700  59.1249840  27.3361880  68.0172440  56.5612270  15.7708510
  67.1136520  56.8242470  15.5960170  68.5013060  56.8323440  14.9908470
  84.5265490  57.2836260  21.0484710  85.0502970  56.7898910  20.4174880
  85.1124910  57.4186620  21.7932280  84.7055210  57.3676130  24.5704260
  83.7557920  57.3339670  24.6849250  84.8868220  58.2776240  24.3354030
  70.5599650  55.6177810  13.6802890  71.2691350  55.1961030  13.1950170
  69.8439590  55.6853040  13.0486240  70.2073810  51.6717140  12.7205540
  70.9301940  52.2126080  13.0386760  70.4798330  51.3980560  11.8447080
  84.0165460  56.5409610  16.9877120  84.5124580  56.3080480  17.7726000
  83.8181530  55.7021450  16.5714760  69.8966000  50.9223330  22.6228160
  70.5442190  50.3720710  22.1823320  70.3167840  51.1766480  23.4443970
  83.7918340  51.1164690  25.9797800  84.4290560  51.7298830  26.3456990
  83.9393230  51.1525350  25.0347030  86.3342890  53.0078480  12.7620940
  87.2592200  52.8759660  12.5539230  86.3118680  53.0871300  13.7157390
  86.4081380  53.7789140  15.3877650  85.6132880  53.7134260  15.9170560
  86.6124660  54.7139780  15.3763000  83.3499800  67.8180690  19.3816040
  83.9458870  67.4965260  18.7050460  83.6077950  67.3452510  20.1729310
  71.2562370  64.2498600  29.5306670  71.2132000  63.8791510  30.4121130
  71.3873380  65.1876170  29.6708490  74.9568400  65.8058190  25.1316390
  74.7159760  66.0732750  24.2446910  75.8971040  65.9763920  25.1867250
  71.0950400  67.1960850  26.6504450  70.5010720  67.0645550  27.3894490
  71.0874240  66.3598990  26.1846550  80.5405420  50.4893080  24.8534480
  79.6665260  50.8228190  24.6507410  80.4316170  50.0166260  25.6786350
  70.7262630  64.5619230  25.6012490  69.9996690  63.9424520  25.5338440
  70.7871780  64.9559840  24.7310570  74.3307730  66.7764230  22.3861900
  74.8472750  66.1651590  21.8610160  74.9805110  67.2793010  22.8772910
  77.0703230  67.6672720  23.2130880  77.3581040  67.4127020  22.3363890
  77.5826450  67.1150080  23.8036450  78.2880240  51.4062920  23.7927390
  77.5052030  51.8808420  24.0724150  77.9943170  50.5017750  23.6840570
  69.0092630  67.8793620  18.8109250  68.8414670  67.2464300  19.5091140
  68.1427140  68.0853020  18.4603440  69.6320650  51.7110400  16.3141110
  70.3900010  51.8239280  15.7405140  69.1697820  52.5479600  16.2684540
  80.6759440  50.4892120  20.5426490  81.2788810  51.0612330  21.0175010
  79.9352430  51.0531560  20.3200390  83.8194040  50.8913680  15.8166770
  84.0144670  51.7897130  16.0834200  83.0323910  50.6600760  16.3099720
  70.6155330  66.5726850  16.2559390  70.0902950  66.9534880  15.5521350
  70.5399910  67.1977620  16.9769100  72.0045800  52.2374450  14.8543080
  72.5338560  51.4504250  14.7251030  72.6374120  52.9165640  15.0878610
  74.1983640  51.9749590  17.9088470  73.5686380  51.2736900  18.0758600
  73.6588780  52.7353720  17.6921630  85.3720650  68.1314390  17.5773330
  85.5472840  67.4452130  16.9334250  84.6742220  68.6561440  17.1850000
  73.2148300  68.5209230  15.1308640  73.9467120  68.2368510  14.5832530
  73.4741970  68.2822510  16.0208020  72.3763090  64.6373960  15.1354970
  71.7471970  65.1059060  15.6840800  72.4910920  63.7923180  15.5701160
  80.9254660  50.6687150  30.9221430  80.8120110  50.9881760  31.8172950
  81.7424400  51.0699660  30.6258710  77.9630850  60.4658640   3.1665440
  77.1872950  59.9859080   3.4564010  78.6143780  59.7864290   2.9921600
  71.9796680  60.7778450   4.0441200  71.1481560  60.5227160   4.4437710
  72.5877660  60.8489220   4.7799120  81.9838280  64.8718830   1.9464570
  81.5219810  64.1006070   2.2751740  82.7963830  64.8984900   2.4517020
  71.9597940  64.8118540   4.2399220  72.2625980  63.9216280   4.0609440
  72.7041530  65.3688760   4.0121470  68.3521640  58.3385990   3.7123290
  68.9237750  57.5708190   3.7126930  68.3523180  58.6374750   2.8029900
  77.4039840  63.1415830   3.1735600  77.3348120  62.2005770   3.0124730
  78.1659700  63.2317240   3.7458170  69.5946510  53.7470350   5.4992220
  69.4149350  52.8496100   5.7794980  69.1926590  54.2942220   6.1739170
  78.4345010  55.9486210   3.4004530  78.8109830  55.0758090   3.2878200
  78.3364520  56.2844910   2.5094970  70.2133180  56.2430850   4.1074560
  70.8943290  56.5069220   4.7261960  69.8981230  55.4031720   4.4412570
  74.4057750  57.2898210   3.1947150  74.9135970  57.7879180   3.8352170
  74.9370990  56.5133410   3.0186510  86.5068680  55.4603400   6.8976500
  85.8020850  55.8485110   6.3791610  86.7726600  56.1553690   7.4997430
  72.6893850  51.9296770   7.4610570  72.6912290  52.4469160   6.6556470
  71.8598160  51.4526950   7.4380500  73.9396700  61.5691950   5.6384070
  73.6066080  62.1960870   6.2805140  74.1163380  62.0953830   4.8585740
  82.4530610  55.3837030   3.1060410  81.7486180  55.6721920   3.6863520
  82.8142770  56.1937140   2.7459970  72.3709180  53.6406730   5.4681020
  72.7125990  54.4848780   5.1734890  71.4324990  53.7890470   5.5846360
  73.1515800  63.5372750   7.4533250  73.7689800  64.2123830   7.1717700
  72.2908920  63.9460730   7.3620750  84.0693390  65.0012160   5.3687890
  83.3856910  65.6711270   5.3604560  84.6087680  65.1992810   4.6032750
  85.5217530  54.8291820   3.4969620  84.5742440  54.8630800   3.6285050
  85.8467520  55.6430770   3.8818980  81.6052130  66.8456290   4.0833070
  81.6179290  66.4418580   3.2155330  81.0527350  67.6203580   3.9794500
  81.0037570  61.7486130   5.4115680  81.4206360  61.5346240   4.5769140
  81.7277390  62.0058920   5.9824300  84.9499670  60.1473350   5.5031920
  84.1218300  60.2166440   5.0282050  85.5450150  60.7327660   5.0347750
  81.9141680  56.9342670   6.4486790  81.5012860  57.7596380   6.7026780
  81.1817630  56.3487710   6.2563150  74.5156170  63.4070130   3.4744670
  74.2184460  62.8015600   2.7952450  75.4655990  63.4447440   3.3634030
  72.7603090  56.4945780   5.0904500  73.3117680  56.6041120   4.3157750
  73.2746600  56.8683380   5.8059730  82.6041780  66.9802000   7.1367770
  82.1272340  67.7874190   6.9440380  81.9203570  66.3280330   7.2893980
  73.6074600  63.1451820  10.1252470  72.7103130  63.3691790  10.3725870
  73.6327470  63.2686760   9.1763870  72.4345820  60.0165140   8.7009840
  72.2953590  60.8887940   9.0697240  71.5527180  59.6737950   8.5557780
  74.2326170  65.9586840  10.9094990  74.2041600  66.3629790  10.0423420
  74.0691140  65.0297200  10.7466590  86.1840990  66.7413940  12.2059160
  86.6600710  67.2196830  12.8848240  86.8048150  66.6731430  11.4804660
  68.3864470  61.7862690   4.6180750  68.4644890  61.9211460   3.6736470
  69.0006150  61.0778580   4.8108870  85.5874240  63.9326790   9.3659170
  85.7137300  63.6938670   8.4476350  85.6295620  63.1011330   9.8381250
  79.4490980  67.6354790   7.9353980  79.9635650  67.5462800   8.7376410
  78.6060060  67.9814490   8.2281890  85.4398250  55.9859250  10.3308910
  84.8242520  56.4938920   9.8024370  85.1194670  55.0857580  10.2734850
  68.4423990  62.8276860   7.1575210  68.6055030  62.3582220   6.3394580
  68.9076440  62.3200420   7.8224050  73.2142760  51.9582620   2.1935780
  72.7710910  52.7392160   1.8620300  73.7727750  52.2812510   2.9006720
  77.5012570  54.8251140   7.7971100  77.0391940  55.0334160   8.6091040
  77.0990680  54.0110490   7.4941770  82.5017080  56.0460090   8.9267760
  81.6510670  55.7465840   9.2476830  82.3418870  56.2902100   8.0151580
  79.5966790  57.5461840  11.0266550  79.9220200  56.7125590  10.6868780
  80.3847120  58.0690360  11.1744880  75.2518660  52.5029950   4.0525380
  75.5490990  53.4092780   3.9717400  75.8004220  52.0148730   3.4384950
  75.4456190  57.9801770  10.5877300  75.3499790  57.0396500  10.4377700
  76.2888170  58.2016840  10.1925370  70.5766730  54.3915440   8.7411080
  70.1830120  55.2390650   8.9483860  69.8885130  53.7541810   8.9319720
  77.1511780  54.4750410  11.8107820  76.4610100  54.2822610  12.4453910
  77.8944080  54.7585050  12.3432120  67.8783780  52.3143900   2.7741160
  67.5896830  52.8846760   3.4866140  68.6229540  51.8348350   3.1372390
  79.4274750  58.3148850   4.6461740  78.6955870  58.8235660   4.9951840
  79.0299090  57.4978830   4.3450520  75.8652140  54.9903050   3.0514230
  75.8688200  54.5493000   2.2018770  76.7603260  55.3120380   3.1586050
  71.7154520  54.8729540   2.0108440  71.3754570  55.3504770   2.7675490
  70.9531840  54.4194660   1.6509540  79.8900660  53.7682530   4.0584680
  79.9073400  54.2191180   4.9026530  79.6416240  52.8688170   4.2718120
  83.3171410  51.1814710   9.8971060  83.6417180  50.4504370  10.4229040
  83.3527920  50.8628350   8.9952050  70.0162970  62.2028290   9.3171020
  69.6317760  61.5621960   9.9153980  70.3275160  62.9064410   9.8865750
  76.1660110  59.0504830   4.7979640  76.5330240  58.5763400   5.5440980
  75.9765170  59.9246400   5.1387980  73.9559480  58.0913470   7.1163850
  73.6516550  58.9705450   7.3414210  74.9105940  58.1513260   7.1521290
  83.2429250  61.2939820   3.5057090  83.9628370  61.7895110   3.1153200
  83.0411070  60.6157710   2.8610960  78.6248050  61.3648880   9.3926090
  78.5585360  60.4444550   9.1383680  77.9953190  61.4624320  10.1070730
  70.0123210  58.9316210   8.2635210  69.6538150  59.5970060   8.8508550
  69.7177770  58.0999760   8.6347830  73.2136330  59.3900450  11.1474760
  72.9136470  59.5357630  10.2502580  73.9847570  58.8305740  11.0548150
  78.5564780  64.1869450   9.1429890  78.5709320  63.2550410   8.9248800
  77.8489880  64.2729210   9.7819660  84.7675990  60.8276790   8.4898470
  84.0424180  61.4205570   8.2927860  85.2951450  60.8200330   7.6911840
  77.9898680  65.8287020   6.2370390  78.6340900  66.0346400   6.9143810
  78.3528120  65.0675420   5.7841240  79.2630760  63.8319370   4.9547840
  79.9052990  63.1312530   5.0680010  79.7880110  64.6117810   4.7744730
  81.0368380  64.6314270   8.1583900  81.3724620  65.2180960   8.8361820
  80.1168720  64.5006980   8.3881690  68.5871780  52.4209450   8.9407310
  67.8730300  52.6206370   9.5459920  69.0066820  51.6449020   9.3122110
  68.8744370  66.4089710   9.9273840  68.9835490  65.4684450   9.7869230
  68.2224930  66.6744460   9.2787570  76.8656960  64.6805600  11.3271960
  76.5453830  63.9614840  11.8717650  76.1915320  65.3560670  11.4008020
  80.0810560  54.9131760   6.6908760  80.4491380  54.0926970   7.0188330
  79.2208760  54.9733650   7.1064410  77.0412550  57.5671350   6.9146730
  77.5397800  58.0417170   7.5798580  77.1835500  56.6434870   7.1216760
  84.2479410  53.7839310   7.7575120  83.7453010  54.5244710   8.0968930
  85.0636070  54.1723310   7.4411910  84.5427000  66.1981340   2.8790740
  84.6674420  67.0212510   3.3514550  85.4092560  65.9872070   2.5314890
  72.0144530  68.2912550   2.5507870  72.7507010  67.7428010   2.8216440
  72.3985450  69.1568560   2.4113860  71.0202810  67.4758620  11.7393450
  71.8215540  67.7970670  12.1528850  70.5054630  67.1154200  12.4613360
  79.8567440  63.5838490  11.6868860  79.2505600  63.6070090  10.9464610
  79.5521550  62.8521530  12.2236110  81.2867810  67.3118780  10.2978270
  82.2389560  67.2276800  10.2478510  81.1396030  67.9760490  10.9712060
  68.7400620  59.9632080  10.6829500  69.2439640  59.3839360  11.2545730
  68.0008040  60.2472310  11.2205870  75.7938560  61.3703070  10.2165020
  75.0284230  61.9388070  10.1319690  75.9754520  61.0779280   9.3233250
  82.9361910  63.1008400  10.7740040  83.6771380  63.4384160  10.2707500
  82.1734590  63.2700460  10.2209810  70.7723700  58.1061670  11.5779570
  70.8129040  57.8075540  12.4864800  71.6269200  58.5069280  11.4187090
  72.7129510  56.6853770   9.5454060  72.1825970  56.1944720   8.9177400
  73.3817580  57.1137970   9.0111990  81.6107570  61.1523230   9.3095250
  82.0248590  61.3068310  10.1585670  80.6758570  61.2778450   9.4721030
  82.0829740  58.4919390  11.3134400  82.6650510  57.7371710  11.2254880
  82.2591510  59.0226830  10.5365880  73.2001810  53.6516140   9.6251350
  73.1058680  53.0336890   8.9002220  72.6199200  54.3782430   9.3981260
  75.9663250  52.2089380   6.6578740  75.5180550  52.2313640   5.8124290
  75.3328450  51.8108400   7.2549040  76.3722800  61.1043710   7.2791180
  76.7910910  61.9476440   7.1067420  75.4531430  61.2415750   7.0497960
  78.7086700  58.8359890   8.6629020  78.8282910  58.2401030   9.4023860
  79.5680700  58.8729580   8.2430320  81.0474600  59.3897080   7.2391530
  80.5209820  59.9139700   6.6356670  81.3905940  60.0224470   7.8701260
  74.2230220  67.4096720   8.3948910  73.6851310  68.1342780   8.0757610
  74.4764180  66.9327060   7.6046250  75.4755470  55.3781240   9.9204840
  76.0655160  55.0697090  10.6082660  74.6575710  54.9060990  10.0764740
  80.2948900  54.9947050  10.1537860  79.6064420  54.3328590  10.0887850
  81.0154920  54.5485320  10.5986320  77.0792430  68.6447930   8.6535560
  77.0051130  69.5483070   8.9607930  76.1771270  68.3259830   8.6257630
  68.4819720  65.9722520   1.9569180  68.8122730  65.1043580   1.7247820
  68.9110720  66.1781040   2.7874140  68.9709930  66.8393110   4.6950810
  68.5340920  67.0193910   5.5274960  69.5387610  67.5967730   4.5532530
  84.6072110  66.3410110   8.9828120  84.0074100  66.4002670   8.2392040
  84.7366010  65.4015090   9.1124970  83.2923750  63.0662090   7.0804280
  82.4783590  63.4959250   7.3430070  83.6997950  63.6780500   6.4673330
  69.8410290  59.7365910   5.5943030  70.2083330  59.6493310   6.4739050
  69.2721110  58.9732460   5.4949890  84.6414150  58.2050290   8.6073500
  84.4100240  57.9763040   7.7071450  84.9018700  59.1249840   8.5618390
  69.3926290  56.6475000   9.5001450  68.4982340  56.6141760   9.8395160
  69.9323840  56.8461790  10.2652700  83.0802220  53.4306720  11.3853200
  83.9572400  53.4390120  11.7687200  83.0923060  52.6937560  10.7745550
  84.5265490  57.2836260   2.2741220  85.0502970  56.7898910   1.6431390
  85.1124910  57.4186620   3.0188790  84.7055210  57.3676130   5.7960770
  83.7557920  57.3339670   5.9105760  84.8868220  58.2776240   5.5610540
  69.8966000  50.9223330   3.8484670  70.5442190  50.3720710   3.4079830
  70.3167840  51.1766480   4.6700480  83.7918340  51.1164690   7.2054310
  84.4290560  51.7298830   7.5713500  83.9393230  51.1525350   6.2603540
  69.6498000  51.0779000   6.5909990  69.3012820  51.5342820   7.3568170
  69.3185700  50.1836130   6.6732420  71.2562370  64.2498600  10.7563180
  71.2132000  63.8791510  11.6377640  71.3873380  65.1876170  10.8965000
  74.9568400  65.8058190   6.3572900  74.7159760  66.0732750   5.4703420
  75.8971040  65.9763920   6.4123760  77.1622820  52.2690880  10.1129410
  77.1011710  52.8612710  10.8624820  78.1023200  52.1616840   9.9679670
  79.7997380  51.9260940   9.7521700  80.4137790  52.2440230   9.0902780
  80.3446940  51.4409530  10.3717560  86.2172560  67.8252570   7.1583540
  85.7230840  68.2221440   6.4410670  85.6085850  67.2001780   7.5520820
  70.3218640  50.6055200   9.8660760  70.8701630  50.4243250   9.1026870
  70.3873950  49.8149310  10.4017070  71.0950400  67.1960850   7.8760960
  70.5010720  67.0645550   8.6151000  71.0874240  66.3598990   7.4103060
  80.5405420  50.4893080   6.0790990  79.6665260  50.8228190   5.8763920
  80.4316170  50.0166260   6.9042860  81.4477400  52.6963950   7.4632710
  81.1190760  51.8815710   7.0834440  82.3959700  52.6533760   7.3398400
  83.9012010  68.4675990   4.4370280  83.4414980  69.2191800   4.0628300
  83.2724470  67.7482460   4.3785080  70.7262630  64.5619230   6.8269000
  69.9996690  63.9424520   6.7594950  70.7871780  64.9559840   5.9567080
  74.3307730  66.7764230   3.6118410  74.8472750  66.1651590   3.0866670
  74.9805110  67.2793010   4.1029420  77.0703230  67.6672720   4.4387390
  77.3581040  67.4127020   3.5620400  77.5826450  67.1150080   5.0292960
  78.2880240  51.4062920   5.0183900  77.5052030  51.8808420   5.2980660
  77.9943170  50.5017750   4.9097080  82.8401310  52.1086020   3.0632990
  83.2809400  52.0531120   2.2154590  82.5708900  53.0244030   3.1343170
  80.6759440  50.4892120   1.7683000  81.2788810  51.0612330   2.2431520
  79.9352430  51.0531560   1.5456900  77.1375590  68.5888820  11.8055590
  78.0642900  68.3533090  11.8491550  77.1226020  69.4160820  11.3241620
  74.3239200  51.2533570  11.5697470  74.0423470  51.7567170  10.8058290
  74.7058900  50.4555320  11.2039600  80.9254660  50.6687150  12.1477940
  80.8120110  50.9881760  13.0429460  81.7424400  51.0699660  11.8515220
  83.7053150  67.8158680  11.6296630  84.4978470  67.3207910  11.4222590
  83.9986300  68.4948820  12.2372240  79.8312810  39.9136130 151.4804090
  79.7506860  38.9990740 151.2095800  79.4177230  40.4103200 150.7743800
  77.9630850  41.6915150 153.3613360  77.1872950  41.2115590 153.6511930
  78.6143780  41.0120800 153.1869520  81.9838280  46.0975340 152.1412490
  81.5219810  45.3262580 152.4699660  82.7963830  46.1241410 152.6464940
  71.9597940  46.0375050 154.4347140  72.2625980  45.1472790 154.2557360
  72.7041530  46.5945270 154.2069390  70.3888630  36.9636850 148.0231510
  69.5005330  37.3052820 147.9211390  70.6729820  36.7637170 147.1312340
  68.3521640  39.5642500 153.9071210  68.9237750  38.7964700 153.9074850
  68.3523180  39.8631260 152.9977820  78.2101590  48.3833350 151.7616480
  77.5913030  48.8390850 151.1910920  79.0653370  48.5384810 151.3606180
  77.4039840  44.3672340 153.3683520  77.3348120  43.4262280 153.2072650
  78.1659700  44.4573750 153.9406090  78.4345010  37.1742720 153.5952450
  78.8109830  36.3014600 153.4826120  78.3364520  37.5101420 152.7042890
  72.5650020  35.5468350 149.0569890  72.6716770  36.4472080 149.3638650
  71.6542380  35.4986320 148.7664540  82.2169130  34.6693160 150.5280790
  83.0378750  34.1789730 150.5706270  82.2503210  35.2590820 151.2812630
  74.4057750  38.5154720 153.3895070  74.9135970  39.0135690 154.0300090
  74.9370990  37.7389920 153.2134430  79.0764940  43.2672590 149.1548390
  78.4582210  43.7322040 148.5911110  79.5888190  43.9600070 149.5717900
  82.4530610  36.6093540 153.3008330  81.7486180  36.8978430 153.8811440
  82.8142770  37.4193650 152.9407890  68.4448140  43.9529120 146.5288020
  68.0676120  44.4416220 145.7972920  68.7021210  44.6254400 147.1594550
  85.5217530  36.0548330 153.6917540  84.5742440  36.0887310 153.8232970
  85.8467520  36.8687280 154.0766900  76.0537070  32.3545510 151.9873530
  76.3612050  31.7992400 151.2709030  75.1237770  32.4889970 151.8046520
  81.6052130  48.0712800 154.2780990  81.6179290  47.6675090 153.4103250
  81.0527350  48.8460090 154.1742420  82.8997550  44.7929020 149.3671160
  82.7893880  43.8503350 149.4920580  82.8965800  45.1544660 150.2533920
  78.4417830  40.4194340 148.7233650  77.5147110  40.3531720 148.9522120
  78.5942650  41.3574470 148.6088890  78.4286910  36.6911340 145.7200810
  77.4890580  36.8525300 145.8053270  78.7470170  37.4097020 145.1736800
  82.4715120  41.9814640 149.2268900  81.8527540  41.6434190 148.5795200
  82.4539570  41.3374400 149.9348090  74.0474470  40.9459080 151.5053380
  73.6431470  40.2336330 151.0099280  74.1337590  40.6012320 152.3941420
  74.5156170  44.6326640 153.6692590  74.2184460  44.0272110 152.9900370
  75.4655990  44.6703950 153.5581950  80.6479820  41.2201450 146.2341650
  81.0873100  40.3823880 146.0879470  81.3608240  41.8530850 146.3205790
  78.7575200  46.1597520 150.2022890  79.1971110  46.9021850 149.7878280
  78.6962090  46.4024090 151.1261850  84.2296960  32.4744260 144.5482690
  83.9169620  32.5671090 145.4481760  84.9909430  33.0525290 144.4980120
  70.7479100  39.8404060 149.0060030  70.6276700  40.5666150 148.3941300
  70.4379990  39.0706970 148.5287940  69.6312100  44.7119390 151.2234850
  69.2240180  44.8533980 150.3688450  70.5225110  44.4279550 151.0206060
  81.4245380  49.1466640 147.5585900  81.2646520  48.8569580 148.4567730
  81.2592090  48.3706770 147.0231130  73.9033760  48.9265170 149.3357520
  73.7276240  48.0100710 149.1225320  73.0489500  49.2852460 149.5755320
  81.1271510  46.6554200 146.1183900  80.4336670  46.6531490 145.4586180
  81.8694370  46.2313520 145.6878070  80.6921440  48.2816910 150.1932390
  81.1478390  47.5006290 150.5071010  81.0313960  48.9923730 150.7373570
  73.2142760  33.1839130 152.3883700  72.7710910  33.9648670 152.0568220
  73.7727750  33.5069020 153.0954640  76.3301580  32.8049830 147.2689530
  75.7055760  32.8009700 147.9942840  76.2431700  31.9380790 146.8725500
  75.2518660  33.7286460 154.2473300  75.5490990  34.6349290 154.1665320
  75.8004220  33.2405240 153.6332870  73.0056980  38.3072700 150.1164950
  72.7797900  38.0909870 151.0211570  72.2249510  38.7401160 149.7710920
  80.2354740  38.3136070 148.7155600  79.6363630  39.0371870 148.5319220
  80.7834350  38.2512850 147.9332050  78.8419610  36.9499610 150.7458880
  79.2349180  37.2671810 149.9327570  79.2036460  36.0711490 150.8603400
  67.8783780  33.5400410 152.9689080  67.5896830  34.1103270 153.6814060
  68.6229540  33.0604860 153.3320310  68.0654010  37.4820530 144.1791800
  67.9828680  38.4251290 144.3206790  67.7137070  37.3395440 143.3004150
  75.8652140  36.2159560 153.2462150  75.8688200  35.7749510 152.3966690
  76.7603260  36.5376890 153.3533970  71.7154520  36.0986050 152.2056360
  71.3754570  36.5761280 152.9623410  70.9531840  35.6451170 151.8457460
  75.9272290  37.2171640 146.2368910  76.0485110  37.1758120 147.1854730
  75.5420800  38.0795790 146.0815640  74.9393790  39.5272780 145.6352210
  74.3710690  39.0791030 145.0088120  75.6482790  39.8865560 145.1017360
  69.0300600  35.0205030 151.1221030  68.7447520  34.6560700 151.9599650
  68.9679460  34.2885490 150.5084170  72.4841270  43.5230970 147.9078620
  71.7103530  42.9828590 147.7477340  73.2135900  43.0037580 147.5696380
  83.2429250  42.5196330 153.7005010  83.9628370  43.0151620 153.3101120
  83.0411070  41.8414220 153.0558880  78.7039190  33.9134290 147.8434400
  77.8903800  33.4147460 147.7679710  78.5101140  34.7532540 147.4270750
  81.4187580  38.2853940 146.1396560  82.3067200  38.5971170 145.9647900
  81.3892670  37.4126190 145.7477140  72.5278670  43.1911350 151.5457430
  73.0457340  42.3879610 151.4914320  72.0762690  43.1290490 152.3874260
  77.4148170  44.4577630 146.8184730  77.7563870  45.2019860 146.3228050
  76.5860880  44.7708750 147.1809560  83.6901850  39.5965780 145.6076420
  83.6065570  40.0280000 144.7572860  84.4096040  40.0564130 146.0403240
  84.7189100  46.4508040 148.3358550  84.0765260  45.7963660 148.6102270
  84.3319760  46.8563130 147.5599220  80.2975580  43.7793470 152.1830240
  80.6499400  43.1821600 151.5231610  79.4137910  43.4537700 152.3538490
  76.3838860  44.5391160 149.5900650  77.0709990  45.0860370 149.9708240
  75.5971280  45.0831890 149.6250260  68.5231260  40.1563980 145.0817730
  69.3926110  40.4388780 145.3653650  68.0321580  40.9699850 144.9666540
  75.6866070  41.5437190 149.2026010  76.1428850  42.3542440 149.4286200
  75.3354280  41.2260330 150.0344500  71.5877850  31.8874840 149.6748530
  71.4592480  31.8792740 150.6233450  70.7639870  32.2257930 149.3239540
  83.1086480  45.3424500 144.8734900  82.8824060  44.6254940 145.4659540
  82.7182680  45.0936940 144.0356650  68.8902510  49.3691360 145.6479360
  69.2500150  49.9680700 144.9936630  68.7494850  49.9151250 146.4214390
  82.6902730  43.2596440 146.5349060  82.4024430  43.7209130 147.3226940
  83.4854900  42.7994210 146.8033280  74.9071130  46.7522560 146.4653030
  74.8981230  47.4852250 145.8497540  73.9869490  46.5054140 146.5579990
  70.5077770  41.9737450 147.2099790  69.9005720  42.7136350 147.2195090
  70.9827120  42.0636810 146.3837990  83.4472590  35.0945210 147.6944240
  82.8185750  35.1990880 146.9802470  82.9524510  35.3141990 148.4838120
  77.8930730  46.8150800 145.1278220  77.9942710  46.6114790 144.1980200
  76.9932470  46.5609080 145.3326000  75.4156620  37.3731160 149.1102120
  74.7072770  37.8417500 149.5515730  75.7001100  36.7153170 149.7447310
  79.4472050  34.0981820 150.5497910  79.3239830  34.1167950 149.6007420
  80.3956610  34.1460760 150.6696310  76.5348840  49.3337120 149.8225890
  76.7890340  49.2958510 148.9005260  75.5861320  49.2070450 149.8154140
  73.6191640  35.6816240 146.4852830  74.4682170  36.1186390 146.4193020
  73.2522910  35.9936500 147.3124890  82.5401420  40.2529000 151.3984400
  81.5991560  40.2679230 151.5732090  82.8545490  39.4664960 151.8444700
  72.5183060  41.9348600 144.9588360  73.2846330  41.8229960 145.5213790
  72.5957750  41.2386570 144.3065130  71.2129820  39.3673670 145.6421250
  71.2933410  38.4201180 145.7538650  72.1049570  39.6980550 145.7481910
  84.5427000  47.4237850 153.0738660  84.6674420  48.2469020 153.5462470
  85.4092560  47.2128580 152.7262810  72.0144530  49.5169060 152.7455790
  72.7507010  48.9684520 153.0164360  72.3985450  50.3825070 152.6061780
  68.8990010  45.5842630 148.6197300  67.9729790  45.8263770 148.6102710
  69.3646440  46.4116890 148.4982050  75.1246840  48.6899370 144.5681360
  75.9175450  48.9788200 144.1163150  74.6051190  48.2591540 143.8893840
  84.1777010  47.9169500 145.9918100  83.8918520  47.5034640 145.1772280
  83.9796560  48.8457210 145.8718620  75.6424240  43.9102780 144.4323710
  75.5374880  43.2955130 145.1585090  75.4748460  43.3868670 143.6486720
  78.8826970  42.9722810 145.0365700  78.3337070  43.4192110 145.6808440
  79.5046230  42.4672060 145.5603370  74.5502090  41.9313730 146.9331000
  74.9718510  41.7653600 147.7762390  74.6752930  41.1213960 146.4386140
  77.0629730  40.9551340 144.1808100  77.5835390  40.2400360 143.8149250
  77.7098130  41.5937210 144.4808610  73.4460990  38.0046960 143.8789160
  73.2450050  37.1414320 144.2402500  73.2753040  37.9180320 142.9410760
  80.9249300  32.8155190 146.4076040  81.2051590  31.9723090 146.7635460
  80.1515030  33.0478300 146.9214790  72.2443790  35.1047580 143.8667040
  72.5469690  35.1115010 142.9586190  72.9838380  34.7545440 144.3634700
  75.4628720  34.0482200 144.8523240  75.1150720  33.3706190 144.2725690
  75.6641490  33.5871710 145.6666630  77.6277760  49.0362950 146.4709840
  78.5228550  49.3747920 146.4928600  77.6595390  48.3142360 145.8434120
  71.2673920  44.4090000 144.6996840  71.7048790  44.9519670 145.3554420
  71.7521650  43.5836950 144.7093180  68.4819720  47.1979030 152.1517100
  68.8122730  46.3300090 151.9195740  68.9110720  47.4037550 152.9822060
  73.0781640  45.5288040 149.8119070  72.7777180  45.4053010 150.7122980
  72.9719130  44.6696630 149.4034800  85.8473560  45.3084440 144.5145750
  85.0166520  45.3761090 144.9852980  86.0245390  46.1988560 144.2112610
  85.3030020  42.0531920 147.0179950  86.0648930  42.6228570 147.1239640
  85.3184390  41.4859120 147.7888260  68.8034360  40.5769850 151.2487610
  68.1483200  40.3081490 150.6047310  69.6412310  40.4674330 150.7989590
  86.3089990  42.9082020 151.8621880  86.6798820  42.1249340 151.4557850
  86.9491920  43.5971120 151.6839180  85.3549190  42.3466290 144.1752470
  85.6298030  43.2545170 144.0471690  85.1659930  42.2828820 145.1114460
  81.7524800  35.3711140 145.4706100  82.1709680  35.1842120 144.6302760
  81.4460860  34.5190190 145.7809030  85.2514530  40.2835280 149.1681900
  84.8758130  39.5163210 148.7363190  84.5217650  40.6657980 149.6556830
  68.0172440  37.7868780 147.1912940  67.1136520  38.0498980 147.0164600
  68.5013060  38.0579950 146.4112900  84.5265490  38.5092770 152.4689140
  85.0502970  38.0155420 151.8379310  85.1124910  38.6443130 153.2136710
  70.5599650  36.8434320 145.1007320  71.2691350  36.4217540 144.6154600
  69.8439590  36.9109550 144.4690670  70.2073810  32.8973650 144.1409970
  70.9301940  33.4382590 144.4591190  70.4798330  32.6237070 143.2651510
  84.0165460  37.7666120 148.4081550  84.5124580  37.5336990 149.1930430
  83.8181530  36.9277960 147.9919190  85.4452620  36.4027070 150.9419230
  85.3351900  36.2483110 151.8801500  86.2060210  35.8748010 150.6994640
  86.3342890  34.2334990 144.1825370  87.2592200  34.1016170 143.9743660
  86.3118680  34.3127810 145.1361820  86.4081380  35.0045650 146.8082080
  85.6132880  34.9390770 147.3374990  86.6124660  35.9396290 146.7967430
  83.3499800  49.0437200 150.8020470  83.9458870  48.7221770 150.1254890
  83.6077950  48.5709020 151.5933740  74.3307730  48.0020740 153.8066330
  74.8472750  47.3908100 153.2814590  74.9805110  48.5049520 154.2977340
  82.8401310  33.3342530 153.2580910  83.2809400  33.2787630 152.4102510
  82.5708900  34.2500540 153.3291090  84.7039880  32.9657770 151.2689730
  84.6428280  32.0218990 151.1220750  85.4831910  33.0737860 151.8143190
  69.0092630  49.1050130 150.2313680  68.8414670  48.4720810 150.9295570
  68.1427140  49.3109530 149.8807870  69.6320650  32.9366910 147.7345540
  70.3900010  33.0495790 147.1609570  69.1697820  33.7736110 147.6888970
  76.1734460  35.0506180 150.7247850  75.3608970  34.6763070 150.3843730
  76.6776100  34.2951260 151.0269040  80.6759440  31.7148630 151.9630920
  81.2788810  32.2868840 152.4379440  79.9352430  32.2788070 151.7404820
  83.8194040  32.1170190 147.2371200  84.0144670  33.0153640 147.5038630
  83.0323910  31.8857270 147.7304150  70.6155330  47.7983360 147.6763820
  70.0902950  48.1791390 146.9725780  70.5399910  48.4234130 148.3973530
  72.0045800  33.4630960 146.2747510  72.5338560  32.6760760 146.1455460
  72.6374120  34.1422150 146.5083040  74.1983640  33.2006100 149.3292900
  73.5686380  32.4993410 149.4963030  73.6588780  33.9610230 149.1126060
  85.3720650  49.3570900 148.9977760  85.5472840  48.6708640 148.3538680
  84.6742220  49.8817950 148.6054430  73.2148300  49.7465740 146.5513070
  73.9467120  49.4625020 146.0036960  73.4741970  49.5079020 147.4412450
  72.3763090  45.8630470 146.5559400  71.7471970  46.3315570 147.1045230
  72.4910920  45.0179690 146.9905590  79.8312810  39.9136130 132.7060600
  79.7506860  38.9990740 132.4352310  79.4177230  40.4103200 132.0000310
  77.9630850  41.6915150 134.5869870  77.1872950  41.2115590 134.8768440
  78.6143780  41.0120800 134.4126030  71.9796680  42.0034960 135.4645630
  71.1481560  41.7483670 135.8642140  72.5877660  42.0745730 136.2003550
  81.9838280  46.0975340 133.3669000  81.5219810  45.3262580 133.6956170
  82.7963830  46.1241410 133.8721450  71.9597940  46.0375050 135.6603650
  72.2625980  45.1472790 135.4813870  72.7041530  46.5945270 135.4325900
  70.3888630  36.9636850 129.2488020  69.5005330  37.3052820 129.1467900
  70.6729820  36.7637170 128.3568850  68.3521640  39.5642500 135.1327720
  68.9237750  38.7964700 135.1331360  68.3523180  39.8631260 134.2234330
  77.4039840  44.3672340 134.5940030  77.3348120  43.4262280 134.4329160
  78.1659700  44.4573750 135.1662600  69.5946510  34.9726860 136.9196650
  69.4149350  34.0752610 137.1999410  69.1926590  35.5198730 137.5943600
  78.4345010  37.1742720 134.8208960  78.8109830  36.3014600 134.7082630
  78.3364520  37.5101420 133.9299400  72.5650020  35.5468350 130.2826400
  72.6716770  36.4472080 130.5895160  71.6542380  35.4986320 129.9921050
  82.2169130  34.6693160 131.7537300  83.0378750  34.1789730 131.7962780
  82.2503210  35.2590820 132.5069140  70.2133180  37.4687360 135.5278990
  70.8943290  37.7325730 136.1466390  69.8981230  36.6288230 135.8617000
  74.4057750  38.5154720 134.6151580  74.9135970  39.0135690 135.2556600
  74.9370990  37.7389920 134.4390940  86.5068680  36.6859910 138.3180930
  85.8020850  37.0741620 137.7996040  86.7726600  37.3810200 138.9201860
  72.6893850  33.1553280 138.8815000  72.6912290  33.6725670 138.0760900
  71.8598160  32.6783460 138.8584930  73.9396700  42.7948460 137.0588500
  73.6066080  43.4217380 137.7009570  74.1163380  43.3210340 136.2790170
  82.4530610  36.6093540 134.5264840  81.7486180  36.8978430 135.1067950
  82.8142770  37.4193650 134.1664400  72.3709180  34.8663240 136.8885450
  72.7125990  35.7105290 136.5939320  71.4324990  35.0146980 137.0050790
  73.1515800  44.7629260 138.8737680  73.7689800  45.4380340 138.5922130
  72.2908920  45.1717240 138.7825180  84.0693390  46.2268670 136.7892320
  83.3856910  46.8967780 136.7808990  84.6087680  46.4249320 136.0237180
  85.5217530  36.0548330 134.9174050  84.5742440  36.0887310 135.0489480
  85.8467520  36.8687280 135.3023410  76.0537070  32.3545510 133.2130040
  76.3612050  31.7992400 132.4965540  75.1237770  32.4889970 133.0303030
  81.6052130  48.0712800 135.5037500  81.6179290  47.6675090 134.6359760
  81.0527350  48.8460090 135.3998930  81.0037570  42.9742640 136.8320110
  81.4206360  42.7602750 135.9973570  81.7277390  43.2315430 137.4028730
  84.9499670  41.3729860 136.9236350  84.1218300  41.4422950 136.4486480
  85.5450150  41.9584170 136.4552180  81.9141680  38.1599180 137.8691220
  81.5012860  38.9852890 138.1231210  81.1817630  37.5744220 137.6767580
  74.0474470  40.9459080 132.7309890  73.6431470  40.2336330 132.2355790
  74.1337590  40.6012320 133.6197930  74.5156170  44.6326640 134.8949100
  74.2184460  44.0272110 134.2156880  75.4655990  44.6703950 134.7838460
  72.7603090  37.7202290 136.5108930  73.3117680  37.8297630 135.7362180
  73.2746600  38.0939890 137.2264160  82.6041780  48.2058510 138.5572200
  82.1272340  49.0130700 138.3644810  81.9203570  47.5536840 138.7098410
  73.6074600  44.3708330 141.5456900  72.7103130  44.5948300 141.7930300
  73.6327470  44.4943270 140.5968300  72.4345820  41.2421650 140.1214270
  72.2953590  42.1144450 140.4901670  71.5527180  40.8994460 139.9762210
  78.7575200  46.1597520 131.4279400  79.1971110  46.9021850 131.0134790
  78.6962090  46.4024090 132.3518360  74.2326170  47.1843350 142.3299420
  74.2041600  47.5886300 141.4627850  74.0691140  46.2553710 142.1671020
  70.7479100  39.8404060 130.2316540  70.6276700  40.5666150 129.6197810
  70.4379990  39.0706970 129.7544450  86.1840990  47.9670450 143.6263590
  86.6600710  48.4453340 144.3052670  86.8048150  47.8987940 142.9009090
  68.3864470  43.0119200 136.0385180  68.4644890  43.1467970 135.0940900
  69.0006150  42.3035090 136.2313300  69.6312100  44.7119390 132.4491360
  69.2240180  44.8533980 131.5944960  70.5225110  44.4279550 132.2462570
  85.5874240  45.1583300 140.7863600  85.7137300  44.9195180 139.8680780
  85.6295620  44.3267840 141.2585680  79.4490980  48.8611300 139.3558410
  79.9635650  48.7719310 140.1580840  78.6060060  49.2071000 139.6486320
  81.4245380  49.1466640 128.7842410  81.2646520  48.8569580 129.6824240
  81.2592090  48.3706770 128.2487640  81.1271510  46.6554200 127.3440410
  80.4336670  46.6531490 126.6842690  81.8694370  46.2313520 126.9134580
  85.4398250  37.2115760 141.7513340  84.8242520  37.7195430 141.2228800
  85.1194670  36.3114090 141.6939280  68.4423990  44.0533370 138.5779640
  68.6055030  43.5838730 137.7599010  68.9076440  43.5456930 139.2428480
  73.2142760  33.1839130 133.6140210  72.7710910  33.9648670 133.2824730
  73.7727750  33.5069020 134.3211150  77.5012570  36.0507650 139.2175530
  77.0391940  36.2590670 140.0295470  77.0990680  35.2367000 138.9146200
  82.5017080  37.2716600 140.3472190  81.6510670  36.9722350 140.6681260
  82.3418870  37.5158610 139.4356010  79.5966790  38.7718350 142.4470980
  79.9220200  37.9382100 142.1073210  80.3847120  39.2946870 142.5949310
  76.3301580  32.8049830 128.4946040  75.7055760  32.8009700 129.2199350
  76.2431700  31.9380790 128.0982010  75.2518660  33.7286460 135.4729810
  75.5490990  34.6349290 135.3921830  75.8004220  33.2405240 134.8589380
  73.0056980  38.3072700 131.3421460  72.7797900  38.0909870 132.2468080
  72.2249510  38.7401160 130.9967430  80.2354740  38.3136070 129.9412110
  79.6363630  39.0371870 129.7575730  80.7834350  38.2512850 129.1588560
  75.4456190  39.2058280 142.0081730  75.3499790  38.2653010 141.8582130
  76.2888170  39.4273350 141.6129800  78.8419610  36.9499610 131.9715390
  79.2349180  37.2671810 131.1584080  79.2036460  36.0711490 132.0859910
  70.5766730  35.6171950 140.1615510  70.1830120  36.4647160 140.3688290
  69.8885130  34.9798320 140.3524150  77.1511780  35.7006920 143.2312250
  76.4610100  35.5079120 143.8658340  77.8944080  35.9841560 143.7636550
  67.8783780  33.5400410 134.1945590  67.5896830  34.1103270 134.9070570
  68.6229540  33.0604860 134.5576820  68.0654010  37.4820530 125.4048310
  67.9828680  38.4251290 125.5463300  67.7137070  37.3395440 124.5260660
  79.4274750  39.5405360 136.0666170  78.6955870  40.0492170 136.4156270
  79.0299090  38.7235340 135.7654950  75.8652140  36.2159560 134.4718660
  75.8688200  35.7749510 133.6223200  76.7603260  36.5376890 134.5790480
  71.7154520  36.0986050 133.4312870  71.3754570  36.5761280 134.1879920
  70.9531840  35.6451170 133.0713970  79.8900660  34.9939040 135.4789110
  79.9073400  35.4447690 136.3230960  79.6416240  34.0944680 135.6922550
  83.3171410  32.4071220 141.3175490  83.6417180  31.6760880 141.8433470
  83.3527920  32.0884860 140.4156480  70.0162970  43.4284800 140.7375450
  69.6317760  42.7878470 141.3358410  70.3275160  44.1320920 141.3070180
  76.1660110  40.2761340 136.2184070  76.5330240  39.8019910 136.9645410
  75.9765170  41.1502910 136.5592410  69.0300600  35.0205030 132.3477540
  68.7447520  34.6560700 133.1856160  68.9679460  34.2885490 131.7340680
  73.9559480  39.3169980 138.5368280  73.6516550  40.1961960 138.7618640
  74.9105940  39.3769770 138.5725720  83.2429250  42.5196330 134.9261520
  83.9628370  43.0151620 134.5357630  83.0411070  41.8414220 134.2815390
  78.6248050  42.5905390 140.8130520  78.5585360  41.6701060 140.5588110
  77.9953190  42.6880830 141.5275160  72.5278670  43.1911350 132.7713940
  73.0457340  42.3879610 132.7170830  72.0762690  43.1290490 133.6130770
  70.0123210  40.1572720 139.6839640  69.6538150  40.8226570 140.2712980
  69.7177770  39.3256270 140.0552260  73.2136330  40.6156960 142.5679190
  72.9136470  40.7614140 141.6707010  73.9847570  40.0562250 142.4752580
  78.5564780  45.4125960 140.5634320  78.5709320  44.4806920 140.3453230
  77.8489880  45.4985720 141.2024090  84.7675990  42.0533300 139.9102900
  84.0424180  42.6462080 139.7132290  85.2951450  42.0456840 139.1116270
  80.2975580  43.7793470 133.4086750  80.6499400  43.1821600 132.7488120
  79.4137910  43.4537700 133.5795000  76.3838860  44.5391160 130.8157160
  77.0709990  45.0860370 131.1964750  75.5971280  45.0831890 130.8506770
  77.9898680  47.0543530 137.6574820  78.6340900  47.2602910 138.3348240
  78.3528120  46.2931930 137.2045670  71.5877850  31.8874840 130.9005040
  71.4592480  31.8792740 131.8489960  70.7639870  32.2257930 130.5496050
  79.2630760  45.0575880 136.3752270  79.9052990  44.3569040 136.4884440
  79.7880110  45.8374320 136.1949160  81.0368380  45.8570780 139.5788330
  81.3724620  46.4437470 140.2566250  80.1168720  45.7263490 139.8086120
  68.5871780  33.6465960 140.3611740  67.8730300  33.8462880 140.9664350
  69.0066820  32.8705530 140.7326540  68.8744370  47.6346220 141.3478270
  68.9835490  46.6940960 141.2073660  68.2224930  47.9000970 140.6992000
  76.8656960  45.9062110 142.7476390  76.5453830  45.1871350 143.2922080
  76.1915320  46.5817180 142.8212450  80.0810560  36.1388270 138.1113190
  80.4491380  35.3183480 138.4392760  79.2208760  36.1990160 138.5268840
  75.4156620  37.3731160 130.3358630  74.7072770  37.8417500 130.7772240
  75.7001100  36.7153170 130.9703820  77.0412550  38.7927860 138.3351160
  77.5397800  39.2673680 139.0003010  77.1835500  37.8691380 138.5421190
  79.4472050  34.0981820 131.7754420  79.3239830  34.1167950 130.8263930
  80.3956610  34.1460760 131.8952820  84.2479410  35.0095820 139.1779550
  83.7453010  35.7501220 139.5173360  85.0636070  35.3979820 138.8616340
  82.5401420  40.2529000 132.6240910  81.5991560  40.2679230 132.7988600
  82.8545490  39.4664960 133.0701210  84.5427000  47.4237850 134.2995170
  84.6674420  48.2469020 134.7718980  85.4092560  47.2128580 133.9519320
  68.8990010  45.5842630 129.8453810  67.9729790  45.8263770 129.8359220
  69.3646440  46.4116890 129.7238560  71.0202810  48.7015130 143.1597880
  71.8215540  49.0227180 143.5733280  70.5054630  48.3410710 143.8817790
  79.8567440  44.8095000 143.1073290  79.2505600  44.8326600 142.3669040
  79.5521550  44.0778040 143.6440540  81.2867810  48.5375290 141.7182700
  82.2389560  48.4533310 141.6682940  81.1396030  49.2017000 142.3916490
  84.1777010  47.9169500 127.2174610  83.8918520  47.5034640 126.4028790
  83.9796560  48.8457210 127.0975130  68.7400620  41.1888590 142.1033930
  69.2439640  40.6095870 142.6750160  68.0008040  41.4728820 142.6410300
  75.7938560  42.5959580 141.6369450  75.0284230  43.1644580 141.5524120
  75.9754520  42.3035790 140.7437680  82.9361910  44.3264910 142.1944470
  83.6771380  44.6640670 141.6911930  82.1734590  44.4956970 141.6414240
  70.7723700  39.3318180 142.9984000  70.8129040  39.0332050 143.9069230
  71.6269200  39.7325790 142.8391520  72.7129510  37.9110280 140.9658490
  72.1825970  37.4201230 140.3381830  73.3817580  38.3394480 140.4316420
  81.6107570  42.3779740 140.7299680  82.0248590  42.5324820 141.5790100
  80.6758570  42.5034960 140.8925460  82.0829740  39.7175900 142.7338830
  82.6650510  38.9628220 142.6459310  82.2591510  40.2483340 141.9570310
  73.2001810  34.8772650 141.0455780  73.1058680  34.2593400 140.3206650
  72.6199200  35.6038940 140.8185690  75.9663250  33.4345890 138.0783170
  75.5180550  33.4570150 137.2328720  75.3328450  33.0364910 138.6753470
  76.3722800  42.3300220 138.6995610  76.7910910  43.1732950 138.5271850
  75.4531430  42.4672260 138.4702390  78.7086700  40.0616400 140.0833450
  78.8282910  39.4657540 140.8228290  79.5680700  40.0986090 139.6634750
  81.0474600  40.6153590 138.6595960  80.5209820  41.1396210 138.0561100
  81.3905940  41.2480980 139.2905690  74.2230220  48.6353230 139.8153340
  73.6851310  49.3599290 139.4962040  74.4764180  48.1583570 139.0250680
  75.4755470  36.6037750 141.3409270  76.0655160  36.2953600 142.0287090
  74.6575710  36.1317500 141.4969170  80.2948900  36.2203560 141.5742290
  79.6064420  35.5585100 141.5092280  81.0154920  35.7741830 142.0190750
  77.0792430  49.8704440 140.0739990  77.0051130  50.7739580 140.3812360
  76.1771270  49.5516340 140.0462060  84.6072110  47.5666620 140.4032550
  84.0074100  47.6259180 139.6596470  84.7366010  46.6271600 140.5329400
  68.8034360  40.5769850 132.4744120  68.1483200  40.3081490 131.8303820
  69.6412310  40.4674330 132.0246100  86.3089990  42.9082020 133.0878390
  86.6798820  42.1249340 132.6814360  86.9491920  43.5971120 132.9095690
  83.2923750  44.2918600 138.5008710  82.4783590  44.7215760 138.7634500
  83.6997950  44.9037010 137.8877760  69.8410290  40.9622420 137.0147460
  70.2083330  40.8749820 137.8943480  69.2721110  40.1988970 136.9154320
  84.6414150  39.4306800 140.0277930  84.4100240  39.2019550 139.1275880
  84.9018700  40.3506350 139.9822820  69.3926290  37.8731510 140.9205880
  68.4982340  37.8398270 141.2599590  69.9323840  38.0718300 141.6857130
  83.0802220  34.6563230 142.8057630  83.9572400  34.6646630 143.1891630
  83.0923060  33.9194070 142.1949980  68.0172440  37.7868780 128.4169450
  67.1136520  38.0498980 128.2421110  68.5013060  38.0579950 127.6369410
  84.5265490  38.5092770 133.6945650  85.0502970  38.0155420 133.0635820
  85.1124910  38.6443130 134.4393220  84.7055210  38.5932640 137.2165200
  83.7557920  38.5596180 137.3310190  84.8868220  39.5032750 136.9814970
  84.0165460  37.7666120 129.6338060  84.5124580  37.5336990 130.4186940
  83.8181530  36.9277960 129.2175700  69.8966000  32.1479840 135.2689100
  70.5442190  31.5977220 134.8284260  70.3167840  32.4022990 136.0904910
  85.4452620  36.4027070 132.1675740  85.3351900  36.2483110 133.1058010
  86.2060210  35.8748010 131.9251150  83.7918340  32.3421200 138.6258740
  84.4290560  32.9555340 138.9917930  83.9393230  32.3781860 137.6807970
  86.3342890  34.2334990 125.4081880  87.2592200  34.1016170 125.2000170
  86.3118680  34.3127810 126.3618330  86.4081380  35.0045650 128.0338590
  85.6132880  34.9390770 128.5631500  86.6124660  35.9396290 128.0223940
  83.3499800  49.0437200 132.0276980  83.9458870  48.7221770 131.3511400
  83.6077950  48.5709020 132.8190250  69.6498000  32.3035510 138.0114420
  69.3012820  32.7599330 138.7772600  69.3185700  31.4092640 138.0936850
  71.2562370  45.4755110 142.1767610  71.2132000  45.1048020 143.0582070
  71.3873380  46.4132680 142.3169430  74.9568400  47.0314700 137.7777330
  74.7159760  47.2989260 136.8907850  75.8971040  47.2020430 137.8328190
  77.1622820  33.4947390 141.5333840  77.1011710  34.0869220 142.2829250
  78.1023200  33.3873350 141.3884100  79.7997380  33.1517450 141.1726130
  80.4137790  33.4696740 140.5107210  80.3446940  32.6666040 141.7921990
  86.2172560  49.0509080 138.5787970  85.7230840  49.4477950 137.8615100
  85.6085850  48.4258290 138.9725250  70.3218640  31.8311710 141.2865190
  70.8701630  31.6499760 140.5231300  70.3873950  31.0405820 141.8221500
  71.0950400  48.4217360 139.2965390  70.5010720  48.2902060 140.0355430
  71.0874240  47.5855500 138.8307490  80.5405420  31.7149590 137.4995420
  79.6665260  32.0484700 137.2968350  80.4316170  31.2422770 138.3247290
  81.4477400  33.9220460 138.8837140  81.1190760  33.1072220 138.5038870
  82.3959700  33.8790270 138.7602830  83.9012010  49.6932500 135.8574710
  83.4414980  50.4448310 135.4832730  83.2724470  48.9738970 135.7989510
  70.7262630  45.7875740 138.2473430  69.9996690  45.1681030 138.1799380
  70.7871780  46.1816350 137.3771510  77.0703230  48.8929230 135.8591820
  77.3581040  48.6383530 134.9824830  77.5826450  48.3406590 136.4497390
  78.2880240  32.6319430 136.4388330  77.5052030  33.1064930 136.7185090
  77.9943170  31.7274260 136.3301510  82.8401310  33.3342530 134.4837420
  83.2809400  33.2787630 133.6359020  82.5708900  34.2500540 134.5547600
  84.7039880  32.9657770 132.4946240  84.6428280  32.0218990 132.3477260
  85.4831910  33.0737860 133.0399700  69.6320650  32.9366910 128.9602050
  70.3900010  33.0495790 128.3866080  69.1697820  33.7736110 128.9145480
  76.1734460  35.0506180 131.9504360  75.3608970  34.6763070 131.6100240
  76.6776100  34.2951260 132.2525550  80.6759440  31.7148630 133.1887430
  81.2788810  32.2868840 133.6635950  79.9352430  32.2788070 132.9661330
  83.8194040  32.1170190 128.4627710  84.0144670  33.0153640 128.7295140
  83.0323910  31.8857270 128.9560660  70.6155330  47.7983360 128.9020330
  70.0902950  48.1791390 128.1982290  70.5399910  48.4234130 129.6230040
  74.1983640  33.2006100 130.5549410  73.5686380  32.4993410 130.7219540
  73.6588780  33.9610230 130.3382570  77.1375590  49.8145330 143.2260020
  78.0642900  49.5789600 143.2695980  77.1226020  50.6417330 142.7446050
  85.3720650  49.3570900 130.2234270  85.5472840  48.6708640 129.5795190
  84.6742220  49.8817950 129.8310940  74.3239200  32.4790080 142.9901900
  74.0423470  32.9823680 142.2262720  74.7058900  31.6811830 142.6244030
  80.9254660  31.8943660 143.5682370  80.8120110  32.2138270 144.4633890
  81.7424400  32.2956170 143.2719650  83.7053150  49.0415190 143.0501060
  84.4978470  48.5464420 142.8427020  83.9986300  49.7205330 143.6576670
  79.8312810  39.9136130 113.9317110  79.7506860  38.9990740 113.6608820
  79.4177230  40.4103200 113.2256820  77.9630850  41.6915150 115.8126380
  77.1872950  41.2115590 116.1024950  78.6143780  41.0120800 115.6382540
  81.9838280  46.0975340 114.5925510  81.5219810  45.3262580 114.9212680
  82.7963830  46.1241410 115.0977960  77.4039840  44.3672340 115.8196540
  77.3348120  43.4262280 115.6585670  78.1659700  44.4573750 116.3919110
  78.4345010  37.1742720 116.0465470  78.8109830  36.3014600 115.9339140
  78.3364520  37.5101420 115.1555910  70.2133180  37.4687360 116.7535500
  70.8943290  37.7325730 117.3722900  69.8981230  36.6288230 117.0873510
  74.4057750  38.5154720 115.8408090  74.9135970  39.0135690 116.4813110
  74.9370990  37.7389920 115.6647450  79.0764940  43.2672590 111.6061410
  78.4582210  43.7322040 111.0424130  79.5888190  43.9600070 112.0230920
  73.1515800  44.7629260 120.0994190  73.7689800  45.4380340 119.8178640
  72.2908920  45.1717240 120.0081690  76.0537070  32.3545510 114.4386550
  76.3612050  31.7992400 113.7222050  75.1237770  32.4889970 114.2559540
  81.6052130  48.0712800 116.7294010  81.6179290  47.6675090 115.8616270
  81.0527350  48.8460090 116.6255440  82.8997550  44.7929020 111.8184180
  82.7893880  43.8503350 111.9433600  82.8965800  45.1544660 112.7046940
  78.4417830  40.4194340 111.1746670  77.5147110  40.3531720 111.4035140
  78.5942650  41.3574470 111.0601910  82.4715120  41.9814640 111.6781920
  81.8527540  41.6434190 111.0308220  82.4539570  41.3374400 112.3861110
  74.5156170  44.6326640 116.1205610  74.2184460  44.0272110 115.4413390
  75.4655990  44.6703950 116.0094970  72.7603090  37.7202290 117.7365440
  73.3117680  37.8297630 116.9618690  73.2746600  38.0939890 118.4520670
  82.6041780  48.2058510 119.7828710  82.1272340  49.0130700 119.5901320
  81.9203570  47.5536840 119.9354920  80.6479820  41.2201450 108.6854670
  81.0873100  40.3823880 108.5392490  81.3608240  41.8530850 108.7718810
  86.1840990  47.9670450 124.8520100  86.6600710  48.4453340 125.5309180
  86.8048150  47.8987940 124.1265600  79.4490980  48.8611300 120.5814920
  79.9635650  48.7719310 121.3837350  78.6060060  49.2071000 120.8742830
  81.4245380  49.1466640 110.0098920  81.2646520  48.8569580 110.9080750
  81.2592090  48.3706770 109.4744150  80.6921440  48.2816910 112.6445410
  81.1478390  47.5006290 112.9584030  81.0313960  48.9923730 113.1886590
  85.4398250  37.2115760 122.9769850  84.8242520  37.7195430 122.4485310
  85.1194670  36.3114090 122.9195790  68.0654010  37.4820530 106.6304820
  67.9828680  38.4251290 106.7719810  67.7137070  37.3395440 105.7517170
  75.8652140  36.2159560 115.6975170  75.8688200  35.7749510 114.8479710
  76.7603260  36.5376890 115.8046990  71.7154520  36.0986050 114.6569380
  71.3754570  36.5761280 115.4136430  70.9531840  35.6451170 114.2970480
  76.1660110  40.2761340 117.4440580  76.5330240  39.8019910 118.1901920
  75.9765170  41.1502910 117.7848920  81.4187580  38.2853940 108.5909580
  82.3067200  38.5971170 108.4160920  81.3892670  37.4126190 108.1990160
  70.0123210  40.1572720 120.9096150  69.6538150  40.8226570 121.4969490
  69.7177770  39.3256270 121.2808770  83.6901850  39.5965780 108.0589440
  83.6065570  40.0280000 107.2085880  84.4096040  40.0564130 108.4916260
  84.7189100  46.4508040 110.7871570  84.0765260  45.7963660 111.0615290
  84.3319760  46.8563130 110.0112240  80.2975580  43.7793470 114.6343260
  80.6499400  43.1821600 113.9744630  79.4137910  43.4537700 114.8051510
  77.9898680  47.0543530 118.8831330  78.6340900  47.2602910 119.5604750
  78.3528120  46.2931930 118.4302180  79.2630760  45.0575880 117.6008780
  79.9052990  44.3569040 117.7140950  79.7880110  45.8374320 117.4205670
  82.6902730  43.2596440 108.9862080  82.4024430  43.7209130 109.7739960
  83.4854900  42.7994210 109.2546300  75.4156620  37.3731160 111.5615140
  74.7072770  37.8417500 112.0028750  75.7001100  36.7153170 112.1960330
  73.6191640  35.6816240 108.9365850  74.4682170  36.1186390 108.8706040
  73.2522910  35.9936500 109.7637910  82.5401420  40.2529000 113.8497420
  81.5991560  40.2679230 114.0245110  82.8545490  39.4664960 114.2957720
  84.5427000  47.4237850 115.5251680  84.6674420  48.2469020 115.9975490
  85.4092560  47.2128580 115.1775830  72.0144530  49.5169060 115.1968810
  72.7507010  48.9684520 115.4677380  72.3985450  50.3825070 115.0574800
  75.6424240  43.9102780 106.8836730  75.5374880  43.2955130 107.6098110
  75.4748460  43.3868670 106.0999740  78.8826970  42.9722810 107.4878720
  78.3337070  43.4192110 108.1321460  79.5046230  42.4672060 108.0116390
  77.0629730  40.9551340 106.6321120  77.5835390  40.2400360 106.2662270
  77.7098130  41.5937210 106.9321630  72.2443790  35.1047580 106.3180060
  72.5469690  35.1115010 105.4099210  72.9838380  34.7545440 106.8147720
  68.9709930  48.0649620 117.3411750  68.5340920  48.2450420 118.1735900
  69.5387610  48.8224240 117.1993470  85.8473560  45.3084440 106.9658770
  85.0166520  45.3761090 107.4366000  86.0245390  46.1988560 106.6625630
  85.3030020  42.0531920 109.4692970  86.0648930  42.6228570 109.5752660
  85.3184390  41.4859120 110.2401280  86.3089990  42.9082020 114.3134900
  86.6798820  42.1249340 113.9070870  86.9491920  43.5971120 114.1352200
  85.3549190  42.3466290 106.6265490  85.6298030  43.2545170 106.4984710
  85.1659930  42.2828820 107.5627480  85.2514530  40.2835280 111.6194920
  84.8758130  39.5163210 111.1876210  84.5217650  40.6657980 112.1069850
  83.3499800  49.0437200 113.2533490  83.9458870  48.7221770 112.5767910
  83.6077950  48.5709020 114.0446760  74.9568400  47.0314700 119.0033840
  74.7159760  47.2989260 118.1164360  75.8971040  47.2020430 119.0584700
  80.5405420  31.7149590 118.7251930  79.6665260  32.0484700 118.5224860
  80.4316170  31.2422770 119.5503800  70.7262630  45.7875740 119.4729940
  69.9996690  45.1681030 119.4055890  70.7871780  46.1816350 118.6028020
  74.3307730  48.0020740 116.2579350  74.8472750  47.3908100 115.7327610
  74.9805110  48.5049520 116.7490360  77.0703230  48.8929230 117.0848330
  77.3581040  48.6383530 116.2081340  77.5826450  48.3406590 117.6753900
  78.2880240  32.6319430 117.6644840  77.5052030  33.1064930 117.9441600
  77.9943170  31.7274260 117.5558020  80.6759440  31.7148630 114.4143940
  81.2788810  32.2868840 114.8892460  79.9352430  32.2788070 114.1917840
  83.8194040  32.1170190 109.6884220  84.0144670  33.0153640 109.9551650
  83.0323910  31.8857270 110.1817170  74.1983640  33.2006100 111.7805920
  73.5686380  32.4993410 111.9476050  73.6588780  33.9610230 111.5639080
  85.3720650  49.3570900 111.4490780  85.5472840  48.6708640 110.8051700
  84.6742220  49.8817950 111.0567450  79.8312810  39.9136130  95.1573620
  79.7506860  38.9990740  94.8865330  79.4177230  40.4103200  94.4513330
  77.9630850  41.6915150  97.0382890  77.1872950  41.2115590  97.3281460
  78.6143780  41.0120800  96.8639050  81.9838280  46.0975340  95.8182020
  81.5219810  45.3262580  96.1469190  82.7963830  46.1241410  96.3234470
  78.2101590  48.3833350  95.4386010  77.5913030  48.8390850  94.8680450
  79.0653370  48.5384810  95.0375710  77.4039840  44.3672340  97.0453050
  77.3348120  43.4262280  96.8842180  78.1659700  44.4573750  97.6175620
  78.4345010  37.1742720  97.2721980  78.8109830  36.3014600  97.1595650
  78.3364520  37.5101420  96.3812420  74.4057750  38.5154720  97.0664600
  74.9135970  39.0135690  97.7069620  74.9370990  37.7389920  96.8903960
  72.6893850  33.1553280 101.3328020  72.6912290  33.6725670 100.5273920
  71.8598160  32.6783460 101.3097950  79.0764940  43.2672590  92.8317920
  78.4582210  43.7322040  92.2680640  79.5888190  43.9600070  93.2487430
  82.4530610  36.6093540  96.9777860  81.7486180  36.8978430  97.5580970
  82.8142770  37.4193650  96.6177420  72.3709180  34.8663240  99.3398470
  72.7125990  35.7105290  99.0452340  71.4324990  35.0146980  99.4563810
  68.4448140  43.9529120  90.2057550  68.0676120  44.4416220  89.4742450
  68.7021210  44.6254400  90.8364080  85.5217530  36.0548330  97.3687070
  84.5742440  36.0887310  97.5002500  85.8467520  36.8687280  97.7536430
  82.8997550  44.7929020  93.0440690  82.7893880  43.8503350  93.1690110
  82.8965800  45.1544660  93.9303450  81.0037570  42.9742640  99.2833130
  81.4206360  42.7602750  98.4486590  81.7277390  43.2315430  99.8541750
  78.4417830  40.4194340  92.4003180  77.5147110  40.3531720  92.6291650
  78.5942650  41.3574470  92.2858420  78.4286910  36.6911340  89.3970340
  77.4890580  36.8525300  89.4822800  78.7470170  37.4097020  88.8506330
  82.4715120  41.9814640  92.9038430  81.8527540  41.6434190  92.2564730
  82.4539570  41.3374400  93.6117620  81.9141680  38.1599180 100.3204240
  81.5012860  38.9852890 100.5744230  81.1817630  37.5744220 100.1280600
  74.0474470  40.9459080  95.1822910  73.6431470  40.2336330  94.6868810
  74.1337590  40.6012320  96.0710950  74.5156170  44.6326640  97.3462120
  74.2184460  44.0272110  96.6669900  75.4655990  44.6703950  97.2351480
  80.6479820  41.2201450  89.9111180  81.0873100  40.3823880  89.7649000
  81.3608240  41.8530850  89.9975320  78.7575200  46.1597520  93.8792420
  79.1971110  46.9021850  93.4647810  78.6962090  46.4024090  94.8031380
  84.2296960  32.4744260  88.2252220  83.9169620  32.5671090  89.1251290
  84.9909430  33.0525290  88.1749650  86.1840990  47.9670450 106.0776610
  86.6600710  48.4453340 106.7565690  86.8048150  47.8987940 105.3522110
  85.5874240  45.1583300 103.2376620  85.7137300  44.9195180 102.3193800
  85.6295620  44.3267840 103.7098700  81.4245380  49.1466640  91.2355430
  81.2646520  48.8569580  92.1337260  81.2592090  48.3706770  90.7000660
  73.9033760  48.9265170  93.0127050  73.7276240  48.0100710  92.7994850
  73.0489500  49.2852460  93.2524850  81.1271510  46.6554200  89.7953430
  80.4336670  46.6531490  89.1355710  81.8694370  46.2313520  89.3647600
  80.6921440  48.2816910  93.8701920  81.1478390  47.5006290  94.1840540
  81.0313960  48.9923730  94.4143100  85.4398250  37.2115760 104.2026360
  84.8242520  37.7195430 103.6741820  85.1194670  36.3114090 104.1452300
  82.5017080  37.2716600 102.7985210  81.6510670  36.9722350 103.1194280
  82.3418870  37.5158610 101.8869030  76.3301580  32.8049830  90.9459060
  75.7055760  32.8009700  91.6712370  76.2431700  31.9380790  90.5495030
  80.2354740  38.3136070  92.3925130  79.6363630  39.0371870  92.2088750
  80.7834350  38.2512850  91.6101580  78.8419610  36.9499610  94.4228410
  79.2349180  37.2671810  93.6097100  79.2036460  36.0711490  94.5372930
  70.5766730  35.6171950 102.6128530  70.1830120  36.4647160 102.8201310
  69.8885130  34.9798320 102.8037170  79.4274750  39.5405360  98.5179190
  78.6955870  40.0492170  98.8669290  79.0299090  38.7235340  98.2167970
  75.8652140  36.2159560  96.9231680  75.8688200  35.7749510  96.0736220
  76.7603260  36.5376890  97.0303500  71.7154520  36.0986050  95.8825890
  71.3754570  36.5761280  96.6392940  70.9531840  35.6451170  95.5226990
  76.1660110  40.2761340  98.6697090  76.5330240  39.8019910  99.4158430
  75.9765170  41.1502910  99.0105430  83.2429250  42.5196330  97.3774540
  83.9628370  43.0151620  96.9870650  83.0411070  41.8414220  96.7328410
  78.7039190  33.9134290  91.5203930  77.8903800  33.4147460  91.4449240
  78.5101140  34.7532540  91.1040280  78.6248050  42.5905390 103.2643540
  78.5585360  41.6701060 103.0101130  77.9953190  42.6880830 103.9788180
  81.4187580  38.2853940  89.8166090  82.3067200  38.5971170  89.6417430
  81.3892670  37.4126190  89.4246670  72.5278670  43.1911350  95.2226960
  73.0457340  42.3879610  95.1683850  72.0762690  43.1290490  96.0643790
  77.4148170  44.4577630  90.4954260  77.7563870  45.2019860  89.9997580
  76.5860880  44.7708750  90.8579090  83.6901850  39.5965780  89.2845950
  83.6065570  40.0280000  88.4342390  84.4096040  40.0564130  89.7172770
  84.7675990  42.0533300 102.3615920  84.0424180  42.6462080 102.1645310
  85.2951450  42.0456840 101.5629290  84.7189100  46.4508040  92.0128080
  84.0765260  45.7963660  92.2871800  84.3319760  46.8563130  91.2368750
  80.2975580  43.7793470  95.8599770  80.6499400  43.1821600  95.2001140
  79.4137910  43.4537700  96.0308020  76.3838860  44.5391160  93.2670180
  77.0709990  45.0860370  93.6477770  75.5971280  45.0831890  93.3019790
  75.6866070  41.5437190  92.8795540  76.1428850  42.3542440  93.1055730
  75.3354280  41.2260330  93.7114030  79.2630760  45.0575880  98.8265290
  79.9052990  44.3569040  98.9397460  79.7880110  45.8374320  98.6462180
  83.1086480  45.3424500  88.5504430  82.8824060  44.6254940  89.1429070
  82.7182680  45.0936940  87.7126180  68.8902510  49.3691360  89.3248890
  69.2500150  49.9680700  88.6706160  68.7494850  49.9151250  90.0983920
  82.6902730  43.2596440  90.2118590  82.4024430  43.7209130  90.9996470
  83.4854900  42.7994210  90.4802810  74.9071130  46.7522560  90.1422560
  74.8981230  47.4852250  89.5267070  73.9869490  46.5054140  90.2349520
  77.8930730  46.8150800  88.8047750  77.9942710  46.6114790  87.8749730
  76.9932470  46.5609080  89.0095530  77.0412550  38.7927860 100.7864180
  77.5397800  39.2673680 101.4516030  77.1835500  37.8691380 100.9934210
  76.5348840  49.3337120  93.4995420  76.7890340  49.2958510  92.5774790
  75.5861320  49.2070450  93.4923670  84.2479410  35.0095820 101.6292570
  83.7453010  35.7501220 101.9686380  85.0636070  35.3979820 101.3129360
  82.5401420  40.2529000  95.0753930  81.5991560  40.2679230  95.2501620
  82.8545490  39.4664960  95.5214230  72.0144530  49.5169060  96.4225320
  72.7507010  48.9684520  96.6933890  72.3985450  50.3825070  96.2831310
  68.8990010  45.5842630  92.2966830  67.9729790  45.8263770  92.2872240
  69.3646440  46.4116890  92.1751580  84.1777010  47.9169500  89.6687630
  83.8918520  47.5034640  88.8541810  83.9796560  48.8457210  89.5488150
  75.6424240  43.9102780  88.1093240  75.5374880  43.2955130  88.8354620
  75.4748460  43.3868670  87.3256250  75.7938560  42.5959580 104.0882470
  75.0284230  43.1644580 104.0037140  75.9754520  42.3035790 103.1950700
  78.8826970  42.9722810  88.7135230  78.3337070  43.4192110  89.3577970
  79.5046230  42.4672060  89.2372900  72.7129510  37.9110280 103.4171510
  72.1825970  37.4201230 102.7894850  73.3817580  38.3394480 102.8829440
  77.0629730  40.9551340  87.8577630  77.5835390  40.2400360  87.4918780
  77.7098130  41.5937210  88.1578140  81.6107570  42.3779740 103.1812700
  82.0248590  42.5324820 104.0303120  80.6758570  42.5034960 103.3438480
  82.0829740  39.7175900 105.1851850  82.6650510  38.9628220 105.0972330
  82.2591510  40.2483340 104.4083330  76.3722800  42.3300220 101.1508630
  76.7910910  43.1732950 100.9784870  75.4531430  42.4672260 100.9215410
  81.0474600  40.6153590 101.1108980  80.5209820  41.1396210 100.5074120
  81.3905940  41.2480980 101.7418710  80.9249300  32.8155190  90.0845570
  81.2051590  31.9723090  90.4404990  80.1515030  33.0478300  90.5984320
  75.4628720  34.0482200  88.5292770  75.1150720  33.3706190  87.9495220
  75.6641490  33.5871710  89.3436160  77.6277760  49.0362950  90.1479370
  78.5228550  49.3747920  90.1698130  77.6595390  48.3142360  89.5203650
  71.2673920  44.4090000  88.3766370  71.7048790  44.9519670  89.0323950
  71.7521650  43.5836950  88.3862710  73.0781640  45.5288040  93.4888600
  72.7777180  45.4053010  94.3892510  72.9719130  44.6696630  93.0804330
  85.3030020  42.0531920  90.6949480  86.0648930  42.6228570  90.8009170
  85.3184390  41.4859120  91.4657790  86.3089990  42.9082020  95.5391410
  86.6798820  42.1249340  95.1327380  86.9491920  43.5971120  95.3608710
  85.3549190  42.3466290  87.8522000  85.6298030  43.2545170  87.7241220
  85.1659930  42.2828820  88.7883990  81.7524800  35.3711140  89.1475630
  82.1709680  35.1842120  88.3072290  81.4460860  34.5190190  89.4578560
  85.2514530  40.2835280  92.8451430  84.8758130  39.5163210  92.4132720
  84.5217650  40.6657980  93.3326360  69.3926290  37.8731510 103.3718900
  68.4982340  37.8398270 103.7112610  69.9323840  38.0718300 104.1370150
  84.5265490  38.5092770  96.1458670  85.0502970  38.0155420  95.5148840
  85.1124910  38.6443130  96.8906240  84.0165460  37.7666120  92.0851080
  84.5124580  37.5336990  92.8699960  83.8181530  36.9277960  91.6688720
  69.8966000  32.1479840  97.7202120  70.5442190  31.5977220  97.2797280
  70.3167840  32.4022990  98.5417930  85.4452620  36.4027070  94.6188760
  85.3351900  36.2483110  95.5571030  86.2060210  35.8748010  94.3764170
  86.3342890  34.2334990  87.8594900  87.2592200  34.1016170  87.6513190
  86.3118680  34.3127810  88.8131350  86.4081380  35.0045650  90.4851610
  85.6132880  34.9390770  91.0144520  86.6124660  35.9396290  90.4736960
  83.3499800  49.0437200  94.4790000  83.9458870  48.7221770  93.8024420
  83.6077950  48.5709020  95.2703270  74.3307730  48.0020740  97.4835860
  74.8472750  47.3908100  96.9584120  74.9805110  48.5049520  97.9746870
  69.0092630  49.1050130  93.9083210  68.8414670  48.4720810  94.6065100
  68.1427140  49.3109530  93.5577400  76.1734460  35.0506180  94.4017380
  75.3608970  34.6763070  94.0613260  76.6776100  34.2951260  94.7038570
  70.6155330  47.7983360  91.3533350  70.0902950  48.1791390  90.6495310
  70.5399910  48.4234130  92.0743060  74.1983640  33.2006100  93.0062430
  73.5686380  32.4993410  93.1732560  73.6588780  33.9610230  92.7895590
  85.3720650  49.3570900  92.6747290  85.5472840  48.6708640  92.0308210
  84.6742220  49.8817950  92.2823960  73.2148300  49.7465740  90.2282600
  73.9467120  49.4625020  89.6806490  73.4741970  49.5079020  91.1181980
  72.3763090  45.8630470  90.2328930  71.7471970  46.3315570  90.7814760
  72.4910920  45.0179690  90.6675120  71.9796680  42.0034960  79.1415160
  71.1481560  41.7483670  79.5411670  72.5877660  42.0745730  79.8773080
  68.3521640  39.5642500  78.8097250  68.9237750  38.7964700  78.8100890
  68.3523180  39.8631260  77.9003860  78.4345010  37.1742720  78.4978490
  78.8109830  36.3014600  78.3852160  78.3364520  37.5101420  77.6068930
  82.2169130  34.6693160  75.4306830  83.0378750  34.1789730  75.4732310
  82.2503210  35.2590820  76.1838670  70.2133180  37.4687360  79.2048520
  70.8943290  37.7325730  79.8235920  69.8981230  36.6288230  79.5386530
  74.4057750  38.5154720  78.2921110  74.9135970  39.0135690  78.9326130
  74.9370990  37.7389920  78.1160470  86.5068680  36.6859910  81.9950460
  85.8020850  37.0741620  81.4765570  86.7726600  37.3810200  82.5971390
  73.9396700  42.7948460  80.7358030  73.6066080  43.4217380  81.3779100
  74.1163380  43.3210340  79.9559700  82.4530610  36.6093540  78.2034370
  81.7486180  36.8978430  78.7837480  82.8142770  37.4193650  77.8433930
  73.1515800  44.7629260  82.5507210  73.7689800  45.4380340  82.2691660
  72.2908920  45.1717240  82.4594710  68.4448140  43.9529120  71.4314060
  68.0676120  44.4416220  70.6998960  68.7021210  44.6254400  72.0620590
  85.5217530  36.0548330  78.5943580  84.5742440  36.0887310  78.7259010
  85.8467520  36.8687280  78.9792940  78.4417830  40.4194340  73.6259690
  77.5147110  40.3531720  73.8548160  78.5942650  41.3574470  73.5114930
  78.4286910  36.6911340  70.6226850  77.4890580  36.8525300  70.7079310
  78.7470170  37.4097020  70.0762840  72.7603090  37.7202290  80.1878460
  73.3117680  37.8297630  79.4131710  73.2746600  38.0939890  80.9033690
  73.6074600  44.3708330  85.2226430  72.7103130  44.5948300  85.4699830
  73.6327470  44.4943270  84.2737830  72.4345820  41.2421650  83.7983800
  72.2953590  42.1144450  84.1671200  71.5527180  40.8994460  83.6531740
  74.2326170  47.1843350  86.0068950  74.2041600  47.5886300  85.1397380
  74.0691140  46.2553710  85.8440550  70.7479100  39.8404060  73.9086070
  70.6276700  40.5666150  73.2967340  70.4379990  39.0706970  73.4313980
  68.3864470  43.0119200  79.7154710  68.4644890  43.1467970  78.7710430
  69.0006150  42.3035090  79.9082830  69.6312100  44.7119390  76.1260890
  69.2240180  44.8533980  75.2714490  70.5225110  44.4279550  75.9232100
  85.4398250  37.2115760  85.4282870  84.8242520  37.7195430  84.8998330
  85.1194670  36.3114090  85.3708810  68.4423990  44.0533370  82.2549170
  68.6055030  43.5838730  81.4368540  68.9076440  43.5456930  82.9198010
  77.5012570  36.0507650  82.8945060  77.0391940  36.2590670  83.7065000
  77.0990680  35.2367000  82.5915730  82.5017080  37.2716600  84.0241720
  81.6510670  36.9722350  84.3450790  82.3418870  37.5158610  83.1125540
  73.0056980  38.3072700  75.0190990  72.7797900  38.0909870  75.9237610
  72.2249510  38.7401160  74.6736960  75.4456190  39.2058280  85.6851260
  75.3499790  38.2653010  85.5351660  76.2888170  39.4273350  85.2899330
  78.8419610  36.9499610  75.6484920  79.2349180  37.2671810  74.8353610
  79.2036460  36.0711490  75.7629440  77.1511780  35.7006920  86.9081780
  76.4610100  35.5079120  87.5427870  77.8944080  35.9841560  87.4406080
  68.0654010  37.4820530  69.0817840  67.9828680  38.4251290  69.2232830
  67.7137070  37.3395440  68.2030190  75.9272290  37.2171640  71.1394950
  76.0485110  37.1758120  72.0880770  75.5420800  38.0795790  70.9841680
  79.8900660  34.9939040  79.1558640  79.9073400  35.4447690  80.0000490
  79.6416240  34.0944680  79.3692080  74.9393790  39.5272780  70.5378250
  74.3710690  39.0791030  69.9114160  75.6482790  39.8865560  70.0043400
  83.3171410  32.4071220  84.9945020  83.6417180  31.6760880  85.5203000
  83.3527920  32.0884860  84.0926010  70.0162970  43.4284800  84.4144980
  69.6317760  42.7878470  85.0127940  70.3275160  44.1320920  84.9839710
  76.1660110  40.2761340  79.8953600  76.5330240  39.8019910  80.6414940
  75.9765170  41.1502910  80.2361940  73.9559480  39.3169980  82.2137810
  73.6516550  40.1961960  82.4388170  74.9105940  39.3769770  82.2495250
  81.4187580  38.2853940  71.0422600  82.3067200  38.5971170  70.8673940
  81.3892670  37.4126190  70.6503180  73.2136330  40.6156960  86.2448720
  72.9136470  40.7614140  85.3476540  73.9847570  40.0562250  86.1522110
  84.7675990  42.0533300  83.5872430  84.0424180  42.6462080  83.3901820
  85.2951450  42.0456840  82.7885800  68.5231260  40.1563980  69.9843770
  69.3926110  40.4388780  70.2679690  68.0321580  40.9699850  69.8692580
  68.8744370  47.6346220  85.0247800  68.9835490  46.6940960  84.8843190
  68.2224930  47.9000970  84.3761530  76.8656960  45.9062110  86.4245920
  76.5453830  45.1871350  86.9691610  76.1915320  46.5817180  86.4981980
  70.5077770  41.9737450  72.1125830  69.9005720  42.7136350  72.1221130
  70.9827120  42.0636810  71.2864030  80.0810560  36.1388270  81.7882720
  80.4491380  35.3183480  82.1162290  79.2208760  36.1990160  82.2038370
  83.4472590  35.0945210  72.5970280  82.8185750  35.1990880  71.8828510
  82.9524510  35.3141990  73.3864160  75.4156620  37.3731160  74.0128160
  74.7072770  37.8417500  74.4541770  75.7001100  36.7153170  74.6473350
  79.4472050  34.0981820  75.4523950  79.3239830  34.1167950  74.5033460
  80.3956610  34.1460760  75.5722350  84.2479410  35.0095820  82.8549080
  83.7453010  35.7501220  83.1942890  85.0636070  35.3979820  82.5385870
  71.2129820  39.3673670  70.5447290  71.2933410  38.4201180  70.6564690
  72.1049570  39.6980550  70.6507950  68.8990010  45.5842630  73.5223340
  67.9729790  45.8263770  73.5128750  69.3646440  46.4116890  73.4008090
  71.0202810  48.7015130  86.8367410  71.8215540  49.0227180  87.2502810
  70.5054630  48.3410710  87.5587320  79.8567440  44.8095000  86.7842820
  79.2505600  44.8326600  86.0438570  79.5521550  44.0778040  87.3210070
  75.7938560  42.5959580  85.3138980  75.0284230  43.1644580  85.2293650
  75.9754520  42.3035790  84.4207210  82.9361910  44.3264910  85.8714000
  83.6771380  44.6640670  85.3681460  82.1734590  44.4956970  85.3183770
  72.7129510  37.9110280  84.6428020  72.1825970  37.4201230  84.0151360
  73.3817580  38.3394480  84.1085950  82.0829740  39.7175900  86.4108360
  82.6650510  38.9628220  86.3228840  82.2591510  40.2483340  85.6339840
  73.2001810  34.8772650  84.7225310  73.1058680  34.2593400  83.9976180
  72.6199200  35.6038940  84.4955220  73.4460990  38.0046960  68.7815200
  73.2450050  37.1414320  69.1428540  73.2753040  37.9180320  67.8436800
  75.4755470  36.6037750  85.0178800  76.0655160  36.2953600  85.7056620
  74.6575710  36.1317500  85.1738700  80.2948900  36.2203560  85.2511820
  79.6064420  35.5585100  85.1861810  81.0154920  35.7741830  85.6960280
  68.4819720  47.1979030  77.0543140  68.8122730  46.3300090  76.8221780
  68.9110720  47.4037550  77.8848100  68.8034360  40.5769850  76.1513650
  68.1483200  40.3081490  75.5073350  69.6412310  40.4674330  75.7015630
  69.8410290  40.9622420  80.6916990  70.2083330  40.8749820  81.5713010
  69.2721110  40.1988970  80.5923850  84.6414150  39.4306800  83.7047460
  84.4100240  39.2019550  82.8045410  84.9018700  40.3506350  83.6592350
  83.0802220  34.6563230  86.4827160  83.9572400  34.6646630  86.8661160
  83.0923060  33.9194070  85.8719510  84.7055210  38.5932640  80.8934730
  83.7557920  38.5596180  81.0079720  84.8868220  39.5032750  80.6584500
  85.4452620  36.4027070  75.8445270  85.3351900  36.2483110  76.7827540
  86.2060210  35.8748010  75.6020680  86.3342890  34.2334990  69.0851410
  87.2592200  34.1016170  68.8769700  86.3118680  34.3127810  70.0387860
  86.4081380  35.0045650  71.7108120  85.6132880  34.9390770  72.2401030
  86.6124660  35.9396290  71.6993470  71.2562370  45.4755110  85.8537140
  71.2132000  45.1048020  86.7351600  71.3873380  46.4132680  85.9938960
  77.1622820  33.4947390  85.2103370  77.1011710  34.0869220  85.9598780
  78.1023200  33.3873350  85.0653630  79.7997380  33.1517450  84.8495660
  80.4137790  33.4696740  84.1876740  80.3446940  32.6666040  85.4691520
  71.0950400  48.4217360  82.9734920  70.5010720  48.2902060  83.7124960
  71.0874240  47.5855500  82.5077020  81.4477400  33.9220460  82.5606670
  81.1190760  33.1072220  82.1808400  82.3959700  33.8790270  82.4372360
  70.7262630  45.7875740  81.9242960  69.9996690  45.1681030  81.8568910
  70.7871780  46.1816350  81.0541040  82.8401310  33.3342530  78.1606950
  83.2809400  33.2787630  77.3128550  82.5708900  34.2500540  78.2317130
  76.1734460  35.0506180  75.6273890  75.3608970  34.6763070  75.2869770
  76.6776100  34.2951260  75.9295080  80.9254660  31.8943660  87.2451900
  80.8120110  32.2138270  88.1403420  81.7424400  32.2956170  86.9489180
  70.3888630  36.9636850  54.1514060  69.5005330  37.3052820  54.0493940
  70.6729820  36.7637170  53.2594890  68.3521640  39.5642500  60.0353760
  68.9237750  38.7964700  60.0357400  68.3523180  39.8631260  59.1260370
  69.5946510  34.9726860  61.8222690  69.4149350  34.0752610  62.1025450
  69.1926590  35.5198730  62.4969640  72.5650020  35.5468350  55.1852440
  72.6716770  36.4472080  55.4921200  71.6542380  35.4986320  54.8947090
  82.2169130  34.6693160  56.6563340  83.0378750  34.1789730  56.6988820
  82.2503210  35.2590820  57.4095180  70.2133180  37.4687360  60.4305030
  70.8943290  37.7325730  61.0492430  69.8981230  36.6288230  60.7643040
  72.6893850  33.1553280  63.7841040  72.6912290  33.6725670  62.9786940
  71.8598160  32.6783460  63.7610970  72.3709180  34.8663240  61.7911490
  72.7125990  35.7105290  61.4965360  71.4324990  35.0146980  61.9076830
  85.5217530  36.0548330  59.8200090  84.5742440  36.0887310  59.9515520
  85.8467520  36.8687280  60.2049450  76.0537070  32.3545510  58.1156080
  76.3612050  31.7992400  57.3991580  75.1237770  32.4889970  57.9329070
  78.4417830  40.4194340  54.8516200  77.5147110  40.3531720  55.0804670
  78.5942650  41.3574470  54.7371440  78.4286910  36.6911340  51.8483360
  77.4890580  36.8525300  51.9335820  78.7470170  37.4097020  51.3019350
  72.7603090  37.7202290  61.4134970  73.3117680  37.8297630  60.6388220
  73.2746600  38.0939890  62.1290200  80.6479820  41.2201450  52.3624200
  81.0873100  40.3823880  52.2162020  81.3608240  41.8530850  52.4488340
  84.2296960  32.4744260  50.6765240  83.9169620  32.5671090  51.5764310
  84.9909430  33.0525290  50.6262670  70.7479100  39.8404060  55.1342580
  70.6276700  40.5666150  54.5223850  70.4379990  39.0706970  54.6570490
  68.3864470  43.0119200  60.9411220  68.4644890  43.1467970  59.9966940
  69.0006150  42.3035090  61.1339340  73.2142760  33.1839130  58.5166250
  72.7710910  33.9648670  58.1850770  73.7727750  33.5069020  59.2237190
  75.2518660  33.7286460  60.3755850  75.5490990  34.6349290  60.2947870
  75.8004220  33.2405240  59.7615420  73.0056980  38.3072700  56.2447500
  72.7797900  38.0909870  57.1494120  72.2249510  38.7401160  55.8993470
  80.2354740  38.3136070  54.8438150  79.6363630  39.0371870  54.6601770
  80.7834350  38.2512850  54.0614600  78.8419610  36.9499610  56.8741430
  79.2349180  37.2671810  56.0610120  79.2036460  36.0711490  56.9885950
  70.5766730  35.6171950  65.0641550  70.1830120  36.4647160  65.2714330
  69.8885130  34.9798320  65.2550190  77.1511780  35.7006920  68.1338290
  76.4610100  35.5079120  68.7684380  77.8944080  35.9841560  68.6662590
  67.8783780  33.5400410  59.0971630  67.5896830  34.1103270  59.8096610
  68.6229540  33.0604860  59.4602860  68.0654010  37.4820530  50.3074350
  67.9828680  38.4251290  50.4489340  67.7137070  37.3395440  49.4286700
  71.7154520  36.0986050  58.3338910  71.3754570  36.5761280  59.0905960
  70.9531840  35.6451170  57.9740010  75.9272290  37.2171640  52.3651460
  76.0485110  37.1758120  53.3137280  75.5420800  38.0795790  52.2098190
  74.9393790  39.5272780  51.7634760  74.3710690  39.0791030  51.1370670
  75.6482790  39.8865560  51.2299910  69.0300600  35.0205030  57.2503580
  68.7447520  34.6560700  58.0882200  68.9679460  34.2885490  56.6366720
  78.7039190  33.9134290  53.9716950  77.8903800  33.4147460  53.8962260
  78.5101140  34.7532540  53.5553300  81.4187580  38.2853940  52.2679110
  82.3067200  38.5971170  52.0930450  81.3892670  37.4126190  51.8759690
  83.6901850  39.5965780  51.7358970  83.6065570  40.0280000  50.8855410
  84.4096040  40.0564130  52.1685790  68.5231260  40.1563980  51.2100280
  69.3926110  40.4388780  51.4936200  68.0321580  40.9699850  51.0949090
  71.5877850  31.8874840  55.8031080  71.4592480  31.8792740  56.7516000
  70.7639870  32.2257930  55.4522090  68.5871780  33.6465960  65.2637780
  67.8730300  33.8462880  65.8690390  69.0066820  32.8705530  65.6352580
  82.6902730  43.2596440  52.6631610  82.4024430  43.7209130  53.4509490
  83.4854900  42.7994210  52.9315830  70.5077770  41.9737450  53.3382340
  69.9005720  42.7136350  53.3477640  70.9827120  42.0636810  52.5120540
  83.4472590  35.0945210  53.8226790  82.8185750  35.1990880  53.1085020
  82.9524510  35.3141990  54.6120670  77.8930730  46.8150800  51.2560770
  77.9942710  46.6114790  50.3262750  76.9932470  46.5609080  51.4608550
  75.4156620  37.3731160  55.2384670  74.7072770  37.8417500  55.6798280
  75.7001100  36.7153170  55.8729860  79.4472050  34.0981820  56.6780460
  79.3239830  34.1167950  55.7289970  80.3956610  34.1460760  56.7978860
  73.6191640  35.6816240  52.6135380  74.4682170  36.1186390  52.5475570
  73.2522910  35.9936500  53.4407440  72.5183060  41.9348600  51.0870910
  73.2846330  41.8229960  51.6496340  72.5957750  41.2386570  50.4347680
  71.2129820  39.3673670  51.7703800  71.2933410  38.4201180  51.8821200
  72.1049570  39.6980550  51.8764460  75.6424240  43.9102780  50.5606260
  75.5374880  43.2955130  51.2867640  75.4748460  43.3868670  49.7769270
  78.8826970  42.9722810  51.1648250  78.3337070  43.4192110  51.8090990
  79.5046230  42.4672060  51.6885920  70.7723700  39.3318180  67.9010040
  70.8129040  39.0332050  68.8095270  71.6269200  39.7325790  67.7417560
  77.0629730  40.9551340  50.3090650  77.5835390  40.2400360  49.9431800
  77.7098130  41.5937210  50.6091160  73.2001810  34.8772650  65.9481820
  73.1058680  34.2593400  65.2232690  72.6199200  35.6038940  65.7211730
  75.9663250  33.4345890  62.9809210  75.5180550  33.4570150  62.1354760
  75.3328450  33.0364910  63.5779510  75.4628720  34.0482200  50.9805790
  75.1150720  33.3706190  50.4008240  75.6641490  33.5871710  51.7949180
  71.2673920  44.4090000  50.8279390  71.7048790  44.9519670  51.4836970
  71.7521650  43.5836950  50.8375730  85.3030020  42.0531920  53.1462500
  86.0648930  42.6228570  53.2522190  85.3184390  41.4859120  53.9170810
  68.8034360  40.5769850  57.3770160  68.1483200  40.3081490  56.7329860
  69.6412310  40.4674330  56.9272140  85.3549190  42.3466290  50.3035020
  85.6298030  43.2545170  50.1754240  85.1659930  42.2828820  51.2397010
  81.7524800  35.3711140  51.5988650  82.1709680  35.1842120  50.7585310
  81.4460860  34.5190190  51.9091580  69.3926290  37.8731510  65.8231920
  68.4982340  37.8398270  66.1625630  69.9323840  38.0718300  66.5883170
  84.5265490  38.5092770  58.5971690  85.0502970  38.0155420  57.9661860
  85.1124910  38.6443130  59.3419260  84.0165460  37.7666120  54.5364100
  84.5124580  37.5336990  55.3212980  83.8181530  36.9277960  54.1201740
  69.8966000  32.1479840  60.1715140  70.5442190  31.5977220  59.7310300
  70.3167840  32.4022990  60.9930950  85.4452620  36.4027070  57.0701780
  85.3351900  36.2483110  58.0084050  86.2060210  35.8748010  56.8277190
  69.6498000  32.3035510  62.9140460  69.3012820  32.7599330  63.6798640
  69.3185700  31.4092640  62.9962890  77.1622820  33.4947390  66.4359880
  77.1011710  34.0869220  67.1855290  78.1023200  33.3873350  66.2910140
  70.3218640  31.8311710  66.1891230  70.8701630  31.6499760  65.4257340
  70.3873950  31.0405820  66.7247540  80.5405420  31.7149590  62.4021460
  79.6665260  32.0484700  62.1994390  80.4316170  31.2422770  63.2273330
  81.4477400  33.9220460  63.7863180  81.1190760  33.1072220  63.4064910
  82.3959700  33.8790270  63.6628870  78.2880240  32.6319430  61.3414370
  77.5052030  33.1064930  61.6211130  77.9943170  31.7274260  61.2327550
  82.8401310  33.3342530  59.3863460  83.2809400  33.2787630  58.5385060
  82.5708900  34.2500540  59.4573640  84.7039880  32.9657770  57.3972280
  84.6428280  32.0218990  57.2503300  85.4831910  33.0737860  57.9425740
  69.6320650  32.9366910  53.8628090  70.3900010  33.0495790  53.2892120
  69.1697820  33.7736110  53.8171520  76.1734460  35.0506180  56.8530400
  75.3608970  34.6763070  56.5126280  76.6776100  34.2951260  57.1551590
  83.8194040  32.1170190  53.3653750  84.0144670  33.0153640  53.6321180
  83.0323910  31.8857270  53.8586700  72.0045800  33.4630960  52.4030060
  72.5338560  32.6760760  52.2738010  72.6374120  34.1422150  52.6365590
  74.3239200  32.4790080  67.8927940  74.0423470  32.9823680  67.1288760
  74.7058900  31.6811830  67.5270070  72.5650020  35.5468350  36.4108950
  72.6716770  36.4472080  36.7177710  71.6542380  35.4986320  36.1203600
  82.2169130  34.6693160  37.8819850  83.0378750  34.1789730  37.9245330
  82.2503210  35.2590820  38.6351690  72.6893850  33.1553280  45.0097550
  72.6912290  33.6725670  44.2043450  71.8598160  32.6783460  44.9867480
  72.3709180  34.8663240  43.0168000  72.7125990  35.7105290  42.7221870
  71.4324990  35.0146980  43.1333340  84.0693390  46.2268670  42.9174870
  83.3856910  46.8967780  42.9091540  84.6087680  46.4249320  42.1519730
  76.0537070  32.3545510  39.3412590  76.3612050  31.7992400  38.6248090
  75.1237770  32.4889970  39.1585580  81.0037570  42.9742640  42.9602660
  81.4206360  42.7602750  42.1256120  81.7277390  43.2315430  43.5311280
  81.9141680  38.1599180  43.9973770  81.5012860  38.9852890  44.2513760
  81.1817630  37.5744220  43.8050130  74.0474470  40.9459080  38.8592440
  73.6431470  40.2336330  38.3638340  74.1337590  40.6012320  39.7480480
  74.5156170  44.6326640  41.0231650  74.2184460  44.0272110  40.3439430
  75.4655990  44.6703950  40.9121010  82.6041780  48.2058510  44.6854750
  82.1272340  49.0130700  44.4927360  81.9203570  47.5536840  44.8380960
  73.6074600  44.3708330  47.6739450  72.7103130  44.5948300  47.9212850
  73.6327470  44.4943270  46.7250850  74.2326170  47.1843350  48.4581970
  74.2041600  47.5886300  47.5910400  74.0691140  46.2553710  48.2953570
  79.4490980  48.8611300  45.4840960  79.9635650  48.7719310  46.2863390
  78.6060060  49.2071000  45.7768870  73.9033760  48.9265170  36.6896580
  73.7276240  48.0100710  36.4764380  73.0489500  49.2852460  36.9294380
  81.1271510  46.6554200  33.4722960  80.4336670  46.6531490  32.8125240
  81.8694370  46.2313520  33.0417130  68.4423990  44.0533370  44.7062190
  68.6055030  43.5838730  43.8881560  68.9076440  43.5456930  45.3711030
  73.2142760  33.1839130  39.7422760  72.7710910  33.9648670  39.4107280
  73.7727750  33.5069020  40.4493700  79.5966790  38.7718350  48.5753530
  79.9220200  37.9382100  48.2355760  80.3847120  39.2946870  48.7231860
  76.3301580  32.8049830  34.6228590  75.7055760  32.8009700  35.3481900
  76.2431700  31.9380790  34.2264560  75.2518660  33.7286460  41.6012360
  75.5490990  34.6349290  41.5204380  75.8004220  33.2405240  40.9871930
  73.0056980  38.3072700  37.4704010  72.7797900  38.0909870  38.3750630
  72.2249510  38.7401160  37.1249980  70.0162970  43.4284800  46.8658000
  69.6317760  42.7878470  47.4640960  70.3275160  44.1320920  47.4352730
  69.0300600  35.0205030  38.4760090  68.7447520  34.6560700  39.3138710
  68.9679460  34.2885490  37.8623230  78.7039190  33.9134290  35.1973460
  77.8903800  33.4147460  35.1218770  78.5101140  34.7532540  34.7809810
  78.6248050  42.5905390  46.9413070  78.5585360  41.6701060  46.6870660
  77.9953190  42.6880830  47.6557710  78.5564780  45.4125960  46.6916870
  78.5709320  44.4806920  46.4735780  77.8489880  45.4985720  47.3306640
  84.7675990  42.0533300  46.0385450  84.0424180  42.6462080  45.8414840
  85.2951450  42.0456840  45.2398820  77.9898680  47.0543530  43.7857370
  78.6340900  47.2602910  44.4630790  78.3528120  46.2931930  43.3328220
  71.5877850  31.8874840  37.0287590  71.4592480  31.8792740  37.9772510
  70.7639870  32.2257930  36.6778600  79.2630760  45.0575880  42.5034820
  79.9052990  44.3569040  42.6166990  79.7880110  45.8374320  42.3231710
  83.1086480  45.3424500  32.2273960  82.8824060  44.6254940  32.8198600
  82.7182680  45.0936940  31.3895710  81.0368380  45.8570780  45.7070880
  81.3724620  46.4437470  46.3848800  80.1168720  45.7263490  45.9368670
  68.8744370  47.6346220  47.4760820  68.9835490  46.6940960  47.3356210
  68.2224930  47.9000970  46.8274550  76.8656960  45.9062110  48.8758940
  76.5453830  45.1871350  49.4204630  76.1915320  46.5817180  48.9495000
  74.9071130  46.7522560  33.8192090  74.8981230  47.4852250  33.2036600
  73.9869490  46.5054140  33.9119050  80.0810560  36.1388270  44.2395740
  80.4491380  35.3183480  44.5675310  79.2208760  36.1990160  44.6551390
  77.8930730  46.8150800  32.4817280  77.9942710  46.6114790  31.5519260
  76.9932470  46.5609080  32.6865060  79.4472050  34.0981820  37.9036970
  79.3239830  34.1167950  36.9546480  80.3956610  34.1460760  38.0235370
  84.5427000  47.4237850  40.4277720  84.6674420  48.2469020  40.9001530
  85.4092560  47.2128580  40.0801870  71.0202810  48.7015130  49.2880430
  71.8215540  49.0227180  49.7015830  70.5054630  48.3410710  50.0100340
  75.1246840  48.6899370  31.9220420  75.9175450  48.9788200  31.4702210
  74.6051190  48.2591540  31.2432900  79.8567440  44.8095000  49.2355840
  79.2505600  44.8326600  48.4951590  79.5521550  44.0778040  49.7723090
  68.7400620  41.1888590  48.2316480  69.2439640  40.6095870  48.8032710
  68.0008040  41.4728820  48.7692850  75.6424240  43.9102780  31.7862770
  75.5374880  43.2955130  32.5124150  75.4748460  43.3868670  31.0025780
  78.8826970  42.9722810  32.3904760  78.3337070  43.4192110  33.0347500
  79.5046230  42.4672060  32.9142430  82.9361910  44.3264910  48.3227020
  83.6771380  44.6640670  47.8194480  82.1734590  44.4956970  47.7696790
  74.5502090  41.9313730  34.2870060  74.9718510  41.7653600  35.1301450
  74.6752930  41.1213960  33.7925200  77.0629730  40.9551340  31.5347160
  77.5835390  40.2400360  31.1688310  77.7098130  41.5937210  31.8347670
  81.6107570  42.3779740  46.8582230  82.0248590  42.5324820  47.7072650
  80.6758570  42.5034960  47.0208010  82.0829740  39.7175900  48.8621380
  82.6650510  38.9628220  48.7741860  82.2591510  40.2483340  48.0852860
  75.9663250  33.4345890  44.2065720  75.5180550  33.4570150  43.3611270
  75.3328450  33.0364910  44.8036020  81.0474600  40.6153590  44.7878510
  80.5209820  41.1396210  44.1843650  81.3905940  41.2480980  45.4188240
  80.2948900  36.2203560  47.7024840  79.6064420  35.5585100  47.6374830
  81.0154920  35.7741830  48.1473300  80.9249300  32.8155190  33.7615100
  81.2051590  31.9723090  34.1174520  80.1515030  33.0478300  34.2753850
  75.4628720  34.0482200  32.2062300  75.1150720  33.3706190  31.6264750
  75.6641490  33.5871710  33.0205690  77.6277760  49.0362950  33.8248900
  78.5228550  49.3747920  33.8467660  77.6595390  48.3142360  33.1973180
  85.8473560  45.3084440  31.8684810  85.0166520  45.3761090  32.3392040
  86.0245390  46.1988560  31.5651670  83.2923750  44.2918600  44.6291260
  82.4783590  44.7215760  44.8917050  83.6997950  44.9037010  44.0160310
  71.2562370  45.4755110  48.3050160  71.2132000  45.1048020  49.1864620
  71.3873380  46.4132680  48.4451980  83.9012010  49.6932500  41.9857260
  83.4414980  50.4448310  41.6115280  83.2724470  48.9738970  41.9272060
  78.2880240  32.6319430  42.5670880  77.5052030  33.1064930  42.8467640
  77.9943170  31.7274260  42.4584060  69.6320650  32.9366910  35.0884600
  70.3900010  33.0495790  34.5148630  69.1697820  33.7736110  35.0428030
  76.1734460  35.0506180  38.0786910  75.3608970  34.6763070  37.7382790
  76.6776100  34.2951260  38.3808100  80.6759440  31.7148630  39.3169980
  81.2788810  32.2868840  39.7918500  79.9352430  32.2788070  39.0943880
  83.8194040  32.1170190  34.5910260  84.0144670  33.0153640  34.8577690
  83.0323910  31.8857270  35.0843210  74.1983640  33.2006100  36.6831960
  73.5686380  32.4993410  36.8502090  73.6588780  33.9610230  36.4665120
  72.3763090  45.8630470  33.9098460  71.7471970  46.3315570  34.4584290
  72.4910920  45.0179690  34.3444650  79.8312810  39.9136130  20.0599660
  79.7506860  38.9990740  19.7891370  79.4177230  40.4103200  19.3539370
  77.9630850  41.6915150  21.9408930  77.1872950  41.2115590  22.2307500
  78.6143780  41.0120800  21.7665090  71.9796680  42.0034960  22.8184690
  71.1481560  41.7483670  23.2181200  72.5877660  42.0745730  23.5542610
  81.9838280  46.0975340  20.7208060  81.5219810  45.3262580  21.0495230
  82.7963830  46.1241410  21.2260510  71.9597940  46.0375050  23.0142710
  72.2625980  45.1472790  22.8352930  72.7041530  46.5945270  22.7864960
  70.3888630  36.9636850  16.6027080  69.5005330  37.3052820  16.5006960
  70.6729820  36.7637170  15.7107910  68.3521640  39.5642500  22.4866780
  68.9237750  38.7964700  22.4870420  68.3523180  39.8631260  21.5773390
  78.2101590  48.3833350  20.3412050  77.5913030  48.8390850  19.7706490
  79.0653370  48.5384810  19.9401750  77.4039840  44.3672340  21.9479090
  77.3348120  43.4262280  21.7868220  78.1659700  44.4573750  22.5201660
  69.5946510  34.9726860  24.2735710  69.4149350  34.0752610  24.5538470
  69.1926590  35.5198730  24.9482660  78.4345010  37.1742720  22.1748020
  78.8109830  36.3014600  22.0621690  78.3364520  37.5101420  21.2838460
  72.5650020  35.5468350  17.6365460  72.6716770  36.4472080  17.9434220
  71.6542380  35.4986320  17.3460110  82.2169130  34.6693160  19.1076360
  83.0378750  34.1789730  19.1501840  82.2503210  35.2590820  19.8608200
  70.2133180  37.4687360  22.8818050  70.8943290  37.7325730  23.5005450
  69.8981230  36.6288230  23.2156060  74.4057750  38.5154720  21.9690640
  74.9135970  39.0135690  22.6095660  74.9370990  37.7389920  21.7930000
  72.6893850  33.1553280  26.2354060  72.6912290  33.6725670  25.4299960
  71.8598160  32.6783460  26.2123990  79.0764940  43.2672590  17.7343960
  78.4582210  43.7322040  17.1706680  79.5888190  43.9600070  18.1513470
  73.9396700  42.7948460  24.4127560  73.6066080  43.4217380  25.0548630
  74.1163380  43.3210340  23.6329230  82.4530610  36.6093540  21.8803900
  81.7486180  36.8978430  22.4607010  82.8142770  37.4193650  21.5203460
  72.3709180  34.8663240  24.2424510  72.7125990  35.7105290  23.9478380
  71.4324990  35.0146980  24.3589850  73.1515800  44.7629260  26.2276740
  73.7689800  45.4380340  25.9461190  72.2908920  45.1717240  26.1364240
  68.4448140  43.9529120  15.1083590  68.0676120  44.4416220  14.3768490
  68.7021210  44.6254400  15.7390120  84.0693390  46.2268670  24.1431380
  83.3856910  46.8967780  24.1348050  84.6087680  46.4249320  23.3776240
  85.5217530  36.0548330  22.2713110  84.5742440  36.0887310  22.4028540
  85.8467520  36.8687280  22.6562470  76.0537070  32.3545510  20.5669100
  76.3612050  31.7992400  19.8504600  75.1237770  32.4889970  20.3842090
  81.6052130  48.0712800  22.8576560  81.6179290  47.6675090  21.9898820
  81.0527350  48.8460090  22.7537990  82.8997550  44.7929020  17.9466730
  82.7893880  43.8503350  18.0716150  82.8965800  45.1544660  18.8329490
  81.0037570  42.9742640  24.1859170  81.4206360  42.7602750  23.3512630
  81.7277390  43.2315430  24.7567790  78.4417830  40.4194340  17.3029220
  77.5147110  40.3531720  17.5317690  78.5942650  41.3574470  17.1884460
  78.4286910  36.6911340  14.2996380  77.4890580  36.8525300  14.3848840
  78.7470170  37.4097020  13.7532370  84.9499670  41.3729860  24.2775410
  84.1218300  41.4422950  23.8025540  85.5450150  41.9584170  23.8091240
  82.4715120  41.9814640  17.8064470  81.8527540  41.6434190  17.1590770
  82.4539570  41.3374400  18.5143660  81.9141680  38.1599180  25.2230280
  81.5012860  38.9852890  25.4770270  81.1817630  37.5744220  25.0306640
  74.0474470  40.9459080  20.0848950  73.6431470  40.2336330  19.5894850
  74.1337590  40.6012320  20.9736990  74.5156170  44.6326640  22.2488160
  74.2184460  44.0272110  21.5695940  75.4655990  44.6703950  22.1377520
  72.7603090  37.7202290  23.8647990  73.3117680  37.8297630  23.0901240
  73.2746600  38.0939890  24.5803220  82.6041780  48.2058510  25.9111260
  82.1272340  49.0130700  25.7183870  81.9203570  47.5536840  26.0637470
  80.6479820  41.2201450  14.8137220  81.0873100  40.3823880  14.6675040
  81.3608240  41.8530850  14.9001360  78.7575200  46.1597520  18.7818460
  79.1971110  46.9021850  18.3673850  78.6962090  46.4024090  19.7057420
  74.2326170  47.1843350  29.6838480  74.2041600  47.5886300  28.8166910
  74.0691140  46.2553710  29.5210080  84.2296960  32.4744260  13.1278260
  83.9169620  32.5671090  14.0277330  84.9909430  33.0525290  13.0775690
  70.7479100  39.8404060  17.5855600  70.6276700  40.5666150  16.9736870
  70.4379990  39.0706970  17.1083510  86.1840990  47.9670450  30.9802650
  86.6600710  48.4453340  31.6591730  86.8048150  47.8987940  30.2548150
  68.3864470  43.0119200  23.3924240  68.4644890  43.1467970  22.4479960
  69.0006150  42.3035090  23.5852360  69.6312100  44.7119390  19.8030420
  69.2240180  44.8533980  18.9484020  70.5225110  44.4279550  19.6001630
  85.5874240  45.1583300  28.1402660  85.7137300  44.9195180  27.2219840
  85.6295620  44.3267840  28.6124740  79.4490980  48.8611300  26.7097470
  79.9635650  48.7719310  27.5119900  78.6060060  49.2071000  27.0025380
  81.4245380  49.1466640  16.1381470  81.2646520  48.8569580  17.0363300
  81.2592090  48.3706770  15.6026700  73.9033760  48.9265170  17.9153090
  73.7276240  48.0100710  17.7020890  73.0489500  49.2852460  18.1550890
  81.1271510  46.6554200  14.6979470  80.4336670  46.6531490  14.0381750
  81.8694370  46.2313520  14.2673640  80.6921440  48.2816910  18.7727960
  81.1478390  47.5006290  19.0866580  81.0313960  48.9923730  19.3169140
  68.4423990  44.0533370  25.9318700  68.6055030  43.5838730  25.1138070
  68.9076440  43.5456930  26.5967540  73.2142760  33.1839130  20.9679270
  72.7710910  33.9648670  20.6363790  73.7727750  33.5069020  21.6750210
  77.5012570  36.0507650  26.5714590  77.0391940  36.2590670  27.3834530
  77.0990680  35.2367000  26.2685260  82.5017080  37.2716600  27.7011250
  81.6510670  36.9722350  28.0220320  82.3418870  37.5158610  26.7895070
  79.5966790  38.7718350  29.8010040  79.9220200  37.9382100  29.4612270
  80.3847120  39.2946870  29.9488370  76.3301580  32.8049830  15.8485100
  75.7055760  32.8009700  16.5738410  76.2431700  31.9380790  15.4521070
  75.2518660  33.7286460  22.8268870  75.5490990  34.6349290  22.7460890
  75.8004220  33.2405240  22.2128440  73.0056980  38.3072700  18.6960520
  72.7797900  38.0909870  19.6007140  72.2249510  38.7401160  18.3506490
  80.2354740  38.3136070  17.2951170  79.6363630  39.0371870  17.1114790
  80.7834350  38.2512850  16.5127620  78.8419610  36.9499610  19.3254450
  79.2349180  37.2671810  18.5123140  79.2036460  36.0711490  19.4398970
  77.1511780  35.7006920  30.5851310  76.4610100  35.5079120  31.2197400
  77.8944080  35.9841560  31.1175610  67.8783780  33.5400410  21.5484650
  67.5896830  34.1103270  22.2609630  68.6229540  33.0604860  21.9115880
  68.0654010  37.4820530  12.7587370  67.9828680  38.4251290  12.9002360
  67.7137070  37.3395440  11.8799720  79.4274750  39.5405360  23.4205230
  78.6955870  40.0492170  23.7695330  79.0299090  38.7235340  23.1194010
  75.8652140  36.2159560  21.8257720  75.8688200  35.7749510  20.9762260
  76.7603260  36.5376890  21.9329540  71.7154520  36.0986050  20.7851930
  71.3754570  36.5761280  21.5418980  70.9531840  35.6451170  20.4253030
  75.9272290  37.2171640  14.8164480  76.0485110  37.1758120  15.7650300
  75.5420800  38.0795790  14.6611210  79.8900660  34.9939040  22.8328170
  79.9073400  35.4447690  23.6770020  79.6416240  34.0944680  23.0461610
  74.9393790  39.5272780  14.2147780  74.3710690  39.0791030  13.5883690
  75.6482790  39.8865560  13.6812930  76.1660110  40.2761340  23.5723130
  76.5330240  39.8019910  24.3184470  75.9765170  41.1502910  23.9131470
  69.0300600  35.0205030  19.7016600  68.7447520  34.6560700  20.5395220
  68.9679460  34.2885490  19.0879740  73.9559480  39.3169980  25.8907340
  73.6516550  40.1961960  26.1157700  74.9105940  39.3769770  25.9264780
  72.4841270  43.5230970  16.4874190  71.7103530  42.9828590  16.3272910
  73.2135900  43.0037580  16.1491950  83.2429250  42.5196330  22.2800580
  83.9628370  43.0151620  21.8896690  83.0411070  41.8414220  21.6354450
  78.7039190  33.9134290  16.4229970  77.8903800  33.4147460  16.3475280
  78.5101140  34.7532540  16.0066320  78.6248050  42.5905390  28.1669580
  78.5585360  41.6701060  27.9127170  77.9953190  42.6880830  28.8814220
  81.4187580  38.2853940  14.7192130  82.3067200  38.5971170  14.5443470
  81.3892670  37.4126190  14.3272710  72.5278670  43.1911350  20.1253000
  73.0457340  42.3879610  20.0709890  72.0762690  43.1290490  20.9669830
  77.4148170  44.4577630  15.3980300  77.7563870  45.2019860  14.9023620
  76.5860880  44.7708750  15.7605130  78.5564780  45.4125960  27.9173380
  78.5709320  44.4806920  27.6992290  77.8489880  45.4985720  28.5563150
  83.6901850  39.5965780  14.1871990  83.6065570  40.0280000  13.3368430
  84.4096040  40.0564130  14.6198810  84.7189100  46.4508040  16.9154120
  84.0765260  45.7963660  17.1897840  84.3319760  46.8563130  16.1394790
  80.2975580  43.7793470  20.7625810  80.6499400  43.1821600  20.1027180
  79.4137910  43.4537700  20.9334060  76.3838860  44.5391160  18.1696220
  77.0709990  45.0860370  18.5503810  75.5971280  45.0831890  18.2045830
  68.5231260  40.1563980  13.6613300  69.3926110  40.4388780  13.9449220
  68.0321580  40.9699850  13.5462110  75.6866070  41.5437190  17.7821580
  76.1428850  42.3542440  18.0081770  75.3354280  41.2260330  18.6140070
  77.9898680  47.0543530  25.0113880  78.6340900  47.2602910  25.6887300
  78.3528120  46.2931930  24.5584730  71.5877850  31.8874840  18.2544100
  71.4592480  31.8792740  19.2029020  70.7639870  32.2257930  17.9035110
  79.2630760  45.0575880  23.7291330  79.9052990  44.3569040  23.8423500
  79.7880110  45.8374320  23.5488220  83.1086480  45.3424500  13.4530470
  82.8824060  44.6254940  14.0455110  82.7182680  45.0936940  12.6152220
  81.0368380  45.8570780  26.9327390  81.3724620  46.4437470  27.6105310
  80.1168720  45.7263490  27.1625180  68.8902510  49.3691360  14.2274930
  69.2500150  49.9680700  13.5732200  68.7494850  49.9151250  15.0009960
  68.5871780  33.6465960  27.7150800  67.8730300  33.8462880  28.3203410
  69.0066820  32.8705530  28.0865600  82.6902730  43.2596440  15.1144630
  82.4024430  43.7209130  15.9022510  83.4854900  42.7994210  15.3828850
  76.8656960  45.9062110  30.1015450  76.5453830  45.1871350  30.6461140
  76.1915320  46.5817180  30.1751510  74.9071130  46.7522560  15.0448600
  74.8981230  47.4852250  14.4293110  73.9869490  46.5054140  15.1375560
  70.5077770  41.9737450  15.7895360  69.9005720  42.7136350  15.7990660
  70.9827120  42.0636810  14.9633560  80.0810560  36.1388270  25.4652250
  80.4491380  35.3183480  25.7931820  79.2208760  36.1990160  25.8807900
  83.4472590  35.0945210  16.2739810  82.8185750  35.1990880  15.5598040
  82.9524510  35.3141990  17.0633690  77.8930730  46.8150800  13.7073790
  77.9942710  46.6114790  12.7775770  76.9932470  46.5609080  13.9121570
  75.4156620  37.3731160  17.6897690  74.7072770  37.8417500  18.1311300
  75.7001100  36.7153170  18.3242880  77.0412550  38.7927860  25.6890220
  77.5397800  39.2673680  26.3542070  77.1835500  37.8691380  25.8960250
  79.4472050  34.0981820  19.1293480  79.3239830  34.1167950  18.1802990
  80.3956610  34.1460760  19.2491880  76.5348840  49.3337120  18.4021460
  76.7890340  49.2958510  17.4800830  75.5861320  49.2070450  18.3949710
  73.6191640  35.6816240  15.0648400  74.4682170  36.1186390  14.9988590
  73.2522910  35.9936500  15.8920460  84.2479410  35.0095820  26.5318610
  83.7453010  35.7501220  26.8712420  85.0636070  35.3979820  26.2155400
  82.5401420  40.2529000  19.9779970  81.5991560  40.2679230  20.1527660
  82.8545490  39.4664960  20.4240270  72.5183060  41.9348600  13.5383930
  73.2846330  41.8229960  14.1009360  72.5957750  41.2386570  12.8860700
  71.2129820  39.3673670  14.2216820  71.2933410  38.4201180  14.3334220
  72.1049570  39.6980550  14.3277480  84.5427000  47.4237850  21.6534230
  84.6674420  48.2469020  22.1258040  85.4092560  47.2128580  21.3058380
  72.0144530  49.5169060  21.3251360  72.7507010  48.9684520  21.5959930
  72.3985450  50.3825070  21.1857350  68.8990010  45.5842630  17.1992870
  67.9729790  45.8263770  17.1898280  69.3646440  46.4116890  17.0777620
  75.1246840  48.6899370  13.1476930  75.9175450  48.9788200  12.6958720
  74.6051190  48.2591540  12.4689410  79.8567440  44.8095000  30.4612350
  79.2505600  44.8326600  29.7208100  79.5521550  44.0778040  30.9979600
  81.2867810  48.5375290  29.0721760  82.2389560  48.4533310  29.0222000
  81.1396030  49.2017000  29.7455550  84.1777010  47.9169500  14.5713670
  83.8918520  47.5034640  13.7567850  83.9796560  48.8457210  14.4514190
  75.6424240  43.9102780  13.0119280  75.5374880  43.2955130  13.7380660
  75.4748460  43.3868670  12.2282290  75.7938560  42.5959580  28.9908510
  75.0284230  43.1644580  28.9063180  75.9754520  42.3035790  28.0976740
  78.8826970  42.9722810  13.6161270  78.3337070  43.4192110  14.2604010
  79.5046230  42.4672060  14.1398940  82.9361910  44.3264910  29.5483530
  83.6771380  44.6640670  29.0450990  82.1734590  44.4956970  28.9953300
  74.5502090  41.9313730  15.5126570  74.9718510  41.7653600  16.3557960
  74.6752930  41.1213960  15.0181710  77.0629730  40.9551340  12.7603670
  77.5835390  40.2400360  12.3944820  77.7098130  41.5937210  13.0604180
  81.6107570  42.3779740  28.0838740  82.0248590  42.5324820  28.9329160
  80.6758570  42.5034960  28.2464520  82.0829740  39.7175900  30.0877890
  82.6650510  38.9628220  29.9998370  82.2591510  40.2483340  29.3109370
  73.2001810  34.8772650  28.3994840  73.1058680  34.2593400  27.6745710
  72.6199200  35.6038940  28.1724750  75.9663250  33.4345890  25.4322230
  75.5180550  33.4570150  24.5867780  75.3328450  33.0364910  26.0292530
  76.3722800  42.3300220  26.0534670  76.7910910  43.1732950  25.8810910
  75.4531430  42.4672260  25.8241450  78.7086700  40.0616400  27.4372510
  78.8282910  39.4657540  28.1767350  79.5680700  40.0986090  27.0173810
  81.0474600  40.6153590  26.0135020  80.5209820  41.1396210  25.4100160
  81.3905940  41.2480980  26.6444750  73.4460990  38.0046960  12.4584730
  73.2450050  37.1414320  12.8198070  73.2753040  37.9180320  11.5206330
  74.2230220  48.6353230  27.1692400  73.6851310  49.3599290  26.8501100
  74.4764180  48.1583570  26.3789740  80.2948900  36.2203560  28.9281350
  79.6064420  35.5585100  28.8631340  81.0154920  35.7741830  29.3729810
  80.9249300  32.8155190  14.9871610  81.2051590  31.9723090  15.3431030
  80.1515030  33.0478300  15.5010360  72.2443790  35.1047580  12.4462610
  72.5469690  35.1115010  11.5381760  72.9838380  34.7545440  12.9430270
  77.0792430  49.8704440  27.4279050  77.0051130  50.7739580  27.7351420
  76.1771270  49.5516340  27.4001120  75.4628720  34.0482200  13.4318810
  75.1150720  33.3706190  12.8521260  75.6641490  33.5871710  14.2462200
  77.6277760  49.0362950  15.0505410  78.5228550  49.3747920  15.0724170
  77.6595390  48.3142360  14.4229690  71.2673920  44.4090000  13.2792410
  71.7048790  44.9519670  13.9349990  71.7521650  43.5836950  13.2888750
  68.4819720  47.1979030  20.7312670  68.8122730  46.3300090  20.4991310
  68.9110720  47.4037550  21.5617630  73.0781640  45.5288040  18.3914640
  72.7777180  45.4053010  19.2918550  72.9719130  44.6696630  17.9830370
  68.9709930  48.0649620  23.4694300  68.5340920  48.2450420  24.3018450
  69.5387610  48.8224240  23.3276020  84.6072110  47.5666620  27.7571610
  84.0074100  47.6259180  27.0135530  84.7366010  46.6271600  27.8868460
  85.8473560  45.3084440  13.0941320  85.0166520  45.3761090  13.5648550
  86.0245390  46.1988560  12.7908180  85.3030020  42.0531920  15.5975520
  86.0648930  42.6228570  15.7035210  85.3184390  41.4859120  16.3683830
  68.8034360  40.5769850  19.8283180  68.1483200  40.3081490  19.1842880
  69.6412310  40.4674330  19.3785160  86.3089990  42.9082020  20.4417450
  86.6798820  42.1249340  20.0353420  86.9491920  43.5971120  20.2634750
  83.2923750  44.2918600  25.8547770  82.4783590  44.7215760  26.1173560
  83.6997950  44.9037010  25.2416820  85.3549190  42.3466290  12.7548040
  85.6298030  43.2545170  12.6267260  85.1659930  42.2828820  13.6910030
  81.7524800  35.3711140  14.0501670  82.1709680  35.1842120  13.2098330
  81.4460860  34.5190190  14.3604600  85.2514530  40.2835280  17.7477470
  84.8758130  39.5163210  17.3158760  84.5217650  40.6657980  18.2352400
  69.8410290  40.9622420  24.3686520  70.2083330  40.8749820  25.2482540
  69.2721110  40.1988970  24.2693380  68.0172440  37.7868780  15.7708510
  67.1136520  38.0498980  15.5960170  68.5013060  38.0579950  14.9908470
  84.5265490  38.5092770  21.0484710  85.0502970  38.0155420  20.4174880
  85.1124910  38.6443130  21.7932280  84.7055210  38.5932640  24.5704260
  83.7557920  38.5596180  24.6849250  84.8868220  39.5032750  24.3354030
  70.5599650  36.8434320  13.6802890  71.2691350  36.4217540  13.1950170
  69.8439590  36.9109550  13.0486240  70.2073810  32.8973650  12.7205540
  70.9301940  33.4382590  13.0386760  70.4798330  32.6237070  11.8447080
  84.0165460  37.7666120  16.9877120  84.5124580  37.5336990  17.7726000
  83.8181530  36.9277960  16.5714760  69.8966000  32.1479840  22.6228160
  70.5442190  31.5977220  22.1823320  70.3167840  32.4022990  23.4443970
  85.4452620  36.4027070  19.5214800  85.3351900  36.2483110  20.4597070
  86.2060210  35.8748010  19.2790210  83.7918340  32.3421200  25.9797800
  84.4290560  32.9555340  26.3456990  83.9393230  32.3781860  25.0347030
  86.3342890  34.2334990  12.7620940  87.2592200  34.1016170  12.5539230
  86.3118680  34.3127810  13.7157390  86.4081380  35.0045650  15.3877650
  85.6132880  34.9390770  15.9170560  86.6124660  35.9396290  15.3763000
  83.3499800  49.0437200  19.3816040  83.9458870  48.7221770  18.7050460
  83.6077950  48.5709020  20.1729310  69.6498000  32.3035510  25.3653480
  69.3012820  32.7599330  26.1311660  69.3185700  31.4092640  25.4475910
  74.9568400  47.0314700  25.1316390  74.7159760  47.2989260  24.2446910
  75.8971040  47.2020430  25.1867250  77.1622820  33.4947390  28.8872900
  77.1011710  34.0869220  29.6368310  78.1023200  33.3873350  28.7423160
  79.7997380  33.1517450  28.5265190  80.4137790  33.4696740  27.8646270
  80.3446940  32.6666040  29.1461050  86.2172560  49.0509080  25.9327030
  85.7230840  49.4477950  25.2154160  85.6085850  48.4258290  26.3264310
  70.3218640  31.8311710  28.6404250  70.8701630  31.6499760  27.8770360
  70.3873950  31.0405820  29.1760560  71.0950400  48.4217360  26.6504450
  70.5010720  48.2902060  27.3894490  71.0874240  47.5855500  26.1846550
  80.5405420  31.7149590  24.8534480  79.6665260  32.0484700  24.6507410
  80.4316170  31.2422770  25.6786350  81.4477400  33.9220460  26.2376200
  81.1190760  33.1072220  25.8577930  82.3959700  33.8790270  26.1141890
  83.9012010  49.6932500  23.2113770  83.4414980  50.4448310  22.8371790
  83.2724470  48.9738970  23.1528570  70.7262630  45.7875740  25.6012490
  69.9996690  45.1681030  25.5338440  70.7871780  46.1816350  24.7310570
  74.3307730  48.0020740  22.3861900  74.8472750  47.3908100  21.8610160
  74.9805110  48.5049520  22.8772910  77.0703230  48.8929230  23.2130880
  77.3581040  48.6383530  22.3363890  77.5826450  48.3406590  23.8036450
  78.2880240  32.6319430  23.7927390  77.5052030  33.1064930  24.0724150
  77.9943170  31.7274260  23.6840570  82.8401310  33.3342530  21.8376480
  83.2809400  33.2787630  20.9898080  82.5708900  34.2500540  21.9086660
  84.7039880  32.9657770  19.8485300  84.6428280  32.0218990  19.7016320
  85.4831910  33.0737860  20.3938760  69.0092630  49.1050130  18.8109250
  68.8414670  48.4720810  19.5091140  68.1427140  49.3109530  18.4603440
  69.6320650  32.9366910  16.3141110  70.3900010  33.0495790  15.7405140
  69.1697820  33.7736110  16.2684540  76.1734460  35.0506180  19.3043420
  75.3608970  34.6763070  18.9639300  76.6776100  34.2951260  19.6064610
  80.6759440  31.7148630  20.5426490  81.2788810  32.2868840  21.0175010
  79.9352430  32.2788070  20.3200390  83.8194040  32.1170190  15.8166770
  84.0144670  33.0153640  16.0834200  83.0323910  31.8857270  16.3099720
  70.6155330  47.7983360  16.2559390  70.0902950  48.1791390  15.5521350
  70.5399910  48.4234130  16.9769100  72.0045800  33.4630960  14.8543080
  72.5338560  32.6760760  14.7251030  72.6374120  34.1422150  15.0878610
  74.1983640  33.2006100  17.9088470  73.5686380  32.4993410  18.0758600
  73.6588780  33.9610230  17.6921630  77.1375590  49.8145330  30.5799080
  78.0642900  49.5789600  30.6235040  77.1226020  50.6417330  30.0985110
  85.3720650  49.3570900  17.5773330  85.5472840  48.6708640  16.9334250
  84.6742220  49.8817950  17.1850000  74.3239200  32.4790080  30.3440960
  74.0423470  32.9823680  29.5801780  74.7058900  31.6811830  29.9783090
  73.2148300  49.7465740  15.1308640  73.9467120  49.4625020  14.5832530
  73.4741970  49.5079020  16.0208020  72.3763090  45.8630470  15.1354970
  71.7471970  46.3315570  15.6840800  72.4910920  45.0179690  15.5701160
  80.9254660  31.8943660  30.9221430  80.8120110  32.2138270  31.8172950
  81.7424400  32.2956170  30.6258710  83.7053150  49.0415190  30.4040120
  84.4978470  48.5464420  30.1966080  83.9986300  49.7205330  31.0115730
  77.9630850  41.6915150   3.1665440  77.1872950  41.2115590   3.4564010
  78.6143780  41.0120800   2.9921600  71.9796680  42.0034960   4.0441200
  71.1481560  41.7483670   4.4437710  72.5877660  42.0745730   4.7799120
  81.9838280  46.0975340   1.9464570  81.5219810  45.3262580   2.2751740
  82.7963830  46.1241410   2.4517020  71.9597940  46.0375050   4.2399220
  72.2625980  45.1472790   4.0609440  72.7041530  46.5945270   4.0121470
  68.3521640  39.5642500   3.7123290  68.9237750  38.7964700   3.7126930
  68.3523180  39.8631260   2.8029900  77.4039840  44.3672340   3.1735600
  77.3348120  43.4262280   3.0124730  78.1659700  44.4573750   3.7458170
  69.5946510  34.9726860   5.4992220  69.4149350  34.0752610   5.7794980
  69.1926590  35.5198730   6.1739170  78.4345010  37.1742720   3.4004530
  78.8109830  36.3014600   3.2878200  78.3364520  37.5101420   2.5094970
  70.2133180  37.4687360   4.1074560  70.8943290  37.7325730   4.7261960
  69.8981230  36.6288230   4.4412570  74.4057750  38.5154720   3.1947150
  74.9135970  39.0135690   3.8352170  74.9370990  37.7389920   3.0186510
  86.5068680  36.6859910   6.8976500  85.8020850  37.0741620   6.3791610
  86.7726600  37.3810200   7.4997430  72.6893850  33.1553280   7.4610570
  72.6912290  33.6725670   6.6556470  71.8598160  32.6783460   7.4380500
  73.9396700  42.7948460   5.6384070  73.6066080  43.4217380   6.2805140
  74.1163380  43.3210340   4.8585740  82.4530610  36.6093540   3.1060410
  81.7486180  36.8978430   3.6863520  82.8142770  37.4193650   2.7459970
  72.3709180  34.8663240   5.4681020  72.7125990  35.7105290   5.1734890
  71.4324990  35.0146980   5.5846360  73.1515800  44.7629260   7.4533250
  73.7689800  45.4380340   7.1717700  72.2908920  45.1717240   7.3620750
  84.0693390  46.2268670   5.3687890  83.3856910  46.8967780   5.3604560
  84.6087680  46.4249320   4.6032750  85.5217530  36.0548330   3.4969620
  84.5742440  36.0887310   3.6285050  85.8467520  36.8687280   3.8818980
  81.6052130  48.0712800   4.0833070  81.6179290  47.6675090   3.2155330
  81.0527350  48.8460090   3.9794500  81.0037570  42.9742640   5.4115680
  81.4206360  42.7602750   4.5769140  81.7277390  43.2315430   5.9824300
  84.9499670  41.3729860   5.5031920  84.1218300  41.4422950   5.0282050
  85.5450150  41.9584170   5.0347750  81.9141680  38.1599180   6.4486790
  81.5012860  38.9852890   6.7026780  81.1817630  37.5744220   6.2563150
  74.5156170  44.6326640   3.4744670  74.2184460  44.0272110   2.7952450
  75.4655990  44.6703950   3.3634030  72.7603090  37.7202290   5.0904500
  73.3117680  37.8297630   4.3157750  73.2746600  38.0939890   5.8059730
  82.6041780  48.2058510   7.1367770  82.1272340  49.0130700   6.9440380
  81.9203570  47.5536840   7.2893980  73.6074600  44.3708330  10.1252470
  72.7103130  44.5948300  10.3725870  73.6327470  44.4943270   9.1763870
  72.4345820  41.2421650   8.7009840  72.2953590  42.1144450   9.0697240
  71.5527180  40.8994460   8.5557780  74.2326170  47.1843350  10.9094990
  74.2041600  47.5886300  10.0423420  74.0691140  46.2553710  10.7466590
  86.1840990  47.9670450  12.2059160  86.6600710  48.4453340  12.8848240
  86.8048150  47.8987940  11.4804660  68.3864470  43.0119200   4.6180750
  68.4644890  43.1467970   3.6736470  69.0006150  42.3035090   4.8108870
  85.5874240  45.1583300   9.3659170  85.7137300  44.9195180   8.4476350
  85.6295620  44.3267840   9.8381250  79.4490980  48.8611300   7.9353980
  79.9635650  48.7719310   8.7376410  78.6060060  49.2071000   8.2281890
  85.4398250  37.2115760  10.3308910  84.8242520  37.7195430   9.8024370
  85.1194670  36.3114090  10.2734850  68.4423990  44.0533370   7.1575210
  68.6055030  43.5838730   6.3394580  68.9076440  43.5456930   7.8224050
  73.2142760  33.1839130   2.1935780  72.7710910  33.9648670   1.8620300
  73.7727750  33.5069020   2.9006720  77.5012570  36.0507650   7.7971100
  77.0391940  36.2590670   8.6091040  77.0990680  35.2367000   7.4941770
  82.5017080  37.2716600   8.9267760  81.6510670  36.9722350   9.2476830
  82.3418870  37.5158610   8.0151580  79.5966790  38.7718350  11.0266550
  79.9220200  37.9382100  10.6868780  80.3847120  39.2946870  11.1744880
  75.2518660  33.7286460   4.0525380  75.5490990  34.6349290   3.9717400
  75.8004220  33.2405240   3.4384950  75.4456190  39.2058280  10.5877300
  75.3499790  38.2653010  10.4377700  76.2888170  39.4273350  10.1925370
  70.5766730  35.6171950   8.7411080  70.1830120  36.4647160   8.9483860
  69.8885130  34.9798320   8.9319720  77.1511780  35.7006920  11.8107820
  76.4610100  35.5079120  12.4453910  77.8944080  35.9841560  12.3432120
  67.8783780  33.5400410   2.7741160  67.5896830  34.1103270   3.4866140
  68.6229540  33.0604860   3.1372390  79.4274750  39.5405360   4.6461740
  78.6955870  40.0492170   4.9951840  79.0299090  38.7235340   4.3450520
  75.8652140  36.2159560   3.0514230  75.8688200  35.7749510   2.2018770
  76.7603260  36.5376890   3.1586050  71.7154520  36.0986050   2.0108440
  71.3754570  36.5761280   2.7675490  70.9531840  35.6451170   1.6509540
  79.8900660  34.9939040   4.0584680  79.9073400  35.4447690   4.9026530
  79.6416240  34.0944680   4.2718120  83.3171410  32.4071220   9.8971060
  83.6417180  31.6760880  10.4229040  83.3527920  32.0884860   8.9952050
  70.0162970  43.4284800   9.3171020  69.6317760  42.7878470   9.9153980
  70.3275160  44.1320920   9.8865750  76.1660110  40.2761340   4.7979640
  76.5330240  39.8019910   5.5440980  75.9765170  41.1502910   5.1387980
  73.9559480  39.3169980   7.1163850  73.6516550  40.1961960   7.3414210
  74.9105940  39.3769770   7.1521290  83.2429250  42.5196330   3.5057090
  83.9628370  43.0151620   3.1153200  83.0411070  41.8414220   2.8610960
  78.6248050  42.5905390   9.3926090  78.5585360  41.6701060   9.1383680
  77.9953190  42.6880830  10.1070730  70.0123210  40.1572720   8.2635210
  69.6538150  40.8226570   8.8508550  69.7177770  39.3256270   8.6347830
  73.2136330  40.6156960  11.1474760  72.9136470  40.7614140  10.2502580
  73.9847570  40.0562250  11.0548150  78.5564780  45.4125960   9.1429890
  78.5709320  44.4806920   8.9248800  77.8489880  45.4985720   9.7819660
  84.7675990  42.0533300   8.4898470  84.0424180  42.6462080   8.2927860
  85.2951450  42.0456840   7.6911840  77.9898680  47.0543530   6.2370390
  78.6340900  47.2602910   6.9143810  78.3528120  46.2931930   5.7841240
  79.2630760  45.0575880   4.9547840  79.9052990  44.3569040   5.0680010
  79.7880110  45.8374320   4.7744730  81.0368380  45.8570780   8.1583900
  81.3724620  46.4437470   8.8361820  80.1168720  45.7263490   8.3881690
  68.5871780  33.6465960   8.9407310  67.8730300  33.8462880   9.5459920
  69.0066820  32.8705530   9.3122110  68.8744370  47.6346220   9.9273840
  68.9835490  46.6940960   9.7869230  68.2224930  47.9000970   9.2787570
  76.8656960  45.9062110  11.3271960  76.5453830  45.1871350  11.8717650
  76.1915320  46.5817180  11.4008020  80.0810560  36.1388270   6.6908760
  80.4491380  35.3183480   7.0188330  79.2208760  36.1990160   7.1064410
  77.0412550  38.7927860   6.9146730  77.5397800  39.2673680   7.5798580
  77.1835500  37.8691380   7.1216760  84.2479410  35.0095820   7.7575120
  83.7453010  35.7501220   8.0968930  85.0636070  35.3979820   7.4411910
  84.5427000  47.4237850   2.8790740  84.6674420  48.2469020   3.3514550
  85.4092560  47.2128580   2.5314890  72.0144530  49.5169060   2.5507870
  72.7507010  48.9684520   2.8216440  72.3985450  50.3825070   2.4113860
  71.0202810  48.7015130  11.7393450  71.8215540  49.0227180  12.1528850
  70.5054630  48.3410710  12.4613360  79.8567440  44.8095000  11.6868860
  79.2505600  44.8326600  10.9464610  79.5521550  44.0778040  12.2236110
  81.2867810  48.5375290  10.2978270  82.2389560  48.4533310  10.2478510
  81.1396030  49.2017000  10.9712060  68.7400620  41.1888590  10.6829500
  69.2439640  40.6095870  11.2545730  68.0008040  41.4728820  11.2205870
  75.7938560  42.5959580  10.2165020  75.0284230  43.1644580  10.1319690
  75.9754520  42.3035790   9.3233250  82.9361910  44.3264910  10.7740040
  83.6771380  44.6640670  10.2707500  82.1734590  44.4956970  10.2209810
  70.7723700  39.3318180  11.5779570  70.8129040  39.0332050  12.4864800
  71.6269200  39.7325790  11.4187090  72.7129510  37.9110280   9.5454060
  72.1825970  37.4201230   8.9177400  73.3817580  38.3394480   9.0111990
  81.6107570  42.3779740   9.3095250  82.0248590  42.5324820  10.1585670
  80.6758570  42.5034960   9.4721030  82.0829740  39.7175900  11.3134400
  82.6650510  38.9628220  11.2254880  82.2591510  40.2483340  10.5365880
  73.2001810  34.8772650   9.6251350  73.1058680  34.2593400   8.9002220
  72.6199200  35.6038940   9.3981260  75.9663250  33.4345890   6.6578740
  75.5180550  33.4570150   5.8124290  75.3328450  33.0364910   7.2549040
  76.3722800  42.3300220   7.2791180  76.7910910  43.1732950   7.1067420
  75.4531430  42.4672260   7.0497960  78.7086700  40.0616400   8.6629020
  78.8282910  39.4657540   9.4023860  79.5680700  40.0986090   8.2430320
  81.0474600  40.6153590   7.2391530  80.5209820  41.1396210   6.6356670
  81.3905940  41.2480980   7.8701260  74.2230220  48.6353230   8.3948910
  73.6851310  49.3599290   8.0757610  74.4764180  48.1583570   7.6046250
  75.4755470  36.6037750   9.9204840  76.0655160  36.2953600  10.6082660
  74.6575710  36.1317500  10.0764740  80.2948900  36.2203560  10.1537860
  79.6064420  35.5585100  10.0887850  81.0154920  35.7741830  10.5986320
  77.0792430  49.8704440   8.6535560  77.0051130  50.7739580   8.9607930
  76.1771270  49.5516340   8.6257630  68.4819720  47.1979030   1.9569180
  68.8122730  46.3300090   1.7247820  68.9110720  47.4037550   2.7874140
  68.9709930  48.0649620   4.6950810  68.5340920  48.2450420   5.5274960
  69.5387610  48.8224240   4.5532530  84.6072110  47.5666620   8.9828120
  84.0074100  47.6259180   8.2392040  84.7366010  46.6271600   9.1124970
  83.2923750  44.2918600   7.0804280  82.4783590  44.7215760   7.3430070
  83.6997950  44.9037010   6.4673330  69.8410290  40.9622420   5.5943030
  70.2083330  40.8749820   6.4739050  69.2721110  40.1988970   5.4949890
  84.6414150  39.4306800   8.6073500  84.4100240  39.2019550   7.7071450
  84.9018700  40.3506350   8.5618390  69.3926290  37.8731510   9.5001450
  68.4982340  37.8398270   9.8395160  69.9323840  38.0718300  10.2652700
  83.0802220  34.6563230  11.3853200  83.9572400  34.6646630  11.7687200
  83.0923060  33.9194070  10.7745550  84.5265490  38.5092770   2.2741220
  85.0502970  38.0155420   1.6431390  85.1124910  38.6443130   3.0188790
  84.7055210  38.5932640   5.7960770  83.7557920  38.5596180   5.9105760
  84.8868220  39.5032750   5.5610540  69.8966000  32.1479840   3.8484670
  70.5442190  31.5977220   3.4079830  70.3167840  32.4022990   4.6700480
  83.7918340  32.3421200   7.2054310  84.4290560  32.9555340   7.5713500
  83.9393230  32.3781860   6.2603540  69.6498000  32.3035510   6.5909990
  69.3012820  32.7599330   7.3568170  69.3185700  31.4092640   6.6732420
  71.2562370  45.4755110  10.7563180  71.2132000  45.1048020  11.6377640
  71.3873380  46.4132680  10.8965000  74.9568400  47.0314700   6.3572900
  74.7159760  47.2989260   5.4703420  75.8971040  47.2020430   6.4123760
  77.1622820  33.4947390  10.1129410  77.1011710  34.0869220  10.8624820
  78.1023200  33.3873350   9.9679670  79.7997380  33.1517450   9.7521700
  80.4137790  33.4696740   9.0902780  80.3446940  32.6666040  10.3717560
  86.2172560  49.0509080   7.1583540  85.7230840  49.4477950   6.4410670
  85.6085850  48.4258290   7.5520820  70.3218640  31.8311710   9.8660760
  70.8701630  31.6499760   9.1026870  70.3873950  31.0405820  10.4017070
  71.0950400  48.4217360   7.8760960  70.5010720  48.2902060   8.6151000
  71.0874240  47.5855500   7.4103060  80.5405420  31.7149590   6.0790990
  79.6665260  32.0484700   5.8763920  80.4316170  31.2422770   6.9042860
  81.4477400  33.9220460   7.4632710  81.1190760  33.1072220   7.0834440
  82.3959700  33.8790270   7.3398400  83.9012010  49.6932500   4.4370280
  83.4414980  50.4448310   4.0628300  83.2724470  48.9738970   4.3785080
  70.7262630  45.7875740   6.8269000  69.9996690  45.1681030   6.7594950
  70.7871780  46.1816350   5.9567080  74.3307730  48.0020740   3.6118410
  74.8472750  47.3908100   3.0866670  74.9805110  48.5049520   4.1029420
  77.0703230  48.8929230   4.4387390  77.3581040  48.6383530   3.5620400
  77.5826450  48.3406590   5.0292960  78.2880240  32.6319430   5.0183900
  77.5052030  33.1064930   5.2980660  77.9943170  31.7274260   4.9097080
  82.8401310  33.3342530   3.0632990  83.2809400  33.2787630   2.2154590
  82.5708900  34.2500540   3.1343170  80.6759440  31.7148630   1.7683000
  81.2788810  32.2868840   2.2431520  79.9352430  32.2788070   1.5456900
  77.1375590  49.8145330  11.8055590  78.0642900  49.5789600  11.8491550
  77.1226020  50.6417330  11.3241620  74.3239200  32.4790080  11.5697470
  74.0423470  32.9823680  10.8058290  74.7058900  31.6811830  11.2039600
  80.9254660  31.8943660  12.1477940  80.8120110  32.2138270  13.0429460
  81.7424400  32.2956170  11.8515220  83.7053150  49.0415190  11.6296630
  84.4978470  48.5464420  11.4222590  83.9986300  49.7205330  12.2372240
  79.8312810  21.1392640 151.4804090  79.7506860  20.2247250 151.2095800
  79.4177230  21.6359710 150.7743800  77.9630850  22.9171660 153.3613360
  77.1872950  22.4372100 153.6511930  78.6143780  22.2377310 153.1869520
  81.9838280  27.3231850 152.1412490  81.5219810  26.5519090 152.4699660
  82.7963830  27.3497920 152.6464940  71.9597940  27.2631560 154.4347140
  72.2625980  26.3729300 154.2557360  72.7041530  27.8201780 154.2069390
  70.3888630  18.1893360 148.0231510  69.5005330  18.5309330 147.9211390
  70.6729820  17.9893680 147.1312340  68.3521640  20.7899010 153.9071210
  68.9237750  20.0221210 153.9074850  68.3523180  21.0887770 152.9977820
  78.2101590  29.6089860 151.7616480  77.5913030  30.0647360 151.1910920
  79.0653370  29.7641320 151.3606180  77.4039840  25.5928850 153.3683520
  77.3348120  24.6518790 153.2072650  78.1659700  25.6830260 153.9406090
  78.4345010  18.3999230 153.5952450  78.8109830  17.5271110 153.4826120
  78.3364520  18.7357930 152.7042890  72.5650020  16.7724860 149.0569890
  72.6716770  17.6728590 149.3638650  71.6542380  16.7242830 148.7664540
  82.2169130  15.8949670 150.5280790  83.0378750  15.4046240 150.5706270
  82.2503210  16.4847330 151.2812630  74.4057750  19.7411230 153.3895070
  74.9135970  20.2392200 154.0300090  74.9370990  18.9646430 153.2134430
  79.0764940  24.4929100 149.1548390  78.4582210  24.9578550 148.5911110
  79.5888190  25.1856580 149.5717900  82.4530610  17.8350050 153.3008330
  81.7486180  18.1234940 153.8811440  82.8142770  18.6450160 152.9407890
  68.4448140  25.1785630 146.5288020  68.0676120  25.6672730 145.7972920
  68.7021210  25.8510910 147.1594550  85.5217530  17.2804840 153.6917540
  84.5742440  17.3143820 153.8232970  85.8467520  18.0943790 154.0766900
  76.0537070  13.5802020 151.9873530  76.3612050  13.0248910 151.2709030
  75.1237770  13.7146480 151.8046520  81.6052130  29.2969310 154.2780990
  81.6179290  28.8931600 153.4103250  81.0527350  30.0716600 154.1742420
  82.8997550  26.0185530 149.3671160  82.7893880  25.0759860 149.4920580
  82.8965800  26.3801170 150.2533920  78.4417830  21.6450850 148.7233650
  77.5147110  21.5788230 148.9522120  78.5942650  22.5830980 148.6088890
  78.4286910  17.9167850 145.7200810  77.4890580  18.0781810 145.8053270
  78.7470170  18.6353530 145.1736800  82.4715120  23.2071150 149.2268900
  81.8527540  22.8690700 148.5795200  82.4539570  22.5630910 149.9348090
  74.0474470  22.1715590 151.5053380  73.6431470  21.4592840 151.0099280
  74.1337590  21.8268830 152.3941420  74.5156170  25.8583150 153.6692590
  74.2184460  25.2528620 152.9900370  75.4655990  25.8960460 153.5581950
  80.6479820  22.4457960 146.2341650  81.0873100  21.6080390 146.0879470
  81.3608240  23.0787360 146.3205790  78.7575200  27.3854030 150.2022890
  79.1971110  28.1278360 149.7878280  78.6962090  27.6280600 151.1261850
  84.2296960  13.7000770 144.5482690  83.9169620  13.7927600 145.4481760
  84.9909430  14.2781800 144.4980120  70.7479100  21.0660570 149.0060030
  70.6276700  21.7922660 148.3941300  70.4379990  20.2963480 148.5287940
  69.6312100  25.9375900 151.2234850  69.2240180  26.0790490 150.3688450
  70.5225110  25.6536060 151.0206060  81.4245380  30.3723150 147.5585900
  81.2646520  30.0826090 148.4567730  81.2592090  29.5963280 147.0231130
  73.9033760  30.1521680 149.3357520  73.7276240  29.2357220 149.1225320
  73.0489500  30.5108970 149.5755320  81.1271510  27.8810710 146.1183900
  80.4336670  27.8788000 145.4586180  81.8694370  27.4570030 145.6878070
  80.6921440  29.5073420 150.1932390  81.1478390  28.7262800 150.5071010
  81.0313960  30.2180240 150.7373570  73.2142760  14.4095640 152.3883700
  72.7710910  15.1905180 152.0568220  73.7727750  14.7325530 153.0954640
  76.3301580  14.0306340 147.2689530  75.7055760  14.0266210 147.9942840
  76.2431700  13.1637300 146.8725500  75.2518660  14.9542970 154.2473300
  75.5490990  15.8605800 154.1665320  75.8004220  14.4661750 153.6332870
  73.0056980  19.5329210 150.1164950  72.7797900  19.3166380 151.0211570
  72.2249510  19.9657670 149.7710920  80.2354740  19.5392580 148.7155600
  79.6363630  20.2628380 148.5319220  80.7834350  19.4769360 147.9332050
  78.8419610  18.1756120 150.7458880  79.2349180  18.4928320 149.9327570
  79.2036460  17.2968000 150.8603400  67.8783780  14.7656920 152.9689080
  67.5896830  15.3359780 153.6814060  68.6229540  14.2861370 153.3320310
  68.0654010  18.7077040 144.1791800  67.9828680  19.6507800 144.3206790
  67.7137070  18.5651950 143.3004150  75.8652140  17.4416070 153.2462150
  75.8688200  17.0006020 152.3966690  76.7603260  17.7633400 153.3533970
  71.7154520  17.3242560 152.2056360  71.3754570  17.8017790 152.9623410
  70.9531840  16.8707680 151.8457460  75.9272290  18.4428150 146.2368910
  76.0485110  18.4014630 147.1854730  75.5420800  19.3052300 146.0815640
  74.9393790  20.7529290 145.6352210  74.3710690  20.3047540 145.0088120
  75.6482790  21.1122070 145.1017360  69.0300600  16.2461540 151.1221030
  68.7447520  15.8817210 151.9599650  68.9679460  15.5142000 150.5084170
  72.4841270  24.7487480 147.9078620  71.7103530  24.2085100 147.7477340
  73.2135900  24.2294090 147.5696380  83.2429250  23.7452840 153.7005010
  83.9628370  24.2408130 153.3101120  83.0411070  23.0670730 153.0558880
  78.7039190  15.1390800 147.8434400  77.8903800  14.6403970 147.7679710
  78.5101140  15.9789050 147.4270750  81.4187580  19.5110450 146.1396560
  82.3067200  19.8227680 145.9647900  81.3892670  18.6382700 145.7477140
  72.5278670  24.4167860 151.5457430  73.0457340  23.6136120 151.4914320
  72.0762690  24.3547000 152.3874260  77.4148170  25.6834140 146.8184730
  77.7563870  26.4276370 146.3228050  76.5860880  25.9965260 147.1809560
  83.6901850  20.8222290 145.6076420  83.6065570  21.2536510 144.7572860
  84.4096040  21.2820640 146.0403240  84.7189100  27.6764550 148.3358550
  84.0765260  27.0220170 148.6102270  84.3319760  28.0819640 147.5599220
  80.2975580  25.0049980 152.1830240  80.6499400  24.4078110 151.5231610
  79.4137910  24.6794210 152.3538490  76.3838860  25.7647670 149.5900650
  77.0709990  26.3116880 149.9708240  75.5971280  26.3088400 149.6250260
  68.5231260  21.3820490 145.0817730  69.3926110  21.6645290 145.3653650
  68.0321580  22.1956360 144.9666540  75.6866070  22.7693700 149.2026010
  76.1428850  23.5798950 149.4286200  75.3354280  22.4516840 150.0344500
  71.5877850  13.1131350 149.6748530  71.4592480  13.1049250 150.6233450
  70.7639870  13.4514440 149.3239540  83.1086480  26.5681010 144.8734900
  82.8824060  25.8511450 145.4659540  82.7182680  26.3193450 144.0356650
  68.8902510  30.5947870 145.6479360  69.2500150  31.1937210 144.9936630
  68.7494850  31.1407760 146.4214390  82.6902730  24.4852950 146.5349060
  82.4024430  24.9465640 147.3226940  83.4854900  24.0250720 146.8033280
  74.9071130  27.9779070 146.4653030  74.8981230  28.7108760 145.8497540
  73.9869490  27.7310650 146.5579990  70.5077770  23.1993960 147.2099790
  69.9005720  23.9392860 147.2195090  70.9827120  23.2893320 146.3837990
  83.4472590  16.3201720 147.6944240  82.8185750  16.4247390 146.9802470
  82.9524510  16.5398500 148.4838120  77.8930730  28.0407310 145.1278220
  77.9942710  27.8371300 144.1980200  76.9932470  27.7865590 145.3326000
  75.4156620  18.5987670 149.1102120  74.7072770  19.0674010 149.5515730
  75.7001100  17.9409680 149.7447310  79.4472050  15.3238330 150.5497910
  79.3239830  15.3424460 149.6007420  80.3956610  15.3717270 150.6696310
  76.5348840  30.5593630 149.8225890  76.7890340  30.5215020 148.9005260
  75.5861320  30.4326960 149.8154140  73.6191640  16.9072750 146.4852830
  74.4682170  17.3442900 146.4193020  73.2522910  17.2193010 147.3124890
  82.5401420  21.4785510 151.3984400  81.5991560  21.4935740 151.5732090
  82.8545490  20.6921470 151.8444700  72.5183060  23.1605110 144.9588360
  73.2846330  23.0486470 145.5213790  72.5957750  22.4643080 144.3065130
  71.2129820  20.5930180 145.6421250  71.2933410  19.6457690 145.7538650
  72.1049570  20.9237060 145.7481910  84.5427000  28.6494360 153.0738660
  84.6674420  29.4725530 153.5462470  85.4092560  28.4385090 152.7262810
  72.0144530  30.7425570 152.7455790  72.7507010  30.1941030 153.0164360
  72.3985450  31.6081580 152.6061780  68.8990010  26.8099140 148.6197300
  67.9729790  27.0520280 148.6102710  69.3646440  27.6373400 148.4982050
  75.1246840  29.9155880 144.5681360  75.9175450  30.2044710 144.1163150
  74.6051190  29.4848050 143.8893840  84.1777010  29.1426010 145.9918100
  83.8918520  28.7291150 145.1772280  83.9796560  30.0713720 145.8718620
  75.6424240  25.1359290 144.4323710  75.5374880  24.5211640 145.1585090
  75.4748460  24.6125180 143.6486720  78.8826970  24.1979320 145.0365700
  78.3337070  24.6448620 145.6808440  79.5046230  23.6928570 145.5603370
  74.5502090  23.1570240 146.9331000  74.9718510  22.9910110 147.7762390
  74.6752930  22.3470470 146.4386140  77.0629730  22.1807850 144.1808100
  77.5835390  21.4656870 143.8149250  77.7098130  22.8193720 144.4808610
  73.4460990  19.2303470 143.8789160  73.2450050  18.3670830 144.2402500
  73.2753040  19.1436830 142.9410760  80.9249300  14.0411700 146.4076040
  81.2051590  13.1979600 146.7635460  80.1515030  14.2734810 146.9214790
  72.2443790  16.3304090 143.8667040  72.5469690  16.3371520 142.9586190
  72.9838380  15.9801950 144.3634700  75.4628720  15.2738710 144.8523240
  75.1150720  14.5962700 144.2725690  75.6641490  14.8128220 145.6666630
  77.6277760  30.2619460 146.4709840  78.5228550  30.6004430 146.4928600
  77.6595390  29.5398870 145.8434120  71.2673920  25.6346510 144.6996840
  71.7048790  26.1776180 145.3554420  71.7521650  24.8093460 144.7093180
  68.4819720  28.4235540 152.1517100  68.8122730  27.5556600 151.9195740
  68.9110720  28.6294060 152.9822060  73.0781640  26.7544550 149.8119070
  72.7777180  26.6309520 150.7122980  72.9719130  25.8953140 149.4034800
  85.8473560  26.5340950 144.5145750  85.0166520  26.6017600 144.9852980
  86.0245390  27.4245070 144.2112610  85.3030020  23.2788430 147.0179950
  86.0648930  23.8485080 147.1239640  85.3184390  22.7115630 147.7888260
  68.8034360  21.8026360 151.2487610  68.1483200  21.5338000 150.6047310
  69.6412310  21.6930840 150.7989590  86.3089990  24.1338530 151.8621880
  86.6798820  23.3505850 151.4557850  86.9491920  24.8227630 151.6839180
  85.3549190  23.5722800 144.1752470  85.6298030  24.4801680 144.0471690
  85.1659930  23.5085330 145.1114460  81.7524800  16.5967650 145.4706100
  82.1709680  16.4098630 144.6302760  81.4460860  15.7446700 145.7809030
  85.2514530  21.5091790 149.1681900  84.8758130  20.7419720 148.7363190
  84.5217650  21.8914490 149.6556830  68.0172440  19.0125290 147.1912940
  67.1136520  19.2755490 147.0164600  68.5013060  19.2836460 146.4112900
  84.5265490  19.7349280 152.4689140  85.0502970  19.2411930 151.8379310
  85.1124910  19.8699640 153.2136710  70.5599650  18.0690830 145.1007320
  71.2691350  17.6474050 144.6154600  69.8439590  18.1366060 144.4690670
  70.2073810  14.1230160 144.1409970  70.9301940  14.6639100 144.4591190
  70.4798330  13.8493580 143.2651510  84.0165460  18.9922630 148.4081550
  84.5124580  18.7593500 149.1930430  83.8181530  18.1534470 147.9919190
  85.4452620  17.6283580 150.9419230  85.3351900  17.4739620 151.8801500
  86.2060210  17.1004520 150.6994640  86.3342890  15.4591500 144.1825370
  87.2592200  15.3272680 143.9743660  86.3118680  15.5384320 145.1361820
  86.4081380  16.2302160 146.8082080  85.6132880  16.1647280 147.3374990
  86.6124660  17.1652800 146.7967430  83.3499800  30.2693710 150.8020470
  83.9458870  29.9478280 150.1254890  83.6077950  29.7965530 151.5933740
  74.3307730  29.2277250 153.8066330  74.8472750  28.6164610 153.2814590
  74.9805110  29.7306030 154.2977340  82.8401310  14.5599040 153.2580910
  83.2809400  14.5044140 152.4102510  82.5708900  15.4757050 153.3291090
  84.7039880  14.1914280 151.2689730  84.6428280  13.2475500 151.1220750
  85.4831910  14.2994370 151.8143190  69.0092630  30.3306640 150.2313680
  68.8414670  29.6977320 150.9295570  68.1427140  30.5366040 149.8807870
  69.6320650  14.1623420 147.7345540  70.3900010  14.2752300 147.1609570
  69.1697820  14.9992620 147.6888970  76.1734460  16.2762690 150.7247850
  75.3608970  15.9019580 150.3843730  76.6776100  15.5207770 151.0269040
  80.6759440  12.9405140 151.9630920  81.2788810  13.5125350 152.4379440
  79.9352430  13.5044580 151.7404820  83.8194040  13.3426700 147.2371200
  84.0144670  14.2410150 147.5038630  83.0323910  13.1113780 147.7304150
  70.6155330  29.0239870 147.6763820  70.0902950  29.4047900 146.9725780
  70.5399910  29.6490640 148.3973530  72.0045800  14.6887470 146.2747510
  72.5338560  13.9017270 146.1455460  72.6374120  15.3678660 146.5083040
  74.1983640  14.4262610 149.3292900  73.5686380  13.7249920 149.4963030
  73.6588780  15.1866740 149.1126060  85.3720650  30.5827410 148.9977760
  85.5472840  29.8965150 148.3538680  84.6742220  31.1074460 148.6054430
  73.2148300  30.9722250 146.5513070  73.9467120  30.6881530 146.0036960
  73.4741970  30.7335530 147.4412450  72.3763090  27.0886980 146.5559400
  71.7471970  27.5572080 147.1045230  72.4910920  26.2436200 146.9905590
  79.8312810  21.1392640 132.7060600  79.7506860  20.2247250 132.4352310
  79.4177230  21.6359710 132.0000310  77.9630850  22.9171660 134.5869870
  77.1872950  22.4372100 134.8768440  78.6143780  22.2377310 134.4126030
  71.9796680  23.2291470 135.4645630  71.1481560  22.9740180 135.8642140
  72.5877660  23.3002240 136.2003550  81.9838280  27.3231850 133.3669000
  81.5219810  26.5519090 133.6956170  82.7963830  27.3497920 133.8721450
  71.9597940  27.2631560 135.6603650  72.2625980  26.3729300 135.4813870
  72.7041530  27.8201780 135.4325900  70.3888630  18.1893360 129.2488020
  69.5005330  18.5309330 129.1467900  70.6729820  17.9893680 128.3568850
  68.3521640  20.7899010 135.1327720  68.9237750  20.0221210 135.1331360
  68.3523180  21.0887770 134.2234330  78.2101590  29.6089860 132.9872990
  77.5913030  30.0647360 132.4167430  79.0653370  29.7641320 132.5862690
  77.4039840  25.5928850 134.5940030  77.3348120  24.6518790 134.4329160
  78.1659700  25.6830260 135.1662600  69.5946510  16.1983370 136.9196650
  69.4149350  15.3009120 137.1999410  69.1926590  16.7455240 137.5943600
  78.4345010  18.3999230 134.8208960  78.8109830  17.5271110 134.7082630
  78.3364520  18.7357930 133.9299400  72.5650020  16.7724860 130.2826400
  72.6716770  17.6728590 130.5895160  71.6542380  16.7242830 129.9921050
  82.2169130  15.8949670 131.7537300  83.0378750  15.4046240 131.7962780
  82.2503210  16.4847330 132.5069140  70.2133180  18.6943870 135.5278990
  70.8943290  18.9582240 136.1466390  69.8981230  17.8544740 135.8617000
  74.4057750  19.7411230 134.6151580  74.9135970  20.2392200 135.2556600
  74.9370990  18.9646430 134.4390940  86.5068680  17.9116420 138.3180930
  85.8020850  18.2998130 137.7996040  86.7726600  18.6066710 138.9201860
  72.6893850  14.3809790 138.8815000  72.6912290  14.8982180 138.0760900
  71.8598160  13.9039970 138.8584930  79.0764940  24.4929100 130.3804900
  78.4582210  24.9578550 129.8167620  79.5888190  25.1856580 130.7974410
  73.9396700  24.0204970 137.0588500  73.6066080  24.6473890 137.7009570
  74.1163380  24.5466850 136.2790170  82.4530610  17.8350050 134.5264840
  81.7486180  18.1234940 135.1067950  82.8142770  18.6450160 134.1664400
  72.3709180  16.0919750 136.8885450  72.7125990  16.9361800 136.5939320
  71.4324990  16.2403490 137.0050790  73.1515800  25.9885770 138.8737680
  73.7689800  26.6636850 138.5922130  72.2908920  26.3973750 138.7825180
  68.4448140  25.1785630 127.7544530  68.0676120  25.6672730 127.0229430
  68.7021210  25.8510910 128.3851060  84.0693390  27.4525180 136.7892320
  83.3856910  28.1224290 136.7808990  84.6087680  27.6505830 136.0237180
  85.5217530  17.2804840 134.9174050  84.5742440  17.3143820 135.0489480
  85.8467520  18.0943790 135.3023410  76.0537070  13.5802020 133.2130040
  76.3612050  13.0248910 132.4965540  75.1237770  13.7146480 133.0303030
  81.6052130  29.2969310 135.5037500  81.6179290  28.8931600 134.6359760
  81.0527350  30.0716600 135.3998930  82.8997550  26.0185530 130.5927670
  82.7893880  25.0759860 130.7177090  82.8965800  26.3801170 131.4790430
  81.0037570  24.1999150 136.8320110  81.4206360  23.9859260 135.9973570
  81.7277390  24.4571940 137.4028730  78.4417830  21.6450850 129.9490160
  77.5147110  21.5788230 130.1778630  78.5942650  22.5830980 129.8345400
  78.4286910  17.9167850 126.9457320  77.4890580  18.0781810 127.0309780
  78.7470170  18.6353530 126.3993310  84.9499670  22.5986370 136.9236350
  84.1218300  22.6679460 136.4486480  85.5450150  23.1840680 136.4552180
  82.4715120  23.2071150 130.4525410  81.8527540  22.8690700 129.8051710
  82.4539570  22.5630910 131.1604600  81.9141680  19.3855690 137.8691220
  81.5012860  20.2109400 138.1231210  81.1817630  18.8000730 137.6767580
  74.0474470  22.1715590 132.7309890  73.6431470  21.4592840 132.2355790
  74.1337590  21.8268830 133.6197930  74.5156170  25.8583150 134.8949100
  74.2184460  25.2528620 134.2156880  75.4655990  25.8960460 134.7838460
  72.7603090  18.9458800 136.5108930  73.3117680  19.0554140 135.7362180
  73.2746600  19.3196400 137.2264160  82.6041780  29.4315020 138.5572200
  82.1272340  30.2387210 138.3644810  81.9203570  28.7793350 138.7098410
  73.6074600  25.5964840 141.5456900  72.7103130  25.8204810 141.7930300
  73.6327470  25.7199780 140.5968300  80.6479820  22.4457960 127.4598160
  81.0873100  21.6080390 127.3135980  81.3608240  23.0787360 127.5462300
  72.4345820  22.4678160 140.1214270  72.2953590  23.3400960 140.4901670
  71.5527180  22.1250970 139.9762210  78.7575200  27.3854030 131.4279400
  79.1971110  28.1278360 131.0134790  78.6962090  27.6280600 132.3518360
  74.2326170  28.4099860 142.3299420  74.2041600  28.8142810 141.4627850
  74.0691140  27.4810220 142.1671020  84.2296960  13.7000770 125.7739200
  83.9169620  13.7927600 126.6738270  84.9909430  14.2781800 125.7236630
  70.7479100  21.0660570 130.2316540  70.6276700  21.7922660 129.6197810
  70.4379990  20.2963480 129.7544450  86.1840990  29.1926960 143.6263590
  86.6600710  29.6709850 144.3052670  86.8048150  29.1244450 142.9009090
  68.3864470  24.2375710 136.0385180  68.4644890  24.3724480 135.0940900
  69.0006150  23.5291600 136.2313300  69.6312100  25.9375900 132.4491360
  69.2240180  26.0790490 131.5944960  70.5225110  25.6536060 132.2462570
  85.5874240  26.3839810 140.7863600  85.7137300  26.1451690 139.8680780
  85.6295620  25.5524350 141.2585680  79.4490980  30.0867810 139.3558410
  79.9635650  29.9975820 140.1580840  78.6060060  30.4327510 139.6486320
  81.4245380  30.3723150 128.7842410  81.2646520  30.0826090 129.6824240
  81.2592090  29.5963280 128.2487640  73.9033760  30.1521680 130.5614030
  73.7276240  29.2357220 130.3481830  73.0489500  30.5108970 130.8011830
  81.1271510  27.8810710 127.3440410  80.4336670  27.8788000 126.6842690
  81.8694370  27.4570030 126.9134580  80.6921440  29.5073420 131.4188900
  81.1478390  28.7262800 131.7327520  81.0313960  30.2180240 131.9630080
  85.4398250  18.4372270 141.7513340  84.8242520  18.9451940 141.2228800
  85.1194670  17.5370600 141.6939280  68.4423990  25.2789880 138.5779640
  68.6055030  24.8095240 137.7599010  68.9076440  24.7713440 139.2428480
  73.2142760  14.4095640 133.6140210  72.7710910  15.1905180 133.2824730
  73.7727750  14.7325530 134.3211150  77.5012570  17.2764160 139.2175530
  77.0391940  17.4847180 140.0295470  77.0990680  16.4623510 138.9146200
  82.5017080  18.4973110 140.3472190  81.6510670  18.1978860 140.6681260
  82.3418870  18.7415120 139.4356010  79.5966790  19.9974860 142.4470980
  79.9220200  19.1638610 142.1073210  80.3847120  20.5203380 142.5949310
  76.3301580  14.0306340 128.4946040  75.7055760  14.0266210 129.2199350
  76.2431700  13.1637300 128.0982010  75.2518660  14.9542970 135.4729810
  75.5490990  15.8605800 135.3921830  75.8004220  14.4661750 134.8589380
  73.0056980  19.5329210 131.3421460  72.7797900  19.3166380 132.2468080
  72.2249510  19.9657670 130.9967430  80.2354740  19.5392580 129.9412110
  79.6363630  20.2628380 129.7575730  80.7834350  19.4769360 129.1588560
  75.4456190  20.4314790 142.0081730  75.3499790  19.4909520 141.8582130
  76.2888170  20.6529860 141.6129800  78.8419610  18.1756120 131.9715390
  79.2349180  18.4928320 131.1584080  79.2036460  17.2968000 132.0859910
  70.5766730  16.8428460 140.1615510  70.1830120  17.6903670 140.3688290
  69.8885130  16.2054830 140.3524150  77.1511780  16.9263430 143.2312250
  76.4610100  16.7335630 143.8658340  77.8944080  17.2098070 143.7636550
  67.8783780  14.7656920 134.1945590  67.5896830  15.3359780 134.9070570
  68.6229540  14.2861370 134.5576820  68.0654010  18.7077040 125.4048310
  67.9828680  19.6507800 125.5463300  67.7137070  18.5651950 124.5260660
  79.4274750  20.7661870 136.0666170  78.6955870  21.2748680 136.4156270
  79.0299090  19.9491850 135.7654950  75.8652140  17.4416070 134.4718660
  75.8688200  17.0006020 133.6223200  76.7603260  17.7633400 134.5790480
  71.7154520  17.3242560 133.4312870  71.3754570  17.8017790 134.1879920
  70.9531840  16.8707680 133.0713970  75.9272290  18.4428150 127.4625420
  76.0485110  18.4014630 128.4111240  75.5420800  19.3052300 127.3072150
  79.8900660  16.2195550 135.4789110  79.9073400  16.6704200 136.3230960
  79.6416240  15.3201190 135.6922550  74.9393790  20.7529290 126.8608720
  74.3710690  20.3047540 126.2344630  75.6482790  21.1122070 126.3273870
  83.3171410  13.6327730 141.3175490  83.6417180  12.9017390 141.8433470
  83.3527920  13.3141370 140.4156480  70.0162970  24.6541310 140.7375450
  69.6317760  24.0134980 141.3358410  70.3275160  25.3577430 141.3070180
  76.1660110  21.5017850 136.2184070  76.5330240  21.0276420 136.9645410
  75.9765170  22.3759420 136.5592410  69.0300600  16.2461540 132.3477540
  68.7447520  15.8817210 133.1856160  68.9679460  15.5142000 131.7340680
  73.9559480  20.5426490 138.5368280  73.6516550  21.4218470 138.7618640
  74.9105940  20.6026280 138.5725720  72.4841270  24.7487480 129.1335130
  71.7103530  24.2085100 128.9733850  73.2135900  24.2294090 128.7952890
  83.2429250  23.7452840 134.9261520  83.9628370  24.2408130 134.5357630
  83.0411070  23.0670730 134.2815390  78.7039190  15.1390800 129.0690910
  77.8903800  14.6403970 128.9936220  78.5101140  15.9789050 128.6527260
  78.6248050  23.8161900 140.8130520  78.5585360  22.8957570 140.5588110
  77.9953190  23.9137340 141.5275160  81.4187580  19.5110450 127.3653070
  82.3067200  19.8227680 127.1904410  81.3892670  18.6382700 126.9733650
  72.5278670  24.4167860 132.7713940  73.0457340  23.6136120 132.7170830
  72.0762690  24.3547000 133.6130770  77.4148170  25.6834140 128.0441240
  77.7563870  26.4276370 127.5484560  76.5860880  25.9965260 128.4066070
  70.0123210  21.3829230 139.6839640  69.6538150  22.0483080 140.2712980
  69.7177770  20.5512780 140.0552260  73.2136330  21.8413470 142.5679190
  72.9136470  21.9870650 141.6707010  73.9847570  21.2818760 142.4752580
  78.5564780  26.6382470 140.5634320  78.5709320  25.7063430 140.3453230
  77.8489880  26.7242230 141.2024090  83.6901850  20.8222290 126.8332930
  83.6065570  21.2536510 125.9829370  84.4096040  21.2820640 127.2659750
  84.7675990  23.2789810 139.9102900  84.0424180  23.8718590 139.7132290
  85.2951450  23.2713350 139.1116270  84.7189100  27.6764550 129.5615060
  84.0765260  27.0220170 129.8358780  84.3319760  28.0819640 128.7855730
  80.2975580  25.0049980 133.4086750  80.6499400  24.4078110 132.7488120
  79.4137910  24.6794210 133.5795000  76.3838860  25.7647670 130.8157160
  77.0709990  26.3116880 131.1964750  75.5971280  26.3088400 130.8506770
  68.5231260  21.3820490 126.3074240  69.3926110  21.6645290 126.5910160
  68.0321580  22.1956360 126.1923050  75.6866070  22.7693700 130.4282520
  76.1428850  23.5798950 130.6542710  75.3354280  22.4516840 131.2601010
  77.9898680  28.2800040 137.6574820  78.6340900  28.4859420 138.3348240
  78.3528120  27.5188440 137.2045670  71.5877850  13.1131350 130.9005040
  71.4592480  13.1049250 131.8489960  70.7639870  13.4514440 130.5496050
  79.2630760  26.2832390 136.3752270  79.9052990  25.5825550 136.4884440
  79.7880110  27.0630830 136.1949160  83.1086480  26.5681010 126.0991410
  82.8824060  25.8511450 126.6916050  82.7182680  26.3193450 125.2613160
  81.0368380  27.0827290 139.5788330  81.3724620  27.6693980 140.2566250
  80.1168720  26.9520000 139.8086120  68.8902510  30.5947870 126.8735870
  69.2500150  31.1937210 126.2193140  68.7494850  31.1407760 127.6470900
  68.5871780  14.8722470 140.3611740  67.8730300  15.0719390 140.9664350
  69.0066820  14.0962040 140.7326540  82.6902730  24.4852950 127.7605570
  82.4024430  24.9465640 128.5483450  83.4854900  24.0250720 128.0289790
  68.8744370  28.8602730 141.3478270  68.9835490  27.9197470 141.2073660
  68.2224930  29.1257480 140.6992000  76.8656960  27.1318620 142.7476390
  76.5453830  26.4127860 143.2922080  76.1915320  27.8073690 142.8212450
  74.9071130  27.9779070 127.6909540  74.8981230  28.7108760 127.0754050
  73.9869490  27.7310650 127.7836500  70.5077770  23.1993960 128.4356300
  69.9005720  23.9392860 128.4451600  70.9827120  23.2893320 127.6094500
  80.0810560  17.3644780 138.1113190  80.4491380  16.5439990 138.4392760
  79.2208760  17.4246670 138.5268840  83.4472590  16.3201720 128.9200750
  82.8185750  16.4247390 128.2058980  82.9524510  16.5398500 129.7094630
  77.8930730  28.0407310 126.3534730  77.9942710  27.8371300 125.4236710
  76.9932470  27.7865590 126.5582510  75.4156620  18.5987670 130.3358630
  74.7072770  19.0674010 130.7772240  75.7001100  17.9409680 130.9703820
  77.0412550  20.0184370 138.3351160  77.5397800  20.4930190 139.0003010
  77.1835500  19.0947890 138.5421190  79.4472050  15.3238330 131.7754420
  79.3239830  15.3424460 130.8263930  80.3956610  15.3717270 131.8952820
  76.5348840  30.5593630 131.0482400  76.7890340  30.5215020 130.1261770
  75.5861320  30.4326960 131.0410650  73.6191640  16.9072750 127.7109340
  74.4682170  17.3442900 127.6449530  73.2522910  17.2193010 128.5381400
  84.2479410  16.2352330 139.1779550  83.7453010  16.9757730 139.5173360
  85.0636070  16.6236330 138.8616340  82.5401420  21.4785510 132.6240910
  81.5991560  21.4935740 132.7988600  82.8545490  20.6921470 133.0701210
  72.5183060  23.1605110 126.1844870  73.2846330  23.0486470 126.7470300
  72.5957750  22.4643080 125.5321640  71.2129820  20.5930180 126.8677760
  71.2933410  19.6457690 126.9795160  72.1049570  20.9237060 126.9738420
  84.5427000  28.6494360 134.2995170  84.6674420  29.4725530 134.7718980
  85.4092560  28.4385090 133.9519320  72.0144530  30.7425570 133.9712300
  72.7507010  30.1941030 134.2420870  72.3985450  31.6081580 133.8318290
  68.8990010  26.8099140 129.8453810  67.9729790  27.0520280 129.8359220
  69.3646440  27.6373400 129.7238560  71.0202810  29.9271640 143.1597880
  71.8215540  30.2483690 143.5733280  70.5054630  29.5667220 143.8817790
  75.1246840  29.9155880 125.7937870  75.9175450  30.2044710 125.3419660
  74.6051190  29.4848050 125.1150350  79.8567440  26.0351510 143.1073290
  79.2505600  26.0583110 142.3669040  79.5521550  25.3034550 143.6440540
  81.2867810  29.7631800 141.7182700  82.2389560  29.6789820 141.6682940
  81.1396030  30.4273510 142.3916490  84.1777010  29.1426010 127.2174610
  83.8918520  28.7291150 126.4028790  83.9796560  30.0713720 127.0975130
  68.7400620  22.4145100 142.1033930  69.2439640  21.8352380 142.6750160
  68.0008040  22.6985330 142.6410300  75.6424240  25.1359290 125.6580220
  75.5374880  24.5211640 126.3841600  75.4748460  24.6125180 124.8743230
  75.7938560  23.8216090 141.6369450  75.0284230  24.3901090 141.5524120
  75.9754520  23.5292300 140.7437680  78.8826970  24.1979320 126.2622210
  78.3337070  24.6448620 126.9064950  79.5046230  23.6928570 126.7859880
  82.9361910  25.5521420 142.1944470  83.6771380  25.8897180 141.6911930
  82.1734590  25.7213480 141.6414240  70.7723700  20.5574690 142.9984000
  70.8129040  20.2588560 143.9069230  71.6269200  20.9582300 142.8391520
  74.5502090  23.1570240 128.1587510  74.9718510  22.9910110 129.0018900
  74.6752930  22.3470470 127.6642650  72.7129510  19.1366790 140.9658490
  72.1825970  18.6457740 140.3381830  73.3817580  19.5650990 140.4316420
  77.0629730  22.1807850 125.4064610  77.5835390  21.4656870 125.0405760
  77.7098130  22.8193720 125.7065120  81.6107570  23.6036250 140.7299680
  82.0248590  23.7581330 141.5790100  80.6758570  23.7291470 140.8925460
  82.0829740  20.9432410 142.7338830  82.6650510  20.1884730 142.6459310
  82.2591510  21.4739850 141.9570310  73.2001810  16.1029160 141.0455780
  73.1058680  15.4849910 140.3206650  72.6199200  16.8295450 140.8185690
  75.9663250  14.6602400 138.0783170  75.5180550  14.6826660 137.2328720
  75.3328450  14.2621420 138.6753470  76.3722800  23.5556730 138.6995610
  76.7910910  24.3989460 138.5271850  75.4531430  23.6928770 138.4702390
  78.7086700  21.2872910 140.0833450  78.8282910  20.6914050 140.8228290
  79.5680700  21.3242600 139.6634750  81.0474600  21.8410100 138.6595960
  80.5209820  22.3652720 138.0561100  81.3905940  22.4737490 139.2905690
  73.4460990  19.2303470 125.1045670  73.2450050  18.3670830 125.4659010
  73.2753040  19.1436830 124.1667270  74.2230220  29.8609740 139.8153340
  73.6851310  30.5855800 139.4962040  74.4764180  29.3840080 139.0250680
  75.4755470  17.8294260 141.3409270  76.0655160  17.5210110 142.0287090
  74.6575710  17.3574010 141.4969170  80.2948900  17.4460070 141.5742290
  79.6064420  16.7841610 141.5092280  81.0154920  16.9998340 142.0190750
  80.9249300  14.0411700 127.6332550  81.2051590  13.1979600 127.9891970
  80.1515030  14.2734810 128.1471300  72.2443790  16.3304090 125.0923550
  72.5469690  16.3371520 124.1842700  72.9838380  15.9801950 125.5891210
  77.0792430  31.0960950 140.0739990  77.0051130  31.9996090 140.3812360
  76.1771270  30.7772850 140.0462060  75.4628720  15.2738710 126.0779750
  75.1150720  14.5962700 125.4982200  75.6641490  14.8128220 126.8923140
  77.6277760  30.2619460 127.6966350  78.5228550  30.6004430 127.7185110
  77.6595390  29.5398870 127.0690630  71.2673920  25.6346510 125.9253350
  71.7048790  26.1776180 126.5810930  71.7521650  24.8093460 125.9349690
  68.4819720  28.4235540 133.3773610  68.8122730  27.5556600 133.1452250
  68.9110720  28.6294060 134.2078570  73.0781640  26.7544550 131.0375580
  72.7777180  26.6309520 131.9379490  72.9719130  25.8953140 130.6291310
  68.9709930  29.2906130 136.1155240  68.5340920  29.4706930 136.9479390
  69.5387610  30.0480750 135.9736960  84.6072110  28.7923130 140.4032550
  84.0074100  28.8515690 139.6596470  84.7366010  27.8528110 140.5329400
  85.8473560  26.5340950 125.7402260  85.0166520  26.6017600 126.2109490
  86.0245390  27.4245070 125.4369120  85.3030020  23.2788430 128.2436460
  86.0648930  23.8485080 128.3496150  85.3184390  22.7115630 129.0144770
  68.8034360  21.8026360 132.4744120  68.1483200  21.5338000 131.8303820
  69.6412310  21.6930840 132.0246100  86.3089990  24.1338530 133.0878390
  86.6798820  23.3505850 132.6814360  86.9491920  24.8227630 132.9095690
  83.2923750  25.5175110 138.5008710  82.4783590  25.9472270 138.7634500
  83.6997950  26.1293520 137.8877760  85.3549190  23.5722800 125.4008980
  85.6298030  24.4801680 125.2728200  85.1659930  23.5085330 126.3370970
  81.7524800  16.5967650 126.6962610  82.1709680  16.4098630 125.8559270
  81.4460860  15.7446700 127.0065540  85.2514530  21.5091790 130.3938410
  84.8758130  20.7419720 129.9619700  84.5217650  21.8914490 130.8813340
  69.8410290  22.1878930 137.0147460  70.2083330  22.1006330 137.8943480
  69.2721110  21.4245480 136.9154320  84.6414150  20.6563310 140.0277930
  84.4100240  20.4276060 139.1275880  84.9018700  21.5762860 139.9822820
  69.3926290  19.0988020 140.9205880  68.4982340  19.0654780 141.2599590
  69.9323840  19.2974810 141.6857130  83.0802220  15.8819740 142.8057630
  83.9572400  15.8903140 143.1891630  83.0923060  15.1450580 142.1949980
  68.0172440  19.0125290 128.4169450  67.1136520  19.2755490 128.2421110
  68.5013060  19.2836460 127.6369410  84.5265490  19.7349280 133.6945650
  85.0502970  19.2411930 133.0635820  85.1124910  19.8699640 134.4393220
  84.7055210  19.8189150 137.2165200  83.7557920  19.7852690 137.3310190
  84.8868220  20.7289260 136.9814970  70.5599650  18.0690830 126.3263830
  71.2691350  17.6474050 125.8411110  69.8439590  18.1366060 125.6947180
  70.2073810  14.1230160 125.3666480  70.9301940  14.6639100 125.6847700
  70.4798330  13.8493580 124.4908020  84.0165460  18.9922630 129.6338060
  84.5124580  18.7593500 130.4186940  83.8181530  18.1534470 129.2175700
  69.8966000  13.3736350 135.2689100  70.5442190  12.8233730 134.8284260
  70.3167840  13.6279500 136.0904910  85.4452620  17.6283580 132.1675740
  85.3351900  17.4739620 133.1058010  86.2060210  17.1004520 131.9251150
  83.7918340  13.5677710 138.6258740  84.4290560  14.1811850 138.9917930
  83.9393230  13.6038370 137.6807970  86.3342890  15.4591500 125.4081880
  87.2592200  15.3272680 125.2000170  86.3118680  15.5384320 126.3618330
  86.4081380  16.2302160 128.0338590  85.6132880  16.1647280 128.5631500
  86.6124660  17.1652800 128.0223940  83.3499800  30.2693710 132.0276980
  83.9458870  29.9478280 131.3511400  83.6077950  29.7965530 132.8190250
  69.6498000  13.5292020 138.0114420  69.3012820  13.9855840 138.7772600
  69.3185700  12.6349150 138.0936850  71.2562370  26.7011620 142.1767610
  71.2132000  26.3304530 143.0582070  71.3873380  27.6389190 142.3169430
  74.9568400  28.2571210 137.7777330  74.7159760  28.5245770 136.8907850
  75.8971040  28.4276940 137.8328190  77.1622820  14.7203900 141.5333840
  77.1011710  15.3125730 142.2829250  78.1023200  14.6129860 141.3884100
  79.7997380  14.3773960 141.1726130  80.4137790  14.6953250 140.5107210
  80.3446940  13.8922550 141.7921990  86.2172560  30.2765590 138.5787970
  85.7230840  30.6734460 137.8615100  85.6085850  29.6514800 138.9725250
  70.3218640  13.0568220 141.2865190  70.8701630  12.8756270 140.5231300
  70.3873950  12.2662330 141.8221500  71.0950400  29.6473870 139.2965390
  70.5010720  29.5158570 140.0355430  71.0874240  28.8112010 138.8307490
  80.5405420  12.9406100 137.4995420  79.6665260  13.2741210 137.2968350
  80.4316170  12.4679280 138.3247290  81.4477400  15.1476970 138.8837140
  81.1190760  14.3328730 138.5038870  82.3959700  15.1046780 138.7602830
  83.9012010  30.9189010 135.8574710  83.4414980  31.6704820 135.4832730
  83.2724470  30.1995480 135.7989510  70.7262630  27.0132250 138.2473430
  69.9996690  26.3937540 138.1799380  70.7871780  27.4072860 137.3771510
  74.3307730  29.2277250 135.0322840  74.8472750  28.6164610 134.5071100
  74.9805110  29.7306030 135.5233850  77.0703230  30.1185740 135.8591820
  77.3581040  29.8640040 134.9824830  77.5826450  29.5663100 136.4497390
  78.2880240  13.8575940 136.4388330  77.5052030  14.3321440 136.7185090
  77.9943170  12.9530770 136.3301510  82.8401310  14.5599040 134.4837420
  83.2809400  14.5044140 133.6359020  82.5708900  15.4757050 134.5547600
  84.7039880  14.1914280 132.4946240  84.6428280  13.2475500 132.3477260
  85.4831910  14.2994370 133.0399700  69.0092630  30.3306640 131.4570190
  68.8414670  29.6977320 132.1552080  68.1427140  30.5366040 131.1064380
  69.6320650  14.1623420 128.9602050  70.3900010  14.2752300 128.3866080
  69.1697820  14.9992620 128.9145480  76.1734460  16.2762690 131.9504360
  75.3608970  15.9019580 131.6100240  76.6776100  15.5207770 132.2525550
  80.6759440  12.9405140 133.1887430  81.2788810  13.5125350 133.6635950
  79.9352430  13.5044580 132.9661330  83.8194040  13.3426700 128.4627710
  84.0144670  14.2410150 128.7295140  83.0323910  13.1113780 128.9560660
  70.6155330  29.0239870 128.9020330  70.0902950  29.4047900 128.1982290
  70.5399910  29.6490640 129.6230040  72.0045800  14.6887470 127.5004020
  72.5338560  13.9017270 127.3711970  72.6374120  15.3678660 127.7339550
  74.1983640  14.4262610 130.5549410  73.5686380  13.7249920 130.7219540
  73.6588780  15.1866740 130.3382570  77.1375590  31.0401840 143.2260020
  78.0642900  30.8046110 143.2695980  77.1226020  31.8673840 142.7446050
  85.3720650  30.5827410 130.2234270  85.5472840  29.8965150 129.5795190
  84.6742220  31.1074460 129.8310940  74.3239200  13.7046590 142.9901900
  74.0423470  14.2080190 142.2262720  74.7058900  12.9068340 142.6244030
  73.2148300  30.9722250 127.7769580  73.9467120  30.6881530 127.2293470
  73.4741970  30.7335530 128.6668960  72.3763090  27.0886980 127.7815910
  71.7471970  27.5572080 128.3301740  72.4910920  26.2436200 128.2162100
  80.9254660  13.1200170 143.5682370  80.8120110  13.4394780 144.4633890
  81.7424400  13.5212680 143.2719650  83.7053150  30.2671700 143.0501060
  84.4978470  29.7720930 142.8427020  83.9986300  30.9461840 143.6576670
  71.9796680  23.2291470 116.6902140  71.1481560  22.9740180 117.0898650
  72.5877660  23.3002240 117.4260060  81.9838280  27.3231850 114.5925510
  81.5219810  26.5519090 114.9212680  82.7963830  27.3497920 115.0977960
  71.9597940  27.2631560 116.8860160  72.2625980  26.3729300 116.7070380
  72.7041530  27.8201780 116.6582410  70.3888630  18.1893360 110.4744530
  69.5005330  18.5309330 110.3724410  70.6729820  17.9893680 109.5825360
  68.3521640  20.7899010 116.3584230  68.9237750  20.0221210 116.3587870
  68.3523180  21.0887770 115.4490840  78.2101590  29.6089860 114.2129500
  77.5913030  30.0647360 113.6423940  79.0653370  29.7641320 113.8119200
  77.4039840  25.5928850 115.8196540  77.3348120  24.6518790 115.6585670
  78.1659700  25.6830260 116.3919110  69.5946510  16.1983370 118.1453160
  69.4149350  15.3009120 118.4255920  69.1926590  16.7455240 118.8200110
  78.4345010  18.3999230 116.0465470  78.8109830  17.5271110 115.9339140
  78.3364520  18.7357930 115.1555910  72.5650020  16.7724860 111.5082910
  72.6716770  17.6728590 111.8151670  71.6542380  16.7242830 111.2177560
  82.2169130  15.8949670 112.9793810  83.0378750  15.4046240 113.0219290
  82.2503210  16.4847330 113.7325650  70.2133180  18.6943870 116.7535500
  70.8943290  18.9582240 117.3722900  69.8981230  17.8544740 117.0873510
  74.4057750  19.7411230 115.8408090  74.9135970  20.2392200 116.4813110
  74.9370990  18.9646430 115.6647450  86.5068680  17.9116420 119.5437440
  85.8020850  18.2998130 119.0252550  86.7726600  18.6066710 120.1458370
  72.6893850  14.3809790 120.1071510  72.6912290  14.8982180 119.3017410
  71.8598160  13.9039970 120.0841440  73.9396700  24.0204970 118.2845010
  73.6066080  24.6473890 118.9266080  74.1163380  24.5466850 117.5046680
  82.4530610  17.8350050 115.7521350  81.7486180  18.1234940 116.3324460
  82.8142770  18.6450160 115.3920910  72.3709180  16.0919750 118.1141960
  72.7125990  16.9361800 117.8195830  71.4324990  16.2403490 118.2307300
  73.1515800  25.9885770 120.0994190  73.7689800  26.6636850 119.8178640
  72.2908920  26.3973750 120.0081690  84.0693390  27.4525180 118.0148830
  83.3856910  28.1224290 118.0065500  84.6087680  27.6505830 117.2493690
  85.5217530  17.2804840 116.1430560  84.5742440  17.3143820 116.2745990
  85.8467520  18.0943790 116.5279920  76.0537070  13.5802020 114.4386550
  76.3612050  13.0248910 113.7222050  75.1237770  13.7146480 114.2559540
  81.6052130  29.2969310 116.7294010  81.6179290  28.8931600 115.8616270
  81.0527350  30.0716600 116.6255440  81.0037570  24.1999150 118.0576620
  81.4206360  23.9859260 117.2230080  81.7277390  24.4571940 118.6285240
  78.4286910  17.9167850 108.1713830  77.4890580  18.0781810 108.2566290
  78.7470170  18.6353530 107.6249820  84.9499670  22.5986370 118.1492860
  84.1218300  22.6679460 117.6742990  85.5450150  23.1840680 117.6808690
  81.9141680  19.3855690 119.0947730  81.5012860  20.2109400 119.3487720
  81.1817630  18.8000730 118.9024090  74.5156170  25.8583150 116.1205610
  74.2184460  25.2528620 115.4413390  75.4655990  25.8960460 116.0094970
  72.7603090  18.9458800 117.7365440  73.3117680  19.0554140 116.9618690
  73.2746600  19.3196400 118.4520670  82.6041780  29.4315020 119.7828710
  82.1272340  30.2387210 119.5901320  81.9203570  28.7793350 119.9354920
  73.6074600  25.5964840 122.7713410  72.7103130  25.8204810 123.0186810
  73.6327470  25.7199780 121.8224810  72.4345820  22.4678160 121.3470780
  72.2953590  23.3400960 121.7158180  71.5527180  22.1250970 121.2018720
  78.7575200  27.3854030 112.6535910  79.1971110  28.1278360 112.2391300
  78.6962090  27.6280600 113.5774870  74.2326170  28.4099860 123.5555930
  74.2041600  28.8142810 122.6884360  74.0691140  27.4810220 123.3927530
  84.2296960  13.7000770 106.9995710  83.9169620  13.7927600 107.8994780
  84.9909430  14.2781800 106.9493140  70.7479100  21.0660570 111.4573050
  70.6276700  21.7922660 110.8454320  70.4379990  20.2963480 110.9800960
  86.1840990  29.1926960 124.8520100  86.6600710  29.6709850 125.5309180
  86.8048150  29.1244450 124.1265600  68.3864470  24.2375710 117.2641690
  68.4644890  24.3724480 116.3197410  69.0006150  23.5291600 117.4569810
  69.6312100  25.9375900 113.6747870  69.2240180  26.0790490 112.8201470
  70.5225110  25.6536060 113.4719080  85.5874240  26.3839810 122.0120110
  85.7137300  26.1451690 121.0937290  85.6295620  25.5524350 122.4842190
  79.4490980  30.0867810 120.5814920  79.9635650  29.9975820 121.3837350
  78.6060060  30.4327510 120.8742830  80.6921440  29.5073420 112.6445410
  81.1478390  28.7262800 112.9584030  81.0313960  30.2180240 113.1886590
  85.4398250  18.4372270 122.9769850  84.8242520  18.9451940 122.4485310
  85.1194670  17.5370600 122.9195790  68.4423990  25.2789880 119.8036150
  68.6055030  24.8095240 118.9855520  68.9076440  24.7713440 120.4684990
  73.2142760  14.4095640 114.8396720  72.7710910  15.1905180 114.5081240
  73.7727750  14.7325530 115.5467660  77.5012570  17.2764160 120.4432040
  77.0391940  17.4847180 121.2551980  77.0990680  16.4623510 120.1402710
  82.5017080  18.4973110 121.5728700  81.6510670  18.1978860 121.8937770
  82.3418870  18.7415120 120.6612520  79.5966790  19.9974860 123.6727490
  79.9220200  19.1638610 123.3329720  80.3847120  20.5203380 123.8205820
  76.3301580  14.0306340 109.7202550  75.7055760  14.0266210 110.4455860
  76.2431700  13.1637300 109.3238520  75.2518660  14.9542970 116.6986320
  75.5490990  15.8605800 116.6178340  75.8004220  14.4661750 116.0845890
  75.4456190  20.4314790 123.2338240  75.3499790  19.4909520 123.0838640
  76.2888170  20.6529860 122.8386310  70.5766730  16.8428460 121.3872020
  70.1830120  17.6903670 121.5944800  69.8885130  16.2054830 121.5780660
  77.1511780  16.9263430 124.4568760  76.4610100  16.7335630 125.0914850
  77.8944080  17.2098070 124.9893060  67.8783780  14.7656920 115.4202100
  67.5896830  15.3359780 116.1327080  68.6229540  14.2861370 115.7833330
  68.0654010  18.7077040 106.6304820  67.9828680  19.6507800 106.7719810
  67.7137070  18.5651950 105.7517170  79.4274750  20.7661870 117.2922680
  78.6955870  21.2748680 117.6412780  79.0299090  19.9491850 116.9911460
  75.8652140  17.4416070 115.6975170  75.8688200  17.0006020 114.8479710
  76.7603260  17.7633400 115.8046990  71.7154520  17.3242560 114.6569380
  71.3754570  17.8017790 115.4136430  70.9531840  16.8707680 114.2970480
  75.9272290  18.4428150 108.6881930  76.0485110  18.4014630 109.6367750
  75.5420800  19.3052300 108.5328660  79.8900660  16.2195550 116.7045620
  79.9073400  16.6704200 117.5487470  79.6416240  15.3201190 116.9179060
  74.9393790  20.7529290 108.0865230  74.3710690  20.3047540 107.4601140
  75.6482790  21.1122070 107.5530380  83.3171410  13.6327730 122.5432000
  83.6417180  12.9017390 123.0689980  83.3527920  13.3141370 121.6412990
  70.0162970  24.6541310 121.9631960  69.6317760  24.0134980 122.5614920
  70.3275160  25.3577430 122.5326690  76.1660110  21.5017850 117.4440580
  76.5330240  21.0276420 118.1901920  75.9765170  22.3759420 117.7848920
  69.0300600  16.2461540 113.5734050  68.7447520  15.8817210 114.4112670
  68.9679460  15.5142000 112.9597190  73.9559480  20.5426490 119.7624790
  73.6516550  21.4218470 119.9875150  74.9105940  20.6026280 119.7982230
  72.4841270  24.7487480 110.3591640  71.7103530  24.2085100 110.1990360
  73.2135900  24.2294090 110.0209400  83.2429250  23.7452840 116.1518030
  83.9628370  24.2408130 115.7614140  83.0411070  23.0670730 115.5071900
  78.7039190  15.1390800 110.2947420  77.8903800  14.6403970 110.2192730
  78.5101140  15.9789050 109.8783770  78.6248050  23.8161900 122.0387030
  78.5585360  22.8957570 121.7844620  77.9953190  23.9137340 122.7531670
  72.5278670  24.4167860 113.9970450  73.0457340  23.6136120 113.9427340
  72.0762690  24.3547000 114.8387280  77.4148170  25.6834140 109.2697750
  77.7563870  26.4276370 108.7741070  76.5860880  25.9965260 109.6322580
  70.0123210  21.3829230 120.9096150  69.6538150  22.0483080 121.4969490
  69.7177770  20.5512780 121.2808770  73.2136330  21.8413470 123.7935700
  72.9136470  21.9870650 122.8963520  73.9847570  21.2818760 123.7009090
  78.5564780  26.6382470 121.7890830  78.5709320  25.7063430 121.5709740
  77.8489880  26.7242230 122.4280600  84.7675990  23.2789810 121.1359410
  84.0424180  23.8718590 120.9388800  85.2951450  23.2713350 120.3372780
  76.3838860  25.7647670 112.0413670  77.0709990  26.3116880 112.4221260
  75.5971280  26.3088400 112.0763280  77.9898680  28.2800040 118.8831330
  78.6340900  28.4859420 119.5604750  78.3528120  27.5188440 118.4302180
  71.5877850  13.1131350 112.1261550  71.4592480  13.1049250 113.0746470
  70.7639870  13.4514440 111.7752560  79.2630760  26.2832390 117.6008780
  79.9052990  25.5825550 117.7140950  79.7880110  27.0630830 117.4205670
  81.0368380  27.0827290 120.8044840  81.3724620  27.6693980 121.4822760
  80.1168720  26.9520000 121.0342630  68.5871780  14.8722470 121.5868250
  67.8730300  15.0719390 122.1920860  69.0066820  14.0962040 121.9583050
  68.8744370  28.8602730 122.5734780  68.9835490  27.9197470 122.4330170
  68.2224930  29.1257480 121.9248510  76.8656960  27.1318620 123.9732900
  76.5453830  26.4127860 124.5178590  76.1915320  27.8073690 124.0468960
  74.9071130  27.9779070 108.9166050  74.8981230  28.7108760 108.3010560
  73.9869490  27.7310650 109.0093010  70.5077770  23.1993960 109.6612810
  69.9005720  23.9392860 109.6708110  70.9827120  23.2893320 108.8351010
  80.0810560  17.3644780 119.3369700  80.4491380  16.5439990 119.6649270
  79.2208760  17.4246670 119.7525350  83.4472590  16.3201720 110.1457260
  82.8185750  16.4247390 109.4315490  82.9524510  16.5398500 110.9351140
  77.0412550  20.0184370 119.5607670  77.5397800  20.4930190 120.2259520
  77.1835500  19.0947890 119.7677700  79.4472050  15.3238330 113.0010930
  79.3239830  15.3424460 112.0520440  80.3956610  15.3717270 113.1209330
  73.6191640  16.9072750 108.9365850  74.4682170  17.3442900 108.8706040
  73.2522910  17.2193010 109.7637910  84.2479410  16.2352330 120.4036060
  83.7453010  16.9757730 120.7429870  85.0636070  16.6236330 120.0872850
  72.5183060  23.1605110 107.4101380  73.2846330  23.0486470 107.9726810
  72.5957750  22.4643080 106.7578150  71.2129820  20.5930180 108.0934270
  71.2933410  19.6457690 108.2051670  72.1049570  20.9237060 108.1994930
  84.5427000  28.6494360 115.5251680  84.6674420  29.4725530 115.9975490
  85.4092560  28.4385090 115.1775830  72.0144530  30.7425570 115.1968810
  72.7507010  30.1941030 115.4677380  72.3985450  31.6081580 115.0574800
  71.0202810  29.9271640 124.3854390  71.8215540  30.2483690 124.7989790
  70.5054630  29.5667220 125.1074300  75.1246840  29.9155880 107.0194380
  75.9175450  30.2044710 106.5676170  74.6051190  29.4848050 106.3406860
  79.8567440  26.0351510 124.3329800  79.2505600  26.0583110 123.5925550
  79.5521550  25.3034550 124.8697050  81.2867810  29.7631800 122.9439210
  82.2389560  29.6789820 122.8939450  81.1396030  30.4273510 123.6173000
  68.7400620  22.4145100 123.3290440  69.2439640  21.8352380 123.9006670
  68.0008040  22.6985330 123.8666810  75.6424240  25.1359290 106.8836730
  75.5374880  24.5211640 107.6098110  75.4748460  24.6125180 106.0999740
  75.7938560  23.8216090 122.8625960  75.0284230  24.3901090 122.7780630
  75.9754520  23.5292300 121.9694190  78.8826970  24.1979320 107.4878720
  78.3337070  24.6448620 108.1321460  79.5046230  23.6928570 108.0116390
  82.9361910  25.5521420 123.4200980  83.6771380  25.8897180 122.9168440
  82.1734590  25.7213480 122.8670750  70.7723700  20.5574690 124.2240510
  70.8129040  20.2588560 125.1325740  71.6269200  20.9582300 124.0648030
  72.7129510  19.1366790 122.1915000  72.1825970  18.6457740 121.5638340
  73.3817580  19.5650990 121.6572930  77.0629730  22.1807850 106.6321120
  77.5835390  21.4656870 106.2662270  77.7098130  22.8193720 106.9321630
  81.6107570  23.6036250 121.9556190  82.0248590  23.7581330 122.8046610
  80.6758570  23.7291470 122.1181970  82.0829740  20.9432410 123.9595340
  82.6650510  20.1884730 123.8715820  82.2591510  21.4739850 123.1826820
  73.2001810  16.1029160 122.2712290  73.1058680  15.4849910 121.5463160
  72.6199200  16.8295450 122.0442200  75.9663250  14.6602400 119.3039680
  75.5180550  14.6826660 118.4585230  75.3328450  14.2621420 119.9009980
  76.3722800  23.5556730 119.9252120  76.7910910  24.3989460 119.7528360
  75.4531430  23.6928770 119.6958900  78.7086700  21.2872910 121.3089960
  78.8282910  20.6914050 122.0484800  79.5680700  21.3242600 120.8891260
  81.0474600  21.8410100 119.8852470  80.5209820  22.3652720 119.2817610
  81.3905940  22.4737490 120.5162200  73.4460990  19.2303470 106.3302180
  73.2450050  18.3670830 106.6915520  73.2753040  19.1436830 105.3923780
  75.4755470  17.8294260 122.5665780  76.0655160  17.5210110 123.2543600
  74.6575710  17.3574010 122.7225680  80.2948900  17.4460070 122.7998800
  79.6064420  16.7841610 122.7348790  81.0154920  16.9998340 123.2447260
  80.9249300  14.0411700 108.8589060  81.2051590  13.1979600 109.2148480
  80.1515030  14.2734810 109.3727810  72.2443790  16.3304090 106.3180060
  72.5469690  16.3371520 105.4099210  72.9838380  15.9801950 106.8147720
  77.0792430  31.0960950 121.2996500  77.0051130  31.9996090 121.6068870
  76.1771270  30.7772850 121.2718570  75.4628720  15.2738710 107.3036260
  75.1150720  14.5962700 106.7238710  75.6641490  14.8128220 108.1179650
  71.2673920  25.6346510 107.1509860  71.7048790  26.1776180 107.8067440
  71.7521650  24.8093460 107.1606200  73.0781640  26.7544550 112.2632090
  72.7777180  26.6309520 113.1636000  72.9719130  25.8953140 111.8547820
  84.6072110  28.7923130 121.6289060  84.0074100  28.8515690 120.8852980
  84.7366010  27.8528110 121.7585910  68.8034360  21.8026360 113.7000630
  68.1483200  21.5338000 113.0560330  69.6412310  21.6930840 113.2502610
  86.3089990  24.1338530 114.3134900  86.6798820  23.3505850 113.9070870
  86.9491920  24.8227630 114.1352200  83.2923750  25.5175110 119.7265220
  82.4783590  25.9472270 119.9891010  83.6997950  26.1293520 119.1134270
  81.7524800  16.5967650 107.9219120  82.1709680  16.4098630 107.0815780
  81.4460860  15.7446700 108.2322050  69.8410290  22.1878930 118.2403970
  70.2083330  22.1006330 119.1199990  69.2721110  21.4245480 118.1410830
  84.6414150  20.6563310 121.2534440  84.4100240  20.4276060 120.3532390
  84.9018700  21.5762860 121.2079330  69.3926290  19.0988020 122.1462390
  68.4982340  19.0654780 122.4856100  69.9323840  19.2974810 122.9113640
  83.0802220  15.8819740 124.0314140  83.9572400  15.8903140 124.4148140
  83.0923060  15.1450580 123.4206490  68.0172440  19.0125290 109.6425960
  67.1136520  19.2755490 109.4677620  68.5013060  19.2836460 108.8625920
  84.5265490  19.7349280 114.9202160  85.0502970  19.2411930 114.2892330
  85.1124910  19.8699640 115.6649730  84.7055210  19.8189150 118.4421710
  83.7557920  19.7852690 118.5566700  84.8868220  20.7289260 118.2071480
  70.5599650  18.0690830 107.5520340  71.2691350  17.6474050 107.0667620
  69.8439590  18.1366060 106.9203690  70.2073810  14.1230160 106.5922990
  70.9301940  14.6639100 106.9104210  70.4798330  13.8493580 105.7164530
  84.0165460  18.9922630 110.8594570  84.5124580  18.7593500 111.6443450
  83.8181530  18.1534470 110.4432210  69.8966000  13.3736350 116.4945610
  70.5442190  12.8233730 116.0540770  70.3167840  13.6279500 117.3161420
  85.4452620  17.6283580 113.3932250  85.3351900  17.4739620 114.3314520
  86.2060210  17.1004520 113.1507660  83.7918340  13.5677710 119.8515250
  84.4290560  14.1811850 120.2174440  83.9393230  13.6038370 118.9064480
  86.3342890  15.4591500 106.6338390  87.2592200  15.3272680 106.4256680
  86.3118680  15.5384320 107.5874840  86.4081380  16.2302160 109.2595100
  85.6132880  16.1647280 109.7888010  86.6124660  17.1652800 109.2480450
  83.3499800  30.2693710 113.2533490  83.9458870  29.9478280 112.5767910
  83.6077950  29.7965530 114.0446760  69.6498000  13.5292020 119.2370930
  69.3012820  13.9855840 120.0029110  69.3185700  12.6349150 119.3193360
  71.2562370  26.7011620 123.4024120  71.2132000  26.3304530 124.2838580
  71.3873380  27.6389190 123.5425940  77.1622820  14.7203900 122.7590350
  77.1011710  15.3125730 123.5085760  78.1023200  14.6129860 122.6140610
  79.7997380  14.3773960 122.3982640  80.4137790  14.6953250 121.7363720
  80.3446940  13.8922550 123.0178500  70.3218640  13.0568220 122.5121700
  70.8701630  12.8756270 121.7487810  70.3873950  12.2662330 123.0478010
  80.5405420  12.9406100 118.7251930  79.6665260  13.2741210 118.5224860
  80.4316170  12.4679280 119.5503800  81.4477400  15.1476970 120.1093650
  81.1190760  14.3328730 119.7295380  82.3959700  15.1046780 119.9859340
  74.3307730  29.2277250 116.2579350  74.8472750  28.6164610 115.7327610
  74.9805110  29.7306030 116.7490360  77.0703230  30.1185740 117.0848330
  77.3581040  29.8640040 116.2081340  77.5826450  29.5663100 117.6753900
  78.2880240  13.8575940 117.6644840  77.5052030  14.3321440 117.9441600
  77.9943170  12.9530770 117.5558020  82.8401310  14.5599040 115.7093930
  83.2809400  14.5044140 114.8615530  82.5708900  15.4757050 115.7804110
  84.7039880  14.1914280 113.7202750  84.6428280  13.2475500 113.5733770
  85.4831910  14.2994370 114.2656210  69.6320650  14.1623420 110.1858560
  70.3900010  14.2752300 109.6122590  69.1697820  14.9992620 110.1401990
  76.1734460  16.2762690 113.1760870  75.3608970  15.9019580 112.8356750
  76.6776100  15.5207770 113.4782060  80.6759440  12.9405140 114.4143940
  81.2788810  13.5125350 114.8892460  79.9352430  13.5044580 114.1917840
  83.8194040  13.3426700 109.6884220  84.0144670  14.2410150 109.9551650
  83.0323910  13.1113780 110.1817170  72.0045800  14.6887470 108.7260530
  72.5338560  13.9017270 108.5968480  72.6374120  15.3678660 108.9596060
  74.1983640  14.4262610 111.7805920  73.5686380  13.7249920 111.9476050
  73.6588780  15.1866740 111.5639080  77.1375590  31.0401840 124.4516530
  78.0642900  30.8046110 124.4952490  77.1226020  31.8673840 123.9702560
  85.3720650  30.5827410 111.4490780  85.5472840  29.8965150 110.8051700
  84.6742220  31.1074460 111.0567450  74.3239200  13.7046590 124.2158410
  74.0423470  14.2080190 123.4519230  74.7058900  12.9068340 123.8500540
  72.3763090  27.0886980 109.0072420  71.7471970  27.5572080 109.5558250
  72.4910920  26.2436200 109.4418610  80.9254660  13.1200170 124.7938880
  80.8120110  13.4394780 125.6890400  81.7424400  13.5212680 124.4976160
  83.7053150  30.2671700 124.2757570  84.4978470  29.7720930 124.0683530
  83.9986300  30.9461840 124.8833180  79.8312810  21.1392640  95.1573620
  79.7506860  20.2247250  94.8865330  79.4177230  21.6359710  94.4513330
  77.9630850  22.9171660  97.0382890  77.1872950  22.4372100  97.3281460
  78.6143780  22.2377310  96.8639050  77.4039840  25.5928850  97.0453050
  77.3348120  24.6518790  96.8842180  78.1659700  25.6830260  97.6175620
  78.4345010  18.3999230  97.2721980  78.8109830  17.5271110  97.1595650
  78.3364520  18.7357930  96.3812420  82.2169130  15.8949670  94.2050320
  83.0378750  15.4046240  94.2475800  82.2503210  16.4847330  94.9582160
  86.5068680  17.9116420 100.7693950  85.8020850  18.2998130 100.2509060
  86.7726600  18.6066710 101.3714880  72.6893850  14.3809790 101.3328020
  72.6912290  14.8982180 100.5273920  71.8598160  13.9039970 101.3097950
  79.0764940  24.4929100  92.8317920  78.4582210  24.9578550  92.2680640
  79.5888190  25.1856580  93.2487430  82.4530610  17.8350050  96.9777860
  81.7486180  18.1234940  97.5580970  82.8142770  18.6450160  96.6177420
  84.0693390  27.4525180  99.2405340  83.3856910  28.1224290  99.2322010
  84.6087680  27.6505830  98.4750200  85.5217530  17.2804840  97.3687070
  84.5742440  17.3143820  97.5002500  85.8467520  18.0943790  97.7536430
  76.0537070  13.5802020  95.6643060  76.3612050  13.0248910  94.9478560
  75.1237770  13.7146480  95.4816050  82.8997550  26.0185530  93.0440690
  82.7893880  25.0759860  93.1690110  82.8965800  26.3801170  93.9303450
  81.0037570  24.1999150  99.2833130  81.4206360  23.9859260  98.4486590
  81.7277390  24.4571940  99.8541750  78.4417830  21.6450850  92.4003180
  77.5147110  21.5788230  92.6291650  78.5942650  22.5830980  92.2858420
  78.4286910  17.9167850  89.3970340  77.4890580  18.0781810  89.4822800
  78.7470170  18.6353530  88.8506330  84.9499670  22.5986370  99.3749370
  84.1218300  22.6679460  98.8999500  85.5450150  23.1840680  98.9065200
  82.4715120  23.2071150  92.9038430  81.8527540  22.8690700  92.2564730
  82.4539570  22.5630910  93.6117620  74.5156170  25.8583150  97.3462120
  74.2184460  25.2528620  96.6669900  75.4655990  25.8960460  97.2351480
  80.6479820  22.4457960  89.9111180  81.0873100  21.6080390  89.7649000
  81.3608240  23.0787360  89.9975320  84.2296960  13.7000770  88.2252220
  83.9169620  13.7927600  89.1251290  84.9909430  14.2781800  88.1749650
  69.6312100  25.9375900  94.9004380  69.2240180  26.0790490  94.0457980
  70.5225110  25.6536060  94.6975590  73.9033760  30.1521680  93.0127050
  73.7276240  29.2357220  92.7994850  73.0489500  30.5108970  93.2524850
  81.1271510  27.8810710  89.7953430  80.4336670  27.8788000  89.1355710
  81.8694370  27.4570030  89.3647600  85.4398250  18.4372270 104.2026360
  84.8242520  18.9451940 103.6741820  85.1194670  17.5370600 104.1452300
  73.2142760  14.4095640  96.0653230  72.7710910  15.1905180  95.7337750
  73.7727750  14.7325530  96.7724170  79.5966790  19.9974860 104.8984000
  79.9220200  19.1638610 104.5586230  80.3847120  20.5203380 105.0462330
  76.3301580  14.0306340  90.9459060  75.7055760  14.0266210  91.6712370
  76.2431700  13.1637300  90.5495030  75.2518660  14.9542970  97.9242830
  75.5490990  15.8605800  97.8434850  75.8004220  14.4661750  97.3102400
  80.2354740  19.5392580  92.3925130  79.6363630  20.2628380  92.2088750
  80.7834350  19.4769360  91.6101580  75.4456190  20.4314790 104.4594750
  75.3499790  19.4909520 104.3095150  76.2888170  20.6529860 104.0642820
  78.8419610  18.1756120  94.4228410  79.2349180  18.4928320  93.6097100
  79.2036460  17.2968000  94.5372930  70.5766730  16.8428460 102.6128530
  70.1830120  17.6903670 102.8201310  69.8885130  16.2054830 102.8037170
  77.1511780  16.9263430 105.6825270  76.4610100  16.7335630 106.3171360
  77.8944080  17.2098070 106.2149570  67.8783780  14.7656920  96.6458610
  67.5896830  15.3359780  97.3583590  68.6229540  14.2861370  97.0089840
  79.4274750  20.7661870  98.5179190  78.6955870  21.2748680  98.8669290
  79.0299090  19.9491850  98.2167970  75.9272290  18.4428150  89.9138440
  76.0485110  18.4014630  90.8624260  75.5420800  19.3052300  89.7585170
  83.3171410  13.6327730 103.7688510  83.6417180  12.9017390 104.2946490
  83.3527920  13.3141370 102.8669500  69.0300600  16.2461540  94.7990560
  68.7447520  15.8817210  95.6369180  68.9679460  15.5142000  94.1853700
  72.4841270  24.7487480  91.5848150  71.7103530  24.2085100  91.4246870
  73.2135900  24.2294090  91.2465910  83.2429250  23.7452840  97.3774540
  83.9628370  24.2408130  96.9870650  83.0411070  23.0670730  96.7328410
  78.7039190  15.1390800  91.5203930  77.8903800  14.6403970  91.4449240
  78.5101140  15.9789050  91.1040280  78.6248050  23.8161900 103.2643540
  78.5585360  22.8957570 103.0101130  77.9953190  23.9137340 103.9788180
  81.4187580  19.5110450  89.8166090  82.3067200  19.8227680  89.6417430
  81.3892670  18.6382700  89.4246670  77.4148170  25.6834140  90.4954260
  77.7563870  26.4276370  89.9997580  76.5860880  25.9965260  90.8579090
  78.5564780  26.6382470 103.0147340  78.5709320  25.7063430 102.7966250
  77.8489880  26.7242230 103.6537110  83.6901850  20.8222290  89.2845950
  83.6065570  21.2536510  88.4342390  84.4096040  21.2820640  89.7172770
  84.7675990  23.2789810 102.3615920  84.0424180  23.8718590 102.1645310
  85.2951450  23.2713350 101.5629290  84.7189100  27.6764550  92.0128080
  84.0765260  27.0220170  92.2871800  84.3319760  28.0819640  91.2368750
  80.2975580  25.0049980  95.8599770  80.6499400  24.4078110  95.2001140
  79.4137910  24.6794210  96.0308020  76.3838860  25.7647670  93.2670180
  77.0709990  26.3116880  93.6477770  75.5971280  26.3088400  93.3019790
  75.6866070  22.7693700  92.8795540  76.1428850  23.5798950  93.1055730
  75.3354280  22.4516840  93.7114030  71.5877850  13.1131350  93.3518060
  71.4592480  13.1049250  94.3002980  70.7639870  13.4514440  93.0009070
  79.2630760  26.2832390  98.8265290  79.9052990  25.5825550  98.9397460
  79.7880110  27.0630830  98.6462180  83.1086480  26.5681010  88.5504430
  82.8824060  25.8511450  89.1429070  82.7182680  26.3193450  87.7126180
  68.5871780  14.8722470 102.8124760  67.8730300  15.0719390 103.4177370
  69.0066820  14.0962040 103.1839560  82.6902730  24.4852950  90.2118590
  82.4024430  24.9465640  90.9996470  83.4854900  24.0250720  90.4802810
  76.8656960  27.1318620 105.1989410  76.5453830  26.4127860 105.7435100
  76.1915320  27.8073690 105.2725470  83.4472590  16.3201720  91.3713770
  82.8185750  16.4247390  90.6572000  82.9524510  16.5398500  92.1607650
  77.8930730  28.0407310  88.8047750  77.9942710  27.8371300  87.8749730
  76.9932470  27.7865590  89.0095530  75.4156620  18.5987670  92.7871650
  74.7072770  19.0674010  93.2285260  75.7001100  17.9409680  93.4216840
  77.0412550  20.0184370 100.7864180  77.5397800  20.4930190 101.4516030
  77.1835500  19.0947890 100.9934210  79.4472050  15.3238330  94.2267440
  79.3239830  15.3424460  93.2776950  80.3956610  15.3717270  94.3465840
  82.5401420  21.4785510  95.0753930  81.5991560  21.4935740  95.2501620
  82.8545490  20.6921470  95.5214230  72.0144530  30.7425570  96.4225320
  72.7507010  30.1941030  96.6933890  72.3985450  31.6081580  96.2831310
  68.8990010  26.8099140  92.2966830  67.9729790  27.0520280  92.2872240
  69.3646440  27.6373400  92.1751580  79.8567440  26.0351510 105.5586310
  79.2505600  26.0583110 104.8182060  79.5521550  25.3034550 106.0953560
  84.1777010  29.1426010  89.6687630  83.8918520  28.7291150  88.8541810
  83.9796560  30.0713720  89.5488150  75.7938560  23.8216090 104.0882470
  75.0284230  24.3901090 104.0037140  75.9754520  23.5292300 103.1950700
  78.8826970  24.1979320  88.7135230  78.3337070  24.6448620  89.3577970
  79.5046230  23.6928570  89.2372900  77.0629730  22.1807850  87.8577630
  77.5835390  21.4656870  87.4918780  77.7098130  22.8193720  88.1578140
  81.6107570  23.6036250 103.1812700  82.0248590  23.7581330 104.0303120
  80.6758570  23.7291470 103.3438480  73.2001810  16.1029160 103.4968800
  73.1058680  15.4849910 102.7719670  72.6199200  16.8295450 103.2698710
  75.9663250  14.6602400 100.5296190  75.5180550  14.6826660  99.6841740
  75.3328450  14.2621420 101.1266490  76.3722800  23.5556730 101.1508630
  76.7910910  24.3989460 100.9784870  75.4531430  23.6928770 100.9215410
  78.7086700  21.2872910 102.5346470  78.8282910  20.6914050 103.2741310
  79.5680700  21.3242600 102.1147770  75.4755470  17.8294260 103.7922290
  76.0655160  17.5210110 104.4800110  74.6575710  17.3574010 103.9482190
  80.9249300  14.0411700  90.0845570  81.2051590  13.1979600  90.4404990
  80.1515030  14.2734810  90.5984320  75.4628720  15.2738710  88.5292770
  75.1150720  14.5962700  87.9495220  75.6641490  14.8128220  89.3436160
  77.6277760  30.2619460  90.1479370  78.5228550  30.6004430  90.1698130
  77.6595390  29.5398870  89.5203650  73.0781640  26.7544550  93.4888600
  72.7777180  26.6309520  94.3892510  72.9719130  25.8953140  93.0804330
  68.9709930  29.2906130  98.5668260  68.5340920  29.4706930  99.3992410
  69.5387610  30.0480750  98.4249980  85.8473560  26.5340950  88.1915280
  85.0166520  26.6017600  88.6622510  86.0245390  27.4245070  87.8882140
  85.3030020  23.2788430  90.6949480  86.0648930  23.8485080  90.8009170
  85.3184390  22.7115630  91.4657790  83.2923750  25.5175110 100.9521730
  82.4783590  25.9472270 101.2147520  83.6997950  26.1293520 100.3390780
  85.3549190  23.5722800  87.8522000  85.6298030  24.4801680  87.7241220
  85.1659930  23.5085330  88.7883990  81.7524800  16.5967650  89.1475630
  82.1709680  16.4098630  88.3072290  81.4460860  15.7446700  89.4578560
  85.2514530  21.5091790  92.8451430  84.8758130  20.7419720  92.4132720
  84.5217650  21.8914490  93.3326360  84.6414150  20.6563310 102.4790950
  84.4100240  20.4276060 101.5788900  84.9018700  21.5762860 102.4335840
  83.0802220  15.8819740 105.2570650  83.9572400  15.8903140 105.6404650
  83.0923060  15.1450580 104.6463000  84.5265490  19.7349280  96.1458670
  85.0502970  19.2411930  95.5148840  85.1124910  19.8699640  96.8906240
  84.7055210  19.8189150  99.6678220  83.7557920  19.7852690  99.7823210
  84.8868220  20.7289260  99.4327990  70.2073810  14.1230160  87.8179500
  70.9301940  14.6639100  88.1360720  70.4798330  13.8493580  86.9421040
  84.0165460  18.9922630  92.0851080  84.5124580  18.7593500  92.8699960
  83.8181530  18.1534470  91.6688720  69.8966000  13.3736350  97.7202120
  70.5442190  12.8233730  97.2797280  70.3167840  13.6279500  98.5417930
  85.4452620  17.6283580  94.6188760  85.3351900  17.4739620  95.5571030
  86.2060210  17.1004520  94.3764170  83.7918340  13.5677710 101.0771760
  84.4290560  14.1811850 101.4430950  83.9393230  13.6038370 100.1320990
  86.3342890  15.4591500  87.8594900  87.2592200  15.3272680  87.6513190
  86.3118680  15.5384320  88.8131350  86.4081380  16.2302160  90.4851610
  85.6132880  16.1647280  91.0144520  86.6124660  17.1652800  90.4736960
  69.6498000  13.5292020 100.4627440  69.3012820  13.9855840 101.2285620
  69.3185700  12.6349150 100.5449870  77.1622820  14.7203900 103.9846860
  77.1011710  15.3125730 104.7342270  78.1023200  14.6129860 103.8397120
  70.3218640  13.0568220 103.7378210  70.8701630  12.8756270 102.9744320
  70.3873950  12.2662330 104.2734520  80.5405420  12.9406100  99.9508440
  79.6665260  13.2741210  99.7481370  80.4316170  12.4679280 100.7760310
  83.9012010  30.9189010  98.3087730  83.4414980  31.6704820  97.9345750
  83.2724470  30.1995480  98.2502530  78.2880240  13.8575940  98.8901350
  77.5052030  14.3321440  99.1698110  77.9943170  12.9530770  98.7814530
  82.8401310  14.5599040  96.9350440  83.2809400  14.5044140  96.0872040
  82.5708900  15.4757050  97.0060620  84.7039880  14.1914280  94.9459260
  84.6428280  13.2475500  94.7990280  85.4831910  14.2994370  95.4912720
  69.6320650  14.1623420  91.4115070  70.3900010  14.2752300  90.8379100
  69.1697820  14.9992620  91.3658500  76.1734460  16.2762690  94.4017380
  75.3608970  15.9019580  94.0613260  76.6776100  15.5207770  94.7038570
  80.6759440  12.9405140  95.6400450  81.2788810  13.5125350  96.1148970
  79.9352430  13.5044580  95.4174350  83.8194040  13.3426700  90.9140730
  84.0144670  14.2410150  91.1808160  83.0323910  13.1113780  91.4073680
  74.1983640  14.4262610  93.0062430  73.5686380  13.7249920  93.1732560
  73.6588780  15.1866740  92.7895590  74.3239200  13.7046590 105.4414920
  74.0423470  14.2080190 104.6775740  74.7058900  12.9068340 105.0757050
  80.9254660  13.1200170 106.0195390  80.8120110  13.4394780 106.9146910
  81.7424400  13.5212680 105.7232670  68.3521640  20.7899010  78.8097250
  68.9237750  20.0221210  78.8100890  68.3523180  21.0887770  77.9003860
  69.5946510  16.1983370  80.5966180  69.4149350  15.3009120  80.8768940
  69.1926590  16.7455240  81.2713130  72.5650020  16.7724860  73.9595930
  72.6716770  17.6728590  74.2664690  71.6542380  16.7242830  73.6690580
  82.2169130  15.8949670  75.4306830  83.0378750  15.4046240  75.4732310
  82.2503210  16.4847330  76.1838670  70.2133180  18.6943870  79.2048520
  70.8943290  18.9582240  79.8235920  69.8981230  17.8544740  79.5386530
  86.5068680  17.9116420  81.9950460  85.8020850  18.2998130  81.4765570
  86.7726600  18.6066710  82.5971390  72.6893850  14.3809790  82.5584530
  72.6912290  14.8982180  81.7530430  71.8598160  13.9039970  82.5354460
  82.4530610  17.8350050  78.2034370  81.7486180  18.1234940  78.7837480
  82.8142770  18.6450160  77.8433930  84.0693390  27.4525180  80.4661850
  83.3856910  28.1224290  80.4578520  84.6087680  27.6505830  79.7006710
  78.4286910  17.9167850  70.6226850  77.4890580  18.0781810  70.7079310
  78.7470170  18.6353530  70.0762840  81.9141680  19.3855690  81.5460750
  81.5012860  20.2109400  81.8000740  81.1817630  18.8000730  81.3537110
  74.0474470  22.1715590  76.4079420  73.6431470  21.4592840  75.9125320
  74.1337590  21.8268830  77.2967460  82.6041780  29.4315020  82.2341730
  82.1272340  30.2387210  82.0414340  81.9203570  28.7793350  82.3867940
  86.1840990  29.1926960  87.3033120  86.6600710  29.6709850  87.9822200
  86.8048150  29.1244450  86.5778620  85.5874240  26.3839810  84.4633130
  85.7137300  26.1451690  83.5450310  85.6295620  25.5524350  84.9355210
  85.4398250  18.4372270  85.4282870  84.8242520  18.9451940  84.8998330
  85.1194670  17.5370600  85.3708810  82.5017080  18.4973110  84.0241720
  81.6510670  18.1978860  84.3450790  82.3418870  18.7415120  83.1125540
  79.5966790  19.9974860  86.1240510  79.9220200  19.1638610  85.7842740
  80.3847120  20.5203380  86.2718840  76.3301580  14.0306340  72.1715570
  75.7055760  14.0266210  72.8968880  76.2431700  13.1637300  71.7751540
  78.8419610  18.1756120  75.6484920  79.2349180  18.4928320  74.8353610
  79.2036460  17.2968000  75.7629440  70.5766730  16.8428460  83.8385040
  70.1830120  17.6903670  84.0457820  69.8885130  16.2054830  84.0293680
  77.1511780  16.9263430  86.9081780  76.4610100  16.7335630  87.5427870
  77.8944080  17.2098070  87.4406080  67.8783780  14.7656920  77.8715120
  67.5896830  15.3359780  78.5840100  68.6229540  14.2861370  78.2346350
  75.9272290  18.4428150  71.1394950  76.0485110  18.4014630  72.0880770
  75.5420800  19.3052300  70.9841680  79.8900660  16.2195550  79.1558640
  79.9073400  16.6704200  80.0000490  79.6416240  15.3201190  79.3692080
  74.9393790  20.7529290  70.5378250  74.3710690  20.3047540  69.9114160
  75.6482790  21.1122070  70.0043400  83.3171410  13.6327730  84.9945020
  83.6417180  12.9017390  85.5203000  83.3527920  13.3141370  84.0926010
  69.0300600  16.2461540  76.0247070  68.7447520  15.8817210  76.8625690
  68.9679460  15.5142000  75.4110210  72.4841270  24.7487480  72.8104660
  71.7103530  24.2085100  72.6503380  73.2135900  24.2294090  72.4722420
  78.7039190  15.1390800  72.7460440  77.8903800  14.6403970  72.6705750
  78.5101140  15.9789050  72.3296790  77.4148170  25.6834140  71.7210770
  77.7563870  26.4276370  71.2254090  76.5860880  25.9965260  72.0835600
  84.7675990  23.2789810  83.5872430  84.0424180  23.8718590  83.3901820
  85.2951450  23.2713350  82.7885800  76.3838860  25.7647670  74.4926690
  77.0709990  26.3116880  74.8734280  75.5971280  26.3088400  74.5276300
  75.6866070  22.7693700  74.1052050  76.1428850  23.5798950  74.3312240
  75.3354280  22.4516840  74.9370540  71.5877850  13.1131350  74.5774570
  71.4592480  13.1049250  75.5259490  70.7639870  13.4514440  74.2265580
  68.5871780  14.8722470  84.0381270  67.8730300  15.0719390  84.6433880
  69.0066820  14.0962040  84.4096070  74.9071130  27.9779070  71.3679070
  74.8981230  28.7108760  70.7523580  73.9869490  27.7310650  71.4606030
  80.0810560  17.3644780  81.7882720  80.4491380  16.5439990  82.1162290
  79.2208760  17.4246670  82.2038370  77.8930730  28.0407310  70.0304260
  77.9942710  27.8371300  69.1006240  76.9932470  27.7865590  70.2352040
  75.4156620  18.5987670  74.0128160  74.7072770  19.0674010  74.4541770
  75.7001100  17.9409680  74.6473350  77.0412550  20.0184370  82.0120690
  77.5397800  20.4930190  82.6772540  77.1835500  19.0947890  82.2190720
  79.4472050  15.3238330  75.4523950  79.3239830  15.3424460  74.5033460
  80.3956610  15.3717270  75.5722350  73.6191640  16.9072750  71.3878870
  74.4682170  17.3442900  71.3219060  73.2522910  17.2193010  72.2150930
  84.2479410  16.2352330  82.8549080  83.7453010  16.9757730  83.1942890
  85.0636070  16.6236330  82.5385870  72.5183060  23.1605110  69.8614400
  73.2846330  23.0486470  70.4239830  72.5957750  22.4643080  69.2091170
  75.1246840  29.9155880  69.4707400  75.9175450  30.2044710  69.0189190
  74.6051190  29.4848050  68.7919880  81.2867810  29.7631800  85.3952230
  82.2389560  29.6789820  85.3452470  81.1396030  30.4273510  86.0686020
  75.6424240  25.1359290  69.3349750  75.5374880  24.5211640  70.0611130
  75.4748460  24.6125180  68.5512760  82.9361910  25.5521420  85.8714000
  83.6771380  25.8897180  85.3681460  82.1734590  25.7213480  85.3183770
  74.5502090  23.1570240  71.8357040  74.9718510  22.9910110  72.6788430
  74.6752930  22.3470470  71.3412180  77.0629730  22.1807850  69.0834140
  77.5835390  21.4656870  68.7175290  77.7098130  22.8193720  69.3834650
  82.0829740  20.9432410  86.4108360  82.6650510  20.1884730  86.3228840
  82.2591510  21.4739850  85.6339840  73.2001810  16.1029160  84.7225310
  73.1058680  15.4849910  83.9976180  72.6199200  16.8295450  84.4955220
  73.4460990  19.2303470  68.7815200  73.2450050  18.3670830  69.1428540
  73.2753040  19.1436830  67.8436800  75.4755470  17.8294260  85.0178800
  76.0655160  17.5210110  85.7056620  74.6575710  17.3574010  85.1738700
  80.2948900  17.4460070  85.2511820  79.6064420  16.7841610  85.1861810
  81.0154920  16.9998340  85.6960280  80.9249300  14.0411700  71.3102080
  81.2051590  13.1979600  71.6661500  80.1515030  14.2734810  71.8240830
  72.2443790  16.3304090  68.7693080  72.5469690  16.3371520  67.8612230
  72.9838380  15.9801950  69.2660740  75.4628720  15.2738710  69.7549280
  75.1150720  14.5962700  69.1751730  75.6641490  14.8128220  70.5692670
  71.2673920  25.6346510  69.6022880  71.7048790  26.1776180  70.2580460
  71.7521650  24.8093460  69.6119220  84.6072110  28.7923130  84.0802080
  84.0074100  28.8515690  83.3366000  84.7366010  27.8528110  84.2098930
  86.3089990  24.1338530  76.7647920  86.6798820  23.3505850  76.3583890
  86.9491920  24.8227630  76.5865220  85.3549190  23.5722800  69.0778510
  85.6298030  24.4801680  68.9497730  85.1659930  23.5085330  70.0140500
  84.6414150  20.6563310  83.7047460  84.4100240  20.4276060  82.8045410
  84.9018700  21.5762860  83.6592350  83.0802220  15.8819740  86.4827160
  83.9572400  15.8903140  86.8661160  83.0923060  15.1450580  85.8719510
  84.5265490  19.7349280  77.3715180  85.0502970  19.2411930  76.7405350
  85.1124910  19.8699640  78.1162750  84.7055210  19.8189150  80.8934730
  83.7557920  19.7852690  81.0079720  84.8868220  20.7289260  80.6584500
  70.2073810  14.1230160  69.0436010  70.9301940  14.6639100  69.3617230
  70.4798330  13.8493580  68.1677550  69.8966000  13.3736350  78.9458630
  70.5442190  12.8233730  78.5053790  70.3167840  13.6279500  79.7674440
  83.7918340  13.5677710  82.3028270  84.4290560  14.1811850  82.6687460
  83.9393230  13.6038370  81.3577500  69.6498000  13.5292020  81.6883950
  69.3012820  13.9855840  82.4542130  69.3185700  12.6349150  81.7706380
  77.1622820  14.7203900  85.2103370  77.1011710  15.3125730  85.9598780
  78.1023200  14.6129860  85.0653630  79.7997380  14.3773960  84.8495660
  80.4137790  14.6953250  84.1876740  80.3446940  13.8922550  85.4691520
  70.3218640  13.0568220  84.9634720  70.8701630  12.8756270  84.2000830
  70.3873950  12.2662330  85.4991030  80.5405420  12.9406100  81.1764950
  79.6665260  13.2741210  80.9737880  80.4316170  12.4679280  82.0016820
  81.4477400  15.1476970  82.5606670  81.1190760  14.3328730  82.1808400
  82.3959700  15.1046780  82.4372360  83.9012010  30.9189010  79.5344240
  83.4414980  31.6704820  79.1602260  83.2724470  30.1995480  79.4759040
  78.2880240  13.8575940  80.1157860  77.5052030  14.3321440  80.3954620
  77.9943170  12.9530770  80.0071040  82.8401310  14.5599040  78.1606950
  83.2809400  14.5044140  77.3128550  82.5708900  15.4757050  78.2317130
  84.7039880  14.1914280  76.1715770  84.6428280  13.2475500  76.0246790
  85.4831910  14.2994370  76.7169230  69.6320650  14.1623420  72.6371580
  70.3900010  14.2752300  72.0635610  69.1697820  14.9992620  72.5915010
  80.6759440  12.9405140  76.8656960  81.2788810  13.5125350  77.3405480
  79.9352430  13.5044580  76.6430860  72.0045800  14.6887470  71.1773550
  72.5338560  13.9017270  71.0481500  72.6374120  15.3678660  71.4109080
  74.1983640  14.4262610  74.2318940  73.5686380  13.7249920  74.3989070
  73.6588780  15.1866740  74.0152100  77.1375590  31.0401840  86.9029550
  78.0642900  30.8046110  86.9465510  77.1226020  31.8673840  86.4215580
  74.3239200  13.7046590  86.6671430  74.0423470  14.2080190  85.9032250
  74.7058900  12.9068340  86.3013560  80.9254660  13.1200170  87.2451900
  80.8120110  13.4394780  88.1403420  81.7424400  13.5212680  86.9489180
  83.7053150  30.2671700  86.7270590  84.4978470  29.7720930  86.5196550
  83.9986300  30.9461840  87.3346200  71.9597940  27.2631560  60.5629690
  72.2625980  26.3729300  60.3839910  72.7041530  27.8201780  60.3351940
  70.3888630  18.1893360  54.1514060  69.5005330  18.5309330  54.0493940
  70.6729820  17.9893680  53.2594890  68.3521640  20.7899010  60.0353760
  68.9237750  20.0221210  60.0357400  68.3523180  21.0887770  59.1260370
  69.5946510  16.1983370  61.8222690  69.4149350  15.3009120  62.1025450
  69.1926590  16.7455240  62.4969640  72.5650020  16.7724860  55.1852440
  72.6716770  17.6728590  55.4921200  71.6542380  16.7242830  54.8947090
  82.2169130  15.8949670  56.6563340  83.0378750  15.4046240  56.6988820
  82.2503210  16.4847330  57.4095180  72.6893850  14.3809790  63.7841040
  72.6912290  14.8982180  62.9786940  71.8598160  13.9039970  63.7610970
  73.9396700  24.0204970  61.9614540  73.6066080  24.6473890  62.6035610
  74.1163380  24.5466850  61.1816210  72.3709180  16.0919750  61.7911490
  72.7125990  16.9361800  61.4965360  71.4324990  16.2403490  61.9076830
  73.1515800  25.9885770  63.7763720  73.7689800  26.6636850  63.4948170
  72.2908920  26.3973750  63.6851220  76.0537070  13.5802020  58.1156080
  76.3612050  13.0248910  57.3991580  75.1237770  13.7146480  57.9329070
  81.0037570  24.1999150  61.7346150  81.4206360  23.9859260  60.8999610
  81.7277390  24.4571940  62.3054770  78.4286910  17.9167850  51.8483360
  77.4890580  18.0781810  51.9335820  78.7470170  18.6353530  51.3019350
  82.4715120  23.2071150  55.3551450  81.8527540  22.8690700  54.7077750
  82.4539570  22.5630910  56.0630640  73.6074600  25.5964840  66.4482940
  72.7103130  25.8204810  66.6956340  73.6327470  25.7199780  65.4994340
  74.2326170  28.4099860  67.2325460  74.2041600  28.8142810  66.3653890
  74.0691140  27.4810220  67.0697060  84.2296960  13.7000770  50.6765240
  83.9169620  13.7927600  51.5764310  84.9909430  14.2781800  50.6262670
  68.3864470  24.2375710  60.9411220  68.4644890  24.3724480  59.9966940
  69.0006150  23.5291600  61.1339340  79.4490980  30.0867810  64.2584450
  79.9635650  29.9975820  65.0606880  78.6060060  30.4327510  64.5512360
  85.4398250  18.4372270  66.6539380  84.8242520  18.9451940  66.1254840
  85.1194670  17.5370600  66.5965320  68.4423990  25.2789880  63.4805680
  68.6055030  24.8095240  62.6625050  68.9076440  24.7713440  64.1454520
  73.2142760  14.4095640  58.5166250  72.7710910  15.1905180  58.1850770
  73.7727750  14.7325530  59.2237190  77.5012570  17.2764160  64.1201570
  77.0391940  17.4847180  64.9321510  77.0990680  16.4623510  63.8172240
  82.5017080  18.4973110  65.2498230  81.6510670  18.1978860  65.5707300
  82.3418870  18.7415120  64.3382050  79.5966790  19.9974860  67.3497020
  79.9220200  19.1638610  67.0099250  80.3847120  20.5203380  67.4975350
  76.3301580  14.0306340  53.3972080  75.7055760  14.0266210  54.1225390
  76.2431700  13.1637300  53.0008050  75.2518660  14.9542970  60.3755850
  75.5490990  15.8605800  60.2947870  75.8004220  14.4661750  59.7615420
  70.5766730  16.8428460  65.0641550  70.1830120  17.6903670  65.2714330
  69.8885130  16.2054830  65.2550190  77.1511780  16.9263430  68.1338290
  76.4610100  16.7335630  68.7684380  77.8944080  17.2098070  68.6662590
  67.8783780  14.7656920  59.0971630  67.5896830  15.3359780  59.8096610
  68.6229540  14.2861370  59.4602860  68.0654010  18.7077040  50.3074350
  67.9828680  19.6507800  50.4489340  67.7137070  18.5651950  49.4286700
  75.9272290  18.4428150  52.3651460  76.0485110  18.4014630  53.3137280
  75.5420800  19.3052300  52.2098190  79.8900660  16.2195550  60.3815150
  79.9073400  16.6704200  61.2257000  79.6416240  15.3201190  60.5948590
  70.0162970  24.6541310  65.6401490  69.6317760  24.0134980  66.2384450
  70.3275160  25.3577430  66.2096220  69.0300600  16.2461540  57.2503580
  68.7447520  15.8817210  58.0882200  68.9679460  15.5142000  56.6366720
  78.7039190  15.1390800  53.9716950  77.8903800  14.6403970  53.8962260
  78.5101140  15.9789050  53.5553300  78.6248050  23.8161900  65.7156560
  78.5585360  22.8957570  65.4614150  77.9953190  23.9137340  66.4301200
  73.2136330  21.8413470  67.4705230  72.9136470  21.9870650  66.5733050
  73.9847570  21.2818760  67.3778620  78.5564780  26.6382470  65.4660360
  78.5709320  25.7063430  65.2479270  77.8489880  26.7242230  66.1050130
  83.6901850  20.8222290  51.7358970  83.6065570  21.2536510  50.8855410
  84.4096040  21.2820640  52.1685790  84.7675990  23.2789810  64.8128940
  84.0424180  23.8718590  64.6158330  85.2951450  23.2713350  64.0142310
  68.5231260  21.3820490  51.2100280  69.3926110  21.6645290  51.4936200
  68.0321580  22.1956360  51.0949090  77.9898680  28.2800040  62.5600860
  78.6340900  28.4859420  63.2374280  78.3528120  27.5188440  62.1071710
  71.5877850  13.1131350  55.8031080  71.4592480  13.1049250  56.7516000
  70.7639870  13.4514440  55.4522090  83.1086480  26.5681010  51.0017450
  82.8824060  25.8511450  51.5942090  82.7182680  26.3193450  50.1639200
  81.0368380  27.0827290  64.4814370  81.3724620  27.6693980  65.1592290
  80.1168720  26.9520000  64.7112160  68.5871780  14.8722470  65.2637780
  67.8730300  15.0719390  65.8690390  69.0066820  14.0962040  65.6352580
  82.6902730  24.4852950  52.6631610  82.4024430  24.9465640  53.4509490
  83.4854900  24.0250720  52.9315830  68.8744370  28.8602730  66.2504310
  68.9835490  27.9197470  66.1099700  68.2224930  29.1257480  65.6018040
  76.8656960  27.1318620  67.6502430  76.5453830  26.4127860  68.1948120
  76.1915320  27.8073690  67.7238490  83.4472590  16.3201720  53.8226790
  82.8185750  16.4247390  53.1085020  82.9524510  16.5398500  54.6120670
  79.4472050  15.3238330  56.6780460  79.3239830  15.3424460  55.7289970
  80.3956610  15.3717270  56.7978860  73.6191640  16.9072750  52.6135380
  74.4682170  17.3442900  52.5475570  73.2522910  17.2193010  53.4407440
  84.2479410  16.2352330  64.0805590  83.7453010  16.9757730  64.4199400
  85.0636070  16.6236330  63.7642380  82.5401420  21.4785510  57.5266950
  81.5991560  21.4935740  57.7014640  82.8545490  20.6921470  57.9727250
  71.2129820  20.5930180  51.7703800  71.2933410  19.6457690  51.8821200
  72.1049570  20.9237060  51.8764460  72.0144530  30.7425570  58.8738340
  72.7507010  30.1941030  59.1446910  72.3985450  31.6081580  58.7344330
  79.8567440  26.0351510  68.0099330  79.2505600  26.0583110  67.2695080
  79.5521550  25.3034550  68.5466580  84.1777010  29.1426010  52.1200650
  83.8918520  28.7291150  51.3054830  83.9796560  30.0713720  52.0001170
  68.7400620  22.4145100  67.0059970  69.2439640  21.8352380  67.5776200
  68.0008040  22.6985330  67.5436340  75.7938560  23.8216090  66.5395490
  75.0284230  24.3901090  66.4550160  75.9754520  23.5292300  65.6463720
  82.9361910  25.5521420  67.0970510  83.6771380  25.8897180  66.5937970
  82.1734590  25.7213480  66.5440280  70.7723700  20.5574690  67.9010040
  70.8129040  20.2588560  68.8095270  71.6269200  20.9582300  67.7417560
  81.6107570  23.6036250  65.6325720  82.0248590  23.7581330  66.4816140
  80.6758570  23.7291470  65.7951500  82.0829740  20.9432410  67.6364870
  82.6650510  20.1884730  67.5485350  82.2591510  21.4739850  66.8596350
  73.2001810  16.1029160  65.9481820  73.1058680  15.4849910  65.2232690
  72.6199200  16.8295450  65.7211730  75.9663250  14.6602400  62.9809210
  75.5180550  14.6826660  62.1354760  75.3328450  14.2621420  63.5779510
  76.3722800  23.5556730  63.6021650  76.7910910  24.3989460  63.4297890
  75.4531430  23.6928770  63.3728430  78.7086700  21.2872910  64.9859490
  78.8282910  20.6914050  65.7254330  79.5680700  21.3242600  64.5660790
  73.4460990  19.2303470  50.0071710  73.2450050  18.3670830  50.3685050
  73.2753040  19.1436830  49.0693310  74.2230220  29.8609740  64.7179380
  73.6851310  30.5855800  64.3988080  74.4764180  29.3840080  63.9276720
  80.2948900  17.4460070  66.4768330  79.6064420  16.7841610  66.4118320
  81.0154920  16.9998340  66.9216790  80.9249300  14.0411700  52.5358590
  81.2051590  13.1979600  52.8918010  80.1515030  14.2734810  53.0497340
  72.2443790  16.3304090  49.9949590  72.5469690  16.3371520  49.0868740
  72.9838380  15.9801950  50.4917250  77.0792430  31.0960950  64.9766030
  77.0051130  31.9996090  65.2838400  76.1771270  30.7772850  64.9488100
  75.4628720  15.2738710  50.9805790  75.1150720  14.5962700  50.4008240
  75.6641490  14.8128220  51.7949180  68.4819720  28.4235540  58.2799650
  68.8122730  27.5556600  58.0478290  68.9110720  28.6294060  59.1104610
  68.9709930  29.2906130  61.0181280  68.5340920  29.4706930  61.8505430
  69.5387610  30.0480750  60.8763000  86.3089990  24.1338530  57.9904430
  86.6798820  23.3505850  57.5840400  86.9491920  24.8227630  57.8121730
  81.7524800  16.5967650  51.5988650  82.1709680  16.4098630  50.7585310
  81.4460860  15.7446700  51.9091580  85.2514530  21.5091790  55.2964450
  84.8758130  20.7419720  54.8645740  84.5217650  21.8914490  55.7839380
  69.3926290  19.0988020  65.8231920  68.4982340  19.0654780  66.1625630
  69.9323840  19.2974810  66.5883170  68.0172440  19.0125290  53.3195490
  67.1136520  19.2755490  53.1447150  68.5013060  19.2836460  52.5395450
  70.5599650  18.0690830  51.2289870  71.2691350  17.6474050  50.7437150
  69.8439590  18.1366060  50.5973220  70.2073810  14.1230160  50.2692520
  70.9301940  14.6639100  50.5873740  70.4798330  13.8493580  49.3934060
  84.0165460  18.9922630  54.5364100  84.5124580  18.7593500  55.3212980
  83.8181530  18.1534470  54.1201740  69.8966000  13.3736350  60.1715140
  70.5442190  12.8233730  59.7310300  70.3167840  13.6279500  60.9930950
  83.7918340  13.5677710  63.5284780  84.4290560  14.1811850  63.8943970
  83.9393230  13.6038370  62.5834010  86.3342890  15.4591500  50.3107920
  87.2592200  15.3272680  50.1026210  86.3118680  15.5384320  51.2644370
  86.4081380  16.2302160  52.9364630  85.6132880  16.1647280  53.4657540
  86.6124660  17.1652800  52.9249980  69.6498000  13.5292020  62.9140460
  69.3012820  13.9855840  63.6798640  69.3185700  12.6349150  62.9962890
  71.2562370  26.7011620  67.0793650  71.2132000  26.3304530  67.9608110
  71.3873380  27.6389190  67.2195470  74.9568400  28.2571210  62.6803370
  74.7159760  28.5245770  61.7933890  75.8971040  28.4276940  62.7354230
  77.1622820  14.7203900  66.4359880  77.1011710  15.3125730  67.1855290
  78.1023200  14.6129860  66.2910140  79.7997380  14.3773960  66.0752170
  80.4137790  14.6953250  65.4133250  80.3446940  13.8922550  66.6948030
  70.3218640  13.0568220  66.1891230  70.8701630  12.8756270  65.4257340
  70.3873950  12.2662330  66.7247540  71.0950400  29.6473870  64.1991430
  70.5010720  29.5158570  64.9381470  71.0874240  28.8112010  63.7333530
  80.5405420  12.9406100  62.4021460  79.6665260  13.2741210  62.1994390
  80.4316170  12.4679280  63.2273330  81.4477400  15.1476970  63.7863180
  81.1190760  14.3328730  63.4064910  82.3959700  15.1046780  63.6628870
  70.7262630  27.0132250  63.1499470  69.9996690  26.3937540  63.0825420
  70.7871780  27.4072860  62.2797550  74.3307730  29.2277250  59.9348880
  74.8472750  28.6164610  59.4097140  74.9805110  29.7306030  60.4259890
  78.2880240  13.8575940  61.3414370  77.5052030  14.3321440  61.6211130
  77.9943170  12.9530770  61.2327550  82.8401310  14.5599040  59.3863460
  83.2809400  14.5044140  58.5385060  82.5708900  15.4757050  59.4573640
  84.7039880  14.1914280  57.3972280  84.6428280  13.2475500  57.2503300
  85.4831910  14.2994370  57.9425740  69.0092630  30.3306640  56.3596230
  68.8414670  29.6977320  57.0578120  68.1427140  30.5366040  56.0090420
  69.6320650  14.1623420  53.8628090  70.3900010  14.2752300  53.2892120
  69.1697820  14.9992620  53.8171520  80.6759440  12.9405140  58.0913470
  81.2788810  13.5125350  58.5661990  79.9352430  13.5044580  57.8687370
  83.8194040  13.3426700  53.3653750  84.0144670  14.2410150  53.6321180
  83.0323910  13.1113780  53.8586700  72.0045800  14.6887470  52.4030060
  72.5338560  13.9017270  52.2738010  72.6374120  15.3678660  52.6365590
  74.1983640  14.4262610  55.4575450  73.5686380  13.7249920  55.6245580
  73.6588780  15.1866740  55.2408610  85.3720650  30.5827410  55.1260310
  85.5472840  29.8965150  54.4821230  84.6742220  31.1074460  54.7336980
  74.3239200  13.7046590  67.8927940  74.0423470  14.2080190  67.1288760
  74.7058900  12.9068340  67.5270070  80.9254660  13.1200170  68.4708410
  80.8120110  13.4394780  69.3659930  81.7424400  13.5212680  68.1745690
  79.8312810  21.1392640  38.8343150  79.7506860  20.2247250  38.5634860
  79.4177230  21.6359710  38.1282860  77.9630850  22.9171660  40.7152420
  77.1872950  22.4372100  41.0050990  78.6143780  22.2377310  40.5408580
  81.9838280  27.3231850  39.4951550  81.5219810  26.5519090  39.8238720
  82.7963830  27.3497920  40.0004000  71.9597940  27.2631560  41.7886200
  72.2625980  26.3729300  41.6096420  72.7041530  27.8201780  41.5608450
  70.3888630  18.1893360  35.3770570  69.5005330  18.5309330  35.2750450
  70.6729820  17.9893680  34.4851400  68.3521640  20.7899010  41.2610270
  68.9237750  20.0221210  41.2613910  68.3523180  21.0887770  40.3516880
  78.2101590  29.6089860  39.1155540  77.5913030  30.0647360  38.5449980
  79.0653370  29.7641320  38.7145240  69.5946510  16.1983370  43.0479200
  69.4149350  15.3009120  43.3281960  69.1926590  16.7455240  43.7226150
  78.4345010  18.3999230  40.9491510  78.8109830  17.5271110  40.8365180
  78.3364520  18.7357930  40.0581950  72.5650020  16.7724860  36.4108950
  72.6716770  17.6728590  36.7177710  71.6542380  16.7242830  36.1203600
  82.2169130  15.8949670  37.8819850  83.0378750  15.4046240  37.9245330
  82.2503210  16.4847330  38.6351690  70.2133180  18.6943870  41.6561540
  70.8943290  18.9582240  42.2748940  69.8981230  17.8544740  41.9899550
  74.4057750  19.7411230  40.7434130  74.9135970  20.2392200  41.3839150
  74.9370990  18.9646430  40.5673490  86.5068680  17.9116420  44.4463480
  85.8020850  18.2998130  43.9278590  86.7726600  18.6066710  45.0484410
  72.6893850  14.3809790  45.0097550  72.6912290  14.8982180  44.2043450
  71.8598160  13.9039970  44.9867480  79.0764940  24.4929100  36.5087450
  78.4582210  24.9578550  35.9450170  79.5888190  25.1856580  36.9256960
  82.4530610  17.8350050  40.6547390  81.7486180  18.1234940  41.2350500
  82.8142770  18.6450160  40.2946950  72.3709180  16.0919750  43.0168000
  72.7125990  16.9361800  42.7221870  71.4324990  16.2403490  43.1333340
  68.4448140  25.1785630  33.8827080  68.0676120  25.6672730  33.1511980
  68.7021210  25.8510910  34.5133610  84.0693390  27.4525180  42.9174870
  83.3856910  28.1224290  42.9091540  84.6087680  27.6505830  42.1519730
  85.5217530  17.2804840  41.0456600  84.5742440  17.3143820  41.1772030
  85.8467520  18.0943790  41.4305960  76.0537070  13.5802020  39.3412590
  76.3612050  13.0248910  38.6248090  75.1237770  13.7146480  39.1585580
  81.6052130  29.2969310  41.6320050  81.6179290  28.8931600  40.7642310
  81.0527350  30.0716600  41.5281480  82.8997550  26.0185530  36.7210220
  82.7893880  25.0759860  36.8459640  82.8965800  26.3801170  37.6072980
  81.0037570  24.1999150  42.9602660  81.4206360  23.9859260  42.1256120
  81.7277390  24.4571940  43.5311280  78.4417830  21.6450850  36.0772710
  77.5147110  21.5788230  36.3061180  78.5942650  22.5830980  35.9627950
  78.4286910  17.9167850  33.0739870  77.4890580  18.0781810  33.1592330
  78.7470170  18.6353530  32.5275860  84.9499670  22.5986370  43.0518900
  84.1218300  22.6679460  42.5769030  85.5450150  23.1840680  42.5834730
  82.4715120  23.2071150  36.5807960  81.8527540  22.8690700  35.9334260
  82.4539570  22.5630910  37.2887150  81.9141680  19.3855690  43.9973770
  81.5012860  20.2109400  44.2513760  81.1817630  18.8000730  43.8050130
  74.0474470  22.1715590  38.8592440  73.6431470  21.4592840  38.3638340
  74.1337590  21.8268830  39.7480480  72.7603090  18.9458800  42.6391480
  73.3117680  19.0554140  41.8644730  73.2746600  19.3196400  43.3546710
  82.6041780  29.4315020  44.6854750  82.1272340  30.2387210  44.4927360
  81.9203570  28.7793350  44.8380960  80.6479820  22.4457960  33.5880710
  81.0873100  21.6080390  33.4418530  81.3608240  23.0787360  33.6744850
  78.7575200  27.3854030  37.5561950  79.1971110  28.1278360  37.1417340
  78.6962090  27.6280600  38.4800910  74.2326170  28.4099860  48.4581970
  74.2041600  28.8142810  47.5910400  74.0691140  27.4810220  48.2953570
  84.2296960  13.7000770  31.9021750  83.9169620  13.7927600  32.8020820
  84.9909430  14.2781800  31.8519180  70.7479100  21.0660570  36.3599090
  70.6276700  21.7922660  35.7480360  70.4379990  20.2963480  35.8827000
  86.1840990  29.1926960  49.7546140  86.6600710  29.6709850  50.4335220
  86.8048150  29.1244450  49.0291640  68.3864470  24.2375710  42.1667730
  68.4644890  24.3724480  41.2223450  69.0006150  23.5291600  42.3595850
  69.6312100  25.9375900  38.5773910  69.2240180  26.0790490  37.7227510
  70.5225110  25.6536060  38.3745120  79.4490980  30.0867810  45.4840960
  79.9635650  29.9975820  46.2863390  78.6060060  30.4327510  45.7768870
  81.4245380  30.3723150  34.9124960  81.2646520  30.0826090  35.8106790
  81.2592090  29.5963280  34.3770190  73.9033760  30.1521680  36.6896580
  73.7276240  29.2357220  36.4764380  73.0489500  30.5108970  36.9294380
  81.1271510  27.8810710  33.4722960  80.4336670  27.8788000  32.8125240
  81.8694370  27.4570030  33.0417130  80.6921440  29.5073420  37.5471450
  81.1478390  28.7262800  37.8610070  81.0313960  30.2180240  38.0912630
  85.4398250  18.4372270  47.8795890  84.8242520  18.9451940  47.3511350
  85.1194670  17.5370600  47.8221830  68.4423990  25.2789880  44.7062190
  68.6055030  24.8095240  43.8881560  68.9076440  24.7713440  45.3711030
  73.2142760  14.4095640  39.7422760  72.7710910  15.1905180  39.4107280
  73.7727750  14.7325530  40.4493700  77.5012570  17.2764160  45.3458080
  77.0391940  17.4847180  46.1578020  77.0990680  16.4623510  45.0428750
  82.5017080  18.4973110  46.4754740  81.6510670  18.1978860  46.7963810
  82.3418870  18.7415120  45.5638560  76.3301580  14.0306340  34.6228590
  75.7055760  14.0266210  35.3481900  76.2431700  13.1637300  34.2264560
  75.2518660  14.9542970  41.6012360  75.5490990  15.8605800  41.5204380
  75.8004220  14.4661750  40.9871930  73.0056980  19.5329210  37.4704010
  72.7797900  19.3166380  38.3750630  72.2249510  19.9657670  37.1249980
  80.2354740  19.5392580  36.0694660  79.6363630  20.2628380  35.8858280
  80.7834350  19.4769360  35.2871110  78.8419610  18.1756120  38.0997940
  79.2349180  18.4928320  37.2866630  79.2036460  17.2968000  38.2142460
  70.5766730  16.8428460  46.2898060  70.1830120  17.6903670  46.4970840
  69.8885130  16.2054830  46.4806700  77.1511780  16.9263430  49.3594800
  76.4610100  16.7335630  49.9940890  77.8944080  17.2098070  49.8919100
  67.8783780  14.7656920  40.3228140  67.5896830  15.3359780  41.0353120
  68.6229540  14.2861370  40.6859370  68.0654010  18.7077040  31.5330860
  67.9828680  19.6507800  31.6745850  67.7137070  18.5651950  30.6543210
  79.4274750  20.7661870  42.1948720  78.6955870  21.2748680  42.5438820
  79.0299090  19.9491850  41.8937500  75.8652140  17.4416070  40.6001210
  75.8688200  17.0006020  39.7505750  76.7603260  17.7633400  40.7073030
  71.7154520  17.3242560  39.5595420  71.3754570  17.8017790  40.3162470
  70.9531840  16.8707680  39.1996520  75.9272290  18.4428150  33.5907970
  76.0485110  18.4014630  34.5393790  75.5420800  19.3052300  33.4354700
  79.8900660  16.2195550  41.6071660  79.9073400  16.6704200  42.4513510
  79.6416240  15.3201190  41.8205100  74.9393790  20.7529290  32.9891270
  74.3710690  20.3047540  32.3627180  75.6482790  21.1122070  32.4556420
  83.3171410  13.6327730  47.4458040  83.6417180  12.9017390  47.9716020
  83.3527920  13.3141370  46.5439030  69.0300600  16.2461540  38.4760090
  68.7447520  15.8817210  39.3138710  68.9679460  15.5142000  37.8623230
  72.4841270  24.7487480  35.2617680  71.7103530  24.2085100  35.1016400
  73.2135900  24.2294090  34.9235440  83.2429250  23.7452840  41.0544070
  83.9628370  24.2408130  40.6640180  83.0411070  23.0670730  40.4097940
  78.7039190  15.1390800  35.1973460  77.8903800  14.6403970  35.1218770
  78.5101140  15.9789050  34.7809810  81.4187580  19.5110450  33.4935620
  82.3067200  19.8227680  33.3186960  81.3892670  18.6382700  33.1016200
  72.5278670  24.4167860  38.8996490  73.0457340  23.6136120  38.8453380
  72.0762690  24.3547000  39.7413320  77.4148170  25.6834140  34.1723790
  77.7563870  26.4276370  33.6767110  76.5860880  25.9965260  34.5348620
  83.6901850  20.8222290  32.9615480  83.6065570  21.2536510  32.1111920
  84.4096040  21.2820640  33.3942300  84.7675990  23.2789810  46.0385450
  84.0424180  23.8718590  45.8414840  85.2951450  23.2713350  45.2398820
  84.7189100  27.6764550  35.6897610  84.0765260  27.0220170  35.9641330
  84.3319760  28.0819640  34.9138280  80.2975580  25.0049980  39.5369300
  80.6499400  24.4078110  38.8770670  79.4137910  24.6794210  39.7077550
  76.3838860  25.7647670  36.9439710  77.0709990  26.3116880  37.3247300
  75.5971280  26.3088400  36.9789320  68.5231260  21.3820490  32.4356790
  69.3926110  21.6645290  32.7192710  68.0321580  22.1956360  32.3205600
  75.6866070  22.7693700  36.5565070  76.1428850  23.5798950  36.7825260
  75.3354280  22.4516840  37.3883560  71.5877850  13.1131350  37.0287590
  71.4592480  13.1049250  37.9772510  70.7639870  13.4514440  36.6778600
  83.1086480  26.5681010  32.2273960  82.8824060  25.8511450  32.8198600
  82.7182680  26.3193450  31.3895710  81.0368380  27.0827290  45.7070880
  81.3724620  27.6693980  46.3848800  80.1168720  26.9520000  45.9368670
  68.8902510  30.5947870  33.0018420  69.2500150  31.1937210  32.3475690
  68.7494850  31.1407760  33.7753450  68.5871780  14.8722470  46.4894290
  67.8730300  15.0719390  47.0946900  69.0066820  14.0962040  46.8609090
  82.6902730  24.4852950  33.8888120  82.4024430  24.9465640  34.6766000
  83.4854900  24.0250720  34.1572340  76.8656960  27.1318620  48.8758940
  76.5453830  26.4127860  49.4204630  76.1915320  27.8073690  48.9495000
  74.9071130  27.9779070  33.8192090  74.8981230  28.7108760  33.2036600
  73.9869490  27.7310650  33.9119050  70.5077770  23.1993960  34.5638850
  69.9005720  23.9392860  34.5734150  70.9827120  23.2893320  33.7377050
  80.0810560  17.3644780  44.2395740  80.4491380  16.5439990  44.5675310
  79.2208760  17.4246670  44.6551390  83.4472590  16.3201720  35.0483300
  82.8185750  16.4247390  34.3341530  82.9524510  16.5398500  35.8377180
  77.8930730  28.0407310  32.4817280  77.9942710  27.8371300  31.5519260
  76.9932470  27.7865590  32.6865060  75.4156620  18.5987670  36.4641180
  74.7072770  19.0674010  36.9054790  75.7001100  17.9409680  37.0986370
  79.4472050  15.3238330  37.9036970  79.3239830  15.3424460  36.9546480
  80.3956610  15.3717270  38.0235370  76.5348840  30.5593630  37.1764950
  76.7890340  30.5215020  36.2544320  75.5861320  30.4326960  37.1693200
  73.6191640  16.9072750  33.8391890  74.4682170  17.3442900  33.7732080
  73.2522910  17.2193010  34.6663950  84.2479410  16.2352330  45.3062100
  83.7453010  16.9757730  45.6455910  85.0636070  16.6236330  44.9898890
  82.5401420  21.4785510  38.7523460  81.5991560  21.4935740  38.9271150
  82.8545490  20.6921470  39.1983760  72.5183060  23.1605110  32.3127420
  73.2846330  23.0486470  32.8752850  72.5957750  22.4643080  31.6604190
  71.2129820  20.5930180  32.9960310  71.2933410  19.6457690  33.1077710
  72.1049570  20.9237060  33.1020970  84.5427000  28.6494360  40.4277720
  84.6674420  29.4725530  40.9001530  85.4092560  28.4385090  40.0801870
  72.0144530  30.7425570  40.0994850  72.7507010  30.1941030  40.3703420
  72.3985450  31.6081580  39.9600840  68.8990010  26.8099140  35.9736360
  67.9729790  27.0520280  35.9641770  69.3646440  27.6373400  35.8521110
  75.1246840  29.9155880  31.9220420  75.9175450  30.2044710  31.4702210
  74.6051190  29.4848050  31.2432900  79.8567440  26.0351510  49.2355840
  79.2505600  26.0583110  48.4951590  79.5521550  25.3034550  49.7723090
  84.1777010  29.1426010  33.3457160  83.8918520  28.7291150  32.5311340
  83.9796560  30.0713720  33.2257680  68.7400620  22.4145100  48.2316480
  69.2439640  21.8352380  48.8032710  68.0008040  22.6985330  48.7692850
  75.6424240  25.1359290  31.7862770  75.5374880  24.5211640  32.5124150
  75.4748460  24.6125180  31.0025780  78.8826970  24.1979320  32.3904760
  78.3337070  24.6448620  33.0347500  79.5046230  23.6928570  32.9142430
  82.9361910  25.5521420  48.3227020  83.6771380  25.8897180  47.8194480
  82.1734590  25.7213480  47.7696790  74.5502090  23.1570240  34.2870060
  74.9718510  22.9910110  35.1301450  74.6752930  22.3470470  33.7925200
  77.0629730  22.1807850  31.5347160  77.5835390  21.4656870  31.1688310
  77.7098130  22.8193720  31.8347670  81.6107570  23.6036250  46.8582230
  82.0248590  23.7581330  47.7072650  80.6758570  23.7291470  47.0208010
  73.2001810  16.1029160  47.1738330  73.1058680  15.4849910  46.4489200
  72.6199200  16.8295450  46.9468240  75.9663250  14.6602400  44.2065720
  75.5180550  14.6826660  43.3611270  75.3328450  14.2621420  44.8036020
  81.0474600  21.8410100  44.7878510  80.5209820  22.3652720  44.1843650
  81.3905940  22.4737490  45.4188240  73.4460990  19.2303470  31.2328220
  73.2450050  18.3670830  31.5941560  73.2753040  19.1436830  30.2949820
  74.2230220  29.8609740  45.9435890  73.6851310  30.5855800  45.6244590
  74.4764180  29.3840080  45.1533230  75.4755470  17.8294260  47.4691820
  76.0655160  17.5210110  48.1569640  74.6575710  17.3574010  47.6251720
  80.2948900  17.4460070  47.7024840  79.6064420  16.7841610  47.6374830
  81.0154920  16.9998340  48.1473300  80.9249300  14.0411700  33.7615100
  81.2051590  13.1979600  34.1174520  80.1515030  14.2734810  34.2753850
  72.2443790  16.3304090  31.2206100  72.5469690  16.3371520  30.3125250
  72.9838380  15.9801950  31.7173760  77.0792430  31.0960950  46.2022540
  77.0051130  31.9996090  46.5094910  76.1771270  30.7772850  46.1744610
  75.4628720  15.2738710  32.2062300  75.1150720  14.5962700  31.6264750
  75.6641490  14.8128220  33.0205690  77.6277760  30.2619460  33.8248900
  78.5228550  30.6004430  33.8467660  77.6595390  29.5398870  33.1973180
  71.2673920  25.6346510  32.0535900  71.7048790  26.1776180  32.7093480
  71.7521650  24.8093460  32.0632240  68.4819720  28.4235540  39.5056160
  68.8122730  27.5556600  39.2734800  68.9110720  28.6294060  40.3361120
  73.0781640  26.7544550  37.1658130  72.7777180  26.6309520  38.0662040
  72.9719130  25.8953140  36.7573860  84.6072110  28.7923130  46.5315100
  84.0074100  28.8515690  45.7879020  84.7366010  27.8528110  46.6611950
  85.8473560  26.5340950  31.8684810  85.0166520  26.6017600  32.3392040
  86.0245390  27.4245070  31.5651670  85.3030020  23.2788430  34.3719010
  86.0648930  23.8485080  34.4778700  85.3184390  22.7115630  35.1427320
  68.8034360  21.8026360  38.6026670  68.1483200  21.5338000  37.9586370
  69.6412310  21.6930840  38.1528650  86.3089990  24.1338530  39.2160940
  86.6798820  23.3505850  38.8096910  86.9491920  24.8227630  39.0378240
  83.2923750  25.5175110  44.6291260  82.4783590  25.9472270  44.8917050
  83.6997950  26.1293520  44.0160310  85.3549190  23.5722800  31.5291530
  85.6298030  24.4801680  31.4010750  85.1659930  23.5085330  32.4653520
  81.7524800  16.5967650  32.8245160  82.1709680  16.4098630  31.9841820
  81.4460860  15.7446700  33.1348090  85.2514530  21.5091790  36.5220960
  84.8758130  20.7419720  36.0902250  84.5217650  21.8914490  37.0095890
  69.8410290  22.1878930  43.1430010  70.2083330  22.1006330  44.0226030
  69.2721110  21.4245480  43.0436870  84.6414150  20.6563310  46.1560480
  84.4100240  20.4276060  45.2558430  84.9018700  21.5762860  46.1105370
  69.3926290  19.0988020  47.0488430  68.4982340  19.0654780  47.3882140
  69.9323840  19.2974810  47.8139680  83.0802220  15.8819740  48.9340180
  83.9572400  15.8903140  49.3174180  83.0923060  15.1450580  48.3232530
  68.0172440  19.0125290  34.5452000  67.1136520  19.2755490  34.3703660
  68.5013060  19.2836460  33.7651960  84.5265490  19.7349280  39.8228200
  85.0502970  19.2411930  39.1918370  85.1124910  19.8699640  40.5675770
  84.7055210  19.8189150  43.3447750  83.7557920  19.7852690  43.4592740
  84.8868220  20.7289260  43.1097520  70.5599650  18.0690830  32.4546380
  71.2691350  17.6474050  31.9693660  69.8439590  18.1366060  31.8229730
  70.2073810  14.1230160  31.4949030  70.9301940  14.6639100  31.8130250
  70.4798330  13.8493580  30.6190570  84.0165460  18.9922630  35.7620610
  84.5124580  18.7593500  36.5469490  83.8181530  18.1534470  35.3458250
  69.8966000  13.3736350  41.3971650  70.5442190  12.8233730  40.9566810
  70.3167840  13.6279500  42.2187460  85.4452620  17.6283580  38.2958290
  85.3351900  17.4739620  39.2340560  86.2060210  17.1004520  38.0533700
  83.7918340  13.5677710  44.7541290  84.4290560  14.1811850  45.1200480
  83.9393230  13.6038370  43.8090520  86.3342890  15.4591500  31.5364430
  87.2592200  15.3272680  31.3282720  86.3118680  15.5384320  32.4900880
  86.4081380  16.2302160  34.1621140  85.6132880  16.1647280  34.6914050
  86.6124660  17.1652800  34.1506490  83.3499800  30.2693710  38.1559530
  83.9458870  29.9478280  37.4793950  83.6077950  29.7965530  38.9472800
  69.6498000  13.5292020  44.1396970  69.3012820  13.9855840  44.9055150
  69.3185700  12.6349150  44.2219400  77.1622820  14.7203900  47.6616390
  77.1011710  15.3125730  48.4111800  78.1023200  14.6129860  47.5166650
  79.7997380  14.3773960  47.3008680  80.4137790  14.6953250  46.6389760
  80.3446940  13.8922550  47.9204540  86.2172560  30.2765590  44.7070520
  85.7230840  30.6734460  43.9897650  85.6085850  29.6514800  45.1007800
  70.3218640  13.0568220  47.4147740  70.8701630  12.8756270  46.6513850
  70.3873950  12.2662330  47.9504050  80.5405420  12.9406100  43.6277970
  79.6665260  13.2741210  43.4250900  80.4316170  12.4679280  44.4529840
  81.4477400  15.1476970  45.0119690  81.1190760  14.3328730  44.6321420
  82.3959700  15.1046780  44.8885380  74.3307730  29.2277250  41.1605390
  74.8472750  28.6164610  40.6353650  74.9805110  29.7306030  41.6516400
  77.0703230  30.1185740  41.9874370  77.3581040  29.8640040  41.1107380
  77.5826450  29.5663100  42.5779940  78.2880240  13.8575940  42.5670880
  77.5052030  14.3321440  42.8467640  77.9943170  12.9530770  42.4584060
  82.8401310  14.5599040  40.6119970  83.2809400  14.5044140  39.7641570
  82.5708900  15.4757050  40.6830150  84.7039880  14.1914280  38.6228790
  84.6428280  13.2475500  38.4759810  85.4831910  14.2994370  39.1682250
  69.0092630  30.3306640  37.5852740  68.8414670  29.6977320  38.2834630
  68.1427140  30.5366040  37.2346930  69.6320650  14.1623420  35.0884600
  70.3900010  14.2752300  34.5148630  69.1697820  14.9992620  35.0428030
  76.1734460  16.2762690  38.0786910  75.3608970  15.9019580  37.7382790
  76.6776100  15.5207770  38.3808100  80.6759440  12.9405140  39.3169980
  81.2788810  13.5125350  39.7918500  79.9352430  13.5044580  39.0943880
  83.8194040  13.3426700  34.5910260  84.0144670  14.2410150  34.8577690
  83.0323910  13.1113780  35.0843210  70.6155330  29.0239870  35.0302880
  70.0902950  29.4047900  34.3264840  70.5399910  29.6490640  35.7512590
  72.0045800  14.6887470  33.6286570  72.5338560  13.9017270  33.4994520
  72.6374120  15.3678660  33.8622100  74.1983640  14.4262610  36.6831960
  73.5686380  13.7249920  36.8502090  73.6588780  15.1866740  36.4665120
  85.3720650  30.5827410  36.3516820  85.5472840  29.8965150  35.7077740
  84.6742220  31.1074460  35.9593490  74.3239200  13.7046590  49.1184450
  74.0423470  14.2080190  48.3545270  74.7058900  12.9068340  48.7526580
  73.2148300  30.9722250  33.9052130  73.9467120  30.6881530  33.3576020
  73.4741970  30.7335530  34.7951510  72.3763090  27.0886980  33.9098460
  71.7471970  27.5572080  34.4584290  72.4910920  26.2436200  34.3444650
  80.9254660  13.1200170  49.6964920  80.8120110  13.4394780  50.5916440
  81.7424400  13.5212680  49.4002200  83.7053150  30.2671700  49.1783610
  84.4978470  29.7720930  48.9709570  83.9986300  30.9461840  49.7859220
  79.8312810  21.1392640  20.0599660  79.7506860  20.2247250  19.7891370
  79.4177230  21.6359710  19.3539370  77.9630850  22.9171660  21.9408930
  77.1872950  22.4372100  22.2307500  78.6143780  22.2377310  21.7665090
  71.9796680  23.2291470  22.8184690  71.1481560  22.9740180  23.2181200
  72.5877660  23.3002240  23.5542610  81.9838280  27.3231850  20.7208060
  81.5219810  26.5519090  21.0495230  82.7963830  27.3497920  21.2260510
  71.9597940  27.2631560  23.0142710  72.2625980  26.3729300  22.8352930
  72.7041530  27.8201780  22.7864960  70.3888630  18.1893360  16.6027080
  69.5005330  18.5309330  16.5006960  70.6729820  17.9893680  15.7107910
  68.3521640  20.7899010  22.4866780  68.9237750  20.0221210  22.4870420
  68.3523180  21.0887770  21.5773390  78.2101590  29.6089860  20.3412050
  77.5913030  30.0647360  19.7706490  79.0653370  29.7641320  19.9401750
  77.4039840  25.5928850  21.9479090  77.3348120  24.6518790  21.7868220
  78.1659700  25.6830260  22.5201660  69.5946510  16.1983370  24.2735710
  69.4149350  15.3009120  24.5538470  69.1926590  16.7455240  24.9482660
  78.4345010  18.3999230  22.1748020  78.8109830  17.5271110  22.0621690
  78.3364520  18.7357930  21.2838460  72.5650020  16.7724860  17.6365460
  72.6716770  17.6728590  17.9434220  71.6542380  16.7242830  17.3460110
  82.2169130  15.8949670  19.1076360  83.0378750  15.4046240  19.1501840
  82.2503210  16.4847330  19.8608200  70.2133180  18.6943870  22.8818050
  70.8943290  18.9582240  23.5005450  69.8981230  17.8544740  23.2156060
  74.4057750  19.7411230  21.9690640  74.9135970  20.2392200  22.6095660
  74.9370990  18.9646430  21.7930000  86.5068680  17.9116420  25.6719990
  85.8020850  18.2998130  25.1535100  86.7726600  18.6066710  26.2740920
  72.6893850  14.3809790  26.2354060  72.6912290  14.8982180  25.4299960
  71.8598160  13.9039970  26.2123990  79.0764940  24.4929100  17.7343960
  78.4582210  24.9578550  17.1706680  79.5888190  25.1856580  18.1513470
  73.9396700  24.0204970  24.4127560  73.6066080  24.6473890  25.0548630
  74.1163380  24.5466850  23.6329230  82.4530610  17.8350050  21.8803900
  81.7486180  18.1234940  22.4607010  82.8142770  18.6450160  21.5203460
  72.3709180  16.0919750  24.2424510  72.7125990  16.9361800  23.9478380
  71.4324990  16.2403490  24.3589850  73.1515800  25.9885770  26.2276740
  73.7689800  26.6636850  25.9461190  72.2908920  26.3973750  26.1364240
  68.4448140  25.1785630  15.1083590  68.0676120  25.6672730  14.3768490
  68.7021210  25.8510910  15.7390120  84.0693390  27.4525180  24.1431380
  83.3856910  28.1224290  24.1348050  84.6087680  27.6505830  23.3776240
  85.5217530  17.2804840  22.2713110  84.5742440  17.3143820  22.4028540
  85.8467520  18.0943790  22.6562470  76.0537070  13.5802020  20.5669100
  76.3612050  13.0248910  19.8504600  75.1237770  13.7146480  20.3842090
  81.6052130  29.2969310  22.8576560  81.6179290  28.8931600  21.9898820
  81.0527350  30.0716600  22.7537990  82.8997550  26.0185530  17.9466730
  82.7893880  25.0759860  18.0716150  82.8965800  26.3801170  18.8329490
  81.0037570  24.1999150  24.1859170  81.4206360  23.9859260  23.3512630
  81.7277390  24.4571940  24.7567790  78.4417830  21.6450850  17.3029220
  77.5147110  21.5788230  17.5317690  78.5942650  22.5830980  17.1884460
  78.4286910  17.9167850  14.2996380  77.4890580  18.0781810  14.3848840
  78.7470170  18.6353530  13.7532370  84.9499670  22.5986370  24.2775410
  84.1218300  22.6679460  23.8025540  85.5450150  23.1840680  23.8091240
  82.4715120  23.2071150  17.8064470  81.8527540  22.8690700  17.1590770
  82.4539570  22.5630910  18.5143660  81.9141680  19.3855690  25.2230280
  81.5012860  20.2109400  25.4770270  81.1817630  18.8000730  25.0306640
  74.0474470  22.1715590  20.0848950  73.6431470  21.4592840  19.5894850
  74.1337590  21.8268830  20.9736990  74.5156170  25.8583150  22.2488160
  74.2184460  25.2528620  21.5695940  75.4655990  25.8960460  22.1377520
  72.7603090  18.9458800  23.8647990  73.3117680  19.0554140  23.0901240
  73.2746600  19.3196400  24.5803220  82.6041780  29.4315020  25.9111260
  82.1272340  30.2387210  25.7183870  81.9203570  28.7793350  26.0637470
  73.6074600  25.5964840  28.8995960  72.7103130  25.8204810  29.1469360
  73.6327470  25.7199780  27.9507360  80.6479820  22.4457960  14.8137220
  81.0873100  21.6080390  14.6675040  81.3608240  23.0787360  14.9001360
  72.4345820  22.4678160  27.4753330  72.2953590  23.3400960  27.8440730
  71.5527180  22.1250970  27.3301270  78.7575200  27.3854030  18.7818460
  79.1971110  28.1278360  18.3673850  78.6962090  27.6280600  19.7057420
  74.2326170  28.4099860  29.6838480  74.2041600  28.8142810  28.8166910
  74.0691140  27.4810220  29.5210080  84.2296960  13.7000770  13.1278260
  83.9169620  13.7927600  14.0277330  84.9909430  14.2781800  13.0775690
  70.7479100  21.0660570  17.5855600  70.6276700  21.7922660  16.9736870
  70.4379990  20.2963480  17.1083510  86.1840990  29.1926960  30.9802650
  86.6600710  29.6709850  31.6591730  86.8048150  29.1244450  30.2548150
  68.3864470  24.2375710  23.3924240  68.4644890  24.3724480  22.4479960
  69.0006150  23.5291600  23.5852360  69.6312100  25.9375900  19.8030420
  69.2240180  26.0790490  18.9484020  70.5225110  25.6536060  19.6001630
  85.5874240  26.3839810  28.1402660  85.7137300  26.1451690  27.2219840
  85.6295620  25.5524350  28.6124740  79.4490980  30.0867810  26.7097470
  79.9635650  29.9975820  27.5119900  78.6060060  30.4327510  27.0025380
  81.4245380  30.3723150  16.1381470  81.2646520  30.0826090  17.0363300
  81.2592090  29.5963280  15.6026700  73.9033760  30.1521680  17.9153090
  73.7276240  29.2357220  17.7020890  73.0489500  30.5108970  18.1550890
  81.1271510  27.8810710  14.6979470  80.4336670  27.8788000  14.0381750
  81.8694370  27.4570030  14.2673640  80.6921440  29.5073420  18.7727960
  81.1478390  28.7262800  19.0866580  81.0313960  30.2180240  19.3169140
  85.4398250  18.4372270  29.1052400  84.8242520  18.9451940  28.5767860
  85.1194670  17.5370600  29.0478340  68.4423990  25.2789880  25.9318700
  68.6055030  24.8095240  25.1138070  68.9076440  24.7713440  26.5967540
  73.2142760  14.4095640  20.9679270  72.7710910  15.1905180  20.6363790
  73.7727750  14.7325530  21.6750210  77.5012570  17.2764160  26.5714590
  77.0391940  17.4847180  27.3834530  77.0990680  16.4623510  26.2685260
  82.5017080  18.4973110  27.7011250  81.6510670  18.1978860  28.0220320
  82.3418870  18.7415120  26.7895070  79.5966790  19.9974860  29.8010040
  79.9220200  19.1638610  29.4612270  80.3847120  20.5203380  29.9488370
  76.3301580  14.0306340  15.8485100  75.7055760  14.0266210  16.5738410
  76.2431700  13.1637300  15.4521070  75.2518660  14.9542970  22.8268870
  75.5490990  15.8605800  22.7460890  75.8004220  14.4661750  22.2128440
  73.0056980  19.5329210  18.6960520  72.7797900  19.3166380  19.6007140
  72.2249510  19.9657670  18.3506490  80.2354740  19.5392580  17.2951170
  79.6363630  20.2628380  17.1114790  80.7834350  19.4769360  16.5127620
  75.4456190  20.4314790  29.3620790  75.3499790  19.4909520  29.2121190
  76.2888170  20.6529860  28.9668860  78.8419610  18.1756120  19.3254450
  79.2349180  18.4928320  18.5123140  79.2036460  17.2968000  19.4398970
  70.5766730  16.8428460  27.5154570  70.1830120  17.6903670  27.7227350
  69.8885130  16.2054830  27.7063210  77.1511780  16.9263430  30.5851310
  76.4610100  16.7335630  31.2197400  77.8944080  17.2098070  31.1175610
  67.8783780  14.7656920  21.5484650  67.5896830  15.3359780  22.2609630
  68.6229540  14.2861370  21.9115880  68.0654010  18.7077040  12.7587370
  67.9828680  19.6507800  12.9002360  67.7137070  18.5651950  11.8799720
  79.4274750  20.7661870  23.4205230  78.6955870  21.2748680  23.7695330
  79.0299090  19.9491850  23.1194010  75.8652140  17.4416070  21.8257720
  75.8688200  17.0006020  20.9762260  76.7603260  17.7633400  21.9329540
  71.7154520  17.3242560  20.7851930  71.3754570  17.8017790  21.5418980
  70.9531840  16.8707680  20.4253030  75.9272290  18.4428150  14.8164480
  76.0485110  18.4014630  15.7650300  75.5420800  19.3052300  14.6611210
  79.8900660  16.2195550  22.8328170  79.9073400  16.6704200  23.6770020
  79.6416240  15.3201190  23.0461610  74.9393790  20.7529290  14.2147780
  74.3710690  20.3047540  13.5883690  75.6482790  21.1122070  13.6812930
  83.3171410  13.6327730  28.6714550  83.6417180  12.9017390  29.1972530
  83.3527920  13.3141370  27.7695540  70.0162970  24.6541310  28.0914510
  69.6317760  24.0134980  28.6897470  70.3275160  25.3577430  28.6609240
  76.1660110  21.5017850  23.5723130  76.5330240  21.0276420  24.3184470
  75.9765170  22.3759420  23.9131470  69.0300600  16.2461540  19.7016600
  68.7447520  15.8817210  20.5395220  68.9679460  15.5142000  19.0879740
  73.9559480  20.5426490  25.8907340  73.6516550  21.4218470  26.1157700
  74.9105940  20.6026280  25.9264780  72.4841270  24.7487480  16.4874190
  71.7103530  24.2085100  16.3272910  73.2135900  24.2294090  16.1491950
  83.2429250  23.7452840  22.2800580  83.9628370  24.2408130  21.8896690
  83.0411070  23.0670730  21.6354450  78.7039190  15.1390800  16.4229970
  77.8903800  14.6403970  16.3475280  78.5101140  15.9789050  16.0066320
  78.6248050  23.8161900  28.1669580  78.5585360  22.8957570  27.9127170
  77.9953190  23.9137340  28.8814220  81.4187580  19.5110450  14.7192130
  82.3067200  19.8227680  14.5443470  81.3892670  18.6382700  14.3272710
  72.5278670  24.4167860  20.1253000  73.0457340  23.6136120  20.0709890
  72.0762690  24.3547000  20.9669830  77.4148170  25.6834140  15.3980300
  77.7563870  26.4276370  14.9023620  76.5860880  25.9965260  15.7605130
  70.0123210  21.3829230  27.0378700  69.6538150  22.0483080  27.6252040
  69.7177770  20.5512780  27.4091320  73.2136330  21.8413470  29.9218250
  72.9136470  21.9870650  29.0246070  73.9847570  21.2818760  29.8291640
  78.5564780  26.6382470  27.9173380  78.5709320  25.7063430  27.6992290
  77.8489880  26.7242230  28.5563150  83.6901850  20.8222290  14.1871990
  83.6065570  21.2536510  13.3368430  84.4096040  21.2820640  14.6198810
  84.7675990  23.2789810  27.2641960  84.0424180  23.8718590  27.0671350
  85.2951450  23.2713350  26.4655330  84.7189100  27.6764550  16.9154120
  84.0765260  27.0220170  17.1897840  84.3319760  28.0819640  16.1394790
  80.2975580  25.0049980  20.7625810  80.6499400  24.4078110  20.1027180
  79.4137910  24.6794210  20.9334060  76.3838860  25.7647670  18.1696220
  77.0709990  26.3116880  18.5503810  75.5971280  26.3088400  18.2045830
  68.5231260  21.3820490  13.6613300  69.3926110  21.6645290  13.9449220
  68.0321580  22.1956360  13.5462110  75.6866070  22.7693700  17.7821580
  76.1428850  23.5798950  18.0081770  75.3354280  22.4516840  18.6140070
  77.9898680  28.2800040  25.0113880  78.6340900  28.4859420  25.6887300
  78.3528120  27.5188440  24.5584730  71.5877850  13.1131350  18.2544100
  71.4592480  13.1049250  19.2029020  70.7639870  13.4514440  17.9035110
  79.2630760  26.2832390  23.7291330  79.9052990  25.5825550  23.8423500
  79.7880110  27.0630830  23.5488220  83.1086480  26.5681010  13.4530470
  82.8824060  25.8511450  14.0455110  82.7182680  26.3193450  12.6152220
  81.0368380  27.0827290  26.9327390  81.3724620  27.6693980  27.6105310
  80.1168720  26.9520000  27.1625180  68.8902510  30.5947870  14.2274930
  69.2500150  31.1937210  13.5732200  68.7494850  31.1407760  15.0009960
  68.5871780  14.8722470  27.7150800  67.8730300  15.0719390  28.3203410
  69.0066820  14.0962040  28.0865600  82.6902730  24.4852950  15.1144630
  82.4024430  24.9465640  15.9022510  83.4854900  24.0250720  15.3828850
  68.8744370  28.8602730  28.7017330  68.9835490  27.9197470  28.5612720
  68.2224930  29.1257480  28.0531060  76.8656960  27.1318620  30.1015450
  76.5453830  26.4127860  30.6461140  76.1915320  27.8073690  30.1751510
  74.9071130  27.9779070  15.0448600  74.8981230  28.7108760  14.4293110
  73.9869490  27.7310650  15.1375560  70.5077770  23.1993960  15.7895360
  69.9005720  23.9392860  15.7990660  70.9827120  23.2893320  14.9633560
  80.0810560  17.3644780  25.4652250  80.4491380  16.5439990  25.7931820
  79.2208760  17.4246670  25.8807900  83.4472590  16.3201720  16.2739810
  82.8185750  16.4247390  15.5598040  82.9524510  16.5398500  17.0633690
  77.8930730  28.0407310  13.7073790  77.9942710  27.8371300  12.7775770
  76.9932470  27.7865590  13.9121570  75.4156620  18.5987670  17.6897690
  74.7072770  19.0674010  18.1311300  75.7001100  17.9409680  18.3242880
  77.0412550  20.0184370  25.6890220  77.5397800  20.4930190  26.3542070
  77.1835500  19.0947890  25.8960250  79.4472050  15.3238330  19.1293480
  79.3239830  15.3424460  18.1802990  80.3956610  15.3717270  19.2491880
  76.5348840  30.5593630  18.4021460  76.7890340  30.5215020  17.4800830
  75.5861320  30.4326960  18.3949710  73.6191640  16.9072750  15.0648400
  74.4682170  17.3442900  14.9988590  73.2522910  17.2193010  15.8920460
  84.2479410  16.2352330  26.5318610  83.7453010  16.9757730  26.8712420
  85.0636070  16.6236330  26.2155400  82.5401420  21.4785510  19.9779970
  81.5991560  21.4935740  20.1527660  82.8545490  20.6921470  20.4240270
  72.5183060  23.1605110  13.5383930  73.2846330  23.0486470  14.1009360
  72.5957750  22.4643080  12.8860700  71.2129820  20.5930180  14.2216820
  71.2933410  19.6457690  14.3334220  72.1049570  20.9237060  14.3277480
  84.5427000  28.6494360  21.6534230  84.6674420  29.4725530  22.1258040
  85.4092560  28.4385090  21.3058380  72.0144530  30.7425570  21.3251360
  72.7507010  30.1941030  21.5959930  72.3985450  31.6081580  21.1857350
  68.8990010  26.8099140  17.1992870  67.9729790  27.0520280  17.1898280
  69.3646440  27.6373400  17.0777620  71.0202810  29.9271640  30.5136940
  71.8215540  30.2483690  30.9272340  70.5054630  29.5667220  31.2356850
  75.1246840  29.9155880  13.1476930  75.9175450  30.2044710  12.6958720
  74.6051190  29.4848050  12.4689410  79.8567440  26.0351510  30.4612350
  79.2505600  26.0583110  29.7208100  79.5521550  25.3034550  30.9979600
  81.2867810  29.7631800  29.0721760  82.2389560  29.6789820  29.0222000
  81.1396030  30.4273510  29.7455550  84.1777010  29.1426010  14.5713670
  83.8918520  28.7291150  13.7567850  83.9796560  30.0713720  14.4514190
  68.7400620  22.4145100  29.4572990  69.2439640  21.8352380  30.0289220
  68.0008040  22.6985330  29.9949360  75.6424240  25.1359290  13.0119280
  75.5374880  24.5211640  13.7380660  75.4748460  24.6125180  12.2282290
  75.7938560  23.8216090  28.9908510  75.0284230  24.3901090  28.9063180
  75.9754520  23.5292300  28.0976740  78.8826970  24.1979320  13.6161270
  78.3337070  24.6448620  14.2604010  79.5046230  23.6928570  14.1398940
  82.9361910  25.5521420  29.5483530  83.6771380  25.8897180  29.0450990
  82.1734590  25.7213480  28.9953300  70.7723700  20.5574690  30.3523060
  70.8129040  20.2588560  31.2608290  71.6269200  20.9582300  30.1930580
  74.5502090  23.1570240  15.5126570  74.9718510  22.9910110  16.3557960
  74.6752930  22.3470470  15.0181710  72.7129510  19.1366790  28.3197550
  72.1825970  18.6457740  27.6920890  73.3817580  19.5650990  27.7855480
  77.0629730  22.1807850  12.7603670  77.5835390  21.4656870  12.3944820
  77.7098130  22.8193720  13.0604180  81.6107570  23.6036250  28.0838740
  82.0248590  23.7581330  28.9329160  80.6758570  23.7291470  28.2464520
  82.0829740  20.9432410  30.0877890  82.6650510  20.1884730  29.9998370
  82.2591510  21.4739850  29.3109370  73.2001810  16.1029160  28.3994840
  73.1058680  15.4849910  27.6745710  72.6199200  16.8295450  28.1724750
  75.9663250  14.6602400  25.4322230  75.5180550  14.6826660  24.5867780
  75.3328450  14.2621420  26.0292530  76.3722800  23.5556730  26.0534670
  76.7910910  24.3989460  25.8810910  75.4531430  23.6928770  25.8241450
  78.7086700  21.2872910  27.4372510  78.8282910  20.6914050  28.1767350
  79.5680700  21.3242600  27.0173810  81.0474600  21.8410100  26.0135020
  80.5209820  22.3652720  25.4100160  81.3905940  22.4737490  26.6444750
  73.4460990  19.2303470  12.4584730  73.2450050  18.3670830  12.8198070
  73.2753040  19.1436830  11.5206330  74.2230220  29.8609740  27.1692400
  73.6851310  30.5855800  26.8501100  74.4764180  29.3840080  26.3789740
  75.4755470  17.8294260  28.6948330  76.0655160  17.5210110  29.3826150
  74.6575710  17.3574010  28.8508230  80.2948900  17.4460070  28.9281350
  79.6064420  16.7841610  28.8631340  81.0154920  16.9998340  29.3729810
  80.9249300  14.0411700  14.9871610  81.2051590  13.1979600  15.3431030
  80.1515030  14.2734810  15.5010360  72.2443790  16.3304090  12.4462610
  72.5469690  16.3371520  11.5381760  72.9838380  15.9801950  12.9430270
  77.0792430  31.0960950  27.4279050  77.0051130  31.9996090  27.7351420
  76.1771270  30.7772850  27.4001120  75.4628720  15.2738710  13.4318810
  75.1150720  14.5962700  12.8521260  75.6641490  14.8128220  14.2462200
  77.6277760  30.2619460  15.0505410  78.5228550  30.6004430  15.0724170
  77.6595390  29.5398870  14.4229690  71.2673920  25.6346510  13.2792410
  71.7048790  26.1776180  13.9349990  71.7521650  24.8093460  13.2888750
  68.4819720  28.4235540  20.7312670  68.8122730  27.5556600  20.4991310
  68.9110720  28.6294060  21.5617630  73.0781640  26.7544550  18.3914640
  72.7777180  26.6309520  19.2918550  72.9719130  25.8953140  17.9830370
  68.9709930  29.2906130  23.4694300  68.5340920  29.4706930  24.3018450
  69.5387610  30.0480750  23.3276020  84.6072110  28.7923130  27.7571610
  84.0074100  28.8515690  27.0135530  84.7366010  27.8528110  27.8868460
  85.8473560  26.5340950  13.0941320  85.0166520  26.6017600  13.5648550
  86.0245390  27.4245070  12.7908180  85.3030020  23.2788430  15.5975520
  86.0648930  23.8485080  15.7035210  85.3184390  22.7115630  16.3683830
  68.8034360  21.8026360  19.8283180  68.1483200  21.5338000  19.1842880
  69.6412310  21.6930840  19.3785160  86.3089990  24.1338530  20.4417450
  86.6798820  23.3505850  20.0353420  86.9491920  24.8227630  20.2634750
  83.2923750  25.5175110  25.8547770  82.4783590  25.9472270  26.1173560
  83.6997950  26.1293520  25.2416820  85.3549190  23.5722800  12.7548040
  85.6298030  24.4801680  12.6267260  85.1659930  23.5085330  13.6910030
  81.7524800  16.5967650  14.0501670  82.1709680  16.4098630  13.2098330
  81.4460860  15.7446700  14.3604600  85.2514530  21.5091790  17.7477470
  84.8758130  20.7419720  17.3158760  84.5217650  21.8914490  18.2352400
  69.8410290  22.1878930  24.3686520  70.2083330  22.1006330  25.2482540
  69.2721110  21.4245480  24.2693380  84.6414150  20.6563310  27.3816990
  84.4100240  20.4276060  26.4814940  84.9018700  21.5762860  27.3361880
  69.3926290  19.0988020  28.2744940  68.4982340  19.0654780  28.6138650
  69.9323840  19.2974810  29.0396190  83.0802220  15.8819740  30.1596690
  83.9572400  15.8903140  30.5430690  83.0923060  15.1450580  29.5489040
  68.0172440  19.0125290  15.7708510  67.1136520  19.2755490  15.5960170
  68.5013060  19.2836460  14.9908470  84.5265490  19.7349280  21.0484710
  85.0502970  19.2411930  20.4174880  85.1124910  19.8699640  21.7932280
  84.7055210  19.8189150  24.5704260  83.7557920  19.7852690  24.6849250
  84.8868220  20.7289260  24.3354030  70.5599650  18.0690830  13.6802890
  71.2691350  17.6474050  13.1950170  69.8439590  18.1366060  13.0486240
  70.2073810  14.1230160  12.7205540  70.9301940  14.6639100  13.0386760
  70.4798330  13.8493580  11.8447080  84.0165460  18.9922630  16.9877120
  84.5124580  18.7593500  17.7726000  83.8181530  18.1534470  16.5714760
  69.8966000  13.3736350  22.6228160  70.5442190  12.8233730  22.1823320
  70.3167840  13.6279500  23.4443970  85.4452620  17.6283580  19.5214800
  85.3351900  17.4739620  20.4597070  86.2060210  17.1004520  19.2790210
  83.7918340  13.5677710  25.9797800  84.4290560  14.1811850  26.3456990
  83.9393230  13.6038370  25.0347030  86.3342890  15.4591500  12.7620940
  87.2592200  15.3272680  12.5539230  86.3118680  15.5384320  13.7157390
  86.4081380  16.2302160  15.3877650  85.6132880  16.1647280  15.9170560
  86.6124660  17.1652800  15.3763000  83.3499800  30.2693710  19.3816040
  83.9458870  29.9478280  18.7050460  83.6077950  29.7965530  20.1729310
  69.6498000  13.5292020  25.3653480  69.3012820  13.9855840  26.1311660
  69.3185700  12.6349150  25.4475910  71.2562370  26.7011620  29.5306670
  71.2132000  26.3304530  30.4121130  71.3873380  27.6389190  29.6708490
  74.9568400  28.2571210  25.1316390  74.7159760  28.5245770  24.2446910
  75.8971040  28.4276940  25.1867250  77.1622820  14.7203900  28.8872900
  77.1011710  15.3125730  29.6368310  78.1023200  14.6129860  28.7423160
  79.7997380  14.3773960  28.5265190  80.4137790  14.6953250  27.8646270
  80.3446940  13.8922550  29.1461050  86.2172560  30.2765590  25.9327030
  85.7230840  30.6734460  25.2154160  85.6085850  29.6514800  26.3264310
  70.3218640  13.0568220  28.6404250  70.8701630  12.8756270  27.8770360
  70.3873950  12.2662330  29.1760560  71.0950400  29.6473870  26.6504450
  70.5010720  29.5158570  27.3894490  71.0874240  28.8112010  26.1846550
  80.5405420  12.9406100  24.8534480  79.6665260  13.2741210  24.6507410
  80.4316170  12.4679280  25.6786350  81.4477400  15.1476970  26.2376200
  81.1190760  14.3328730  25.8577930  82.3959700  15.1046780  26.1141890
  83.9012010  30.9189010  23.2113770  83.4414980  31.6704820  22.8371790
  83.2724470  30.1995480  23.1528570  70.7262630  27.0132250  25.6012490
  69.9996690  26.3937540  25.5338440  70.7871780  27.4072860  24.7310570
  74.3307730  29.2277250  22.3861900  74.8472750  28.6164610  21.8610160
  74.9805110  29.7306030  22.8772910  77.0703230  30.1185740  23.2130880
  77.3581040  29.8640040  22.3363890  77.5826450  29.5663100  23.8036450
  78.2880240  13.8575940  23.7927390  77.5052030  14.3321440  24.0724150
  77.9943170  12.9530770  23.6840570  82.8401310  14.5599040  21.8376480
  83.2809400  14.5044140  20.9898080  82.5708900  15.4757050  21.9086660
  84.7039880  14.1914280  19.8485300  84.6428280  13.2475500  19.7016320
  85.4831910  14.2994370  20.3938760  69.0092630  30.3306640  18.8109250
  68.8414670  29.6977320  19.5091140  68.1427140  30.5366040  18.4603440
  69.6320650  14.1623420  16.3141110  70.3900010  14.2752300  15.7405140
  69.1697820  14.9992620  16.2684540  76.1734460  16.2762690  19.3043420
  75.3608970  15.9019580  18.9639300  76.6776100  15.5207770  19.6064610
  80.6759440  12.9405140  20.5426490  81.2788810  13.5125350  21.0175010
  79.9352430  13.5044580  20.3200390  83.8194040  13.3426700  15.8166770
  84.0144670  14.2410150  16.0834200  83.0323910  13.1113780  16.3099720
  70.6155330  29.0239870  16.2559390  70.0902950  29.4047900  15.5521350
  70.5399910  29.6490640  16.9769100  72.0045800  14.6887470  14.8543080
  72.5338560  13.9017270  14.7251030  72.6374120  15.3678660  15.0878610
  74.1983640  14.4262610  17.9088470  73.5686380  13.7249920  18.0758600
  73.6588780  15.1866740  17.6921630  77.1375590  31.0401840  30.5799080
  78.0642900  30.8046110  30.6235040  77.1226020  31.8673840  30.0985110
  85.3720650  30.5827410  17.5773330  85.5472840  29.8965150  16.9334250
  84.6742220  31.1074460  17.1850000  74.3239200  13.7046590  30.3440960
  74.0423470  14.2080190  29.5801780  74.7058900  12.9068340  29.9783090
  73.2148300  30.9722250  15.1308640  73.9467120  30.6881530  14.5832530
  73.4741970  30.7335530  16.0208020  72.3763090  27.0886980  15.1354970
  71.7471970  27.5572080  15.6840800  72.4910920  26.2436200  15.5701160
  80.9254660  13.1200170  30.9221430  80.8120110  13.4394780  31.8172950
  81.7424400  13.5212680  30.6258710  83.7053150  30.2671700  30.4040120
  84.4978470  29.7720930  30.1966080  83.9986300  30.9461840  31.0115730
  77.9630850  22.9171660   3.1665440  77.1872950  22.4372100   3.4564010
  78.6143780  22.2377310   2.9921600  71.9796680  23.2291470   4.0441200
  71.1481560  22.9740180   4.4437710  72.5877660  23.3002240   4.7799120
  81.9838280  27.3231850   1.9464570  81.5219810  26.5519090   2.2751740
  82.7963830  27.3497920   2.4517020  71.9597940  27.2631560   4.2399220
  72.2625980  26.3729300   4.0609440  72.7041530  27.8201780   4.0121470
  68.3521640  20.7899010   3.7123290  68.9237750  20.0221210   3.7126930
  68.3523180  21.0887770   2.8029900  77.4039840  25.5928850   3.1735600
  77.3348120  24.6518790   3.0124730  78.1659700  25.6830260   3.7458170
  69.5946510  16.1983370   5.4992220  69.4149350  15.3009120   5.7794980
  69.1926590  16.7455240   6.1739170  78.4345010  18.3999230   3.4004530
  78.8109830  17.5271110   3.2878200  78.3364520  18.7357930   2.5094970
  70.2133180  18.6943870   4.1074560  70.8943290  18.9582240   4.7261960
  69.8981230  17.8544740   4.4412570  74.4057750  19.7411230   3.1947150
  74.9135970  20.2392200   3.8352170  74.9370990  18.9646430   3.0186510
  86.5068680  17.9116420   6.8976500  85.8020850  18.2998130   6.3791610
  86.7726600  18.6066710   7.4997430  72.6893850  14.3809790   7.4610570
  72.6912290  14.8982180   6.6556470  71.8598160  13.9039970   7.4380500
  73.9396700  24.0204970   5.6384070  73.6066080  24.6473890   6.2805140
  74.1163380  24.5466850   4.8585740  82.4530610  17.8350050   3.1060410
  81.7486180  18.1234940   3.6863520  82.8142770  18.6450160   2.7459970
  72.3709180  16.0919750   5.4681020  72.7125990  16.9361800   5.1734890
  71.4324990  16.2403490   5.5846360  73.1515800  25.9885770   7.4533250
  73.7689800  26.6636850   7.1717700  72.2908920  26.3973750   7.3620750
  84.0693390  27.4525180   5.3687890  83.3856910  28.1224290   5.3604560
  84.6087680  27.6505830   4.6032750  85.5217530  17.2804840   3.4969620
  84.5742440  17.3143820   3.6285050  85.8467520  18.0943790   3.8818980
  81.6052130  29.2969310   4.0833070  81.6179290  28.8931600   3.2155330
  81.0527350  30.0716600   3.9794500  81.0037570  24.1999150   5.4115680
  81.4206360  23.9859260   4.5769140  81.7277390  24.4571940   5.9824300
  84.9499670  22.5986370   5.5031920  84.1218300  22.6679460   5.0282050
  85.5450150  23.1840680   5.0347750  81.9141680  19.3855690   6.4486790
  81.5012860  20.2109400   6.7026780  81.1817630  18.8000730   6.2563150
  74.5156170  25.8583150   3.4744670  74.2184460  25.2528620   2.7952450
  75.4655990  25.8960460   3.3634030  72.7603090  18.9458800   5.0904500
  73.3117680  19.0554140   4.3157750  73.2746600  19.3196400   5.8059730
  82.6041780  29.4315020   7.1367770  82.1272340  30.2387210   6.9440380
  81.9203570  28.7793350   7.2893980  73.6074600  25.5964840  10.1252470
  72.7103130  25.8204810  10.3725870  73.6327470  25.7199780   9.1763870
  72.4345820  22.4678160   8.7009840  72.2953590  23.3400960   9.0697240
  71.5527180  22.1250970   8.5557780  74.2326170  28.4099860  10.9094990
  74.2041600  28.8142810  10.0423420  74.0691140  27.4810220  10.7466590
  86.1840990  29.1926960  12.2059160  86.6600710  29.6709850  12.8848240
  86.8048150  29.1244450  11.4804660  68.3864470  24.2375710   4.6180750
  68.4644890  24.3724480   3.6736470  69.0006150  23.5291600   4.8108870
  85.5874240  26.3839810   9.3659170  85.7137300  26.1451690   8.4476350
  85.6295620  25.5524350   9.8381250  79.4490980  30.0867810   7.9353980
  79.9635650  29.9975820   8.7376410  78.6060060  30.4327510   8.2281890
  85.4398250  18.4372270  10.3308910  84.8242520  18.9451940   9.8024370
  85.1194670  17.5370600  10.2734850  68.4423990  25.2789880   7.1575210
  68.6055030  24.8095240   6.3394580  68.9076440  24.7713440   7.8224050
  73.2142760  14.4095640   2.1935780  72.7710910  15.1905180   1.8620300
  73.7727750  14.7325530   2.9006720  77.5012570  17.2764160   7.7971100
  77.0391940  17.4847180   8.6091040  77.0990680  16.4623510   7.4941770
  82.5017080  18.4973110   8.9267760  81.6510670  18.1978860   9.2476830
  82.3418870  18.7415120   8.0151580  79.5966790  19.9974860  11.0266550
  79.9220200  19.1638610  10.6868780  80.3847120  20.5203380  11.1744880
  75.2518660  14.9542970   4.0525380  75.5490990  15.8605800   3.9717400
  75.8004220  14.4661750   3.4384950  75.4456190  20.4314790  10.5877300
  75.3499790  19.4909520  10.4377700  76.2888170  20.6529860  10.1925370
  70.5766730  16.8428460   8.7411080  70.1830120  17.6903670   8.9483860
  69.8885130  16.2054830   8.9319720  77.1511780  16.9263430  11.8107820
  76.4610100  16.7335630  12.4453910  77.8944080  17.2098070  12.3432120
  67.8783780  14.7656920   2.7741160  67.5896830  15.3359780   3.4866140
  68.6229540  14.2861370   3.1372390  79.4274750  20.7661870   4.6461740
  78.6955870  21.2748680   4.9951840  79.0299090  19.9491850   4.3450520
  75.8652140  17.4416070   3.0514230  75.8688200  17.0006020   2.2018770
  76.7603260  17.7633400   3.1586050  71.7154520  17.3242560   2.0108440
  71.3754570  17.8017790   2.7675490  70.9531840  16.8707680   1.6509540
  79.8900660  16.2195550   4.0584680  79.9073400  16.6704200   4.9026530
  79.6416240  15.3201190   4.2718120  83.3171410  13.6327730   9.8971060
  83.6417180  12.9017390  10.4229040  83.3527920  13.3141370   8.9952050
  70.0162970  24.6541310   9.3171020  69.6317760  24.0134980   9.9153980
  70.3275160  25.3577430   9.8865750  76.1660110  21.5017850   4.7979640
  76.5330240  21.0276420   5.5440980  75.9765170  22.3759420   5.1387980
  73.9559480  20.5426490   7.1163850  73.6516550  21.4218470   7.3414210
  74.9105940  20.6026280   7.1521290  83.2429250  23.7452840   3.5057090
  83.9628370  24.2408130   3.1153200  83.0411070  23.0670730   2.8610960
  78.6248050  23.8161900   9.3926090  78.5585360  22.8957570   9.1383680
  77.9953190  23.9137340  10.1070730  70.0123210  21.3829230   8.2635210
  69.6538150  22.0483080   8.8508550  69.7177770  20.5512780   8.6347830
  73.2136330  21.8413470  11.1474760  72.9136470  21.9870650  10.2502580
  73.9847570  21.2818760  11.0548150  78.5564780  26.6382470   9.1429890
  78.5709320  25.7063430   8.9248800  77.8489880  26.7242230   9.7819660
  84.7675990  23.2789810   8.4898470  84.0424180  23.8718590   8.2927860
  85.2951450  23.2713350   7.6911840  77.9898680  28.2800040   6.2370390
  78.6340900  28.4859420   6.9143810  78.3528120  27.5188440   5.7841240
  79.2630760  26.2832390   4.9547840  79.9052990  25.5825550   5.0680010
  79.7880110  27.0630830   4.7744730  81.0368380  27.0827290   8.1583900
  81.3724620  27.6693980   8.8361820  80.1168720  26.9520000   8.3881690
  68.5871780  14.8722470   8.9407310  67.8730300  15.0719390   9.5459920
  69.0066820  14.0962040   9.3122110  68.8744370  28.8602730   9.9273840
  68.9835490  27.9197470   9.7869230  68.2224930  29.1257480   9.2787570
  76.8656960  27.1318620  11.3271960  76.5453830  26.4127860  11.8717650
  76.1915320  27.8073690  11.4008020  80.0810560  17.3644780   6.6908760
  80.4491380  16.5439990   7.0188330  79.2208760  17.4246670   7.1064410
  77.0412550  20.0184370   6.9146730  77.5397800  20.4930190   7.5798580
  77.1835500  19.0947890   7.1216760  84.2479410  16.2352330   7.7575120
  83.7453010  16.9757730   8.0968930  85.0636070  16.6236330   7.4411910
  84.5427000  28.6494360   2.8790740  84.6674420  29.4725530   3.3514550
  85.4092560  28.4385090   2.5314890  72.0144530  30.7425570   2.5507870
  72.7507010  30.1941030   2.8216440  72.3985450  31.6081580   2.4113860
  71.0202810  29.9271640  11.7393450  71.8215540  30.2483690  12.1528850
  70.5054630  29.5667220  12.4613360  79.8567440  26.0351510  11.6868860
  79.2505600  26.0583110  10.9464610  79.5521550  25.3034550  12.2236110
  81.2867810  29.7631800  10.2978270  82.2389560  29.6789820  10.2478510
  81.1396030  30.4273510  10.9712060  68.7400620  22.4145100  10.6829500
  69.2439640  21.8352380  11.2545730  68.0008040  22.6985330  11.2205870
  75.7938560  23.8216090  10.2165020  75.0284230  24.3901090  10.1319690
  75.9754520  23.5292300   9.3233250  82.9361910  25.5521420  10.7740040
  83.6771380  25.8897180  10.2707500  82.1734590  25.7213480  10.2209810
  70.7723700  20.5574690  11.5779570  70.8129040  20.2588560  12.4864800
  71.6269200  20.9582300  11.4187090  72.7129510  19.1366790   9.5454060
  72.1825970  18.6457740   8.9177400  73.3817580  19.5650990   9.0111990
  81.6107570  23.6036250   9.3095250  82.0248590  23.7581330  10.1585670
  80.6758570  23.7291470   9.4721030  82.0829740  20.9432410  11.3134400
  82.6650510  20.1884730  11.2254880  82.2591510  21.4739850  10.5365880
  73.2001810  16.1029160   9.6251350  73.1058680  15.4849910   8.9002220
  72.6199200  16.8295450   9.3981260  75.9663250  14.6602400   6.6578740
  75.5180550  14.6826660   5.8124290  75.3328450  14.2621420   7.2549040
  76.3722800  23.5556730   7.2791180  76.7910910  24.3989460   7.1067420
  75.4531430  23.6928770   7.0497960  78.7086700  21.2872910   8.6629020
  78.8282910  20.6914050   9.4023860  79.5680700  21.3242600   8.2430320
  81.0474600  21.8410100   7.2391530  80.5209820  22.3652720   6.6356670
  81.3905940  22.4737490   7.8701260  74.2230220  29.8609740   8.3948910
  73.6851310  30.5855800   8.0757610  74.4764180  29.3840080   7.6046250
  75.4755470  17.8294260   9.9204840  76.0655160  17.5210110  10.6082660
  74.6575710  17.3574010  10.0764740  80.2948900  17.4460070  10.1537860
  79.6064420  16.7841610  10.0887850  81.0154920  16.9998340  10.5986320
  77.0792430  31.0960950   8.6535560  77.0051130  31.9996090   8.9607930
  76.1771270  30.7772850   8.6257630  68.4819720  28.4235540   1.9569180
  68.8122730  27.5556600   1.7247820  68.9110720  28.6294060   2.7874140
  68.9709930  29.2906130   4.6950810  68.5340920  29.4706930   5.5274960
  69.5387610  30.0480750   4.5532530  84.6072110  28.7923130   8.9828120
  84.0074100  28.8515690   8.2392040  84.7366010  27.8528110   9.1124970
  83.2923750  25.5175110   7.0804280  82.4783590  25.9472270   7.3430070
  83.6997950  26.1293520   6.4673330  69.8410290  22.1878930   5.5943030
  70.2083330  22.1006330   6.4739050  69.2721110  21.4245480   5.4949890
  84.6414150  20.6563310   8.6073500  84.4100240  20.4276060   7.7071450
  84.9018700  21.5762860   8.5618390  69.3926290  19.0988020   9.5001450
  68.4982340  19.0654780   9.8395160  69.9323840  19.2974810  10.2652700
  83.0802220  15.8819740  11.3853200  83.9572400  15.8903140  11.7687200
  83.0923060  15.1450580  10.7745550  84.5265490  19.7349280   2.2741220
  85.0502970  19.2411930   1.6431390  85.1124910  19.8699640   3.0188790
  84.7055210  19.8189150   5.7960770  83.7557920  19.7852690   5.9105760
  84.8868220  20.7289260   5.5610540  69.8966000  13.3736350   3.8484670
  70.5442190  12.8233730   3.4079830  70.3167840  13.6279500   4.6700480
  83.7918340  13.5677710   7.2054310  84.4290560  14.1811850   7.5713500
  83.9393230  13.6038370   6.2603540  69.6498000  13.5292020   6.5909990
  69.3012820  13.9855840   7.3568170  69.3185700  12.6349150   6.6732420
  71.2562370  26.7011620  10.7563180  71.2132000  26.3304530  11.6377640
  71.3873380  27.6389190  10.8965000  74.9568400  28.2571210   6.3572900
  74.7159760  28.5245770   5.4703420  75.8971040  28.4276940   6.4123760
  77.1622820  14.7203900  10.1129410  77.1011710  15.3125730  10.8624820
  78.1023200  14.6129860   9.9679670  79.7997380  14.3773960   9.7521700
  80.4137790  14.6953250   9.0902780  80.3446940  13.8922550  10.3717560
  86.2172560  30.2765590   7.1583540  85.7230840  30.6734460   6.4410670
  85.6085850  29.6514800   7.5520820  70.3218640  13.0568220   9.8660760
  70.8701630  12.8756270   9.1026870  70.3873950  12.2662330  10.4017070
  71.0950400  29.6473870   7.8760960  70.5010720  29.5158570   8.6151000
  71.0874240  28.8112010   7.4103060  80.5405420  12.9406100   6.0790990
  79.6665260  13.2741210   5.8763920  80.4316170  12.4679280   6.9042860
  81.4477400  15.1476970   7.4632710  81.1190760  14.3328730   7.0834440
  82.3959700  15.1046780   7.3398400  83.9012010  30.9189010   4.4370280
  83.4414980  31.6704820   4.0628300  83.2724470  30.1995480   4.3785080
  70.7262630  27.0132250   6.8269000  69.9996690  26.3937540   6.7594950
  70.7871780  27.4072860   5.9567080  74.3307730  29.2277250   3.6118410
  74.8472750  28.6164610   3.0866670  74.9805110  29.7306030   4.1029420
  77.0703230  30.1185740   4.4387390  77.3581040  29.8640040   3.5620400
  77.5826450  29.5663100   5.0292960  78.2880240  13.8575940   5.0183900
  77.5052030  14.3321440   5.2980660  77.9943170  12.9530770   4.9097080
  82.8401310  14.5599040   3.0632990  83.2809400  14.5044140   2.2154590
  82.5708900  15.4757050   3.1343170  80.6759440  12.9405140   1.7683000
  81.2788810  13.5125350   2.2431520  79.9352430  13.5044580   1.5456900
  77.1375590  31.0401840  11.8055590  78.0642900  30.8046110  11.8491550
  77.1226020  31.8673840  11.3241620  74.3239200  13.7046590  11.5697470
  74.0423470  14.2080190  10.8058290  74.7058900  12.9068340  11.2039600
  80.9254660  13.1200170  12.1477940  80.8120110  13.4394780  13.0429460
  81.7424400  13.5212680  11.8515220  83.7053150  30.2671700  11.6296630
  84.4978470  29.7720930  11.4222590  83.9986300  30.9461840  12.2372240
  77.9630850   4.1428170 153.3613360  77.1872950   3.6628610 153.6511930
  78.6143780   3.4633820 153.1869520  81.9838280   8.5488360 152.1412490
  81.5219810   7.7775600 152.4699660  82.7963830   8.5754430 152.6464940
  71.9597940   8.4888070 154.4347140  72.2625980   7.5985810 154.2557360
  72.7041530   9.0458290 154.2069390  78.2101590  10.8346370 151.7616480
  77.5913030  11.2903870 151.1910920  79.0653370  10.9897830 151.3606180
  77.4039840   6.8185360 153.3683520  77.3348120   5.8775300 153.2072650
  78.1659700   6.9086770 153.9406090  79.0764940   5.7185610 149.1548390
  78.4582210   6.1835060 148.5911110  79.5888190   6.4113090 149.5717900
  68.4448140   6.4042140 146.5288020  68.0676120   6.8929240 145.7972920
  68.7021210   7.0767420 147.1594550  81.6052130  10.5225820 154.2780990
  81.6179290  10.1188110 153.4103250  81.0527350  11.2973110 154.1742420
  82.8997550   7.2442040 149.3671160  82.7893880   6.3016370 149.4920580
  82.8965800   7.6057680 150.2533920  78.4417830   2.8707360 148.7233650
  77.5147110   2.8044740 148.9522120  78.5942650   3.8087490 148.6088890
  82.4715120   4.4327660 149.2268900  81.8527540   4.0947210 148.5795200
  82.4539570   3.7887420 149.9348090  74.0474470   3.3972100 151.5053380
  73.6431470   2.6849350 151.0099280  74.1337590   3.0525340 152.3941420
  74.5156170   7.0839660 153.6692590  74.2184460   6.4785130 152.9900370
  75.4655990   7.1216970 153.5581950  80.6479820   3.6714470 146.2341650
  81.0873100   2.8336900 146.0879470  81.3608240   4.3043870 146.3205790
  78.7575200   8.6110540 150.2022890  79.1971110   9.3534870 149.7878280
  78.6962090   8.8537110 151.1261850  69.6312100   7.1632410 151.2234850
  69.2240180   7.3047000 150.3688450  70.5225110   6.8792570 151.0206060
  81.4245380  11.5979660 147.5585900  81.2646520  11.3082600 148.4567730
  81.2592090  10.8219790 147.0231130  73.9033760  11.3778190 149.3357520
  73.7276240  10.4613730 149.1225320  73.0489500  11.7365480 149.5755320
  81.1271510   9.1067220 146.1183900  80.4336670   9.1044510 145.4586180
  81.8694370   8.6826540 145.6878070  80.6921440  10.7329930 150.1932390
  81.1478390   9.9519310 150.5071010  81.0313960  11.4436750 150.7373570
  72.4841270   5.9743990 147.9078620  71.7103530   5.4341610 147.7477340
  73.2135900   5.4550600 147.5696380  83.2429250   4.9709350 153.7005010
  83.9628370   5.4664640 153.3101120  83.0411070   4.2927240 153.0558880
  72.5278670   5.6424370 151.5457430  73.0457340   4.8392630 151.4914320
  72.0762690   5.5803510 152.3874260  77.4148170   6.9090650 146.8184730
  77.7563870   7.6532880 146.3228050  76.5860880   7.2221770 147.1809560
  83.6901850   2.0478800 145.6076420  83.6065570   2.4793020 144.7572860
  84.4096040   2.5077150 146.0403240  84.7189100   8.9021060 148.3358550
  84.0765260   8.2476680 148.6102270  84.3319760   9.3076150 147.5599220
  80.2975580   6.2306490 152.1830240  80.6499400   5.6334620 151.5231610
  79.4137910   5.9050720 152.3538490  76.3838860   6.9904180 149.5900650
  77.0709990   7.5373390 149.9708240  75.5971280   7.5344910 149.6250260
  68.5231260   2.6077000 145.0817730  69.3926110   2.8901800 145.3653650
  68.0321580   3.4212870 144.9666540  75.6866070   3.9950210 149.2026010
  76.1428850   4.8055460 149.4286200  75.3354280   3.6773350 150.0344500
  83.1086480   7.7937520 144.8734900  82.8824060   7.0767960 145.4659540
  82.7182680   7.5449960 144.0356650  68.8902510  11.8204380 145.6479360
  69.2500150  12.4193720 144.9936630  68.7494850  12.3664270 146.4214390
  82.6902730   5.7109460 146.5349060  82.4024430   6.1722150 147.3226940
  83.4854900   5.2507230 146.8033280  74.9071130   9.2035580 146.4653030
  74.8981230   9.9365270 145.8497540  73.9869490   8.9567160 146.5579990
  70.5077770   4.4250470 147.2099790  69.9005720   5.1649370 147.2195090
  70.9827120   4.5149830 146.3837990  77.8930730   9.2663820 145.1278220
  77.9942710   9.0627810 144.1980200  76.9932470   9.0122100 145.3326000
  76.5348840  11.7850140 149.8225890  76.7890340  11.7471530 148.9005260
  75.5861320  11.6583470 149.8154140  82.5401420   2.7042020 151.3984400
  81.5991560   2.7192250 151.5732090  82.8545490   1.9177980 151.8444700
  72.5183060   4.3861620 144.9588360  73.2846330   4.2742980 145.5213790
  72.5957750   3.6899590 144.3065130  84.5427000   9.8750870 153.0738660
  84.6674420  10.6982040 153.5462470  85.4092560   9.6641600 152.7262810
  72.0144530  11.9682080 152.7455790  72.7507010  11.4197540 153.0164360
  72.3985450  12.8338090 152.6061780  68.8990010   8.0355650 148.6197300
  67.9729790   8.2776790 148.6102710  69.3646440   8.8629910 148.4982050
  75.1246840  11.1412390 144.5681360  75.9175450  11.4301220 144.1163150
  74.6051190  10.7104560 143.8893840  84.1777010  10.3682520 145.9918100
  83.8918520   9.9547660 145.1772280  83.9796560  11.2970230 145.8718620
  75.6424240   6.3615800 144.4323710  75.5374880   5.7468150 145.1585090
  75.4748460   5.8381690 143.6486720  78.8826970   5.4235830 145.0365700
  78.3337070   5.8705130 145.6808440  79.5046230   4.9185080 145.5603370
  74.5502090   4.3826750 146.9331000  74.9718510   4.2166620 147.7762390
  74.6752930   3.5726980 146.4386140  77.0629730   3.4064360 144.1808100
  77.5835390   2.6913380 143.8149250  77.7098130   4.0450230 144.4808610
  77.6277760  11.4875970 146.4709840  78.5228550  11.8260940 146.4928600
  77.6595390  10.7655380 145.8434120  71.2673920   6.8603020 144.6996840
  71.7048790   7.4032690 145.3554420  71.7521650   6.0349970 144.7093180
  68.4819720   9.6492050 152.1517100  68.8122730   8.7813110 151.9195740
  68.9110720   9.8550570 152.9822060  73.0781640   7.9801060 149.8119070
  72.7777180   7.8566030 150.7122980  72.9719130   7.1209650 149.4034800
  85.8473560   7.7597460 144.5145750  85.0166520   7.8274110 144.9852980
  86.0245390   8.6501580 144.2112610  85.3030020   4.5044940 147.0179950
  86.0648930   5.0741590 147.1239640  85.3184390   3.9372140 147.7888260
  68.8034360   3.0282870 151.2487610  68.1483200   2.7594510 150.6047310
  69.6412310   2.9187350 150.7989590  86.3089990   5.3595040 151.8621880
  86.6798820   4.5762360 151.4557850  86.9491920   6.0484140 151.6839180
  85.3549190   4.7979310 144.1752470  85.6298030   5.7058190 144.0471690
  85.1659930   4.7341840 145.1114460  85.2514530   2.7348300 149.1681900
  84.8758130   1.9676230 148.7363190  84.5217650   3.1171000 149.6556830
  83.3499800  11.4950220 150.8020470  83.9458870  11.1734790 150.1254890
  83.6077950  11.0222040 151.5933740  74.3307730  10.4533760 153.8066330
  74.8472750   9.8421120 153.2814590  74.9805110  10.9562540 154.2977340
  69.0092630  11.5563150 150.2313680  68.8414670  10.9233830 150.9295570
  68.1427140  11.7622550 149.8807870  70.6155330  10.2496380 147.6763820
  70.0902950  10.6304410 146.9725780  70.5399910  10.8747150 148.3973530
  85.3720650  11.8083920 148.9977760  85.5472840  11.1221660 148.3538680
  84.6742220  12.3330970 148.6054430  73.2148300  12.1978760 146.5513070
  73.9467120  11.9138040 146.0036960  73.4741970  11.9592040 147.4412450
  72.3763090   8.3143490 146.5559400  71.7471970   8.7828590 147.1045230
  72.4910920   7.4692710 146.9905590  77.9630850   4.1428170 134.5869870
  77.1872950   3.6628610 134.8768440  78.6143780   3.4633820 134.4126030
  71.9796680   4.4547980 135.4645630  71.1481560   4.1996690 135.8642140
  72.5877660   4.5258750 136.2003550  81.9838280   8.5488360 133.3669000
  81.5219810   7.7775600 133.6956170  82.7963830   8.5754430 133.8721450
  71.9597940   8.4888070 135.6603650  72.2625980   7.5985810 135.4813870
  72.7041530   9.0458290 135.4325900  78.2101590  10.8346370 132.9872990
  77.5913030  11.2903870 132.4167430  79.0653370  10.9897830 132.5862690
  77.4039840   6.8185360 134.5940030  77.3348120   5.8775300 134.4329160
  78.1659700   6.9086770 135.1662600  79.0764940   5.7185610 130.3804900
  78.4582210   6.1835060 129.8167620  79.5888190   6.4113090 130.7974410
  73.9396700   5.2461480 137.0588500  73.6066080   5.8730400 137.7009570
  74.1163380   5.7723360 136.2790170  73.1515800   7.2142280 138.8737680
  73.7689800   7.8893360 138.5922130  72.2908920   7.6230260 138.7825180
  68.4448140   6.4042140 127.7544530  68.0676120   6.8929240 127.0229430
  68.7021210   7.0767420 128.3851060  84.0693390   8.6781690 136.7892320
  83.3856910   9.3480800 136.7808990  84.6087680   8.8762340 136.0237180
  81.6052130  10.5225820 135.5037500  81.6179290  10.1188110 134.6359760
  81.0527350  11.2973110 135.3998930  82.8997550   7.2442040 130.5927670
  82.7893880   6.3016370 130.7177090  82.8965800   7.6057680 131.4790430
  81.0037570   5.4255660 136.8320110  81.4206360   5.2115770 135.9973570
  81.7277390   5.6828450 137.4028730  78.4417830   2.8707360 129.9490160
  77.5147110   2.8044740 130.1778630  78.5942650   3.8087490 129.8345400
  84.9499670   3.8242880 136.9236350  84.1218300   3.8935970 136.4486480
  85.5450150   4.4097190 136.4552180  82.4715120   4.4327660 130.4525410
  81.8527540   4.0947210 129.8051710  82.4539570   3.7887420 131.1604600
  74.0474470   3.3972100 132.7309890  73.6431470   2.6849350 132.2355790
  74.1337590   3.0525340 133.6197930  74.5156170   7.0839660 134.8949100
  74.2184460   6.4785130 134.2156880  75.4655990   7.1216970 134.7838460
  82.6041780  10.6571530 138.5572200  82.1272340  11.4643720 138.3644810
  81.9203570  10.0049860 138.7098410  73.6074600   6.8221350 141.5456900
  72.7103130   7.0461320 141.7930300  73.6327470   6.9456290 140.5968300
  80.6479820   3.6714470 127.4598160  81.0873100   2.8336900 127.3135980
  81.3608240   4.3043870 127.5462300  72.4345820   3.6934670 140.1214270
  72.2953590   4.5657470 140.4901670  71.5527180   3.3507480 139.9762210
  78.7575200   8.6110540 131.4279400  79.1971110   9.3534870 131.0134790
  78.6962090   8.8537110 132.3518360  74.2326170   9.6356370 142.3299420
  74.2041600  10.0399320 141.4627850  74.0691140   8.7066730 142.1671020
  86.1840990  10.4183470 143.6263590  86.6600710  10.8966360 144.3052670
  86.8048150  10.3500960 142.9009090  68.3864470   5.4632220 136.0385180
  68.4644890   5.5980990 135.0940900  69.0006150   4.7548110 136.2313300
  69.6312100   7.1632410 132.4491360  69.2240180   7.3047000 131.5944960
  70.5225110   6.8792570 132.2462570  85.5874240   7.6096320 140.7863600
  85.7137300   7.3708200 139.8680780  85.6295620   6.7780860 141.2585680
  79.4490980  11.3124320 139.3558410  79.9635650  11.2232330 140.1580840
  78.6060060  11.6584020 139.6486320  81.4245380  11.5979660 128.7842410
  81.2646520  11.3082600 129.6824240  81.2592090  10.8219790 128.2487640
  73.9033760  11.3778190 130.5614030  73.7276240  10.4613730 130.3481830
  73.0489500  11.7365480 130.8011830  81.1271510   9.1067220 127.3440410
  80.4336670   9.1044510 126.6842690  81.8694370   8.6826540 126.9134580
  80.6921440  10.7329930 131.4188900  81.1478390   9.9519310 131.7327520
  81.0313960  11.4436750 131.9630080  68.4423990   6.5046390 138.5779640
  68.6055030   6.0351750 137.7599010  68.9076440   5.9969950 139.2428480
  70.0162970   5.8797820 140.7375450  69.6317760   5.2391490 141.3358410
  70.3275160   6.5833940 141.3070180  76.1660110   2.7274360 136.2184070
  76.5330240   2.2532930 136.9645410  75.9765170   3.6015930 136.5592410
  73.9559480   1.7683000 138.5368280  73.6516550   2.6474980 138.7618640
  74.9105940   1.8282790 138.5725720  72.4841270   5.9743990 129.1335130
  71.7103530   5.4341610 128.9733850  73.2135900   5.4550600 128.7952890
  83.2429250   4.9709350 134.9261520  83.9628370   5.4664640 134.5357630
  83.0411070   4.2927240 134.2815390  78.6248050   5.0418410 140.8130520
  78.5585360   4.1214080 140.5588110  77.9953190   5.1393850 141.5275160
  72.5278670   5.6424370 132.7713940  73.0457340   4.8392630 132.7170830
  72.0762690   5.5803510 133.6130770  77.4148170   6.9090650 128.0441240
  77.7563870   7.6532880 127.5484560  76.5860880   7.2221770 128.4066070
  70.0123210   2.6085740 139.6839640  69.6538150   3.2739590 140.2712980
  69.7177770   1.7769290 140.0552260  73.2136330   3.0669980 142.5679190
  72.9136470   3.2127160 141.6707010  73.9847570   2.5075270 142.4752580
  78.5564780   7.8638980 140.5634320  78.5709320   6.9319940 140.3453230
  77.8489880   7.9498740 141.2024090  83.6901850   2.0478800 126.8332930
  83.6065570   2.4793020 125.9829370  84.4096040   2.5077150 127.2659750
  84.7675990   4.5046320 139.9102900  84.0424180   5.0975100 139.7132290
  85.2951450   4.4969860 139.1116270  84.7189100   8.9021060 129.5615060
  84.0765260   8.2476680 129.8358780  84.3319760   9.3076150 128.7855730
  80.2975580   6.2306490 133.4086750  80.6499400   5.6334620 132.7488120
  79.4137910   5.9050720 133.5795000  76.3838860   6.9904180 130.8157160
  77.0709990   7.5373390 131.1964750  75.5971280   7.5344910 130.8506770
  68.5231260   2.6077000 126.3074240  69.3926110   2.8901800 126.5910160
  68.0321580   3.4212870 126.1923050  75.6866070   3.9950210 130.4282520
  76.1428850   4.8055460 130.6542710  75.3354280   3.6773350 131.2601010
  77.9898680   9.5056550 137.6574820  78.6340900   9.7115930 138.3348240
  78.3528120   8.7444950 137.2045670  79.2630760   7.5088900 136.3752270
  79.9052990   6.8082060 136.4884440  79.7880110   8.2887340 136.1949160
  83.1086480   7.7937520 126.0991410  82.8824060   7.0767960 126.6916050
  82.7182680   7.5449960 125.2613160  81.0368380   8.3083800 139.5788330
  81.3724620   8.8950490 140.2566250  80.1168720   8.1776510 139.8086120
  68.8902510  11.8204380 126.8735870  69.2500150  12.4193720 126.2193140
  68.7494850  12.3664270 127.6470900  82.6902730   5.7109460 127.7605570
  82.4024430   6.1722150 128.5483450  83.4854900   5.2507230 128.0289790
  68.8744370  10.0859240 141.3478270  68.9835490   9.1453980 141.2073660
  68.2224930  10.3513990 140.6992000  76.8656960   8.3575130 142.7476390
  76.5453830   7.6384370 143.2922080  76.1915320   9.0330200 142.8212450
  74.9071130   9.2035580 127.6909540  74.8981230   9.9365270 127.0754050
  73.9869490   8.9567160 127.7836500  70.5077770   4.4250470 128.4356300
  69.9005720   5.1649370 128.4451600  70.9827120   4.5149830 127.6094500
  77.8930730   9.2663820 126.3534730  77.9942710   9.0627810 125.4236710
  76.9932470   9.0122100 126.5582510  76.5348840  11.7850140 131.0482400
  76.7890340  11.7471530 130.1261770  75.5861320  11.6583470 131.0410650
  82.5401420   2.7042020 132.6240910  81.5991560   2.7192250 132.7988600
  82.8545490   1.9177980 133.0701210  72.5183060   4.3861620 126.1844870
  73.2846330   4.2742980 126.7470300  72.5957750   3.6899590 125.5321640
  84.5427000   9.8750870 134.2995170  84.6674420  10.6982040 134.7718980
  85.4092560   9.6641600 133.9519320  72.0144530  11.9682080 133.9712300
  72.7507010  11.4197540 134.2420870  72.3985450  12.8338090 133.8318290
  68.8990010   8.0355650 129.8453810  67.9729790   8.2776790 129.8359220
  69.3646440   8.8629910 129.7238560  71.0202810  11.1528150 143.1597880
  71.8215540  11.4740200 143.5733280  70.5054630  10.7923730 143.8817790
  75.1246840  11.1412390 125.7937870  75.9175450  11.4301220 125.3419660
  74.6051190  10.7104560 125.1150350  79.8567440   7.2608020 143.1073290
  79.2505600   7.2839620 142.3669040  79.5521550   6.5291060 143.6440540
  81.2867810  10.9888310 141.7182700  82.2389560  10.9046330 141.6682940
  81.1396030  11.6530020 142.3916490  84.1777010  10.3682520 127.2174610
  83.8918520   9.9547660 126.4028790  83.9796560  11.2970230 127.0975130
  68.7400620   3.6401610 142.1033930  69.2439640   3.0608890 142.6750160
  68.0008040   3.9241840 142.6410300  75.6424240   6.3615800 125.6580220
  75.5374880   5.7468150 126.3841600  75.4748460   5.8381690 124.8743230
  75.7938560   5.0472600 141.6369450  75.0284230   5.6157600 141.5524120
  75.9754520   4.7548810 140.7437680  78.8826970   5.4235830 126.2622210
  78.3337070   5.8705130 126.9064950  79.5046230   4.9185080 126.7859880
  82.9361910   6.7777930 142.1944470  83.6771380   7.1153690 141.6911930
  82.1734590   6.9469990 141.6414240  74.5502090   4.3826750 128.1587510
  74.9718510   4.2166620 129.0018900  74.6752930   3.5726980 127.6642650
  77.0629730   3.4064360 125.4064610  77.5835390   2.6913380 125.0405760
  77.7098130   4.0450230 125.7065120  81.6107570   4.8292760 140.7299680
  82.0248590   4.9837840 141.5790100  80.6758570   4.9547980 140.8925460
  76.3722800   4.7813240 138.6995610  76.7910910   5.6245970 138.5271850
  75.4531430   4.9185280 138.4702390  78.7086700   2.5129420 140.0833450
  78.8282910   1.9170560 140.8228290  79.5680700   2.5499110 139.6634750
  81.0474600   3.0666610 138.6595960  80.5209820   3.5909230 138.0561100
  81.3905940   3.6994000 139.2905690  74.2230220  11.0866250 139.8153340
  73.6851310  11.8112310 139.4962040  74.4764180  10.6096590 139.0250680
  77.0792430  12.3217460 140.0739990  77.0051130  13.2252600 140.3812360
  76.1771270  12.0029360 140.0462060  77.6277760  11.4875970 127.6966350
  78.5228550  11.8260940 127.7185110  77.6595390  10.7655380 127.0690630
  71.2673920   6.8603020 125.9253350  71.7048790   7.4032690 126.5810930
  71.7521650   6.0349970 125.9349690  68.4819720   9.6492050 133.3773610
  68.8122730   8.7813110 133.1452250  68.9110720   9.8550570 134.2078570
  73.0781640   7.9801060 131.0375580  72.7777180   7.8566030 131.9379490
  72.9719130   7.1209650 130.6291310  68.9709930  10.5162640 136.1155240
  68.5340920  10.6963440 136.9479390  69.5387610  11.2737260 135.9736960
  84.6072110  10.0179640 140.4032550  84.0074100  10.0772200 139.6596470
  84.7366010   9.0784620 140.5329400  85.8473560   7.7597460 125.7402260
  85.0166520   7.8274110 126.2109490  86.0245390   8.6501580 125.4369120
  85.3030020   4.5044940 128.2436460  86.0648930   5.0741590 128.3496150
  85.3184390   3.9372140 129.0144770  68.8034360   3.0282870 132.4744120
  68.1483200   2.7594510 131.8303820  69.6412310   2.9187350 132.0246100
  86.3089990   5.3595040 133.0878390  86.6798820   4.5762360 132.6814360
  86.9491920   6.0484140 132.9095690  83.2923750   6.7431620 138.5008710
  82.4783590   7.1728780 138.7634500  83.6997950   7.3550030 137.8877760
  85.3549190   4.7979310 125.4008980  85.6298030   5.7058190 125.2728200
  85.1659930   4.7341840 126.3370970  85.2514530   2.7348300 130.3938410
  84.8758130   1.9676230 129.9619700  84.5217650   3.1171000 130.8813340
  69.8410290   3.4135440 137.0147460  70.2083330   3.3262840 137.8943480
  69.2721110   2.6501990 136.9154320  84.6414150   1.8819820 140.0277930
  84.4100240   1.6532570 139.1275880  84.9018700   2.8019370 139.9822820
  83.3499800  11.4950220 132.0276980  83.9458870  11.1734790 131.3511400
  83.6077950  11.0222040 132.8190250  71.2562370   7.9268130 142.1767610
  71.2132000   7.5561040 143.0582070  71.3873380   8.8645700 142.3169430
  74.9568400   9.4827720 137.7777330  74.7159760   9.7502280 136.8907850
  75.8971040   9.6533450 137.8328190  86.2172560  11.5022100 138.5787970
  85.7230840  11.8990970 137.8615100  85.6085850  10.8771310 138.9725250
  71.0950400  10.8730380 139.2965390  70.5010720  10.7415080 140.0355430
  71.0874240  10.0368520 138.8307490  83.9012010  12.1445520 135.8574710
  83.4414980  12.8961330 135.4832730  83.2724470  11.4251990 135.7989510
  70.7262630   8.2388760 138.2473430  69.9996690   7.6194050 138.1799380
  70.7871780   8.6329370 137.3771510  74.3307730  10.4533760 135.0322840
  74.8472750   9.8421120 134.5071100  74.9805110  10.9562540 135.5233850
  77.0703230  11.3442250 135.8591820  77.3581040  11.0896550 134.9824830
  77.5826450  10.7919610 136.4497390  69.0092630  11.5563150 131.4570190
  68.8414670  10.9233830 132.1552080  68.1427140  11.7622550 131.1064380
  70.6155330  10.2496380 128.9020330  70.0902950  10.6304410 128.1982290
  70.5399910  10.8747150 129.6230040  77.1375590  12.2658350 143.2260020
  78.0642900  12.0302620 143.2695980  77.1226020  13.0930350 142.7446050
  85.3720650  11.8083920 130.2234270  85.5472840  11.1221660 129.5795190
  84.6742220  12.3330970 129.8310940  73.2148300  12.1978760 127.7769580
  73.9467120  11.9138040 127.2293470  73.4741970  11.9592040 128.6668960
  72.3763090   8.3143490 127.7815910  71.7471970   8.7828590 128.3301740
  72.4910920   7.4692710 128.2162100  83.7053150  11.4928210 143.0501060
  84.4978470  10.9977440 142.8427020  83.9986300  12.1718350 143.6576670
  77.9630850   4.1428170 115.8126380  77.1872950   3.6628610 116.1024950
  78.6143780   3.4633820 115.6382540  71.9796680   4.4547980 116.6902140
  71.1481560   4.1996690 117.0898650  72.5877660   4.5258750 117.4260060
  81.9838280   8.5488360 114.5925510  81.5219810   7.7775600 114.9212680
  82.7963830   8.5754430 115.0977960  71.9597940   8.4888070 116.8860160
  72.2625980   7.5985810 116.7070380  72.7041530   9.0458290 116.6582410
  78.2101590  10.8346370 114.2129500  77.5913030  11.2903870 113.6423940
  79.0653370  10.9897830 113.8119200  77.4039840   6.8185360 115.8196540
  77.3348120   5.8775300 115.6585670  78.1659700   6.9086770 116.3919110
  79.0764940   5.7185610 111.6061410  78.4582210   6.1835060 111.0424130
  79.5888190   6.4113090 112.0230920  73.9396700   5.2461480 118.2845010
  73.6066080   5.8730400 118.9266080  74.1163380   5.7723360 117.5046680
  73.1515800   7.2142280 120.0994190  73.7689800   7.8893360 119.8178640
  72.2908920   7.6230260 120.0081690  68.4448140   6.4042140 108.9801040
  68.0676120   6.8929240 108.2485940  68.7021210   7.0767420 109.6107570
  84.0693390   8.6781690 118.0148830  83.3856910   9.3480800 118.0065500
  84.6087680   8.8762340 117.2493690  81.6052130  10.5225820 116.7294010
  81.6179290  10.1188110 115.8616270  81.0527350  11.2973110 116.6255440
  82.8997550   7.2442040 111.8184180  82.7893880   6.3016370 111.9433600
  82.8965800   7.6057680 112.7046940  81.0037570   5.4255660 118.0576620
  81.4206360   5.2115770 117.2230080  81.7277390   5.6828450 118.6285240
  78.4417830   2.8707360 111.1746670  77.5147110   2.8044740 111.4035140
  78.5942650   3.8087490 111.0601910  84.9499670   3.8242880 118.1492860
  84.1218300   3.8935970 117.6742990  85.5450150   4.4097190 117.6808690
  82.4715120   4.4327660 111.6781920  81.8527540   4.0947210 111.0308220
  82.4539570   3.7887420 112.3861110  74.0474470   3.3972100 113.9566400
  73.6431470   2.6849350 113.4612300  74.1337590   3.0525340 114.8454440
  74.5156170   7.0839660 116.1205610  74.2184460   6.4785130 115.4413390
  75.4655990   7.1216970 116.0094970  82.6041780  10.6571530 119.7828710
  82.1272340  11.4643720 119.5901320  81.9203570  10.0049860 119.9354920
  73.6074600   6.8221350 122.7713410  72.7103130   7.0461320 123.0186810
  73.6327470   6.9456290 121.8224810  80.6479820   3.6714470 108.6854670
  81.0873100   2.8336900 108.5392490  81.3608240   4.3043870 108.7718810
  72.4345820   3.6934670 121.3470780  72.2953590   4.5657470 121.7158180
  71.5527180   3.3507480 121.2018720  78.7575200   8.6110540 112.6535910
  79.1971110   9.3534870 112.2391300  78.6962090   8.8537110 113.5774870
  74.2326170   9.6356370 123.5555930  74.2041600  10.0399320 122.6884360
  74.0691140   8.7066730 123.3927530  86.1840990  10.4183470 124.8520100
  86.6600710  10.8966360 125.5309180  86.8048150  10.3500960 124.1265600
  68.3864470   5.4632220 117.2641690  68.4644890   5.5980990 116.3197410
  69.0006150   4.7548110 117.4569810  69.6312100   7.1632410 113.6747870
  69.2240180   7.3047000 112.8201470  70.5225110   6.8792570 113.4719080
  85.5874240   7.6096320 122.0120110  85.7137300   7.3708200 121.0937290
  85.6295620   6.7780860 122.4842190  79.4490980  11.3124320 120.5814920
  79.9635650  11.2232330 121.3837350  78.6060060  11.6584020 120.8742830
  81.4245380  11.5979660 110.0098920  81.2646520  11.3082600 110.9080750
  81.2592090  10.8219790 109.4744150  73.9033760  11.3778190 111.7870540
  73.7276240  10.4613730 111.5738340  73.0489500  11.7365480 112.0268340
  81.1271510   9.1067220 108.5696920  80.4336670   9.1044510 107.9099200
  81.8694370   8.6826540 108.1391090  80.6921440  10.7329930 112.6445410
  81.1478390   9.9519310 112.9584030  81.0313960  11.4436750 113.1886590
  68.4423990   6.5046390 119.8036150  68.6055030   6.0351750 118.9855520
  68.9076440   5.9969950 120.4684990  70.0162970   5.8797820 121.9631960
  69.6317760   5.2391490 122.5614920  70.3275160   6.5833940 122.5326690
  76.1660110   2.7274360 117.4440580  76.5330240   2.2532930 118.1901920
  75.9765170   3.6015930 117.7848920  73.9559480   1.7683000 119.7624790
  73.6516550   2.6474980 119.9875150  74.9105940   1.8282790 119.7982230
  72.4841270   5.9743990 110.3591640  71.7103530   5.4341610 110.1990360
  73.2135900   5.4550600 110.0209400  83.2429250   4.9709350 116.1518030
  83.9628370   5.4664640 115.7614140  83.0411070   4.2927240 115.5071900
  78.6248050   5.0418410 122.0387030  78.5585360   4.1214080 121.7844620
  77.9953190   5.1393850 122.7531670  72.5278670   5.6424370 113.9970450
  73.0457340   4.8392630 113.9427340  72.0762690   5.5803510 114.8387280
  77.4148170   6.9090650 109.2697750  77.7563870   7.6532880 108.7741070
  76.5860880   7.2221770 109.6322580  70.0123210   2.6085740 120.9096150
  69.6538150   3.2739590 121.4969490  69.7177770   1.7769290 121.2808770
  73.2136330   3.0669980 123.7935700  72.9136470   3.2127160 122.8963520
  73.9847570   2.5075270 123.7009090  78.5564780   7.8638980 121.7890830
  78.5709320   6.9319940 121.5709740  77.8489880   7.9498740 122.4280600
  83.6901850   2.0478800 108.0589440  83.6065570   2.4793020 107.2085880
  84.4096040   2.5077150 108.4916260  84.7675990   4.5046320 121.1359410
  84.0424180   5.0975100 120.9388800  85.2951450   4.4969860 120.3372780
  84.7189100   8.9021060 110.7871570  84.0765260   8.2476680 111.0615290
  84.3319760   9.3076150 110.0112240  80.2975580   6.2306490 114.6343260
  80.6499400   5.6334620 113.9744630  79.4137910   5.9050720 114.8051510
  76.3838860   6.9904180 112.0413670  77.0709990   7.5373390 112.4221260
  75.5971280   7.5344910 112.0763280  68.5231260   2.6077000 107.5330750
  69.3926110   2.8901800 107.8166670  68.0321580   3.4212870 107.4179560
  75.6866070   3.9950210 111.6539030  76.1428850   4.8055460 111.8799220
  75.3354280   3.6773350 112.4857520  77.9898680   9.5056550 118.8831330
  78.6340900   9.7115930 119.5604750  78.3528120   8.7444950 118.4302180
  79.2630760   7.5088900 117.6008780  79.9052990   6.8082060 117.7140950
  79.7880110   8.2887340 117.4205670  83.1086480   7.7937520 107.3247920
  82.8824060   7.0767960 107.9172560  82.7182680   7.5449960 106.4869670
  81.0368380   8.3083800 120.8044840  81.3724620   8.8950490 121.4822760
  80.1168720   8.1776510 121.0342630  68.8902510  11.8204380 108.0992380
  69.2500150  12.4193720 107.4449650  68.7494850  12.3664270 108.8727410
  82.6902730   5.7109460 108.9862080  82.4024430   6.1722150 109.7739960
  83.4854900   5.2507230 109.2546300  68.8744370  10.0859240 122.5734780
  68.9835490   9.1453980 122.4330170  68.2224930  10.3513990 121.9248510
  76.8656960   8.3575130 123.9732900  76.5453830   7.6384370 124.5178590
  76.1915320   9.0330200 124.0468960  74.9071130   9.2035580 108.9166050
  74.8981230   9.9365270 108.3010560  73.9869490   8.9567160 109.0093010
  70.5077770   4.4250470 109.6612810  69.9005720   5.1649370 109.6708110
  70.9827120   4.5149830 108.8351010  77.8930730   9.2663820 107.5791240
  77.9942710   9.0627810 106.6493220  76.9932470   9.0122100 107.7839020
  76.5348840  11.7850140 112.2738910  76.7890340  11.7471530 111.3518280
  75.5861320  11.6583470 112.2667160  82.5401420   2.7042020 113.8497420
  81.5991560   2.7192250 114.0245110  82.8545490   1.9177980 114.2957720
  72.5183060   4.3861620 107.4101380  73.2846330   4.2742980 107.9726810
  72.5957750   3.6899590 106.7578150  84.5427000   9.8750870 115.5251680
  84.6674420  10.6982040 115.9975490  85.4092560   9.6641600 115.1775830
  72.0144530  11.9682080 115.1968810  72.7507010  11.4197540 115.4677380
  72.3985450  12.8338090 115.0574800  68.8990010   8.0355650 111.0710320
  67.9729790   8.2776790 111.0615730  69.3646440   8.8629910 110.9495070
  71.0202810  11.1528150 124.3854390  71.8215540  11.4740200 124.7989790
  70.5054630  10.7923730 125.1074300  75.1246840  11.1412390 107.0194380
  75.9175450  11.4301220 106.5676170  74.6051190  10.7104560 106.3406860
  79.8567440   7.2608020 124.3329800  79.2505600   7.2839620 123.5925550
  79.5521550   6.5291060 124.8697050  81.2867810  10.9888310 122.9439210
  82.2389560  10.9046330 122.8939450  81.1396030  11.6530020 123.6173000
  84.1777010  10.3682520 108.4431120  83.8918520   9.9547660 107.6285300
  83.9796560  11.2970230 108.3231640  68.7400620   3.6401610 123.3290440
  69.2439640   3.0608890 123.9006670  68.0008040   3.9241840 123.8666810
  75.6424240   6.3615800 106.8836730  75.5374880   5.7468150 107.6098110
  75.4748460   5.8381690 106.0999740  75.7938560   5.0472600 122.8625960
  75.0284230   5.6157600 122.7780630  75.9754520   4.7548810 121.9694190
  78.8826970   5.4235830 107.4878720  78.3337070   5.8705130 108.1321460
  79.5046230   4.9185080 108.0116390  82.9361910   6.7777930 123.4200980
  83.6771380   7.1153690 122.9168440  82.1734590   6.9469990 122.8670750
  74.5502090   4.3826750 109.3844020  74.9718510   4.2166620 110.2275410
  74.6752930   3.5726980 108.8899160  77.0629730   3.4064360 106.6321120
  77.5835390   2.6913380 106.2662270  77.7098130   4.0450230 106.9321630
  81.6107570   4.8292760 121.9556190  82.0248590   4.9837840 122.8046610
  80.6758570   4.9547980 122.1181970  76.3722800   4.7813240 119.9252120
  76.7910910   5.6245970 119.7528360  75.4531430   4.9185280 119.6958900
  78.7086700   2.5129420 121.3089960  78.8282910   1.9170560 122.0484800
  79.5680700   2.5499110 120.8891260  81.0474600   3.0666610 119.8852470
  80.5209820   3.5909230 119.2817610  81.3905940   3.6994000 120.5162200
  74.2230220  11.0866250 121.0409850  73.6851310  11.8112310 120.7218550
  74.4764180  10.6096590 120.2507190  77.0792430  12.3217460 121.2996500
  77.0051130  13.2252600 121.6068870  76.1771270  12.0029360 121.2718570
  77.6277760  11.4875970 108.9222860  78.5228550  11.8260940 108.9441620
  77.6595390  10.7655380 108.2947140  71.2673920   6.8603020 107.1509860
  71.7048790   7.4032690 107.8067440  71.7521650   6.0349970 107.1606200
  68.4819720   9.6492050 114.6030120  68.8122730   8.7813110 114.3708760
  68.9110720   9.8550570 115.4335080  73.0781640   7.9801060 112.2632090
  72.7777180   7.8566030 113.1636000  72.9719130   7.1209650 111.8547820
  68.9709930  10.5162640 117.3411750  68.5340920  10.6963440 118.1735900
  69.5387610  11.2737260 117.1993470  84.6072110  10.0179640 121.6289060
  84.0074100  10.0772200 120.8852980  84.7366010   9.0784620 121.7585910
  85.8473560   7.7597460 106.9658770  85.0166520   7.8274110 107.4366000
  86.0245390   8.6501580 106.6625630  85.3030020   4.5044940 109.4692970
  86.0648930   5.0741590 109.5752660  85.3184390   3.9372140 110.2401280
  68.8034360   3.0282870 113.7000630  68.1483200   2.7594510 113.0560330
  69.6412310   2.9187350 113.2502610  86.3089990   5.3595040 114.3134900
  86.6798820   4.5762360 113.9070870  86.9491920   6.0484140 114.1352200
  83.2923750   6.7431620 119.7265220  82.4783590   7.1728780 119.9891010
  83.6997950   7.3550030 119.1134270  85.3549190   4.7979310 106.6265490
  85.6298030   5.7058190 106.4984710  85.1659930   4.7341840 107.5627480
  85.2514530   2.7348300 111.6194920  84.8758130   1.9676230 111.1876210
  84.5217650   3.1171000 112.1069850  69.8410290   3.4135440 118.2403970
  70.2083330   3.3262840 119.1199990  69.2721110   2.6501990 118.1410830
  84.6414150   1.8819820 121.2534440  84.4100240   1.6532570 120.3532390
  84.9018700   2.8019370 121.2079330  83.3499800  11.4950220 113.2533490
  83.9458870  11.1734790 112.5767910  83.6077950  11.0222040 114.0446760
  71.2562370   7.9268130 123.4024120  71.2132000   7.5561040 124.2838580
  71.3873380   8.8645700 123.5425940  74.9568400   9.4827720 119.0033840
  74.7159760   9.7502280 118.1164360  75.8971040   9.6533450 119.0584700
  86.2172560  11.5022100 119.8044480  85.7230840  11.8990970 119.0871610
  85.6085850  10.8771310 120.1981760  71.0950400  10.8730380 120.5221900
  70.5010720  10.7415080 121.2611940  71.0874240  10.0368520 120.0564000
  83.9012010  12.1445520 117.0831220  83.4414980  12.8961330 116.7089240
  83.2724470  11.4251990 117.0246020  70.7262630   8.2388760 119.4729940
  69.9996690   7.6194050 119.4055890  70.7871780   8.6329370 118.6028020
  74.3307730  10.4533760 116.2579350  74.8472750   9.8421120 115.7327610
  74.9805110  10.9562540 116.7490360  77.0703230  11.3442250 117.0848330
  77.3581040  11.0896550 116.2081340  77.5826450  10.7919610 117.6753900
  69.0092630  11.5563150 112.6826700  68.8414670  10.9233830 113.3808590
  68.1427140  11.7622550 112.3320890  70.6155330  10.2496380 110.1276840
  70.0902950  10.6304410 109.4238800  70.5399910  10.8747150 110.8486550
  77.1375590  12.2658350 124.4516530  78.0642900  12.0302620 124.4952490
  77.1226020  13.0930350 123.9702560  85.3720650  11.8083920 111.4490780
  85.5472840  11.1221660 110.8051700  84.6742220  12.3330970 111.0567450
  73.2148300  12.1978760 109.0026090  73.9467120  11.9138040 108.4549980
  73.4741970  11.9592040 109.8925470  72.3763090   8.3143490 109.0072420
  71.7471970   8.7828590 109.5558250  72.4910920   7.4692710 109.4418610
  83.7053150  11.4928210 124.2757570  84.4978470  10.9977440 124.0683530
  83.9986300  12.1718350 124.8833180  77.9630850   4.1428170  97.0382890
  77.1872950   3.6628610  97.3281460  78.6143780   3.4633820  96.8639050
  71.9796680   4.4547980  97.9158650  71.1481560   4.1996690  98.3155160
  72.5877660   4.5258750  98.6516570  81.9838280   8.5488360  95.8182020
  81.5219810   7.7775600  96.1469190  82.7963830   8.5754430  96.3234470
  71.9597940   8.4888070  98.1116670  72.2625980   7.5985810  97.9326890
  72.7041530   9.0458290  97.8838920  78.2101590  10.8346370  95.4386010
  77.5913030  11.2903870  94.8680450  79.0653370  10.9897830  95.0375710
  77.4039840   6.8185360  97.0453050  77.3348120   5.8775300  96.8842180
  78.1659700   6.9086770  97.6175620  79.0764940   5.7185610  92.8317920
  78.4582210   6.1835060  92.2680640  79.5888190   6.4113090  93.2487430
  73.9396700   5.2461480  99.5101520  73.6066080   5.8730400 100.1522590
  74.1163380   5.7723360  98.7303190  73.1515800   7.2142280 101.3250700
  73.7689800   7.8893360 101.0435150  72.2908920   7.6230260 101.2338200
  68.4448140   6.4042140  90.2057550  68.0676120   6.8929240  89.4742450
  68.7021210   7.0767420  90.8364080  84.0693390   8.6781690  99.2405340
  83.3856910   9.3480800  99.2322010  84.6087680   8.8762340  98.4750200
  81.6052130  10.5225820  97.9550520  81.6179290  10.1188110  97.0872780
  81.0527350  11.2973110  97.8511950  82.8997550   7.2442040  93.0440690
  82.7893880   6.3016370  93.1690110  82.8965800   7.6057680  93.9303450
  81.0037570   5.4255660  99.2833130  81.4206360   5.2115770  98.4486590
  81.7277390   5.6828450  99.8541750  78.4417830   2.8707360  92.4003180
  77.5147110   2.8044740  92.6291650  78.5942650   3.8087490  92.2858420
  84.9499670   3.8242880  99.3749370  84.1218300   3.8935970  98.8999500
  85.5450150   4.4097190  98.9065200  82.4715120   4.4327660  92.9038430
  81.8527540   4.0947210  92.2564730  82.4539570   3.7887420  93.6117620
  74.0474470   3.3972100  95.1822910  73.6431470   2.6849350  94.6868810
  74.1337590   3.0525340  96.0710950  74.5156170   7.0839660  97.3462120
  74.2184460   6.4785130  96.6669900  75.4655990   7.1216970  97.2351480
  82.6041780  10.6571530 101.0085220  82.1272340  11.4643720 100.8157830
  81.9203570  10.0049860 101.1611430  73.6074600   6.8221350 103.9969920
  72.7103130   7.0461320 104.2443320  73.6327470   6.9456290 103.0481320
  80.6479820   3.6714470  89.9111180  81.0873100   2.8336900  89.7649000
  81.3608240   4.3043870  89.9975320  72.4345820   3.6934670 102.5727290
  72.2953590   4.5657470 102.9414690  71.5527180   3.3507480 102.4275230
  78.7575200   8.6110540  93.8792420  79.1971110   9.3534870  93.4647810
  78.6962090   8.8537110  94.8031380  74.2326170   9.6356370 104.7812440
  74.2041600  10.0399320 103.9140870  74.0691140   8.7066730 104.6184040
  86.1840990  10.4183470 106.0776610  86.6600710  10.8966360 106.7565690
  86.8048150  10.3500960 105.3522110  68.3864470   5.4632220  98.4898200
  68.4644890   5.5980990  97.5453920  69.0006150   4.7548110  98.6826320
  69.6312100   7.1632410  94.9004380  69.2240180   7.3047000  94.0457980
  70.5225110   6.8792570  94.6975590  85.5874240   7.6096320 103.2376620
  85.7137300   7.3708200 102.3193800  85.6295620   6.7780860 103.7098700
  79.4490980  11.3124320 101.8071430  79.9635650  11.2232330 102.6093860
  78.6060060  11.6584020 102.0999340  81.4245380  11.5979660  91.2355430
  81.2646520  11.3082600  92.1337260  81.2592090  10.8219790  90.7000660
  73.9033760  11.3778190  93.0127050  73.7276240  10.4613730  92.7994850
  73.0489500  11.7365480  93.2524850  81.1271510   9.1067220  89.7953430
  80.4336670   9.1044510  89.1355710  81.8694370   8.6826540  89.3647600
  80.6921440  10.7329930  93.8701920  81.1478390   9.9519310  94.1840540
  81.0313960  11.4436750  94.4143100  68.4423990   6.5046390 101.0292660
  68.6055030   6.0351750 100.2112030  68.9076440   5.9969950 101.6941500
  70.0162970   5.8797820 103.1888470  69.6317760   5.2391490 103.7871430
  70.3275160   6.5833940 103.7583200  76.1660110   2.7274360  98.6697090
  76.5330240   2.2532930  99.4158430  75.9765170   3.6015930  99.0105430
  73.9559480   1.7683000 100.9881300  73.6516550   2.6474980 101.2131660
  74.9105940   1.8282790 101.0238740  72.4841270   5.9743990  91.5848150
  71.7103530   5.4341610  91.4246870  73.2135900   5.4550600  91.2465910
  83.2429250   4.9709350  97.3774540  83.9628370   5.4664640  96.9870650
  83.0411070   4.2927240  96.7328410  78.6248050   5.0418410 103.2643540
  78.5585360   4.1214080 103.0101130  77.9953190   5.1393850 103.9788180
  72.5278670   5.6424370  95.2226960  73.0457340   4.8392630  95.1683850
  72.0762690   5.5803510  96.0643790  77.4148170   6.9090650  90.4954260
  77.7563870   7.6532880  89.9997580  76.5860880   7.2221770  90.8579090
  70.0123210   2.6085740 102.1352660  69.6538150   3.2739590 102.7226000
  69.7177770   1.7769290 102.5065280  73.2136330   3.0669980 105.0192210
  72.9136470   3.2127160 104.1220030  73.9847570   2.5075270 104.9265600
  78.5564780   7.8638980 103.0147340  78.5709320   6.9319940 102.7966250
  77.8489880   7.9498740 103.6537110  83.6901850   2.0478800  89.2845950
  83.6065570   2.4793020  88.4342390  84.4096040   2.5077150  89.7172770
  84.7675990   4.5046320 102.3615920  84.0424180   5.0975100 102.1645310
  85.2951450   4.4969860 101.5629290  84.7189100   8.9021060  92.0128080
  84.0765260   8.2476680  92.2871800  84.3319760   9.3076150  91.2368750
  80.2975580   6.2306490  95.8599770  80.6499400   5.6334620  95.2001140
  79.4137910   5.9050720  96.0308020  76.3838860   6.9904180  93.2670180
  77.0709990   7.5373390  93.6477770  75.5971280   7.5344910  93.3019790
  68.5231260   2.6077000  88.7587260  69.3926110   2.8901800  89.0423180
  68.0321580   3.4212870  88.6436070  75.6866070   3.9950210  92.8795540
  76.1428850   4.8055460  93.1055730  75.3354280   3.6773350  93.7114030
  77.9898680   9.5056550 100.1087840  78.6340900   9.7115930 100.7861260
  78.3528120   8.7444950  99.6558690  79.2630760   7.5088900  98.8265290
  79.9052990   6.8082060  98.9397460  79.7880110   8.2887340  98.6462180
  83.1086480   7.7937520  88.5504430  82.8824060   7.0767960  89.1429070
  82.7182680   7.5449960  87.7126180  81.0368380   8.3083800 102.0301350
  81.3724620   8.8950490 102.7079270  80.1168720   8.1776510 102.2599140
  68.8902510  11.8204380  89.3248890  69.2500150  12.4193720  88.6706160
  68.7494850  12.3664270  90.0983920  82.6902730   5.7109460  90.2118590
  82.4024430   6.1722150  90.9996470  83.4854900   5.2507230  90.4802810
  68.8744370  10.0859240 103.7991290  68.9835490   9.1453980 103.6586680
  68.2224930  10.3513990 103.1505020  76.8656960   8.3575130 105.1989410
  76.5453830   7.6384370 105.7435100  76.1915320   9.0330200 105.2725470
  74.9071130   9.2035580  90.1422560  74.8981230   9.9365270  89.5267070
  73.9869490   8.9567160  90.2349520  70.5077770   4.4250470  90.8869320
  69.9005720   5.1649370  90.8964620  70.9827120   4.5149830  90.0607520
  77.8930730   9.2663820  88.8047750  77.9942710   9.0627810  87.8749730
  76.9932470   9.0122100  89.0095530  76.5348840  11.7850140  93.4995420
  76.7890340  11.7471530  92.5774790  75.5861320  11.6583470  93.4923670
  82.5401420   2.7042020  95.0753930  81.5991560   2.7192250  95.2501620
  82.8545490   1.9177980  95.5214230  72.5183060   4.3861620  88.6357890
  73.2846330   4.2742980  89.1983320  72.5957750   3.6899590  87.9834660
  84.5427000   9.8750870  96.7508190  84.6674420  10.6982040  97.2232000
  85.4092560   9.6641600  96.4032340  72.0144530  11.9682080  96.4225320
  72.7507010  11.4197540  96.6933890  72.3985450  12.8338090  96.2831310
  68.8990010   8.0355650  92.2966830  67.9729790   8.2776790  92.2872240
  69.3646440   8.8629910  92.1751580  71.0202810  11.1528150 105.6110900
  71.8215540  11.4740200 106.0246300  70.5054630  10.7923730 106.3330810
  75.1246840  11.1412390  88.2450890  75.9175450  11.4301220  87.7932680
  74.6051190  10.7104560  87.5663370  79.8567440   7.2608020 105.5586310
  79.2505600   7.2839620 104.8182060  79.5521550   6.5291060 106.0953560
  81.2867810  10.9888310 104.1695720  82.2389560  10.9046330 104.1195960
  81.1396030  11.6530020 104.8429510  84.1777010  10.3682520  89.6687630
  83.8918520   9.9547660  88.8541810  83.9796560  11.2970230  89.5488150
  68.7400620   3.6401610 104.5546950  69.2439640   3.0608890 105.1263180
  68.0008040   3.9241840 105.0923320  75.6424240   6.3615800  88.1093240
  75.5374880   5.7468150  88.8354620  75.4748460   5.8381690  87.3256250
  75.7938560   5.0472600 104.0882470  75.0284230   5.6157600 104.0037140
  75.9754520   4.7548810 103.1950700  78.8826970   5.4235830  88.7135230
  78.3337070   5.8705130  89.3577970  79.5046230   4.9185080  89.2372900
  82.9361910   6.7777930 104.6457490  83.6771380   7.1153690 104.1424950
  82.1734590   6.9469990 104.0927260  74.5502090   4.3826750  90.6100530
  74.9718510   4.2166620  91.4531920  74.6752930   3.5726980  90.1155670
  77.0629730   3.4064360  87.8577630  77.5835390   2.6913380  87.4918780
  77.7098130   4.0450230  88.1578140  81.6107570   4.8292760 103.1812700
  82.0248590   4.9837840 104.0303120  80.6758570   4.9547980 103.3438480
  76.3722800   4.7813240 101.1508630  76.7910910   5.6245970 100.9784870
  75.4531430   4.9185280 100.9215410  78.7086700   2.5129420 102.5346470
  78.8282910   1.9170560 103.2741310  79.5680700   2.5499110 102.1147770
  81.0474600   3.0666610 101.1108980  80.5209820   3.5909230 100.5074120
  81.3905940   3.6994000 101.7418710  74.2230220  11.0866250 102.2666360
  73.6851310  11.8112310 101.9475060  74.4764180  10.6096590 101.4763700
  77.0792430  12.3217460 102.5253010  77.0051130  13.2252600 102.8325380
  76.1771270  12.0029360 102.4975080  77.6277760  11.4875970  90.1479370
  78.5228550  11.8260940  90.1698130  77.6595390  10.7655380  89.5203650
  71.2673920   6.8603020  88.3766370  71.7048790   7.4032690  89.0323950
  71.7521650   6.0349970  88.3862710  68.4819720   9.6492050  95.8286630
  68.8122730   8.7813110  95.5965270  68.9110720   9.8550570  96.6591590
  73.0781640   7.9801060  93.4888600  72.7777180   7.8566030  94.3892510
  72.9719130   7.1209650  93.0804330  68.9709930  10.5162640  98.5668260
  68.5340920  10.6963440  99.3992410  69.5387610  11.2737260  98.4249980
  84.6072110  10.0179640 102.8545570  84.0074100  10.0772200 102.1109490
  84.7366010   9.0784620 102.9842420  85.8473560   7.7597460  88.1915280
  85.0166520   7.8274110  88.6622510  86.0245390   8.6501580  87.8882140
  85.3030020   4.5044940  90.6949480  86.0648930   5.0741590  90.8009170
  85.3184390   3.9372140  91.4657790  68.8034360   3.0282870  94.9257140
  68.1483200   2.7594510  94.2816840  69.6412310   2.9187350  94.4759120
  86.3089990   5.3595040  95.5391410  86.6798820   4.5762360  95.1327380
  86.9491920   6.0484140  95.3608710  83.2923750   6.7431620 100.9521730
  82.4783590   7.1728780 101.2147520  83.6997950   7.3550030 100.3390780
  85.3549190   4.7979310  87.8522000  85.6298030   5.7058190  87.7241220
  85.1659930   4.7341840  88.7883990  85.2514530   2.7348300  92.8451430
  84.8758130   1.9676230  92.4132720  84.5217650   3.1171000  93.3326360
  69.8410290   3.4135440  99.4660480  70.2083330   3.3262840 100.3456500
  69.2721110   2.6501990  99.3667340  84.6414150   1.8819820 102.4790950
  84.4100240   1.6532570 101.5788900  84.9018700   2.8019370 102.4335840
  83.3499800  11.4950220  94.4790000  83.9458870  11.1734790  93.8024420
  83.6077950  11.0222040  95.2703270  71.2562370   7.9268130 104.6280630
  71.2132000   7.5561040 105.5095090  71.3873380   8.8645700 104.7682450
  74.9568400   9.4827720 100.2290350  74.7159760   9.7502280  99.3420870
  75.8971040   9.6533450 100.2841210  86.2172560  11.5022100 101.0300990
  85.7230840  11.8990970 100.3128120  85.6085850  10.8771310 101.4238270
  71.0950400  10.8730380 101.7478410  70.5010720  10.7415080 102.4868450
  71.0874240  10.0368520 101.2820510  83.9012010  12.1445520  98.3087730
  83.4414980  12.8961330  97.9345750  83.2724470  11.4251990  98.2502530
  70.7262630   8.2388760 100.6986450  69.9996690   7.6194050 100.6312400
  70.7871780   8.6329370  99.8284530  74.3307730  10.4533760  97.4835860
  74.8472750   9.8421120  96.9584120  74.9805110  10.9562540  97.9746870
  77.0703230  11.3442250  98.3104840  77.3581040  11.0896550  97.4337850
  77.5826450  10.7919610  98.9010410  69.0092630  11.5563150  93.9083210
  68.8414670  10.9233830  94.6065100  68.1427140  11.7622550  93.5577400
  70.6155330  10.2496380  91.3533350  70.0902950  10.6304410  90.6495310
  70.5399910  10.8747150  92.0743060  77.1375590  12.2658350 105.6773040
  78.0642900  12.0302620 105.7209000  77.1226020  13.0930350 105.1959070
  85.3720650  11.8083920  92.6747290  85.5472840  11.1221660  92.0308210
  84.6742220  12.3330970  92.2823960  73.2148300  12.1978760  90.2282600
  73.9467120  11.9138040  89.6806490  73.4741970  11.9592040  91.1181980
  72.3763090   8.3143490  90.2328930  71.7471970   8.7828590  90.7814760
  72.4910920   7.4692710  90.6675120  83.7053150  11.4928210 105.5014080
  84.4978470  10.9977440 105.2940040  83.9986300  12.1718350 106.1089690
  77.9630850   4.1428170  78.2639400  77.1872950   3.6628610  78.5537970
  78.6143780   3.4633820  78.0895560  71.9796680   4.4547980  79.1415160
  71.1481560   4.1996690  79.5411670  72.5877660   4.5258750  79.8773080
  81.9838280   8.5488360  77.0438530  81.5219810   7.7775600  77.3725700
  82.7963830   8.5754430  77.5490980  71.9597940   8.4888070  79.3373180
  72.2625980   7.5985810  79.1583400  72.7041530   9.0458290  79.1095430
  78.2101590  10.8346370  76.6642520  77.5913030  11.2903870  76.0936960
  79.0653370  10.9897830  76.2632220  77.4039840   6.8185360  78.2709560
  77.3348120   5.8775300  78.1098690  78.1659700   6.9086770  78.8432130
  79.0764940   5.7185610  74.0574430  78.4582210   6.1835060  73.4937150
  79.5888190   6.4113090  74.4743940  73.9396700   5.2461480  80.7358030
  73.6066080   5.8730400  81.3779100  74.1163380   5.7723360  79.9559700
  73.1515800   7.2142280  82.5507210  73.7689800   7.8893360  82.2691660
  72.2908920   7.6230260  82.4594710  68.4448140   6.4042140  71.4314060
  68.0676120   6.8929240  70.6998960  68.7021210   7.0767420  72.0620590
  84.0693390   8.6781690  80.4661850  83.3856910   9.3480800  80.4578520
  84.6087680   8.8762340  79.7006710  81.6052130  10.5225820  79.1807030
  81.6179290  10.1188110  78.3129290  81.0527350  11.2973110  79.0768460
  82.8997550   7.2442040  74.2697200  82.7893880   6.3016370  74.3946620
  82.8965800   7.6057680  75.1559960  81.0037570   5.4255660  80.5089640
  81.4206360   5.2115770  79.6743100  81.7277390   5.6828450  81.0798260
  78.4417830   2.8707360  73.6259690  77.5147110   2.8044740  73.8548160
  78.5942650   3.8087490  73.5114930  84.9499670   3.8242880  80.6005880
  84.1218300   3.8935970  80.1256010  85.5450150   4.4097190  80.1321710
  82.4715120   4.4327660  74.1294940  81.8527540   4.0947210  73.4821240
  82.4539570   3.7887420  74.8374130  74.0474470   3.3972100  76.4079420
  73.6431470   2.6849350  75.9125320  74.1337590   3.0525340  77.2967460
  74.5156170   7.0839660  78.5718630  74.2184460   6.4785130  77.8926410
  75.4655990   7.1216970  78.4607990  82.6041780  10.6571530  82.2341730
  82.1272340  11.4643720  82.0414340  81.9203570  10.0049860  82.3867940
  73.6074600   6.8221350  85.2226430  72.7103130   7.0461320  85.4699830
  73.6327470   6.9456290  84.2737830  80.6479820   3.6714470  71.1367690
  81.0873100   2.8336900  70.9905510  81.3608240   4.3043870  71.2231830
  72.4345820   3.6934670  83.7983800  72.2953590   4.5657470  84.1671200
  71.5527180   3.3507480  83.6531740  78.7575200   8.6110540  75.1048930
  79.1971110   9.3534870  74.6904320  78.6962090   8.8537110  76.0287890
  74.2326170   9.6356370  86.0068950  74.2041600  10.0399320  85.1397380
  74.0691140   8.7066730  85.8440550  86.1840990  10.4183470  87.3033120
  86.6600710  10.8966360  87.9822200  86.8048150  10.3500960  86.5778620
  68.3864470   5.4632220  79.7154710  68.4644890   5.5980990  78.7710430
  69.0006150   4.7548110  79.9082830  69.6312100   7.1632410  76.1260890
  69.2240180   7.3047000  75.2714490  70.5225110   6.8792570  75.9232100
  85.5874240   7.6096320  84.4633130  85.7137300   7.3708200  83.5450310
  85.6295620   6.7780860  84.9355210  79.4490980  11.3124320  83.0327940
  79.9635650  11.2232330  83.8350370  78.6060060  11.6584020  83.3255850
  81.4245380  11.5979660  72.4611940  81.2646520  11.3082600  73.3593770
  81.2592090  10.8219790  71.9257170  73.9033760  11.3778190  74.2383560
  73.7276240  10.4613730  74.0251360  73.0489500  11.7365480  74.4781360
  81.1271510   9.1067220  71.0209940  80.4336670   9.1044510  70.3612220
  81.8694370   8.6826540  70.5904110  80.6921440  10.7329930  75.0958430
  81.1478390   9.9519310  75.4097050  81.0313960  11.4436750  75.6399610
  68.4423990   6.5046390  82.2549170  68.6055030   6.0351750  81.4368540
  68.9076440   5.9969950  82.9198010  70.0162970   5.8797820  84.4144980
  69.6317760   5.2391490  85.0127940  70.3275160   6.5833940  84.9839710
  76.1660110   2.7274360  79.8953600  76.5330240   2.2532930  80.6414940
  75.9765170   3.6015930  80.2361940  73.9559480   1.7683000  82.2137810
  73.6516550   2.6474980  82.4388170  74.9105940   1.8282790  82.2495250
  72.4841270   5.9743990  72.8104660  71.7103530   5.4341610  72.6503380
  73.2135900   5.4550600  72.4722420  83.2429250   4.9709350  78.6031050
  83.9628370   5.4664640  78.2127160  83.0411070   4.2927240  77.9584920
  78.6248050   5.0418410  84.4900050  78.5585360   4.1214080  84.2357640
  77.9953190   5.1393850  85.2044690  72.5278670   5.6424370  76.4483470
  73.0457340   4.8392630  76.3940360  72.0762690   5.5803510  77.2900300
  77.4148170   6.9090650  71.7210770  77.7563870   7.6532880  71.2254090
  76.5860880   7.2221770  72.0835600  70.0123210   2.6085740  83.3609170
  69.6538150   3.2739590  83.9482510  69.7177770   1.7769290  83.7321790
  73.2136330   3.0669980  86.2448720  72.9136470   3.2127160  85.3476540
  73.9847570   2.5075270  86.1522110  78.5564780   7.8638980  84.2403850
  78.5709320   6.9319940  84.0222760  77.8489880   7.9498740  84.8793620
  83.6901850   2.0478800  70.5102460  83.6065570   2.4793020  69.6598900
  84.4096040   2.5077150  70.9429280  84.7675990   4.5046320  83.5872430
  84.0424180   5.0975100  83.3901820  85.2951450   4.4969860  82.7885800
  84.7189100   8.9021060  73.2384590  84.0765260   8.2476680  73.5128310
  84.3319760   9.3076150  72.4625260  80.2975580   6.2306490  77.0856280
  80.6499400   5.6334620  76.4257650  79.4137910   5.9050720  77.2564530
  76.3838860   6.9904180  74.4926690  77.0709990   7.5373390  74.8734280
  75.5971280   7.5344910  74.5276300  68.5231260   2.6077000  69.9843770
  69.3926110   2.8901800  70.2679690  68.0321580   3.4212870  69.8692580
  75.6866070   3.9950210  74.1052050  76.1428850   4.8055460  74.3312240
  75.3354280   3.6773350  74.9370540  77.9898680   9.5056550  81.3344350
  78.6340900   9.7115930  82.0117770  78.3528120   8.7444950  80.8815200
  79.2630760   7.5088900  80.0521800  79.9052990   6.8082060  80.1653970
  79.7880110   8.2887340  79.8718690  83.1086480   7.7937520  69.7760940
  82.8824060   7.0767960  70.3685580  82.7182680   7.5449960  68.9382690
  81.0368380   8.3083800  83.2557860  81.3724620   8.8950490  83.9335780
  80.1168720   8.1776510  83.4855650  68.8902510  11.8204380  70.5505400
  69.2500150  12.4193720  69.8962670  68.7494850  12.3664270  71.3240430
  82.6902730   5.7109460  71.4375100  82.4024430   6.1722150  72.2252980
  83.4854900   5.2507230  71.7059320  68.8744370  10.0859240  85.0247800
  68.9835490   9.1453980  84.8843190  68.2224930  10.3513990  84.3761530
  76.8656960   8.3575130  86.4245920  76.5453830   7.6384370  86.9691610
  76.1915320   9.0330200  86.4981980  74.9071130   9.2035580  71.3679070
  74.8981230   9.9365270  70.7523580  73.9869490   8.9567160  71.4606030
  70.5077770   4.4250470  72.1125830  69.9005720   5.1649370  72.1221130
  70.9827120   4.5149830  71.2864030  77.8930730   9.2663820  70.0304260
  77.9942710   9.0627810  69.1006240  76.9932470   9.0122100  70.2352040
  76.5348840  11.7850140  74.7251930  76.7890340  11.7471530  73.8031300
  75.5861320  11.6583470  74.7180180  82.5401420   2.7042020  76.3010440
  81.5991560   2.7192250  76.4758130  82.8545490   1.9177980  76.7470740
  72.5183060   4.3861620  69.8614400  73.2846330   4.2742980  70.4239830
  72.5957750   3.6899590  69.2091170  84.5427000   9.8750870  77.9764700
  84.6674420  10.6982040  78.4488510  85.4092560   9.6641600  77.6288850
  72.0144530  11.9682080  77.6481830  72.7507010  11.4197540  77.9190400
  72.3985450  12.8338090  77.5087820  68.8990010   8.0355650  73.5223340
  67.9729790   8.2776790  73.5128750  69.3646440   8.8629910  73.4008090
  71.0202810  11.1528150  86.8367410  71.8215540  11.4740200  87.2502810
  70.5054630  10.7923730  87.5587320  75.1246840  11.1412390  69.4707400
  75.9175450  11.4301220  69.0189190  74.6051190  10.7104560  68.7919880
  79.8567440   7.2608020  86.7842820  79.2505600   7.2839620  86.0438570
  79.5521550   6.5291060  87.3210070  81.2867810  10.9888310  85.3952230
  82.2389560  10.9046330  85.3452470  81.1396030  11.6530020  86.0686020
  68.7400620   3.6401610  85.7803460  69.2439640   3.0608890  86.3519690
  68.0008040   3.9241840  86.3179830  75.6424240   6.3615800  69.3349750
  75.5374880   5.7468150  70.0611130  75.4748460   5.8381690  68.5512760
  75.7938560   5.0472600  85.3138980  75.0284230   5.6157600  85.2293650
  75.9754520   4.7548810  84.4207210  78.8826970   5.4235830  69.9391740
  78.3337070   5.8705130  70.5834480  79.5046230   4.9185080  70.4629410
  82.9361910   6.7777930  85.8714000  83.6771380   7.1153690  85.3681460
  82.1734590   6.9469990  85.3183770  74.5502090   4.3826750  71.8357040
  74.9718510   4.2166620  72.6788430  74.6752930   3.5726980  71.3412180
  77.0629730   3.4064360  69.0834140  77.5835390   2.6913380  68.7175290
  77.7098130   4.0450230  69.3834650  81.6107570   4.8292760  84.4069210
  82.0248590   4.9837840  85.2559630  80.6758570   4.9547980  84.5694990
  76.3722800   4.7813240  82.3765140  76.7910910   5.6245970  82.2041380
  75.4531430   4.9185280  82.1471920  78.7086700   2.5129420  83.7602980
  78.8282910   1.9170560  84.4997820  79.5680700   2.5499110  83.3404280
  81.0474600   3.0666610  82.3365490  80.5209820   3.5909230  81.7330630
  81.3905940   3.6994000  82.9675220  74.2230220  11.0866250  83.4922870
  73.6851310  11.8112310  83.1731570  74.4764180  10.6096590  82.7020210
  77.0792430  12.3217460  83.7509520  77.0051130  13.2252600  84.0581890
  76.1771270  12.0029360  83.7231590  77.6277760  11.4875970  71.3735880
  78.5228550  11.8260940  71.3954640  77.6595390  10.7655380  70.7460160
  71.2673920   6.8603020  69.6022880  71.7048790   7.4032690  70.2580460
  71.7521650   6.0349970  69.6119220  68.4819720   9.6492050  77.0543140
  68.8122730   8.7813110  76.8221780  68.9110720   9.8550570  77.8848100
  73.0781640   7.9801060  74.7145110  72.7777180   7.8566030  75.6149020
  72.9719130   7.1209650  74.3060840  68.9709930  10.5162640  79.7924770
  68.5340920  10.6963440  80.6248920  69.5387610  11.2737260  79.6506490
  84.6072110  10.0179640  84.0802080  84.0074100  10.0772200  83.3366000
  84.7366010   9.0784620  84.2098930  85.8473560   7.7597460  69.4171790
  85.0166520   7.8274110  69.8879020  86.0245390   8.6501580  69.1138650
  85.3030020   4.5044940  71.9205990  86.0648930   5.0741590  72.0265680
  85.3184390   3.9372140  72.6914300  68.8034360   3.0282870  76.1513650
  68.1483200   2.7594510  75.5073350  69.6412310   2.9187350  75.7015630
  86.3089990   5.3595040  76.7647920  86.6798820   4.5762360  76.3583890
  86.9491920   6.0484140  76.5865220  83.2923750   6.7431620  82.1778240
  82.4783590   7.1728780  82.4404030  83.6997950   7.3550030  81.5647290
  85.3549190   4.7979310  69.0778510  85.6298030   5.7058190  68.9497730
  85.1659930   4.7341840  70.0140500  85.2514530   2.7348300  74.0707940
  84.8758130   1.9676230  73.6389230  84.5217650   3.1171000  74.5582870
  69.8410290   3.4135440  80.6916990  70.2083330   3.3262840  81.5713010
  69.2721110   2.6501990  80.5923850  84.6414150   1.8819820  83.7047460
  84.4100240   1.6532570  82.8045410  84.9018700   2.8019370  83.6592350
  83.3499800  11.4950220  75.7046510  83.9458870  11.1734790  75.0280930
  83.6077950  11.0222040  76.4959780  71.2562370   7.9268130  85.8537140
  71.2132000   7.5561040  86.7351600  71.3873380   8.8645700  85.9938960
  74.9568400   9.4827720  81.4546860  74.7159760   9.7502280  80.5677380
  75.8971040   9.6533450  81.5097720  86.2172560  11.5022100  82.2557500
  85.7230840  11.8990970  81.5384630  85.6085850  10.8771310  82.6494780
  71.0950400  10.8730380  82.9734920  70.5010720  10.7415080  83.7124960
  71.0874240  10.0368520  82.5077020  83.9012010  12.1445520  79.5344240
  83.4414980  12.8961330  79.1602260  83.2724470  11.4251990  79.4759040
  70.7262630   8.2388760  81.9242960  69.9996690   7.6194050  81.8568910
  70.7871780   8.6329370  81.0541040  74.3307730  10.4533760  78.7092370
  74.8472750   9.8421120  78.1840630  74.9805110  10.9562540  79.2003380
  77.0703230  11.3442250  79.5361350  77.3581040  11.0896550  78.6594360
  77.5826450  10.7919610  80.1266920  69.0092630  11.5563150  75.1339720
  68.8414670  10.9233830  75.8321610  68.1427140  11.7622550  74.7833910
  70.6155330  10.2496380  72.5789860  70.0902950  10.6304410  71.8751820
  70.5399910  10.8747150  73.2999570  77.1375590  12.2658350  86.9029550
  78.0642900  12.0302620  86.9465510  77.1226020  13.0930350  86.4215580
  85.3720650  11.8083920  73.9003800  85.5472840  11.1221660  73.2564720
  84.6742220  12.3330970  73.5080470  73.2148300  12.1978760  71.4539110
  73.9467120  11.9138040  70.9063000  73.4741970  11.9592040  72.3438490
  72.3763090   8.3143490  71.4585440  71.7471970   8.7828590  72.0071270
  72.4910920   7.4692710  71.8931630  83.7053150  11.4928210  86.7270590
  84.4978470  10.9977440  86.5196550  83.9986300  12.1718350  87.3346200
  77.9630850   4.1428170  59.4895910  77.1872950   3.6628610  59.7794480
  78.6143780   3.4633820  59.3152070  71.9796680   4.4547980  60.3671670
  71.1481560   4.1996690  60.7668180  72.5877660   4.5258750  61.1029590
  81.9838280   8.5488360  58.2695040  81.5219810   7.7775600  58.5982210
  82.7963830   8.5754430  58.7747490  71.9597940   8.4888070  60.5629690
  72.2625980   7.5985810  60.3839910  72.7041530   9.0458290  60.3351940
  78.2101590  10.8346370  57.8899030  77.5913030  11.2903870  57.3193470
  79.0653370  10.9897830  57.4888730  77.4039840   6.8185360  59.4966070
  77.3348120   5.8775300  59.3355200  78.1659700   6.9086770  60.0688640
  79.0764940   5.7185610  55.2830940  78.4582210   6.1835060  54.7193660
  79.5888190   6.4113090  55.7000450  73.9396700   5.2461480  61.9614540
  73.6066080   5.8730400  62.6035610  74.1163380   5.7723360  61.1816210
  73.1515800   7.2142280  63.7763720  73.7689800   7.8893360  63.4948170
  72.2908920   7.6230260  63.6851220  68.4448140   6.4042140  52.6570570
  68.0676120   6.8929240  51.9255470  68.7021210   7.0767420  53.2877100
  84.0693390   8.6781690  61.6918360  83.3856910   9.3480800  61.6835030
  84.6087680   8.8762340  60.9263220  81.6052130  10.5225820  60.4063540
  81.6179290  10.1188110  59.5385800  81.0527350  11.2973110  60.3024970
  82.8997550   7.2442040  55.4953710  82.7893880   6.3016370  55.6203130
  82.8965800   7.6057680  56.3816470  81.0037570   5.4255660  61.7346150
  81.4206360   5.2115770  60.8999610  81.7277390   5.6828450  62.3054770
  78.4417830   2.8707360  54.8516200  77.5147110   2.8044740  55.0804670
  78.5942650   3.8087490  54.7371440  84.9499670   3.8242880  61.8262390
  84.1218300   3.8935970  61.3512520  85.5450150   4.4097190  61.3578220
  82.4715120   4.4327660  55.3551450  81.8527540   4.0947210  54.7077750
  82.4539570   3.7887420  56.0630640  74.0474470   3.3972100  57.6335930
  73.6431470   2.6849350  57.1381830  74.1337590   3.0525340  58.5223970
  74.5156170   7.0839660  59.7975140  74.2184460   6.4785130  59.1182920
  75.4655990   7.1216970  59.6864500  82.6041780  10.6571530  63.4598240
  82.1272340  11.4643720  63.2670850  81.9203570  10.0049860  63.6124450
  73.6074600   6.8221350  66.4482940  72.7103130   7.0461320  66.6956340
  73.6327470   6.9456290  65.4994340  80.6479820   3.6714470  52.3624200
  81.0873100   2.8336900  52.2162020  81.3608240   4.3043870  52.4488340
  72.4345820   3.6934670  65.0240310  72.2953590   4.5657470  65.3927710
  71.5527180   3.3507480  64.8788250  78.7575200   8.6110540  56.3305440
  79.1971110   9.3534870  55.9160830  78.6962090   8.8537110  57.2544400
  74.2326170   9.6356370  67.2325460  74.2041600  10.0399320  66.3653890
  74.0691140   8.7066730  67.0697060  68.3864470   5.4632220  60.9411220
  68.4644890   5.5980990  59.9966940  69.0006150   4.7548110  61.1339340
  69.6312100   7.1632410  57.3517400  69.2240180   7.3047000  56.4971000
  70.5225110   6.8792570  57.1488610  85.5874240   7.6096320  65.6889640
  85.7137300   7.3708200  64.7706820  85.6295620   6.7780860  66.1611720
  79.4490980  11.3124320  64.2584450  79.9635650  11.2232330  65.0606880
  78.6060060  11.6584020  64.5512360  81.4245380  11.5979660  53.6868450
  81.2646520  11.3082600  54.5850280  81.2592090  10.8219790  53.1513680
  73.9033760  11.3778190  55.4640070  73.7276240  10.4613730  55.2507870
  73.0489500  11.7365480  55.7037870  81.1271510   9.1067220  52.2466450
  80.4336670   9.1044510  51.5868730  81.8694370   8.6826540  51.8160620
  80.6921440  10.7329930  56.3214940  81.1478390   9.9519310  56.6353560
  81.0313960  11.4436750  56.8656120  68.4423990   6.5046390  63.4805680
  68.6055030   6.0351750  62.6625050  68.9076440   5.9969950  64.1454520
  70.0162970   5.8797820  65.6401490  69.6317760   5.2391490  66.2384450
  70.3275160   6.5833940  66.2096220  76.1660110   2.7274360  61.1210110
  76.5330240   2.2532930  61.8671450  75.9765170   3.6015930  61.4618450
  73.9559480   1.7683000  63.4394320  73.6516550   2.6474980  63.6644680
  74.9105940   1.8282790  63.4751760  72.4841270   5.9743990  54.0361170
  71.7103530   5.4341610  53.8759890  73.2135900   5.4550600  53.6978930
  83.2429250   4.9709350  59.8287560  83.9628370   5.4664640  59.4383670
  83.0411070   4.2927240  59.1841430  78.6248050   5.0418410  65.7156560
  78.5585360   4.1214080  65.4614150  77.9953190   5.1393850  66.4301200
  72.5278670   5.6424370  57.6739980  73.0457340   4.8392630  57.6196870
  72.0762690   5.5803510  58.5156810  77.4148170   6.9090650  52.9467280
  77.7563870   7.6532880  52.4510600  76.5860880   7.2221770  53.3092110
  70.0123210   2.6085740  64.5865680  69.6538150   3.2739590  65.1739020
  69.7177770   1.7769290  64.9578300  73.2136330   3.0669980  67.4705230
  72.9136470   3.2127160  66.5733050  73.9847570   2.5075270  67.3778620
  78.5564780   7.8638980  65.4660360  78.5709320   6.9319940  65.2479270
  77.8489880   7.9498740  66.1050130  83.6901850   2.0478800  51.7358970
  83.6065570   2.4793020  50.8855410  84.4096040   2.5077150  52.1685790
  84.7675990   4.5046320  64.8128940  84.0424180   5.0975100  64.6158330
  85.2951450   4.4969860  64.0142310  84.7189100   8.9021060  54.4641100
  84.0765260   8.2476680  54.7384820  84.3319760   9.3076150  53.6881770
  80.2975580   6.2306490  58.3112790  80.6499400   5.6334620  57.6514160
  79.4137910   5.9050720  58.4821040  76.3838860   6.9904180  55.7183200
  77.0709990   7.5373390  56.0990790  75.5971280   7.5344910  55.7532810
  68.5231260   2.6077000  51.2100280  69.3926110   2.8901800  51.4936200
  68.0321580   3.4212870  51.0949090  75.6866070   3.9950210  55.3308560
  76.1428850   4.8055460  55.5568750  75.3354280   3.6773350  56.1627050
  77.9898680   9.5056550  62.5600860  78.6340900   9.7115930  63.2374280
  78.3528120   8.7444950  62.1071710  79.2630760   7.5088900  61.2778310
  79.9052990   6.8082060  61.3910480  79.7880110   8.2887340  61.0975200
  83.1086480   7.7937520  51.0017450  82.8824060   7.0767960  51.5942090
  82.7182680   7.5449960  50.1639200  81.0368380   8.3083800  64.4814370
  81.3724620   8.8950490  65.1592290  80.1168720   8.1776510  64.7112160
  68.8902510  11.8204380  51.7761910  69.2500150  12.4193720  51.1219180
  68.7494850  12.3664270  52.5496940  82.6902730   5.7109460  52.6631610
  82.4024430   6.1722150  53.4509490  83.4854900   5.2507230  52.9315830
  68.8744370  10.0859240  66.2504310  68.9835490   9.1453980  66.1099700
  68.2224930  10.3513990  65.6018040  76.8656960   8.3575130  67.6502430
  76.5453830   7.6384370  68.1948120  76.1915320   9.0330200  67.7238490
  74.9071130   9.2035580  52.5935580  74.8981230   9.9365270  51.9780090
  73.9869490   8.9567160  52.6862540  70.5077770   4.4250470  53.3382340
  69.9005720   5.1649370  53.3477640  70.9827120   4.5149830  52.5120540
  77.8930730   9.2663820  51.2560770  77.9942710   9.0627810  50.3262750
  76.9932470   9.0122100  51.4608550  76.5348840  11.7850140  55.9508440
  76.7890340  11.7471530  55.0287810  75.5861320  11.6583470  55.9436690
  82.5401420   2.7042020  57.5266950  81.5991560   2.7192250  57.7014640
  82.8545490   1.9177980  57.9727250  72.5183060   4.3861620  51.0870910
  73.2846330   4.2742980  51.6496340  72.5957750   3.6899590  50.4347680
  84.5427000   9.8750870  59.2021210  84.6674420  10.6982040  59.6745020
  85.4092560   9.6641600  58.8545360  72.0144530  11.9682080  58.8738340
  72.7507010  11.4197540  59.1446910  72.3985450  12.8338090  58.7344330
  68.8990010   8.0355650  54.7479850  67.9729790   8.2776790  54.7385260
  69.3646440   8.8629910  54.6264600  71.0202810  11.1528150  68.0623920
  71.8215540  11.4740200  68.4759320  70.5054630  10.7923730  68.7843830
  75.1246840  11.1412390  50.6963910  75.9175450  11.4301220  50.2445700
  74.6051190  10.7104560  50.0176390  79.8567440   7.2608020  68.0099330
  79.2505600   7.2839620  67.2695080  79.5521550   6.5291060  68.5466580
  81.2867810  10.9888310  66.6208740  82.2389560  10.9046330  66.5708980
  81.1396030  11.6530020  67.2942530  84.1777010  10.3682520  52.1200650
  83.8918520   9.9547660  51.3054830  83.9796560  11.2970230  52.0001170
  68.7400620   3.6401610  67.0059970  69.2439640   3.0608890  67.5776200
  68.0008040   3.9241840  67.5436340  75.6424240   6.3615800  50.5606260
  75.5374880   5.7468150  51.2867640  75.4748460   5.8381690  49.7769270
  75.7938560   5.0472600  66.5395490  75.0284230   5.6157600  66.4550160
  75.9754520   4.7548810  65.6463720  78.8826970   5.4235830  51.1648250
  78.3337070   5.8705130  51.8090990  79.5046230   4.9185080  51.6885920
  82.9361910   6.7777930  67.0970510  83.6771380   7.1153690  66.5937970
  82.1734590   6.9469990  66.5440280  74.5502090   4.3826750  53.0613550
  74.9718510   4.2166620  53.9044940  74.6752930   3.5726980  52.5668690
  77.0629730   3.4064360  50.3090650  77.5835390   2.6913380  49.9431800
  77.7098130   4.0450230  50.6091160  81.6107570   4.8292760  65.6325720
  82.0248590   4.9837840  66.4816140  80.6758570   4.9547980  65.7951500
  76.3722800   4.7813240  63.6021650  76.7910910   5.6245970  63.4297890
  75.4531430   4.9185280  63.3728430  78.7086700   2.5129420  64.9859490
  78.8282910   1.9170560  65.7254330  79.5680700   2.5499110  64.5660790
  81.0474600   3.0666610  63.5622000  80.5209820   3.5909230  62.9587140
  81.3905940   3.6994000  64.1931730  74.2230220  11.0866250  64.7179380
  73.6851310  11.8112310  64.3988080  74.4764180  10.6096590  63.9276720
  77.0792430  12.3217460  64.9766030  77.0051130  13.2252600  65.2838400
  76.1771270  12.0029360  64.9488100  77.6277760  11.4875970  52.5992390
  78.5228550  11.8260940  52.6211150  77.6595390  10.7655380  51.9716670
  71.2673920   6.8603020  50.8279390  71.7048790   7.4032690  51.4836970
  71.7521650   6.0349970  50.8375730  68.4819720   9.6492050  58.2799650
  68.8122730   8.7813110  58.0478290  68.9110720   9.8550570  59.1104610
  73.0781640   7.9801060  55.9401620  72.7777180   7.8566030  56.8405530
  72.9719130   7.1209650  55.5317350  68.9709930  10.5162640  61.0181280
  68.5340920  10.6963440  61.8505430  69.5387610  11.2737260  60.8763000
  84.6072110  10.0179640  65.3058590  84.0074100  10.0772200  64.5622510
  84.7366010   9.0784620  65.4355440  85.8473560   7.7597460  50.6428300
  85.0166520   7.8274110  51.1135530  86.0245390   8.6501580  50.3395160
  85.3030020   4.5044940  53.1462500  86.0648930   5.0741590  53.2522190
  85.3184390   3.9372140  53.9170810  68.8034360   3.0282870  57.3770160
  68.1483200   2.7594510  56.7329860  69.6412310   2.9187350  56.9272140
  86.3089990   5.3595040  57.9904430  86.6798820   4.5762360  57.5840400
  86.9491920   6.0484140  57.8121730  83.2923750   6.7431620  63.4034750
  82.4783590   7.1728780  63.6660540  83.6997950   7.3550030  62.7903800
  85.3549190   4.7979310  50.3035020  85.6298030   5.7058190  50.1754240
  85.1659930   4.7341840  51.2397010  85.2514530   2.7348300  55.2964450
  84.8758130   1.9676230  54.8645740  84.5217650   3.1171000  55.7839380
  69.8410290   3.4135440  61.9173500  70.2083330   3.3262840  62.7969520
  69.2721110   2.6501990  61.8180360  84.6414150   1.8819820  64.9303970
  84.4100240   1.6532570  64.0301920  84.9018700   2.8019370  64.8848860
  83.3499800  11.4950220  56.9303020  83.9458870  11.1734790  56.2537440
  83.6077950  11.0222040  57.7216290  71.2562370   7.9268130  67.0793650
  71.2132000   7.5561040  67.9608110  71.3873380   8.8645700  67.2195470
  74.9568400   9.4827720  62.6803370  74.7159760   9.7502280  61.7933890
  75.8971040   9.6533450  62.7354230  86.2172560  11.5022100  63.4814010
  85.7230840  11.8990970  62.7641140  85.6085850  10.8771310  63.8751290
  71.0950400  10.8730380  64.1991430  70.5010720  10.7415080  64.9381470
  71.0874240  10.0368520  63.7333530  83.9012010  12.1445520  60.7600750
  83.4414980  12.8961330  60.3858770  83.2724470  11.4251990  60.7015550
  70.7262630   8.2388760  63.1499470  69.9996690   7.6194050  63.0825420
  70.7871780   8.6329370  62.2797550  74.3307730  10.4533760  59.9348880
  74.8472750   9.8421120  59.4097140  74.9805110  10.9562540  60.4259890
  77.0703230  11.3442250  60.7617860  77.3581040  11.0896550  59.8850870
  77.5826450  10.7919610  61.3523430  69.0092630  11.5563150  56.3596230
  68.8414670  10.9233830  57.0578120  68.1427140  11.7622550  56.0090420
  70.6155330  10.2496380  53.8046370  70.0902950  10.6304410  53.1008330
  70.5399910  10.8747150  54.5256080  77.1375590  12.2658350  68.1286060
  78.0642900  12.0302620  68.1722020  77.1226020  13.0930350  67.6472090
  85.3720650  11.8083920  55.1260310  85.5472840  11.1221660  54.4821230
  84.6742220  12.3330970  54.7336980  73.2148300  12.1978760  52.6795620
  73.9467120  11.9138040  52.1319510  73.4741970  11.9592040  53.5695000
  72.3763090   8.3143490  52.6841950  71.7471970   8.7828590  53.2327780
  72.4910920   7.4692710  53.1188140  77.9630850   4.1428170  40.7152420
  77.1872950   3.6628610  41.0050990  78.6143780   3.4633820  40.5408580
  71.9796680   4.4547980  41.5928180  71.1481560   4.1996690  41.9924690
  72.5877660   4.5258750  42.3286100  81.9838280   8.5488360  39.4951550
  81.5219810   7.7775600  39.8238720  82.7963830   8.5754430  40.0004000
  71.9597940   8.4888070  41.7886200  72.2625980   7.5985810  41.6096420
  72.7041530   9.0458290  41.5608450  78.2101590  10.8346370  39.1155540
  77.5913030  11.2903870  38.5449980  79.0653370  10.9897830  38.7145240
  77.4039840   6.8185360  40.7222580  77.3348120   5.8775300  40.5611710
  78.1659700   6.9086770  41.2945150  79.0764940   5.7185610  36.5087450
  78.4582210   6.1835060  35.9450170  79.5888190   6.4113090  36.9256960
  73.9396700   5.2461480  43.1871050  73.6066080   5.8730400  43.8292120
  74.1163380   5.7723360  42.4072720  73.1515800   7.2142280  45.0020230
  73.7689800   7.8893360  44.7204680  72.2908920   7.6230260  44.9107730
  68.4448140   6.4042140  33.8827080  68.0676120   6.8929240  33.1511980
  68.7021210   7.0767420  34.5133610  84.0693390   8.6781690  42.9174870
  83.3856910   9.3480800  42.9091540  84.6087680   8.8762340  42.1519730
  81.6052130  10.5225820  41.6320050  81.6179290  10.1188110  40.7642310
  81.0527350  11.2973110  41.5281480  82.8997550   7.2442040  36.7210220
  82.7893880   6.3016370  36.8459640  82.8965800   7.6057680  37.6072980
  81.0037570   5.4255660  42.9602660  81.4206360   5.2115770  42.1256120
  81.7277390   5.6828450  43.5311280  78.4417830   2.8707360  36.0772710
  77.5147110   2.8044740  36.3061180  78.5942650   3.8087490  35.9627950
  84.9499670   3.8242880  43.0518900  84.1218300   3.8935970  42.5769030
  85.5450150   4.4097190  42.5834730  82.4715120   4.4327660  36.5807960
  81.8527540   4.0947210  35.9334260  82.4539570   3.7887420  37.2887150
  74.0474470   3.3972100  38.8592440  73.6431470   2.6849350  38.3638340
  74.1337590   3.0525340  39.7480480  74.5156170   7.0839660  41.0231650
  74.2184460   6.4785130  40.3439430  75.4655990   7.1216970  40.9121010
  82.6041780  10.6571530  44.6854750  82.1272340  11.4643720  44.4927360
  81.9203570  10.0049860  44.8380960  73.6074600   6.8221350  47.6739450
  72.7103130   7.0461320  47.9212850  73.6327470   6.9456290  46.7250850
  80.6479820   3.6714470  33.5880710  81.0873100   2.8336900  33.4418530
  81.3608240   4.3043870  33.6744850  72.4345820   3.6934670  46.2496820
  72.2953590   4.5657470  46.6184220  71.5527180   3.3507480  46.1044760
  78.7575200   8.6110540  37.5561950  79.1971110   9.3534870  37.1417340
  78.6962090   8.8537110  38.4800910  74.2326170   9.6356370  48.4581970
  74.2041600  10.0399320  47.5910400  74.0691140   8.7066730  48.2953570
  86.1840990  10.4183470  49.7546140  86.6600710  10.8966360  50.4335220
  86.8048150  10.3500960  49.0291640  68.3864470   5.4632220  42.1667730
  68.4644890   5.5980990  41.2223450  69.0006150   4.7548110  42.3595850
  69.6312100   7.1632410  38.5773910  69.2240180   7.3047000  37.7227510
  70.5225110   6.8792570  38.3745120  85.5874240   7.6096320  46.9146150
  85.7137300   7.3708200  45.9963330  85.6295620   6.7780860  47.3868230
  79.4490980  11.3124320  45.4840960  79.9635650  11.2232330  46.2863390
  78.6060060  11.6584020  45.7768870  81.4245380  11.5979660  34.9124960
  81.2646520  11.3082600  35.8106790  81.2592090  10.8219790  34.3770190
  73.9033760  11.3778190  36.6896580  73.7276240  10.4613730  36.4764380
  73.0489500  11.7365480  36.9294380  81.1271510   9.1067220  33.4722960
  80.4336670   9.1044510  32.8125240  81.8694370   8.6826540  33.0417130
  80.6921440  10.7329930  37.5471450  81.1478390   9.9519310  37.8610070
  81.0313960  11.4436750  38.0912630  68.4423990   6.5046390  44.7062190
  68.6055030   6.0351750  43.8881560  68.9076440   5.9969950  45.3711030
  70.0162970   5.8797820  46.8658000  69.6317760   5.2391490  47.4640960
  70.3275160   6.5833940  47.4352730  76.1660110   2.7274360  42.3466620
  76.5330240   2.2532930  43.0927960  75.9765170   3.6015930  42.6874960
  73.9559480   1.7683000  44.6650830  73.6516550   2.6474980  44.8901190
  74.9105940   1.8282790  44.7008270  72.4841270   5.9743990  35.2617680
  71.7103530   5.4341610  35.1016400  73.2135900   5.4550600  34.9235440
  83.2429250   4.9709350  41.0544070  83.9628370   5.4664640  40.6640180
  83.0411070   4.2927240  40.4097940  78.6248050   5.0418410  46.9413070
  78.5585360   4.1214080  46.6870660  77.9953190   5.1393850  47.6557710
  72.5278670   5.6424370  38.8996490  73.0457340   4.8392630  38.8453380
  72.0762690   5.5803510  39.7413320  77.4148170   6.9090650  34.1723790
  77.7563870   7.6532880  33.6767110  76.5860880   7.2221770  34.5348620
  70.0123210   2.6085740  45.8122190  69.6538150   3.2739590  46.3995530
  69.7177770   1.7769290  46.1834810  73.2136330   3.0669980  48.6961740
  72.9136470   3.2127160  47.7989560  73.9847570   2.5075270  48.6035130
  78.5564780   7.8638980  46.6916870  78.5709320   6.9319940  46.4735780
  77.8489880   7.9498740  47.3306640  83.6901850   2.0478800  32.9615480
  83.6065570   2.4793020  32.1111920  84.4096040   2.5077150  33.3942300
  84.7675990   4.5046320  46.0385450  84.0424180   5.0975100  45.8414840
  85.2951450   4.4969860  45.2398820  84.7189100   8.9021060  35.6897610
  84.0765260   8.2476680  35.9641330  84.3319760   9.3076150  34.9138280
  80.2975580   6.2306490  39.5369300  80.6499400   5.6334620  38.8770670
  79.4137910   5.9050720  39.7077550  76.3838860   6.9904180  36.9439710
  77.0709990   7.5373390  37.3247300  75.5971280   7.5344910  36.9789320
  68.5231260   2.6077000  32.4356790  69.3926110   2.8901800  32.7192710
  68.0321580   3.4212870  32.3205600  75.6866070   3.9950210  36.5565070
  76.1428850   4.8055460  36.7825260  75.3354280   3.6773350  37.3883560
  77.9898680   9.5056550  43.7857370  78.6340900   9.7115930  44.4630790
  78.3528120   8.7444950  43.3328220  79.2630760   7.5088900  42.5034820
  79.9052990   6.8082060  42.6166990  79.7880110   8.2887340  42.3231710
  83.1086480   7.7937520  32.2273960  82.8824060   7.0767960  32.8198600
  82.7182680   7.5449960  31.3895710  81.0368380   8.3083800  45.7070880
  81.3724620   8.8950490  46.3848800  80.1168720   8.1776510  45.9368670
  68.8902510  11.8204380  33.0018420  69.2500150  12.4193720  32.3475690
  68.7494850  12.3664270  33.7753450  82.6902730   5.7109460  33.8888120
  82.4024430   6.1722150  34.6766000  83.4854900   5.2507230  34.1572340
  68.8744370  10.0859240  47.4760820  68.9835490   9.1453980  47.3356210
  68.2224930  10.3513990  46.8274550  76.8656960   8.3575130  48.8758940
  76.5453830   7.6384370  49.4204630  76.1915320   9.0330200  48.9495000
  74.9071130   9.2035580  33.8192090  74.8981230   9.9365270  33.2036600
  73.9869490   8.9567160  33.9119050  70.5077770   4.4250470  34.5638850
  69.9005720   5.1649370  34.5734150  70.9827120   4.5149830  33.7377050
  77.8930730   9.2663820  32.4817280  77.9942710   9.0627810  31.5519260
  76.9932470   9.0122100  32.6865060  76.5348840  11.7850140  37.1764950
  76.7890340  11.7471530  36.2544320  75.5861320  11.6583470  37.1693200
  82.5401420   2.7042020  38.7523460  81.5991560   2.7192250  38.9271150
  82.8545490   1.9177980  39.1983760  72.5183060   4.3861620  32.3127420
  73.2846330   4.2742980  32.8752850  72.5957750   3.6899590  31.6604190
  84.5427000   9.8750870  40.4277720  84.6674420  10.6982040  40.9001530
  85.4092560   9.6641600  40.0801870  72.0144530  11.9682080  40.0994850
  72.7507010  11.4197540  40.3703420  72.3985450  12.8338090  39.9600840
  68.8990010   8.0355650  35.9736360  67.9729790   8.2776790  35.9641770
  69.3646440   8.8629910  35.8521110  71.0202810  11.1528150  49.2880430
  71.8215540  11.4740200  49.7015830  70.5054630  10.7923730  50.0100340
  75.1246840  11.1412390  31.9220420  75.9175450  11.4301220  31.4702210
  74.6051190  10.7104560  31.2432900  79.8567440   7.2608020  49.2355840
  79.2505600   7.2839620  48.4951590  79.5521550   6.5291060  49.7723090
  81.2867810  10.9888310  47.8465250  82.2389560  10.9046330  47.7965490
  81.1396030  11.6530020  48.5199040  84.1777010  10.3682520  33.3457160
  83.8918520   9.9547660  32.5311340  83.9796560  11.2970230  33.2257680
  68.7400620   3.6401610  48.2316480  69.2439640   3.0608890  48.8032710
  68.0008040   3.9241840  48.7692850  75.6424240   6.3615800  31.7862770
  75.5374880   5.7468150  32.5124150  75.4748460   5.8381690  31.0025780
  75.7938560   5.0472600  47.7652000  75.0284230   5.6157600  47.6806670
  75.9754520   4.7548810  46.8720230  78.8826970   5.4235830  32.3904760
  78.3337070   5.8705130  33.0347500  79.5046230   4.9185080  32.9142430
  82.9361910   6.7777930  48.3227020  83.6771380   7.1153690  47.8194480
  82.1734590   6.9469990  47.7696790  74.5502090   4.3826750  34.2870060
  74.9718510   4.2166620  35.1301450  74.6752930   3.5726980  33.7925200
  77.0629730   3.4064360  31.5347160  77.5835390   2.6913380  31.1688310
  77.7098130   4.0450230  31.8347670  81.6107570   4.8292760  46.8582230
  82.0248590   4.9837840  47.7072650  80.6758570   4.9547980  47.0208010
  76.3722800   4.7813240  44.8278160  76.7910910   5.6245970  44.6554400
  75.4531430   4.9185280  44.5984940  78.7086700   2.5129420  46.2116000
  78.8282910   1.9170560  46.9510840  79.5680700   2.5499110  45.7917300
  81.0474600   3.0666610  44.7878510  80.5209820   3.5909230  44.1843650
  81.3905940   3.6994000  45.4188240  74.2230220  11.0866250  45.9435890
  73.6851310  11.8112310  45.6244590  74.4764180  10.6096590  45.1533230
  77.0792430  12.3217460  46.2022540  77.0051130  13.2252600  46.5094910
  76.1771270  12.0029360  46.1744610  77.6277760  11.4875970  33.8248900
  78.5228550  11.8260940  33.8467660  77.6595390  10.7655380  33.1973180
  71.2673920   6.8603020  32.0535900  71.7048790   7.4032690  32.7093480
  71.7521650   6.0349970  32.0632240  68.4819720   9.6492050  39.5056160
  68.8122730   8.7813110  39.2734800  68.9110720   9.8550570  40.3361120
  73.0781640   7.9801060  37.1658130  72.7777180   7.8566030  38.0662040
  72.9719130   7.1209650  36.7573860  68.9709930  10.5162640  42.2437790
  68.5340920  10.6963440  43.0761940  69.5387610  11.2737260  42.1019510
  84.6072110  10.0179640  46.5315100  84.0074100  10.0772200  45.7879020
  84.7366010   9.0784620  46.6611950  85.8473560   7.7597460  31.8684810
  85.0166520   7.8274110  32.3392040  86.0245390   8.6501580  31.5651670
  85.3030020   4.5044940  34.3719010  86.0648930   5.0741590  34.4778700
  85.3184390   3.9372140  35.1427320  68.8034360   3.0282870  38.6026670
  68.1483200   2.7594510  37.9586370  69.6412310   2.9187350  38.1528650
  86.3089990   5.3595040  39.2160940  86.6798820   4.5762360  38.8096910
  86.9491920   6.0484140  39.0378240  83.2923750   6.7431620  44.6291260
  82.4783590   7.1728780  44.8917050  83.6997950   7.3550030  44.0160310
  85.3549190   4.7979310  31.5291530  85.6298030   5.7058190  31.4010750
  85.1659930   4.7341840  32.4653520  85.2514530   2.7348300  36.5220960
  84.8758130   1.9676230  36.0902250  84.5217650   3.1171000  37.0095890
  69.8410290   3.4135440  43.1430010  70.2083330   3.3262840  44.0226030
  69.2721110   2.6501990  43.0436870  84.6414150   1.8819820  46.1560480
  84.4100240   1.6532570  45.2558430  84.9018700   2.8019370  46.1105370
  83.3499800  11.4950220  38.1559530  83.9458870  11.1734790  37.4793950
  83.6077950  11.0222040  38.9472800  71.2562370   7.9268130  48.3050160
  71.2132000   7.5561040  49.1864620  71.3873380   8.8645700  48.4451980
  74.9568400   9.4827720  43.9059880  74.7159760   9.7502280  43.0190400
  75.8971040   9.6533450  43.9610740  86.2172560  11.5022100  44.7070520
  85.7230840  11.8990970  43.9897650  85.6085850  10.8771310  45.1007800
  71.0950400  10.8730380  45.4247940  70.5010720  10.7415080  46.1637980
  71.0874240  10.0368520  44.9590040  83.9012010  12.1445520  41.9857260
  83.4414980  12.8961330  41.6115280  83.2724470  11.4251990  41.9272060
  70.7262630   8.2388760  44.3755980  69.9996690   7.6194050  44.3081930
  70.7871780   8.6329370  43.5054060  74.3307730  10.4533760  41.1605390
  74.8472750   9.8421120  40.6353650  74.9805110  10.9562540  41.6516400
  77.0703230  11.3442250  41.9874370  77.3581040  11.0896550  41.1107380
  77.5826450  10.7919610  42.5779940  69.0092630  11.5563150  37.5852740
  68.8414670  10.9233830  38.2834630  68.1427140  11.7622550  37.2346930
  70.6155330  10.2496380  35.0302880  70.0902950  10.6304410  34.3264840
  70.5399910  10.8747150  35.7512590  77.1375590  12.2658350  49.3542570
  78.0642900  12.0302620  49.3978530  77.1226020  13.0930350  48.8728600
  85.3720650  11.8083920  36.3516820  85.5472840  11.1221660  35.7077740
  84.6742220  12.3330970  35.9593490  73.2148300  12.1978760  33.9052130
  73.9467120  11.9138040  33.3576020  73.4741970  11.9592040  34.7951510
  72.3763090   8.3143490  33.9098460  71.7471970   8.7828590  34.4584290
  72.4910920   7.4692710  34.3444650  83.7053150  11.4928210  49.1783610
  84.4978470  10.9977440  48.9709570  83.9986300  12.1718350  49.7859220
  77.9630850   4.1428170  21.9408930  77.1872950   3.6628610  22.2307500
  78.6143780   3.4633820  21.7665090  71.9796680   4.4547980  22.8184690
  71.1481560   4.1996690  23.2181200  72.5877660   4.5258750  23.5542610
  81.9838280   8.5488360  20.7208060  81.5219810   7.7775600  21.0495230
  82.7963830   8.5754430  21.2260510  71.9597940   8.4888070  23.0142710
  72.2625980   7.5985810  22.8352930  72.7041530   9.0458290  22.7864960
  78.2101590  10.8346370  20.3412050  77.5913030  11.2903870  19.7706490
  79.0653370  10.9897830  19.9401750  77.4039840   6.8185360  21.9479090
  77.3348120   5.8775300  21.7868220  78.1659700   6.9086770  22.5201660
  79.0764940   5.7185610  17.7343960  78.4582210   6.1835060  17.1706680
  79.5888190   6.4113090  18.1513470  73.9396700   5.2461480  24.4127560
  73.6066080   5.8730400  25.0548630  74.1163380   5.7723360  23.6329230
  73.1515800   7.2142280  26.2276740  73.7689800   7.8893360  25.9461190
  72.2908920   7.6230260  26.1364240  68.4448140   6.4042140  15.1083590
  68.0676120   6.8929240  14.3768490  68.7021210   7.0767420  15.7390120
  84.0693390   8.6781690  24.1431380  83.3856910   9.3480800  24.1348050
  84.6087680   8.8762340  23.3776240  81.6052130  10.5225820  22.8576560
  81.6179290  10.1188110  21.9898820  81.0527350  11.2973110  22.7537990
  82.8997550   7.2442040  17.9466730  82.7893880   6.3016370  18.0716150
  82.8965800   7.6057680  18.8329490  81.0037570   5.4255660  24.1859170
  81.4206360   5.2115770  23.3512630  81.7277390   5.6828450  24.7567790
  78.4417830   2.8707360  17.3029220  77.5147110   2.8044740  17.5317690
  78.5942650   3.8087490  17.1884460  84.9499670   3.8242880  24.2775410
  84.1218300   3.8935970  23.8025540  85.5450150   4.4097190  23.8091240
  82.4715120   4.4327660  17.8064470  81.8527540   4.0947210  17.1590770
  82.4539570   3.7887420  18.5143660  74.0474470   3.3972100  20.0848950
  73.6431470   2.6849350  19.5894850  74.1337590   3.0525340  20.9736990
  74.5156170   7.0839660  22.2488160  74.2184460   6.4785130  21.5695940
  75.4655990   7.1216970  22.1377520  82.6041780  10.6571530  25.9111260
  82.1272340  11.4643720  25.7183870  81.9203570  10.0049860  26.0637470
  73.6074600   6.8221350  28.8995960  72.7103130   7.0461320  29.1469360
  73.6327470   6.9456290  27.9507360  80.6479820   3.6714470  14.8137220
  81.0873100   2.8336900  14.6675040  81.3608240   4.3043870  14.9001360
  72.4345820   3.6934670  27.4753330  72.2953590   4.5657470  27.8440730
  71.5527180   3.3507480  27.3301270  78.7575200   8.6110540  18.7818460
  79.1971110   9.3534870  18.3673850  78.6962090   8.8537110  19.7057420
  74.2326170   9.6356370  29.6838480  74.2041600  10.0399320  28.8166910
  74.0691140   8.7066730  29.5210080  86.1840990  10.4183470  30.9802650
  86.6600710  10.8966360  31.6591730  86.8048150  10.3500960  30.2548150
  68.3864470   5.4632220  23.3924240  68.4644890   5.5980990  22.4479960
  69.0006150   4.7548110  23.5852360  69.6312100   7.1632410  19.8030420
  69.2240180   7.3047000  18.9484020  70.5225110   6.8792570  19.6001630
  85.5874240   7.6096320  28.1402660  85.7137300   7.3708200  27.2219840
  85.6295620   6.7780860  28.6124740  79.4490980  11.3124320  26.7097470
  79.9635650  11.2232330  27.5119900  78.6060060  11.6584020  27.0025380
  81.4245380  11.5979660  16.1381470  81.2646520  11.3082600  17.0363300
  81.2592090  10.8219790  15.6026700  73.9033760  11.3778190  17.9153090
  73.7276240  10.4613730  17.7020890  73.0489500  11.7365480  18.1550890
  81.1271510   9.1067220  14.6979470  80.4336670   9.1044510  14.0381750
  81.8694370   8.6826540  14.2673640  80.6921440  10.7329930  18.7727960
  81.1478390   9.9519310  19.0866580  81.0313960  11.4436750  19.3169140
  68.4423990   6.5046390  25.9318700  68.6055030   6.0351750  25.1138070
  68.9076440   5.9969950  26.5967540  70.0162970   5.8797820  28.0914510
  69.6317760   5.2391490  28.6897470  70.3275160   6.5833940  28.6609240
  76.1660110   2.7274360  23.5723130  76.5330240   2.2532930  24.3184470
  75.9765170   3.6015930  23.9131470  73.9559480   1.7683000  25.8907340
  73.6516550   2.6474980  26.1157700  74.9105940   1.8282790  25.9264780
  72.4841270   5.9743990  16.4874190  71.7103530   5.4341610  16.3272910
  73.2135900   5.4550600  16.1491950  83.2429250   4.9709350  22.2800580
  83.9628370   5.4664640  21.8896690  83.0411070   4.2927240  21.6354450
  78.6248050   5.0418410  28.1669580  78.5585360   4.1214080  27.9127170
  77.9953190   5.1393850  28.8814220  72.5278670   5.6424370  20.1253000
  73.0457340   4.8392630  20.0709890  72.0762690   5.5803510  20.9669830
  77.4148170   6.9090650  15.3980300  77.7563870   7.6532880  14.9023620
  76.5860880   7.2221770  15.7605130  70.0123210   2.6085740  27.0378700
  69.6538150   3.2739590  27.6252040  69.7177770   1.7769290  27.4091320
  73.2136330   3.0669980  29.9218250  72.9136470   3.2127160  29.0246070
  73.9847570   2.5075270  29.8291640  78.5564780   7.8638980  27.9173380
  78.5709320   6.9319940  27.6992290  77.8489880   7.9498740  28.5563150
  83.6901850   2.0478800  14.1871990  83.6065570   2.4793020  13.3368430
  84.4096040   2.5077150  14.6198810  84.7675990   4.5046320  27.2641960
  84.0424180   5.0975100  27.0671350  85.2951450   4.4969860  26.4655330
  84.7189100   8.9021060  16.9154120  84.0765260   8.2476680  17.1897840
  84.3319760   9.3076150  16.1394790  80.2975580   6.2306490  20.7625810
  80.6499400   5.6334620  20.1027180  79.4137910   5.9050720  20.9334060
  76.3838860   6.9904180  18.1696220  77.0709990   7.5373390  18.5503810
  75.5971280   7.5344910  18.2045830  68.5231260   2.6077000  13.6613300
  69.3926110   2.8901800  13.9449220  68.0321580   3.4212870  13.5462110
  75.6866070   3.9950210  17.7821580  76.1428850   4.8055460  18.0081770
  75.3354280   3.6773350  18.6140070  77.9898680   9.5056550  25.0113880
  78.6340900   9.7115930  25.6887300  78.3528120   8.7444950  24.5584730
  79.2630760   7.5088900  23.7291330  79.9052990   6.8082060  23.8423500
  79.7880110   8.2887340  23.5488220  83.1086480   7.7937520  13.4530470
  82.8824060   7.0767960  14.0455110  82.7182680   7.5449960  12.6152220
  81.0368380   8.3083800  26.9327390  81.3724620   8.8950490  27.6105310
  80.1168720   8.1776510  27.1625180  68.8902510  11.8204380  14.2274930
  69.2500150  12.4193720  13.5732200  68.7494850  12.3664270  15.0009960
  82.6902730   5.7109460  15.1144630  82.4024430   6.1722150  15.9022510
  83.4854900   5.2507230  15.3828850  68.8744370  10.0859240  28.7017330
  68.9835490   9.1453980  28.5612720  68.2224930  10.3513990  28.0531060
  76.8656960   8.3575130  30.1015450  76.5453830   7.6384370  30.6461140
  76.1915320   9.0330200  30.1751510  74.9071130   9.2035580  15.0448600
  74.8981230   9.9365270  14.4293110  73.9869490   8.9567160  15.1375560
  70.5077770   4.4250470  15.7895360  69.9005720   5.1649370  15.7990660
  70.9827120   4.5149830  14.9633560  77.8930730   9.2663820  13.7073790
  77.9942710   9.0627810  12.7775770  76.9932470   9.0122100  13.9121570
  76.5348840  11.7850140  18.4021460  76.7890340  11.7471530  17.4800830
  75.5861320  11.6583470  18.3949710  82.5401420   2.7042020  19.9779970
  81.5991560   2.7192250  20.1527660  82.8545490   1.9177980  20.4240270
  72.5183060   4.3861620  13.5383930  73.2846330   4.2742980  14.1009360
  72.5957750   3.6899590  12.8860700  84.5427000   9.8750870  21.6534230
  84.6674420  10.6982040  22.1258040  85.4092560   9.6641600  21.3058380
  72.0144530  11.9682080  21.3251360  72.7507010  11.4197540  21.5959930
  72.3985450  12.8338090  21.1857350  68.8990010   8.0355650  17.1992870
  67.9729790   8.2776790  17.1898280  69.3646440   8.8629910  17.0777620
  71.0202810  11.1528150  30.5136940  71.8215540  11.4740200  30.9272340
  70.5054630  10.7923730  31.2356850  75.1246840  11.1412390  13.1476930
  75.9175450  11.4301220  12.6958720  74.6051190  10.7104560  12.4689410
  79.8567440   7.2608020  30.4612350  79.2505600   7.2839620  29.7208100
  79.5521550   6.5291060  30.9979600  81.2867810  10.9888310  29.0721760
  82.2389560  10.9046330  29.0222000  81.1396030  11.6530020  29.7455550
  84.1777010  10.3682520  14.5713670  83.8918520   9.9547660  13.7567850
  83.9796560  11.2970230  14.4514190  68.7400620   3.6401610  29.4572990
  69.2439640   3.0608890  30.0289220  68.0008040   3.9241840  29.9949360
  75.6424240   6.3615800  13.0119280  75.5374880   5.7468150  13.7380660
  75.4748460   5.8381690  12.2282290  75.7938560   5.0472600  28.9908510
  75.0284230   5.6157600  28.9063180  75.9754520   4.7548810  28.0976740
  78.8826970   5.4235830  13.6161270  78.3337070   5.8705130  14.2604010
  79.5046230   4.9185080  14.1398940  82.9361910   6.7777930  29.5483530
  83.6771380   7.1153690  29.0450990  82.1734590   6.9469990  28.9953300
  74.5502090   4.3826750  15.5126570  74.9718510   4.2166620  16.3557960
  74.6752930   3.5726980  15.0181710  77.0629730   3.4064360  12.7603670
  77.5835390   2.6913380  12.3944820  77.7098130   4.0450230  13.0604180
  81.6107570   4.8292760  28.0838740  82.0248590   4.9837840  28.9329160
  80.6758570   4.9547980  28.2464520  76.3722800   4.7813240  26.0534670
  76.7910910   5.6245970  25.8810910  75.4531430   4.9185280  25.8241450
  78.7086700   2.5129420  27.4372510  78.8282910   1.9170560  28.1767350
  79.5680700   2.5499110  27.0173810  81.0474600   3.0666610  26.0135020
  80.5209820   3.5909230  25.4100160  81.3905940   3.6994000  26.6444750
  74.2230220  11.0866250  27.1692400  73.6851310  11.8112310  26.8501100
  74.4764180  10.6096590  26.3789740  77.0792430  12.3217460  27.4279050
  77.0051130  13.2252600  27.7351420  76.1771270  12.0029360  27.4001120
  77.6277760  11.4875970  15.0505410  78.5228550  11.8260940  15.0724170
  77.6595390  10.7655380  14.4229690  71.2673920   6.8603020  13.2792410
  71.7048790   7.4032690  13.9349990  71.7521650   6.0349970  13.2888750
  68.4819720   9.6492050  20.7312670  68.8122730   8.7813110  20.4991310
  68.9110720   9.8550570  21.5617630  73.0781640   7.9801060  18.3914640
  72.7777180   7.8566030  19.2918550  72.9719130   7.1209650  17.9830370
  68.9709930  10.5162640  23.4694300  68.5340920  10.6963440  24.3018450
  69.5387610  11.2737260  23.3276020  84.6072110  10.0179640  27.7571610
  84.0074100  10.0772200  27.0135530  84.7366010   9.0784620  27.8868460
  85.8473560   7.7597460  13.0941320  85.0166520   7.8274110  13.5648550
  86.0245390   8.6501580  12.7908180  85.3030020   4.5044940  15.5975520
  86.0648930   5.0741590  15.7035210  85.3184390   3.9372140  16.3683830
  68.8034360   3.0282870  19.8283180  68.1483200   2.7594510  19.1842880
  69.6412310   2.9187350  19.3785160  86.3089990   5.3595040  20.4417450
  86.6798820   4.5762360  20.0353420  86.9491920   6.0484140  20.2634750
  83.2923750   6.7431620  25.8547770  82.4783590   7.1728780  26.1173560
  83.6997950   7.3550030  25.2416820  85.3549190   4.7979310  12.7548040
  85.6298030   5.7058190  12.6267260  85.1659930   4.7341840  13.6910030
  85.2514530   2.7348300  17.7477470  84.8758130   1.9676230  17.3158760
  84.5217650   3.1171000  18.2352400  69.8410290   3.4135440  24.3686520
  70.2083330   3.3262840  25.2482540  69.2721110   2.6501990  24.2693380
  84.6414150   1.8819820  27.3816990  84.4100240   1.6532570  26.4814940
  84.9018700   2.8019370  27.3361880  83.3499800  11.4950220  19.3816040
  83.9458870  11.1734790  18.7050460  83.6077950  11.0222040  20.1729310
  71.2562370   7.9268130  29.5306670  71.2132000   7.5561040  30.4121130
  71.3873380   8.8645700  29.6708490  74.9568400   9.4827720  25.1316390
  74.7159760   9.7502280  24.2446910  75.8971040   9.6533450  25.1867250
  86.2172560  11.5022100  25.9327030  85.7230840  11.8990970  25.2154160
  85.6085850  10.8771310  26.3264310  71.0950400  10.8730380  26.6504450
  70.5010720  10.7415080  27.3894490  71.0874240  10.0368520  26.1846550
  83.9012010  12.1445520  23.2113770  83.4414980  12.8961330  22.8371790
  83.2724470  11.4251990  23.1528570  70.7262630   8.2388760  25.6012490
  69.9996690   7.6194050  25.5338440  70.7871780   8.6329370  24.7310570
  74.3307730  10.4533760  22.3861900  74.8472750   9.8421120  21.8610160
  74.9805110  10.9562540  22.8772910  77.0703230  11.3442250  23.2130880
  77.3581040  11.0896550  22.3363890  77.5826450  10.7919610  23.8036450
  69.0092630  11.5563150  18.8109250  68.8414670  10.9233830  19.5091140
  68.1427140  11.7622550  18.4603440  70.6155330  10.2496380  16.2559390
  70.0902950  10.6304410  15.5521350  70.5399910  10.8747150  16.9769100
  77.1375590  12.2658350  30.5799080  78.0642900  12.0302620  30.6235040
  77.1226020  13.0930350  30.0985110  85.3720650  11.8083920  17.5773330
  85.5472840  11.1221660  16.9334250  84.6742220  12.3330970  17.1850000
  73.2148300  12.1978760  15.1308640  73.9467120  11.9138040  14.5832530
  73.4741970  11.9592040  16.0208020  72.3763090   8.3143490  15.1354970
  71.7471970   8.7828590  15.6840800  72.4910920   7.4692710  15.5701160
  83.7053150  11.4928210  30.4040120  84.4978470  10.9977440  30.1966080
  83.9986300  12.1718350  31.0115730  77.9630850   4.1428170   3.1665440
  77.1872950   3.6628610   3.4564010  78.6143780   3.4633820   2.9921600
  71.9796680   4.4547980   4.0441200  71.1481560   4.1996690   4.4437710
  72.5877660   4.5258750   4.7799120  81.9838280   8.5488360   1.9464570
  81.5219810   7.7775600   2.2751740  82.7963830   8.5754430   2.4517020
  71.9597940   8.4888070   4.2399220  72.2625980   7.5985810   4.0609440
  72.7041530   9.0458290   4.0121470  77.4039840   6.8185360   3.1735600
  77.3348120   5.8775300   3.0124730  78.1659700   6.9086770   3.7458170
  73.9396700   5.2461480   5.6384070  73.6066080   5.8730400   6.2805140
  74.1163380   5.7723360   4.8585740  73.1515800   7.2142280   7.4533250
  73.7689800   7.8893360   7.1717700  72.2908920   7.6230260   7.3620750
  84.0693390   8.6781690   5.3687890  83.3856910   9.3480800   5.3604560
  84.6087680   8.8762340   4.6032750  81.6052130  10.5225820   4.0833070
  81.6179290  10.1188110   3.2155330  81.0527350  11.2973110   3.9794500
  81.0037570   5.4255660   5.4115680  81.4206360   5.2115770   4.5769140
  81.7277390   5.6828450   5.9824300  84.9499670   3.8242880   5.5031920
  84.1218300   3.8935970   5.0282050  85.5450150   4.4097190   5.0347750
  74.5156170   7.0839660   3.4744670  74.2184460   6.4785130   2.7952450
  75.4655990   7.1216970   3.3634030  82.6041780  10.6571530   7.1367770
  82.1272340  11.4643720   6.9440380  81.9203570  10.0049860   7.2893980
  73.6074600   6.8221350  10.1252470  72.7103130   7.0461320  10.3725870
  73.6327470   6.9456290   9.1763870  72.4345820   3.6934670   8.7009840
  72.2953590   4.5657470   9.0697240  71.5527180   3.3507480   8.5557780
  74.2326170   9.6356370  10.9094990  74.2041600  10.0399320  10.0423420
  74.0691140   8.7066730  10.7466590  86.1840990  10.4183470  12.2059160
  86.6600710  10.8966360  12.8848240  86.8048150  10.3500960  11.4804660
  68.3864470   5.4632220   4.6180750  68.4644890   5.5980990   3.6736470
  69.0006150   4.7548110   4.8108870  85.5874240   7.6096320   9.3659170
  85.7137300   7.3708200   8.4476350  85.6295620   6.7780860   9.8381250
  79.4490980  11.3124320   7.9353980  79.9635650  11.2232330   8.7376410
  78.6060060  11.6584020   8.2281890  68.4423990   6.5046390   7.1575210
  68.6055030   6.0351750   6.3394580  68.9076440   5.9969950   7.8224050
  70.0162970   5.8797820   9.3171020  69.6317760   5.2391490   9.9153980
  70.3275160   6.5833940   9.8865750  76.1660110   2.7274360   4.7979640
  76.5330240   2.2532930   5.5440980  75.9765170   3.6015930   5.1387980
  73.9559480   1.7683000   7.1163850  73.6516550   2.6474980   7.3414210
  74.9105940   1.8282790   7.1521290  83.2429250   4.9709350   3.5057090
  83.9628370   5.4664640   3.1153200  83.0411070   4.2927240   2.8610960
  78.6248050   5.0418410   9.3926090  78.5585360   4.1214080   9.1383680
  77.9953190   5.1393850  10.1070730  70.0123210   2.6085740   8.2635210
  69.6538150   3.2739590   8.8508550  69.7177770   1.7769290   8.6347830
  73.2136330   3.0669980  11.1474760  72.9136470   3.2127160  10.2502580
  73.9847570   2.5075270  11.0548150  78.5564780   7.8638980   9.1429890
  78.5709320   6.9319940   8.9248800  77.8489880   7.9498740   9.7819660
  84.7675990   4.5046320   8.4898470  84.0424180   5.0975100   8.2927860
  85.2951450   4.4969860   7.6911840  77.9898680   9.5056550   6.2370390
  78.6340900   9.7115930   6.9143810  78.3528120   8.7444950   5.7841240
  79.2630760   7.5088900   4.9547840  79.9052990   6.8082060   5.0680010
  79.7880110   8.2887340   4.7744730  81.0368380   8.3083800   8.1583900
  81.3724620   8.8950490   8.8361820  80.1168720   8.1776510   8.3881690
  68.8744370  10.0859240   9.9273840  68.9835490   9.1453980   9.7869230
  68.2224930  10.3513990   9.2787570  76.8656960   8.3575130  11.3271960
  76.5453830   7.6384370  11.8717650  76.1915320   9.0330200  11.4008020
  84.5427000   9.8750870   2.8790740  84.6674420  10.6982040   3.3514550
  85.4092560   9.6641600   2.5314890  72.0144530  11.9682080   2.5507870
  72.7507010  11.4197540   2.8216440  72.3985450  12.8338090   2.4113860
  71.0202810  11.1528150  11.7393450  71.8215540  11.4740200  12.1528850
  70.5054630  10.7923730  12.4613360  79.8567440   7.2608020  11.6868860
  79.2505600   7.2839620  10.9464610  79.5521550   6.5291060  12.2236110
  81.2867810  10.9888310  10.2978270  82.2389560  10.9046330  10.2478510
  81.1396030  11.6530020  10.9712060  68.7400620   3.6401610  10.6829500
  69.2439640   3.0608890  11.2545730  68.0008040   3.9241840  11.2205870
  75.7938560   5.0472600  10.2165020  75.0284230   5.6157600  10.1319690
  75.9754520   4.7548810   9.3233250  82.9361910   6.7777930  10.7740040
  83.6771380   7.1153690  10.2707500  82.1734590   6.9469990  10.2209810
  81.6107570   4.8292760   9.3095250  82.0248590   4.9837840  10.1585670
  80.6758570   4.9547980   9.4721030  76.3722800   4.7813240   7.2791180
  76.7910910   5.6245970   7.1067420  75.4531430   4.9185280   7.0497960
  78.7086700   2.5129420   8.6629020  78.8282910   1.9170560   9.4023860
  79.5680700   2.5499110   8.2430320  81.0474600   3.0666610   7.2391530
  80.5209820   3.5909230   6.6356670  81.3905940   3.6994000   7.8701260
  74.2230220  11.0866250   8.3948910  73.6851310  11.8112310   8.0757610
  74.4764180  10.6096590   7.6046250  77.0792430  12.3217460   8.6535560
  77.0051130  13.2252600   8.9607930  76.1771270  12.0029360   8.6257630
  68.4819720   9.6492050   1.9569180  68.8122730   8.7813110   1.7247820
  68.9110720   9.8550570   2.7874140  68.9709930  10.5162640   4.6950810
  68.5340920  10.6963440   5.5274960  69.5387610  11.2737260   4.5532530
  84.6072110  10.0179640   8.9828120  84.0074100  10.0772200   8.2392040
  84.7366010   9.0784620   9.1124970  83.2923750   6.7431620   7.0804280
  82.4783590   7.1728780   7.3430070  83.6997950   7.3550030   6.4673330
  69.8410290   3.4135440   5.5943030  70.2083330   3.3262840   6.4739050
  69.2721110   2.6501990   5.4949890  84.6414150   1.8819820   8.6073500
  84.4100240   1.6532570   7.7071450  84.9018700   2.8019370   8.5618390
  71.2562370   7.9268130  10.7563180  71.2132000   7.5561040  11.6377640
  71.3873380   8.8645700  10.8965000  74.9568400   9.4827720   6.3572900
  74.7159760   9.7502280   5.4703420  75.8971040   9.6533450   6.4123760
  86.2172560  11.5022100   7.1583540  85.7230840  11.8990970   6.4410670
  85.6085850  10.8771310   7.5520820  71.0950400  10.8730380   7.8760960
  70.5010720  10.7415080   8.6151000  71.0874240  10.0368520   7.4103060
  83.9012010  12.1445520   4.4370280  83.4414980  12.8961330   4.0628300
  83.2724470  11.4251990   4.3785080  70.7262630   8.2388760   6.8269000
  69.9996690   7.6194050   6.7594950  70.7871780   8.6329370   5.9567080
  74.3307730  10.4533760   3.6118410  74.8472750   9.8421120   3.0866670
  74.9805110  10.9562540   4.1029420  77.0703230  11.3442250   4.4387390
  77.3581040  11.0896550   3.5620400  77.5826450  10.7919610   5.0292960
  77.1375590  12.2658350  11.8055590  78.0642900  12.0302620  11.8491550
  77.1226020  13.0930350  11.3241620  83.7053150  11.4928210  11.6296630
  84.4978470  10.9977440  11.4222590  83.9986300  12.1718350  12.2372240
  61.0569320 152.5597070 151.4804090  60.9763370 151.6451680 151.2095800
  60.6433740 153.0564140 150.7743800  59.1887360 154.3376090 153.3613360
  58.4129460 153.8576530 153.6511930  59.8400290 153.6581740 153.1869520
  51.6145140 149.6097790 148.0231510  50.7261840 149.9513760 147.9211390
  51.8986330 149.4098110 147.1312340  49.5778150 152.2103440 153.9071210
  50.1494260 151.4425640 153.9074850  49.5779690 152.5092200 152.9977820
  59.6601520 149.8203660 153.5952450  60.0366340 148.9475540 153.4826120
  59.5621030 150.1562360 152.7042890  53.7906530 148.1929290 149.0569890
  53.8973280 149.0933020 149.3638650  52.8798890 148.1447260 148.7664540
  63.4425640 147.3154100 150.5280790  64.2635260 146.8250670 150.5706270
  63.4759720 147.9051760 151.2812630  55.6314260 151.1615660 153.3895070
  56.1392480 151.6596630 154.0300090  56.1627500 150.3850860 153.2134430
  63.6787120 149.2554480 153.3008330  62.9742690 149.5439370 153.8811440
  64.0399280 150.0654590 152.9407890  66.7474040 148.7009270 153.6917540
  65.7998950 148.7348250 153.8232970  67.0724030 149.5148220 154.0766900
  57.2793580 145.0006450 151.9873530  57.5868560 144.4453340 151.2709030
  56.3494280 145.1350910 151.8046520  59.6674340 153.0655280 148.7233650
  58.7403620 152.9992660 148.9522120  59.8199160 154.0035410 148.6088890
  59.6543420 149.3372280 145.7200810  58.7147090 149.4986240 145.8053270
  59.9726680 150.0557960 145.1736800  63.6971630 154.6275580 149.2268900
  63.0784050 154.2895130 148.5795200  63.6796080 153.9835340 149.9348090
  55.2730980 153.5920020 151.5053380  54.8687980 152.8797270 151.0099280
  55.3594100 153.2473260 152.3941420  61.8736330 153.8662390 146.2341650
  62.3129610 153.0284820 146.0879470  62.5864750 154.4991790 146.3205790
  65.4553470 145.1205200 144.5482690  65.1426130 145.2132030 145.4481760
  66.2165940 145.6986230 144.4980120  51.9735610 152.4865000 149.0060030
  51.8533210 153.2127090 148.3941300  51.6636500 151.7167910 148.5287940
  54.4399270 145.8300070 152.3883700  53.9967420 146.6109610 152.0568220
  54.9984260 146.1529960 153.0954640  57.5558090 145.4510770 147.2689530
  56.9312270 145.4470640 147.9942840  57.4688210 144.5841730 146.8725500
  56.4775170 146.3747400 154.2473300  56.7747500 147.2810230 154.1665320
  57.0260730 145.8866180 153.6332870  54.2313490 150.9533640 150.1164950
  54.0054410 150.7370810 151.0211570  53.4506020 151.3862100 149.7710920
  61.4611250 150.9597010 148.7155600  60.8620140 151.6832810 148.5319220
  62.0090860 150.8973790 147.9332050  60.0676120 149.5960550 150.7458880
  60.4605690 149.9132750 149.9327570  60.4292970 148.7172430 150.8603400
  49.1040290 146.1861350 152.9689080  48.8153340 146.7564210 153.6814060
  49.8486050 145.7065800 153.3320310  49.2910520 150.1281470 144.1791800
  49.2085190 151.0712230 144.3206790  48.9393580 149.9856380 143.3004150
  57.0908650 148.8620500 153.2462150  57.0944710 148.4210450 152.3966690
  57.9859770 149.1837830 153.3533970  52.9411030 148.7446990 152.2056360
  52.6011080 149.2222220 152.9623410  52.1788350 148.2912110 151.8457460
  57.1528800 149.8632580 146.2368910  57.2741620 149.8219060 147.1854730
  56.7677310 150.7256730 146.0815640  56.1650300 152.1733720 145.6352210
  55.5967200 151.7251970 145.0088120  56.8739300 152.5326500 145.1017360
  50.2557110 147.6665970 151.1221030  49.9704030 147.3021640 151.9599650
  50.1935970 146.9346430 150.5084170  59.9295700 146.5595230 147.8434400
  59.1160310 146.0608400 147.7679710  59.7357650 147.3993480 147.4270750
  62.6444090 150.9314880 146.1396560  63.5323710 151.2432110 145.9647900
  62.6149180 150.0587130 145.7477140  64.9158360 152.2426720 145.6076420
  64.8322080 152.6740940 144.7572860  65.6352550 152.7025070 146.0403240
  49.7487770 152.8024920 145.0817730  50.6182620 153.0849720 145.3653650
  49.2578090 153.6160790 144.9666540  52.8134360 144.5335780 149.6748530
  52.6848990 144.5253680 150.6233450  51.9896380 144.8718870 149.3239540
  64.6729100 147.7406150 147.6944240  64.0442260 147.8451820 146.9802470
  64.1781020 147.9602930 148.4838120  56.6413130 150.0192100 149.1102120
  55.9329280 150.4878440 149.5515730  56.9257610 149.3614110 149.7447310
  60.6728560 146.7442760 150.5497910  60.5496340 146.7628890 149.6007420
  61.6213120 146.7921700 150.6696310  54.8448150 148.3277180 146.4852830
  55.6938680 148.7647330 146.4193020  54.4779420 148.6397440 147.3124890
  63.7657930 152.8989940 151.3984400  62.8248070 152.9140170 151.5732090
  64.0802000 152.1125900 151.8444700  53.7439570 154.5809540 144.9588360
  54.5102840 154.4690900 145.5213790  53.8214260 153.8847510 144.3065130
  52.4386330 152.0134610 145.6421250  52.5189920 151.0662120 145.7538650
  53.3306080 152.3441490 145.7481910  55.7758600 154.5774670 146.9331000
  56.1975020 154.4114540 147.7762390  55.9009440 153.7674900 146.4386140
  58.2886240 153.6012280 144.1808100  58.8091900 152.8861300 143.8149250
  58.9354640 154.2398150 144.4808610  54.6717500 150.6507900 143.8789160
  54.4706560 149.7875260 144.2402500  54.5009550 150.5641260 142.9410760
  62.1505810 145.4616130 146.4076040  62.4308100 144.6184030 146.7635460
  61.3771540 145.6939240 146.9214790  53.4700300 147.7508520 143.8667040
  53.7726200 147.7575950 142.9586190  54.2094890 147.4006380 144.3634700
  56.6885230 146.6943140 144.8523240  56.3407230 146.0167130 144.2725690
  56.8898000 146.2332650 145.6666630  50.0290870 153.2230790 151.2487610
  49.3739710 152.9542430 150.6047310  50.8668820 153.1135270 150.7989590
  62.9781310 148.0172080 145.4706100  63.3966190 147.8303060 144.6302760
  62.6717370 147.1651130 145.7809030  66.4771040 152.9296220 149.1681900
  66.1014640 152.1624150 148.7363190  65.7474160 153.3118920 149.6556830
  49.2428950 150.4329720 147.1912940  48.3393030 150.6959920 147.0164600
  49.7269570 150.7040890 146.4112900  65.7522000 151.1553710 152.4689140
  66.2759480 150.6616360 151.8379310  66.3381420 151.2904070 153.2136710
  51.7856160 149.4895260 145.1007320  52.4947860 149.0678480 144.6154600
  51.0696100 149.5570490 144.4690670  51.4330320 145.5434590 144.1409970
  52.1558450 146.0843530 144.4591190  51.7054840 145.2698010 143.2651510
  65.2421970 150.4127060 148.4081550  65.7381090 150.1797930 149.1930430
  65.0438040 149.5738900 147.9919190  66.6709130 149.0488010 150.9419230
  66.5608410 148.8944050 151.8801500  67.4316720 148.5208950 150.6994640
  67.5599400 146.8795930 144.1825370  68.4848710 146.7477110 143.9743660
  67.5375190 146.9588750 145.1361820  67.6337890 147.6506590 146.8082080
  66.8389390 147.5851710 147.3374990  67.8381170 148.5857230 146.7967430
  64.0657820 145.9803470 153.2580910  64.5065910 145.9248570 152.4102510
  63.7965410 146.8961480 153.3291090  65.9296390 145.6118710 151.2689730
  65.8684790 144.6679930 151.1220750  66.7088420 145.7198800 151.8143190
  50.8577160 145.5827850 147.7345540  51.6156520 145.6956730 147.1609570
  50.3954330 146.4197050 147.6888970  57.3990970 147.6967120 150.7247850
  56.5865480 147.3224010 150.3843730  57.9032610 146.9412200 151.0269040
  61.9015950 144.3609570 151.9630920  62.5045320 144.9329780 152.4379440
  61.1608940 144.9249010 151.7404820  65.0450550 144.7631130 147.2371200
  65.2401180 145.6614580 147.5038630  64.2580420 144.5318210 147.7304150
  53.2302310 146.1091900 146.2747510  53.7595070 145.3221700 146.1455460
  53.8630630 146.7883090 146.5083040  55.4240150 145.8467040 149.3292900
  54.7942890 145.1454350 149.4963030  54.8845290 146.6071170 149.1126060
  61.0569320 152.5597070 132.7060600  60.9763370 151.6451680 132.4352310
  60.6433740 153.0564140 132.0000310  59.1887360 154.3376090 134.5869870
  58.4129460 153.8576530 134.8768440  59.8400290 153.6581740 134.4126030
  53.2053190 154.6495900 135.4645630  52.3738070 154.3944610 135.8642140
  53.8134170 154.7206670 136.2003550  51.6145140 149.6097790 129.2488020
  50.7261840 149.9513760 129.1467900  51.8986330 149.4098110 128.3568850
  49.5778150 152.2103440 135.1327720  50.1494260 151.4425640 135.1331360
  49.5779690 152.5092200 134.2234330  50.8203020 147.6187800 136.9196650
  50.6405860 146.7213550 137.1999410  50.4183100 148.1659670 137.5943600
  59.6601520 149.8203660 134.8208960  60.0366340 148.9475540 134.7082630
  59.5621030 150.1562360 133.9299400  53.7906530 148.1929290 130.2826400
  53.8973280 149.0933020 130.5895160  52.8798890 148.1447260 129.9921050
  63.4425640 147.3154100 131.7537300  64.2635260 146.8250670 131.7962780
  63.4759720 147.9051760 132.5069140  51.4389690 150.1148300 135.5278990
  52.1199800 150.3786670 136.1466390  51.1237740 149.2749170 135.8617000
  55.6314260 151.1615660 134.6151580  56.1392480 151.6596630 135.2556600
  56.1627500 150.3850860 134.4390940  67.7325190 149.3320850 138.3180930
  67.0277360 149.7202560 137.7996040  67.9983110 150.0271140 138.9201860
  53.9150360 145.8014220 138.8815000  53.9168800 146.3186610 138.0760900
  53.0854670 145.3244400 138.8584930  63.6787120 149.2554480 134.5264840
  62.9742690 149.5439370 135.1067950  64.0399280 150.0654590 134.1664400
  53.5965690 147.5124180 136.8885450  53.9382500 148.3566230 136.5939320
  52.6581500 147.6607920 137.0050790  66.7474040 148.7009270 134.9174050
  65.7998950 148.7348250 135.0489480  67.0724030 149.5148220 135.3023410
  57.2793580 145.0006450 133.2130040  57.5868560 144.4453340 132.4965540
  56.3494280 145.1350910 133.0303030  59.6674340 153.0655280 129.9490160
  58.7403620 152.9992660 130.1778630  59.8199160 154.0035410 129.8345400
  59.6543420 149.3372280 126.9457320  58.7147090 149.4986240 127.0309780
  59.9726680 150.0557960 126.3993310  66.1756180 154.0190800 136.9236350
  65.3474810 154.0883890 136.4486480  66.7706660 154.6045110 136.4552180
  63.6971630 154.6275580 130.4525410  63.0784050 154.2895130 129.8051710
  63.6796080 153.9835340 131.1604600  63.1398190 150.8060120 137.8691220
  62.7269370 151.6313830 138.1231210  62.4074140 150.2205160 137.6767580
  55.2730980 153.5920020 132.7309890  54.8687980 152.8797270 132.2355790
  55.3594100 153.2473260 133.6197930  53.9859600 150.3663230 136.5108930
  54.5374190 150.4758570 135.7362180  54.5003110 150.7400830 137.2264160
  61.8736330 153.8662390 127.4598160  62.3129610 153.0284820 127.3135980
  62.5864750 154.4991790 127.5462300  53.6602330 153.8882590 140.1214270
  53.5210100 154.7605390 140.4901670  52.7783690 153.5455400 139.9762210
  65.4553470 145.1205200 125.7739200  65.1426130 145.2132030 126.6738270
  66.2165940 145.6986230 125.7236630  51.9735610 152.4865000 130.2316540
  51.8533210 153.2127090 129.6197810  51.6636500 151.7167910 129.7544450
  66.6654760 149.8576700 141.7513340  66.0499030 150.3656370 141.2228800
  66.3451180 148.9575030 141.6939280  54.4399270 145.8300070 133.6140210
  53.9967420 146.6109610 133.2824730  54.9984260 146.1529960 134.3211150
  58.7269080 148.6968590 139.2175530  58.2648450 148.9051610 140.0295470
  58.3247190 147.8827940 138.9146200  63.7273590 149.9177540 140.3472190
  62.8767180 149.6183290 140.6681260  63.5675380 150.1619550 139.4356010
  60.8223300 151.4179290 142.4470980  61.1476710 150.5843040 142.1073210
  61.6103630 151.9407810 142.5949310  57.5558090 145.4510770 128.4946040
  56.9312270 145.4470640 129.2199350  57.4688210 144.5841730 128.0982010
  56.4775170 146.3747400 135.4729810  56.7747500 147.2810230 135.3921830
  57.0260730 145.8866180 134.8589380  54.2313490 150.9533640 131.3421460
  54.0054410 150.7370810 132.2468080  53.4506020 151.3862100 130.9967430
  61.4611250 150.9597010 129.9412110  60.8620140 151.6832810 129.7575730
  62.0090860 150.8973790 129.1588560  56.6712700 151.8519220 142.0081730
  56.5756300 150.9113950 141.8582130  57.5144680 152.0734290 141.6129800
  60.0676120 149.5960550 131.9715390  60.4605690 149.9132750 131.1584080
  60.4292970 148.7172430 132.0859910  51.8023240 148.2632890 140.1615510
  51.4086630 149.1108100 140.3688290  51.1141640 147.6259260 140.3524150
  58.3768290 148.3467860 143.2312250  57.6866610 148.1540060 143.8658340
  59.1200590 148.6302500 143.7636550  49.1040290 146.1861350 134.1945590
  48.8153340 146.7564210 134.9070570  49.8486050 145.7065800 134.5576820
  49.2910520 150.1281470 125.4048310  49.2085190 151.0712230 125.5463300
  48.9393580 149.9856380 124.5260660  60.6531260 152.1866300 136.0666170
  59.9212380 152.6953110 136.4156270  60.2555600 151.3696280 135.7654950
  57.0908650 148.8620500 134.4718660  57.0944710 148.4210450 133.6223200
  57.9859770 149.1837830 134.5790480  52.9411030 148.7446990 133.4312870
  52.6011080 149.2222220 134.1879920  52.1788350 148.2912110 133.0713970
  57.1528800 149.8632580 127.4625420  57.2741620 149.8219060 128.4111240
  56.7677310 150.7256730 127.3072150  61.1157170 147.6399980 135.4789110
  61.1329910 148.0908630 136.3230960  60.8672750 146.7405620 135.6922550
  56.1650300 152.1733720 126.8608720  55.5967200 151.7251970 126.2344630
  56.8739300 152.5326500 126.3273870  64.5427920 145.0532160 141.3175490
  64.8673690 144.3221820 141.8433470  64.5784430 144.7345800 140.4156480
  57.3916620 152.9222280 136.2184070  57.7586750 152.4480850 136.9645410
  57.2021680 153.7963850 136.5592410  50.2557110 147.6665970 132.3477540
  49.9704030 147.3021640 133.1856160  50.1935970 146.9346430 131.7340680
  55.1815990 151.9630920 138.5368280  54.8773060 152.8422900 138.7618640
  56.1362450 152.0230710 138.5725720  59.9295700 146.5595230 129.0690910
  59.1160310 146.0608400 128.9936220  59.7357650 147.3993480 128.6527260
  62.6444090 150.9314880 127.3653070  63.5323710 151.2432110 127.1904410
  62.6149180 150.0587130 126.9733650  51.2379720 152.8033660 139.6839640
  50.8794660 153.4687510 140.2712980  50.9434280 151.9717210 140.0552260
  54.4392840 153.2617900 142.5679190  54.1392980 153.4075080 141.6707010
  55.2104080 152.7023190 142.4752580  64.9158360 152.2426720 126.8332930
  64.8322080 152.6740940 125.9829370  65.6352550 152.7025070 127.2659750
  49.7487770 152.8024920 126.3074240  50.6182620 153.0849720 126.5910160
  49.2578090 153.6160790 126.1923050  52.8134360 144.5335780 130.9005040
  52.6848990 144.5253680 131.8489960  51.9896380 144.8718870 130.5496050
  49.8128290 146.2926900 140.3611740  49.0986810 146.4923820 140.9664350
  50.2323330 145.5166470 140.7326540  61.3067070 148.7849210 138.1113190
  61.6747890 147.9644420 138.4392760  60.4465270 148.8451100 138.5268840
  64.6729100 147.7406150 128.9200750  64.0442260 147.8451820 128.2058980
  64.1781020 147.9602930 129.7094630  56.6413130 150.0192100 130.3358630
  55.9329280 150.4878440 130.7772240  56.9257610 149.3614110 130.9703820
  58.2669060 151.4388800 138.3351160  58.7654310 151.9134620 139.0003010
  58.4092010 150.5152320 138.5421190  60.6728560 146.7442760 131.7754420
  60.5496340 146.7628890 130.8263930  61.6213120 146.7921700 131.8952820
  54.8448150 148.3277180 127.7109340  55.6938680 148.7647330 127.6449530
  54.4779420 148.6397440 128.5381400  65.4735920 147.6556760 139.1779550
  64.9709520 148.3962160 139.5173360  66.2892580 148.0440760 138.8616340
  63.7657930 152.8989940 132.6240910  62.8248070 152.9140170 132.7988600
  64.0802000 152.1125900 133.0701210  53.7439570 154.5809540 126.1844870
  54.5102840 154.4690900 126.7470300  53.8214260 153.8847510 125.5321640
  52.4386330 152.0134610 126.8677760  52.5189920 151.0662120 126.9795160
  53.3306080 152.3441490 126.9738420  49.9657130 153.8349530 142.1033930
  50.4696150 153.2556810 142.6750160  49.2264550 154.1189760 142.6410300
  51.9980210 151.9779120 142.9984000  52.0385550 151.6792990 143.9069230
  52.8525710 152.3786730 142.8391520  55.7758600 154.5774670 128.1587510
  56.1975020 154.4114540 129.0018900  55.9009440 153.7674900 127.6642650
  53.9386020 150.5571220 140.9658490  53.4082480 150.0662170 140.3381830
  54.6074090 150.9855420 140.4316420  58.2886240 153.6012280 125.4064610
  58.8091900 152.8861300 125.0405760  58.9354640 154.2398150 125.7065120
  63.3086250 152.3636840 142.7338830  63.8907020 151.6089160 142.6459310
  63.4848020 152.8944280 141.9570310  54.4258320 147.5233590 141.0455780
  54.3315190 146.9054340 140.3206650  53.8455710 148.2499880 140.8185690
  57.1919760 146.0806830 138.0783170  56.7437060 146.1031090 137.2328720
  56.5584960 145.6825850 138.6753470  59.9343210 152.7077340 140.0833450
  60.0539420 152.1118480 140.8228290  60.7937210 152.7447030 139.6634750
  62.2731110 153.2614530 138.6595960  61.7466330 153.7857150 138.0561100
  62.6162450 153.8941920 139.2905690  54.6717500 150.6507900 125.1045670
  54.4706560 149.7875260 125.4659010  54.5009550 150.5641260 124.1667270
  56.7011980 149.2498690 141.3409270  57.2911670 148.9414540 142.0287090
  55.8832220 148.7778440 141.4969170  61.5205410 148.8664500 141.5742290
  60.8320930 148.2046040 141.5092280  62.2411430 148.4202770 142.0190750
  62.1505810 145.4616130 127.6332550  62.4308100 144.6184030 127.9891970
  61.3771540 145.6939240 128.1471300  53.4700300 147.7508520 125.0923550
  53.7726200 147.7575950 124.1842700  54.2094890 147.4006380 125.5891210
  56.6885230 146.6943140 126.0779750  56.3407230 146.0167130 125.4982200
  56.8898000 146.2332650 126.8923140  50.0290870 153.2230790 132.4744120
  49.3739710 152.9542430 131.8303820  50.8668820 153.1135270 132.0246100
  62.9781310 148.0172080 126.6962610  63.3966190 147.8303060 125.8559270
  62.6717370 147.1651130 127.0065540  66.4771040 152.9296220 130.3938410
  66.1014640 152.1624150 129.9619700  65.7474160 153.3118920 130.8813340
  51.0666800 153.6083360 137.0147460  51.4339840 153.5210760 137.8943480
  50.4977620 152.8449910 136.9154320  65.8670660 152.0767740 140.0277930
  65.6356750 151.8480490 139.1275880  66.1275210 152.9967290 139.9822820
  50.6182800 150.5192450 140.9205880  49.7238850 150.4859210 141.2599590
  51.1580350 150.7179240 141.6857130  64.3058730 147.3024170 142.8057630
  65.1828910 147.3107570 143.1891630  64.3179570 146.5655010 142.1949980
  49.2428950 150.4329720 128.4169450  48.3393030 150.6959920 128.2421110
  49.7269570 150.7040890 127.6369410  65.7522000 151.1553710 133.6945650
  66.2759480 150.6616360 133.0635820  66.3381420 151.2904070 134.4393220
  65.9311720 151.2393580 137.2165200  64.9814430 151.2057120 137.3310190
  66.1124730 152.1493690 136.9814970  51.7856160 149.4895260 126.3263830
  52.4947860 149.0678480 125.8411110  51.0696100 149.5570490 125.6947180
  51.4330320 145.5434590 125.3666480  52.1558450 146.0843530 125.6847700
  51.7054840 145.2698010 124.4908020  65.2421970 150.4127060 129.6338060
  65.7381090 150.1797930 130.4186940  65.0438040 149.5738900 129.2175700
  51.1222510 144.7940780 135.2689100  51.7698700 144.2438160 134.8284260
  51.5424350 145.0483930 136.0904910  66.6709130 149.0488010 132.1675740
  66.5608410 148.8944050 133.1058010  67.4316720 148.5208950 131.9251150
  65.0174850 144.9882140 138.6258740  65.6547070 145.6016280 138.9917930
  65.1649740 145.0242800 137.6807970  67.5599400 146.8795930 125.4081880
  68.4848710 146.7477110 125.2000170  67.5375190 146.9588750 126.3618330
  67.6337890 147.6506590 128.0338590  66.8389390 147.5851710 128.5631500
  67.8381170 148.5857230 128.0223940  50.8754510 144.9496450 138.0114420
  50.5269330 145.4060270 138.7772600  50.5442210 144.0553580 138.0936850
  58.3879330 146.1408330 141.5333840  58.3268220 146.7330160 142.2829250
  59.3279710 146.0334290 141.3884100  61.0253890 145.7978390 141.1726130
  61.6394300 146.1157680 140.5107210  61.5703450 145.3126980 141.7921990
  51.5475150 144.4772650 141.2865190  52.0958140 144.2960700 140.5231300
  51.6130460 143.6866760 141.8221500  61.7661930 144.3610530 137.4995420
  60.8921770 144.6945640 137.2968350  61.6572680 143.8883710 138.3247290
  62.6733910 146.5681400 138.8837140  62.3447270 145.7533160 138.5038870
  63.6216210 146.5251210 138.7602830  59.5136750 145.2780370 136.4388330
  58.7308540 145.7525870 136.7185090  59.2199680 144.3735200 136.3301510
  64.0657820 145.9803470 134.4837420  64.5065910 145.9248570 133.6359020
  63.7965410 146.8961480 134.5547600  65.9296390 145.6118710 132.4946240
  65.8684790 144.6679930 132.3477260  66.7088420 145.7198800 133.0399700
  50.8577160 145.5827850 128.9602050  51.6156520 145.6956730 128.3866080
  50.3954330 146.4197050 128.9145480  57.3990970 147.6967120 131.9504360
  56.5865480 147.3224010 131.6100240  57.9032610 146.9412200 132.2525550
  61.9015950 144.3609570 133.1887430  62.5045320 144.9329780 133.6635950
  61.1608940 144.9249010 132.9661330  65.0450550 144.7631130 128.4627710
  65.2401180 145.6614580 128.7295140  64.2580420 144.5318210 128.9560660
  53.2302310 146.1091900 127.5004020  53.7595070 145.3221700 127.3711970
  53.8630630 146.7883090 127.7339550  55.4240150 145.8467040 130.5549410
  54.7942890 145.1454350 130.7219540  54.8845290 146.6071170 130.3382570
  55.5495710 145.1251020 142.9901900  55.2679980 145.6284620 142.2262720
  55.9315410 144.3272770 142.6244030  62.1511170 144.5404600 143.5682370
  62.0376620 144.8599210 144.4633890  62.9680910 144.9417110 143.2719650
  61.0569320 152.5597070 113.9317110  60.9763370 151.6451680 113.6608820
  60.6433740 153.0564140 113.2256820  59.1887360 154.3376090 115.8126380
  58.4129460 153.8576530 116.1024950  59.8400290 153.6581740 115.6382540
  53.2053190 154.6495900 116.6902140  52.3738070 154.3944610 117.0898650
  53.8134170 154.7206670 117.4260060  51.6145140 149.6097790 110.4744530
  50.7261840 149.9513760 110.3724410  51.8986330 149.4098110 109.5825360
  49.5778150 152.2103440 116.3584230  50.1494260 151.4425640 116.3587870
  49.5779690 152.5092200 115.4490840  50.8203020 147.6187800 118.1453160
  50.6405860 146.7213550 118.4255920  50.4183100 148.1659670 118.8200110
  59.6601520 149.8203660 116.0465470  60.0366340 148.9475540 115.9339140
  59.5621030 150.1562360 115.1555910  53.7906530 148.1929290 111.5082910
  53.8973280 149.0933020 111.8151670  52.8798890 148.1447260 111.2177560
  63.4425640 147.3154100 112.9793810  64.2635260 146.8250670 113.0219290
  63.4759720 147.9051760 113.7325650  51.4389690 150.1148300 116.7535500
  52.1199800 150.3786670 117.3722900  51.1237740 149.2749170 117.0873510
  55.6314260 151.1615660 115.8408090  56.1392480 151.6596630 116.4813110
  56.1627500 150.3850860 115.6647450  67.7325190 149.3320850 119.5437440
  67.0277360 149.7202560 119.0252550  67.9983110 150.0271140 120.1458370
  53.9150360 145.8014220 120.1071510  53.9168800 146.3186610 119.3017410
  53.0854670 145.3244400 120.0841440  63.6787120 149.2554480 115.7521350
  62.9742690 149.5439370 116.3324460  64.0399280 150.0654590 115.3920910
  53.5965690 147.5124180 118.1141960  53.9382500 148.3566230 117.8195830
  52.6581500 147.6607920 118.2307300  66.7474040 148.7009270 116.1430560
  65.7998950 148.7348250 116.2745990  67.0724030 149.5148220 116.5279920
  57.2793580 145.0006450 114.4386550  57.5868560 144.4453340 113.7222050
  56.3494280 145.1350910 114.2559540  59.6674340 153.0655280 111.1746670
  58.7403620 152.9992660 111.4035140  59.8199160 154.0035410 111.0601910
  59.6543420 149.3372280 108.1713830  58.7147090 149.4986240 108.2566290
  59.9726680 150.0557960 107.6249820  66.1756180 154.0190800 118.1492860
  65.3474810 154.0883890 117.6742990  66.7706660 154.6045110 117.6808690
  63.6971630 154.6275580 111.6781920  63.0784050 154.2895130 111.0308220
  63.6796080 153.9835340 112.3861110  63.1398190 150.8060120 119.0947730
  62.7269370 151.6313830 119.3487720  62.4074140 150.2205160 118.9024090
  55.2730980 153.5920020 113.9566400  54.8687980 152.8797270 113.4612300
  55.3594100 153.2473260 114.8454440  53.9859600 150.3663230 117.7365440
  54.5374190 150.4758570 116.9618690  54.5003110 150.7400830 118.4520670
  61.8736330 153.8662390 108.6854670  62.3129610 153.0284820 108.5392490
  62.5864750 154.4991790 108.7718810  53.6602330 153.8882590 121.3470780
  53.5210100 154.7605390 121.7158180  52.7783690 153.5455400 121.2018720
  65.4553470 145.1205200 106.9995710  65.1426130 145.2132030 107.8994780
  66.2165940 145.6986230 106.9493140  51.9735610 152.4865000 111.4573050
  51.8533210 153.2127090 110.8454320  51.6636500 151.7167910 110.9800960
  66.6654760 149.8576700 122.9769850  66.0499030 150.3656370 122.4485310
  66.3451180 148.9575030 122.9195790  54.4399270 145.8300070 114.8396720
  53.9967420 146.6109610 114.5081240  54.9984260 146.1529960 115.5467660
  58.7269080 148.6968590 120.4432040  58.2648450 148.9051610 121.2551980
  58.3247190 147.8827940 120.1402710  63.7273590 149.9177540 121.5728700
  62.8767180 149.6183290 121.8937770  63.5675380 150.1619550 120.6612520
  60.8223300 151.4179290 123.6727490  61.1476710 150.5843040 123.3329720
  61.6103630 151.9407810 123.8205820  57.5558090 145.4510770 109.7202550
  56.9312270 145.4470640 110.4455860  57.4688210 144.5841730 109.3238520
  56.4775170 146.3747400 116.6986320  56.7747500 147.2810230 116.6178340
  57.0260730 145.8866180 116.0845890  54.2313490 150.9533640 112.5677970
  54.0054410 150.7370810 113.4724590  53.4506020 151.3862100 112.2223940
  61.4611250 150.9597010 111.1668620  60.8620140 151.6832810 110.9832240
  62.0090860 150.8973790 110.3845070  56.6712700 151.8519220 123.2338240
  56.5756300 150.9113950 123.0838640  57.5144680 152.0734290 122.8386310
  60.0676120 149.5960550 113.1971900  60.4605690 149.9132750 112.3840590
  60.4292970 148.7172430 113.3116420  51.8023240 148.2632890 121.3872020
  51.4086630 149.1108100 121.5944800  51.1141640 147.6259260 121.5780660
  58.3768290 148.3467860 124.4568760  57.6866610 148.1540060 125.0914850
  59.1200590 148.6302500 124.9893060  49.1040290 146.1861350 115.4202100
  48.8153340 146.7564210 116.1327080  49.8486050 145.7065800 115.7833330
  49.2910520 150.1281470 106.6304820  49.2085190 151.0712230 106.7719810
  48.9393580 149.9856380 105.7517170  60.6531260 152.1866300 117.2922680
  59.9212380 152.6953110 117.6412780  60.2555600 151.3696280 116.9911460
  57.0908650 148.8620500 115.6975170  57.0944710 148.4210450 114.8479710
  57.9859770 149.1837830 115.8046990  52.9411030 148.7446990 114.6569380
  52.6011080 149.2222220 115.4136430  52.1788350 148.2912110 114.2970480
  57.1528800 149.8632580 108.6881930  57.2741620 149.8219060 109.6367750
  56.7677310 150.7256730 108.5328660  61.1157170 147.6399980 116.7045620
  61.1329910 148.0908630 117.5487470  60.8672750 146.7405620 116.9179060
  56.1650300 152.1733720 108.0865230  55.5967200 151.7251970 107.4601140
  56.8739300 152.5326500 107.5530380  64.5427920 145.0532160 122.5432000
  64.8673690 144.3221820 123.0689980  64.5784430 144.7345800 121.6412990
  57.3916620 152.9222280 117.4440580  57.7586750 152.4480850 118.1901920
  57.2021680 153.7963850 117.7848920  50.2557110 147.6665970 113.5734050
  49.9704030 147.3021640 114.4112670  50.1935970 146.9346430 112.9597190
  55.1815990 151.9630920 119.7624790  54.8773060 152.8422900 119.9875150
  56.1362450 152.0230710 119.7982230  59.9295700 146.5595230 110.2947420
  59.1160310 146.0608400 110.2192730  59.7357650 147.3993480 109.8783770
  62.6444090 150.9314880 108.5909580  63.5323710 151.2432110 108.4160920
  62.6149180 150.0587130 108.1990160  51.2379720 152.8033660 120.9096150
  50.8794660 153.4687510 121.4969490  50.9434280 151.9717210 121.2808770
  54.4392840 153.2617900 123.7935700  54.1392980 153.4075080 122.8963520
  55.2104080 152.7023190 123.7009090  64.9158360 152.2426720 108.0589440
  64.8322080 152.6740940 107.2085880  65.6352550 152.7025070 108.4916260
  49.7487770 152.8024920 107.5330750  50.6182620 153.0849720 107.8166670
  49.2578090 153.6160790 107.4179560  52.8134360 144.5335780 112.1261550
  52.6848990 144.5253680 113.0746470  51.9896380 144.8718870 111.7752560
  49.8128290 146.2926900 121.5868250  49.0986810 146.4923820 122.1920860
  50.2323330 145.5166470 121.9583050  61.3067070 148.7849210 119.3369700
  61.6747890 147.9644420 119.6649270  60.4465270 148.8451100 119.7525350
  64.6729100 147.7406150 110.1457260  64.0442260 147.8451820 109.4315490
  64.1781020 147.9602930 110.9351140  56.6413130 150.0192100 111.5615140
  55.9329280 150.4878440 112.0028750  56.9257610 149.3614110 112.1960330
  58.2669060 151.4388800 119.5607670  58.7654310 151.9134620 120.2259520
  58.4092010 150.5152320 119.7677700  60.6728560 146.7442760 113.0010930
  60.5496340 146.7628890 112.0520440  61.6213120 146.7921700 113.1209330
  54.8448150 148.3277180 108.9365850  55.6938680 148.7647330 108.8706040
  54.4779420 148.6397440 109.7637910  65.4735920 147.6556760 120.4036060
  64.9709520 148.3962160 120.7429870  66.2892580 148.0440760 120.0872850
  63.7657930 152.8989940 113.8497420  62.8248070 152.9140170 114.0245110
  64.0802000 152.1125900 114.2957720  53.7439570 154.5809540 107.4101380
  54.5102840 154.4690900 107.9726810  53.8214260 153.8847510 106.7578150
  52.4386330 152.0134610 108.0934270  52.5189920 151.0662120 108.2051670
  53.3306080 152.3441490 108.1994930  49.9657130 153.8349530 123.3290440
  50.4696150 153.2556810 123.9006670  49.2264550 154.1189760 123.8666810
  51.9980210 151.9779120 124.2240510  52.0385550 151.6792990 125.1325740
  52.8525710 152.3786730 124.0648030  55.7758600 154.5774670 109.3844020
  56.1975020 154.4114540 110.2275410  55.9009440 153.7674900 108.8899160
  53.9386020 150.5571220 122.1915000  53.4082480 150.0662170 121.5638340
  54.6074090 150.9855420 121.6572930  58.2886240 153.6012280 106.6321120
  58.8091900 152.8861300 106.2662270  58.9354640 154.2398150 106.9321630
  63.3086250 152.3636840 123.9595340  63.8907020 151.6089160 123.8715820
  63.4848020 152.8944280 123.1826820  54.4258320 147.5233590 122.2712290
  54.3315190 146.9054340 121.5463160  53.8455710 148.2499880 122.0442200
  57.1919760 146.0806830 119.3039680  56.7437060 146.1031090 118.4585230
  56.5584960 145.6825850 119.9009980  59.9343210 152.7077340 121.3089960
  60.0539420 152.1118480 122.0484800  60.7937210 152.7447030 120.8891260
  62.2731110 153.2614530 119.8852470  61.7466330 153.7857150 119.2817610
  62.6162450 153.8941920 120.5162200  54.6717500 150.6507900 106.3302180
  54.4706560 149.7875260 106.6915520  54.5009550 150.5641260 105.3923780
  56.7011980 149.2498690 122.5665780  57.2911670 148.9414540 123.2543600
  55.8832220 148.7778440 122.7225680  61.5205410 148.8664500 122.7998800
  60.8320930 148.2046040 122.7348790  62.2411430 148.4202770 123.2447260
  62.1505810 145.4616130 108.8589060  62.4308100 144.6184030 109.2148480
  61.3771540 145.6939240 109.3727810  53.4700300 147.7508520 106.3180060
  53.7726200 147.7575950 105.4099210  54.2094890 147.4006380 106.8147720
  56.6885230 146.6943140 107.3036260  56.3407230 146.0167130 106.7238710
  56.8898000 146.2332650 108.1179650  50.0290870 153.2230790 113.7000630
  49.3739710 152.9542430 113.0560330  50.8668820 153.1135270 113.2502610
  62.9781310 148.0172080 107.9219120  63.3966190 147.8303060 107.0815780
  62.6717370 147.1651130 108.2322050  66.4771040 152.9296220 111.6194920
  66.1014640 152.1624150 111.1876210  65.7474160 153.3118920 112.1069850
  51.0666800 153.6083360 118.2403970  51.4339840 153.5210760 119.1199990
  50.4977620 152.8449910 118.1410830  65.8670660 152.0767740 121.2534440
  65.6356750 151.8480490 120.3532390  66.1275210 152.9967290 121.2079330
  50.6182800 150.5192450 122.1462390  49.7238850 150.4859210 122.4856100
  51.1580350 150.7179240 122.9113640  64.3058730 147.3024170 124.0314140
  65.1828910 147.3107570 124.4148140  64.3179570 146.5655010 123.4206490
  49.2428950 150.4329720 109.6425960  48.3393030 150.6959920 109.4677620
  49.7269570 150.7040890 108.8625920  65.7522000 151.1553710 114.9202160
  66.2759480 150.6616360 114.2892330  66.3381420 151.2904070 115.6649730
  65.9311720 151.2393580 118.4421710  64.9814430 151.2057120 118.5566700
  66.1124730 152.1493690 118.2071480  51.7856160 149.4895260 107.5520340
  52.4947860 149.0678480 107.0667620  51.0696100 149.5570490 106.9203690
  51.4330320 145.5434590 106.5922990  52.1558450 146.0843530 106.9104210
  51.7054840 145.2698010 105.7164530  65.2421970 150.4127060 110.8594570
  65.7381090 150.1797930 111.6443450  65.0438040 149.5738900 110.4432210
  51.1222510 144.7940780 116.4945610  51.7698700 144.2438160 116.0540770
  51.5424350 145.0483930 117.3161420  66.6709130 149.0488010 113.3932250
  66.5608410 148.8944050 114.3314520  67.4316720 148.5208950 113.1507660
  65.0174850 144.9882140 119.8515250  65.6547070 145.6016280 120.2174440
  65.1649740 145.0242800 118.9064480  67.5599400 146.8795930 106.6338390
  68.4848710 146.7477110 106.4256680  67.5375190 146.9588750 107.5874840
  67.6337890 147.6506590 109.2595100  66.8389390 147.5851710 109.7888010
  67.8381170 148.5857230 109.2480450  50.8754510 144.9496450 119.2370930
  50.5269330 145.4060270 120.0029110  50.5442210 144.0553580 119.3193360
  58.3879330 146.1408330 122.7590350  58.3268220 146.7330160 123.5085760
  59.3279710 146.0334290 122.6140610  61.0253890 145.7978390 122.3982640
  61.6394300 146.1157680 121.7363720  61.5703450 145.3126980 123.0178500
  51.5475150 144.4772650 122.5121700  52.0958140 144.2960700 121.7487810
  51.6130460 143.6866760 123.0478010  61.7661930 144.3610530 118.7251930
  60.8921770 144.6945640 118.5224860  61.6572680 143.8883710 119.5503800
  62.6733910 146.5681400 120.1093650  62.3447270 145.7533160 119.7295380
  63.6216210 146.5251210 119.9859340  59.5136750 145.2780370 117.6644840
  58.7308540 145.7525870 117.9441600  59.2199680 144.3735200 117.5558020
  64.0657820 145.9803470 115.7093930  64.5065910 145.9248570 114.8615530
  63.7965410 146.8961480 115.7804110  65.9296390 145.6118710 113.7202750
  65.8684790 144.6679930 113.5733770  66.7088420 145.7198800 114.2656210
  50.8577160 145.5827850 110.1858560  51.6156520 145.6956730 109.6122590
  50.3954330 146.4197050 110.1401990  57.3990970 147.6967120 113.1760870
  56.5865480 147.3224010 112.8356750  57.9032610 146.9412200 113.4782060
  61.9015950 144.3609570 114.4143940  62.5045320 144.9329780 114.8892460
  61.1608940 144.9249010 114.1917840  65.0450550 144.7631130 109.6884220
  65.2401180 145.6614580 109.9551650  64.2580420 144.5318210 110.1817170
  53.2302310 146.1091900 108.7260530  53.7595070 145.3221700 108.5968480
  53.8630630 146.7883090 108.9596060  55.4240150 145.8467040 111.7805920
  54.7942890 145.1454350 111.9476050  54.8845290 146.6071170 111.5639080
  55.5495710 145.1251020 124.2158410  55.2679980 145.6284620 123.4519230
  55.9315410 144.3272770 123.8500540  62.1511170 144.5404600 124.7938880
  62.0376620 144.8599210 125.6890400  62.9680910 144.9417110 124.4976160
  61.0569320 152.5597070  95.1573620  60.9763370 151.6451680  94.8865330
  60.6433740 153.0564140  94.4513330  59.1887360 154.3376090  97.0382890
  58.4129460 153.8576530  97.3281460  59.8400290 153.6581740  96.8639050
  53.2053190 154.6495900  97.9158650  52.3738070 154.3944610  98.3155160
  53.8134170 154.7206670  98.6516570  51.6145140 149.6097790  91.7001040
  50.7261840 149.9513760  91.5980920  51.8986330 149.4098110  90.8081870
  49.5778150 152.2103440  97.5840740  50.1494260 151.4425640  97.5844380
  49.5779690 152.5092200  96.6747350  50.8203020 147.6187800  99.3709670
  50.6405860 146.7213550  99.6512430  50.4183100 148.1659670 100.0456620
  59.6601520 149.8203660  97.2721980  60.0366340 148.9475540  97.1595650
  59.5621030 150.1562360  96.3812420  53.7906530 148.1929290  92.7339420
  53.8973280 149.0933020  93.0408180  52.8798890 148.1447260  92.4434070
  63.4425640 147.3154100  94.2050320  64.2635260 146.8250670  94.2475800
  63.4759720 147.9051760  94.9582160  51.4389690 150.1148300  97.9792010
  52.1199800 150.3786670  98.5979410  51.1237740 149.2749170  98.3130020
  55.6314260 151.1615660  97.0664600  56.1392480 151.6596630  97.7069620
  56.1627500 150.3850860  96.8903960  67.7325190 149.3320850 100.7693950
  67.0277360 149.7202560 100.2509060  67.9983110 150.0271140 101.3714880
  53.9150360 145.8014220 101.3328020  53.9168800 146.3186610 100.5273920
  53.0854670 145.3244400 101.3097950  63.6787120 149.2554480  96.9777860
  62.9742690 149.5439370  97.5580970  64.0399280 150.0654590  96.6177420
  53.5965690 147.5124180  99.3398470  53.9382500 148.3566230  99.0452340
  52.6581500 147.6607920  99.4563810  66.7474040 148.7009270  97.3687070
  65.7998950 148.7348250  97.5002500  67.0724030 149.5148220  97.7536430
  57.2793580 145.0006450  95.6643060  57.5868560 144.4453340  94.9478560
  56.3494280 145.1350910  95.4816050  59.6674340 153.0655280  92.4003180
  58.7403620 152.9992660  92.6291650  59.8199160 154.0035410  92.2858420
  59.6543420 149.3372280  89.3970340  58.7147090 149.4986240  89.4822800
  59.9726680 150.0557960  88.8506330  66.1756180 154.0190800  99.3749370
  65.3474810 154.0883890  98.8999500  66.7706660 154.6045110  98.9065200
  63.6971630 154.6275580  92.9038430  63.0784050 154.2895130  92.2564730
  63.6796080 153.9835340  93.6117620  63.1398190 150.8060120 100.3204240
  62.7269370 151.6313830 100.5744230  62.4074140 150.2205160 100.1280600
  55.2730980 153.5920020  95.1822910  54.8687980 152.8797270  94.6868810
  55.3594100 153.2473260  96.0710950  53.9859600 150.3663230  98.9621950
  54.5374190 150.4758570  98.1875200  54.5003110 150.7400830  99.6777180
  61.8736330 153.8662390  89.9111180  62.3129610 153.0284820  89.7649000
  62.5864750 154.4991790  89.9975320  53.6602330 153.8882590 102.5727290
  53.5210100 154.7605390 102.9414690  52.7783690 153.5455400 102.4275230
  65.4553470 145.1205200  88.2252220  65.1426130 145.2132030  89.1251290
  66.2165940 145.6986230  88.1749650  51.9735610 152.4865000  92.6829560
  51.8533210 153.2127090  92.0710830  51.6636500 151.7167910  92.2057470
  66.6654760 149.8576700 104.2026360  66.0499030 150.3656370 103.6741820
  66.3451180 148.9575030 104.1452300  54.4399270 145.8300070  96.0653230
  53.9967420 146.6109610  95.7337750  54.9984260 146.1529960  96.7724170
  58.7269080 148.6968590 101.6688550  58.2648450 148.9051610 102.4808490
  58.3247190 147.8827940 101.3659220  63.7273590 149.9177540 102.7985210
  62.8767180 149.6183290 103.1194280  63.5675380 150.1619550 101.8869030
  60.8223300 151.4179290 104.8984000  61.1476710 150.5843040 104.5586230
  61.6103630 151.9407810 105.0462330  57.5558090 145.4510770  90.9459060
  56.9312270 145.4470640  91.6712370  57.4688210 144.5841730  90.5495030
  56.4775170 146.3747400  97.9242830  56.7747500 147.2810230  97.8434850
  57.0260730 145.8866180  97.3102400  54.2313490 150.9533640  93.7934480
  54.0054410 150.7370810  94.6981100  53.4506020 151.3862100  93.4480450
  61.4611250 150.9597010  92.3925130  60.8620140 151.6832810  92.2088750
  62.0090860 150.8973790  91.6101580  56.6712700 151.8519220 104.4594750
  56.5756300 150.9113950 104.3095150  57.5144680 152.0734290 104.0642820
  60.0676120 149.5960550  94.4228410  60.4605690 149.9132750  93.6097100
  60.4292970 148.7172430  94.5372930  51.8023240 148.2632890 102.6128530
  51.4086630 149.1108100 102.8201310  51.1141640 147.6259260 102.8037170
  58.3768290 148.3467860 105.6825270  57.6866610 148.1540060 106.3171360
  59.1200590 148.6302500 106.2149570  49.1040290 146.1861350  96.6458610
  48.8153340 146.7564210  97.3583590  49.8486050 145.7065800  97.0089840
  49.2910520 150.1281470  87.8561330  49.2085190 151.0712230  87.9976320
  48.9393580 149.9856380  86.9773680  60.6531260 152.1866300  98.5179190
  59.9212380 152.6953110  98.8669290  60.2555600 151.3696280  98.2167970
  57.0908650 148.8620500  96.9231680  57.0944710 148.4210450  96.0736220
  57.9859770 149.1837830  97.0303500  52.9411030 148.7446990  95.8825890
  52.6011080 149.2222220  96.6392940  52.1788350 148.2912110  95.5226990
  57.1528800 149.8632580  89.9138440  57.2741620 149.8219060  90.8624260
  56.7677310 150.7256730  89.7585170  61.1157170 147.6399980  97.9302130
  61.1329910 148.0908630  98.7743980  60.8672750 146.7405620  98.1435570
  56.1650300 152.1733720  89.3121740  55.5967200 151.7251970  88.6857650
  56.8739300 152.5326500  88.7786890  64.5427920 145.0532160 103.7688510
  64.8673690 144.3221820 104.2946490  64.5784430 144.7345800 102.8669500
  57.3916620 152.9222280  98.6697090  57.7586750 152.4480850  99.4158430
  57.2021680 153.7963850  99.0105430  50.2557110 147.6665970  94.7990560
  49.9704030 147.3021640  95.6369180  50.1935970 146.9346430  94.1853700
  55.1815990 151.9630920 100.9881300  54.8773060 152.8422900 101.2131660
  56.1362450 152.0230710 101.0238740  59.9295700 146.5595230  91.5203930
  59.1160310 146.0608400  91.4449240  59.7357650 147.3993480  91.1040280
  62.6444090 150.9314880  89.8166090  63.5323710 151.2432110  89.6417430
  62.6149180 150.0587130  89.4246670  51.2379720 152.8033660 102.1352660
  50.8794660 153.4687510 102.7226000  50.9434280 151.9717210 102.5065280
  54.4392840 153.2617900 105.0192210  54.1392980 153.4075080 104.1220030
  55.2104080 152.7023190 104.9265600  64.9158360 152.2426720  89.2845950
  64.8322080 152.6740940  88.4342390  65.6352550 152.7025070  89.7172770
  49.7487770 152.8024920  88.7587260  50.6182620 153.0849720  89.0423180
  49.2578090 153.6160790  88.6436070  52.8134360 144.5335780  93.3518060
  52.6848990 144.5253680  94.3002980  51.9896380 144.8718870  93.0009070
  49.8128290 146.2926900 102.8124760  49.0986810 146.4923820 103.4177370
  50.2323330 145.5166470 103.1839560  61.3067070 148.7849210 100.5626210
  61.6747890 147.9644420 100.8905780  60.4465270 148.8451100 100.9781860
  64.6729100 147.7406150  91.3713770  64.0442260 147.8451820  90.6572000
  64.1781020 147.9602930  92.1607650  56.6413130 150.0192100  92.7871650
  55.9329280 150.4878440  93.2285260  56.9257610 149.3614110  93.4216840
  58.2669060 151.4388800 100.7864180  58.7654310 151.9134620 101.4516030
  58.4092010 150.5152320 100.9934210  60.6728560 146.7442760  94.2267440
  60.5496340 146.7628890  93.2776950  61.6213120 146.7921700  94.3465840
  54.8448150 148.3277180  90.1622360  55.6938680 148.7647330  90.0962550
  54.4779420 148.6397440  90.9894420  65.4735920 147.6556760 101.6292570
  64.9709520 148.3962160 101.9686380  66.2892580 148.0440760 101.3129360
  63.7657930 152.8989940  95.0753930  62.8248070 152.9140170  95.2501620
  64.0802000 152.1125900  95.5214230  53.7439570 154.5809540  88.6357890
  54.5102840 154.4690900  89.1983320  53.8214260 153.8847510  87.9834660
  52.4386330 152.0134610  89.3190780  52.5189920 151.0662120  89.4308180
  53.3306080 152.3441490  89.4251440  49.9657130 153.8349530 104.5546950
  50.4696150 153.2556810 105.1263180  49.2264550 154.1189760 105.0923320
  51.9980210 151.9779120 105.4497020  52.0385550 151.6792990 106.3582250
  52.8525710 152.3786730 105.2904540  55.7758600 154.5774670  90.6100530
  56.1975020 154.4114540  91.4531920  55.9009440 153.7674900  90.1155670
  53.9386020 150.5571220 103.4171510  53.4082480 150.0662170 102.7894850
  54.6074090 150.9855420 102.8829440  58.2886240 153.6012280  87.8577630
  58.8091900 152.8861300  87.4918780  58.9354640 154.2398150  88.1578140
  63.3086250 152.3636840 105.1851850  63.8907020 151.6089160 105.0972330
  63.4848020 152.8944280 104.4083330  54.4258320 147.5233590 103.4968800
  54.3315190 146.9054340 102.7719670  53.8455710 148.2499880 103.2698710
  57.1919760 146.0806830 100.5296190  56.7437060 146.1031090  99.6841740
  56.5584960 145.6825850 101.1266490  59.9343210 152.7077340 102.5346470
  60.0539420 152.1118480 103.2741310  60.7937210 152.7447030 102.1147770
  62.2731110 153.2614530 101.1108980  61.7466330 153.7857150 100.5074120
  62.6162450 153.8941920 101.7418710  54.6717500 150.6507900  87.5558690
  54.4706560 149.7875260  87.9172030  54.5009550 150.5641260  86.6180290
  56.7011980 149.2498690 103.7922290  57.2911670 148.9414540 104.4800110
  55.8832220 148.7778440 103.9482190  61.5205410 148.8664500 104.0255310
  60.8320930 148.2046040 103.9605300  62.2411430 148.4202770 104.4703770
  62.1505810 145.4616130  90.0845570  62.4308100 144.6184030  90.4404990
  61.3771540 145.6939240  90.5984320  53.4700300 147.7508520  87.5436570
  53.7726200 147.7575950  86.6355720  54.2094890 147.4006380  88.0404230
  56.6885230 146.6943140  88.5292770  56.3407230 146.0167130  87.9495220
  56.8898000 146.2332650  89.3436160  50.0290870 153.2230790  94.9257140
  49.3739710 152.9542430  94.2816840  50.8668820 153.1135270  94.4759120
  62.9781310 148.0172080  89.1475630  63.3966190 147.8303060  88.3072290
  62.6717370 147.1651130  89.4578560  66.4771040 152.9296220  92.8451430
  66.1014640 152.1624150  92.4132720  65.7474160 153.3118920  93.3326360
  51.0666800 153.6083360  99.4660480  51.4339840 153.5210760 100.3456500
  50.4977620 152.8449910  99.3667340  65.8670660 152.0767740 102.4790950
  65.6356750 151.8480490 101.5788900  66.1275210 152.9967290 102.4335840
  50.6182800 150.5192450 103.3718900  49.7238850 150.4859210 103.7112610
  51.1580350 150.7179240 104.1370150  64.3058730 147.3024170 105.2570650
  65.1828910 147.3107570 105.6404650  64.3179570 146.5655010 104.6463000
  49.2428950 150.4329720  90.8682470  48.3393030 150.6959920  90.6934130
  49.7269570 150.7040890  90.0882430  65.7522000 151.1553710  96.1458670
  66.2759480 150.6616360  95.5148840  66.3381420 151.2904070  96.8906240
  65.9311720 151.2393580  99.6678220  64.9814430 151.2057120  99.7823210
  66.1124730 152.1493690  99.4327990  51.7856160 149.4895260  88.7776850
  52.4947860 149.0678480  88.2924130  51.0696100 149.5570490  88.1460200
  51.4330320 145.5434590  87.8179500  52.1558450 146.0843530  88.1360720
  51.7054840 145.2698010  86.9421040  65.2421970 150.4127060  92.0851080
  65.7381090 150.1797930  92.8699960  65.0438040 149.5738900  91.6688720
  51.1222510 144.7940780  97.7202120  51.7698700 144.2438160  97.2797280
  51.5424350 145.0483930  98.5417930  66.6709130 149.0488010  94.6188760
  66.5608410 148.8944050  95.5571030  67.4316720 148.5208950  94.3764170
  65.0174850 144.9882140 101.0771760  65.6547070 145.6016280 101.4430950
  65.1649740 145.0242800 100.1320990  67.5599400 146.8795930  87.8594900
  68.4848710 146.7477110  87.6513190  67.5375190 146.9588750  88.8131350
  67.6337890 147.6506590  90.4851610  66.8389390 147.5851710  91.0144520
  67.8381170 148.5857230  90.4736960  50.8754510 144.9496450 100.4627440
  50.5269330 145.4060270 101.2285620  50.5442210 144.0553580 100.5449870
  58.3879330 146.1408330 103.9846860  58.3268220 146.7330160 104.7342270
  59.3279710 146.0334290 103.8397120  61.0253890 145.7978390 103.6239150
  61.6394300 146.1157680 102.9620230  61.5703450 145.3126980 104.2435010
  51.5475150 144.4772650 103.7378210  52.0958140 144.2960700 102.9744320
  51.6130460 143.6866760 104.2734520  61.7661930 144.3610530  99.9508440
  60.8921770 144.6945640  99.7481370  61.6572680 143.8883710 100.7760310
  62.6733910 146.5681400 101.3350160  62.3447270 145.7533160 100.9551890
  63.6216210 146.5251210 101.2115850  59.5136750 145.2780370  98.8901350
  58.7308540 145.7525870  99.1698110  59.2199680 144.3735200  98.7814530
  64.0657820 145.9803470  96.9350440  64.5065910 145.9248570  96.0872040
  63.7965410 146.8961480  97.0060620  65.9296390 145.6118710  94.9459260
  65.8684790 144.6679930  94.7990280  66.7088420 145.7198800  95.4912720
  50.8577160 145.5827850  91.4115070  51.6156520 145.6956730  90.8379100
  50.3954330 146.4197050  91.3658500  57.3990970 147.6967120  94.4017380
  56.5865480 147.3224010  94.0613260  57.9032610 146.9412200  94.7038570
  61.9015950 144.3609570  95.6400450  62.5045320 144.9329780  96.1148970
  61.1608940 144.9249010  95.4174350  65.0450550 144.7631130  90.9140730
  65.2401180 145.6614580  91.1808160  64.2580420 144.5318210  91.4073680
  53.2302310 146.1091900  89.9517040  53.7595070 145.3221700  89.8224990
  53.8630630 146.7883090  90.1852570  55.4240150 145.8467040  93.0062430
  54.7942890 145.1454350  93.1732560  54.8845290 146.6071170  92.7895590
  55.5495710 145.1251020 105.4414920  55.2679980 145.6284620 104.6775740
  55.9315410 144.3272770 105.0757050  62.1511170 144.5404600 106.0195390
  62.0376620 144.8599210 106.9146910  62.9680910 144.9417110 105.7232670
  61.0569320 152.5597070  76.3830130  60.9763370 151.6451680  76.1121840
  60.6433740 153.0564140  75.6769840  59.1887360 154.3376090  78.2639400
  58.4129460 153.8576530  78.5537970  59.8400290 153.6581740  78.0895560
  53.2053190 154.6495900  79.1415160  52.3738070 154.3944610  79.5411670
  53.8134170 154.7206670  79.8773080  51.6145140 149.6097790  72.9257550
  50.7261840 149.9513760  72.8237430  51.8986330 149.4098110  72.0338380
  49.5778150 152.2103440  78.8097250  50.1494260 151.4425640  78.8100890
  49.5779690 152.5092200  77.9003860  50.8203020 147.6187800  80.5966180
  50.6405860 146.7213550  80.8768940  50.4183100 148.1659670  81.2713130
  59.6601520 149.8203660  78.4978490  60.0366340 148.9475540  78.3852160
  59.5621030 150.1562360  77.6068930  53.7906530 148.1929290  73.9595930
  53.8973280 149.0933020  74.2664690  52.8798890 148.1447260  73.6690580
  63.4425640 147.3154100  75.4306830  64.2635260 146.8250670  75.4732310
  63.4759720 147.9051760  76.1838670  51.4389690 150.1148300  79.2048520
  52.1199800 150.3786670  79.8235920  51.1237740 149.2749170  79.5386530
  55.6314260 151.1615660  78.2921110  56.1392480 151.6596630  78.9326130
  56.1627500 150.3850860  78.1160470  67.7325190 149.3320850  81.9950460
  67.0277360 149.7202560  81.4765570  67.9983110 150.0271140  82.5971390
  53.9150360 145.8014220  82.5584530  53.9168800 146.3186610  81.7530430
  53.0854670 145.3244400  82.5354460  63.6787120 149.2554480  78.2034370
  62.9742690 149.5439370  78.7837480  64.0399280 150.0654590  77.8433930
  53.5965690 147.5124180  80.5654980  53.9382500 148.3566230  80.2708850
  52.6581500 147.6607920  80.6820320  66.7474040 148.7009270  78.5943580
  65.7998950 148.7348250  78.7259010  67.0724030 149.5148220  78.9792940
  57.2793580 145.0006450  76.8899570  57.5868560 144.4453340  76.1735070
  56.3494280 145.1350910  76.7072560  59.6674340 153.0655280  73.6259690
  58.7403620 152.9992660  73.8548160  59.8199160 154.0035410  73.5114930
  59.6543420 149.3372280  70.6226850  58.7147090 149.4986240  70.7079310
  59.9726680 150.0557960  70.0762840  66.1756180 154.0190800  80.6005880
  65.3474810 154.0883890  80.1256010  66.7706660 154.6045110  80.1321710
  63.6971630 154.6275580  74.1294940  63.0784050 154.2895130  73.4821240
  63.6796080 153.9835340  74.8374130  63.1398190 150.8060120  81.5460750
  62.7269370 151.6313830  81.8000740  62.4074140 150.2205160  81.3537110
  55.2730980 153.5920020  76.4079420  54.8687980 152.8797270  75.9125320
  55.3594100 153.2473260  77.2967460  53.9859600 150.3663230  80.1878460
  54.5374190 150.4758570  79.4131710  54.5003110 150.7400830  80.9033690
  61.8736330 153.8662390  71.1367690  62.3129610 153.0284820  70.9905510
  62.5864750 154.4991790  71.2231830  53.6602330 153.8882590  83.7983800
  53.5210100 154.7605390  84.1671200  52.7783690 153.5455400  83.6531740
  65.4553470 145.1205200  69.4508730  65.1426130 145.2132030  70.3507800
  66.2165940 145.6986230  69.4006160  51.9735610 152.4865000  73.9086070
  51.8533210 153.2127090  73.2967340  51.6636500 151.7167910  73.4313980
  66.6654760 149.8576700  85.4282870  66.0499030 150.3656370  84.8998330
  66.3451180 148.9575030  85.3708810  54.4399270 145.8300070  77.2909740
  53.9967420 146.6109610  76.9594260  54.9984260 146.1529960  77.9980680
  58.7269080 148.6968590  82.8945060  58.2648450 148.9051610  83.7065000
  58.3247190 147.8827940  82.5915730  63.7273590 149.9177540  84.0241720
  62.8767180 149.6183290  84.3450790  63.5675380 150.1619550  83.1125540
  60.8223300 151.4179290  86.1240510  61.1476710 150.5843040  85.7842740
  61.6103630 151.9407810  86.2718840  57.5558090 145.4510770  72.1715570
  56.9312270 145.4470640  72.8968880  57.4688210 144.5841730  71.7751540
  56.4775170 146.3747400  79.1499340  56.7747500 147.2810230  79.0691360
  57.0260730 145.8866180  78.5358910  54.2313490 150.9533640  75.0190990
  54.0054410 150.7370810  75.9237610  53.4506020 151.3862100  74.6736960
  61.4611250 150.9597010  73.6181640  60.8620140 151.6832810  73.4345260
  62.0090860 150.8973790  72.8358090  56.6712700 151.8519220  85.6851260
  56.5756300 150.9113950  85.5351660  57.5144680 152.0734290  85.2899330
  60.0676120 149.5960550  75.6484920  60.4605690 149.9132750  74.8353610
  60.4292970 148.7172430  75.7629440  51.8023240 148.2632890  83.8385040
  51.4086630 149.1108100  84.0457820  51.1141640 147.6259260  84.0293680
  58.3768290 148.3467860  86.9081780  57.6866610 148.1540060  87.5427870
  59.1200590 148.6302500  87.4406080  49.1040290 146.1861350  77.8715120
  48.8153340 146.7564210  78.5840100  49.8486050 145.7065800  78.2346350
  49.2910520 150.1281470  69.0817840  49.2085190 151.0712230  69.2232830
  48.9393580 149.9856380  68.2030190  60.6531260 152.1866300  79.7435700
  59.9212380 152.6953110  80.0925800  60.2555600 151.3696280  79.4424480
  57.0908650 148.8620500  78.1488190  57.0944710 148.4210450  77.2992730
  57.9859770 149.1837830  78.2560010  52.9411030 148.7446990  77.1082400
  52.6011080 149.2222220  77.8649450  52.1788350 148.2912110  76.7483500
  57.1528800 149.8632580  71.1394950  57.2741620 149.8219060  72.0880770
  56.7677310 150.7256730  70.9841680  61.1157170 147.6399980  79.1558640
  61.1329910 148.0908630  80.0000490  60.8672750 146.7405620  79.3692080
  56.1650300 152.1733720  70.5378250  55.5967200 151.7251970  69.9114160
  56.8739300 152.5326500  70.0043400  64.5427920 145.0532160  84.9945020
  64.8673690 144.3221820  85.5203000  64.5784430 144.7345800  84.0926010
  57.3916620 152.9222280  79.8953600  57.7586750 152.4480850  80.6414940
  57.2021680 153.7963850  80.2361940  50.2557110 147.6665970  76.0247070
  49.9704030 147.3021640  76.8625690  50.1935970 146.9346430  75.4110210
  55.1815990 151.9630920  82.2137810  54.8773060 152.8422900  82.4388170
  56.1362450 152.0230710  82.2495250  59.9295700 146.5595230  72.7460440
  59.1160310 146.0608400  72.6705750  59.7357650 147.3993480  72.3296790
  62.6444090 150.9314880  71.0422600  63.5323710 151.2432110  70.8673940
  62.6149180 150.0587130  70.6503180  51.2379720 152.8033660  83.3609170
  50.8794660 153.4687510  83.9482510  50.9434280 151.9717210  83.7321790
  54.4392840 153.2617900  86.2448720  54.1392980 153.4075080  85.3476540
  55.2104080 152.7023190  86.1522110  64.9158360 152.2426720  70.5102460
  64.8322080 152.6740940  69.6598900  65.6352550 152.7025070  70.9429280
  49.7487770 152.8024920  69.9843770  50.6182620 153.0849720  70.2679690
  49.2578090 153.6160790  69.8692580  52.8134360 144.5335780  74.5774570
  52.6848990 144.5253680  75.5259490  51.9896380 144.8718870  74.2265580
  49.8128290 146.2926900  84.0381270  49.0986810 146.4923820  84.6433880
  50.2323330 145.5166470  84.4096070  61.3067070 148.7849210  81.7882720
  61.6747890 147.9644420  82.1162290  60.4465270 148.8451100  82.2038370
  64.6729100 147.7406150  72.5970280  64.0442260 147.8451820  71.8828510
  64.1781020 147.9602930  73.3864160  56.6413130 150.0192100  74.0128160
  55.9329280 150.4878440  74.4541770  56.9257610 149.3614110  74.6473350
  58.2669060 151.4388800  82.0120690  58.7654310 151.9134620  82.6772540
  58.4092010 150.5152320  82.2190720  60.6728560 146.7442760  75.4523950
  60.5496340 146.7628890  74.5033460  61.6213120 146.7921700  75.5722350
  54.8448150 148.3277180  71.3878870  55.6938680 148.7647330  71.3219060
  54.4779420 148.6397440  72.2150930  65.4735920 147.6556760  82.8549080
  64.9709520 148.3962160  83.1942890  66.2892580 148.0440760  82.5385870
  63.7657930 152.8989940  76.3010440  62.8248070 152.9140170  76.4758130
  64.0802000 152.1125900  76.7470740  53.7439570 154.5809540  69.8614400
  54.5102840 154.4690900  70.4239830  53.8214260 153.8847510  69.2091170
  52.4386330 152.0134610  70.5447290  52.5189920 151.0662120  70.6564690
  53.3306080 152.3441490  70.6507950  49.9657130 153.8349530  85.7803460
  50.4696150 153.2556810  86.3519690  49.2264550 154.1189760  86.3179830
  51.9980210 151.9779120  86.6753530  52.0385550 151.6792990  87.5838760
  52.8525710 152.3786730  86.5161050  55.7758600 154.5774670  71.8357040
  56.1975020 154.4114540  72.6788430  55.9009440 153.7674900  71.3412180
  53.9386020 150.5571220  84.6428020  53.4082480 150.0662170  84.0151360
  54.6074090 150.9855420  84.1085950  58.2886240 153.6012280  69.0834140
  58.8091900 152.8861300  68.7175290  58.9354640 154.2398150  69.3834650
  63.3086250 152.3636840  86.4108360  63.8907020 151.6089160  86.3228840
  63.4848020 152.8944280  85.6339840  54.4258320 147.5233590  84.7225310
  54.3315190 146.9054340  83.9976180  53.8455710 148.2499880  84.4955220
  57.1919760 146.0806830  81.7552700  56.7437060 146.1031090  80.9098250
  56.5584960 145.6825850  82.3523000  59.9343210 152.7077340  83.7602980
  60.0539420 152.1118480  84.4997820  60.7937210 152.7447030  83.3404280
  62.2731110 153.2614530  82.3365490  61.7466330 153.7857150  81.7330630
  62.6162450 153.8941920  82.9675220  54.6717500 150.6507900  68.7815200
  54.4706560 149.7875260  69.1428540  54.5009550 150.5641260  67.8436800
  56.7011980 149.2498690  85.0178800  57.2911670 148.9414540  85.7056620
  55.8832220 148.7778440  85.1738700  61.5205410 148.8664500  85.2511820
  60.8320930 148.2046040  85.1861810  62.2411430 148.4202770  85.6960280
  62.1505810 145.4616130  71.3102080  62.4308100 144.6184030  71.6661500
  61.3771540 145.6939240  71.8240830  53.4700300 147.7508520  68.7693080
  53.7726200 147.7575950  67.8612230  54.2094890 147.4006380  69.2660740
  56.6885230 146.6943140  69.7549280  56.3407230 146.0167130  69.1751730
  56.8898000 146.2332650  70.5692670  50.0290870 153.2230790  76.1513650
  49.3739710 152.9542430  75.5073350  50.8668820 153.1135270  75.7015630
  62.9781310 148.0172080  70.3732140  63.3966190 147.8303060  69.5328800
  62.6717370 147.1651130  70.6835070  66.4771040 152.9296220  74.0707940
  66.1014640 152.1624150  73.6389230  65.7474160 153.3118920  74.5582870
  51.0666800 153.6083360  80.6916990  51.4339840 153.5210760  81.5713010
  50.4977620 152.8449910  80.5923850  65.8670660 152.0767740  83.7047460
  65.6356750 151.8480490  82.8045410  66.1275210 152.9967290  83.6592350
  50.6182800 150.5192450  84.5975410  49.7238850 150.4859210  84.9369120
  51.1580350 150.7179240  85.3626660  64.3058730 147.3024170  86.4827160
  65.1828910 147.3107570  86.8661160  64.3179570 146.5655010  85.8719510
  49.2428950 150.4329720  72.0938980  48.3393030 150.6959920  71.9190640
  49.7269570 150.7040890  71.3138940  65.7522000 151.1553710  77.3715180
  66.2759480 150.6616360  76.7405350  66.3381420 151.2904070  78.1162750
  65.9311720 151.2393580  80.8934730  64.9814430 151.2057120  81.0079720
  66.1124730 152.1493690  80.6584500  51.7856160 149.4895260  70.0033360
  52.4947860 149.0678480  69.5180640  51.0696100 149.5570490  69.3716710
  51.4330320 145.5434590  69.0436010  52.1558450 146.0843530  69.3617230
  51.7054840 145.2698010  68.1677550  65.2421970 150.4127060  73.3107590
  65.7381090 150.1797930  74.0956470  65.0438040 149.5738900  72.8945230
  51.1222510 144.7940780  78.9458630  51.7698700 144.2438160  78.5053790
  51.5424350 145.0483930  79.7674440  66.6709130 149.0488010  75.8445270
  66.5608410 148.8944050  76.7827540  67.4316720 148.5208950  75.6020680
  65.0174850 144.9882140  82.3028270  65.6547070 145.6016280  82.6687460
  65.1649740 145.0242800  81.3577500  67.5599400 146.8795930  69.0851410
  68.4848710 146.7477110  68.8769700  67.5375190 146.9588750  70.0387860
  67.6337890 147.6506590  71.7108120  66.8389390 147.5851710  72.2401030
  67.8381170 148.5857230  71.6993470  50.8754510 144.9496450  81.6883950
  50.5269330 145.4060270  82.4542130  50.5442210 144.0553580  81.7706380
  58.3879330 146.1408330  85.2103370  58.3268220 146.7330160  85.9598780
  59.3279710 146.0334290  85.0653630  61.0253890 145.7978390  84.8495660
  61.6394300 146.1157680  84.1876740  61.5703450 145.3126980  85.4691520
  51.5475150 144.4772650  84.9634720  52.0958140 144.2960700  84.2000830
  51.6130460 143.6866760  85.4991030  61.7661930 144.3610530  81.1764950
  60.8921770 144.6945640  80.9737880  61.6572680 143.8883710  82.0016820
  62.6733910 146.5681400  82.5606670  62.3447270 145.7533160  82.1808400
  63.6216210 146.5251210  82.4372360  59.5136750 145.2780370  80.1157860
  58.7308540 145.7525870  80.3954620  59.2199680 144.3735200  80.0071040
  64.0657820 145.9803470  78.1606950  64.5065910 145.9248570  77.3128550
  63.7965410 146.8961480  78.2317130  65.9296390 145.6118710  76.1715770
  65.8684790 144.6679930  76.0246790  66.7088420 145.7198800  76.7169230
  50.8577160 145.5827850  72.6371580  51.6156520 145.6956730  72.0635610
  50.3954330 146.4197050  72.5915010  57.3990970 147.6967120  75.6273890
  56.5865480 147.3224010  75.2869770  57.9032610 146.9412200  75.9295080
  61.9015950 144.3609570  76.8656960  62.5045320 144.9329780  77.3405480
  61.1608940 144.9249010  76.6430860  65.0450550 144.7631130  72.1397240
  65.2401180 145.6614580  72.4064670  64.2580420 144.5318210  72.6330190
  53.2302310 146.1091900  71.1773550  53.7595070 145.3221700  71.0481500
  53.8630630 146.7883090  71.4109080  55.4240150 145.8467040  74.2318940
  54.7942890 145.1454350  74.3989070  54.8845290 146.6071170  74.0152100
  55.5495710 145.1251020  86.6671430  55.2679980 145.6284620  85.9032250
  55.9315410 144.3272770  86.3013560  62.1511170 144.5404600  87.2451900
  62.0376620 144.8599210  88.1403420  62.9680910 144.9417110  86.9489180
  61.0569320 152.5597070  57.6086640  60.9763370 151.6451680  57.3378350
  60.6433740 153.0564140  56.9026350  59.1887360 154.3376090  59.4895910
  58.4129460 153.8576530  59.7794480  59.8400290 153.6581740  59.3152070
  53.2053190 154.6495900  60.3671670  52.3738070 154.3944610  60.7668180
  53.8134170 154.7206670  61.1029590  51.6145140 149.6097790  54.1514060
  50.7261840 149.9513760  54.0493940  51.8986330 149.4098110  53.2594890
  49.5778150 152.2103440  60.0353760  50.1494260 151.4425640  60.0357400
  49.5779690 152.5092200  59.1260370  50.8203020 147.6187800  61.8222690
  50.6405860 146.7213550  62.1025450  50.4183100 148.1659670  62.4969640
  59.6601520 149.8203660  59.7235000  60.0366340 148.9475540  59.6108670
  59.5621030 150.1562360  58.8325440  53.7906530 148.1929290  55.1852440
  53.8973280 149.0933020  55.4921200  52.8798890 148.1447260  54.8947090
  63.4425640 147.3154100  56.6563340  64.2635260 146.8250670  56.6988820
  63.4759720 147.9051760  57.4095180  51.4389690 150.1148300  60.4305030
  52.1199800 150.3786670  61.0492430  51.1237740 149.2749170  60.7643040
  55.6314260 151.1615660  59.5177620  56.1392480 151.6596630  60.1582640
  56.1627500 150.3850860  59.3416980  67.7325190 149.3320850  63.2206970
  67.0277360 149.7202560  62.7022080  67.9983110 150.0271140  63.8227900
  53.9150360 145.8014220  63.7841040  53.9168800 146.3186610  62.9786940
  53.0854670 145.3244400  63.7610970  63.6787120 149.2554480  59.4290880
  62.9742690 149.5439370  60.0093990  64.0399280 150.0654590  59.0690440
  53.5965690 147.5124180  61.7911490  53.9382500 148.3566230  61.4965360
  52.6581500 147.6607920  61.9076830  66.7474040 148.7009270  59.8200090
  65.7998950 148.7348250  59.9515520  67.0724030 149.5148220  60.2049450
  57.2793580 145.0006450  58.1156080  57.5868560 144.4453340  57.3991580
  56.3494280 145.1350910  57.9329070  59.6674340 153.0655280  54.8516200
  58.7403620 152.9992660  55.0804670  59.8199160 154.0035410  54.7371440
  59.6543420 149.3372280  51.8483360  58.7147090 149.4986240  51.9335820
  59.9726680 150.0557960  51.3019350  66.1756180 154.0190800  61.8262390
  65.3474810 154.0883890  61.3512520  66.7706660 154.6045110  61.3578220
  63.6971630 154.6275580  55.3551450  63.0784050 154.2895130  54.7077750
  63.6796080 153.9835340  56.0630640  63.1398190 150.8060120  62.7717260
  62.7269370 151.6313830  63.0257250  62.4074140 150.2205160  62.5793620
  55.2730980 153.5920020  57.6335930  54.8687980 152.8797270  57.1381830
  55.3594100 153.2473260  58.5223970  53.9859600 150.3663230  61.4134970
  54.5374190 150.4758570  60.6388220  54.5003110 150.7400830  62.1290200
  61.8736330 153.8662390  52.3624200  62.3129610 153.0284820  52.2162020
  62.5864750 154.4991790  52.4488340  53.6602330 153.8882590  65.0240310
  53.5210100 154.7605390  65.3927710  52.7783690 153.5455400  64.8788250
  65.4553470 145.1205200  50.6765240  65.1426130 145.2132030  51.5764310
  66.2165940 145.6986230  50.6262670  51.9735610 152.4865000  55.1342580
  51.8533210 153.2127090  54.5223850  51.6636500 151.7167910  54.6570490
  66.6654760 149.8576700  66.6539380  66.0499030 150.3656370  66.1254840
  66.3451180 148.9575030  66.5965320  54.4399270 145.8300070  58.5166250
  53.9967420 146.6109610  58.1850770  54.9984260 146.1529960  59.2237190
  58.7269080 148.6968590  64.1201570  58.2648450 148.9051610  64.9321510
  58.3247190 147.8827940  63.8172240  63.7273590 149.9177540  65.2498230
  62.8767180 149.6183290  65.5707300  63.5675380 150.1619550  64.3382050
  60.8223300 151.4179290  67.3497020  61.1476710 150.5843040  67.0099250
  61.6103630 151.9407810  67.4975350  57.5558090 145.4510770  53.3972080
  56.9312270 145.4470640  54.1225390  57.4688210 144.5841730  53.0008050
  56.4775170 146.3747400  60.3755850  56.7747500 147.2810230  60.2947870
  57.0260730 145.8866180  59.7615420  54.2313490 150.9533640  56.2447500
  54.0054410 150.7370810  57.1494120  53.4506020 151.3862100  55.8993470
  61.4611250 150.9597010  54.8438150  60.8620140 151.6832810  54.6601770
  62.0090860 150.8973790  54.0614600  56.6712700 151.8519220  66.9107770
  56.5756300 150.9113950  66.7608170  57.5144680 152.0734290  66.5155840
  60.0676120 149.5960550  56.8741430  60.4605690 149.9132750  56.0610120
  60.4292970 148.7172430  56.9885950  51.8023240 148.2632890  65.0641550
  51.4086630 149.1108100  65.2714330  51.1141640 147.6259260  65.2550190
  58.3768290 148.3467860  68.1338290  57.6866610 148.1540060  68.7684380
  59.1200590 148.6302500  68.6662590  49.1040290 146.1861350  59.0971630
  48.8153340 146.7564210  59.8096610  49.8486050 145.7065800  59.4602860
  49.2910520 150.1281470  50.3074350  49.2085190 151.0712230  50.4489340
  48.9393580 149.9856380  49.4286700  60.6531260 152.1866300  60.9692210
  59.9212380 152.6953110  61.3182310  60.2555600 151.3696280  60.6680990
  57.0908650 148.8620500  59.3744700  57.0944710 148.4210450  58.5249240
  57.9859770 149.1837830  59.4816520  52.9411030 148.7446990  58.3338910
  52.6011080 149.2222220  59.0905960  52.1788350 148.2912110  57.9740010
  57.1528800 149.8632580  52.3651460  57.2741620 149.8219060  53.3137280
  56.7677310 150.7256730  52.2098190  61.1157170 147.6399980  60.3815150
  61.1329910 148.0908630  61.2257000  60.8672750 146.7405620  60.5948590
  56.1650300 152.1733720  51.7634760  55.5967200 151.7251970  51.1370670
  56.8739300 152.5326500  51.2299910  64.5427920 145.0532160  66.2201530
  64.8673690 144.3221820  66.7459510  64.5784430 144.7345800  65.3182520
  57.3916620 152.9222280  61.1210110  57.7586750 152.4480850  61.8671450
  57.2021680 153.7963850  61.4618450  50.2557110 147.6665970  57.2503580
  49.9704030 147.3021640  58.0882200  50.1935970 146.9346430  56.6366720
  55.1815990 151.9630920  63.4394320  54.8773060 152.8422900  63.6644680
  56.1362450 152.0230710  63.4751760  59.9295700 146.5595230  53.9716950
  59.1160310 146.0608400  53.8962260  59.7357650 147.3993480  53.5553300
  62.6444090 150.9314880  52.2679110  63.5323710 151.2432110  52.0930450
  62.6149180 150.0587130  51.8759690  51.2379720 152.8033660  64.5865680
  50.8794660 153.4687510  65.1739020  50.9434280 151.9717210  64.9578300
  54.4392840 153.2617900  67.4705230  54.1392980 153.4075080  66.5733050
  55.2104080 152.7023190  67.3778620  64.9158360 152.2426720  51.7358970
  64.8322080 152.6740940  50.8855410  65.6352550 152.7025070  52.1685790
  49.7487770 152.8024920  51.2100280  50.6182620 153.0849720  51.4936200
  49.2578090 153.6160790  51.0949090  52.8134360 144.5335780  55.8031080
  52.6848990 144.5253680  56.7516000  51.9896380 144.8718870  55.4522090
  49.8128290 146.2926900  65.2637780  49.0986810 146.4923820  65.8690390
  50.2323330 145.5166470  65.6352580  61.3067070 148.7849210  63.0139230
  61.6747890 147.9644420  63.3418800  60.4465270 148.8451100  63.4294880
  64.6729100 147.7406150  53.8226790  64.0442260 147.8451820  53.1085020
  64.1781020 147.9602930  54.6120670  56.6413130 150.0192100  55.2384670
  55.9329280 150.4878440  55.6798280  56.9257610 149.3614110  55.8729860
  58.2669060 151.4388800  63.2377200  58.7654310 151.9134620  63.9029050
  58.4092010 150.5152320  63.4447230  60.6728560 146.7442760  56.6780460
  60.5496340 146.7628890  55.7289970  61.6213120 146.7921700  56.7978860
  54.8448150 148.3277180  52.6135380  55.6938680 148.7647330  52.5475570
  54.4779420 148.6397440  53.4407440  65.4735920 147.6556760  64.0805590
  64.9709520 148.3962160  64.4199400  66.2892580 148.0440760  63.7642380
  63.7657930 152.8989940  57.5266950  62.8248070 152.9140170  57.7014640
  64.0802000 152.1125900  57.9727250  53.7439570 154.5809540  51.0870910
  54.5102840 154.4690900  51.6496340  53.8214260 153.8847510  50.4347680
  52.4386330 152.0134610  51.7703800  52.5189920 151.0662120  51.8821200
  53.3306080 152.3441490  51.8764460  49.9657130 153.8349530  67.0059970
  50.4696150 153.2556810  67.5776200  49.2264550 154.1189760  67.5436340
  51.9980210 151.9779120  67.9010040  52.0385550 151.6792990  68.8095270
  52.8525710 152.3786730  67.7417560  55.7758600 154.5774670  53.0613550
  56.1975020 154.4114540  53.9044940  55.9009440 153.7674900  52.5668690
  53.9386020 150.5571220  65.8684530  53.4082480 150.0662170  65.2407870
  54.6074090 150.9855420  65.3342460  58.2886240 153.6012280  50.3090650
  58.8091900 152.8861300  49.9431800  58.9354640 154.2398150  50.6091160
  63.3086250 152.3636840  67.6364870  63.8907020 151.6089160  67.5485350
  63.4848020 152.8944280  66.8596350  54.4258320 147.5233590  65.9481820
  54.3315190 146.9054340  65.2232690  53.8455710 148.2499880  65.7211730
  57.1919760 146.0806830  62.9809210  56.7437060 146.1031090  62.1354760
  56.5584960 145.6825850  63.5779510  59.9343210 152.7077340  64.9859490
  60.0539420 152.1118480  65.7254330  60.7937210 152.7447030  64.5660790
  62.2731110 153.2614530  63.5622000  61.7466330 153.7857150  62.9587140
  62.6162450 153.8941920  64.1931730  54.6717500 150.6507900  50.0071710
  54.4706560 149.7875260  50.3685050  54.5009550 150.5641260  49.0693310
  56.7011980 149.2498690  66.2435310  57.2911670 148.9414540  66.9313130
  55.8832220 148.7778440  66.3995210  61.5205410 148.8664500  66.4768330
  60.8320930 148.2046040  66.4118320  62.2411430 148.4202770  66.9216790
  62.1505810 145.4616130  52.5358590  62.4308100 144.6184030  52.8918010
  61.3771540 145.6939240  53.0497340  53.4700300 147.7508520  49.9949590
  53.7726200 147.7575950  49.0868740  54.2094890 147.4006380  50.4917250
  56.6885230 146.6943140  50.9805790  56.3407230 146.0167130  50.4008240
  56.8898000 146.2332650  51.7949180  50.0290870 153.2230790  57.3770160
  49.3739710 152.9542430  56.7329860  50.8668820 153.1135270  56.9272140
  62.9781310 148.0172080  51.5988650  63.3966190 147.8303060  50.7585310
  62.6717370 147.1651130  51.9091580  66.4771040 152.9296220  55.2964450
  66.1014640 152.1624150  54.8645740  65.7474160 153.3118920  55.7839380
  51.0666800 153.6083360  61.9173500  51.4339840 153.5210760  62.7969520
  50.4977620 152.8449910  61.8180360  65.8670660 152.0767740  64.9303970
  65.6356750 151.8480490  64.0301920  66.1275210 152.9967290  64.8848860
  50.6182800 150.5192450  65.8231920  49.7238850 150.4859210  66.1625630
  51.1580350 150.7179240  66.5883170  64.3058730 147.3024170  67.7083670
  65.1828910 147.3107570  68.0917670  64.3179570 146.5655010  67.0976020
  49.2428950 150.4329720  53.3195490  48.3393030 150.6959920  53.1447150
  49.7269570 150.7040890  52.5395450  65.7522000 151.1553710  58.5971690
  66.2759480 150.6616360  57.9661860  66.3381420 151.2904070  59.3419260
  65.9311720 151.2393580  62.1191240  64.9814430 151.2057120  62.2336230
  66.1124730 152.1493690  61.8841010  51.7856160 149.4895260  51.2289870
  52.4947860 149.0678480  50.7437150  51.0696100 149.5570490  50.5973220
  51.4330320 145.5434590  50.2692520  52.1558450 146.0843530  50.5873740
  51.7054840 145.2698010  49.3934060  65.2421970 150.4127060  54.5364100
  65.7381090 150.1797930  55.3212980  65.0438040 149.5738900  54.1201740
  51.1222510 144.7940780  60.1715140  51.7698700 144.2438160  59.7310300
  51.5424350 145.0483930  60.9930950  66.6709130 149.0488010  57.0701780
  66.5608410 148.8944050  58.0084050  67.4316720 148.5208950  56.8277190
  65.0174850 144.9882140  63.5284780  65.6547070 145.6016280  63.8943970
  65.1649740 145.0242800  62.5834010  67.5599400 146.8795930  50.3107920
  68.4848710 146.7477110  50.1026210  67.5375190 146.9588750  51.2644370
  67.6337890 147.6506590  52.9364630  66.8389390 147.5851710  53.4657540
  67.8381170 148.5857230  52.9249980  50.8754510 144.9496450  62.9140460
  50.5269330 145.4060270  63.6798640  50.5442210 144.0553580  62.9962890
  58.3879330 146.1408330  66.4359880  58.3268220 146.7330160  67.1855290
  59.3279710 146.0334290  66.2910140  61.0253890 145.7978390  66.0752170
  61.6394300 146.1157680  65.4133250  61.5703450 145.3126980  66.6948030
  51.5475150 144.4772650  66.1891230  52.0958140 144.2960700  65.4257340
  51.6130460 143.6866760  66.7247540  61.7661930 144.3610530  62.4021460
  60.8921770 144.6945640  62.1994390  61.6572680 143.8883710  63.2273330
  62.6733910 146.5681400  63.7863180  62.3447270 145.7533160  63.4064910
  63.6216210 146.5251210  63.6628870  59.5136750 145.2780370  61.3414370
  58.7308540 145.7525870  61.6211130  59.2199680 144.3735200  61.2327550
  64.0657820 145.9803470  59.3863460  64.5065910 145.9248570  58.5385060
  63.7965410 146.8961480  59.4573640  65.9296390 145.6118710  57.3972280
  65.8684790 144.6679930  57.2503300  66.7088420 145.7198800  57.9425740
  50.8577160 145.5827850  53.8628090  51.6156520 145.6956730  53.2892120
  50.3954330 146.4197050  53.8171520  57.3990970 147.6967120  56.8530400
  56.5865480 147.3224010  56.5126280  57.9032610 146.9412200  57.1551590
  61.9015950 144.3609570  58.0913470  62.5045320 144.9329780  58.5661990
  61.1608940 144.9249010  57.8687370  65.0450550 144.7631130  53.3653750
  65.2401180 145.6614580  53.6321180  64.2580420 144.5318210  53.8586700
  53.2302310 146.1091900  52.4030060  53.7595070 145.3221700  52.2738010
  53.8630630 146.7883090  52.6365590  55.4240150 145.8467040  55.4575450
  54.7942890 145.1454350  55.6245580  54.8845290 146.6071170  55.2408610
  55.5495710 145.1251020  67.8927940  55.2679980 145.6284620  67.1288760
  55.9315410 144.3272770  67.5270070  62.1511170 144.5404600  68.4708410
  62.0376620 144.8599210  69.3659930  62.9680910 144.9417110  68.1745690
  61.0569320 152.5597070  38.8343150  60.9763370 151.6451680  38.5634860
  60.6433740 153.0564140  38.1282860  59.1887360 154.3376090  40.7152420
  58.4129460 153.8576530  41.0050990  59.8400290 153.6581740  40.5408580
  53.2053190 154.6495900  41.5928180  52.3738070 154.3944610  41.9924690
  53.8134170 154.7206670  42.3286100  51.6145140 149.6097790  35.3770570
  50.7261840 149.9513760  35.2750450  51.8986330 149.4098110  34.4851400
  49.5778150 152.2103440  41.2610270  50.1494260 151.4425640  41.2613910
  49.5779690 152.5092200  40.3516880  50.8203020 147.6187800  43.0479200
  50.6405860 146.7213550  43.3281960  50.4183100 148.1659670  43.7226150
  59.6601520 149.8203660  40.9491510  60.0366340 148.9475540  40.8365180
  59.5621030 150.1562360  40.0581950  53.7906530 148.1929290  36.4108950
  53.8973280 149.0933020  36.7177710  52.8798890 148.1447260  36.1203600
  63.4425640 147.3154100  37.8819850  64.2635260 146.8250670  37.9245330
  63.4759720 147.9051760  38.6351690  51.4389690 150.1148300  41.6561540
  52.1199800 150.3786670  42.2748940  51.1237740 149.2749170  41.9899550
  55.6314260 151.1615660  40.7434130  56.1392480 151.6596630  41.3839150
  56.1627500 150.3850860  40.5673490  67.7325190 149.3320850  44.4463480
  67.0277360 149.7202560  43.9278590  67.9983110 150.0271140  45.0484410
  53.9150360 145.8014220  45.0097550  53.9168800 146.3186610  44.2043450
  53.0854670 145.3244400  44.9867480  63.6787120 149.2554480  40.6547390
  62.9742690 149.5439370  41.2350500  64.0399280 150.0654590  40.2946950
  53.5965690 147.5124180  43.0168000  53.9382500 148.3566230  42.7221870
  52.6581500 147.6607920  43.1333340  66.7474040 148.7009270  41.0456600
  65.7998950 148.7348250  41.1772030  67.0724030 149.5148220  41.4305960
  57.2793580 145.0006450  39.3412590  57.5868560 144.4453340  38.6248090
  56.3494280 145.1350910  39.1585580  59.6674340 153.0655280  36.0772710
  58.7403620 152.9992660  36.3061180  59.8199160 154.0035410  35.9627950
  59.6543420 149.3372280  33.0739870  58.7147090 149.4986240  33.1592330
  59.9726680 150.0557960  32.5275860  66.1756180 154.0190800  43.0518900
  65.3474810 154.0883890  42.5769030  66.7706660 154.6045110  42.5834730
  63.6971630 154.6275580  36.5807960  63.0784050 154.2895130  35.9334260
  63.6796080 153.9835340  37.2887150  63.1398190 150.8060120  43.9973770
  62.7269370 151.6313830  44.2513760  62.4074140 150.2205160  43.8050130
  55.2730980 153.5920020  38.8592440  54.8687980 152.8797270  38.3638340
  55.3594100 153.2473260  39.7480480  53.9859600 150.3663230  42.6391480
  54.5374190 150.4758570  41.8644730  54.5003110 150.7400830  43.3546710
  61.8736330 153.8662390  33.5880710  62.3129610 153.0284820  33.4418530
  62.5864750 154.4991790  33.6744850  53.6602330 153.8882590  46.2496820
  53.5210100 154.7605390  46.6184220  52.7783690 153.5455400  46.1044760
  65.4553470 145.1205200  31.9021750  65.1426130 145.2132030  32.8020820
  66.2165940 145.6986230  31.8519180  51.9735610 152.4865000  36.3599090
  51.8533210 153.2127090  35.7480360  51.6636500 151.7167910  35.8827000
  66.6654760 149.8576700  47.8795890  66.0499030 150.3656370  47.3511350
  66.3451180 148.9575030  47.8221830  54.4399270 145.8300070  39.7422760
  53.9967420 146.6109610  39.4107280  54.9984260 146.1529960  40.4493700
  58.7269080 148.6968590  45.3458080  58.2648450 148.9051610  46.1578020
  58.3247190 147.8827940  45.0428750  63.7273590 149.9177540  46.4754740
  62.8767180 149.6183290  46.7963810  63.5675380 150.1619550  45.5638560
  60.8223300 151.4179290  48.5753530  61.1476710 150.5843040  48.2355760
  61.6103630 151.9407810  48.7231860  57.5558090 145.4510770  34.6228590
  56.9312270 145.4470640  35.3481900  57.4688210 144.5841730  34.2264560
  56.4775170 146.3747400  41.6012360  56.7747500 147.2810230  41.5204380
  57.0260730 145.8866180  40.9871930  54.2313490 150.9533640  37.4704010
  54.0054410 150.7370810  38.3750630  53.4506020 151.3862100  37.1249980
  61.4611250 150.9597010  36.0694660  60.8620140 151.6832810  35.8858280
  62.0090860 150.8973790  35.2871110  56.6712700 151.8519220  48.1364280
  56.5756300 150.9113950  47.9864680  57.5144680 152.0734290  47.7412350
  60.0676120 149.5960550  38.0997940  60.4605690 149.9132750  37.2866630
  60.4292970 148.7172430  38.2142460  51.8023240 148.2632890  46.2898060
  51.4086630 149.1108100  46.4970840  51.1141640 147.6259260  46.4806700
  58.3768290 148.3467860  49.3594800  57.6866610 148.1540060  49.9940890
  59.1200590 148.6302500  49.8919100  49.1040290 146.1861350  40.3228140
  48.8153340 146.7564210  41.0353120  49.8486050 145.7065800  40.6859370
  49.2910520 150.1281470  31.5330860  49.2085190 151.0712230  31.6745850
  48.9393580 149.9856380  30.6543210  60.6531260 152.1866300  42.1948720
  59.9212380 152.6953110  42.5438820  60.2555600 151.3696280  41.8937500
  57.0908650 148.8620500  40.6001210  57.0944710 148.4210450  39.7505750
  57.9859770 149.1837830  40.7073030  52.9411030 148.7446990  39.5595420
  52.6011080 149.2222220  40.3162470  52.1788350 148.2912110  39.1996520
  57.1528800 149.8632580  33.5907970  57.2741620 149.8219060  34.5393790
  56.7677310 150.7256730  33.4354700  61.1157170 147.6399980  41.6071660
  61.1329910 148.0908630  42.4513510  60.8672750 146.7405620  41.8205100
  56.1650300 152.1733720  32.9891270  55.5967200 151.7251970  32.3627180
  56.8739300 152.5326500  32.4556420  64.5427920 145.0532160  47.4458040
  64.8673690 144.3221820  47.9716020  64.5784430 144.7345800  46.5439030
  57.3916620 152.9222280  42.3466620  57.7586750 152.4480850  43.0927960
  57.2021680 153.7963850  42.6874960  50.2557110 147.6665970  38.4760090
  49.9704030 147.3021640  39.3138710  50.1935970 146.9346430  37.8623230
  55.1815990 151.9630920  44.6650830  54.8773060 152.8422900  44.8901190
  56.1362450 152.0230710  44.7008270  59.9295700 146.5595230  35.1973460
  59.1160310 146.0608400  35.1218770  59.7357650 147.3993480  34.7809810
  62.6444090 150.9314880  33.4935620  63.5323710 151.2432110  33.3186960
  62.6149180 150.0587130  33.1016200  51.2379720 152.8033660  45.8122190
  50.8794660 153.4687510  46.3995530  50.9434280 151.9717210  46.1834810
  54.4392840 153.2617900  48.6961740  54.1392980 153.4075080  47.7989560
  55.2104080 152.7023190  48.6035130  64.9158360 152.2426720  32.9615480
  64.8322080 152.6740940  32.1111920  65.6352550 152.7025070  33.3942300
  49.7487770 152.8024920  32.4356790  50.6182620 153.0849720  32.7192710
  49.2578090 153.6160790  32.3205600  52.8134360 144.5335780  37.0287590
  52.6848990 144.5253680  37.9772510  51.9896380 144.8718870  36.6778600
  49.8128290 146.2926900  46.4894290  49.0986810 146.4923820  47.0946900
  50.2323330 145.5166470  46.8609090  61.3067070 148.7849210  44.2395740
  61.6747890 147.9644420  44.5675310  60.4465270 148.8451100  44.6551390
  64.6729100 147.7406150  35.0483300  64.0442260 147.8451820  34.3341530
  64.1781020 147.9602930  35.8377180  56.6413130 150.0192100  36.4641180
  55.9329280 150.4878440  36.9054790  56.9257610 149.3614110  37.0986370
  58.2669060 151.4388800  44.4633710  58.7654310 151.9134620  45.1285560
  58.4092010 150.5152320  44.6703740  60.6728560 146.7442760  37.9036970
  60.5496340 146.7628890  36.9546480  61.6213120 146.7921700  38.0235370
  54.8448150 148.3277180  33.8391890  55.6938680 148.7647330  33.7732080
  54.4779420 148.6397440  34.6663950  65.4735920 147.6556760  45.3062100
  64.9709520 148.3962160  45.6455910  66.2892580 148.0440760  44.9898890
  63.7657930 152.8989940  38.7523460  62.8248070 152.9140170  38.9271150
  64.0802000 152.1125900  39.1983760  53.7439570 154.5809540  32.3127420
  54.5102840 154.4690900  32.8752850  53.8214260 153.8847510  31.6604190
  52.4386330 152.0134610  32.9960310  52.5189920 151.0662120  33.1077710
  53.3306080 152.3441490  33.1020970  49.9657130 153.8349530  48.2316480
  50.4696150 153.2556810  48.8032710  49.2264550 154.1189760  48.7692850
  51.9980210 151.9779120  49.1266550  52.0385550 151.6792990  50.0351780
  52.8525710 152.3786730  48.9674070  55.7758600 154.5774670  34.2870060
  56.1975020 154.4114540  35.1301450  55.9009440 153.7674900  33.7925200
  53.9386020 150.5571220  47.0941040  53.4082480 150.0662170  46.4664380
  54.6074090 150.9855420  46.5598970  58.2886240 153.6012280  31.5347160
  58.8091900 152.8861300  31.1688310  58.9354640 154.2398150  31.8347670
  63.3086250 152.3636840  48.8621380  63.8907020 151.6089160  48.7741860
  63.4848020 152.8944280  48.0852860  54.4258320 147.5233590  47.1738330
  54.3315190 146.9054340  46.4489200  53.8455710 148.2499880  46.9468240
  57.1919760 146.0806830  44.2065720  56.7437060 146.1031090  43.3611270
  56.5584960 145.6825850  44.8036020  59.9343210 152.7077340  46.2116000
  60.0539420 152.1118480  46.9510840  60.7937210 152.7447030  45.7917300
  62.2731110 153.2614530  44.7878510  61.7466330 153.7857150  44.1843650
  62.6162450 153.8941920  45.4188240  54.6717500 150.6507900  31.2328220
  54.4706560 149.7875260  31.5941560  54.5009550 150.5641260  30.2949820
  56.7011980 149.2498690  47.4691820  57.2911670 148.9414540  48.1569640
  55.8832220 148.7778440  47.6251720  61.5205410 148.8664500  47.7024840
  60.8320930 148.2046040  47.6374830  62.2411430 148.4202770  48.1473300
  62.1505810 145.4616130  33.7615100  62.4308100 144.6184030  34.1174520
  61.3771540 145.6939240  34.2753850  53.4700300 147.7508520  31.2206100
  53.7726200 147.7575950  30.3125250  54.2094890 147.4006380  31.7173760
  56.6885230 146.6943140  32.2062300  56.3407230 146.0167130  31.6264750
  56.8898000 146.2332650  33.0205690  50.0290870 153.2230790  38.6026670
  49.3739710 152.9542430  37.9586370  50.8668820 153.1135270  38.1528650
  62.9781310 148.0172080  32.8245160  63.3966190 147.8303060  31.9841820
  62.6717370 147.1651130  33.1348090  66.4771040 152.9296220  36.5220960
  66.1014640 152.1624150  36.0902250  65.7474160 153.3118920  37.0095890
  51.0666800 153.6083360  43.1430010  51.4339840 153.5210760  44.0226030
  50.4977620 152.8449910  43.0436870  65.8670660 152.0767740  46.1560480
  65.6356750 151.8480490  45.2558430  66.1275210 152.9967290  46.1105370
  50.6182800 150.5192450  47.0488430  49.7238850 150.4859210  47.3882140
  51.1580350 150.7179240  47.8139680  64.3058730 147.3024170  48.9340180
  65.1828910 147.3107570  49.3174180  64.3179570 146.5655010  48.3232530
  49.2428950 150.4329720  34.5452000  48.3393030 150.6959920  34.3703660
  49.7269570 150.7040890  33.7651960  65.7522000 151.1553710  39.8228200
  66.2759480 150.6616360  39.1918370  66.3381420 151.2904070  40.5675770
  65.9311720 151.2393580  43.3447750  64.9814430 151.2057120  43.4592740
  66.1124730 152.1493690  43.1097520  51.7856160 149.4895260  32.4546380
  52.4947860 149.0678480  31.9693660  51.0696100 149.5570490  31.8229730
  51.4330320 145.5434590  31.4949030  52.1558450 146.0843530  31.8130250
  51.7054840 145.2698010  30.6190570  65.2421970 150.4127060  35.7620610
  65.7381090 150.1797930  36.5469490  65.0438040 149.5738900  35.3458250
  51.1222510 144.7940780  41.3971650  51.7698700 144.2438160  40.9566810
  51.5424350 145.0483930  42.2187460  66.6709130 149.0488010  38.2958290
  66.5608410 148.8944050  39.2340560  67.4316720 148.5208950  38.0533700
  65.0174850 144.9882140  44.7541290  65.6547070 145.6016280  45.1200480
  65.1649740 145.0242800  43.8090520  67.5599400 146.8795930  31.5364430
  68.4848710 146.7477110  31.3282720  67.5375190 146.9588750  32.4900880
  67.6337890 147.6506590  34.1621140  66.8389390 147.5851710  34.6914050
  67.8381170 148.5857230  34.1506490  50.8754510 144.9496450  44.1396970
  50.5269330 145.4060270  44.9055150  50.5442210 144.0553580  44.2219400
  58.3879330 146.1408330  47.6616390  58.3268220 146.7330160  48.4111800
  59.3279710 146.0334290  47.5166650  61.0253890 145.7978390  47.3008680
  61.6394300 146.1157680  46.6389760  61.5703450 145.3126980  47.9204540
  51.5475150 144.4772650  47.4147740  52.0958140 144.2960700  46.6513850
  51.6130460 143.6866760  47.9504050  61.7661930 144.3610530  43.6277970
  60.8921770 144.6945640  43.4250900  61.6572680 143.8883710  44.4529840
  62.6733910 146.5681400  45.0119690  62.3447270 145.7533160  44.6321420
  63.6216210 146.5251210  44.8885380  59.5136750 145.2780370  42.5670880
  58.7308540 145.7525870  42.8467640  59.2199680 144.3735200  42.4584060
  64.0657820 145.9803470  40.6119970  64.5065910 145.9248570  39.7641570
  63.7965410 146.8961480  40.6830150  65.9296390 145.6118710  38.6228790
  65.8684790 144.6679930  38.4759810  66.7088420 145.7198800  39.1682250
  50.8577160 145.5827850  35.0884600  51.6156520 145.6956730  34.5148630
  50.3954330 146.4197050  35.0428030  57.3990970 147.6967120  38.0786910
  56.5865480 147.3224010  37.7382790  57.9032610 146.9412200  38.3808100
  61.9015950 144.3609570  39.3169980  62.5045320 144.9329780  39.7918500
  61.1608940 144.9249010  39.0943880  65.0450550 144.7631130  34.5910260
  65.2401180 145.6614580  34.8577690  64.2580420 144.5318210  35.0843210
  53.2302310 146.1091900  33.6286570  53.7595070 145.3221700  33.4994520
  53.8630630 146.7883090  33.8622100  55.4240150 145.8467040  36.6831960
  54.7942890 145.1454350  36.8502090  54.8845290 146.6071170  36.4665120
  55.5495710 145.1251020  49.1184450  55.2679980 145.6284620  48.3545270
  55.9315410 144.3272770  48.7526580  62.1511170 144.5404600  49.6964920
  62.0376620 144.8599210  50.5916440  62.9680910 144.9417110  49.4002200
  61.0569320 152.5597070  20.0599660  60.9763370 151.6451680  19.7891370
  60.6433740 153.0564140  19.3539370  59.1887360 154.3376090  21.9408930
  58.4129460 153.8576530  22.2307500  59.8400290 153.6581740  21.7665090
  53.2053190 154.6495900  22.8184690  52.3738070 154.3944610  23.2181200
  53.8134170 154.7206670  23.5542610  51.6145140 149.6097790  16.6027080
  50.7261840 149.9513760  16.5006960  51.8986330 149.4098110  15.7107910
  49.5778150 152.2103440  22.4866780  50.1494260 151.4425640  22.4870420
  49.5779690 152.5092200  21.5773390  50.8203020 147.6187800  24.2735710
  50.6405860 146.7213550  24.5538470  50.4183100 148.1659670  24.9482660
  59.6601520 149.8203660  22.1748020  60.0366340 148.9475540  22.0621690
  59.5621030 150.1562360  21.2838460  53.7906530 148.1929290  17.6365460
  53.8973280 149.0933020  17.9434220  52.8798890 148.1447260  17.3460110
  63.4425640 147.3154100  19.1076360  64.2635260 146.8250670  19.1501840
  63.4759720 147.9051760  19.8608200  51.4389690 150.1148300  22.8818050
  52.1199800 150.3786670  23.5005450  51.1237740 149.2749170  23.2156060
  55.6314260 151.1615660  21.9690640  56.1392480 151.6596630  22.6095660
  56.1627500 150.3850860  21.7930000  67.7325190 149.3320850  25.6719990
  67.0277360 149.7202560  25.1535100  67.9983110 150.0271140  26.2740920
  53.9150360 145.8014220  26.2354060  53.9168800 146.3186610  25.4299960
  53.0854670 145.3244400  26.2123990  63.6787120 149.2554480  21.8803900
  62.9742690 149.5439370  22.4607010  64.0399280 150.0654590  21.5203460
  53.5965690 147.5124180  24.2424510  53.9382500 148.3566230  23.9478380
  52.6581500 147.6607920  24.3589850  66.7474040 148.7009270  22.2713110
  65.7998950 148.7348250  22.4028540  67.0724030 149.5148220  22.6562470
  57.2793580 145.0006450  20.5669100  57.5868560 144.4453340  19.8504600
  56.3494280 145.1350910  20.3842090  59.6674340 153.0655280  17.3029220
  58.7403620 152.9992660  17.5317690  59.8199160 154.0035410  17.1884460
  59.6543420 149.3372280  14.2996380  58.7147090 149.4986240  14.3848840
  59.9726680 150.0557960  13.7532370  66.1756180 154.0190800  24.2775410
  65.3474810 154.0883890  23.8025540  66.7706660 154.6045110  23.8091240
  63.6971630 154.6275580  17.8064470  63.0784050 154.2895130  17.1590770
  63.6796080 153.9835340  18.5143660  63.1398190 150.8060120  25.2230280
  62.7269370 151.6313830  25.4770270  62.4074140 150.2205160  25.0306640
  55.2730980 153.5920020  20.0848950  54.8687980 152.8797270  19.5894850
  55.3594100 153.2473260  20.9736990  53.9859600 150.3663230  23.8647990
  54.5374190 150.4758570  23.0901240  54.5003110 150.7400830  24.5803220
  61.8736330 153.8662390  14.8137220  62.3129610 153.0284820  14.6675040
  62.5864750 154.4991790  14.9001360  53.6602330 153.8882590  27.4753330
  53.5210100 154.7605390  27.8440730  52.7783690 153.5455400  27.3301270
  65.4553470 145.1205200  13.1278260  65.1426130 145.2132030  14.0277330
  66.2165940 145.6986230  13.0775690  51.9735610 152.4865000  17.5855600
  51.8533210 153.2127090  16.9736870  51.6636500 151.7167910  17.1083510
  66.6654760 149.8576700  29.1052400  66.0499030 150.3656370  28.5767860
  66.3451180 148.9575030  29.0478340  54.4399270 145.8300070  20.9679270
  53.9967420 146.6109610  20.6363790  54.9984260 146.1529960  21.6750210
  58.7269080 148.6968590  26.5714590  58.2648450 148.9051610  27.3834530
  58.3247190 147.8827940  26.2685260  63.7273590 149.9177540  27.7011250
  62.8767180 149.6183290  28.0220320  63.5675380 150.1619550  26.7895070
  60.8223300 151.4179290  29.8010040  61.1476710 150.5843040  29.4612270
  61.6103630 151.9407810  29.9488370  57.5558090 145.4510770  15.8485100
  56.9312270 145.4470640  16.5738410  57.4688210 144.5841730  15.4521070
  56.4775170 146.3747400  22.8268870  56.7747500 147.2810230  22.7460890
  57.0260730 145.8866180  22.2128440  54.2313490 150.9533640  18.6960520
  54.0054410 150.7370810  19.6007140  53.4506020 151.3862100  18.3506490
  61.4611250 150.9597010  17.2951170  60.8620140 151.6832810  17.1114790
  62.0090860 150.8973790  16.5127620  56.6712700 151.8519220  29.3620790
  56.5756300 150.9113950  29.2121190  57.5144680 152.0734290  28.9668860
  60.0676120 149.5960550  19.3254450  60.4605690 149.9132750  18.5123140
  60.4292970 148.7172430  19.4398970  51.8023240 148.2632890  27.5154570
  51.4086630 149.1108100  27.7227350  51.1141640 147.6259260  27.7063210
  58.3768290 148.3467860  30.5851310  57.6866610 148.1540060  31.2197400
  59.1200590 148.6302500  31.1175610  49.1040290 146.1861350  21.5484650
  48.8153340 146.7564210  22.2609630  49.8486050 145.7065800  21.9115880
  49.2910520 150.1281470  12.7587370  49.2085190 151.0712230  12.9002360
  48.9393580 149.9856380  11.8799720  60.6531260 152.1866300  23.4205230
  59.9212380 152.6953110  23.7695330  60.2555600 151.3696280  23.1194010
  57.0908650 148.8620500  21.8257720  57.0944710 148.4210450  20.9762260
  57.9859770 149.1837830  21.9329540  52.9411030 148.7446990  20.7851930
  52.6011080 149.2222220  21.5418980  52.1788350 148.2912110  20.4253030
  57.1528800 149.8632580  14.8164480  57.2741620 149.8219060  15.7650300
  56.7677310 150.7256730  14.6611210  61.1157170 147.6399980  22.8328170
  61.1329910 148.0908630  23.6770020  60.8672750 146.7405620  23.0461610
  56.1650300 152.1733720  14.2147780  55.5967200 151.7251970  13.5883690
  56.8739300 152.5326500  13.6812930  64.5427920 145.0532160  28.6714550
  64.8673690 144.3221820  29.1972530  64.5784430 144.7345800  27.7695540
  57.3916620 152.9222280  23.5723130  57.7586750 152.4480850  24.3184470
  57.2021680 153.7963850  23.9131470  50.2557110 147.6665970  19.7016600
  49.9704030 147.3021640  20.5395220  50.1935970 146.9346430  19.0879740
  55.1815990 151.9630920  25.8907340  54.8773060 152.8422900  26.1157700
  56.1362450 152.0230710  25.9264780  59.9295700 146.5595230  16.4229970
  59.1160310 146.0608400  16.3475280  59.7357650 147.3993480  16.0066320
  62.6444090 150.9314880  14.7192130  63.5323710 151.2432110  14.5443470
  62.6149180 150.0587130  14.3272710  51.2379720 152.8033660  27.0378700
  50.8794660 153.4687510  27.6252040  50.9434280 151.9717210  27.4091320
  54.4392840 153.2617900  29.9218250  54.1392980 153.4075080  29.0246070
  55.2104080 152.7023190  29.8291640  64.9158360 152.2426720  14.1871990
  64.8322080 152.6740940  13.3368430  65.6352550 152.7025070  14.6198810
  49.7487770 152.8024920  13.6613300  50.6182620 153.0849720  13.9449220
  49.2578090 153.6160790  13.5462110  52.8134360 144.5335780  18.2544100
  52.6848990 144.5253680  19.2029020  51.9896380 144.8718870  17.9035110
  49.8128290 146.2926900  27.7150800  49.0986810 146.4923820  28.3203410
  50.2323330 145.5166470  28.0865600  61.3067070 148.7849210  25.4652250
  61.6747890 147.9644420  25.7931820  60.4465270 148.8451100  25.8807900
  64.6729100 147.7406150  16.2739810  64.0442260 147.8451820  15.5598040
  64.1781020 147.9602930  17.0633690  56.6413130 150.0192100  17.6897690
  55.9329280 150.4878440  18.1311300  56.9257610 149.3614110  18.3242880
  58.2669060 151.4388800  25.6890220  58.7654310 151.9134620  26.3542070
  58.4092010 150.5152320  25.8960250  60.6728560 146.7442760  19.1293480
  60.5496340 146.7628890  18.1802990  61.6213120 146.7921700  19.2491880
  54.8448150 148.3277180  15.0648400  55.6938680 148.7647330  14.9988590
  54.4779420 148.6397440  15.8920460  65.4735920 147.6556760  26.5318610
  64.9709520 148.3962160  26.8712420  66.2892580 148.0440760  26.2155400
  63.7657930 152.8989940  19.9779970  62.8248070 152.9140170  20.1527660
  64.0802000 152.1125900  20.4240270  53.7439570 154.5809540  13.5383930
  54.5102840 154.4690900  14.1009360  53.8214260 153.8847510  12.8860700
  52.4386330 152.0134610  14.2216820  52.5189920 151.0662120  14.3334220
  53.3306080 152.3441490  14.3277480  49.9657130 153.8349530  29.4572990
  50.4696150 153.2556810  30.0289220  49.2264550 154.1189760  29.9949360
  51.9980210 151.9779120  30.3523060  52.0385550 151.6792990  31.2608290
  52.8525710 152.3786730  30.1930580  55.7758600 154.5774670  15.5126570
  56.1975020 154.4114540  16.3557960  55.9009440 153.7674900  15.0181710
  53.9386020 150.5571220  28.3197550  53.4082480 150.0662170  27.6920890
  54.6074090 150.9855420  27.7855480  58.2886240 153.6012280  12.7603670
  58.8091900 152.8861300  12.3944820  58.9354640 154.2398150  13.0604180
  63.3086250 152.3636840  30.0877890  63.8907020 151.6089160  29.9998370
  63.4848020 152.8944280  29.3109370  54.4258320 147.5233590  28.3994840
  54.3315190 146.9054340  27.6745710  53.8455710 148.2499880  28.1724750
  57.1919760 146.0806830  25.4322230  56.7437060 146.1031090  24.5867780
  56.5584960 145.6825850  26.0292530  59.9343210 152.7077340  27.4372510
  60.0539420 152.1118480  28.1767350  60.7937210 152.7447030  27.0173810
  62.2731110 153.2614530  26.0135020  61.7466330 153.7857150  25.4100160
  62.6162450 153.8941920  26.6444750  54.6717500 150.6507900  12.4584730
  54.4706560 149.7875260  12.8198070  54.5009550 150.5641260  11.5206330
  56.7011980 149.2498690  28.6948330  57.2911670 148.9414540  29.3826150
  55.8832220 148.7778440  28.8508230  61.5205410 148.8664500  28.9281350
  60.8320930 148.2046040  28.8631340  62.2411430 148.4202770  29.3729810
  62.1505810 145.4616130  14.9871610  62.4308100 144.6184030  15.3431030
  61.3771540 145.6939240  15.5010360  53.4700300 147.7508520  12.4462610
  53.7726200 147.7575950  11.5381760  54.2094890 147.4006380  12.9430270
  56.6885230 146.6943140  13.4318810  56.3407230 146.0167130  12.8521260
  56.8898000 146.2332650  14.2462200  50.0290870 153.2230790  19.8283180
  49.3739710 152.9542430  19.1842880  50.8668820 153.1135270  19.3785160
  62.9781310 148.0172080  14.0501670  63.3966190 147.8303060  13.2098330
  62.6717370 147.1651130  14.3604600  66.4771040 152.9296220  17.7477470
  66.1014640 152.1624150  17.3158760  65.7474160 153.3118920  18.2352400
  51.0666800 153.6083360  24.3686520  51.4339840 153.5210760  25.2482540
  50.4977620 152.8449910  24.2693380  65.8670660 152.0767740  27.3816990
  65.6356750 151.8480490  26.4814940  66.1275210 152.9967290  27.3361880
  50.6182800 150.5192450  28.2744940  49.7238850 150.4859210  28.6138650
  51.1580350 150.7179240  29.0396190  64.3058730 147.3024170  30.1596690
  65.1828910 147.3107570  30.5430690  64.3179570 146.5655010  29.5489040
  49.2428950 150.4329720  15.7708510  48.3393030 150.6959920  15.5960170
  49.7269570 150.7040890  14.9908470  65.7522000 151.1553710  21.0484710
  66.2759480 150.6616360  20.4174880  66.3381420 151.2904070  21.7932280
  65.9311720 151.2393580  24.5704260  64.9814430 151.2057120  24.6849250
  66.1124730 152.1493690  24.3354030  51.7856160 149.4895260  13.6802890
  52.4947860 149.0678480  13.1950170  51.0696100 149.5570490  13.0486240
  51.4330320 145.5434590  12.7205540  52.1558450 146.0843530  13.0386760
  51.7054840 145.2698010  11.8447080  65.2421970 150.4127060  16.9877120
  65.7381090 150.1797930  17.7726000  65.0438040 149.5738900  16.5714760
  51.1222510 144.7940780  22.6228160  51.7698700 144.2438160  22.1823320
  51.5424350 145.0483930  23.4443970  66.6709130 149.0488010  19.5214800
  66.5608410 148.8944050  20.4597070  67.4316720 148.5208950  19.2790210
  65.0174850 144.9882140  25.9797800  65.6547070 145.6016280  26.3456990
  65.1649740 145.0242800  25.0347030  67.5599400 146.8795930  12.7620940
  68.4848710 146.7477110  12.5539230  67.5375190 146.9588750  13.7157390
  67.6337890 147.6506590  15.3877650  66.8389390 147.5851710  15.9170560
  67.8381170 148.5857230  15.3763000  50.8754510 144.9496450  25.3653480
  50.5269330 145.4060270  26.1311660  50.5442210 144.0553580  25.4475910
  58.3879330 146.1408330  28.8872900  58.3268220 146.7330160  29.6368310
  59.3279710 146.0334290  28.7423160  61.0253890 145.7978390  28.5265190
  61.6394300 146.1157680  27.8646270  61.5703450 145.3126980  29.1461050
  51.5475150 144.4772650  28.6404250  52.0958140 144.2960700  27.8770360
  51.6130460 143.6866760  29.1760560  61.7661930 144.3610530  24.8534480
  60.8921770 144.6945640  24.6507410  61.6572680 143.8883710  25.6786350
  62.6733910 146.5681400  26.2376200  62.3447270 145.7533160  25.8577930
  63.6216210 146.5251210  26.1141890  59.5136750 145.2780370  23.7927390
  58.7308540 145.7525870  24.0724150  59.2199680 144.3735200  23.6840570
  64.0657820 145.9803470  21.8376480  64.5065910 145.9248570  20.9898080
  63.7965410 146.8961480  21.9086660  65.9296390 145.6118710  19.8485300
  65.8684790 144.6679930  19.7016320  66.7088420 145.7198800  20.3938760
  50.8577160 145.5827850  16.3141110  51.6156520 145.6956730  15.7405140
  50.3954330 146.4197050  16.2684540  57.3990970 147.6967120  19.3043420
  56.5865480 147.3224010  18.9639300  57.9032610 146.9412200  19.6064610
  61.9015950 144.3609570  20.5426490  62.5045320 144.9329780  21.0175010
  61.1608940 144.9249010  20.3200390  65.0450550 144.7631130  15.8166770
  65.2401180 145.6614580  16.0834200  64.2580420 144.5318210  16.3099720
  53.2302310 146.1091900  14.8543080  53.7595070 145.3221700  14.7251030
  53.8630630 146.7883090  15.0878610  55.4240150 145.8467040  17.9088470
  54.7942890 145.1454350  18.0758600  54.8845290 146.6071170  17.6921630
  55.5495710 145.1251020  30.3440960  55.2679980 145.6284620  29.5801780
  55.9315410 144.3272770  29.9783090  62.1511170 144.5404600  30.9221430
  62.0376620 144.8599210  31.8172950  62.9680910 144.9417110  30.6258710
  59.1887360 154.3376090   3.1665440  58.4129460 153.8576530   3.4564010
  59.8400290 153.6581740   2.9921600  53.2053190 154.6495900   4.0441200
  52.3738070 154.3944610   4.4437710  53.8134170 154.7206670   4.7799120
  49.5778150 152.2103440   3.7123290  50.1494260 151.4425640   3.7126930
  49.5779690 152.5092200   2.8029900  50.8203020 147.6187800   5.4992220
  50.6405860 146.7213550   5.7794980  50.4183100 148.1659670   6.1739170
  59.6601520 149.8203660   3.4004530  60.0366340 148.9475540   3.2878200
  59.5621030 150.1562360   2.5094970  51.4389690 150.1148300   4.1074560
  52.1199800 150.3786670   4.7261960  51.1237740 149.2749170   4.4412570
  55.6314260 151.1615660   3.1947150  56.1392480 151.6596630   3.8352170
  56.1627500 150.3850860   3.0186510  67.7325190 149.3320850   6.8976500
  67.0277360 149.7202560   6.3791610  67.9983110 150.0271140   7.4997430
  53.9150360 145.8014220   7.4610570  53.9168800 146.3186610   6.6556470
  53.0854670 145.3244400   7.4380500  63.6787120 149.2554480   3.1060410
  62.9742690 149.5439370   3.6863520  64.0399280 150.0654590   2.7459970
  53.5965690 147.5124180   5.4681020  53.9382500 148.3566230   5.1734890
  52.6581500 147.6607920   5.5846360  66.7474040 148.7009270   3.4969620
  65.7998950 148.7348250   3.6285050  67.0724030 149.5148220   3.8818980
  66.1756180 154.0190800   5.5031920  65.3474810 154.0883890   5.0282050
  66.7706660 154.6045110   5.0347750  63.1398190 150.8060120   6.4486790
  62.7269370 151.6313830   6.7026780  62.4074140 150.2205160   6.2563150
  53.9859600 150.3663230   5.0904500  54.5374190 150.4758570   4.3157750
  54.5003110 150.7400830   5.8059730  53.6602330 153.8882590   8.7009840
  53.5210100 154.7605390   9.0697240  52.7783690 153.5455400   8.5557780
  66.6654760 149.8576700  10.3308910  66.0499030 150.3656370   9.8024370
  66.3451180 148.9575030  10.2734850  54.4399270 145.8300070   2.1935780
  53.9967420 146.6109610   1.8620300  54.9984260 146.1529960   2.9006720
  58.7269080 148.6968590   7.7971100  58.2648450 148.9051610   8.6091040
  58.3247190 147.8827940   7.4941770  63.7273590 149.9177540   8.9267760
  62.8767180 149.6183290   9.2476830  63.5675380 150.1619550   8.0151580
  60.8223300 151.4179290  11.0266550  61.1476710 150.5843040  10.6868780
  61.6103630 151.9407810  11.1744880  56.4775170 146.3747400   4.0525380
  56.7747500 147.2810230   3.9717400  57.0260730 145.8866180   3.4384950
  56.6712700 151.8519220  10.5877300  56.5756300 150.9113950  10.4377700
  57.5144680 152.0734290  10.1925370  51.8023240 148.2632890   8.7411080
  51.4086630 149.1108100   8.9483860  51.1141640 147.6259260   8.9319720
  58.3768290 148.3467860  11.8107820  57.6866610 148.1540060  12.4453910
  59.1200590 148.6302500  12.3432120  49.1040290 146.1861350   2.7741160
  48.8153340 146.7564210   3.4866140  49.8486050 145.7065800   3.1372390
  60.6531260 152.1866300   4.6461740  59.9212380 152.6953110   4.9951840
  60.2555600 151.3696280   4.3450520  57.0908650 148.8620500   3.0514230
  57.0944710 148.4210450   2.2018770  57.9859770 149.1837830   3.1586050
  52.9411030 148.7446990   2.0108440  52.6011080 149.2222220   2.7675490
  52.1788350 148.2912110   1.6509540  61.1157170 147.6399980   4.0584680
  61.1329910 148.0908630   4.9026530  60.8672750 146.7405620   4.2718120
  64.5427920 145.0532160   9.8971060  64.8673690 144.3221820  10.4229040
  64.5784430 144.7345800   8.9952050  57.3916620 152.9222280   4.7979640
  57.7586750 152.4480850   5.5440980  57.2021680 153.7963850   5.1387980
  55.1815990 151.9630920   7.1163850  54.8773060 152.8422900   7.3414210
  56.1362450 152.0230710   7.1521290  51.2379720 152.8033660   8.2635210
  50.8794660 153.4687510   8.8508550  50.9434280 151.9717210   8.6347830
  54.4392840 153.2617900  11.1474760  54.1392980 153.4075080  10.2502580
  55.2104080 152.7023190  11.0548150  49.8128290 146.2926900   8.9407310
  49.0986810 146.4923820   9.5459920  50.2323330 145.5166470   9.3122110
  61.3067070 148.7849210   6.6908760  61.6747890 147.9644420   7.0188330
  60.4465270 148.8451100   7.1064410  58.2669060 151.4388800   6.9146730
  58.7654310 151.9134620   7.5798580  58.4092010 150.5152320   7.1216760
  65.4735920 147.6556760   7.7575120  64.9709520 148.3962160   8.0968930
  66.2892580 148.0440760   7.4411910  49.9657130 153.8349530  10.6829500
  50.4696150 153.2556810  11.2545730  49.2264550 154.1189760  11.2205870
  51.9980210 151.9779120  11.5779570  52.0385550 151.6792990  12.4864800
  52.8525710 152.3786730  11.4187090  53.9386020 150.5571220   9.5454060
  53.4082480 150.0662170   8.9177400  54.6074090 150.9855420   9.0111990
  63.3086250 152.3636840  11.3134400  63.8907020 151.6089160  11.2254880
  63.4848020 152.8944280  10.5365880  54.4258320 147.5233590   9.6251350
  54.3315190 146.9054340   8.9002220  53.8455710 148.2499880   9.3981260
  57.1919760 146.0806830   6.6578740  56.7437060 146.1031090   5.8124290
  56.5584960 145.6825850   7.2549040  59.9343210 152.7077340   8.6629020
  60.0539420 152.1118480   9.4023860  60.7937210 152.7447030   8.2430320
  62.2731110 153.2614530   7.2391530  61.7466330 153.7857150   6.6356670
  62.6162450 153.8941920   7.8701260  56.7011980 149.2498690   9.9204840
  57.2911670 148.9414540  10.6082660  55.8832220 148.7778440  10.0764740
  61.5205410 148.8664500  10.1537860  60.8320930 148.2046040  10.0887850
  62.2411430 148.4202770  10.5986320  51.0666800 153.6083360   5.5943030
  51.4339840 153.5210760   6.4739050  50.4977620 152.8449910   5.4949890
  65.8670660 152.0767740   8.6073500  65.6356750 151.8480490   7.7071450
  66.1275210 152.9967290   8.5618390  50.6182800 150.5192450   9.5001450
  49.7238850 150.4859210   9.8395160  51.1580350 150.7179240  10.2652700
  64.3058730 147.3024170  11.3853200  65.1828910 147.3107570  11.7687200
  64.3179570 146.5655010  10.7745550  65.7522000 151.1553710   2.2741220
  66.2759480 150.6616360   1.6431390  66.3381420 151.2904070   3.0188790
  65.9311720 151.2393580   5.7960770  64.9814430 151.2057120   5.9105760
  66.1124730 152.1493690   5.5610540  51.1222510 144.7940780   3.8484670
  51.7698700 144.2438160   3.4079830  51.5424350 145.0483930   4.6700480
  65.0174850 144.9882140   7.2054310  65.6547070 145.6016280   7.5713500
  65.1649740 145.0242800   6.2603540  50.8754510 144.9496450   6.5909990
  50.5269330 145.4060270   7.3568170  50.5442210 144.0553580   6.6732420
  58.3879330 146.1408330  10.1129410  58.3268220 146.7330160  10.8624820
  59.3279710 146.0334290   9.9679670  61.0253890 145.7978390   9.7521700
  61.6394300 146.1157680   9.0902780  61.5703450 145.3126980  10.3717560
  51.5475150 144.4772650   9.8660760  52.0958140 144.2960700   9.1026870
  51.6130460 143.6866760  10.4017070  61.7661930 144.3610530   6.0790990
  60.8921770 144.6945640   5.8763920  61.6572680 143.8883710   6.9042860
  62.6733910 146.5681400   7.4632710  62.3447270 145.7533160   7.0834440
  63.6216210 146.5251210   7.3398400  59.5136750 145.2780370   5.0183900
  58.7308540 145.7525870   5.2980660  59.2199680 144.3735200   4.9097080
  64.0657820 145.9803470   3.0632990  64.5065910 145.9248570   2.2154590
  63.7965410 146.8961480   3.1343170  61.9015950 144.3609570   1.7683000
  62.5045320 144.9329780   2.2431520  61.1608940 144.9249010   1.5456900
  55.5495710 145.1251020  11.5697470  55.2679980 145.6284620  10.8058290
  55.9315410 144.3272770  11.2039600  62.1511170 144.5404600  12.1477940
  62.0376620 144.8599210  13.0429460  62.9680910 144.9417110  11.8515220
  61.0569320 133.7853580 151.4804090  60.9763370 132.8708190 151.2095800
  60.6433740 134.2820650 150.7743800  59.1887360 135.5632600 153.3613360
  58.4129460 135.0833040 153.6511930  59.8400290 134.8838250 153.1869520
  63.2094790 139.9692790 152.1412490  62.7476320 139.1980030 152.4699660
  64.0220340 139.9958860 152.6464940  53.1854450 139.9092500 154.4347140
  53.4882490 139.0190240 154.2557360  53.9298040 140.4662720 154.2069390
  51.6145140 130.8354300 148.0231510  50.7261840 131.1770270 147.9211390
  51.8986330 130.6354620 147.1312340  49.5778150 133.4359950 153.9071210
  50.1494260 132.6682150 153.9074850  49.5779690 133.7348710 152.9977820
  59.4358100 142.2550800 151.7616480  58.8169540 142.7108300 151.1910920
  60.2909880 142.4102260 151.3606180  58.6296350 138.2389790 153.3683520
  58.5604630 137.2979730 153.2072650  59.3916210 138.3291200 153.9406090
  59.6601520 131.0460170 153.5952450  60.0366340 130.1732050 153.4826120
  59.5621030 131.3818870 152.7042890  53.7906530 129.4185800 149.0569890
  53.8973280 130.3189530 149.3638650  52.8798890 129.3703770 148.7664540
  63.4425640 128.5410610 150.5280790  64.2635260 128.0507180 150.5706270
  63.4759720 129.1308270 151.2812630  55.6314260 132.3872170 153.3895070
  56.1392480 132.8853140 154.0300090  56.1627500 131.6107370 153.2134430
  60.3021450 137.1390040 149.1548390  59.6838720 137.6039490 148.5911110
  60.8144700 137.8317520 149.5717900  63.6787120 130.4810990 153.3008330
  62.9742690 130.7695880 153.8811440  64.0399280 131.2911100 152.9407890
  49.6704650 137.8246570 146.5288020  49.2932630 138.3133670 145.7972920
  49.9277720 138.4971850 147.1594550  66.7474040 129.9265780 153.6917540
  65.7998950 129.9604760 153.8232970  67.0724030 130.7404730 154.0766900
  57.2793580 126.2262960 151.9873530  57.5868560 125.6709850 151.2709030
  56.3494280 126.3607420 151.8046520  62.8308640 141.9430250 154.2780990
  62.8435800 141.5392540 153.4103250  62.2783860 142.7177540 154.1742420
  64.1254060 138.6646470 149.3671160  64.0150390 137.7220800 149.4920580
  64.1222310 139.0262110 150.2533920  59.6674340 134.2911790 148.7233650
  58.7403620 134.2249170 148.9522120  59.8199160 135.2291920 148.6088890
  59.6543420 130.5628790 145.7200810  58.7147090 130.7242750 145.8053270
  59.9726680 131.2814470 145.1736800  63.6971630 135.8532090 149.2268900
  63.0784050 135.5151640 148.5795200  63.6796080 135.2091850 149.9348090
  55.2730980 134.8176530 151.5053380  54.8687980 134.1053780 151.0099280
  55.3594100 134.4729770 152.3941420  55.7412680 138.5044090 153.6692590
  55.4440970 137.8989560 152.9900370  56.6912500 138.5421400 153.5581950
  61.8736330 135.0918900 146.2341650  62.3129610 134.2541330 146.0879470
  62.5864750 135.7248300 146.3205790  59.9831710 140.0314970 150.2022890
  60.4227620 140.7739300 149.7878280  59.9218600 140.2741540 151.1261850
  65.4553470 126.3461710 144.5482690  65.1426130 126.4388540 145.4481760
  66.2165940 126.9242740 144.4980120  51.9735610 133.7121510 149.0060030
  51.8533210 134.4383600 148.3941300  51.6636500 132.9424420 148.5287940
  50.8568610 138.5836840 151.2234850  50.4496690 138.7251430 150.3688450
  51.7481620 138.2997000 151.0206060  62.6501890 143.0184090 147.5585900
  62.4903030 142.7287030 148.4567730  62.4848600 142.2424220 147.0231130
  55.1290270 142.7982620 149.3357520  54.9532750 141.8818160 149.1225320
  54.2746010 143.1569910 149.5755320  62.3528020 140.5271650 146.1183900
  61.6593180 140.5248940 145.4586180  63.0950880 140.1030970 145.6878070
  61.9177950 142.1534360 150.1932390  62.3734900 141.3723740 150.5071010
  62.2570470 142.8641180 150.7373570  54.4399270 127.0556580 152.3883700
  53.9967420 127.8366120 152.0568220  54.9984260 127.3786470 153.0954640
  57.5558090 126.6767280 147.2689530  56.9312270 126.6727150 147.9942840
  57.4688210 125.8098240 146.8725500  56.4775170 127.6003910 154.2473300
  56.7747500 128.5066740 154.1665320  57.0260730 127.1122690 153.6332870
  54.2313490 132.1790150 150.1164950  54.0054410 131.9627320 151.0211570
  53.4506020 132.6118610 149.7710920  61.4611250 132.1853520 148.7155600
  60.8620140 132.9089320 148.5319220  62.0090860 132.1230300 147.9332050
  60.0676120 130.8217060 150.7458880  60.4605690 131.1389260 149.9327570
  60.4292970 129.9428940 150.8603400  49.1040290 127.4117860 152.9689080
  48.8153340 127.9820720 153.6814060  49.8486050 126.9322310 153.3320310
  49.2910520 131.3537980 144.1791800  49.2085190 132.2968740 144.3206790
  48.9393580 131.2112890 143.3004150  57.0908650 130.0877010 153.2462150
  57.0944710 129.6466960 152.3966690  57.9859770 130.4094340 153.3533970
  52.9411030 129.9703500 152.2056360  52.6011080 130.4478730 152.9623410
  52.1788350 129.5168620 151.8457460  57.1528800 131.0889090 146.2368910
  57.2741620 131.0475570 147.1854730  56.7677310 131.9513240 146.0815640
  56.1650300 133.3990230 145.6352210  55.5967200 132.9508480 145.0088120
  56.8739300 133.7583010 145.1017360  50.2557110 128.8922480 151.1221030
  49.9704030 128.5278150 151.9599650  50.1935970 128.1602940 150.5084170
  53.7097780 137.3948420 147.9078620  52.9360040 136.8546040 147.7477340
  54.4392410 136.8755030 147.5696380  64.4685760 136.3913780 153.7005010
  65.1884880 136.8869070 153.3101120  64.2667580 135.7131670 153.0558880
  59.9295700 127.7851740 147.8434400  59.1160310 127.2864910 147.7679710
  59.7357650 128.6249990 147.4270750  62.6444090 132.1571390 146.1396560
  63.5323710 132.4688620 145.9647900  62.6149180 131.2843640 145.7477140
  53.7535180 137.0628800 151.5457430  54.2713850 136.2597060 151.4914320
  53.3019200 137.0007940 152.3874260  58.6404680 138.3295080 146.8184730
  58.9820380 139.0737310 146.3228050  57.8117390 138.6426200 147.1809560
  64.9158360 133.4683230 145.6076420  64.8322080 133.8997450 144.7572860
  65.6352550 133.9281580 146.0403240  65.9445610 140.3225490 148.3358550
  65.3021770 139.6681110 148.6102270  65.5576270 140.7280580 147.5599220
  61.5232090 137.6510920 152.1830240  61.8755910 137.0539050 151.5231610
  60.6394420 137.3255150 152.3538490  57.6095370 138.4108610 149.5900650
  58.2966500 138.9577820 149.9708240  56.8227790 138.9549340 149.6250260
  49.7487770 134.0281430 145.0817730  50.6182620 134.3106230 145.3653650
  49.2578090 134.8417300 144.9666540  56.9122580 135.4154640 149.2026010
  57.3685360 136.2259890 149.4286200  56.5610790 135.0977780 150.0344500
  52.8134360 125.7592290 149.6748530  52.6848990 125.7510190 150.6233450
  51.9896380 126.0975380 149.3239540  64.3342990 139.2141950 144.8734900
  64.1080570 138.4972390 145.4659540  63.9439190 138.9654390 144.0356650
  50.1159020 143.2408810 145.6479360  50.4756660 143.8398150 144.9936630
  49.9751360 143.7868700 146.4214390  63.9159240 137.1313890 146.5349060
  63.6280940 137.5926580 147.3226940  64.7111410 136.6711660 146.8033280
  56.1327640 140.6240010 146.4653030  56.1237740 141.3569700 145.8497540
  55.2126000 140.3771590 146.5579990  51.7334280 135.8454900 147.2099790
  51.1262230 136.5853800 147.2195090  52.2083630 135.9354260 146.3837990
  64.6729100 128.9662660 147.6944240  64.0442260 129.0708330 146.9802470
  64.1781020 129.1859440 148.4838120  59.1187240 140.6868250 145.1278220
  59.2199220 140.4832240 144.1980200  58.2188980 140.4326530 145.3326000
  56.6413130 131.2448610 149.1102120  55.9329280 131.7134950 149.5515730
  56.9257610 130.5870620 149.7447310  60.6728560 127.9699270 150.5497910
  60.5496340 127.9885400 149.6007420  61.6213120 128.0178210 150.6696310
  57.7605350 143.2054570 149.8225890  58.0146850 143.1675960 148.9005260
  56.8117830 143.0787900 149.8154140  54.8448150 129.5533690 146.4852830
  55.6938680 129.9903840 146.4193020  54.4779420 129.8653950 147.3124890
  63.7657930 134.1246450 151.3984400  62.8248070 134.1396680 151.5732090
  64.0802000 133.3382410 151.8444700  53.7439570 135.8066050 144.9588360
  54.5102840 135.6947410 145.5213790  53.8214260 135.1104020 144.3065130
  52.4386330 133.2391120 145.6421250  52.5189920 132.2918630 145.7538650
  53.3306080 133.5698000 145.7481910  65.7683510 141.2955300 153.0738660
  65.8930930 142.1186470 153.5462470  66.6349070 141.0846030 152.7262810
  53.2401040 143.3886510 152.7455790  53.9763520 142.8401970 153.0164360
  53.6241960 144.2542520 152.6061780  50.1246520 139.4560080 148.6197300
  49.1986300 139.6981220 148.6102710  50.5902950 140.2834340 148.4982050
  56.3503350 142.5616820 144.5681360  57.1431960 142.8505650 144.1163150
  55.8307700 142.1308990 143.8893840  65.4033520 141.7886950 145.9918100
  65.1175030 141.3752090 145.1772280  65.2053070 142.7174660 145.8718620
  56.8680750 137.7820230 144.4323710  56.7631390 137.1672580 145.1585090
  56.7004970 137.2586120 143.6486720  60.1083480 136.8440260 145.0365700
  59.5593580 137.2909560 145.6808440  60.7302740 136.3389510 145.5603370
  55.7758600 135.8031180 146.9331000  56.1975020 135.6371050 147.7762390
  55.9009440 134.9931410 146.4386140  58.2886240 134.8268790 144.1808100
  58.8091900 134.1117810 143.8149250  58.9354640 135.4654660 144.4808610
  54.6717500 131.8764410 143.8789160  54.4706560 131.0131770 144.2402500
  54.5009550 131.7897770 142.9410760  62.1505810 126.6872640 146.4076040
  62.4308100 125.8440540 146.7635460  61.3771540 126.9195750 146.9214790
  53.4700300 128.9765030 143.8667040  53.7726200 128.9832460 142.9586190
  54.2094890 128.6262890 144.3634700  56.6885230 127.9199650 144.8523240
  56.3407230 127.2423640 144.2725690  56.8898000 127.4589160 145.6666630
  58.8534270 142.9080400 146.4709840  59.7485060 143.2465370 146.4928600
  58.8851900 142.1859810 145.8434120  52.4930430 138.2807450 144.6996840
  52.9305300 138.8237120 145.3554420  52.9778160 137.4554400 144.7093180
  49.7076230 141.0696480 152.1517100  50.0379240 140.2017540 151.9195740
  50.1367230 141.2755000 152.9822060  54.3038150 139.4005490 149.8119070
  54.0033690 139.2770460 150.7122980  54.1975640 138.5414080 149.4034800
  67.0730070 139.1801890 144.5145750  66.2423030 139.2478540 144.9852980
  67.2501900 140.0706010 144.2112610  66.5286530 135.9249370 147.0179950
  67.2905440 136.4946020 147.1239640  66.5440900 135.3576570 147.7888260
  50.0290870 134.4487300 151.2487610  49.3739710 134.1798940 150.6047310
  50.8668820 134.3391780 150.7989590  67.5346500 136.7799470 151.8621880
  67.9055330 135.9966790 151.4557850  68.1748430 137.4688570 151.6839180
  66.5805700 136.2183740 144.1752470  66.8554540 137.1262620 144.0471690
  66.3916440 136.1546270 145.1114460  62.9781310 129.2428590 145.4706100
  63.3966190 129.0559570 144.6302760  62.6717370 128.3907640 145.7809030
  66.4771040 134.1552730 149.1681900  66.1014640 133.3880660 148.7363190
  65.7474160 134.5375430 149.6556830  49.2428950 131.6586230 147.1912940
  48.3393030 131.9216430 147.0164600  49.7269570 131.9297400 146.4112900
  65.7522000 132.3810220 152.4689140  66.2759480 131.8872870 151.8379310
  66.3381420 132.5160580 153.2136710  51.7856160 130.7151770 145.1007320
  52.4947860 130.2934990 144.6154600  51.0696100 130.7827000 144.4690670
  51.4330320 126.7691100 144.1409970  52.1558450 127.3100040 144.4591190
  51.7054840 126.4954520 143.2651510  65.2421970 131.6383570 148.4081550
  65.7381090 131.4054440 149.1930430  65.0438040 130.7995410 147.9919190
  66.6709130 130.2744520 150.9419230  66.5608410 130.1200560 151.8801500
  67.4316720 129.7465460 150.6994640  67.5599400 128.1052440 144.1825370
  68.4848710 127.9733620 143.9743660  67.5375190 128.1845260 145.1361820
  67.6337890 128.8763100 146.8082080  66.8389390 128.8108220 147.3374990
  67.8381170 129.8113740 146.7967430  64.5756310 142.9154650 150.8020470
  65.1715380 142.5939220 150.1254890  64.8334460 142.4426470 151.5933740
  55.5564240 141.8738190 153.8066330  56.0729260 141.2625550 153.2814590
  56.2061620 142.3766970 154.2977340  64.0657820 127.2059980 153.2580910
  64.5065910 127.1505080 152.4102510  63.7965410 128.1217990 153.3291090
  65.9296390 126.8375220 151.2689730  65.8684790 125.8936440 151.1220750
  66.7088420 126.9455310 151.8143190  50.2349140 142.9767580 150.2313680
  50.0671180 142.3438260 150.9295570  49.3683650 143.1826980 149.8807870
  50.8577160 126.8084360 147.7345540  51.6156520 126.9213240 147.1609570
  50.3954330 127.6453560 147.6888970  57.3990970 128.9223630 150.7247850
  56.5865480 128.5480520 150.3843730  57.9032610 128.1668710 151.0269040
  61.9015950 125.5866080 151.9630920  62.5045320 126.1586290 152.4379440
  61.1608940 126.1505520 151.7404820  65.0450550 125.9887640 147.2371200
  65.2401180 126.8871090 147.5038630  64.2580420 125.7574720 147.7304150
  51.8411840 141.6700810 147.6763820  51.3159460 142.0508840 146.9725780
  51.7656420 142.2951580 148.3973530  53.2302310 127.3348410 146.2747510
  53.7595070 126.5478210 146.1455460  53.8630630 128.0139600 146.5083040
  55.4240150 127.0723550 149.3292900  54.7942890 126.3710860 149.4963030
  54.8845290 127.8327680 149.1126060  66.5977160 143.2288350 148.9977760
  66.7729350 142.5426090 148.3538680  65.8998730 143.7535400 148.6054430
  54.4404810 143.6183190 146.5513070  55.1723630 143.3342470 146.0036960
  54.6998480 143.3796470 147.4412450  53.6019600 139.7347920 146.5559400
  52.9728480 140.2033020 147.1045230  53.7167430 138.8897140 146.9905590
  61.0569320 133.7853580 132.7060600  60.9763370 132.8708190 132.4352310
  60.6433740 134.2820650 132.0000310  59.1887360 135.5632600 134.5869870
  58.4129460 135.0833040 134.8768440  59.8400290 134.8838250 134.4126030
  53.2053190 135.8752410 135.4645630  52.3738070 135.6201120 135.8642140
  53.8134170 135.9463180 136.2003550  63.2094790 139.9692790 133.3669000
  62.7476320 139.1980030 133.6956170  64.0220340 139.9958860 133.8721450
  53.1854450 139.9092500 135.6603650  53.4882490 139.0190240 135.4813870
  53.9298040 140.4662720 135.4325900  51.6145140 130.8354300 129.2488020
  50.7261840 131.1770270 129.1467900  51.8986330 130.6354620 128.3568850
  49.5778150 133.4359950 135.1327720  50.1494260 132.6682150 135.1331360
  49.5779690 133.7348710 134.2234330  59.4358100 142.2550800 132.9872990
  58.8169540 142.7108300 132.4167430  60.2909880 142.4102260 132.5862690
  58.6296350 138.2389790 134.5940030  58.5604630 137.2979730 134.4329160
  59.3916210 138.3291200 135.1662600  50.8203020 128.8444310 136.9196650
  50.6405860 127.9470060 137.1999410  50.4183100 129.3916180 137.5943600
  59.6601520 131.0460170 134.8208960  60.0366340 130.1732050 134.7082630
  59.5621030 131.3818870 133.9299400  53.7906530 129.4185800 130.2826400
  53.8973280 130.3189530 130.5895160  52.8798890 129.3703770 129.9921050
  63.4425640 128.5410610 131.7537300  64.2635260 128.0507180 131.7962780
  63.4759720 129.1308270 132.5069140  51.4389690 131.3404810 135.5278990
  52.1199800 131.6043180 136.1466390  51.1237740 130.5005680 135.8617000
  55.6314260 132.3872170 134.6151580  56.1392480 132.8853140 135.2556600
  56.1627500 131.6107370 134.4390940  67.7325190 130.5577360 138.3180930
  67.0277360 130.9459070 137.7996040  67.9983110 131.2527650 138.9201860
  53.9150360 127.0270730 138.8815000  53.9168800 127.5443120 138.0760900
  53.0854670 126.5500910 138.8584930  60.3021450 137.1390040 130.3804900
  59.6838720 137.6039490 129.8167620  60.8144700 137.8317520 130.7974410
  55.1653210 136.6665910 137.0588500  54.8322590 137.2934830 137.7009570
  55.3419890 137.1927790 136.2790170  63.6787120 130.4810990 134.5264840
  62.9742690 130.7695880 135.1067950  64.0399280 131.2911100 134.1664400
  53.5965690 128.7380690 136.8885450  53.9382500 129.5822740 136.5939320
  52.6581500 128.8864430 137.0050790  54.3772310 138.6346710 138.8737680
  54.9946310 139.3097790 138.5922130  53.5165430 139.0434690 138.7825180
  49.6704650 137.8246570 127.7544530  49.2932630 138.3133670 127.0229430
  49.9277720 138.4971850 128.3851060  65.2949900 140.0986120 136.7892320
  64.6113420 140.7685230 136.7808990  65.8344190 140.2966770 136.0237180
  66.7474040 129.9265780 134.9174050  65.7998950 129.9604760 135.0489480
  67.0724030 130.7404730 135.3023410  57.2793580 126.2262960 133.2130040
  57.5868560 125.6709850 132.4965540  56.3494280 126.3607420 133.0303030
  62.8308640 141.9430250 135.5037500  62.8435800 141.5392540 134.6359760
  62.2783860 142.7177540 135.3998930  64.1254060 138.6646470 130.5927670
  64.0150390 137.7220800 130.7177090  64.1222310 139.0262110 131.4790430
  62.2294080 136.8460090 136.8320110  62.6462870 136.6320200 135.9973570
  62.9533900 137.1032880 137.4028730  59.6674340 134.2911790 129.9490160
  58.7403620 134.2249170 130.1778630  59.8199160 135.2291920 129.8345400
  59.6543420 130.5628790 126.9457320  58.7147090 130.7242750 127.0309780
  59.9726680 131.2814470 126.3993310  66.1756180 135.2447310 136.9236350
  65.3474810 135.3140400 136.4486480  66.7706660 135.8301620 136.4552180
  63.6971630 135.8532090 130.4525410  63.0784050 135.5151640 129.8051710
  63.6796080 135.2091850 131.1604600  63.1398190 132.0316630 137.8691220
  62.7269370 132.8570340 138.1231210  62.4074140 131.4461670 137.6767580
  55.2730980 134.8176530 132.7309890  54.8687980 134.1053780 132.2355790
  55.3594100 134.4729770 133.6197930  55.7412680 138.5044090 134.8949100
  55.4440970 137.8989560 134.2156880  56.6912500 138.5421400 134.7838460
  53.9859600 131.5919740 136.5108930  54.5374190 131.7015080 135.7362180
  54.5003110 131.9657340 137.2264160  63.8298290 142.0775960 138.5572200
  63.3528850 142.8848150 138.3644810  63.1460080 141.4254290 138.7098410
  54.8331110 138.2425780 141.5456900  53.9359640 138.4665750 141.7930300
  54.8583980 138.3660720 140.5968300  61.8736330 135.0918900 127.4598160
  62.3129610 134.2541330 127.3135980  62.5864750 135.7248300 127.5462300
  53.6602330 135.1139100 140.1214270  53.5210100 135.9861900 140.4901670
  52.7783690 134.7711910 139.9762210  59.9831710 140.0314970 131.4279400
  60.4227620 140.7739300 131.0134790  59.9218600 140.2741540 132.3518360
  55.4582680 141.0560800 142.3299420  55.4298110 141.4603750 141.4627850
  55.2947650 140.1271160 142.1671020  65.4553470 126.3461710 125.7739200
  65.1426130 126.4388540 126.6738270  66.2165940 126.9242740 125.7236630
  51.9735610 133.7121510 130.2316540  51.8533210 134.4383600 129.6197810
  51.6636500 132.9424420 129.7544450  67.4097500 141.8387900 143.6263590
  67.8857220 142.3170790 144.3052670  68.0304660 141.7705390 142.9009090
  49.6120980 136.8836650 136.0385180  49.6901400 137.0185420 135.0940900
  50.2262660 136.1752540 136.2313300  50.8568610 138.5836840 132.4491360
  50.4496690 138.7251430 131.5944960  51.7481620 138.2997000 132.2462570
  66.8130750 139.0300750 140.7863600  66.9393810 138.7912630 139.8680780
  66.8552130 138.1985290 141.2585680  60.6747490 142.7328750 139.3558410
  61.1892160 142.6436760 140.1580840  59.8316570 143.0788450 139.6486320
  62.6501890 143.0184090 128.7842410  62.4903030 142.7287030 129.6824240
  62.4848600 142.2424220 128.2487640  55.1290270 142.7982620 130.5614030
  54.9532750 141.8818160 130.3481830  54.2746010 143.1569910 130.8011830
  62.3528020 140.5271650 127.3440410  61.6593180 140.5248940 126.6842690
  63.0950880 140.1030970 126.9134580  61.9177950 142.1534360 131.4188900
  62.3734900 141.3723740 131.7327520  62.2570470 142.8641180 131.9630080
  66.6654760 131.0833210 141.7513340  66.0499030 131.5912880 141.2228800
  66.3451180 130.1831540 141.6939280  49.6680500 137.9250820 138.5779640
  49.8311540 137.4556180 137.7599010  50.1332950 137.4174380 139.2428480
  54.4399270 127.0556580 133.6140210  53.9967420 127.8366120 133.2824730
  54.9984260 127.3786470 134.3211150  58.7269080 129.9225100 139.2175530
  58.2648450 130.1308120 140.0295470  58.3247190 129.1084450 138.9146200
  63.7273590 131.1434050 140.3472190  62.8767180 130.8439800 140.6681260
  63.5675380 131.3876060 139.4356010  60.8223300 132.6435800 142.4470980
  61.1476710 131.8099550 142.1073210  61.6103630 133.1664320 142.5949310
  57.5558090 126.6767280 128.4946040  56.9312270 126.6727150 129.2199350
  57.4688210 125.8098240 128.0982010  56.4775170 127.6003910 135.4729810
  56.7747500 128.5066740 135.3921830  57.0260730 127.1122690 134.8589380
  54.2313490 132.1790150 131.3421460  54.0054410 131.9627320 132.2468080
  53.4506020 132.6118610 130.9967430  61.4611250 132.1853520 129.9412110
  60.8620140 132.9089320 129.7575730  62.0090860 132.1230300 129.1588560
  56.6712700 133.0775730 142.0081730  56.5756300 132.1370460 141.8582130
  57.5144680 133.2990800 141.6129800  60.0676120 130.8217060 131.9715390
  60.4605690 131.1389260 131.1584080  60.4292970 129.9428940 132.0859910
  51.8023240 129.4889400 140.1615510  51.4086630 130.3364610 140.3688290
  51.1141640 128.8515770 140.3524150  58.3768290 129.5724370 143.2312250
  57.6866610 129.3796570 143.8658340  59.1200590 129.8559010 143.7636550
  49.1040290 127.4117860 134.1945590  48.8153340 127.9820720 134.9070570
  49.8486050 126.9322310 134.5576820  49.2910520 131.3537980 125.4048310
  49.2085190 132.2968740 125.5463300  48.9393580 131.2112890 124.5260660
  60.6531260 133.4122810 136.0666170  59.9212380 133.9209620 136.4156270
  60.2555600 132.5952790 135.7654950  57.0908650 130.0877010 134.4718660
  57.0944710 129.6466960 133.6223200  57.9859770 130.4094340 134.5790480
  52.9411030 129.9703500 133.4312870  52.6011080 130.4478730 134.1879920
  52.1788350 129.5168620 133.0713970  57.1528800 131.0889090 127.4625420
  57.2741620 131.0475570 128.4111240  56.7677310 131.9513240 127.3072150
  61.1157170 128.8656490 135.4789110  61.1329910 129.3165140 136.3230960
  60.8672750 127.9662130 135.6922550  56.1650300 133.3990230 126.8608720
  55.5967200 132.9508480 126.2344630  56.8739300 133.7583010 126.3273870
  64.5427920 126.2788670 141.3175490  64.8673690 125.5478330 141.8433470
  64.5784430 125.9602310 140.4156480  51.2419480 137.3002250 140.7375450
  50.8574270 136.6595920 141.3358410  51.5531670 138.0038370 141.3070180
  57.3916620 134.1478790 136.2184070  57.7586750 133.6737360 136.9645410
  57.2021680 135.0220360 136.5592410  50.2557110 128.8922480 132.3477540
  49.9704030 128.5278150 133.1856160  50.1935970 128.1602940 131.7340680
  55.1815990 133.1887430 138.5368280  54.8773060 134.0679410 138.7618640
  56.1362450 133.2487220 138.5725720  53.7097780 137.3948420 129.1335130
  52.9360040 136.8546040 128.9733850  54.4392410 136.8755030 128.7952890
  64.4685760 136.3913780 134.9261520  65.1884880 136.8869070 134.5357630
  64.2667580 135.7131670 134.2815390  59.9295700 127.7851740 129.0690910
  59.1160310 127.2864910 128.9936220  59.7357650 128.6249990 128.6527260
  59.8504560 136.4622840 140.8130520  59.7841870 135.5418510 140.5588110
  59.2209700 136.5598280 141.5275160  62.6444090 132.1571390 127.3653070
  63.5323710 132.4688620 127.1904410  62.6149180 131.2843640 126.9733650
  53.7535180 137.0628800 132.7713940  54.2713850 136.2597060 132.7170830
  53.3019200 137.0007940 133.6130770  58.6404680 138.3295080 128.0441240
  58.9820380 139.0737310 127.5484560  57.8117390 138.6426200 128.4066070
  51.2379720 134.0290170 139.6839640  50.8794660 134.6944020 140.2712980
  50.9434280 133.1973720 140.0552260  54.4392840 134.4874410 142.5679190
  54.1392980 134.6331590 141.6707010  55.2104080 133.9279700 142.4752580
  59.7821290 139.2843410 140.5634320  59.7965830 138.3524370 140.3453230
  59.0746390 139.3703170 141.2024090  64.9158360 133.4683230 126.8332930
  64.8322080 133.8997450 125.9829370  65.6352550 133.9281580 127.2659750
  65.9932500 135.9250750 139.9102900  65.2680690 136.5179530 139.7132290
  66.5207960 135.9174290 139.1116270  65.9445610 140.3225490 129.5615060
  65.3021770 139.6681110 129.8358780  65.5576270 140.7280580 128.7855730
  61.5232090 137.6510920 133.4086750  61.8755910 137.0539050 132.7488120
  60.6394420 137.3255150 133.5795000  57.6095370 138.4108610 130.8157160
  58.2966500 138.9577820 131.1964750  56.8227790 138.9549340 130.8506770
  49.7487770 134.0281430 126.3074240  50.6182620 134.3106230 126.5910160
  49.2578090 134.8417300 126.1923050  56.9122580 135.4154640 130.4282520
  57.3685360 136.2259890 130.6542710  56.5610790 135.0977780 131.2601010
  59.2155190 140.9260980 137.6574820  59.8597410 141.1320360 138.3348240
  59.5784630 140.1649380 137.2045670  52.8134360 125.7592290 130.9005040
  52.6848990 125.7510190 131.8489960  51.9896380 126.0975380 130.5496050
  60.4887270 138.9293330 136.3752270  61.1309500 138.2286490 136.4884440
  61.0136620 139.7091770 136.1949160  64.3342990 139.2141950 126.0991410
  64.1080570 138.4972390 126.6916050  63.9439190 138.9654390 125.2613160
  62.2624890 139.7288230 139.5788330  62.5981130 140.3154920 140.2566250
  61.3425230 139.5980940 139.8086120  50.1159020 143.2408810 126.8735870
  50.4756660 143.8398150 126.2193140  49.9751360 143.7868700 127.6470900
  49.8128290 127.5183410 140.3611740  49.0986810 127.7180330 140.9664350
  50.2323330 126.7422980 140.7326540  63.9159240 137.1313890 127.7605570
  63.6280940 137.5926580 128.5483450  64.7111410 136.6711660 128.0289790
  50.1000880 141.5063670 141.3478270  50.2092000 140.5658410 141.2073660
  49.4481440 141.7718420 140.6992000  58.0913470 139.7779560 142.7476390
  57.7710340 139.0588800 143.2922080  57.4171830 140.4534630 142.8212450
  56.1327640 140.6240010 127.6909540  56.1237740 141.3569700 127.0754050
  55.2126000 140.3771590 127.7836500  51.7334280 135.8454900 128.4356300
  51.1262230 136.5853800 128.4451600  52.2083630 135.9354260 127.6094500
  61.3067070 130.0105720 138.1113190  61.6747890 129.1900930 138.4392760
  60.4465270 130.0707610 138.5268840  64.6729100 128.9662660 128.9200750
  64.0442260 129.0708330 128.2058980  64.1781020 129.1859440 129.7094630
  59.1187240 140.6868250 126.3534730  59.2199220 140.4832240 125.4236710
  58.2188980 140.4326530 126.5582510  56.6413130 131.2448610 130.3358630
  55.9329280 131.7134950 130.7772240  56.9257610 130.5870620 130.9703820
  58.2669060 132.6645310 138.3351160  58.7654310 133.1391130 139.0003010
  58.4092010 131.7408830 138.5421190  60.6728560 127.9699270 131.7754420
  60.5496340 127.9885400 130.8263930  61.6213120 128.0178210 131.8952820
  57.7605350 143.2054570 131.0482400  58.0146850 143.1675960 130.1261770
  56.8117830 143.0787900 131.0410650  54.8448150 129.5533690 127.7109340
  55.6938680 129.9903840 127.6449530  54.4779420 129.8653950 128.5381400
  65.4735920 128.8813270 139.1779550  64.9709520 129.6218670 139.5173360
  66.2892580 129.2697270 138.8616340  63.7657930 134.1246450 132.6240910
  62.8248070 134.1396680 132.7988600  64.0802000 133.3382410 133.0701210
  53.7439570 135.8066050 126.1844870  54.5102840 135.6947410 126.7470300
  53.8214260 135.1104020 125.5321640  52.4386330 133.2391120 126.8677760
  52.5189920 132.2918630 126.9795160  53.3306080 133.5698000 126.9738420
  65.7683510 141.2955300 134.2995170  65.8930930 142.1186470 134.7718980
  66.6349070 141.0846030 133.9519320  53.2401040 143.3886510 133.9712300
  53.9763520 142.8401970 134.2420870  53.6241960 144.2542520 133.8318290
  50.1246520 139.4560080 129.8453810  49.1986300 139.6981220 129.8359220
  50.5902950 140.2834340 129.7238560  52.2459320 142.5732580 143.1597880
  53.0472050 142.8944630 143.5733280  51.7311140 142.2128160 143.8817790
  56.3503350 142.5616820 125.7937870  57.1431960 142.8505650 125.3419660
  55.8307700 142.1308990 125.1150350  61.0823950 138.6812450 143.1073290
  60.4762110 138.7044050 142.3669040  60.7778060 137.9495490 143.6440540
  62.5124320 142.4092740 141.7182700  63.4646070 142.3250760 141.6682940
  62.3652540 143.0734450 142.3916490  65.4033520 141.7886950 127.2174610
  65.1175030 141.3752090 126.4028790  65.2053070 142.7174660 127.0975130
  49.9657130 135.0606040 142.1033930  50.4696150 134.4813320 142.6750160
  49.2264550 135.3446270 142.6410300  56.8680750 137.7820230 125.6580220
  56.7631390 137.1672580 126.3841600  56.7004970 137.2586120 124.8743230
  57.0195070 136.4677030 141.6369450  56.2540740 137.0362030 141.5524120
  57.2011030 136.1753240 140.7437680  60.1083480 136.8440260 126.2622210
  59.5593580 137.2909560 126.9064950  60.7302740 136.3389510 126.7859880
  64.1618420 138.1982360 142.1944470  64.9027890 138.5358120 141.6911930
  63.3991100 138.3674420 141.6414240  51.9980210 133.2035630 142.9984000
  52.0385550 132.9049500 143.9069230  52.8525710 133.6043240 142.8391520
  55.7758600 135.8031180 128.1587510  56.1975020 135.6371050 129.0018900
  55.9009440 134.9931410 127.6642650  53.9386020 131.7827730 140.9658490
  53.4082480 131.2918680 140.3381830  54.6074090 132.2111930 140.4316420
  58.2886240 134.8268790 125.4064610  58.8091900 134.1117810 125.0405760
  58.9354640 135.4654660 125.7065120  62.8364080 136.2497190 140.7299680
  63.2505100 136.4042270 141.5790100  61.9015080 136.3752410 140.8925460
  63.3086250 133.5893350 142.7338830  63.8907020 132.8345670 142.6459310
  63.4848020 134.1200790 141.9570310  54.4258320 128.7490100 141.0455780
  54.3315190 128.1310850 140.3206650  53.8455710 129.4756390 140.8185690
  57.1919760 127.3063340 138.0783170  56.7437060 127.3287600 137.2328720
  56.5584960 126.9082360 138.6753470  57.5979310 136.2017670 138.6995610
  58.0167420 137.0450400 138.5271850  56.6787940 136.3389710 138.4702390
  59.9343210 133.9333850 140.0833450  60.0539420 133.3374990 140.8228290
  60.7937210 133.9703540 139.6634750  62.2731110 134.4871040 138.6595960
  61.7466330 135.0113660 138.0561100  62.6162450 135.1198430 139.2905690
  54.6717500 131.8764410 125.1045670  54.4706560 131.0131770 125.4659010
  54.5009550 131.7897770 124.1667270  55.4486730 142.5070680 139.8153340
  54.9107820 143.2316740 139.4962040  55.7020690 142.0301020 139.0250680
  56.7011980 130.4755200 141.3409270  57.2911670 130.1671050 142.0287090
  55.8832220 130.0034950 141.4969170  61.5205410 130.0921010 141.5742290
  60.8320930 129.4302550 141.5092280  62.2411430 129.6459280 142.0190750
  62.1505810 126.6872640 127.6332550  62.4308100 125.8440540 127.9891970
  61.3771540 126.9195750 128.1471300  53.4700300 128.9765030 125.0923550
  53.7726200 128.9832460 124.1842700  54.2094890 128.6262890 125.5891210
  58.3048940 143.7421890 140.0739990  58.2307640 144.6457030 140.3812360
  57.4027780 143.4233790 140.0462060  56.6885230 127.9199650 126.0779750
  56.3407230 127.2423640 125.4982200  56.8898000 127.4589160 126.8923140
  58.8534270 142.9080400 127.6966350  59.7485060 143.2465370 127.7185110
  58.8851900 142.1859810 127.0690630  52.4930430 138.2807450 125.9253350
  52.9305300 138.8237120 126.5810930  52.9778160 137.4554400 125.9349690
  49.7076230 141.0696480 133.3773610  50.0379240 140.2017540 133.1452250
  50.1367230 141.2755000 134.2078570  54.3038150 139.4005490 131.0375580
  54.0033690 139.2770460 131.9379490  54.1975640 138.5414080 130.6291310
  50.1966440 141.9367070 136.1155240  49.7597430 142.1167870 136.9479390
  50.7644120 142.6941690 135.9736960  65.8328620 141.4384070 140.4032550
  65.2330610 141.4976630 139.6596470  65.9622520 140.4989050 140.5329400
  67.0730070 139.1801890 125.7402260  66.2423030 139.2478540 126.2109490
  67.2501900 140.0706010 125.4369120  66.5286530 135.9249370 128.2436460
  67.2905440 136.4946020 128.3496150  66.5440900 135.3576570 129.0144770
  50.0290870 134.4487300 132.4744120  49.3739710 134.1798940 131.8303820
  50.8668820 134.3391780 132.0246100  67.5346500 136.7799470 133.0878390
  67.9055330 135.9966790 132.6814360  68.1748430 137.4688570 132.9095690
  64.5180260 138.1636050 138.5008710  63.7040100 138.5933210 138.7634500
  64.9254460 138.7754460 137.8877760  66.5805700 136.2183740 125.4008980
  66.8554540 137.1262620 125.2728200  66.3916440 136.1546270 126.3370970
  62.9781310 129.2428590 126.6962610  63.3966190 129.0559570 125.8559270
  62.6717370 128.3907640 127.0065540  66.4771040 134.1552730 130.3938410
  66.1014640 133.3880660 129.9619700  65.7474160 134.5375430 130.8813340
  51.0666800 134.8339870 137.0147460  51.4339840 134.7467270 137.8943480
  50.4977620 134.0706420 136.9154320  65.8670660 133.3024250 140.0277930
  65.6356750 133.0737000 139.1275880  66.1275210 134.2223800 139.9822820
  50.6182800 131.7448960 140.9205880  49.7238850 131.7115720 141.2599590
  51.1580350 131.9435750 141.6857130  64.3058730 128.5280680 142.8057630
  65.1828910 128.5364080 143.1891630  64.3179570 127.7911520 142.1949980
  49.2428950 131.6586230 128.4169450  48.3393030 131.9216430 128.2421110
  49.7269570 131.9297400 127.6369410  65.7522000 132.3810220 133.6945650
  66.2759480 131.8872870 133.0635820  66.3381420 132.5160580 134.4393220
  65.9311720 132.4650090 137.2165200  64.9814430 132.4313630 137.3310190
  66.1124730 133.3750200 136.9814970  51.7856160 130.7151770 126.3263830
  52.4947860 130.2934990 125.8411110  51.0696100 130.7827000 125.6947180
  51.4330320 126.7691100 125.3666480  52.1558450 127.3100040 125.6847700
  51.7054840 126.4954520 124.4908020  65.2421970 131.6383570 129.6338060
  65.7381090 131.4054440 130.4186940  65.0438040 130.7995410 129.2175700
  51.1222510 126.0197290 135.2689100  51.7698700 125.4694670 134.8284260
  51.5424350 126.2740440 136.0904910  66.6709130 130.2744520 132.1675740
  66.5608410 130.1200560 133.1058010  67.4316720 129.7465460 131.9251150
  65.0174850 126.2138650 138.6258740  65.6547070 126.8272790 138.9917930
  65.1649740 126.2499310 137.6807970  67.5599400 128.1052440 125.4081880
  68.4848710 127.9733620 125.2000170  67.5375190 128.1845260 126.3618330
  67.6337890 128.8763100 128.0338590  66.8389390 128.8108220 128.5631500
  67.8381170 129.8113740 128.0223940  64.5756310 142.9154650 132.0276980
  65.1715380 142.5939220 131.3511400  64.8334460 142.4426470 132.8190250
  50.8754510 126.1752960 138.0114420  50.5269330 126.6316780 138.7772600
  50.5442210 125.2810090 138.0936850  52.4818880 139.3472560 142.1767610
  52.4388510 138.9765470 143.0582070  52.6129890 140.2850130 142.3169430
  56.1824910 140.9032150 137.7777330  55.9416270 141.1706710 136.8907850
  57.1227550 141.0737880 137.8328190  58.3879330 127.3664840 141.5333840
  58.3268220 127.9586670 142.2829250  59.3279710 127.2590800 141.3884100
  61.0253890 127.0234900 141.1726130  61.6394300 127.3414190 140.5107210
  61.5703450 126.5383490 141.7921990  67.4429070 142.9226530 138.5787970
  66.9487350 143.3195400 137.8615100  66.8342360 142.2975740 138.9725250
  51.5475150 125.7029160 141.2865190  52.0958140 125.5217210 140.5231300
  51.6130460 124.9123270 141.8221500  52.3206910 142.2934810 139.2965390
  51.7267230 142.1619510 140.0355430  52.3130750 141.4572950 138.8307490
  61.7661930 125.5867040 137.4995420  60.8921770 125.9202150 137.2968350
  61.6572680 125.1140220 138.3247290  62.6733910 127.7937910 138.8837140
  62.3447270 126.9789670 138.5038870  63.6216210 127.7507720 138.7602830
  65.1268520 143.5649950 135.8574710  64.6671490 144.3165760 135.4832730
  64.4980980 142.8456420 135.7989510  51.9519140 139.6593190 138.2473430
  51.2253200 139.0398480 138.1799380  52.0128290 140.0533800 137.3771510
  55.5564240 141.8738190 135.0322840  56.0729260 141.2625550 134.5071100
  56.2061620 142.3766970 135.5233850  58.2959740 142.7646680 135.8591820
  58.5837550 142.5100980 134.9824830  58.8082960 142.2124040 136.4497390
  59.5136750 126.5036880 136.4388330  58.7308540 126.9782380 136.7185090
  59.2199680 125.5991710 136.3301510  64.0657820 127.2059980 134.4837420
  64.5065910 127.1505080 133.6359020  63.7965410 128.1217990 134.5547600
  65.9296390 126.8375220 132.4946240  65.8684790 125.8936440 132.3477260
  66.7088420 126.9455310 133.0399700  50.2349140 142.9767580 131.4570190
  50.0671180 142.3438260 132.1552080  49.3683650 143.1826980 131.1064380
  50.8577160 126.8084360 128.9602050  51.6156520 126.9213240 128.3866080
  50.3954330 127.6453560 128.9145480  57.3990970 128.9223630 131.9504360
  56.5865480 128.5480520 131.6100240  57.9032610 128.1668710 132.2525550
  61.9015950 125.5866080 133.1887430  62.5045320 126.1586290 133.6635950
  61.1608940 126.1505520 132.9661330  65.0450550 125.9887640 128.4627710
  65.2401180 126.8871090 128.7295140  64.2580420 125.7574720 128.9560660
  51.8411840 141.6700810 128.9020330  51.3159460 142.0508840 128.1982290
  51.7656420 142.2951580 129.6230040  53.2302310 127.3348410 127.5004020
  53.7595070 126.5478210 127.3711970  53.8630630 128.0139600 127.7339550
  55.4240150 127.0723550 130.5549410  54.7942890 126.3710860 130.7219540
  54.8845290 127.8327680 130.3382570  58.3632100 143.6862780 143.2260020
  59.2899410 143.4507050 143.2695980  58.3482530 144.5134780 142.7446050
  66.5977160 143.2288350 130.2234270  66.7729350 142.5426090 129.5795190
  65.8998730 143.7535400 129.8310940  55.5495710 126.3507530 142.9901900
  55.2679980 126.8541130 142.2262720  55.9315410 125.5529280 142.6244030
  54.4404810 143.6183190 127.7769580  55.1723630 143.3342470 127.2293470
  54.6998480 143.3796470 128.6668960  53.6019600 139.7347920 127.7815910
  52.9728480 140.2033020 128.3301740  53.7167430 138.8897140 128.2162100
  62.1511170 125.7661110 143.5682370  62.0376620 126.0855720 144.4633890
  62.9680910 126.1673620 143.2719650  64.9309660 142.9132640 143.0501060
  65.7234980 142.4181870 142.8427020  65.2242810 143.5922780 143.6576670
  61.0569320 133.7853580 113.9317110  60.9763370 132.8708190 113.6608820
  60.6433740 134.2820650 113.2256820  59.1887360 135.5632600 115.8126380
  58.4129460 135.0833040 116.1024950  59.8400290 134.8838250 115.6382540
  53.2053190 135.8752410 116.6902140  52.3738070 135.6201120 117.0898650
  53.8134170 135.9463180 117.4260060  63.2094790 139.9692790 114.5925510
  62.7476320 139.1980030 114.9212680  64.0220340 139.9958860 115.0977960
  53.1854450 139.9092500 116.8860160  53.4882490 139.0190240 116.7070380
  53.9298040 140.4662720 116.6582410  51.6145140 130.8354300 110.4744530
  50.7261840 131.1770270 110.3724410  51.8986330 130.6354620 109.5825360
  49.5778150 133.4359950 116.3584230  50.1494260 132.6682150 116.3587870
  49.5779690 133.7348710 115.4490840  59.4358100 142.2550800 114.2129500
  58.8169540 142.7108300 113.6423940  60.2909880 142.4102260 113.8119200
  58.6296350 138.2389790 115.8196540  58.5604630 137.2979730 115.6585670
  59.3916210 138.3291200 116.3919110  50.8203020 128.8444310 118.1453160
  50.6405860 127.9470060 118.4255920  50.4183100 129.3916180 118.8200110
  59.6601520 131.0460170 116.0465470  60.0366340 130.1732050 115.9339140
  59.5621030 131.3818870 115.1555910  51.4389690 131.3404810 116.7535500
  52.1199800 131.6043180 117.3722900  51.1237740 130.5005680 117.0873510
  55.6314260 132.3872170 115.8408090  56.1392480 132.8853140 116.4813110
  56.1627500 131.6107370 115.6647450  67.7325190 130.5577360 119.5437440
  67.0277360 130.9459070 119.0252550  67.9983110 131.2527650 120.1458370
  53.9150360 127.0270730 120.1071510  53.9168800 127.5443120 119.3017410
  53.0854670 126.5500910 120.0841440  60.3021450 137.1390040 111.6061410
  59.6838720 137.6039490 111.0424130  60.8144700 137.8317520 112.0230920
  55.1653210 136.6665910 118.2845010  54.8322590 137.2934830 118.9266080
  55.3419890 137.1927790 117.5046680  53.5965690 128.7380690 118.1141960
  53.9382500 129.5822740 117.8195830  52.6581500 128.8864430 118.2307300
  54.3772310 138.6346710 120.0994190  54.9946310 139.3097790 119.8178640
  53.5165430 139.0434690 120.0081690  49.6704650 137.8246570 108.9801040
  49.2932630 138.3133670 108.2485940  49.9277720 138.4971850 109.6107570
  65.2949900 140.0986120 118.0148830  64.6113420 140.7685230 118.0065500
  65.8344190 140.2966770 117.2493690  66.7474040 129.9265780 116.1430560
  65.7998950 129.9604760 116.2745990  67.0724030 130.7404730 116.5279920
  62.8308640 141.9430250 116.7294010  62.8435800 141.5392540 115.8616270
  62.2783860 142.7177540 116.6255440  64.1254060 138.6646470 111.8184180
  64.0150390 137.7220800 111.9433600  64.1222310 139.0262110 112.7046940
  62.2294080 136.8460090 118.0576620  62.6462870 136.6320200 117.2230080
  62.9533900 137.1032880 118.6285240  59.6674340 134.2911790 111.1746670
  58.7403620 134.2249170 111.4035140  59.8199160 135.2291920 111.0601910
  66.1756180 135.2447310 118.1492860  65.3474810 135.3140400 117.6742990
  66.7706660 135.8301620 117.6808690  63.6971630 135.8532090 111.6781920
  63.0784050 135.5151640 111.0308220  63.6796080 135.2091850 112.3861110
  63.1398190 132.0316630 119.0947730  62.7269370 132.8570340 119.3487720
  62.4074140 131.4461670 118.9024090  55.2730980 134.8176530 113.9566400
  54.8687980 134.1053780 113.4612300  55.3594100 134.4729770 114.8454440
  55.7412680 138.5044090 116.1205610  55.4440970 137.8989560 115.4413390
  56.6912500 138.5421400 116.0094970  53.9859600 131.5919740 117.7365440
  54.5374190 131.7015080 116.9618690  54.5003110 131.9657340 118.4520670
  63.8298290 142.0775960 119.7828710  63.3528850 142.8848150 119.5901320
  63.1460080 141.4254290 119.9354920  54.8331110 138.2425780 122.7713410
  53.9359640 138.4665750 123.0186810  54.8583980 138.3660720 121.8224810
  61.8736330 135.0918900 108.6854670  62.3129610 134.2541330 108.5392490
  62.5864750 135.7248300 108.7718810  53.6602330 135.1139100 121.3470780
  53.5210100 135.9861900 121.7158180  52.7783690 134.7711910 121.2018720
  59.9831710 140.0314970 112.6535910  60.4227620 140.7739300 112.2391300
  59.9218600 140.2741540 113.5774870  55.4582680 141.0560800 123.5555930
  55.4298110 141.4603750 122.6884360  55.2947650 140.1271160 123.3927530
  51.9735610 133.7121510 111.4573050  51.8533210 134.4383600 110.8454320
  51.6636500 132.9424420 110.9800960  67.4097500 141.8387900 124.8520100
  67.8857220 142.3170790 125.5309180  68.0304660 141.7705390 124.1265600
  49.6120980 136.8836650 117.2641690  49.6901400 137.0185420 116.3197410
  50.2262660 136.1752540 117.4569810  50.8568610 138.5836840 113.6747870
  50.4496690 138.7251430 112.8201470  51.7481620 138.2997000 113.4719080
  66.8130750 139.0300750 122.0120110  66.9393810 138.7912630 121.0937290
  66.8552130 138.1985290 122.4842190  60.6747490 142.7328750 120.5814920
  61.1892160 142.6436760 121.3837350  59.8316570 143.0788450 120.8742830
  62.6501890 143.0184090 110.0098920  62.4903030 142.7287030 110.9080750
  62.4848600 142.2424220 109.4744150  55.1290270 142.7982620 111.7870540
  54.9532750 141.8818160 111.5738340  54.2746010 143.1569910 112.0268340
  62.3528020 140.5271650 108.5696920  61.6593180 140.5248940 107.9099200
  63.0950880 140.1030970 108.1391090  61.9177950 142.1534360 112.6445410
  62.3734900 141.3723740 112.9584030  62.2570470 142.8641180 113.1886590
  66.6654760 131.0833210 122.9769850  66.0499030 131.5912880 122.4485310
  66.3451180 130.1831540 122.9195790  49.6680500 137.9250820 119.8036150
  49.8311540 137.4556180 118.9855520  50.1332950 137.4174380 120.4684990
  54.4399270 127.0556580 114.8396720  53.9967420 127.8366120 114.5081240
  54.9984260 127.3786470 115.5467660  58.7269080 129.9225100 120.4432040
  58.2648450 130.1308120 121.2551980  58.3247190 129.1084450 120.1402710
  63.7273590 131.1434050 121.5728700  62.8767180 130.8439800 121.8937770
  63.5675380 131.3876060 120.6612520  60.8223300 132.6435800 123.6727490
  61.1476710 131.8099550 123.3329720  61.6103630 133.1664320 123.8205820
  56.4775170 127.6003910 116.6986320  56.7747500 128.5066740 116.6178340
  57.0260730 127.1122690 116.0845890  56.6712700 133.0775730 123.2338240
  56.5756300 132.1370460 123.0838640  57.5144680 133.2990800 122.8386310
  51.8023240 129.4889400 121.3872020  51.4086630 130.3364610 121.5944800
  51.1141640 128.8515770 121.5780660  58.3768290 129.5724370 124.4568760
  57.6866610 129.3796570 125.0914850  59.1200590 129.8559010 124.9893060
  49.1040290 127.4117860 115.4202100  48.8153340 127.9820720 116.1327080
  49.8486050 126.9322310 115.7833330  49.2910520 131.3537980 106.6304820
  49.2085190 132.2968740 106.7719810  48.9393580 131.2112890 105.7517170
  60.6531260 133.4122810 117.2922680  59.9212380 133.9209620 117.6412780
  60.2555600 132.5952790 116.9911460  52.9411030 129.9703500 114.6569380
  52.6011080 130.4478730 115.4136430  52.1788350 129.5168620 114.2970480
  56.1650300 133.3990230 108.0865230  55.5967200 132.9508480 107.4601140
  56.8739300 133.7583010 107.5530380  64.5427920 126.2788670 122.5432000
  64.8673690 125.5478330 123.0689980  64.5784430 125.9602310 121.6412990
  51.2419480 137.3002250 121.9631960  50.8574270 136.6595920 122.5614920
  51.5531670 138.0038370 122.5326690  57.3916620 134.1478790 117.4440580
  57.7586750 133.6737360 118.1901920  57.2021680 135.0220360 117.7848920
  50.2557110 128.8922480 113.5734050  49.9704030 128.5278150 114.4112670
  50.1935970 128.1602940 112.9597190  55.1815990 133.1887430 119.7624790
  54.8773060 134.0679410 119.9875150  56.1362450 133.2487220 119.7982230
  53.7097780 137.3948420 110.3591640  52.9360040 136.8546040 110.1990360
  54.4392410 136.8755030 110.0209400  64.4685760 136.3913780 116.1518030
  65.1884880 136.8869070 115.7614140  64.2667580 135.7131670 115.5071900
  59.8504560 136.4622840 122.0387030  59.7841870 135.5418510 121.7844620
  59.2209700 136.5598280 122.7531670  53.7535180 137.0628800 113.9970450
  54.2713850 136.2597060 113.9427340  53.3019200 137.0007940 114.8387280
  58.6404680 138.3295080 109.2697750  58.9820380 139.0737310 108.7741070
  57.8117390 138.6426200 109.6322580  51.2379720 134.0290170 120.9096150
  50.8794660 134.6944020 121.4969490  50.9434280 133.1973720 121.2808770
  54.4392840 134.4874410 123.7935700  54.1392980 134.6331590 122.8963520
  55.2104080 133.9279700 123.7009090  59.7821290 139.2843410 121.7890830
  59.7965830 138.3524370 121.5709740  59.0746390 139.3703170 122.4280600
  64.9158360 133.4683230 108.0589440  64.8322080 133.8997450 107.2085880
  65.6352550 133.9281580 108.4916260  65.9932500 135.9250750 121.1359410
  65.2680690 136.5179530 120.9388800  66.5207960 135.9174290 120.3372780
  65.9445610 140.3225490 110.7871570  65.3021770 139.6681110 111.0615290
  65.5576270 140.7280580 110.0112240  61.5232090 137.6510920 114.6343260
  61.8755910 137.0539050 113.9744630  60.6394420 137.3255150 114.8051510
  57.6095370 138.4108610 112.0413670  58.2966500 138.9577820 112.4221260
  56.8227790 138.9549340 112.0763280  49.7487770 134.0281430 107.5330750
  50.6182620 134.3106230 107.8166670  49.2578090 134.8417300 107.4179560
  56.9122580 135.4154640 111.6539030  57.3685360 136.2259890 111.8799220
  56.5610790 135.0977780 112.4857520  59.2155190 140.9260980 118.8831330
  59.8597410 141.1320360 119.5604750  59.5784630 140.1649380 118.4302180
  52.8134360 125.7592290 112.1261550  52.6848990 125.7510190 113.0746470
  51.9896380 126.0975380 111.7752560  60.4887270 138.9293330 117.6008780
  61.1309500 138.2286490 117.7140950  61.0136620 139.7091770 117.4205670
  64.3342990 139.2141950 107.3247920  64.1080570 138.4972390 107.9172560
  63.9439190 138.9654390 106.4869670  62.2624890 139.7288230 120.8044840
  62.5981130 140.3154920 121.4822760  61.3425230 139.5980940 121.0342630
  50.1159020 143.2408810 108.0992380  50.4756660 143.8398150 107.4449650
  49.9751360 143.7868700 108.8727410  49.8128290 127.5183410 121.5868250
  49.0986810 127.7180330 122.1920860  50.2323330 126.7422980 121.9583050
  63.9159240 137.1313890 108.9862080  63.6280940 137.5926580 109.7739960
  64.7111410 136.6711660 109.2546300  50.1000880 141.5063670 122.5734780
  50.2092000 140.5658410 122.4330170  49.4481440 141.7718420 121.9248510
  58.0913470 139.7779560 123.9732900  57.7710340 139.0588800 124.5178590
  57.4171830 140.4534630 124.0468960  56.1327640 140.6240010 108.9166050
  56.1237740 141.3569700 108.3010560  55.2126000 140.3771590 109.0093010
  51.7334280 135.8454900 109.6612810  51.1262230 136.5853800 109.6708110
  52.2083630 135.9354260 108.8351010  61.3067070 130.0105720 119.3369700
  61.6747890 129.1900930 119.6649270  60.4465270 130.0707610 119.7525350
  59.1187240 140.6868250 107.5791240  59.2199220 140.4832240 106.6493220
  58.2188980 140.4326530 107.7839020  58.2669060 132.6645310 119.5607670
  58.7654310 133.1391130 120.2259520  58.4092010 131.7408830 119.7677700
  57.7605350 143.2054570 112.2738910  58.0146850 143.1675960 111.3518280
  56.8117830 143.0787900 112.2667160  65.4735920 128.8813270 120.4036060
  64.9709520 129.6218670 120.7429870  66.2892580 129.2697270 120.0872850
  63.7657930 134.1246450 113.8497420  62.8248070 134.1396680 114.0245110
  64.0802000 133.3382410 114.2957720  53.7439570 135.8066050 107.4101380
  54.5102840 135.6947410 107.9726810  53.8214260 135.1104020 106.7578150
  52.4386330 133.2391120 108.0934270  52.5189920 132.2918630 108.2051670
  53.3306080 133.5698000 108.1994930  65.7683510 141.2955300 115.5251680
  65.8930930 142.1186470 115.9975490  66.6349070 141.0846030 115.1775830
  53.2401040 143.3886510 115.1968810  53.9763520 142.8401970 115.4677380
  53.6241960 144.2542520 115.0574800  50.1246520 139.4560080 111.0710320
  49.1986300 139.6981220 111.0615730  50.5902950 140.2834340 110.9495070
  52.2459320 142.5732580 124.3854390  53.0472050 142.8944630 124.7989790
  51.7311140 142.2128160 125.1074300  56.3503350 142.5616820 107.0194380
  57.1431960 142.8505650 106.5676170  55.8307700 142.1308990 106.3406860
  61.0823950 138.6812450 124.3329800  60.4762110 138.7044050 123.5925550
  60.7778060 137.9495490 124.8697050  62.5124320 142.4092740 122.9439210
  63.4646070 142.3250760 122.8939450  62.3652540 143.0734450 123.6173000
  65.4033520 141.7886950 108.4431120  65.1175030 141.3752090 107.6285300
  65.2053070 142.7174660 108.3231640  49.9657130 135.0606040 123.3290440
  50.4696150 134.4813320 123.9006670  49.2264550 135.3446270 123.8666810
  56.8680750 137.7820230 106.8836730  56.7631390 137.1672580 107.6098110
  56.7004970 137.2586120 106.0999740  57.0195070 136.4677030 122.8625960
  56.2540740 137.0362030 122.7780630  57.2011030 136.1753240 121.9694190
  60.1083480 136.8440260 107.4878720  59.5593580 137.2909560 108.1321460
  60.7302740 136.3389510 108.0116390  64.1618420 138.1982360 123.4200980
  64.9027890 138.5358120 122.9168440  63.3991100 138.3674420 122.8670750
  51.9980210 133.2035630 124.2240510  52.0385550 132.9049500 125.1325740
  52.8525710 133.6043240 124.0648030  55.7758600 135.8031180 109.3844020
  56.1975020 135.6371050 110.2275410  55.9009440 134.9931410 108.8899160
  53.9386020 131.7827730 122.1915000  53.4082480 131.2918680 121.5638340
  54.6074090 132.2111930 121.6572930  58.2886240 134.8268790 106.6321120
  58.8091900 134.1117810 106.2662270  58.9354640 135.4654660 106.9321630
  62.8364080 136.2497190 121.9556190  63.2505100 136.4042270 122.8046610
  61.9015080 136.3752410 122.1181970  63.3086250 133.5893350 123.9595340
  63.8907020 132.8345670 123.8715820  63.4848020 134.1200790 123.1826820
  54.4258320 128.7490100 122.2712290  54.3315190 128.1310850 121.5463160
  53.8455710 129.4756390 122.0442200  57.1919760 127.3063340 119.3039680
  56.7437060 127.3287600 118.4585230  56.5584960 126.9082360 119.9009980
  57.5979310 136.2017670 119.9252120  58.0167420 137.0450400 119.7528360
  56.6787940 136.3389710 119.6958900  59.9343210 133.9333850 121.3089960
  60.0539420 133.3374990 122.0484800  60.7937210 133.9703540 120.8891260
  62.2731110 134.4871040 119.8852470  61.7466330 135.0113660 119.2817610
  62.6162450 135.1198430 120.5162200  54.6717500 131.8764410 106.3302180
  54.4706560 131.0131770 106.6915520  54.5009550 131.7897770 105.3923780
  55.4486730 142.5070680 121.0409850  54.9107820 143.2316740 120.7218550
  55.7020690 142.0301020 120.2507190  56.7011980 130.4755200 122.5665780
  57.2911670 130.1671050 123.2543600  55.8832220 130.0034950 122.7225680
  61.5205410 130.0921010 122.7998800  60.8320930 129.4302550 122.7348790
  62.2411430 129.6459280 123.2447260  53.4700300 128.9765030 106.3180060
  53.7726200 128.9832460 105.4099210  54.2094890 128.6262890 106.8147720
  58.3048940 143.7421890 121.2996500  58.2307640 144.6457030 121.6068870
  57.4027780 143.4233790 121.2718570  56.6885230 127.9199650 107.3036260
  56.3407230 127.2423640 106.7238710  56.8898000 127.4589160 108.1179650
  58.8534270 142.9080400 108.9222860  59.7485060 143.2465370 108.9441620
  58.8851900 142.1859810 108.2947140  52.4930430 138.2807450 107.1509860
  52.9305300 138.8237120 107.8067440  52.9778160 137.4554400 107.1606200
  49.7076230 141.0696480 114.6030120  50.0379240 140.2017540 114.3708760
  50.1367230 141.2755000 115.4335080  54.3038150 139.4005490 112.2632090
  54.0033690 139.2770460 113.1636000  54.1975640 138.5414080 111.8547820
  50.1966440 141.9367070 117.3411750  49.7597430 142.1167870 118.1735900
  50.7644120 142.6941690 117.1993470  65.8328620 141.4384070 121.6289060
  65.2330610 141.4976630 120.8852980  65.9622520 140.4989050 121.7585910
  67.0730070 139.1801890 106.9658770  66.2423030 139.2478540 107.4366000
  67.2501900 140.0706010 106.6625630  66.5286530 135.9249370 109.4692970
  67.2905440 136.4946020 109.5752660  66.5440900 135.3576570 110.2401280
  50.0290870 134.4487300 113.7000630  49.3739710 134.1798940 113.0560330
  50.8668820 134.3391780 113.2502610  67.5346500 136.7799470 114.3134900
  67.9055330 135.9966790 113.9070870  68.1748430 137.4688570 114.1352200
  64.5180260 138.1636050 119.7265220  63.7040100 138.5933210 119.9891010
  64.9254460 138.7754460 119.1134270  66.5805700 136.2183740 106.6265490
  66.8554540 137.1262620 106.4984710  66.3916440 136.1546270 107.5627480
  66.4771040 134.1552730 111.6194920  66.1014640 133.3880660 111.1876210
  65.7474160 134.5375430 112.1069850  51.0666800 134.8339870 118.2403970
  51.4339840 134.7467270 119.1199990  50.4977620 134.0706420 118.1410830
  65.8670660 133.3024250 121.2534440  65.6356750 133.0737000 120.3532390
  66.1275210 134.2223800 121.2079330  50.6182800 131.7448960 122.1462390
  49.7238850 131.7115720 122.4856100  51.1580350 131.9435750 122.9113640
  64.3058730 128.5280680 124.0314140  65.1828910 128.5364080 124.4148140
  64.3179570 127.7911520 123.4206490  49.2428950 131.6586230 109.6425960
  48.3393030 131.9216430 109.4677620  49.7269570 131.9297400 108.8625920
  65.7522000 132.3810220 114.9202160  66.2759480 131.8872870 114.2892330
  66.3381420 132.5160580 115.6649730  65.9311720 132.4650090 118.4421710
  64.9814430 132.4313630 118.5566700  66.1124730 133.3750200 118.2071480
  51.7856160 130.7151770 107.5520340  52.4947860 130.2934990 107.0667620
  51.0696100 130.7827000 106.9203690  51.4330320 126.7691100 106.5922990
  52.1558450 127.3100040 106.9104210  51.7054840 126.4954520 105.7164530
  66.6709130 130.2744520 113.3932250  66.5608410 130.1200560 114.3314520
  67.4316720 129.7465460 113.1507660  67.6337890 128.8763100 109.2595100
  66.8389390 128.8108220 109.7888010  67.8381170 129.8113740 109.2480450
  64.5756310 142.9154650 113.2533490  65.1715380 142.5939220 112.5767910
  64.8334460 142.4426470 114.0446760  50.8754510 126.1752960 119.2370930
  50.5269330 126.6316780 120.0029110  50.5442210 125.2810090 119.3193360
  52.4818880 139.3472560 123.4024120  52.4388510 138.9765470 124.2838580
  52.6129890 140.2850130 123.5425940  56.1824910 140.9032150 119.0033840
  55.9416270 141.1706710 118.1164360  57.1227550 141.0737880 119.0584700
  58.3879330 127.3664840 122.7590350  58.3268220 127.9586670 123.5085760
  59.3279710 127.2590800 122.6140610  61.0253890 127.0234900 122.3982640
  61.6394300 127.3414190 121.7363720  61.5703450 126.5383490 123.0178500
  67.4429070 142.9226530 119.8044480  66.9487350 143.3195400 119.0871610
  66.8342360 142.2975740 120.1981760  51.5475150 125.7029160 122.5121700
  52.0958140 125.5217210 121.7487810  51.6130460 124.9123270 123.0478010
  52.3206910 142.2934810 120.5221900  51.7267230 142.1619510 121.2611940
  52.3130750 141.4572950 120.0564000  65.1268520 143.5649950 117.0831220
  64.6671490 144.3165760 116.7089240  64.4980980 142.8456420 117.0246020
  51.9519140 139.6593190 119.4729940  51.2253200 139.0398480 119.4055890
  52.0128290 140.0533800 118.6028020  55.5564240 141.8738190 116.2579350
  56.0729260 141.2625550 115.7327610  56.2061620 142.3766970 116.7490360
  58.2959740 142.7646680 117.0848330  58.5837550 142.5100980 116.2081340
  58.8082960 142.2124040 117.6753900  65.9296390 126.8375220 113.7202750
  65.8684790 125.8936440 113.5733770  66.7088420 126.9455310 114.2656210
  50.2349140 142.9767580 112.6826700  50.0671180 142.3438260 113.3808590
  49.3683650 143.1826980 112.3320890  50.8577160 126.8084360 110.1858560
  51.6156520 126.9213240 109.6122590  50.3954330 127.6453560 110.1401990
  51.8411840 141.6700810 110.1276840  51.3159460 142.0508840 109.4238800
  51.7656420 142.2951580 110.8486550  53.2302310 127.3348410 108.7260530
  53.7595070 126.5478210 108.5968480  53.8630630 128.0139600 108.9596060
  58.3632100 143.6862780 124.4516530  59.2899410 143.4507050 124.4952490
  58.3482530 144.5134780 123.9702560  66.5977160 143.2288350 111.4490780
  66.7729350 142.5426090 110.8051700  65.8998730 143.7535400 111.0567450
  55.5495710 126.3507530 124.2158410  55.2679980 126.8541130 123.4519230
  55.9315410 125.5529280 123.8500540  54.4404810 143.6183190 109.0026090
  55.1723630 143.3342470 108.4549980  54.6998480 143.3796470 109.8925470
  53.6019600 139.7347920 109.0072420  52.9728480 140.2033020 109.5558250
  53.7167430 138.8897140 109.4418610  62.1511170 125.7661110 124.7938880
  62.0376620 126.0855720 125.6890400  62.9680910 126.1673620 124.4976160
  64.9309660 142.9132640 124.2757570  65.7234980 142.4181870 124.0683530
  65.2242810 143.5922780 124.8833180  53.2053190 135.8752410  97.9158650
  52.3738070 135.6201120  98.3155160  53.8134170 135.9463180  98.6516570
  63.2094790 139.9692790  95.8182020  62.7476320 139.1980030  96.1469190
  64.0220340 139.9958860  96.3234470  53.1854450 139.9092500  98.1116670
  53.4882490 139.0190240  97.9326890  53.9298040 140.4662720  97.8838920
  59.4358100 142.2550800  95.4386010  58.8169540 142.7108300  94.8680450
  60.2909880 142.4102260  95.0375710  58.6296350 138.2389790  97.0453050
  58.5604630 137.2979730  96.8842180  59.3916210 138.3291200  97.6175620
  67.7325190 130.5577360 100.7693950  67.0277360 130.9459070 100.2509060
  67.9983110 131.2527650 101.3714880  60.3021450 137.1390040  92.8317920
  59.6838720 137.6039490  92.2680640  60.8144700 137.8317520  93.2487430
  55.1653210 136.6665910  99.5101520  54.8322590 137.2934830 100.1522590
  55.3419890 137.1927790  98.7303190  54.3772310 138.6346710 101.3250700
  54.9946310 139.3097790 101.0435150  53.5165430 139.0434690 101.2338200
  49.6704650 137.8246570  90.2057550  49.2932630 138.3133670  89.4742450
  49.9277720 138.4971850  90.8364080  65.2949900 140.0986120  99.2405340
  64.6113420 140.7685230  99.2322010  65.8344190 140.2966770  98.4750200
  66.7474040 129.9265780  97.3687070  65.7998950 129.9604760  97.5002500
  67.0724030 130.7404730  97.7536430  62.8308640 141.9430250  97.9550520
  62.8435800 141.5392540  97.0872780  62.2783860 142.7177540  97.8511950
  64.1254060 138.6646470  93.0440690  64.0150390 137.7220800  93.1690110
  64.1222310 139.0262110  93.9303450  62.2294080 136.8460090  99.2833130
  62.6462870 136.6320200  98.4486590  62.9533900 137.1032880  99.8541750
  66.1756180 135.2447310  99.3749370  65.3474810 135.3140400  98.8999500
  66.7706660 135.8301620  98.9065200  63.6971630 135.8532090  92.9038430
  63.0784050 135.5151640  92.2564730  63.6796080 135.2091850  93.6117620
  63.1398190 132.0316630 100.3204240  62.7269370 132.8570340 100.5744230
  62.4074140 131.4461670 100.1280600  55.7412680 138.5044090  97.3462120
  55.4440970 137.8989560  96.6669900  56.6912500 138.5421400  97.2351480
  53.9859600 131.5919740  98.9621950  54.5374190 131.7015080  98.1875200
  54.5003110 131.9657340  99.6777180  63.8298290 142.0775960 101.0085220
  63.3528850 142.8848150 100.8157830  63.1460080 141.4254290 101.1611430
  54.8331110 138.2425780 103.9969920  53.9359640 138.4665750 104.2443320
  54.8583980 138.3660720 103.0481320  61.8736330 135.0918900  89.9111180
  62.3129610 134.2541330  89.7649000  62.5864750 135.7248300  89.9975320
  53.6602330 135.1139100 102.5727290  53.5210100 135.9861900 102.9414690
  52.7783690 134.7711910 102.4275230  59.9831710 140.0314970  93.8792420
  60.4227620 140.7739300  93.4647810  59.9218600 140.2741540  94.8031380
  55.4582680 141.0560800 104.7812440  55.4298110 141.4603750 103.9140870
  55.2947650 140.1271160 104.6184040  65.4553470 126.3461710  88.2252220
  65.1426130 126.4388540  89.1251290  66.2165940 126.9242740  88.1749650
  67.4097500 141.8387900 106.0776610  67.8857220 142.3170790 106.7565690
  68.0304660 141.7705390 105.3522110  49.6120980 136.8836650  98.4898200
  49.6901400 137.0185420  97.5453920  50.2262660 136.1752540  98.6826320
  66.8130750 139.0300750 103.2376620  66.9393810 138.7912630 102.3193800
  66.8552130 138.1985290 103.7098700  60.6747490 142.7328750 101.8071430
  61.1892160 142.6436760 102.6093860  59.8316570 143.0788450 102.0999340
  62.6501890 143.0184090  91.2355430  62.4903030 142.7287030  92.1337260
  62.4848600 142.2424220  90.7000660  55.1290270 142.7982620  93.0127050
  54.9532750 141.8818160  92.7994850  54.2746010 143.1569910  93.2524850
  62.3528020 140.5271650  89.7953430  61.6593180 140.5248940  89.1355710
  63.0950880 140.1030970  89.3647600  61.9177950 142.1534360  93.8701920
  62.3734900 141.3723740  94.1840540  62.2570470 142.8641180  94.4143100
  66.6654760 131.0833210 104.2026360  66.0499030 131.5912880 103.6741820
  66.3451180 130.1831540 104.1452300  49.6680500 137.9250820 101.0292660
  49.8311540 137.4556180 100.2112030  50.1332950 137.4174380 101.6941500
  63.7273590 131.1434050 102.7985210  62.8767180 130.8439800 103.1194280
  63.5675380 131.3876060 101.8869030  60.8223300 132.6435800 104.8984000
  61.1476710 131.8099550 104.5586230  61.6103630 133.1664320 105.0462330
  56.6712700 133.0775730 104.4594750  56.5756300 132.1370460 104.3095150
  57.5144680 133.2990800 104.0642820  58.3768290 129.5724370 105.6825270
  57.6866610 129.3796570 106.3171360  59.1200590 129.8559010 106.2149570
  49.1040290 127.4117860  96.6458610  48.8153340 127.9820720  97.3583590
  49.8486050 126.9322310  97.0089840  49.2910520 131.3537980  87.8561330
  49.2085190 132.2968740  87.9976320  48.9393580 131.2112890  86.9773680
  60.6531260 133.4122810  98.5179190  59.9212380 133.9209620  98.8669290
  60.2555600 132.5952790  98.2167970  51.2419480 137.3002250 103.1888470
  50.8574270 136.6595920 103.7871430  51.5531670 138.0038370 103.7583200
  57.3916620 134.1478790  98.6697090  57.7586750 133.6737360  99.4158430
  57.2021680 135.0220360  99.0105430  53.7097780 137.3948420  91.5848150
  52.9360040 136.8546040  91.4246870  54.4392410 136.8755030  91.2465910
  64.4685760 136.3913780  97.3774540  65.1884880 136.8869070  96.9870650
  64.2667580 135.7131670  96.7328410  59.8504560 136.4622840 103.2643540
  59.7841870 135.5418510 103.0101130  59.2209700 136.5598280 103.9788180
  51.2379720 134.0290170 102.1352660  50.8794660 134.6944020 102.7226000
  50.9434280 133.1973720 102.5065280  54.4392840 134.4874410 105.0192210
  54.1392980 134.6331590 104.1220030  55.2104080 133.9279700 104.9265600
  59.7821290 139.2843410 103.0147340  59.7965830 138.3524370 102.7966250
  59.0746390 139.3703170 103.6537110  65.9932500 135.9250750 102.3615920
  65.2680690 136.5179530 102.1645310  66.5207960 135.9174290 101.5629290
  65.9445610 140.3225490  92.0128080  65.3021770 139.6681110  92.2871800
  65.5576270 140.7280580  91.2368750  61.5232090 137.6510920  95.8599770
  61.8755910 137.0539050  95.2001140  60.6394420 137.3255150  96.0308020
  49.7487770 134.0281430  88.7587260  50.6182620 134.3106230  89.0423180
  49.2578090 134.8417300  88.6436070  59.2155190 140.9260980 100.1087840
  59.8597410 141.1320360 100.7861260  59.5784630 140.1649380  99.6558690
  60.4887270 138.9293330  98.8265290  61.1309500 138.2286490  98.9397460
  61.0136620 139.7091770  98.6462180  64.3342990 139.2141950  88.5504430
  64.1080570 138.4972390  89.1429070  63.9439190 138.9654390  87.7126180
  62.2624890 139.7288230 102.0301350  62.5981130 140.3154920 102.7079270
  61.3425230 139.5980940 102.2599140  50.1159020 143.2408810  89.3248890
  50.4756660 143.8398150  88.6706160  49.9751360 143.7868700  90.0983920
  49.8128290 127.5183410 102.8124760  49.0986810 127.7180330 103.4177370
  50.2323330 126.7422980 103.1839560  63.9159240 137.1313890  90.2118590
  63.6280940 137.5926580  90.9996470  64.7111410 136.6711660  90.4802810
  50.1000880 141.5063670 103.7991290  50.2092000 140.5658410 103.6586680
  49.4481440 141.7718420 103.1505020  58.0913470 139.7779560 105.1989410
  57.7710340 139.0588800 105.7435100  57.4171830 140.4534630 105.2725470
  51.7334280 135.8454900  90.8869320  51.1262230 136.5853800  90.8964620
  52.2083630 135.9354260  90.0607520  61.3067070 130.0105720 100.5626210
  61.6747890 129.1900930 100.8905780  60.4465270 130.0707610 100.9781860
  58.2669060 132.6645310 100.7864180  58.7654310 133.1391130 101.4516030
  58.4092010 131.7408830 100.9934210  57.7605350 143.2054570  93.4995420
  58.0146850 143.1675960  92.5774790  56.8117830 143.0787900  93.4923670
  65.4735920 128.8813270 101.6292570  64.9709520 129.6218670 101.9686380
  66.2892580 129.2697270 101.3129360  52.4386330 133.2391120  89.3190780
  52.5189920 132.2918630  89.4308180  53.3306080 133.5698000  89.4251440
  65.7683510 141.2955300  96.7508190  65.8930930 142.1186470  97.2232000
  66.6349070 141.0846030  96.4032340  53.2401040 143.3886510  96.4225320
  53.9763520 142.8401970  96.6933890  53.6241960 144.2542520  96.2831310
  50.1246520 139.4560080  92.2966830  49.1986300 139.6981220  92.2872240
  50.5902950 140.2834340  92.1751580  52.2459320 142.5732580 105.6110900
  53.0472050 142.8944630 106.0246300  51.7311140 142.2128160 106.3330810
  56.3503350 142.5616820  88.2450890  57.1431960 142.8505650  87.7932680
  55.8307700 142.1308990  87.5663370  61.0823950 138.6812450 105.5586310
  60.4762110 138.7044050 104.8182060  60.7778060 137.9495490 106.0953560
  62.5124320 142.4092740 104.1695720  63.4646070 142.3250760 104.1195960
  62.3652540 143.0734450 104.8429510  65.4033520 141.7886950  89.6687630
  65.1175030 141.3752090  88.8541810  65.2053070 142.7174660  89.5488150
  49.9657130 135.0606040 104.5546950  50.4696150 134.4813320 105.1263180
  49.2264550 135.3446270 105.0923320  57.0195070 136.4677030 104.0882470
  56.2540740 137.0362030 104.0037140  57.2011030 136.1753240 103.1950700
  64.1618420 138.1982360 104.6457490  64.9027890 138.5358120 104.1424950
  63.3991100 138.3674420 104.0927260  51.9980210 133.2035630 105.4497020
  52.0385550 132.9049500 106.3582250  52.8525710 133.6043240 105.2904540
  62.8364080 136.2497190 103.1812700  63.2505100 136.4042270 104.0303120
  61.9015080 136.3752410 103.3438480  63.3086250 133.5893350 105.1851850
  63.8907020 132.8345670 105.0972330  63.4848020 134.1200790 104.4083330
  57.5979310 136.2017670 101.1508630  58.0167420 137.0450400 100.9784870
  56.6787940 136.3389710 100.9215410  59.9343210 133.9333850 102.5346470
  60.0539420 133.3374990 103.2741310  60.7937210 133.9703540 102.1147770
  62.2731110 134.4871040 101.1108980  61.7466330 135.0113660 100.5074120
  62.6162450 135.1198430 101.7418710  55.4486730 142.5070680 102.2666360
  54.9107820 143.2316740 101.9475060  55.7020690 142.0301020 101.4763700
  61.5205410 130.0921010 104.0255310  60.8320930 129.4302550 103.9605300
  62.2411430 129.6459280 104.4703770  58.3048940 143.7421890 102.5253010
  58.2307640 144.6457030 102.8325380  57.4027780 143.4233790 102.4975080
  58.8534270 142.9080400  90.1479370  59.7485060 143.2465370  90.1698130
  58.8851900 142.1859810  89.5203650  52.4930430 138.2807450  88.3766370
  52.9305300 138.8237120  89.0323950  52.9778160 137.4554400  88.3862710
  49.7076230 141.0696480  95.8286630  50.0379240 140.2017540  95.5965270
  50.1367230 141.2755000  96.6591590  54.3038150 139.4005490  93.4888600
  54.0033690 139.2770460  94.3892510  54.1975640 138.5414080  93.0804330
  50.1966440 141.9367070  98.5668260  49.7597430 142.1167870  99.3992410
  50.7644120 142.6941690  98.4249980  65.8328620 141.4384070 102.8545570
  65.2330610 141.4976630 102.1109490  65.9622520 140.4989050 102.9842420
  67.0730070 139.1801890  88.1915280  66.2423030 139.2478540  88.6622510
  67.2501900 140.0706010  87.8882140  67.5346500 136.7799470  95.5391410
  67.9055330 135.9966790  95.1327380  68.1748430 137.4688570  95.3608710
  64.5180260 138.1636050 100.9521730  63.7040100 138.5933210 101.2147520
  64.9254460 138.7754460 100.3390780  66.5805700 136.2183740  87.8522000
  66.8554540 137.1262620  87.7241220  66.3916440 136.1546270  88.7883990
  51.0666800 134.8339870  99.4660480  51.4339840 134.7467270 100.3456500
  50.4977620 134.0706420  99.3667340  65.8670660 133.3024250 102.4790950
  65.6356750 133.0737000 101.5788900  66.1275210 134.2223800 102.4335840
  50.6182800 131.7448960 103.3718900  49.7238850 131.7115720 103.7112610
  51.1580350 131.9435750 104.1370150  64.3058730 128.5280680 105.2570650
  65.1828910 128.5364080 105.6404650  64.3179570 127.7911520 104.6463000
  49.2428950 131.6586230  90.8682470  48.3393030 131.9216430  90.6934130
  49.7269570 131.9297400  90.0882430  65.9311720 132.4650090  99.6678220
  64.9814430 132.4313630  99.7823210  66.1124730 133.3750200  99.4327990
  51.7856160 130.7151770  88.7776850  52.4947860 130.2934990  88.2924130
  51.0696100 130.7827000  88.1460200  67.5599400 128.1052440  87.8594900
  68.4848710 127.9733620  87.6513190  67.5375190 128.1845260  88.8131350
  64.5756310 142.9154650  94.4790000  65.1715380 142.5939220  93.8024420
  64.8334460 142.4426470  95.2703270  50.8754510 126.1752960 100.4627440
  50.5269330 126.6316780 101.2285620  50.5442210 125.2810090 100.5449870
  52.4818880 139.3472560 104.6280630  52.4388510 138.9765470 105.5095090
  52.6129890 140.2850130 104.7682450  56.1824910 140.9032150 100.2290350
  55.9416270 141.1706710  99.3420870  57.1227550 141.0737880 100.2841210
  61.0253890 127.0234900 103.6239150  61.6394300 127.3414190 102.9620230
  61.5703450 126.5383490 104.2435010  67.4429070 142.9226530 101.0300990
  66.9487350 143.3195400 100.3128120  66.8342360 142.2975740 101.4238270
  51.5475150 125.7029160 103.7378210  52.0958140 125.5217210 102.9744320
  51.6130460 124.9123270 104.2734520  52.3206910 142.2934810 101.7478410
  51.7267230 142.1619510 102.4868450  52.3130750 141.4572950 101.2820510
  65.1268520 143.5649950  98.3087730  64.6671490 144.3165760  97.9345750
  64.4980980 142.8456420  98.2502530  51.9519140 139.6593190 100.6986450
  51.2253200 139.0398480 100.6312400  52.0128290 140.0533800  99.8284530
  55.5564240 141.8738190  97.4835860  56.0729260 141.2625550  96.9584120
  56.2061620 142.3766970  97.9746870  58.2959740 142.7646680  98.3104840
  58.5837550 142.5100980  97.4337850  58.8082960 142.2124040  98.9010410
  64.0657820 127.2059980  96.9350440  64.5065910 127.1505080  96.0872040
  63.7965410 128.1217990  97.0060620  65.9296390 126.8375220  94.9459260
  65.8684790 125.8936440  94.7990280  66.7088420 126.9455310  95.4912720
  50.2349140 142.9767580  93.9083210  50.0671180 142.3438260  94.6065100
  49.3683650 143.1826980  93.5577400  50.8577160 126.8084360  91.4115070
  51.6156520 126.9213240  90.8379100  50.3954330 127.6453560  91.3658500
  51.8411840 141.6700810  91.3533350  51.3159460 142.0508840  90.6495310
  51.7656420 142.2951580  92.0743060  53.2302310 127.3348410  89.9517040
  53.7595070 126.5478210  89.8224990  53.8630630 128.0139600  90.1852570
  58.3632100 143.6862780 105.6773040  59.2899410 143.4507050 105.7209000
  58.3482530 144.5134780 105.1959070  66.5977160 143.2288350  92.6747290
  66.7729350 142.5426090  92.0308210  65.8998730 143.7535400  92.2823960
  55.5495710 126.3507530 105.4414920  55.2679980 126.8541130 104.6775740
  55.9315410 125.5529280 105.0757050  54.4404810 143.6183190  90.2282600
  55.1723630 143.3342470  89.6806490  54.6998480 143.3796470  91.1181980
  53.6019600 139.7347920  90.2328930  52.9728480 140.2033020  90.7814760
  53.7167430 138.8897140  90.6675120  62.1511170 125.7661110 106.0195390
  62.0376620 126.0855720 106.9146910  62.9680910 126.1673620 105.7232670
  64.9309660 142.9132640 105.5014080  65.7234980 142.4181870 105.2940040
  65.2242810 143.5922780 106.1089690  61.0569320 133.7853580  76.3830130
  60.9763370 132.8708190  76.1121840  60.6433740 134.2820650  75.6769840
  59.1887360 135.5632600  78.2639400  58.4129460 135.0833040  78.5537970
  59.8400290 134.8838250  78.0895560  53.2053190 135.8752410  79.1415160
  52.3738070 135.6201120  79.5411670  53.8134170 135.9463180  79.8773080
  63.2094790 139.9692790  77.0438530  62.7476320 139.1980030  77.3725700
  64.0220340 139.9958860  77.5490980  53.1854450 139.9092500  79.3373180
  53.4882490 139.0190240  79.1583400  53.9298040 140.4662720  79.1095430
  51.6145140 130.8354300  72.9257550  50.7261840 131.1770270  72.8237430
  51.8986330 130.6354620  72.0338380  59.4358100 142.2550800  76.6642520
  58.8169540 142.7108300  76.0936960  60.2909880 142.4102260  76.2632220
  58.6296350 138.2389790  78.2709560  58.5604630 137.2979730  78.1098690
  59.3916210 138.3291200  78.8432130  60.3021450 137.1390040  74.0574430
  59.6838720 137.6039490  73.4937150  60.8144700 137.8317520  74.4743940
  54.3772310 138.6346710  82.5507210  54.9946310 139.3097790  82.2691660
  53.5165430 139.0434690  82.4594710  49.6704650 137.8246570  71.4314060
  49.2932630 138.3133670  70.6998960  49.9277720 138.4971850  72.0620590
  65.2949900 140.0986120  80.4661850  64.6113420 140.7685230  80.4578520
  65.8344190 140.2966770  79.7006710  62.8308640 141.9430250  79.1807030
  62.8435800 141.5392540  78.3129290  62.2783860 142.7177540  79.0768460
  64.1254060 138.6646470  74.2697200  64.0150390 137.7220800  74.3946620
  64.1222310 139.0262110  75.1559960  62.2294080 136.8460090  80.5089640
  62.6462870 136.6320200  79.6743100  62.9533900 137.1032880  81.0798260
  59.6674340 134.2911790  73.6259690  58.7403620 134.2249170  73.8548160
  59.8199160 135.2291920  73.5114930  59.6543420 130.5628790  70.6226850
  58.7147090 130.7242750  70.7079310  59.9726680 131.2814470  70.0762840
  63.6971630 135.8532090  74.1294940  63.0784050 135.5151640  73.4821240
  63.6796080 135.2091850  74.8374130  55.2730980 134.8176530  76.4079420
  54.8687980 134.1053780  75.9125320  55.3594100 134.4729770  77.2967460
  55.7412680 138.5044090  78.5718630  55.4440970 137.8989560  77.8926410
  56.6912500 138.5421400  78.4607990  63.8298290 142.0775960  82.2341730
  63.3528850 142.8848150  82.0414340  63.1460080 141.4254290  82.3867940
  54.8331110 138.2425780  85.2226430  53.9359640 138.4665750  85.4699830
  54.8583980 138.3660720  84.2737830  61.8736330 135.0918900  71.1367690
  62.3129610 134.2541330  70.9905510  62.5864750 135.7248300  71.2231830
  59.9831710 140.0314970  75.1048930  60.4227620 140.7739300  74.6904320
  59.9218600 140.2741540  76.0287890  55.4582680 141.0560800  86.0068950
  55.4298110 141.4603750  85.1397380  55.2947650 140.1271160  85.8440550
  65.4553470 126.3461710  69.4508730  65.1426130 126.4388540  70.3507800
  66.2165940 126.9242740  69.4006160  51.9735610 133.7121510  73.9086070
  51.8533210 134.4383600  73.2967340  51.6636500 132.9424420  73.4313980
  67.4097500 141.8387900  87.3033120  67.8857220 142.3170790  87.9822200
  68.0304660 141.7705390  86.5778620  49.6120980 136.8836650  79.7154710
  49.6901400 137.0185420  78.7710430  50.2262660 136.1752540  79.9082830
  50.8568610 138.5836840  76.1260890  50.4496690 138.7251430  75.2714490
  51.7481620 138.2997000  75.9232100  66.8130750 139.0300750  84.4633130
  66.9393810 138.7912630  83.5450310  66.8552130 138.1985290  84.9355210
  60.6747490 142.7328750  83.0327940  61.1892160 142.6436760  83.8350370
  59.8316570 143.0788450  83.3255850  62.6501890 143.0184090  72.4611940
  62.4903030 142.7287030  73.3593770  62.4848600 142.2424220  71.9257170
  55.1290270 142.7982620  74.2383560  54.9532750 141.8818160  74.0251360
  54.2746010 143.1569910  74.4781360  62.3528020 140.5271650  71.0209940
  61.6593180 140.5248940  70.3612220  63.0950880 140.1030970  70.5904110
  61.9177950 142.1534360  75.0958430  62.3734900 141.3723740  75.4097050
  62.2570470 142.8641180  75.6399610  66.6654760 131.0833210  85.4282870
  66.0499030 131.5912880  84.8998330  66.3451180 130.1831540  85.3708810
  49.6680500 137.9250820  82.2549170  49.8311540 137.4556180  81.4368540
  50.1332950 137.4174380  82.9198010  61.4611250 132.1853520  73.6181640
  60.8620140 132.9089320  73.4345260  62.0090860 132.1230300  72.8358090
  49.1040290 127.4117860  77.8715120  48.8153340 127.9820720  78.5840100
  49.8486050 126.9322310  78.2346350  57.1528800 131.0889090  71.1394950
  57.2741620 131.0475570  72.0880770  56.7677310 131.9513240  70.9841680
  56.1650300 133.3990230  70.5378250  55.5967200 132.9508480  69.9114160
  56.8739300 133.7583010  70.0043400  51.2419480 137.3002250  84.4144980
  50.8574270 136.6595920  85.0127940  51.5531670 138.0038370  84.9839710
  53.7097780 137.3948420  72.8104660  52.9360040 136.8546040  72.6503380
  54.4392410 136.8755030  72.4722420  64.4685760 136.3913780  78.6031050
  65.1884880 136.8869070  78.2127160  64.2667580 135.7131670  77.9584920
  62.6444090 132.1571390  71.0422600  63.5323710 132.4688620  70.8673940
  62.6149180 131.2843640  70.6503180  53.7535180 137.0628800  76.4483470
  54.2713850 136.2597060  76.3940360  53.3019200 137.0007940  77.2900300
  58.6404680 138.3295080  71.7210770  58.9820380 139.0737310  71.2254090
  57.8117390 138.6426200  72.0835600  59.7821290 139.2843410  84.2403850
  59.7965830 138.3524370  84.0222760  59.0746390 139.3703170  84.8793620
  64.9158360 133.4683230  70.5102460  64.8322080 133.8997450  69.6598900
  65.6352550 133.9281580  70.9429280  65.9932500 135.9250750  83.5872430
  65.2680690 136.5179530  83.3901820  66.5207960 135.9174290  82.7885800
  65.9445610 140.3225490  73.2384590  65.3021770 139.6681110  73.5128310
  65.5576270 140.7280580  72.4625260  61.5232090 137.6510920  77.0856280
  61.8755910 137.0539050  76.4257650  60.6394420 137.3255150  77.2564530
  57.6095370 138.4108610  74.4926690  58.2966500 138.9577820  74.8734280
  56.8227790 138.9549340  74.5276300  49.7487770 134.0281430  69.9843770
  50.6182620 134.3106230  70.2679690  49.2578090 134.8417300  69.8692580
  56.9122580 135.4154640  74.1052050  57.3685360 136.2259890  74.3312240
  56.5610790 135.0977780  74.9370540  59.2155190 140.9260980  81.3344350
  59.8597410 141.1320360  82.0117770  59.5784630 140.1649380  80.8815200
  60.4887270 138.9293330  80.0521800  61.1309500 138.2286490  80.1653970
  61.0136620 139.7091770  79.8718690  64.3342990 139.2141950  69.7760940
  64.1080570 138.4972390  70.3685580  63.9439190 138.9654390  68.9382690
  62.2624890 139.7288230  83.2557860  62.5981130 140.3154920  83.9335780
  61.3425230 139.5980940  83.4855650  50.1159020 143.2408810  70.5505400
  50.4756660 143.8398150  69.8962670  49.9751360 143.7868700  71.3240430
  63.9159240 137.1313890  71.4375100  63.6280940 137.5926580  72.2252980
  64.7111410 136.6711660  71.7059320  50.1000880 141.5063670  85.0247800
  50.2092000 140.5658410  84.8843190  49.4481440 141.7718420  84.3761530
  56.1327640 140.6240010  71.3679070  56.1237740 141.3569700  70.7523580
  55.2126000 140.3771590  71.4606030  51.7334280 135.8454900  72.1125830
  51.1262230 136.5853800  72.1221130  52.2083630 135.9354260  71.2864030
  64.6729100 128.9662660  72.5970280  64.0442260 129.0708330  71.8828510
  64.1781020 129.1859440  73.3864160  59.1187240 140.6868250  70.0304260
  59.2199220 140.4832240  69.1006240  58.2188980 140.4326530  70.2352040
  57.7605350 143.2054570  74.7251930  58.0146850 143.1675960  73.8031300
  56.8117830 143.0787900  74.7180180  63.7657930 134.1246450  76.3010440
  62.8248070 134.1396680  76.4758130  64.0802000 133.3382410  76.7470740
  53.7439570 135.8066050  69.8614400  54.5102840 135.6947410  70.4239830
  53.8214260 135.1104020  69.2091170  52.4386330 133.2391120  70.5447290
  52.5189920 132.2918630  70.6564690  53.3306080 133.5698000  70.6507950
  65.7683510 141.2955300  77.9764700  65.8930930 142.1186470  78.4488510
  66.6349070 141.0846030  77.6288850  53.2401040 143.3886510  77.6481830
  53.9763520 142.8401970  77.9190400  53.6241960 144.2542520  77.5087820
  50.1246520 139.4560080  73.5223340  49.1986300 139.6981220  73.5128750
  50.5902950 140.2834340  73.4008090  52.2459320 142.5732580  86.8367410
  53.0472050 142.8944630  87.2502810  51.7311140 142.2128160  87.5587320
  56.3503350 142.5616820  69.4707400  57.1431960 142.8505650  69.0189190
  55.8307700 142.1308990  68.7919880  62.5124320 142.4092740  85.3952230
  63.4646070 142.3250760  85.3452470  62.3652540 143.0734450  86.0686020
  65.4033520 141.7886950  70.8944140  65.1175030 141.3752090  70.0798320
  65.2053070 142.7174660  70.7744660  49.9657130 135.0606040  85.7803460
  50.4696150 134.4813320  86.3519690  49.2264550 135.3446270  86.3179830
  56.8680750 137.7820230  69.3349750  56.7631390 137.1672580  70.0611130
  56.7004970 137.2586120  68.5512760  60.1083480 136.8440260  69.9391740
  59.5593580 137.2909560  70.5834480  60.7302740 136.3389510  70.4629410
  64.1618420 138.1982360  85.8714000  64.9027890 138.5358120  85.3681460
  63.3991100 138.3674420  85.3183770  55.7758600 135.8031180  71.8357040
  56.1975020 135.6371050  72.6788430  55.9009440 134.9931410  71.3412180
  58.2886240 134.8268790  69.0834140  58.8091900 134.1117810  68.7175290
  58.9354640 135.4654660  69.3834650  62.8364080 136.2497190  84.4069210
  63.2505100 136.4042270  85.2559630  61.9015080 136.3752410  84.5694990
  63.3086250 133.5893350  86.4108360  63.8907020 132.8345670  86.3228840
  63.4848020 134.1200790  85.6339840  55.4486730 142.5070680  83.4922870
  54.9107820 143.2316740  83.1731570  55.7020690 142.0301020  82.7020210
  58.3048940 143.7421890  83.7509520  58.2307640 144.6457030  84.0581890
  57.4027780 143.4233790  83.7231590  56.6885230 127.9199650  69.7549280
  56.3407230 127.2423640  69.1751730  56.8898000 127.4589160  70.5692670
  58.8534270 142.9080400  71.3735880  59.7485060 143.2465370  71.3954640
  58.8851900 142.1859810  70.7460160  52.4930430 138.2807450  69.6022880
  52.9305300 138.8237120  70.2580460  52.9778160 137.4554400  69.6119220
  49.7076230 141.0696480  77.0543140  50.0379240 140.2017540  76.8221780
  50.1367230 141.2755000  77.8848100  54.3038150 139.4005490  74.7145110
  54.0033690 139.2770460  75.6149020  54.1975640 138.5414080  74.3060840
  50.1966440 141.9367070  79.7924770  49.7597430 142.1167870  80.6248920
  50.7644120 142.6941690  79.6506490  65.8328620 141.4384070  84.0802080
  65.2330610 141.4976630  83.3366000  65.9622520 140.4989050  84.2098930
  67.0730070 139.1801890  69.4171790  66.2423030 139.2478540  69.8879020
  67.2501900 140.0706010  69.1138650  66.5286530 135.9249370  71.9205990
  67.2905440 136.4946020  72.0265680  66.5440900 135.3576570  72.6914300
  67.5346500 136.7799470  76.7647920  67.9055330 135.9966790  76.3583890
  68.1748430 137.4688570  76.5865220  64.5180260 138.1636050  82.1778240
  63.7040100 138.5933210  82.4404030  64.9254460 138.7754460  81.5647290
  66.5805700 136.2183740  69.0778510  66.8554540 137.1262620  68.9497730
  66.3916440 136.1546270  70.0140500  62.9781310 129.2428590  70.3732140
  63.3966190 129.0559570  69.5328800  62.6717370 128.3907640  70.6835070
  66.4771040 134.1552730  74.0707940  66.1014640 133.3880660  73.6389230
  65.7474160 134.5375430  74.5582870  51.0666800 134.8339870  80.6916990
  51.4339840 134.7467270  81.5713010  50.4977620 134.0706420  80.5923850
  65.2421970 131.6383570  73.3107590  65.7381090 131.4054440  74.0956470
  65.0438040 130.7995410  72.8945230  66.6709130 130.2744520  75.8445270
  66.5608410 130.1200560  76.7827540  67.4316720 129.7465460  75.6020680
  67.5599400 128.1052440  69.0851410  68.4848710 127.9733620  68.8769700
  67.5375190 128.1845260  70.0387860  67.6337890 128.8763100  71.7108120
  66.8389390 128.8108220  72.2401030  67.8381170 129.8113740  71.6993470
  64.5756310 142.9154650  75.7046510  65.1715380 142.5939220  75.0280930
  64.8334460 142.4426470  76.4959780  52.4818880 139.3472560  85.8537140
  52.4388510 138.9765470  86.7351600  52.6129890 140.2850130  85.9938960
  56.1824910 140.9032150  81.4546860  55.9416270 141.1706710  80.5677380
  57.1227550 141.0737880  81.5097720  67.4429070 142.9226530  82.2557500
  66.9487350 143.3195400  81.5384630  66.8342360 142.2975740  82.6494780
  52.3206910 142.2934810  82.9734920  51.7267230 142.1619510  83.7124960
  52.3130750 141.4572950  82.5077020  65.1268520 143.5649950  79.5344240
  64.6671490 144.3165760  79.1602260  64.4980980 142.8456420  79.4759040
  51.9519140 139.6593190  81.9242960  51.2253200 139.0398480  81.8568910
  52.0128290 140.0533800  81.0541040  55.5564240 141.8738190  78.7092370
  56.0729260 141.2625550  78.1840630  56.2061620 142.3766970  79.2003380
  58.2959740 142.7646680  79.5361350  58.5837550 142.5100980  78.6594360
  58.8082960 142.2124040  80.1266920  65.9296390 126.8375220  76.1715770
  65.8684790 125.8936440  76.0246790  66.7088420 126.9455310  76.7169230
  50.2349140 142.9767580  75.1339720  50.0671180 142.3438260  75.8321610
  49.3683650 143.1826980  74.7833910  65.0450550 125.9887640  72.1397240
  65.2401180 126.8871090  72.4064670  64.2580420 125.7574720  72.6330190
  51.8411840 141.6700810  72.5789860  51.3159460 142.0508840  71.8751820
  51.7656420 142.2951580  73.2999570  58.3632100 143.6862780  86.9029550
  59.2899410 143.4507050  86.9465510  58.3482530 144.5134780  86.4215580
  66.5977160 143.2288350  73.9003800  66.7729350 142.5426090  73.2564720
  65.8998730 143.7535400  73.5080470  54.4404810 143.6183190  71.4539110
  55.1723630 143.3342470  70.9063000  54.6998480 143.3796470  72.3438490
  53.6019600 139.7347920  71.4585440  52.9728480 140.2033020  72.0071270
  53.7167430 138.8897140  71.8931630  62.1511170 125.7661110  87.2451900
  62.0376620 126.0855720  88.1403420  62.9680910 126.1673620  86.9489180
  64.9309660 142.9132640  86.7270590  65.7234980 142.4181870  86.5196550
  65.2242810 143.5922780  87.3346200  61.0569320 133.7853580  57.6086640
  60.9763370 132.8708190  57.3378350  60.6433740 134.2820650  56.9026350
  59.1887360 135.5632600  59.4895910  58.4129460 135.0833040  59.7794480
  59.8400290 134.8838250  59.3152070  53.2053190 135.8752410  60.3671670
  52.3738070 135.6201120  60.7668180  53.8134170 135.9463180  61.1029590
  63.2094790 139.9692790  58.2695040  62.7476320 139.1980030  58.5982210
  64.0220340 139.9958860  58.7747490  53.1854450 139.9092500  60.5629690
  53.4882490 139.0190240  60.3839910  53.9298040 140.4662720  60.3351940
  49.5778150 133.4359950  60.0353760  50.1494260 132.6682150  60.0357400
  49.5779690 133.7348710  59.1260370  59.4358100 142.2550800  57.8899030
  58.8169540 142.7108300  57.3193470  60.2909880 142.4102260  57.4888730
  58.6296350 138.2389790  59.4966070  58.5604630 137.2979730  59.3355200
  59.3916210 138.3291200  60.0688640  63.4425640 128.5410610  56.6563340
  64.2635260 128.0507180  56.6988820  63.4759720 129.1308270  57.4095180
  51.4389690 131.3404810  60.4305030  52.1199800 131.6043180  61.0492430
  51.1237740 130.5005680  60.7643040  55.6314260 132.3872170  59.5177620
  56.1392480 132.8853140  60.1582640  56.1627500 131.6107370  59.3416980
  67.7325190 130.5577360  63.2206970  67.0277360 130.9459070  62.7022080
  67.9983110 131.2527650  63.8227900  53.9150360 127.0270730  63.7841040
  53.9168800 127.5443120  62.9786940  53.0854670 126.5500910  63.7610970
  60.3021450 137.1390040  55.2830940  59.6838720 137.6039490  54.7193660
  60.8144700 137.8317520  55.7000450  55.1653210 136.6665910  61.9614540
  54.8322590 137.2934830  62.6035610  55.3419890 137.1927790  61.1816210
  63.6787120 130.4810990  59.4290880  62.9742690 130.7695880  60.0093990
  64.0399280 131.2911100  59.0690440  54.3772310 138.6346710  63.7763720
  54.9946310 139.3097790  63.4948170  53.5165430 139.0434690  63.6851220
  49.6704650 137.8246570  52.6570570  49.2932630 138.3133670  51.9255470
  49.9277720 138.4971850  53.2877100  65.2949900 140.0986120  61.6918360
  64.6113420 140.7685230  61.6835030  65.8344190 140.2966770  60.9263220
  66.7474040 129.9265780  59.8200090  65.7998950 129.9604760  59.9515520
  67.0724030 130.7404730  60.2049450  62.8308640 141.9430250  60.4063540
  62.8435800 141.5392540  59.5385800  62.2783860 142.7177540  60.3024970
  64.1254060 138.6646470  55.4953710  64.0150390 137.7220800  55.6203130
  64.1222310 139.0262110  56.3816470  62.2294080 136.8460090  61.7346150
  62.6462870 136.6320200  60.8999610  62.9533900 137.1032880  62.3054770
  66.1756180 135.2447310  61.8262390  65.3474810 135.3140400  61.3512520
  66.7706660 135.8301620  61.3578220  63.6971630 135.8532090  55.3551450
  63.0784050 135.5151640  54.7077750  63.6796080 135.2091850  56.0630640
  63.1398190 132.0316630  62.7717260  62.7269370 132.8570340  63.0257250
  62.4074140 131.4461670  62.5793620  55.2730980 134.8176530  57.6335930
  54.8687980 134.1053780  57.1381830  55.3594100 134.4729770  58.5223970
  55.7412680 138.5044090  59.7975140  55.4440970 137.8989560  59.1182920
  56.6912500 138.5421400  59.6864500  53.9859600 131.5919740  61.4134970
  54.5374190 131.7015080  60.6388220  54.5003110 131.9657340  62.1290200
  63.8298290 142.0775960  63.4598240  63.3528850 142.8848150  63.2670850
  63.1460080 141.4254290  63.6124450  54.8331110 138.2425780  66.4482940
  53.9359640 138.4665750  66.6956340  54.8583980 138.3660720  65.4994340
  53.6602330 135.1139100  65.0240310  53.5210100 135.9861900  65.3927710
  52.7783690 134.7711910  64.8788250  59.9831710 140.0314970  56.3305440
  60.4227620 140.7739300  55.9160830  59.9218600 140.2741540  57.2544400
  55.4582680 141.0560800  67.2325460  55.4298110 141.4603750  66.3653890
  55.2947650 140.1271160  67.0697060  51.9735610 133.7121510  55.1342580
  51.8533210 134.4383600  54.5223850  51.6636500 132.9424420  54.6570490
  67.4097500 141.8387900  68.5289630  67.8857220 142.3170790  69.2078710
  68.0304660 141.7705390  67.8035130  49.6120980 136.8836650  60.9411220
  49.6901400 137.0185420  59.9966940  50.2262660 136.1752540  61.1339340
  50.8568610 138.5836840  57.3517400  50.4496690 138.7251430  56.4971000
  51.7481620 138.2997000  57.1488610  66.8130750 139.0300750  65.6889640
  66.9393810 138.7912630  64.7706820  66.8552130 138.1985290  66.1611720
  60.6747490 142.7328750  64.2584450  61.1892160 142.6436760  65.0606880
  59.8316570 143.0788450  64.5512360  62.6501890 143.0184090  53.6868450
  62.4903030 142.7287030  54.5850280  62.4848600 142.2424220  53.1513680
  55.1290270 142.7982620  55.4640070  54.9532750 141.8818160  55.2507870
  54.2746010 143.1569910  55.7037870  62.3528020 140.5271650  52.2466450
  61.6593180 140.5248940  51.5868730  63.0950880 140.1030970  51.8160620
  61.9177950 142.1534360  56.3214940  62.3734900 141.3723740  56.6353560
  62.2570470 142.8641180  56.8656120  66.6654760 131.0833210  66.6539380
  66.0499030 131.5912880  66.1254840  66.3451180 130.1831540  66.5965320
  49.6680500 137.9250820  63.4805680  49.8311540 137.4556180  62.6625050
  50.1332950 137.4174380  64.1454520  58.7269080 129.9225100  64.1201570
  58.2648450 130.1308120  64.9321510  58.3247190 129.1084450  63.8172240
  63.7273590 131.1434050  65.2498230  62.8767180 130.8439800  65.5707300
  63.5675380 131.3876060  64.3382050  60.8223300 132.6435800  67.3497020
  61.1476710 131.8099550  67.0099250  61.6103630 133.1664320  67.4975350
  54.2313490 132.1790150  56.2447500  54.0054410 131.9627320  57.1494120
  53.4506020 132.6118610  55.8993470  61.4611250 132.1853520  54.8438150
  60.8620140 132.9089320  54.6601770  62.0090860 132.1230300  54.0614600
  56.6712700 133.0775730  66.9107770  56.5756300 132.1370460  66.7608170
  57.5144680 133.2990800  66.5155840  60.0676120 130.8217060  56.8741430
  60.4605690 131.1389260  56.0610120  60.4292970 129.9428940  56.9885950
  58.3768290 129.5724370  68.1338290  57.6866610 129.3796570  68.7684380
  59.1200590 129.8559010  68.6662590  49.2910520 131.3537980  50.3074350
  49.2085190 132.2968740  50.4489340  48.9393580 131.2112890  49.4286700
  60.6531260 133.4122810  60.9692210  59.9212380 133.9209620  61.3182310
  60.2555600 132.5952790  60.6680990  57.1528800 131.0889090  52.3651460
  57.2741620 131.0475570  53.3137280  56.7677310 131.9513240  52.2098190
  56.1650300 133.3990230  51.7634760  55.5967200 132.9508480  51.1370670
  56.8739300 133.7583010  51.2299910  64.5427920 126.2788670  66.2201530
  64.8673690 125.5478330  66.7459510  64.5784430 125.9602310  65.3182520
  51.2419480 137.3002250  65.6401490  50.8574270 136.6595920  66.2384450
  51.5531670 138.0038370  66.2096220  57.3916620 134.1478790  61.1210110
  57.7586750 133.6737360  61.8671450  57.2021680 135.0220360  61.4618450
  55.1815990 133.1887430  63.4394320  54.8773060 134.0679410  63.6644680
  56.1362450 133.2487220  63.4751760  53.7097780 137.3948420  54.0361170
  52.9360040 136.8546040  53.8759890  54.4392410 136.8755030  53.6978930
  64.4685760 136.3913780  59.8287560  65.1884880 136.8869070  59.4383670
  64.2667580 135.7131670  59.1841430  59.8504560 136.4622840  65.7156560
  59.7841870 135.5418510  65.4614150  59.2209700 136.5598280  66.4301200
  53.7535180 137.0628800  57.6739980  54.2713850 136.2597060  57.6196870
  53.3019200 137.0007940  58.5156810  58.6404680 138.3295080  52.9467280
  58.9820380 139.0737310  52.4510600  57.8117390 138.6426200  53.3092110
  51.2379720 134.0290170  64.5865680  50.8794660 134.6944020  65.1739020
  50.9434280 133.1973720  64.9578300  54.4392840 134.4874410  67.4705230
  54.1392980 134.6331590  66.5733050  55.2104080 133.9279700  67.3778620
  59.7821290 139.2843410  65.4660360  59.7965830 138.3524370  65.2479270
  59.0746390 139.3703170  66.1050130  65.9932500 135.9250750  64.8128940
  65.2680690 136.5179530  64.6158330  66.5207960 135.9174290  64.0142310
  65.9445610 140.3225490  54.4641100  65.3021770 139.6681110  54.7384820
  65.5576270 140.7280580  53.6881770  61.5232090 137.6510920  58.3112790
  61.8755910 137.0539050  57.6514160  60.6394420 137.3255150  58.4821040
  57.6095370 138.4108610  55.7183200  58.2966500 138.9577820  56.0990790
  56.8227790 138.9549340  55.7532810  49.7487770 134.0281430  51.2100280
  50.6182620 134.3106230  51.4936200  49.2578090 134.8417300  51.0949090
  56.9122580 135.4154640  55.3308560  57.3685360 136.2259890  55.5568750
  56.5610790 135.0977780  56.1627050  59.2155190 140.9260980  62.5600860
  59.8597410 141.1320360  63.2374280  59.5784630 140.1649380  62.1071710
  60.4887270 138.9293330  61.2778310  61.1309500 138.2286490  61.3910480
  61.0136620 139.7091770  61.0975200  64.3342990 139.2141950  51.0017450
  64.1080570 138.4972390  51.5942090  63.9439190 138.9654390  50.1639200
  62.2624890 139.7288230  64.4814370  62.5981130 140.3154920  65.1592290
  61.3425230 139.5980940  64.7112160  50.1159020 143.2408810  51.7761910
  50.4756660 143.8398150  51.1219180  49.9751360 143.7868700  52.5496940
  50.1000880 141.5063670  66.2504310  50.2092000 140.5658410  66.1099700
  49.4481440 141.7718420  65.6018040  58.0913470 139.7779560  67.6502430
  57.7710340 139.0588800  68.1948120  57.4171830 140.4534630  67.7238490
  56.1327640 140.6240010  52.5935580  56.1237740 141.3569700  51.9780090
  55.2126000 140.3771590  52.6862540  51.7334280 135.8454900  53.3382340
  51.1262230 136.5853800  53.3477640  52.2083630 135.9354260  52.5120540
  61.3067070 130.0105720  63.0139230  61.6747890 129.1900930  63.3418800
  60.4465270 130.0707610  63.4294880  64.6729100 128.9662660  53.8226790
  64.0442260 129.0708330  53.1085020  64.1781020 129.1859440  54.6120670
  59.1187240 140.6868250  51.2560770  59.2199220 140.4832240  50.3262750
  58.2188980 140.4326530  51.4608550  58.2669060 132.6645310  63.2377200
  58.7654310 133.1391130  63.9029050  58.4092010 131.7408830  63.4447230
  57.7605350 143.2054570  55.9508440  58.0146850 143.1675960  55.0287810
  56.8117830 143.0787900  55.9436690  65.4735920 128.8813270  64.0805590
  64.9709520 129.6218670  64.4199400  66.2892580 129.2697270  63.7642380
  63.7657930 134.1246450  57.5266950  62.8248070 134.1396680  57.7014640
  64.0802000 133.3382410  57.9727250  53.7439570 135.8066050  51.0870910
  54.5102840 135.6947410  51.6496340  53.8214260 135.1104020  50.4347680
  52.4386330 133.2391120  51.7703800  52.5189920 132.2918630  51.8821200
  53.3306080 133.5698000  51.8764460  65.7683510 141.2955300  59.2021210
  65.8930930 142.1186470  59.6745020  66.6349070 141.0846030  58.8545360
  53.2401040 143.3886510  58.8738340  53.9763520 142.8401970  59.1446910
  53.6241960 144.2542520  58.7344330  50.1246520 139.4560080  54.7479850
  49.1986300 139.6981220  54.7385260  50.5902950 140.2834340  54.6264600
  52.2459320 142.5732580  68.0623920  53.0472050 142.8944630  68.4759320
  51.7311140 142.2128160  68.7843830  56.3503350 142.5616820  50.6963910
  57.1431960 142.8505650  50.2445700  55.8307700 142.1308990  50.0176390
  61.0823950 138.6812450  68.0099330  60.4762110 138.7044050  67.2695080
  60.7778060 137.9495490  68.5466580  62.5124320 142.4092740  66.6208740
  63.4646070 142.3250760  66.5708980  62.3652540 143.0734450  67.2942530
  65.4033520 141.7886950  52.1200650  65.1175030 141.3752090  51.3054830
  65.2053070 142.7174660  52.0001170  49.9657130 135.0606040  67.0059970
  50.4696150 134.4813320  67.5776200  49.2264550 135.3446270  67.5436340
  56.8680750 137.7820230  50.5606260  56.7631390 137.1672580  51.2867640
  56.7004970 137.2586120  49.7769270  57.0195070 136.4677030  66.5395490
  56.2540740 137.0362030  66.4550160  57.2011030 136.1753240  65.6463720
  64.1618420 138.1982360  67.0970510  64.9027890 138.5358120  66.5937970
  63.3991100 138.3674420  66.5440280  55.7758600 135.8031180  53.0613550
  56.1975020 135.6371050  53.9044940  55.9009440 134.9931410  52.5668690
  58.2886240 134.8268790  50.3090650  58.8091900 134.1117810  49.9431800
  58.9354640 135.4654660  50.6091160  62.8364080 136.2497190  65.6325720
  63.2505100 136.4042270  66.4816140  61.9015080 136.3752410  65.7951500
  63.3086250 133.5893350  67.6364870  63.8907020 132.8345670  67.5485350
  63.4848020 134.1200790  66.8596350  57.1919760 127.3063340  62.9809210
  56.7437060 127.3287600  62.1354760  56.5584960 126.9082360  63.5779510
  57.5979310 136.2017670  63.6021650  58.0167420 137.0450400  63.4297890
  56.6787940 136.3389710  63.3728430  59.9343210 133.9333850  64.9859490
  60.0539420 133.3374990  65.7254330  60.7937210 133.9703540  64.5660790
  62.2731110 134.4871040  63.5622000  61.7466330 135.0113660  62.9587140
  62.6162450 135.1198430  64.1931730  54.6717500 131.8764410  50.0071710
  54.4706560 131.0131770  50.3685050  54.5009550 131.7897770  49.0693310
  55.4486730 142.5070680  64.7179380  54.9107820 143.2316740  64.3988080
  55.7020690 142.0301020  63.9276720  56.7011980 130.4755200  66.2435310
  57.2911670 130.1671050  66.9313130  55.8832220 130.0034950  66.3995210
  61.5205410 130.0921010  66.4768330  60.8320930 129.4302550  66.4118320
  62.2411430 129.6459280  66.9216790  58.3048940 143.7421890  64.9766030
  58.2307640 144.6457030  65.2838400  57.4027780 143.4233790  64.9488100
  58.8534270 142.9080400  52.5992390  59.7485060 143.2465370  52.6211150
  58.8851900 142.1859810  51.9716670  52.4930430 138.2807450  50.8279390
  52.9305300 138.8237120  51.4836970  52.9778160 137.4554400  50.8375730
  49.7076230 141.0696480  58.2799650  50.0379240 140.2017540  58.0478290
  50.1367230 141.2755000  59.1104610  54.3038150 139.4005490  55.9401620
  54.0033690 139.2770460  56.8405530  54.1975640 138.5414080  55.5317350
  50.1966440 141.9367070  61.0181280  49.7597430 142.1167870  61.8505430
  50.7644120 142.6941690  60.8763000  65.8328620 141.4384070  65.3058590
  65.2330610 141.4976630  64.5622510  65.9622520 140.4989050  65.4355440
  67.0730070 139.1801890  50.6428300  66.2423030 139.2478540  51.1135530
  67.2501900 140.0706010  50.3395160  50.0290870 134.4487300  57.3770160
  49.3739710 134.1798940  56.7329860  50.8668820 134.3391780  56.9272140
  67.5346500 136.7799470  57.9904430  67.9055330 135.9966790  57.5840400
  68.1748430 137.4688570  57.8121730  64.5180260 138.1636050  63.4034750
  63.7040100 138.5933210  63.6660540  64.9254460 138.7754460  62.7903800
  51.0666800 134.8339870  61.9173500  51.4339840 134.7467270  62.7969520
  50.4977620 134.0706420  61.8180360  65.8670660 133.3024250  64.9303970
  65.6356750 133.0737000  64.0301920  66.1275210 134.2223800  64.8848860
  64.3058730 128.5280680  67.7083670  65.1828910 128.5364080  68.0917670
  64.3179570 127.7911520  67.0976020  49.2428950 131.6586230  53.3195490
  48.3393030 131.9216430  53.1447150  49.7269570 131.9297400  52.5395450
  65.7522000 132.3810220  58.5971690  66.2759480 131.8872870  57.9661860
  66.3381420 132.5160580  59.3419260  65.9311720 132.4650090  62.1191240
  64.9814430 132.4313630  62.2336230  66.1124730 133.3750200  61.8841010
  51.7856160 130.7151770  51.2289870  52.4947860 130.2934990  50.7437150
  51.0696100 130.7827000  50.5973220  65.2421970 131.6383570  54.5364100
  65.7381090 131.4054440  55.3212980  65.0438040 130.7995410  54.1201740
  66.6709130 130.2744520  57.0701780  66.5608410 130.1200560  58.0084050
  67.4316720 129.7465460  56.8277190  67.5599400 128.1052440  50.3107920
  68.4848710 127.9733620  50.1026210  67.5375190 128.1845260  51.2644370
  67.6337890 128.8763100  52.9364630  66.8389390 128.8108220  53.4657540
  67.8381170 129.8113740  52.9249980  64.5756310 142.9154650  56.9303020
  65.1715380 142.5939220  56.2537440  64.8334460 142.4426470  57.7216290
  52.4818880 139.3472560  67.0793650  52.4388510 138.9765470  67.9608110
  52.6129890 140.2850130  67.2195470  56.1824910 140.9032150  62.6803370
  55.9416270 141.1706710  61.7933890  57.1227550 141.0737880  62.7354230
  58.3879330 127.3664840  66.4359880  58.3268220 127.9586670  67.1855290
  59.3279710 127.2590800  66.2910140  61.0253890 127.0234900  66.0752170
  61.6394300 127.3414190  65.4133250  61.5703450 126.5383490  66.6948030
  67.4429070 142.9226530  63.4814010  66.9487350 143.3195400  62.7641140
  66.8342360 142.2975740  63.8751290  52.3206910 142.2934810  64.1991430
  51.7267230 142.1619510  64.9381470  52.3130750 141.4572950  63.7333530
  61.7661930 125.5867040  62.4021460  60.8921770 125.9202150  62.1994390
  61.6572680 125.1140220  63.2273330  62.6733910 127.7937910  63.7863180
  62.3447270 126.9789670  63.4064910  63.6216210 127.7507720  63.6628870
  65.1268520 143.5649950  60.7600750  64.6671490 144.3165760  60.3858770
  64.4980980 142.8456420  60.7015550  51.9519140 139.6593190  63.1499470
  51.2253200 139.0398480  63.0825420  52.0128290 140.0533800  62.2797550
  55.5564240 141.8738190  59.9348880  56.0729260 141.2625550  59.4097140
  56.2061620 142.3766970  60.4259890  58.2959740 142.7646680  60.7617860
  58.5837550 142.5100980  59.8850870  58.8082960 142.2124040  61.3523430
  64.0657820 127.2059980  59.3863460  64.5065910 127.1505080  58.5385060
  63.7965410 128.1217990  59.4573640  65.9296390 126.8375220  57.3972280
  65.8684790 125.8936440  57.2503300  66.7088420 126.9455310  57.9425740
  50.2349140 142.9767580  56.3596230  50.0671180 142.3438260  57.0578120
  49.3683650 143.1826980  56.0090420  51.8411840 141.6700810  53.8046370
  51.3159460 142.0508840  53.1008330  51.7656420 142.2951580  54.5256080
  58.3632100 143.6862780  68.1286060  59.2899410 143.4507050  68.1722020
  58.3482530 144.5134780  67.6472090  66.5977160 143.2288350  55.1260310
  66.7729350 142.5426090  54.4821230  65.8998730 143.7535400  54.7336980
  54.4404810 143.6183190  52.6795620  55.1723630 143.3342470  52.1319510
  54.6998480 143.3796470  53.5695000  53.6019600 139.7347920  52.6841950
  52.9728480 140.2033020  53.2327780  53.7167430 138.8897140  53.1188140
  64.9309660 142.9132640  67.9527100  65.7234980 142.4181870  67.7453060
  65.2242810 143.5922780  68.5602710  61.0569320 133.7853580  38.8343150
  60.9763370 132.8708190  38.5634860  60.6433740 134.2820650  38.1282860
  59.1887360 135.5632600  40.7152420  58.4129460 135.0833040  41.0050990
  59.8400290 134.8838250  40.5408580  53.2053190 135.8752410  41.5928180
  52.3738070 135.6201120  41.9924690  53.8134170 135.9463180  42.3286100
  63.2094790 139.9692790  39.4951550  62.7476320 139.1980030  39.8238720
  64.0220340 139.9958860  40.0004000  53.1854450 139.9092500  41.7886200
  53.4882490 139.0190240  41.6096420  53.9298040 140.4662720  41.5608450
  51.6145140 130.8354300  35.3770570  50.7261840 131.1770270  35.2750450
  51.8986330 130.6354620  34.4851400  49.5778150 133.4359950  41.2610270
  50.1494260 132.6682150  41.2613910  49.5779690 133.7348710  40.3516880
  59.4358100 142.2550800  39.1155540  58.8169540 142.7108300  38.5449980
  60.2909880 142.4102260  38.7145240  58.6296350 138.2389790  40.7222580
  58.5604630 137.2979730  40.5611710  59.3916210 138.3291200  41.2945150
  50.8203020 128.8444310  43.0479200  50.6405860 127.9470060  43.3281960
  50.4183100 129.3916180  43.7226150  59.6601520 131.0460170  40.9491510
  60.0366340 130.1732050  40.8365180  59.5621030 131.3818870  40.0581950
  53.7906530 129.4185800  36.4108950  53.8973280 130.3189530  36.7177710
  52.8798890 129.3703770  36.1203600  63.4425640 128.5410610  37.8819850
  64.2635260 128.0507180  37.9245330  63.4759720 129.1308270  38.6351690
  51.4389690 131.3404810  41.6561540  52.1199800 131.6043180  42.2748940
  51.1237740 130.5005680  41.9899550  55.6314260 132.3872170  40.7434130
  56.1392480 132.8853140  41.3839150  56.1627500 131.6107370  40.5673490
  67.7325190 130.5577360  44.4463480  67.0277360 130.9459070  43.9278590
  67.9983110 131.2527650  45.0484410  53.9150360 127.0270730  45.0097550
  53.9168800 127.5443120  44.2043450  53.0854670 126.5500910  44.9867480
  60.3021450 137.1390040  36.5087450  59.6838720 137.6039490  35.9450170
  60.8144700 137.8317520  36.9256960  55.1653210 136.6665910  43.1871050
  54.8322590 137.2934830  43.8292120  55.3419890 137.1927790  42.4072720
  63.6787120 130.4810990  40.6547390  62.9742690 130.7695880  41.2350500
  64.0399280 131.2911100  40.2946950  53.5965690 128.7380690  43.0168000
  53.9382500 129.5822740  42.7221870  52.6581500 128.8864430  43.1333340
  54.3772310 138.6346710  45.0020230  54.9946310 139.3097790  44.7204680
  53.5165430 139.0434690  44.9107730  49.6704650 137.8246570  33.8827080
  49.2932630 138.3133670  33.1511980  49.9277720 138.4971850  34.5133610
  65.2949900 140.0986120  42.9174870  64.6113420 140.7685230  42.9091540
  65.8344190 140.2966770  42.1519730  66.7474040 129.9265780  41.0456600
  65.7998950 129.9604760  41.1772030  67.0724030 130.7404730  41.4305960
  62.8308640 141.9430250  41.6320050  62.8435800 141.5392540  40.7642310
  62.2783860 142.7177540  41.5281480  64.1254060 138.6646470  36.7210220
  64.0150390 137.7220800  36.8459640  64.1222310 139.0262110  37.6072980
  62.2294080 136.8460090  42.9602660  62.6462870 136.6320200  42.1256120
  62.9533900 137.1032880  43.5311280  59.6674340 134.2911790  36.0772710
  58.7403620 134.2249170  36.3061180  59.8199160 135.2291920  35.9627950
  59.6543420 130.5628790  33.0739870  58.7147090 130.7242750  33.1592330
  59.9726680 131.2814470  32.5275860  66.1756180 135.2447310  43.0518900
  65.3474810 135.3140400  42.5769030  66.7706660 135.8301620  42.5834730
  63.6971630 135.8532090  36.5807960  63.0784050 135.5151640  35.9334260
  63.6796080 135.2091850  37.2887150  63.1398190 132.0316630  43.9973770
  62.7269370 132.8570340  44.2513760  62.4074140 131.4461670  43.8050130
  55.2730980 134.8176530  38.8592440  54.8687980 134.1053780  38.3638340
  55.3594100 134.4729770  39.7480480  55.7412680 138.5044090  41.0231650
  55.4440970 137.8989560  40.3439430  56.6912500 138.5421400  40.9121010
  53.9859600 131.5919740  42.6391480  54.5374190 131.7015080  41.8644730
  54.5003110 131.9657340  43.3546710  63.8298290 142.0775960  44.6854750
  63.3528850 142.8848150  44.4927360  63.1460080 141.4254290  44.8380960
  54.8331110 138.2425780  47.6739450  53.9359640 138.4665750  47.9212850
  54.8583980 138.3660720  46.7250850  61.8736330 135.0918900  33.5880710
  62.3129610 134.2541330  33.4418530  62.5864750 135.7248300  33.6744850
  53.6602330 135.1139100  46.2496820  53.5210100 135.9861900  46.6184220
  52.7783690 134.7711910  46.1044760  59.9831710 140.0314970  37.5561950
  60.4227620 140.7739300  37.1417340  59.9218600 140.2741540  38.4800910
  55.4582680 141.0560800  48.4581970  55.4298110 141.4603750  47.5910400
  55.2947650 140.1271160  48.2953570  65.4553470 126.3461710  31.9021750
  65.1426130 126.4388540  32.8020820  66.2165940 126.9242740  31.8519180
  51.9735610 133.7121510  36.3599090  51.8533210 134.4383600  35.7480360
  51.6636500 132.9424420  35.8827000  67.4097500 141.8387900  49.7546140
  67.8857220 142.3170790  50.4335220  68.0304660 141.7705390  49.0291640
  49.6120980 136.8836650  42.1667730  49.6901400 137.0185420  41.2223450
  50.2262660 136.1752540  42.3595850  50.8568610 138.5836840  38.5773910
  50.4496690 138.7251430  37.7227510  51.7481620 138.2997000  38.3745120
  66.8130750 139.0300750  46.9146150  66.9393810 138.7912630  45.9963330
  66.8552130 138.1985290  47.3868230  60.6747490 142.7328750  45.4840960
  61.1892160 142.6436760  46.2863390  59.8316570 143.0788450  45.7768870
  62.6501890 143.0184090  34.9124960  62.4903030 142.7287030  35.8106790
  62.4848600 142.2424220  34.3770190  55.1290270 142.7982620  36.6896580
  54.9532750 141.8818160  36.4764380  54.2746010 143.1569910  36.9294380
  62.3528020 140.5271650  33.4722960  61.6593180 140.5248940  32.8125240
  63.0950880 140.1030970  33.0417130  61.9177950 142.1534360  37.5471450
  62.3734900 141.3723740  37.8610070  62.2570470 142.8641180  38.0912630
  49.6680500 137.9250820  44.7062190  49.8311540 137.4556180  43.8881560
  50.1332950 137.4174380  45.3711030  54.4399270 127.0556580  39.7422760
  53.9967420 127.8366120  39.4107280  54.9984260 127.3786470  40.4493700
  58.7269080 129.9225100  45.3458080  58.2648450 130.1308120  46.1578020
  58.3247190 129.1084450  45.0428750  63.7273590 131.1434050  46.4754740
  62.8767180 130.8439800  46.7963810  63.5675380 131.3876060  45.5638560
  57.5558090 126.6767280  34.6228590  56.9312270 126.6727150  35.3481900
  57.4688210 125.8098240  34.2264560  54.2313490 132.1790150  37.4704010
  54.0054410 131.9627320  38.3750630  53.4506020 132.6118610  37.1249980
  61.4611250 132.1853520  36.0694660  60.8620140 132.9089320  35.8858280
  62.0090860 132.1230300  35.2871110  56.6712700 133.0775730  48.1364280
  56.5756300 132.1370460  47.9864680  57.5144680 133.2990800  47.7412350
  60.0676120 130.8217060  38.0997940  60.4605690 131.1389260  37.2866630
  60.4292970 129.9428940  38.2142460  51.8023240 129.4889400  46.2898060
  51.4086630 130.3364610  46.4970840  51.1141640 128.8515770  46.4806700
  58.3768290 129.5724370  49.3594800  57.6866610 129.3796570  49.9940890
  59.1200590 129.8559010  49.8919100  49.1040290 127.4117860  40.3228140
  48.8153340 127.9820720  41.0353120  49.8486050 126.9322310  40.6859370
  49.2910520 131.3537980  31.5330860  49.2085190 132.2968740  31.6745850
  48.9393580 131.2112890  30.6543210  60.6531260 133.4122810  42.1948720
  59.9212380 133.9209620  42.5438820  60.2555600 132.5952790  41.8937500
  57.0908650 130.0877010  40.6001210  57.0944710 129.6466960  39.7505750
  57.9859770 130.4094340  40.7073030  52.9411030 129.9703500  39.5595420
  52.6011080 130.4478730  40.3162470  52.1788350 129.5168620  39.1996520
  57.1528800 131.0889090  33.5907970  57.2741620 131.0475570  34.5393790
  56.7677310 131.9513240  33.4354700  61.1157170 128.8656490  41.6071660
  61.1329910 129.3165140  42.4513510  60.8672750 127.9662130  41.8205100
  56.1650300 133.3990230  32.9891270  55.5967200 132.9508480  32.3627180
  56.8739300 133.7583010  32.4556420  64.5427920 126.2788670  47.4458040
  64.8673690 125.5478330  47.9716020  64.5784430 125.9602310  46.5439030
  51.2419480 137.3002250  46.8658000  50.8574270 136.6595920  47.4640960
  51.5531670 138.0038370  47.4352730  57.3916620 134.1478790  42.3466620
  57.7586750 133.6737360  43.0927960  57.2021680 135.0220360  42.6874960
  50.2557110 128.8922480  38.4760090  49.9704030 128.5278150  39.3138710
  50.1935970 128.1602940  37.8623230  55.1815990 133.1887430  44.6650830
  54.8773060 134.0679410  44.8901190  56.1362450 133.2487220  44.7008270
  53.7097780 137.3948420  35.2617680  52.9360040 136.8546040  35.1016400
  54.4392410 136.8755030  34.9235440  64.4685760 136.3913780  41.0544070
  65.1884880 136.8869070  40.6640180  64.2667580 135.7131670  40.4097940
  59.9295700 127.7851740  35.1973460  59.1160310 127.2864910  35.1218770
  59.7357650 128.6249990  34.7809810  59.8504560 136.4622840  46.9413070
  59.7841870 135.5418510  46.6870660  59.2209700 136.5598280  47.6557710
  62.6444090 132.1571390  33.4935620  63.5323710 132.4688620  33.3186960
  62.6149180 131.2843640  33.1016200  53.7535180 137.0628800  38.8996490
  54.2713850 136.2597060  38.8453380  53.3019200 137.0007940  39.7413320
  58.6404680 138.3295080  34.1723790  58.9820380 139.0737310  33.6767110
  57.8117390 138.6426200  34.5348620  51.2379720 134.0290170  45.8122190
  50.8794660 134.6944020  46.3995530  50.9434280 133.1973720  46.1834810
  54.4392840 134.4874410  48.6961740  54.1392980 134.6331590  47.7989560
  55.2104080 133.9279700  48.6035130  59.7821290 139.2843410  46.6916870
  59.7965830 138.3524370  46.4735780  59.0746390 139.3703170  47.3306640
  64.9158360 133.4683230  32.9615480  64.8322080 133.8997450  32.1111920
  65.6352550 133.9281580  33.3942300  65.9932500 135.9250750  46.0385450
  65.2680690 136.5179530  45.8414840  66.5207960 135.9174290  45.2398820
  65.9445610 140.3225490  35.6897610  65.3021770 139.6681110  35.9641330
  65.5576270 140.7280580  34.9138280  61.5232090 137.6510920  39.5369300
  61.8755910 137.0539050  38.8770670  60.6394420 137.3255150  39.7077550
  57.6095370 138.4108610  36.9439710  58.2966500 138.9577820  37.3247300
  56.8227790 138.9549340  36.9789320  49.7487770 134.0281430  32.4356790
  50.6182620 134.3106230  32.7192710  49.2578090 134.8417300  32.3205600
  56.9122580 135.4154640  36.5565070  57.3685360 136.2259890  36.7825260
  56.5610790 135.0977780  37.3883560  59.2155190 140.9260980  43.7857370
  59.8597410 141.1320360  44.4630790  59.5784630 140.1649380  43.3328220
  52.8134360 125.7592290  37.0287590  52.6848990 125.7510190  37.9772510
  51.9896380 126.0975380  36.6778600  60.4887270 138.9293330  42.5034820
  61.1309500 138.2286490  42.6166990  61.0136620 139.7091770  42.3231710
  64.3342990 139.2141950  32.2273960  64.1080570 138.4972390  32.8198600
  63.9439190 138.9654390  31.3895710  62.2624890 139.7288230  45.7070880
  62.5981130 140.3154920  46.3848800  61.3425230 139.5980940  45.9368670
  50.1159020 143.2408810  33.0018420  50.4756660 143.8398150  32.3475690
  49.9751360 143.7868700  33.7753450  49.8128290 127.5183410  46.4894290
  49.0986810 127.7180330  47.0946900  50.2323330 126.7422980  46.8609090
  63.9159240 137.1313890  33.8888120  63.6280940 137.5926580  34.6766000
  64.7111410 136.6711660  34.1572340  50.1000880 141.5063670  47.4760820
  50.2092000 140.5658410  47.3356210  49.4481440 141.7718420  46.8274550
  58.0913470 139.7779560  48.8758940  57.7710340 139.0588800  49.4204630
  57.4171830 140.4534630  48.9495000  56.1327640 140.6240010  33.8192090
  56.1237740 141.3569700  33.2036600  55.2126000 140.3771590  33.9119050
  51.7334280 135.8454900  34.5638850  51.1262230 136.5853800  34.5734150
  52.2083630 135.9354260  33.7377050  61.3067070 130.0105720  44.2395740
  61.6747890 129.1900930  44.5675310  60.4465270 130.0707610  44.6551390
  64.6729100 128.9662660  35.0483300  64.0442260 129.0708330  34.3341530
  64.1781020 129.1859440  35.8377180  59.1187240 140.6868250  32.4817280
  59.2199220 140.4832240  31.5519260  58.2188980 140.4326530  32.6865060
  56.6413130 131.2448610  36.4641180  55.9329280 131.7134950  36.9054790
  56.9257610 130.5870620  37.0986370  58.2669060 132.6645310  44.4633710
  58.7654310 133.1391130  45.1285560  58.4092010 131.7408830  44.6703740
  60.6728560 127.9699270  37.9036970  60.5496340 127.9885400  36.9546480
  61.6213120 128.0178210  38.0235370  57.7605350 143.2054570  37.1764950
  58.0146850 143.1675960  36.2544320  56.8117830 143.0787900  37.1693200
  54.8448150 129.5533690  33.8391890  55.6938680 129.9903840  33.7732080
  54.4779420 129.8653950  34.6663950  65.4735920 128.8813270  45.3062100
  64.9709520 129.6218670  45.6455910  66.2892580 129.2697270  44.9898890
  63.7657930 134.1246450  38.7523460  62.8248070 134.1396680  38.9271150
  64.0802000 133.3382410  39.1983760  53.7439570 135.8066050  32.3127420
  54.5102840 135.6947410  32.8752850  53.8214260 135.1104020  31.6604190
  52.4386330 133.2391120  32.9960310  52.5189920 132.2918630  33.1077710
  53.3306080 133.5698000  33.1020970  65.7683510 141.2955300  40.4277720
  65.8930930 142.1186470  40.9001530  66.6349070 141.0846030  40.0801870
  53.2401040 143.3886510  40.0994850  53.9763520 142.8401970  40.3703420
  53.6241960 144.2542520  39.9600840  50.1246520 139.4560080  35.9736360
  49.1986300 139.6981220  35.9641770  50.5902950 140.2834340  35.8521110
  52.2459320 142.5732580  49.2880430  53.0472050 142.8944630  49.7015830
  51.7311140 142.2128160  50.0100340  56.3503350 142.5616820  31.9220420
  57.1431960 142.8505650  31.4702210  55.8307700 142.1308990  31.2432900
  61.0823950 138.6812450  49.2355840  60.4762110 138.7044050  48.4951590
  60.7778060 137.9495490  49.7723090  62.5124320 142.4092740  47.8465250
  63.4646070 142.3250760  47.7965490  62.3652540 143.0734450  48.5199040
  65.4033520 141.7886950  33.3457160  65.1175030 141.3752090  32.5311340
  65.2053070 142.7174660  33.2257680  49.9657130 135.0606040  48.2316480
  50.4696150 134.4813320  48.8032710  49.2264550 135.3446270  48.7692850
  56.8680750 137.7820230  31.7862770  56.7631390 137.1672580  32.5124150
  56.7004970 137.2586120  31.0025780  57.0195070 136.4677030  47.7652000
  56.2540740 137.0362030  47.6806670  57.2011030 136.1753240  46.8720230
  60.1083480 136.8440260  32.3904760  59.5593580 137.2909560  33.0347500
  60.7302740 136.3389510  32.9142430  64.1618420 138.1982360  48.3227020
  64.9027890 138.5358120  47.8194480  63.3991100 138.3674420  47.7696790
  51.9980210 133.2035630  49.1266550  52.0385550 132.9049500  50.0351780
  52.8525710 133.6043240  48.9674070  55.7758600 135.8031180  34.2870060
  56.1975020 135.6371050  35.1301450  55.9009440 134.9931410  33.7925200
  53.9386020 131.7827730  47.0941040  53.4082480 131.2918680  46.4664380
  54.6074090 132.2111930  46.5598970  58.2886240 134.8268790  31.5347160
  58.8091900 134.1117810  31.1688310  58.9354640 135.4654660  31.8347670
  62.8364080 136.2497190  46.8582230  63.2505100 136.4042270  47.7072650
  61.9015080 136.3752410  47.0208010  54.4258320 128.7490100  47.1738330
  54.3315190 128.1310850  46.4489200  53.8455710 129.4756390  46.9468240
  57.5979310 136.2017670  44.8278160  58.0167420 137.0450400  44.6554400
  56.6787940 136.3389710  44.5984940  59.9343210 133.9333850  46.2116000
  60.0539420 133.3374990  46.9510840  60.7937210 133.9703540  45.7917300
  62.2731110 134.4871040  44.7878510  61.7466330 135.0113660  44.1843650
  62.6162450 135.1198430  45.4188240  54.6717500 131.8764410  31.2328220
  54.4706560 131.0131770  31.5941560  54.5009550 131.7897770  30.2949820
  55.4486730 142.5070680  45.9435890  54.9107820 143.2316740  45.6244590
  55.7020690 142.0301020  45.1533230  56.7011980 130.4755200  47.4691820
  57.2911670 130.1671050  48.1569640  55.8832220 130.0034950  47.6251720
  62.1505810 126.6872640  33.7615100  62.4308100 125.8440540  34.1174520
  61.3771540 126.9195750  34.2753850  53.4700300 128.9765030  31.2206100
  53.7726200 128.9832460  30.3125250  54.2094890 128.6262890  31.7173760
  58.3048940 143.7421890  46.2022540  58.2307640 144.6457030  46.5094910
  57.4027780 143.4233790  46.1744610  56.6885230 127.9199650  32.2062300
  56.3407230 127.2423640  31.6264750  56.8898000 127.4589160  33.0205690
  58.8534270 142.9080400  33.8248900  59.7485060 143.2465370  33.8467660
  58.8851900 142.1859810  33.1973180  52.4930430 138.2807450  32.0535900
  52.9305300 138.8237120  32.7093480  52.9778160 137.4554400  32.0632240
  49.7076230 141.0696480  39.5056160  50.0379240 140.2017540  39.2734800
  50.1367230 141.2755000  40.3361120  54.3038150 139.4005490  37.1658130
  54.0033690 139.2770460  38.0662040  54.1975640 138.5414080  36.7573860
  50.1966440 141.9367070  42.2437790  49.7597430 142.1167870  43.0761940
  50.7644120 142.6941690  42.1019510  65.8328620 141.4384070  46.5315100
  65.2330610 141.4976630  45.7879020  65.9622520 140.4989050  46.6611950
  67.0730070 139.1801890  31.8684810  66.2423030 139.2478540  32.3392040
  67.2501900 140.0706010  31.5651670  66.5286530 135.9249370  34.3719010
  67.2905440 136.4946020  34.4778700  66.5440900 135.3576570  35.1427320
  50.0290870 134.4487300  38.6026670  49.3739710 134.1798940  37.9586370
  50.8668820 134.3391780  38.1528650  67.5346500 136.7799470  39.2160940
  67.9055330 135.9966790  38.8096910  68.1748430 137.4688570  39.0378240
  64.5180260 138.1636050  44.6291260  63.7040100 138.5933210  44.8917050
  64.9254460 138.7754460  44.0160310  66.5805700 136.2183740  31.5291530
  66.8554540 137.1262620  31.4010750  66.3916440 136.1546270  32.4653520
  62.9781310 129.2428590  32.8245160  63.3966190 129.0559570  31.9841820
  62.6717370 128.3907640  33.1348090  66.4771040 134.1552730  36.5220960
  66.1014640 133.3880660  36.0902250  65.7474160 134.5375430  37.0095890
  51.0666800 134.8339870  43.1430010  51.4339840 134.7467270  44.0226030
  50.4977620 134.0706420  43.0436870  65.8670660 133.3024250  46.1560480
  65.6356750 133.0737000  45.2558430  66.1275210 134.2223800  46.1105370
  50.6182800 131.7448960  47.0488430  49.7238850 131.7115720  47.3882140
  51.1580350 131.9435750  47.8139680  64.3058730 128.5280680  48.9340180
  65.1828910 128.5364080  49.3174180  64.3179570 127.7911520  48.3232530
  49.2428950 131.6586230  34.5452000  48.3393030 131.9216430  34.3703660
  49.7269570 131.9297400  33.7651960  65.7522000 132.3810220  39.8228200
  66.2759480 131.8872870  39.1918370  66.3381420 132.5160580  40.5675770
  65.9311720 132.4650090  43.3447750  64.9814430 132.4313630  43.4592740
  66.1124730 133.3750200  43.1097520  51.7856160 130.7151770  32.4546380
  52.4947860 130.2934990  31.9693660  51.0696100 130.7827000  31.8229730
  51.4330320 126.7691100  31.4949030  52.1558450 127.3100040  31.8130250
  51.7054840 126.4954520  30.6190570  65.2421970 131.6383570  35.7620610
  65.7381090 131.4054440  36.5469490  65.0438040 130.7995410  35.3458250
  66.6709130 130.2744520  38.2958290  66.5608410 130.1200560  39.2340560
  67.4316720 129.7465460  38.0533700  65.0174850 126.2138650  44.7541290
  65.6547070 126.8272790  45.1200480  65.1649740 126.2499310  43.8090520
  67.5599400 128.1052440  31.5364430  68.4848710 127.9733620  31.3282720
  67.5375190 128.1845260  32.4900880  67.6337890 128.8763100  34.1621140
  66.8389390 128.8108220  34.6914050  67.8381170 129.8113740  34.1506490
  64.5756310 142.9154650  38.1559530  65.1715380 142.5939220  37.4793950
  64.8334460 142.4426470  38.9472800  52.4818880 139.3472560  48.3050160
  52.4388510 138.9765470  49.1864620  52.6129890 140.2850130  48.4451980
  56.1824910 140.9032150  43.9059880  55.9416270 141.1706710  43.0190400
  57.1227550 141.0737880  43.9610740  58.3879330 127.3664840  47.6616390
  58.3268220 127.9586670  48.4111800  59.3279710 127.2590800  47.5166650
  61.0253890 127.0234900  47.3008680  61.6394300 127.3414190  46.6389760
  61.5703450 126.5383490  47.9204540  67.4429070 142.9226530  44.7070520
  66.9487350 143.3195400  43.9897650  66.8342360 142.2975740  45.1007800
  51.5475150 125.7029160  47.4147740  52.0958140 125.5217210  46.6513850
  51.6130460 124.9123270  47.9504050  52.3206910 142.2934810  45.4247940
  51.7267230 142.1619510  46.1637980  52.3130750 141.4572950  44.9590040
  62.6733910 127.7937910  45.0119690  62.3447270 126.9789670  44.6321420
  63.6216210 127.7507720  44.8885380  65.1268520 143.5649950  41.9857260
  64.6671490 144.3165760  41.6115280  64.4980980 142.8456420  41.9272060
  51.9519140 139.6593190  44.3755980  51.2253200 139.0398480  44.3081930
  52.0128290 140.0533800  43.5054060  55.5564240 141.8738190  41.1605390
  56.0729260 141.2625550  40.6353650  56.2061620 142.3766970  41.6516400
  58.2959740 142.7646680  41.9874370  58.5837550 142.5100980  41.1107380
  58.8082960 142.2124040  42.5779940  64.0657820 127.2059980  40.6119970
  64.5065910 127.1505080  39.7641570  63.7965410 128.1217990  40.6830150
  65.9296390 126.8375220  38.6228790  65.8684790 125.8936440  38.4759810
  66.7088420 126.9455310  39.1682250  50.2349140 142.9767580  37.5852740
  50.0671180 142.3438260  38.2834630  49.3683650 143.1826980  37.2346930
  50.8577160 126.8084360  35.0884600  51.6156520 126.9213240  34.5148630
  50.3954330 127.6453560  35.0428030  57.3990970 128.9223630  38.0786910
  56.5865480 128.5480520  37.7382790  57.9032610 128.1668710  38.3808100
  61.9015950 125.5866080  39.3169980  62.5045320 126.1586290  39.7918500
  61.1608940 126.1505520  39.0943880  65.0450550 125.9887640  34.5910260
  65.2401180 126.8871090  34.8577690  64.2580420 125.7574720  35.0843210
  51.8411840 141.6700810  35.0302880  51.3159460 142.0508840  34.3264840
  51.7656420 142.2951580  35.7512590  53.2302310 127.3348410  33.6286570
  53.7595070 126.5478210  33.4994520  53.8630630 128.0139600  33.8622100
  55.4240150 127.0723550  36.6831960  54.7942890 126.3710860  36.8502090
  54.8845290 127.8327680  36.4665120  58.3632100 143.6862780  49.3542570
  59.2899410 143.4507050  49.3978530  58.3482530 144.5134780  48.8728600
  66.5977160 143.2288350  36.3516820  66.7729350 142.5426090  35.7077740
  65.8998730 143.7535400  35.9593490  54.4404810 143.6183190  33.9052130
  55.1723630 143.3342470  33.3576020  54.6998480 143.3796470  34.7951510
  53.6019600 139.7347920  33.9098460  52.9728480 140.2033020  34.4584290
  53.7167430 138.8897140  34.3444650  64.9309660 142.9132640  49.1783610
  65.7234980 142.4181870  48.9709570  65.2242810 143.5922780  49.7859220
  61.0569320 133.7853580  20.0599660  60.9763370 132.8708190  19.7891370
  60.6433740 134.2820650  19.3539370  59.1887360 135.5632600  21.9408930
  58.4129460 135.0833040  22.2307500  59.8400290 134.8838250  21.7665090
  53.2053190 135.8752410  22.8184690  52.3738070 135.6201120  23.2181200
  53.8134170 135.9463180  23.5542610  63.2094790 139.9692790  20.7208060
  62.7476320 139.1980030  21.0495230  64.0220340 139.9958860  21.2260510
  53.1854450 139.9092500  23.0142710  53.4882490 139.0190240  22.8352930
  53.9298040 140.4662720  22.7864960  51.6145140 130.8354300  16.6027080
  50.7261840 131.1770270  16.5006960  51.8986330 130.6354620  15.7107910
  49.5778150 133.4359950  22.4866780  50.1494260 132.6682150  22.4870420
  49.5779690 133.7348710  21.5773390  59.4358100 142.2550800  20.3412050
  58.8169540 142.7108300  19.7706490  60.2909880 142.4102260  19.9401750
  58.6296350 138.2389790  21.9479090  58.5604630 137.2979730  21.7868220
  59.3916210 138.3291200  22.5201660  50.8203020 128.8444310  24.2735710
  50.6405860 127.9470060  24.5538470  50.4183100 129.3916180  24.9482660
  59.6601520 131.0460170  22.1748020  60.0366340 130.1732050  22.0621690
  59.5621030 131.3818870  21.2838460  53.7906530 129.4185800  17.6365460
  53.8973280 130.3189530  17.9434220  52.8798890 129.3703770  17.3460110
  63.4425640 128.5410610  19.1076360  64.2635260 128.0507180  19.1501840
  63.4759720 129.1308270  19.8608200  51.4389690 131.3404810  22.8818050
  52.1199800 131.6043180  23.5005450  51.1237740 130.5005680  23.2156060
  55.6314260 132.3872170  21.9690640  56.1392480 132.8853140  22.6095660
  56.1627500 131.6107370  21.7930000  67.7325190 130.5577360  25.6719990
  67.0277360 130.9459070  25.1535100  67.9983110 131.2527650  26.2740920
  53.9150360 127.0270730  26.2354060  53.9168800 127.5443120  25.4299960
  53.0854670 126.5500910  26.2123990  60.3021450 137.1390040  17.7343960
  59.6838720 137.6039490  17.1706680  60.8144700 137.8317520  18.1513470
  55.1653210 136.6665910  24.4127560  54.8322590 137.2934830  25.0548630
  55.3419890 137.1927790  23.6329230  63.6787120 130.4810990  21.8803900
  62.9742690 130.7695880  22.4607010  64.0399280 131.2911100  21.5203460
  53.5965690 128.7380690  24.2424510  53.9382500 129.5822740  23.9478380
  52.6581500 128.8864430  24.3589850  54.3772310 138.6346710  26.2276740
  54.9946310 139.3097790  25.9461190  53.5165430 139.0434690  26.1364240
  49.6704650 137.8246570  15.1083590  49.2932630 138.3133670  14.3768490
  49.9277720 138.4971850  15.7390120  65.2949900 140.0986120  24.1431380
  64.6113420 140.7685230  24.1348050  65.8344190 140.2966770  23.3776240
  66.7474040 129.9265780  22.2713110  65.7998950 129.9604760  22.4028540
  67.0724030 130.7404730  22.6562470  57.2793580 126.2262960  20.5669100
  57.5868560 125.6709850  19.8504600  56.3494280 126.3607420  20.3842090
  62.8308640 141.9430250  22.8576560  62.8435800 141.5392540  21.9898820
  62.2783860 142.7177540  22.7537990  64.1254060 138.6646470  17.9466730
  64.0150390 137.7220800  18.0716150  64.1222310 139.0262110  18.8329490
  62.2294080 136.8460090  24.1859170  62.6462870 136.6320200  23.3512630
  62.9533900 137.1032880  24.7567790  59.6674340 134.2911790  17.3029220
  58.7403620 134.2249170  17.5317690  59.8199160 135.2291920  17.1884460
  59.6543420 130.5628790  14.2996380  58.7147090 130.7242750  14.3848840
  59.9726680 131.2814470  13.7532370  66.1756180 135.2447310  24.2775410
  65.3474810 135.3140400  23.8025540  66.7706660 135.8301620  23.8091240
  63.6971630 135.8532090  17.8064470  63.0784050 135.5151640  17.1590770
  63.6796080 135.2091850  18.5143660  63.1398190 132.0316630  25.2230280
  62.7269370 132.8570340  25.4770270  62.4074140 131.4461670  25.0306640
  55.2730980 134.8176530  20.0848950  54.8687980 134.1053780  19.5894850
  55.3594100 134.4729770  20.9736990  55.7412680 138.5044090  22.2488160
  55.4440970 137.8989560  21.5695940  56.6912500 138.5421400  22.1377520
  53.9859600 131.5919740  23.8647990  54.5374190 131.7015080  23.0901240
  54.5003110 131.9657340  24.5803220  63.8298290 142.0775960  25.9111260
  63.3528850 142.8848150  25.7183870  63.1460080 141.4254290  26.0637470
  54.8331110 138.2425780  28.8995960  53.9359640 138.4665750  29.1469360
  54.8583980 138.3660720  27.9507360  61.8736330 135.0918900  14.8137220
  62.3129610 134.2541330  14.6675040  62.5864750 135.7248300  14.9001360
  53.6602330 135.1139100  27.4753330  53.5210100 135.9861900  27.8440730
  52.7783690 134.7711910  27.3301270  59.9831710 140.0314970  18.7818460
  60.4227620 140.7739300  18.3673850  59.9218600 140.2741540  19.7057420
  55.4582680 141.0560800  29.6838480  55.4298110 141.4603750  28.8166910
  55.2947650 140.1271160  29.5210080  65.4553470 126.3461710  13.1278260
  65.1426130 126.4388540  14.0277330  66.2165940 126.9242740  13.0775690
  51.9735610 133.7121510  17.5855600  51.8533210 134.4383600  16.9736870
  51.6636500 132.9424420  17.1083510  67.4097500 141.8387900  30.9802650
  67.8857220 142.3170790  31.6591730  68.0304660 141.7705390  30.2548150
  49.6120980 136.8836650  23.3924240  49.6901400 137.0185420  22.4479960
  50.2262660 136.1752540  23.5852360  50.8568610 138.5836840  19.8030420
  50.4496690 138.7251430  18.9484020  51.7481620 138.2997000  19.6001630
  66.8130750 139.0300750  28.1402660  66.9393810 138.7912630  27.2219840
  66.8552130 138.1985290  28.6124740  60.6747490 142.7328750  26.7097470
  61.1892160 142.6436760  27.5119900  59.8316570 143.0788450  27.0025380
  62.6501890 143.0184090  16.1381470  62.4903030 142.7287030  17.0363300
  62.4848600 142.2424220  15.6026700  55.1290270 142.7982620  17.9153090
  54.9532750 141.8818160  17.7020890  54.2746010 143.1569910  18.1550890
  62.3528020 140.5271650  14.6979470  61.6593180 140.5248940  14.0381750
  63.0950880 140.1030970  14.2673640  61.9177950 142.1534360  18.7727960
  62.3734900 141.3723740  19.0866580  62.2570470 142.8641180  19.3169140
  66.6654760 131.0833210  29.1052400  66.0499030 131.5912880  28.5767860
  66.3451180 130.1831540  29.0478340  49.6680500 137.9250820  25.9318700
  49.8311540 137.4556180  25.1138070  50.1332950 137.4174380  26.5967540
  54.4399270 127.0556580  20.9679270  53.9967420 127.8366120  20.6363790
  54.9984260 127.3786470  21.6750210  58.7269080 129.9225100  26.5714590
  58.2648450 130.1308120  27.3834530  58.3247190 129.1084450  26.2685260
  63.7273590 131.1434050  27.7011250  62.8767180 130.8439800  28.0220320
  63.5675380 131.3876060  26.7895070  60.8223300 132.6435800  29.8010040
  61.1476710 131.8099550  29.4612270  61.6103630 133.1664320  29.9488370
  57.5558090 126.6767280  15.8485100  56.9312270 126.6727150  16.5738410
  57.4688210 125.8098240  15.4521070  56.4775170 127.6003910  22.8268870
  56.7747500 128.5066740  22.7460890  57.0260730 127.1122690  22.2128440
  54.2313490 132.1790150  18.6960520  54.0054410 131.9627320  19.6007140
  53.4506020 132.6118610  18.3506490  61.4611250 132.1853520  17.2951170
  60.8620140 132.9089320  17.1114790  62.0090860 132.1230300  16.5127620
  56.6712700 133.0775730  29.3620790  56.5756300 132.1370460  29.2121190
  57.5144680 133.2990800  28.9668860  60.0676120 130.8217060  19.3254450
  60.4605690 131.1389260  18.5123140  60.4292970 129.9428940  19.4398970
  51.8023240 129.4889400  27.5154570  51.4086630 130.3364610  27.7227350
  51.1141640 128.8515770  27.7063210  58.3768290 129.5724370  30.5851310
  57.6866610 129.3796570  31.2197400  59.1200590 129.8559010  31.1175610
  49.1040290 127.4117860  21.5484650  48.8153340 127.9820720  22.2609630
  49.8486050 126.9322310  21.9115880  49.2910520 131.3537980  12.7587370
  49.2085190 132.2968740  12.9002360  48.9393580 131.2112890  11.8799720
  60.6531260 133.4122810  23.4205230  59.9212380 133.9209620  23.7695330
  60.2555600 132.5952790  23.1194010  57.0908650 130.0877010  21.8257720
  57.0944710 129.6466960  20.9762260  57.9859770 130.4094340  21.9329540
  52.9411030 129.9703500  20.7851930  52.6011080 130.4478730  21.5418980
  52.1788350 129.5168620  20.4253030  57.1528800 131.0889090  14.8164480
  57.2741620 131.0475570  15.7650300  56.7677310 131.9513240  14.6611210
  61.1157170 128.8656490  22.8328170  61.1329910 129.3165140  23.6770020
  60.8672750 127.9662130  23.0461610  56.1650300 133.3990230  14.2147780
  55.5967200 132.9508480  13.5883690  56.8739300 133.7583010  13.6812930
  64.5427920 126.2788670  28.6714550  64.8673690 125.5478330  29.1972530
  64.5784430 125.9602310  27.7695540  51.2419480 137.3002250  28.0914510
  50.8574270 136.6595920  28.6897470  51.5531670 138.0038370  28.6609240
  57.3916620 134.1478790  23.5723130  57.7586750 133.6737360  24.3184470
  57.2021680 135.0220360  23.9131470  50.2557110 128.8922480  19.7016600
  49.9704030 128.5278150  20.5395220  50.1935970 128.1602940  19.0879740
  55.1815990 133.1887430  25.8907340  54.8773060 134.0679410  26.1157700
  56.1362450 133.2487220  25.9264780  53.7097780 137.3948420  16.4874190
  52.9360040 136.8546040  16.3272910  54.4392410 136.8755030  16.1491950
  64.4685760 136.3913780  22.2800580  65.1884880 136.8869070  21.8896690
  64.2667580 135.7131670  21.6354450  59.9295700 127.7851740  16.4229970
  59.1160310 127.2864910  16.3475280  59.7357650 128.6249990  16.0066320
  59.8504560 136.4622840  28.1669580  59.7841870 135.5418510  27.9127170
  59.2209700 136.5598280  28.8814220  62.6444090 132.1571390  14.7192130
  63.5323710 132.4688620  14.5443470  62.6149180 131.2843640  14.3272710
  53.7535180 137.0628800  20.1253000  54.2713850 136.2597060  20.0709890
  53.3019200 137.0007940  20.9669830  58.6404680 138.3295080  15.3980300
  58.9820380 139.0737310  14.9023620  57.8117390 138.6426200  15.7605130
  51.2379720 134.0290170  27.0378700  50.8794660 134.6944020  27.6252040
  50.9434280 133.1973720  27.4091320  54.4392840 134.4874410  29.9218250
  54.1392980 134.6331590  29.0246070  55.2104080 133.9279700  29.8291640
  59.7821290 139.2843410  27.9173380  59.7965830 138.3524370  27.6992290
  59.0746390 139.3703170  28.5563150  64.9158360 133.4683230  14.1871990
  64.8322080 133.8997450  13.3368430  65.6352550 133.9281580  14.6198810
  65.9932500 135.9250750  27.2641960  65.2680690 136.5179530  27.0671350
  66.5207960 135.9174290  26.4655330  65.9445610 140.3225490  16.9154120
  65.3021770 139.6681110  17.1897840  65.5576270 140.7280580  16.1394790
  61.5232090 137.6510920  20.7625810  61.8755910 137.0539050  20.1027180
  60.6394420 137.3255150  20.9334060  57.6095370 138.4108610  18.1696220
  58.2966500 138.9577820  18.5503810  56.8227790 138.9549340  18.2045830
  49.7487770 134.0281430  13.6613300  50.6182620 134.3106230  13.9449220
  49.2578090 134.8417300  13.5462110  56.9122580 135.4154640  17.7821580
  57.3685360 136.2259890  18.0081770  56.5610790 135.0977780  18.6140070
  59.2155190 140.9260980  25.0113880  59.8597410 141.1320360  25.6887300
  59.5784630 140.1649380  24.5584730  52.8134360 125.7592290  18.2544100
  52.6848990 125.7510190  19.2029020  51.9896380 126.0975380  17.9035110
  60.4887270 138.9293330  23.7291330  61.1309500 138.2286490  23.8423500
  61.0136620 139.7091770  23.5488220  64.3342990 139.2141950  13.4530470
  64.1080570 138.4972390  14.0455110  63.9439190 138.9654390  12.6152220
  62.2624890 139.7288230  26.9327390  62.5981130 140.3154920  27.6105310
  61.3425230 139.5980940  27.1625180  50.1159020 143.2408810  14.2274930
  50.4756660 143.8398150  13.5732200  49.9751360 143.7868700  15.0009960
  49.8128290 127.5183410  27.7150800  49.0986810 127.7180330  28.3203410
  50.2323330 126.7422980  28.0865600  63.9159240 137.1313890  15.1144630
  63.6280940 137.5926580  15.9022510  64.7111410 136.6711660  15.3828850
  50.1000880 141.5063670  28.7017330  50.2092000 140.5658410  28.5612720
  49.4481440 141.7718420  28.0531060  58.0913470 139.7779560  30.1015450
  57.7710340 139.0588800  30.6461140  57.4171830 140.4534630  30.1751510
  56.1327640 140.6240010  15.0448600  56.1237740 141.3569700  14.4293110
  55.2126000 140.3771590  15.1375560  51.7334280 135.8454900  15.7895360
  51.1262230 136.5853800  15.7990660  52.2083630 135.9354260  14.9633560
  61.3067070 130.0105720  25.4652250  61.6747890 129.1900930  25.7931820
  60.4465270 130.0707610  25.8807900  64.6729100 128.9662660  16.2739810
  64.0442260 129.0708330  15.5598040  64.1781020 129.1859440  17.0633690
  59.1187240 140.6868250  13.7073790  59.2199220 140.4832240  12.7775770
  58.2188980 140.4326530  13.9121570  56.6413130 131.2448610  17.6897690
  55.9329280 131.7134950  18.1311300  56.9257610 130.5870620  18.3242880
  58.2669060 132.6645310  25.6890220  58.7654310 133.1391130  26.3542070
  58.4092010 131.7408830  25.8960250  60.6728560 127.9699270  19.1293480
  60.5496340 127.9885400  18.1802990  61.6213120 128.0178210  19.2491880
  57.7605350 143.2054570  18.4021460  58.0146850 143.1675960  17.4800830
  56.8117830 143.0787900  18.3949710  54.8448150 129.5533690  15.0648400
  55.6938680 129.9903840  14.9988590  54.4779420 129.8653950  15.8920460
  65.4735920 128.8813270  26.5318610  64.9709520 129.6218670  26.8712420
  66.2892580 129.2697270  26.2155400  63.7657930 134.1246450  19.9779970
  62.8248070 134.1396680  20.1527660  64.0802000 133.3382410  20.4240270
  53.7439570 135.8066050  13.5383930  54.5102840 135.6947410  14.1009360
  53.8214260 135.1104020  12.8860700  52.4386330 133.2391120  14.2216820
  52.5189920 132.2918630  14.3334220  53.3306080 133.5698000  14.3277480
  65.7683510 141.2955300  21.6534230  65.8930930 142.1186470  22.1258040
  66.6349070 141.0846030  21.3058380  53.2401040 143.3886510  21.3251360
  53.9763520 142.8401970  21.5959930  53.6241960 144.2542520  21.1857350
  50.1246520 139.4560080  17.1992870  49.1986300 139.6981220  17.1898280
  50.5902950 140.2834340  17.0777620  52.2459320 142.5732580  30.5136940
  53.0472050 142.8944630  30.9272340  51.7311140 142.2128160  31.2356850
  56.3503350 142.5616820  13.1476930  57.1431960 142.8505650  12.6958720
  55.8307700 142.1308990  12.4689410  61.0823950 138.6812450  30.4612350
  60.4762110 138.7044050  29.7208100  60.7778060 137.9495490  30.9979600
  62.5124320 142.4092740  29.0721760  63.4646070 142.3250760  29.0222000
  62.3652540 143.0734450  29.7455550  65.4033520 141.7886950  14.5713670
  65.1175030 141.3752090  13.7567850  65.2053070 142.7174660  14.4514190
  49.9657130 135.0606040  29.4572990  50.4696150 134.4813320  30.0289220
  49.2264550 135.3446270  29.9949360  56.8680750 137.7820230  13.0119280
  56.7631390 137.1672580  13.7380660  56.7004970 137.2586120  12.2282290
  57.0195070 136.4677030  28.9908510  56.2540740 137.0362030  28.9063180
  57.2011030 136.1753240  28.0976740  60.1083480 136.8440260  13.6161270
  59.5593580 137.2909560  14.2604010  60.7302740 136.3389510  14.1398940
  64.1618420 138.1982360  29.5483530  64.9027890 138.5358120  29.0450990
  63.3991100 138.3674420  28.9953300  51.9980210 133.2035630  30.3523060
  52.0385550 132.9049500  31.2608290  52.8525710 133.6043240  30.1930580
  55.7758600 135.8031180  15.5126570  56.1975020 135.6371050  16.3557960
  55.9009440 134.9931410  15.0181710  53.9386020 131.7827730  28.3197550
  53.4082480 131.2918680  27.6920890  54.6074090 132.2111930  27.7855480
  58.2886240 134.8268790  12.7603670  58.8091900 134.1117810  12.3944820
  58.9354640 135.4654660  13.0604180  62.8364080 136.2497190  28.0838740
  63.2505100 136.4042270  28.9329160  61.9015080 136.3752410  28.2464520
  63.3086250 133.5893350  30.0877890  63.8907020 132.8345670  29.9998370
  63.4848020 134.1200790  29.3109370  54.4258320 128.7490100  28.3994840
  54.3315190 128.1310850  27.6745710  53.8455710 129.4756390  28.1724750
  57.1919760 127.3063340  25.4322230  56.7437060 127.3287600  24.5867780
  56.5584960 126.9082360  26.0292530  57.5979310 136.2017670  26.0534670
  58.0167420 137.0450400  25.8810910  56.6787940 136.3389710  25.8241450
  59.9343210 133.9333850  27.4372510  60.0539420 133.3374990  28.1767350
  60.7937210 133.9703540  27.0173810  62.2731110 134.4871040  26.0135020
  61.7466330 135.0113660  25.4100160  62.6162450 135.1198430  26.6444750
  54.6717500 131.8764410  12.4584730  54.4706560 131.0131770  12.8198070
  54.5009550 131.7897770  11.5206330  55.4486730 142.5070680  27.1692400
  54.9107820 143.2316740  26.8501100  55.7020690 142.0301020  26.3789740
  56.7011980 130.4755200  28.6948330  57.2911670 130.1671050  29.3826150
  55.8832220 130.0034950  28.8508230  61.5205410 130.0921010  28.9281350
  60.8320930 129.4302550  28.8631340  62.2411430 129.6459280  29.3729810
  62.1505810 126.6872640  14.9871610  62.4308100 125.8440540  15.3431030
  61.3771540 126.9195750  15.5010360  53.4700300 128.9765030  12.4462610
  53.7726200 128.9832460  11.5381760  54.2094890 128.6262890  12.9430270
  58.3048940 143.7421890  27.4279050  58.2307640 144.6457030  27.7351420
  57.4027780 143.4233790  27.4001120  56.6885230 127.9199650  13.4318810
  56.3407230 127.2423640  12.8521260  56.8898000 127.4589160  14.2462200
  58.8534270 142.9080400  15.0505410  59.7485060 143.2465370  15.0724170
  58.8851900 142.1859810  14.4229690  52.4930430 138.2807450  13.2792410
  52.9305300 138.8237120  13.9349990  52.9778160 137.4554400  13.2888750
  49.7076230 141.0696480  20.7312670  50.0379240 140.2017540  20.4991310
  50.1367230 141.2755000  21.5617630  54.3038150 139.4005490  18.3914640
  54.0033690 139.2770460  19.2918550  54.1975640 138.5414080  17.9830370
  50.1966440 141.9367070  23.4694300  49.7597430 142.1167870  24.3018450
  50.7644120 142.6941690  23.3276020  65.8328620 141.4384070  27.7571610
  65.2330610 141.4976630  27.0135530  65.9622520 140.4989050  27.8868460
  67.0730070 139.1801890  13.0941320  66.2423030 139.2478540  13.5648550
  67.2501900 140.0706010  12.7908180  66.5286530 135.9249370  15.5975520
  67.2905440 136.4946020  15.7035210  66.5440900 135.3576570  16.3683830
  50.0290870 134.4487300  19.8283180  49.3739710 134.1798940  19.1842880
  50.8668820 134.3391780  19.3785160  67.5346500 136.7799470  20.4417450
  67.9055330 135.9966790  20.0353420  68.1748430 137.4688570  20.2634750
  64.5180260 138.1636050  25.8547770  63.7040100 138.5933210  26.1173560
  64.9254460 138.7754460  25.2416820  66.5805700 136.2183740  12.7548040
  66.8554540 137.1262620  12.6267260  66.3916440 136.1546270  13.6910030
  62.9781310 129.2428590  14.0501670  63.3966190 129.0559570  13.2098330
  62.6717370 128.3907640  14.3604600  66.4771040 134.1552730  17.7477470
  66.1014640 133.3880660  17.3158760  65.7474160 134.5375430  18.2352400
  51.0666800 134.8339870  24.3686520  51.4339840 134.7467270  25.2482540
  50.4977620 134.0706420  24.2693380  65.8670660 133.3024250  27.3816990
  65.6356750 133.0737000  26.4814940  66.1275210 134.2223800  27.3361880
  50.6182800 131.7448960  28.2744940  49.7238850 131.7115720  28.6138650
  51.1580350 131.9435750  29.0396190  64.3058730 128.5280680  30.1596690
  65.1828910 128.5364080  30.5430690  64.3179570 127.7911520  29.5489040
  49.2428950 131.6586230  15.7708510  48.3393030 131.9216430  15.5960170
  49.7269570 131.9297400  14.9908470  65.7522000 132.3810220  21.0484710
  66.2759480 131.8872870  20.4174880  66.3381420 132.5160580  21.7932280
  65.9311720 132.4650090  24.5704260  64.9814430 132.4313630  24.6849250
  66.1124730 133.3750200  24.3354030  51.7856160 130.7151770  13.6802890
  52.4947860 130.2934990  13.1950170  51.0696100 130.7827000  13.0486240
  51.4330320 126.7691100  12.7205540  52.1558450 127.3100040  13.0386760
  51.7054840 126.4954520  11.8447080  65.2421970 131.6383570  16.9877120
  65.7381090 131.4054440  17.7726000  65.0438040 130.7995410  16.5714760
  51.1222510 126.0197290  22.6228160  51.7698700 125.4694670  22.1823320
  51.5424350 126.2740440  23.4443970  66.6709130 130.2744520  19.5214800
  66.5608410 130.1200560  20.4597070  67.4316720 129.7465460  19.2790210
  65.0174850 126.2138650  25.9797800  65.6547070 126.8272790  26.3456990
  65.1649740 126.2499310  25.0347030  67.5599400 128.1052440  12.7620940
  68.4848710 127.9733620  12.5539230  67.5375190 128.1845260  13.7157390
  67.6337890 128.8763100  15.3877650  66.8389390 128.8108220  15.9170560
  67.8381170 129.8113740  15.3763000  64.5756310 142.9154650  19.3816040
  65.1715380 142.5939220  18.7050460  64.8334460 142.4426470  20.1729310
  50.8754510 126.1752960  25.3653480  50.5269330 126.6316780  26.1311660
  50.5442210 125.2810090  25.4475910  52.4818880 139.3472560  29.5306670
  52.4388510 138.9765470  30.4121130  52.6129890 140.2850130  29.6708490
  56.1824910 140.9032150  25.1316390  55.9416270 141.1706710  24.2446910
  57.1227550 141.0737880  25.1867250  58.3879330 127.3664840  28.8872900
  58.3268220 127.9586670  29.6368310  59.3279710 127.2590800  28.7423160
  61.0253890 127.0234900  28.5265190  61.6394300 127.3414190  27.8646270
  61.5703450 126.5383490  29.1461050  67.4429070 142.9226530  25.9327030
  66.9487350 143.3195400  25.2154160  66.8342360 142.2975740  26.3264310
  51.5475150 125.7029160  28.6404250  52.0958140 125.5217210  27.8770360
  51.6130460 124.9123270  29.1760560  52.3206910 142.2934810  26.6504450
  51.7267230 142.1619510  27.3894490  52.3130750 141.4572950  26.1846550
  61.7661930 125.5867040  24.8534480  60.8921770 125.9202150  24.6507410
  61.6572680 125.1140220  25.6786350  62.6733910 127.7937910  26.2376200
  62.3447270 126.9789670  25.8577930  63.6216210 127.7507720  26.1141890
  65.1268520 143.5649950  23.2113770  64.6671490 144.3165760  22.8371790
  64.4980980 142.8456420  23.1528570  51.9519140 139.6593190  25.6012490
  51.2253200 139.0398480  25.5338440  52.0128290 140.0533800  24.7310570
  55.5564240 141.8738190  22.3861900  56.0729260 141.2625550  21.8610160
  56.2061620 142.3766970  22.8772910  58.2959740 142.7646680  23.2130880
  58.5837550 142.5100980  22.3363890  58.8082960 142.2124040  23.8036450
  59.5136750 126.5036880  23.7927390  58.7308540 126.9782380  24.0724150
  59.2199680 125.5991710  23.6840570  64.0657820 127.2059980  21.8376480
  64.5065910 127.1505080  20.9898080  63.7965410 128.1217990  21.9086660
  65.9296390 126.8375220  19.8485300  65.8684790 125.8936440  19.7016320
  66.7088420 126.9455310  20.3938760  50.2349140 142.9767580  18.8109250
  50.0671180 142.3438260  19.5091140  49.3683650 143.1826980  18.4603440
  50.8577160 126.8084360  16.3141110  51.6156520 126.9213240  15.7405140
  50.3954330 127.6453560  16.2684540  57.3990970 128.9223630  19.3043420
  56.5865480 128.5480520  18.9639300  57.9032610 128.1668710  19.6064610
  61.9015950 125.5866080  20.5426490  62.5045320 126.1586290  21.0175010
  61.1608940 126.1505520  20.3200390  65.0450550 125.9887640  15.8166770
  65.2401180 126.8871090  16.0834200  64.2580420 125.7574720  16.3099720
  51.8411840 141.6700810  16.2559390  51.3159460 142.0508840  15.5521350
  51.7656420 142.2951580  16.9769100  53.2302310 127.3348410  14.8543080
  53.7595070 126.5478210  14.7251030  53.8630630 128.0139600  15.0878610
  55.4240150 127.0723550  17.9088470  54.7942890 126.3710860  18.0758600
  54.8845290 127.8327680  17.6921630  58.3632100 143.6862780  30.5799080
  59.2899410 143.4507050  30.6235040  58.3482530 144.5134780  30.0985110
  66.5977160 143.2288350  17.5773330  66.7729350 142.5426090  16.9334250
  65.8998730 143.7535400  17.1850000  55.5495710 126.3507530  30.3440960
  55.2679980 126.8541130  29.5801780  55.9315410 125.5529280  29.9783090
  54.4404810 143.6183190  15.1308640  55.1723630 143.3342470  14.5832530
  54.6998480 143.3796470  16.0208020  53.6019600 139.7347920  15.1354970
  52.9728480 140.2033020  15.6840800  53.7167430 138.8897140  15.5701160
  62.1511170 125.7661110  30.9221430  62.0376620 126.0855720  31.8172950
  62.9680910 126.1673620  30.6258710  64.9309660 142.9132640  30.4040120
  65.7234980 142.4181870  30.1966080  65.2242810 143.5922780  31.0115730
  59.1887360 135.5632600   3.1665440  58.4129460 135.0833040   3.4564010
  59.8400290 134.8838250   2.9921600  53.2053190 135.8752410   4.0441200
  52.3738070 135.6201120   4.4437710  53.8134170 135.9463180   4.7799120
  63.2094790 139.9692790   1.9464570  62.7476320 139.1980030   2.2751740
  64.0220340 139.9958860   2.4517020  53.1854450 139.9092500   4.2399220
  53.4882490 139.0190240   4.0609440  53.9298040 140.4662720   4.0121470
  49.5778150 133.4359950   3.7123290  50.1494260 132.6682150   3.7126930
  49.5779690 133.7348710   2.8029900  58.6296350 138.2389790   3.1735600
  58.5604630 137.2979730   3.0124730  59.3916210 138.3291200   3.7458170
  50.8203020 128.8444310   5.4992220  50.6405860 127.9470060   5.7794980
  50.4183100 129.3916180   6.1739170  59.6601520 131.0460170   3.4004530
  60.0366340 130.1732050   3.2878200  59.5621030 131.3818870   2.5094970
  51.4389690 131.3404810   4.1074560  52.1199800 131.6043180   4.7261960
  51.1237740 130.5005680   4.4412570  55.6314260 132.3872170   3.1947150
  56.1392480 132.8853140   3.8352170  56.1627500 131.6107370   3.0186510
  67.7325190 130.5577360   6.8976500  67.0277360 130.9459070   6.3791610
  67.9983110 131.2527650   7.4997430  53.9150360 127.0270730   7.4610570
  53.9168800 127.5443120   6.6556470  53.0854670 126.5500910   7.4380500
  55.1653210 136.6665910   5.6384070  54.8322590 137.2934830   6.2805140
  55.3419890 137.1927790   4.8585740  63.6787120 130.4810990   3.1060410
  62.9742690 130.7695880   3.6863520  64.0399280 131.2911100   2.7459970
  53.5965690 128.7380690   5.4681020  53.9382500 129.5822740   5.1734890
  52.6581500 128.8864430   5.5846360  54.3772310 138.6346710   7.4533250
  54.9946310 139.3097790   7.1717700  53.5165430 139.0434690   7.3620750
  65.2949900 140.0986120   5.3687890  64.6113420 140.7685230   5.3604560
  65.8344190 140.2966770   4.6032750  66.7474040 129.9265780   3.4969620
  65.7998950 129.9604760   3.6285050  67.0724030 130.7404730   3.8818980
  62.8308640 141.9430250   4.0833070  62.8435800 141.5392540   3.2155330
  62.2783860 142.7177540   3.9794500  62.2294080 136.8460090   5.4115680
  62.6462870 136.6320200   4.5769140  62.9533900 137.1032880   5.9824300
  66.1756180 135.2447310   5.5031920  65.3474810 135.3140400   5.0282050
  66.7706660 135.8301620   5.0347750  63.1398190 132.0316630   6.4486790
  62.7269370 132.8570340   6.7026780  62.4074140 131.4461670   6.2563150
  55.7412680 138.5044090   3.4744670  55.4440970 137.8989560   2.7952450
  56.6912500 138.5421400   3.3634030  53.9859600 131.5919740   5.0904500
  54.5374190 131.7015080   4.3157750  54.5003110 131.9657340   5.8059730
  63.8298290 142.0775960   7.1367770  63.3528850 142.8848150   6.9440380
  63.1460080 141.4254290   7.2893980  54.8331110 138.2425780  10.1252470
  53.9359640 138.4665750  10.3725870  54.8583980 138.3660720   9.1763870
  53.6602330 135.1139100   8.7009840  53.5210100 135.9861900   9.0697240
  52.7783690 134.7711910   8.5557780  55.4582680 141.0560800  10.9094990
  55.4298110 141.4603750  10.0423420  55.2947650 140.1271160  10.7466590
  67.4097500 141.8387900  12.2059160  67.8857220 142.3170790  12.8848240
  68.0304660 141.7705390  11.4804660  49.6120980 136.8836650   4.6180750
  49.6901400 137.0185420   3.6736470  50.2262660 136.1752540   4.8108870
  66.8130750 139.0300750   9.3659170  66.9393810 138.7912630   8.4476350
  66.8552130 138.1985290   9.8381250  60.6747490 142.7328750   7.9353980
  61.1892160 142.6436760   8.7376410  59.8316570 143.0788450   8.2281890
  66.6654760 131.0833210  10.3308910  66.0499030 131.5912880   9.8024370
  66.3451180 130.1831540  10.2734850  49.6680500 137.9250820   7.1575210
  49.8311540 137.4556180   6.3394580  50.1332950 137.4174380   7.8224050
  54.4399270 127.0556580   2.1935780  53.9967420 127.8366120   1.8620300
  54.9984260 127.3786470   2.9006720  58.7269080 129.9225100   7.7971100
  58.2648450 130.1308120   8.6091040  58.3247190 129.1084450   7.4941770
  63.7273590 131.1434050   8.9267760  62.8767180 130.8439800   9.2476830
  63.5675380 131.3876060   8.0151580  60.8223300 132.6435800  11.0266550
  61.1476710 131.8099550  10.6868780  61.6103630 133.1664320  11.1744880
  56.4775170 127.6003910   4.0525380  56.7747500 128.5066740   3.9717400
  57.0260730 127.1122690   3.4384950  56.6712700 133.0775730  10.5877300
  56.5756300 132.1370460  10.4377700  57.5144680 133.2990800  10.1925370
  51.8023240 129.4889400   8.7411080  51.4086630 130.3364610   8.9483860
  51.1141640 128.8515770   8.9319720  58.3768290 129.5724370  11.8107820
  57.6866610 129.3796570  12.4453910  59.1200590 129.8559010  12.3432120
  49.1040290 127.4117860   2.7741160  48.8153340 127.9820720   3.4866140
  49.8486050 126.9322310   3.1372390  60.6531260 133.4122810   4.6461740
  59.9212380 133.9209620   4.9951840  60.2555600 132.5952790   4.3450520
  57.0908650 130.0877010   3.0514230  57.0944710 129.6466960   2.2018770
  57.9859770 130.4094340   3.1586050  52.9411030 129.9703500   2.0108440
  52.6011080 130.4478730   2.7675490  52.1788350 129.5168620   1.6509540
  61.1157170 128.8656490   4.0584680  61.1329910 129.3165140   4.9026530
  60.8672750 127.9662130   4.2718120  64.5427920 126.2788670   9.8971060
  64.8673690 125.5478330  10.4229040  64.5784430 125.9602310   8.9952050
  51.2419480 137.3002250   9.3171020  50.8574270 136.6595920   9.9153980
  51.5531670 138.0038370   9.8865750  57.3916620 134.1478790   4.7979640
  57.7586750 133.6737360   5.5440980  57.2021680 135.0220360   5.1387980
  55.1815990 133.1887430   7.1163850  54.8773060 134.0679410   7.3414210
  56.1362450 133.2487220   7.1521290  64.4685760 136.3913780   3.5057090
  65.1884880 136.8869070   3.1153200  64.2667580 135.7131670   2.8610960
  59.8504560 136.4622840   9.3926090  59.7841870 135.5418510   9.1383680
  59.2209700 136.5598280  10.1070730  51.2379720 134.0290170   8.2635210
  50.8794660 134.6944020   8.8508550  50.9434280 133.1973720   8.6347830
  54.4392840 134.4874410  11.1474760  54.1392980 134.6331590  10.2502580
  55.2104080 133.9279700  11.0548150  59.7821290 139.2843410   9.1429890
  59.7965830 138.3524370   8.9248800  59.0746390 139.3703170   9.7819660
  65.9932500 135.9250750   8.4898470  65.2680690 136.5179530   8.2927860
  66.5207960 135.9174290   7.6911840  59.2155190 140.9260980   6.2370390
  59.8597410 141.1320360   6.9143810  59.5784630 140.1649380   5.7841240
  60.4887270 138.9293330   4.9547840  61.1309500 138.2286490   5.0680010
  61.0136620 139.7091770   4.7744730  62.2624890 139.7288230   8.1583900
  62.5981130 140.3154920   8.8361820  61.3425230 139.5980940   8.3881690
  49.8128290 127.5183410   8.9407310  49.0986810 127.7180330   9.5459920
  50.2323330 126.7422980   9.3122110  50.1000880 141.5063670   9.9273840
  50.2092000 140.5658410   9.7869230  49.4481440 141.7718420   9.2787570
  58.0913470 139.7779560  11.3271960  57.7710340 139.0588800  11.8717650
  57.4171830 140.4534630  11.4008020  61.3067070 130.0105720   6.6908760
  61.6747890 129.1900930   7.0188330  60.4465270 130.0707610   7.1064410
  58.2669060 132.6645310   6.9146730  58.7654310 133.1391130   7.5798580
  58.4092010 131.7408830   7.1216760  65.4735920 128.8813270   7.7575120
  64.9709520 129.6218670   8.0968930  66.2892580 129.2697270   7.4411910
  65.7683510 141.2955300   2.8790740  65.8930930 142.1186470   3.3514550
  66.6349070 141.0846030   2.5314890  53.2401040 143.3886510   2.5507870
  53.9763520 142.8401970   2.8216440  53.6241960 144.2542520   2.4113860
  52.2459320 142.5732580  11.7393450  53.0472050 142.8944630  12.1528850
  51.7311140 142.2128160  12.4613360  61.0823950 138.6812450  11.6868860
  60.4762110 138.7044050  10.9464610  60.7778060 137.9495490  12.2236110
  62.5124320 142.4092740  10.2978270  63.4646070 142.3250760  10.2478510
  62.3652540 143.0734450  10.9712060  49.9657130 135.0606040  10.6829500
  50.4696150 134.4813320  11.2545730  49.2264550 135.3446270  11.2205870
  57.0195070 136.4677030  10.2165020  56.2540740 137.0362030  10.1319690
  57.2011030 136.1753240   9.3233250  64.1618420 138.1982360  10.7740040
  64.9027890 138.5358120  10.2707500  63.3991100 138.3674420  10.2209810
  51.9980210 133.2035630  11.5779570  52.0385550 132.9049500  12.4864800
  52.8525710 133.6043240  11.4187090  53.9386020 131.7827730   9.5454060
  53.4082480 131.2918680   8.9177400  54.6074090 132.2111930   9.0111990
  62.8364080 136.2497190   9.3095250  63.2505100 136.4042270  10.1585670
  61.9015080 136.3752410   9.4721030  63.3086250 133.5893350  11.3134400
  63.8907020 132.8345670  11.2254880  63.4848020 134.1200790  10.5365880
  54.4258320 128.7490100   9.6251350  54.3315190 128.1310850   8.9002220
  53.8455710 129.4756390   9.3981260  57.1919760 127.3063340   6.6578740
  56.7437060 127.3287600   5.8124290  56.5584960 126.9082360   7.2549040
  57.5979310 136.2017670   7.2791180  58.0167420 137.0450400   7.1067420
  56.6787940 136.3389710   7.0497960  59.9343210 133.9333850   8.6629020
  60.0539420 133.3374990   9.4023860  60.7937210 133.9703540   8.2430320
  62.2731110 134.4871040   7.2391530  61.7466330 135.0113660   6.6356670
  62.6162450 135.1198430   7.8701260  55.4486730 142.5070680   8.3948910
  54.9107820 143.2316740   8.0757610  55.7020690 142.0301020   7.6046250
  56.7011980 130.4755200   9.9204840  57.2911670 130.1671050  10.6082660
  55.8832220 130.0034950  10.0764740  61.5205410 130.0921010  10.1537860
  60.8320930 129.4302550  10.0887850  62.2411430 129.6459280  10.5986320
  58.3048940 143.7421890   8.6535560  58.2307640 144.6457030   8.9607930
  57.4027780 143.4233790   8.6257630  49.7076230 141.0696480   1.9569180
  50.0379240 140.2017540   1.7247820  50.1367230 141.2755000   2.7874140
  50.1966440 141.9367070   4.6950810  49.7597430 142.1167870   5.5274960
  50.7644120 142.6941690   4.5532530  65.8328620 141.4384070   8.9828120
  65.2330610 141.4976630   8.2392040  65.9622520 140.4989050   9.1124970
  64.5180260 138.1636050   7.0804280  63.7040100 138.5933210   7.3430070
  64.9254460 138.7754460   6.4673330  51.0666800 134.8339870   5.5943030
  51.4339840 134.7467270   6.4739050  50.4977620 134.0706420   5.4949890
  65.8670660 133.3024250   8.6073500  65.6356750 133.0737000   7.7071450
  66.1275210 134.2223800   8.5618390  50.6182800 131.7448960   9.5001450
  49.7238850 131.7115720   9.8395160  51.1580350 131.9435750  10.2652700
  64.3058730 128.5280680  11.3853200  65.1828910 128.5364080  11.7687200
  64.3179570 127.7911520  10.7745550  65.7522000 132.3810220   2.2741220
  66.2759480 131.8872870   1.6431390  66.3381420 132.5160580   3.0188790
  65.9311720 132.4650090   5.7960770  64.9814430 132.4313630   5.9105760
  66.1124730 133.3750200   5.5610540  51.1222510 126.0197290   3.8484670
  51.7698700 125.4694670   3.4079830  51.5424350 126.2740440   4.6700480
  65.0174850 126.2138650   7.2054310  65.6547070 126.8272790   7.5713500
  65.1649740 126.2499310   6.2603540  50.8754510 126.1752960   6.5909990
  50.5269330 126.6316780   7.3568170  50.5442210 125.2810090   6.6732420
  52.4818880 139.3472560  10.7563180  52.4388510 138.9765470  11.6377640
  52.6129890 140.2850130  10.8965000  56.1824910 140.9032150   6.3572900
  55.9416270 141.1706710   5.4703420  57.1227550 141.0737880   6.4123760
  58.3879330 127.3664840  10.1129410  58.3268220 127.9586670  10.8624820
  59.3279710 127.2590800   9.9679670  61.0253890 127.0234900   9.7521700
  61.6394300 127.3414190   9.0902780  61.5703450 126.5383490  10.3717560
  67.4429070 142.9226530   7.1583540  66.9487350 143.3195400   6.4410670
  66.8342360 142.2975740   7.5520820  51.5475150 125.7029160   9.8660760
  52.0958140 125.5217210   9.1026870  51.6130460 124.9123270  10.4017070
  52.3206910 142.2934810   7.8760960  51.7267230 142.1619510   8.6151000
  52.3130750 141.4572950   7.4103060  61.7661930 125.5867040   6.0790990
  60.8921770 125.9202150   5.8763920  61.6572680 125.1140220   6.9042860
  62.6733910 127.7937910   7.4632710  62.3447270 126.9789670   7.0834440
  63.6216210 127.7507720   7.3398400  65.1268520 143.5649950   4.4370280
  64.6671490 144.3165760   4.0628300  64.4980980 142.8456420   4.3785080
  51.9519140 139.6593190   6.8269000  51.2253200 139.0398480   6.7594950
  52.0128290 140.0533800   5.9567080  55.5564240 141.8738190   3.6118410
  56.0729260 141.2625550   3.0866670  56.2061620 142.3766970   4.1029420
  58.2959740 142.7646680   4.4387390  58.5837550 142.5100980   3.5620400
  58.8082960 142.2124040   5.0292960  59.5136750 126.5036880   5.0183900
  58.7308540 126.9782380   5.2980660  59.2199680 125.5991710   4.9097080
  64.0657820 127.2059980   3.0632990  64.5065910 127.1505080   2.2154590
  63.7965410 128.1217990   3.1343170  61.9015950 125.5866080   1.7683000
  62.5045320 126.1586290   2.2431520  61.1608940 126.1505520   1.5456900
  58.3632100 143.6862780  11.8055590  59.2899410 143.4507050  11.8491550
  58.3482530 144.5134780  11.3241620  55.5495710 126.3507530  11.5697470
  55.2679980 126.8541130  10.8058290  55.9315410 125.5529280  11.2039600
  62.1511170 125.7661110  12.1477940  62.0376620 126.0855720  13.0429460
  62.9680910 126.1673620  11.8515220  64.9309660 142.9132640  11.6296630
  65.7234980 142.4181870  11.4222590  65.2242810 143.5922780  12.2372240
  61.0569320 115.0110090 151.4804090  60.9763370 114.0964700 151.2095800
  60.6433740 115.5077160 150.7743800  59.1887360 116.7889110 153.3613360
  58.4129460 116.3089550 153.6511930  59.8400290 116.1094760 153.1869520
  63.2094790 121.1949300 152.1412490  62.7476320 120.4236540 152.4699660
  64.0220340 121.2215370 152.6464940  53.1854450 121.1349010 154.4347140
  53.4882490 120.2446750 154.2557360  53.9298040 121.6919230 154.2069390
  51.6145140 112.0610810 148.0231510  50.7261840 112.4026780 147.9211390
  51.8986330 111.8611130 147.1312340  49.5778150 114.6616460 153.9071210
  50.1494260 113.8938660 153.9074850  49.5779690 114.9605220 152.9977820
  59.4358100 123.4807310 151.7616480  58.8169540 123.9364810 151.1910920
  60.2909880 123.6358770 151.3606180  58.6296350 119.4646300 153.3683520
  58.5604630 118.5236240 153.2072650  59.3916210 119.5547710 153.9406090
  59.6601520 112.2716680 153.5952450  60.0366340 111.3988560 153.4826120
  59.5621030 112.6075380 152.7042890  53.7906530 110.6442310 149.0569890
  53.8973280 111.5446040 149.3638650  52.8798890 110.5960280 148.7664540
  63.4425640 109.7667120 150.5280790  64.2635260 109.2763690 150.5706270
  63.4759720 110.3564780 151.2812630  55.6314260 113.6128680 153.3895070
  56.1392480 114.1109650 154.0300090  56.1627500 112.8363880 153.2134430
  60.3021450 118.3646550 149.1548390  59.6838720 118.8296000 148.5911110
  60.8144700 119.0574030 149.5717900  63.6787120 111.7067500 153.3008330
  62.9742690 111.9952390 153.8811440  64.0399280 112.5167610 152.9407890
  49.6704650 119.0503080 146.5288020  49.2932630 119.5390180 145.7972920
  49.9277720 119.7228360 147.1594550  66.7474040 111.1522290 153.6917540
  65.7998950 111.1861270 153.8232970  67.0724030 111.9661240 154.0766900
  57.2793580 107.4519470 151.9873530  57.5868560 106.8966360 151.2709030
  56.3494280 107.5863930 151.8046520  62.8308640 123.1686760 154.2780990
  62.8435800 122.7649050 153.4103250  62.2783860 123.9434050 154.1742420
  64.1254060 119.8902980 149.3671160  64.0150390 118.9477310 149.4920580
  64.1222310 120.2518620 150.2533920  59.6674340 115.5168300 148.7233650
  58.7403620 115.4505680 148.9522120  59.8199160 116.4548430 148.6088890
  59.6543420 111.7885300 145.7200810  58.7147090 111.9499260 145.8053270
  59.9726680 112.5070980 145.1736800  63.6971630 117.0788600 149.2268900
  63.0784050 116.7408150 148.5795200  63.6796080 116.4348360 149.9348090
  55.2730980 116.0433040 151.5053380  54.8687980 115.3310290 151.0099280
  55.3594100 115.6986280 152.3941420  55.7412680 119.7300600 153.6692590
  55.4440970 119.1246070 152.9900370  56.6912500 119.7677910 153.5581950
  61.8736330 116.3175410 146.2341650  62.3129610 115.4797840 146.0879470
  62.5864750 116.9504810 146.3205790  59.9831710 121.2571480 150.2022890
  60.4227620 121.9995810 149.7878280  59.9218600 121.4998050 151.1261850
  65.4553470 107.5718220 144.5482690  65.1426130 107.6645050 145.4481760
  66.2165940 108.1499250 144.4980120  51.9735610 114.9378020 149.0060030
  51.8533210 115.6640110 148.3941300  51.6636500 114.1680930 148.5287940
  50.8568610 119.8093350 151.2234850  50.4496690 119.9507940 150.3688450
  51.7481620 119.5253510 151.0206060  62.6501890 124.2440600 147.5585900
  62.4903030 123.9543540 148.4567730  62.4848600 123.4680730 147.0231130
  55.1290270 124.0239130 149.3357520  54.9532750 123.1074670 149.1225320
  54.2746010 124.3826420 149.5755320  62.3528020 121.7528160 146.1183900
  61.6593180 121.7505450 145.4586180  63.0950880 121.3287480 145.6878070
  61.9177950 123.3790870 150.1932390  62.3734900 122.5980250 150.5071010
  62.2570470 124.0897690 150.7373570  54.4399270 108.2813090 152.3883700
  53.9967420 109.0622630 152.0568220  54.9984260 108.6042980 153.0954640
  57.5558090 107.9023790 147.2689530  56.9312270 107.8983660 147.9942840
  57.4688210 107.0354750 146.8725500  56.4775170 108.8260420 154.2473300
  56.7747500 109.7323250 154.1665320  57.0260730 108.3379200 153.6332870
  54.2313490 113.4046660 150.1164950  54.0054410 113.1883830 151.0211570
  53.4506020 113.8375120 149.7710920  61.4611250 113.4110030 148.7155600
  60.8620140 114.1345830 148.5319220  62.0090860 113.3486810 147.9332050
  60.0676120 112.0473570 150.7458880  60.4605690 112.3645770 149.9327570
  60.4292970 111.1685450 150.8603400  49.1040290 108.6374370 152.9689080
  48.8153340 109.2077230 153.6814060  49.8486050 108.1578820 153.3320310
  49.2910520 112.5794490 144.1791800  49.2085190 113.5225250 144.3206790
  48.9393580 112.4369400 143.3004150  57.0908650 111.3133520 153.2462150
  57.0944710 110.8723470 152.3966690  57.9859770 111.6350850 153.3533970
  52.9411030 111.1960010 152.2056360  52.6011080 111.6735240 152.9623410
  52.1788350 110.7425130 151.8457460  57.1528800 112.3145600 146.2368910
  57.2741620 112.2732080 147.1854730  56.7677310 113.1769750 146.0815640
  56.1650300 114.6246740 145.6352210  55.5967200 114.1764990 145.0088120
  56.8739300 114.9839520 145.1017360  50.2557110 110.1178990 151.1221030
  49.9704030 109.7534660 151.9599650  50.1935970 109.3859450 150.5084170
  53.7097780 118.6204930 147.9078620  52.9360040 118.0802550 147.7477340
  54.4392410 118.1011540 147.5696380  64.4685760 117.6170290 153.7005010
  65.1884880 118.1125580 153.3101120  64.2667580 116.9388180 153.0558880
  59.9295700 109.0108250 147.8434400  59.1160310 108.5121420 147.7679710
  59.7357650 109.8506500 147.4270750  62.6444090 113.3827900 146.1396560
  63.5323710 113.6945130 145.9647900  62.6149180 112.5100150 145.7477140
  53.7535180 118.2885310 151.5457430  54.2713850 117.4853570 151.4914320
  53.3019200 118.2264450 152.3874260  58.6404680 119.5551590 146.8184730
  58.9820380 120.2993820 146.3228050  57.8117390 119.8682710 147.1809560
  64.9158360 114.6939740 145.6076420  64.8322080 115.1253960 144.7572860
  65.6352550 115.1538090 146.0403240  65.9445610 121.5482000 148.3358550
  65.3021770 120.8937620 148.6102270  65.5576270 121.9537090 147.5599220
  61.5232090 118.8767430 152.1830240  61.8755910 118.2795560 151.5231610
  60.6394420 118.5511660 152.3538490  57.6095370 119.6365120 149.5900650
  58.2966500 120.1834330 149.9708240  56.8227790 120.1805850 149.6250260
  49.7487770 115.2537940 145.0817730  50.6182620 115.5362740 145.3653650
  49.2578090 116.0673810 144.9666540  56.9122580 116.6411150 149.2026010
  57.3685360 117.4516400 149.4286200  56.5610790 116.3234290 150.0344500
  52.8134360 106.9848800 149.6748530  52.6848990 106.9766700 150.6233450
  51.9896380 107.3231890 149.3239540  64.3342990 120.4398460 144.8734900
  64.1080570 119.7228900 145.4659540  63.9439190 120.1910900 144.0356650
  50.1159020 124.4665320 145.6479360  50.4756660 125.0654660 144.9936630
  49.9751360 125.0125210 146.4214390  63.9159240 118.3570400 146.5349060
  63.6280940 118.8183090 147.3226940  64.7111410 117.8968170 146.8033280
  56.1327640 121.8496520 146.4653030  56.1237740 122.5826210 145.8497540
  55.2126000 121.6028100 146.5579990  51.7334280 117.0711410 147.2099790
  51.1262230 117.8110310 147.2195090  52.2083630 117.1610770 146.3837990
  64.6729100 110.1919170 147.6944240  64.0442260 110.2964840 146.9802470
  64.1781020 110.4115950 148.4838120  59.1187240 121.9124760 145.1278220
  59.2199220 121.7088750 144.1980200  58.2188980 121.6583040 145.3326000
  56.6413130 112.4705120 149.1102120  55.9329280 112.9391460 149.5515730
  56.9257610 111.8127130 149.7447310  60.6728560 109.1955780 150.5497910
  60.5496340 109.2141910 149.6007420  61.6213120 109.2434720 150.6696310
  57.7605350 124.4311080 149.8225890  58.0146850 124.3932470 148.9005260
  56.8117830 124.3044410 149.8154140  54.8448150 110.7790200 146.4852830
  55.6938680 111.2160350 146.4193020  54.4779420 111.0910460 147.3124890
  63.7657930 115.3502960 151.3984400  62.8248070 115.3653190 151.5732090
  64.0802000 114.5638920 151.8444700  53.7439570 117.0322560 144.9588360
  54.5102840 116.9203920 145.5213790  53.8214260 116.3360530 144.3065130
  52.4386330 114.4647630 145.6421250  52.5189920 113.5175140 145.7538650
  53.3306080 114.7954510 145.7481910  65.7683510 122.5211810 153.0738660
  65.8930930 123.3442980 153.5462470  66.6349070 122.3102540 152.7262810
  53.2401040 124.6143020 152.7455790  53.9763520 124.0658480 153.0164360
  53.6241960 125.4799030 152.6061780  50.1246520 120.6816590 148.6197300
  49.1986300 120.9237730 148.6102710  50.5902950 121.5090850 148.4982050
  56.3503350 123.7873330 144.5681360  57.1431960 124.0762160 144.1163150
  55.8307700 123.3565500 143.8893840  65.4033520 123.0143460 145.9918100
  65.1175030 122.6008600 145.1772280  65.2053070 123.9431170 145.8718620
  56.8680750 119.0076740 144.4323710  56.7631390 118.3929090 145.1585090
  56.7004970 118.4842630 143.6486720  60.1083480 118.0696770 145.0365700
  59.5593580 118.5166070 145.6808440  60.7302740 117.5646020 145.5603370
  55.7758600 117.0287690 146.9331000  56.1975020 116.8627560 147.7762390
  55.9009440 116.2187920 146.4386140  58.2886240 116.0525300 144.1808100
  58.8091900 115.3374320 143.8149250  58.9354640 116.6911170 144.4808610
  54.6717500 113.1020920 143.8789160  54.4706560 112.2388280 144.2402500
  54.5009550 113.0154280 142.9410760  62.1505810 107.9129150 146.4076040
  62.4308100 107.0697050 146.7635460  61.3771540 108.1452260 146.9214790
  53.4700300 110.2021540 143.8667040  53.7726200 110.2088970 142.9586190
  54.2094890 109.8519400 144.3634700  56.6885230 109.1456160 144.8523240
  56.3407230 108.4680150 144.2725690  56.8898000 108.6845670 145.6666630
  58.8534270 124.1336910 146.4709840  59.7485060 124.4721880 146.4928600
  58.8851900 123.4116320 145.8434120  52.4930430 119.5063960 144.6996840
  52.9305300 120.0493630 145.3554420  52.9778160 118.6810910 144.7093180
  49.7076230 122.2952990 152.1517100  50.0379240 121.4274050 151.9195740
  50.1367230 122.5011510 152.9822060  54.3038150 120.6262000 149.8119070
  54.0033690 120.5026970 150.7122980  54.1975640 119.7670590 149.4034800
  67.0730070 120.4058400 144.5145750  66.2423030 120.4735050 144.9852980
  67.2501900 121.2962520 144.2112610  66.5286530 117.1505880 147.0179950
  67.2905440 117.7202530 147.1239640  66.5440900 116.5833080 147.7888260
  50.0290870 115.6743810 151.2487610  49.3739710 115.4055450 150.6047310
  50.8668820 115.5648290 150.7989590  67.5346500 118.0055980 151.8621880
  67.9055330 117.2223300 151.4557850  68.1748430 118.6945080 151.6839180
  66.5805700 117.4440250 144.1752470  66.8554540 118.3519130 144.0471690
  66.3916440 117.3802780 145.1114460  62.9781310 110.4685100 145.4706100
  63.3966190 110.2816080 144.6302760  62.6717370 109.6164150 145.7809030
  66.4771040 115.3809240 149.1681900  66.1014640 114.6137170 148.7363190
  65.7474160 115.7631940 149.6556830  49.2428950 112.8842740 147.1912940
  48.3393030 113.1472940 147.0164600  49.7269570 113.1553910 146.4112900
  65.7522000 113.6066730 152.4689140  66.2759480 113.1129380 151.8379310
  66.3381420 113.7417090 153.2136710  51.7856160 111.9408280 145.1007320
  52.4947860 111.5191500 144.6154600  51.0696100 112.0083510 144.4690670
  51.4330320 107.9947610 144.1409970  52.1558450 108.5356550 144.4591190
  51.7054840 107.7211030 143.2651510  65.2421970 112.8640080 148.4081550
  65.7381090 112.6310950 149.1930430  65.0438040 112.0251920 147.9919190
  66.6709130 111.5001030 150.9419230  66.5608410 111.3457070 151.8801500
  67.4316720 110.9721970 150.6994640  67.5599400 109.3308950 144.1825370
  68.4848710 109.1990130 143.9743660  67.5375190 109.4101770 145.1361820
  67.6337890 110.1019610 146.8082080  66.8389390 110.0364730 147.3374990
  67.8381170 111.0370250 146.7967430  64.5756310 124.1411160 150.8020470
  65.1715380 123.8195730 150.1254890  64.8334460 123.6682980 151.5933740
  55.5564240 123.0994700 153.8066330  56.0729260 122.4882060 153.2814590
  56.2061620 123.6023480 154.2977340  64.0657820 108.4316490 153.2580910
  64.5065910 108.3761590 152.4102510  63.7965410 109.3474500 153.3291090
  65.9296390 108.0631730 151.2689730  65.8684790 107.1192950 151.1220750
  66.7088420 108.1711820 151.8143190  50.2349140 124.2024090 150.2313680
  50.0671180 123.5694770 150.9295570  49.3683650 124.4083490 149.8807870
  50.8577160 108.0340870 147.7345540  51.6156520 108.1469750 147.1609570
  50.3954330 108.8710070 147.6888970  57.3990970 110.1480140 150.7247850
  56.5865480 109.7737030 150.3843730  57.9032610 109.3925220 151.0269040
  61.9015950 106.8122590 151.9630920  62.5045320 107.3842800 152.4379440
  61.1608940 107.3762030 151.7404820  65.0450550 107.2144150 147.2371200
  65.2401180 108.1127600 147.5038630  64.2580420 106.9831230 147.7304150
  51.8411840 122.8957320 147.6763820  51.3159460 123.2765350 146.9725780
  51.7656420 123.5208090 148.3973530  53.2302310 108.5604920 146.2747510
  53.7595070 107.7734720 146.1455460  53.8630630 109.2396110 146.5083040
  55.4240150 108.2980060 149.3292900  54.7942890 107.5967370 149.4963030
  54.8845290 109.0584190 149.1126060  66.5977160 124.4544860 148.9977760
  66.7729350 123.7682600 148.3538680  65.8998730 124.9791910 148.6054430
  54.4404810 124.8439700 146.5513070  55.1723630 124.5598980 146.0036960
  54.6998480 124.6052980 147.4412450  53.6019600 120.9604430 146.5559400
  52.9728480 121.4289530 147.1045230  53.7167430 120.1153650 146.9905590
  61.0569320 115.0110090 132.7060600  60.9763370 114.0964700 132.4352310
  60.6433740 115.5077160 132.0000310  59.1887360 116.7889110 134.5869870
  58.4129460 116.3089550 134.8768440  59.8400290 116.1094760 134.4126030
  53.2053190 117.1008920 135.4645630  52.3738070 116.8457630 135.8642140
  53.8134170 117.1719690 136.2003550  63.2094790 121.1949300 133.3669000
  62.7476320 120.4236540 133.6956170  64.0220340 121.2215370 133.8721450
  53.1854450 121.1349010 135.6603650  53.4882490 120.2446750 135.4813870
  53.9298040 121.6919230 135.4325900  51.6145140 112.0610810 129.2488020
  50.7261840 112.4026780 129.1467900  51.8986330 111.8611130 128.3568850
  49.5778150 114.6616460 135.1327720  50.1494260 113.8938660 135.1331360
  49.5779690 114.9605220 134.2234330  59.4358100 123.4807310 132.9872990
  58.8169540 123.9364810 132.4167430  60.2909880 123.6358770 132.5862690
  58.6296350 119.4646300 134.5940030  58.5604630 118.5236240 134.4329160
  59.3916210 119.5547710 135.1662600  50.8203020 110.0700820 136.9196650
  50.6405860 109.1726570 137.1999410  50.4183100 110.6172690 137.5943600
  59.6601520 112.2716680 134.8208960  60.0366340 111.3988560 134.7082630
  59.5621030 112.6075380 133.9299400  53.7906530 110.6442310 130.2826400
  53.8973280 111.5446040 130.5895160  52.8798890 110.5960280 129.9921050
  63.4425640 109.7667120 131.7537300  64.2635260 109.2763690 131.7962780
  63.4759720 110.3564780 132.5069140  51.4389690 112.5661320 135.5278990
  52.1199800 112.8299690 136.1466390  51.1237740 111.7262190 135.8617000
  55.6314260 113.6128680 134.6151580  56.1392480 114.1109650 135.2556600
  56.1627500 112.8363880 134.4390940  67.7325190 111.7833870 138.3180930
  67.0277360 112.1715580 137.7996040  67.9983110 112.4784160 138.9201860
  53.9150360 108.2527240 138.8815000  53.9168800 108.7699630 138.0760900
  53.0854670 107.7757420 138.8584930  60.3021450 118.3646550 130.3804900
  59.6838720 118.8296000 129.8167620  60.8144700 119.0574030 130.7974410
  55.1653210 117.8922420 137.0588500  54.8322590 118.5191340 137.7009570
  55.3419890 118.4184300 136.2790170  63.6787120 111.7067500 134.5264840
  62.9742690 111.9952390 135.1067950  64.0399280 112.5167610 134.1664400
  53.5965690 109.9637200 136.8885450  53.9382500 110.8079250 136.5939320
  52.6581500 110.1120940 137.0050790  54.3772310 119.8603220 138.8737680
  54.9946310 120.5354300 138.5922130  53.5165430 120.2691200 138.7825180
  49.6704650 119.0503080 127.7544530  49.2932630 119.5390180 127.0229430
  49.9277720 119.7228360 128.3851060  65.2949900 121.3242630 136.7892320
  64.6113420 121.9941740 136.7808990  65.8344190 121.5223280 136.0237180
  66.7474040 111.1522290 134.9174050  65.7998950 111.1861270 135.0489480
  67.0724030 111.9661240 135.3023410  62.8308640 123.1686760 135.5037500
  62.8435800 122.7649050 134.6359760  62.2783860 123.9434050 135.3998930
  64.1254060 119.8902980 130.5927670  64.0150390 118.9477310 130.7177090
  64.1222310 120.2518620 131.4790430  62.2294080 118.0716600 136.8320110
  62.6462870 117.8576710 135.9973570  62.9533900 118.3289390 137.4028730
  59.6674340 115.5168300 129.9490160  58.7403620 115.4505680 130.1778630
  59.8199160 116.4548430 129.8345400  59.6543420 111.7885300 126.9457320
  58.7147090 111.9499260 127.0309780  59.9726680 112.5070980 126.3993310
  66.1756180 116.4703820 136.9236350  65.3474810 116.5396910 136.4486480
  66.7706660 117.0558130 136.4552180  63.6971630 117.0788600 130.4525410
  63.0784050 116.7408150 129.8051710  63.6796080 116.4348360 131.1604600
  63.1398190 113.2573140 137.8691220  62.7269370 114.0826850 138.1231210
  62.4074140 112.6718180 137.6767580  55.2730980 116.0433040 132.7309890
  54.8687980 115.3310290 132.2355790  55.3594100 115.6986280 133.6197930
  55.7412680 119.7300600 134.8949100  55.4440970 119.1246070 134.2156880
  56.6912500 119.7677910 134.7838460  53.9859600 112.8176250 136.5108930
  54.5374190 112.9271590 135.7362180  54.5003110 113.1913850 137.2264160
  63.8298290 123.3032470 138.5572200  63.3528850 124.1104660 138.3644810
  63.1460080 122.6510800 138.7098410  54.8331110 119.4682290 141.5456900
  53.9359640 119.6922260 141.7930300  54.8583980 119.5917230 140.5968300
  61.8736330 116.3175410 127.4598160  62.3129610 115.4797840 127.3135980
  62.5864750 116.9504810 127.5462300  53.6602330 116.3395610 140.1214270
  53.5210100 117.2118410 140.4901670  52.7783690 115.9968420 139.9762210
  59.9831710 121.2571480 131.4279400  60.4227620 121.9995810 131.0134790
  59.9218600 121.4998050 132.3518360  55.4582680 122.2817310 142.3299420
  55.4298110 122.6860260 141.4627850  55.2947650 121.3527670 142.1671020
  65.4553470 107.5718220 125.7739200  65.1426130 107.6645050 126.6738270
  66.2165940 108.1499250 125.7236630  51.9735610 114.9378020 130.2316540
  51.8533210 115.6640110 129.6197810  51.6636500 114.1680930 129.7544450
  67.4097500 123.0644410 143.6263590  67.8857220 123.5427300 144.3052670
  68.0304660 122.9961900 142.9009090  49.6120980 118.1093160 136.0385180
  49.6901400 118.2441930 135.0940900  50.2262660 117.4009050 136.2313300
  50.8568610 119.8093350 132.4491360  50.4496690 119.9507940 131.5944960
  51.7481620 119.5253510 132.2462570  66.8130750 120.2557260 140.7863600
  66.9393810 120.0169140 139.8680780  66.8552130 119.4241800 141.2585680
  60.6747490 123.9585260 139.3558410  61.1892160 123.8693270 140.1580840
  59.8316570 124.3044960 139.6486320  62.6501890 124.2440600 128.7842410
  62.4903030 123.9543540 129.6824240  62.4848600 123.4680730 128.2487640
  55.1290270 124.0239130 130.5614030  54.9532750 123.1074670 130.3481830
  54.2746010 124.3826420 130.8011830  62.3528020 121.7528160 127.3440410
  61.6593180 121.7505450 126.6842690  63.0950880 121.3287480 126.9134580
  61.9177950 123.3790870 131.4188900  62.3734900 122.5980250 131.7327520
  62.2570470 124.0897690 131.9630080  66.6654760 112.3089720 141.7513340
  66.0499030 112.8169390 141.2228800  66.3451180 111.4088050 141.6939280
  49.6680500 119.1507330 138.5779640  49.8311540 118.6812690 137.7599010
  50.1332950 118.6430890 139.2428480  54.4399270 108.2813090 133.6140210
  53.9967420 109.0622630 133.2824730  54.9984260 108.6042980 134.3211150
  58.7269080 111.1481610 139.2175530  58.2648450 111.3564630 140.0295470
  58.3247190 110.3340960 138.9146200  63.7273590 112.3690560 140.3472190
  62.8767180 112.0696310 140.6681260  63.5675380 112.6132570 139.4356010
  60.8223300 113.8692310 142.4470980  61.1476710 113.0356060 142.1073210
  61.6103630 114.3920830 142.5949310  56.4775170 108.8260420 135.4729810
  56.7747500 109.7323250 135.3921830  57.0260730 108.3379200 134.8589380
  54.2313490 113.4046660 131.3421460  54.0054410 113.1883830 132.2468080
  53.4506020 113.8375120 130.9967430  61.4611250 113.4110030 129.9412110
  60.8620140 114.1345830 129.7575730  62.0090860 113.3486810 129.1588560
  56.6712700 114.3032240 142.0081730  56.5756300 113.3626970 141.8582130
  57.5144680 114.5247310 141.6129800  60.0676120 112.0473570 131.9715390
  60.4605690 112.3645770 131.1584080  60.4292970 111.1685450 132.0859910
  51.8023240 110.7145910 140.1615510  51.4086630 111.5621120 140.3688290
  51.1141640 110.0772280 140.3524150  58.3768290 110.7980880 143.2312250
  57.6866610 110.6053080 143.8658340  59.1200590 111.0815520 143.7636550
  49.1040290 108.6374370 134.1945590  48.8153340 109.2077230 134.9070570
  49.8486050 108.1578820 134.5576820  49.2910520 112.5794490 125.4048310
  49.2085190 113.5225250 125.5463300  48.9393580 112.4369400 124.5260660
  60.6531260 114.6379320 136.0666170  59.9212380 115.1466130 136.4156270
  60.2555600 113.8209300 135.7654950  57.0908650 111.3133520 134.4718660
  57.0944710 110.8723470 133.6223200  57.9859770 111.6350850 134.5790480
  52.9411030 111.1960010 133.4312870  52.6011080 111.6735240 134.1879920
  52.1788350 110.7425130 133.0713970  57.1528800 112.3145600 127.4625420
  57.2741620 112.2732080 128.4111240  56.7677310 113.1769750 127.3072150
  56.1650300 114.6246740 126.8608720  55.5967200 114.1764990 126.2344630
  56.8739300 114.9839520 126.3273870  64.5427920 107.5045180 141.3175490
  64.8673690 106.7734840 141.8433470  64.5784430 107.1858820 140.4156480
  51.2419480 118.5258760 140.7375450  50.8574270 117.8852430 141.3358410
  51.5531670 119.2294880 141.3070180  57.3916620 115.3735300 136.2184070
  57.7586750 114.8993870 136.9645410  57.2021680 116.2476870 136.5592410
  50.2557110 110.1178990 132.3477540  49.9704030 109.7534660 133.1856160
  50.1935970 109.3859450 131.7340680  55.1815990 114.4143940 138.5368280
  54.8773060 115.2935920 138.7618640  56.1362450 114.4743730 138.5725720
  53.7097780 118.6204930 129.1335130  52.9360040 118.0802550 128.9733850
  54.4392410 118.1011540 128.7952890  64.4685760 117.6170290 134.9261520
  65.1884880 118.1125580 134.5357630  64.2667580 116.9388180 134.2815390
  59.9295700 109.0108250 129.0690910  59.1160310 108.5121420 128.9936220
  59.7357650 109.8506500 128.6527260  59.8504560 117.6879350 140.8130520
  59.7841870 116.7675020 140.5588110  59.2209700 117.7854790 141.5275160
  62.6444090 113.3827900 127.3653070  63.5323710 113.6945130 127.1904410
  62.6149180 112.5100150 126.9733650  53.7535180 118.2885310 132.7713940
  54.2713850 117.4853570 132.7170830  53.3019200 118.2264450 133.6130770
  51.2379720 115.2546680 139.6839640  50.8794660 115.9200530 140.2712980
  50.9434280 114.4230230 140.0552260  54.4392840 115.7130920 142.5679190
  54.1392980 115.8588100 141.6707010  55.2104080 115.1536210 142.4752580
  59.7821290 120.5099920 140.5634320  59.7965830 119.5780880 140.3453230
  59.0746390 120.5959680 141.2024090  64.9158360 114.6939740 126.8332930
  64.8322080 115.1253960 125.9829370  65.6352550 115.1538090 127.2659750
  65.9932500 117.1507260 139.9102900  65.2680690 117.7436040 139.7132290
  66.5207960 117.1430800 139.1116270  65.9445610 121.5482000 129.5615060
  65.3021770 120.8937620 129.8358780  65.5576270 121.9537090 128.7855730
  61.5232090 118.8767430 133.4086750  61.8755910 118.2795560 132.7488120
  60.6394420 118.5511660 133.5795000  57.6095370 119.6365120 130.8157160
  58.2966500 120.1834330 131.1964750  56.8227790 120.1805850 130.8506770
  49.7487770 115.2537940 126.3074240  50.6182620 115.5362740 126.5910160
  49.2578090 116.0673810 126.1923050  56.9122580 116.6411150 130.4282520
  57.3685360 117.4516400 130.6542710  56.5610790 116.3234290 131.2601010
  59.2155190 122.1517490 137.6574820  59.8597410 122.3576870 138.3348240
  59.5784630 121.3905890 137.2045670  52.8134360 106.9848800 130.9005040
  52.6848990 106.9766700 131.8489960  51.9896380 107.3231890 130.5496050
  60.4887270 120.1549840 136.3752270  61.1309500 119.4543000 136.4884440
  61.0136620 120.9348280 136.1949160  64.3342990 120.4398460 126.0991410
  64.1080570 119.7228900 126.6916050  63.9439190 120.1910900 125.2613160
  62.2624890 120.9544740 139.5788330  62.5981130 121.5411430 140.2566250
  61.3425230 120.8237450 139.8086120  50.1159020 124.4665320 126.8735870
  50.4756660 125.0654660 126.2193140  49.9751360 125.0125210 127.6470900
  49.8128290 108.7439920 140.3611740  49.0986810 108.9436840 140.9664350
  50.2323330 107.9679490 140.7326540  63.9159240 118.3570400 127.7605570
  63.6280940 118.8183090 128.5483450  64.7111410 117.8968170 128.0289790
  50.1000880 122.7320180 141.3478270  50.2092000 121.7914920 141.2073660
  49.4481440 122.9974930 140.6992000  58.0913470 121.0036070 142.7476390
  57.7710340 120.2845310 143.2922080  57.4171830 121.6791140 142.8212450
  51.7334280 117.0711410 128.4356300  51.1262230 117.8110310 128.4451600
  52.2083630 117.1610770 127.6094500  61.3067070 111.2362230 138.1113190
  61.6747890 110.4157440 138.4392760  60.4465270 111.2964120 138.5268840
  64.6729100 110.1919170 128.9200750  64.0442260 110.2964840 128.2058980
  64.1781020 110.4115950 129.7094630  56.6413130 112.4705120 130.3358630
  55.9329280 112.9391460 130.7772240  56.9257610 111.8127130 130.9703820
  58.2669060 113.8901820 138.3351160  58.7654310 114.3647640 139.0003010
  58.4092010 112.9665340 138.5421190  57.7605350 124.4311080 131.0482400
  58.0146850 124.3932470 130.1261770  56.8117830 124.3044410 131.0410650
  54.8448150 110.7790200 127.7109340  55.6938680 111.2160350 127.6449530
  54.4779420 111.0910460 128.5381400  65.4735920 110.1069780 139.1779550
  64.9709520 110.8475180 139.5173360  66.2892580 110.4953780 138.8616340
  63.7657930 115.3502960 132.6240910  62.8248070 115.3653190 132.7988600
  64.0802000 114.5638920 133.0701210  53.7439570 117.0322560 126.1844870
  54.5102840 116.9203920 126.7470300  53.8214260 116.3360530 125.5321640
  52.4386330 114.4647630 126.8677760  52.5189920 113.5175140 126.9795160
  53.3306080 114.7954510 126.9738420  65.7683510 122.5211810 134.2995170
  65.8930930 123.3442980 134.7718980  66.6349070 122.3102540 133.9519320
  53.2401040 124.6143020 133.9712300  53.9763520 124.0658480 134.2420870
  53.6241960 125.4799030 133.8318290  50.1246520 120.6816590 129.8453810
  49.1986300 120.9237730 129.8359220  50.5902950 121.5090850 129.7238560
  52.2459320 123.7989090 143.1597880  53.0472050 124.1201140 143.5733280
  51.7311140 123.4384670 143.8817790  61.0823950 119.9068960 143.1073290
  60.4762110 119.9300560 142.3669040  60.7778060 119.1752000 143.6440540
  62.5124320 123.6349250 141.7182700  63.4646070 123.5507270 141.6682940
  62.3652540 124.2990960 142.3916490  65.4033520 123.0143460 127.2174610
  65.1175030 122.6008600 126.4028790  65.2053070 123.9431170 127.0975130
  49.9657130 116.2862550 142.1033930  50.4696150 115.7069830 142.6750160
  49.2264550 116.5702780 142.6410300  57.0195070 117.6933540 141.6369450
  56.2540740 118.2618540 141.5524120  57.2011030 117.4009750 140.7437680
  64.1618420 119.4238870 142.1944470  64.9027890 119.7614630 141.6911930
  63.3991100 119.5930930 141.6414240  51.9980210 114.4292140 142.9984000
  52.0385550 114.1306010 143.9069230  52.8525710 114.8299750 142.8391520
  55.7758600 117.0287690 128.1587510  56.1975020 116.8627560 129.0018900
  55.9009440 116.2187920 127.6642650  53.9386020 113.0084240 140.9658490
  53.4082480 112.5175190 140.3381830  54.6074090 113.4368440 140.4316420
  62.8364080 117.4753700 140.7299680  63.2505100 117.6298780 141.5790100
  61.9015080 117.6008920 140.8925460  63.3086250 114.8149860 142.7338830
  63.8907020 114.0602180 142.6459310  63.4848020 115.3457300 141.9570310
  54.4258320 109.9746610 141.0455780  54.3315190 109.3567360 140.3206650
  53.8455710 110.7012900 140.8185690  57.1919760 108.5319850 138.0783170
  56.7437060 108.5544110 137.2328720  56.5584960 108.1338870 138.6753470
  57.5979310 117.4274180 138.6995610  58.0167420 118.2706910 138.5271850
  56.6787940 117.5646220 138.4702390  59.9343210 115.1590360 140.0833450
  60.0539420 114.5631500 140.8228290  60.7937210 115.1960050 139.6634750
  62.2731110 115.7127550 138.6595960  61.7466330 116.2370170 138.0561100
  62.6162450 116.3454940 139.2905690  55.4486730 123.7327190 139.8153340
  54.9107820 124.4573250 139.4962040  55.7020690 123.2557530 139.0250680
  56.7011980 111.7011710 141.3409270  57.2911670 111.3927560 142.0287090
  55.8832220 111.2291460 141.4969170  61.5205410 111.3177520 141.5742290
  60.8320930 110.6559060 141.5092280  62.2411430 110.8715790 142.0190750
  62.1505810 107.9129150 127.6332550  62.4308100 107.0697050 127.9891970
  61.3771540 108.1452260 128.1471300  53.4700300 110.2021540 125.0923550
  53.7726200 110.2088970 124.1842700  54.2094890 109.8519400 125.5891210
  58.3048940 124.9678400 140.0739990  58.2307640 125.8713540 140.3812360
  57.4027780 124.6490300 140.0462060  56.6885230 109.1456160 126.0779750
  56.3407230 108.4680150 125.4982200  56.8898000 108.6845670 126.8923140
  58.8534270 124.1336910 127.6966350  59.7485060 124.4721880 127.7185110
  58.8851900 123.4116320 127.0690630  52.4930430 119.5063960 125.9253350
  52.9305300 120.0493630 126.5810930  52.9778160 118.6810910 125.9349690
  49.7076230 122.2952990 133.3773610  50.0379240 121.4274050 133.1452250
  50.1367230 122.5011510 134.2078570  54.3038150 120.6262000 131.0375580
  54.0033690 120.5026970 131.9379490  54.1975640 119.7670590 130.6291310
  50.1966440 123.1623580 136.1155240  49.7597430 123.3424380 136.9479390
  50.7644120 123.9198200 135.9736960  65.8328620 122.6640580 140.4032550
  65.2330610 122.7233140 139.6596470  65.9622520 121.7245560 140.5329400
  67.0730070 120.4058400 125.7402260  66.2423030 120.4735050 126.2109490
  67.2501900 121.2962520 125.4369120  66.5286530 117.1505880 128.2436460
  67.2905440 117.7202530 128.3496150  66.5440900 116.5833080 129.0144770
  50.0290870 115.6743810 132.4744120  49.3739710 115.4055450 131.8303820
  50.8668820 115.5648290 132.0246100  67.5346500 118.0055980 133.0878390
  67.9055330 117.2223300 132.6814360  68.1748430 118.6945080 132.9095690
  64.5180260 119.3892560 138.5008710  63.7040100 119.8189720 138.7634500
  64.9254460 120.0010970 137.8877760  66.5805700 117.4440250 125.4008980
  66.8554540 118.3519130 125.2728200  66.3916440 117.3802780 126.3370970
  62.9781310 110.4685100 126.6962610  63.3966190 110.2816080 125.8559270
  62.6717370 109.6164150 127.0065540  51.0666800 116.0596380 137.0147460
  51.4339840 115.9723780 137.8943480  50.4977620 115.2962930 136.9154320
  65.8670660 114.5280760 140.0277930  65.6356750 114.2993510 139.1275880
  66.1275210 115.4480310 139.9822820  50.6182800 112.9705470 140.9205880
  49.7238850 112.9372230 141.2599590  51.1580350 113.1692260 141.6857130
  64.3058730 109.7537190 142.8057630  65.1828910 109.7620590 143.1891630
  64.3179570 109.0168030 142.1949980  49.2428950 112.8842740 128.4169450
  48.3393030 113.1472940 128.2421110  49.7269570 113.1553910 127.6369410
  65.7522000 113.6066730 133.6945650  66.2759480 113.1129380 133.0635820
  66.3381420 113.7417090 134.4393220  65.9311720 113.6906600 137.2165200
  64.9814430 113.6570140 137.3310190  66.1124730 114.6006710 136.9814970
  51.7856160 111.9408280 126.3263830  52.4947860 111.5191500 125.8411110
  51.0696100 112.0083510 125.6947180  51.4330320 107.9947610 125.3666480
  52.1558450 108.5356550 125.6847700  51.7054840 107.7211030 124.4908020
  51.1222510 107.2453800 135.2689100  51.7698700 106.6951180 134.8284260
  51.5424350 107.4996950 136.0904910  65.0174850 107.4395160 138.6258740
  65.6547070 108.0529300 138.9917930  65.1649740 107.4755820 137.6807970
  67.5599400 109.3308950 125.4081880  68.4848710 109.1990130 125.2000170
  67.5375190 109.4101770 126.3618330  64.5756310 124.1411160 132.0276980
  65.1715380 123.8195730 131.3511400  64.8334460 123.6682980 132.8190250
  50.8754510 107.4009470 138.0114420  50.5269330 107.8573290 138.7772600
  50.5442210 106.5066600 138.0936850  52.4818880 120.5729070 142.1767610
  52.4388510 120.2021980 143.0582070  52.6129890 121.5106640 142.3169430
  56.1824910 122.1288660 137.7777330  55.9416270 122.3963220 136.8907850
  57.1227550 122.2994390 137.8328190  58.3879330 108.5921350 141.5333840
  58.3268220 109.1843180 142.2829250  59.3279710 108.4847310 141.3884100
  61.0253890 108.2491410 141.1726130  61.6394300 108.5670700 140.5107210
  61.5703450 107.7640000 141.7921990  67.4429070 124.1483040 138.5787970
  66.9487350 124.5451910 137.8615100  66.8342360 123.5232250 138.9725250
  51.5475150 106.9285670 141.2865190  52.0958140 106.7473720 140.5231300
  51.6130460 106.1379780 141.8221500  52.3206910 123.5191320 139.2965390
  51.7267230 123.3876020 140.0355430  52.3130750 122.6829460 138.8307490
  62.6733910 109.0194420 138.8837140  62.3447270 108.2046180 138.5038870
  63.6216210 108.9764230 138.7602830  65.1268520 124.7906460 135.8574710
  64.6671490 125.5422270 135.4832730  64.4980980 124.0712930 135.7989510
  51.9519140 120.8849700 138.2473430  51.2253200 120.2654990 138.1799380
  52.0128290 121.2790310 137.3771510  55.5564240 123.0994700 135.0322840
  56.0729260 122.4882060 134.5071100  56.2061620 123.6023480 135.5233850
  58.2959740 123.9903190 135.8591820  58.5837550 123.7357490 134.9824830
  58.8082960 123.4380550 136.4497390  65.9296390 108.0631730 132.4946240
  65.8684790 107.1192950 132.3477260  66.7088420 108.1711820 133.0399700
  50.2349140 124.2024090 131.4570190  50.0671180 123.5694770 132.1552080
  49.3683650 124.4083490 131.1064380  50.8577160 108.0340870 128.9602050
  51.6156520 108.1469750 128.3866080  50.3954330 108.8710070 128.9145480
  57.3990970 110.1480140 131.9504360  56.5865480 109.7737030 131.6100240
  57.9032610 109.3925220 132.2525550  65.0450550 107.2144150 128.4627710
  65.2401180 108.1127600 128.7295140  64.2580420 106.9831230 128.9560660
  51.8411840 122.8957320 128.9020330  51.3159460 123.2765350 128.1982290
  51.7656420 123.5208090 129.6230040  58.3632100 124.9119290 143.2260020
  59.2899410 124.6763560 143.2695980  58.3482530 125.7391290 142.7446050
  66.5977160 124.4544860 130.2234270  66.7729350 123.7682600 129.5795190
  65.8998730 124.9791910 129.8310940  55.5495710 107.5764040 142.9901900
  55.2679980 108.0797640 142.2262720  55.9315410 106.7785790 142.6244030
  54.4404810 124.8439700 127.7769580  55.1723630 124.5598980 127.2293470
  54.6998480 124.6052980 128.6668960  53.6019600 120.9604430 127.7815910
  52.9728480 121.4289530 128.3301740  53.7167430 120.1153650 128.2162100
  62.1511170 106.9917620 143.5682370  62.0376620 107.3112230 144.4633890
  62.9680910 107.3930130 143.2719650  64.9309660 124.1389150 143.0501060
  65.7234980 123.6438380 142.8427020  65.2242810 124.8179290 143.6576670
  61.0569320 115.0110090 113.9317110  60.9763370 114.0964700 113.6608820
  60.6433740 115.5077160 113.2256820  58.6296350 119.4646300 115.8196540
  58.5604630 118.5236240 115.6585670  59.3916210 119.5547710 116.3919110
  59.6601520 112.2716680 116.0465470  60.0366340 111.3988560 115.9339140
  59.5621030 112.6075380 115.1555910  63.4425640 109.7667120 112.9793810
  64.2635260 109.2763690 113.0219290  63.4759720 110.3564780 113.7325650
  60.3021450 118.3646550 111.6061410  59.6838720 118.8296000 111.0424130
  60.8144700 119.0574030 112.0230920  63.6787120 111.7067500 115.7521350
  62.9742690 111.9952390 116.3324460  64.0399280 112.5167610 115.3920910
  65.2949900 121.3242630 118.0148830  64.6113420 121.9941740 118.0065500
  65.8344190 121.5223280 117.2493690  57.2793580 107.4519470 114.4386550
  57.5868560 106.8966360 113.7222050  56.3494280 107.5863930 114.2559540
  64.1254060 119.8902980 111.8184180  64.0150390 118.9477310 111.9433600
  64.1222310 120.2518620 112.7046940  62.2294080 118.0716600 118.0576620
  62.6462870 117.8576710 117.2230080  62.9533900 118.3289390 118.6285240
  59.6674340 115.5168300 111.1746670  58.7403620 115.4505680 111.4035140
  59.8199160 116.4548430 111.0601910  59.6543420 111.7885300 108.1713830
  58.7147090 111.9499260 108.2566290  59.9726680 112.5070980 107.6249820
  63.6971630 117.0788600 111.6781920  63.0784050 116.7408150 111.0308220
  63.6796080 116.4348360 112.3861110  63.1398190 113.2573140 119.0947730
  62.7269370 114.0826850 119.3487720  62.4074140 112.6718180 118.9024090
  63.8298290 123.3032470 119.7828710  63.3528850 124.1104660 119.5901320
  63.1460080 122.6510800 119.9354920  61.8736330 116.3175410 108.6854670
  62.3129610 115.4797840 108.5392490  62.5864750 116.9504810 108.7718810
  67.4097500 123.0644410 124.8520100  67.8857220 123.5427300 125.5309180
  68.0304660 122.9961900 124.1265600  66.8130750 120.2557260 122.0120110
  66.9393810 120.0169140 121.0937290  66.8552130 119.4241800 122.4842190
  60.6747490 123.9585260 120.5814920  61.1892160 123.8693270 121.3837350
  59.8316570 124.3044960 120.8742830  62.6501890 124.2440600 110.0098920
  62.4903030 123.9543540 110.9080750  62.4848600 123.4680730 109.4744150
  55.1290270 124.0239130 111.7870540  54.9532750 123.1074670 111.5738340
  54.2746010 124.3826420 112.0268340  62.3528020 121.7528160 108.5696920
  61.6593180 121.7505450 107.9099200  63.0950880 121.3287480 108.1391090
  66.6654760 112.3089720 122.9769850  66.0499030 112.8169390 122.4485310
  66.3451180 111.4088050 122.9195790  58.7269080 111.1481610 120.4432040
  58.2648450 111.3564630 121.2551980  58.3247190 110.3340960 120.1402710
  63.7273590 112.3690560 121.5728700  62.8767180 112.0696310 121.8937770
  63.5675380 112.6132570 120.6612520  60.8223300 113.8692310 123.6727490
  61.1476710 113.0356060 123.3329720  61.6103630 114.3920830 123.8205820
  57.5558090 107.9023790 109.7202550  56.9312270 107.8983660 110.4455860
  57.4688210 107.0354750 109.3238520  56.4775170 108.8260420 116.6986320
  56.7747500 109.7323250 116.6178340  57.0260730 108.3379200 116.0845890
  61.4611250 113.4110030 111.1668620  60.8620140 114.1345830 110.9832240
  62.0090860 113.3486810 110.3845070  60.0676120 112.0473570 113.1971900
  60.4605690 112.3645770 112.3840590  60.4292970 111.1685450 113.3116420
  58.3768290 110.7980880 124.4568760  57.6866610 110.6053080 125.0914850
  59.1200590 111.0815520 124.9893060  60.6531260 114.6379320 117.2922680
  59.9212380 115.1466130 117.6412780  60.2555600 113.8209300 116.9911460
  57.0908650 111.3133520 115.6975170  57.0944710 110.8723470 114.8479710
  57.9859770 111.6350850 115.8046990  57.1528800 112.3145600 108.6881930
  57.2741620 112.2732080 109.6367750  56.7677310 113.1769750 108.5328660
  61.1157170 110.0913000 116.7045620  61.1329910 110.5421650 117.5487470
  60.8672750 109.1918640 116.9179060  64.4685760 117.6170290 116.1518030
  65.1884880 118.1125580 115.7614140  64.2667580 116.9388180 115.5071900
  59.9295700 109.0108250 110.2947420  59.1160310 108.5121420 110.2192730
  59.7357650 109.8506500 109.8783770  62.6444090 113.3827900 108.5909580
  63.5323710 113.6945130 108.4160920  62.6149180 112.5100150 108.1990160
  58.6404680 119.5551590 109.2697750  58.9820380 120.2993820 108.7741070
  57.8117390 119.8682710 109.6322580  64.9158360 114.6939740 108.0589440
  64.8322080 115.1253960 107.2085880  65.6352550 115.1538090 108.4916260
  65.9932500 117.1507260 121.1359410  65.2680690 117.7436040 120.9388800
  66.5207960 117.1430800 120.3372780  61.5232090 118.8767430 114.6343260
  61.8755910 118.2795560 113.9744630  60.6394420 118.5511660 114.8051510
  57.6095370 119.6365120 112.0413670  58.2966500 120.1834330 112.4221260
  56.8227790 120.1805850 112.0763280  59.2155190 122.1517490 118.8831330
  59.8597410 122.3576870 119.5604750  59.5784630 121.3905890 118.4302180
  60.4887270 120.1549840 117.6008780  61.1309500 119.4543000 117.7140950
  61.0136620 120.9348280 117.4205670  62.2624890 120.9544740 120.8044840
  62.5981130 121.5411430 121.4822760  61.3425230 120.8237450 121.0342630
  63.9159240 118.3570400 108.9862080  63.6280940 118.8183090 109.7739960
  64.7111410 117.8968170 109.2546300  50.1000880 122.7320180 122.5734780
  50.2092000 121.7914920 122.4330170  49.4481440 122.9974930 121.9248510
  56.1327640 121.8496520 108.9166050  56.1237740 122.5826210 108.3010560
  55.2126000 121.6028100 109.0093010  61.3067070 111.2362230 119.3369700
  61.6747890 110.4157440 119.6649270  60.4465270 111.2964120 119.7525350
  64.6729100 110.1919170 110.1457260  64.0442260 110.2964840 109.4315490
  64.1781020 110.4115950 110.9351140  59.1187240 121.9124760 107.5791240
  59.2199220 121.7088750 106.6493220  58.2188980 121.6583040 107.7839020
  56.6413130 112.4705120 111.5615140  55.9329280 112.9391460 112.0028750
  56.9257610 111.8127130 112.1960330  58.2669060 113.8901820 119.5607670
  58.7654310 114.3647640 120.2259520  58.4092010 112.9665340 119.7677700
  60.6728560 109.1955780 113.0010930  60.5496340 109.2141910 112.0520440
  61.6213120 109.2434720 113.1209330  57.7605350 124.4311080 112.2738910
  58.0146850 124.3932470 111.3518280  56.8117830 124.3044410 112.2667160
  63.7657930 115.3502960 113.8497420  62.8248070 115.3653190 114.0245110
  64.0802000 114.5638920 114.2957720  52.2459320 123.7989090 124.3854390
  53.0472050 124.1201140 124.7989790  51.7311140 123.4384670 125.1074300
  56.3503350 123.7873330 107.0194380  57.1431960 124.0762160 106.5676170
  55.8307700 123.3565500 106.3406860  62.5124320 123.6349250 122.9439210
  63.4646070 123.5507270 122.8939450  62.3652540 124.2990960 123.6173000
  56.8680750 119.0076740 106.8836730  56.7631390 118.3929090 107.6098110
  56.7004970 118.4842630 106.0999740  60.1083480 118.0696770 107.4878720
  59.5593580 118.5166070 108.1321460  60.7302740 117.5646020 108.0116390
  64.1618420 119.4238870 123.4200980  64.9027890 119.7614630 122.9168440
  63.3991100 119.5930930 122.8670750  58.2886240 116.0525300 106.6321120
  58.8091900 115.3374320 106.2662270  58.9354640 116.6911170 106.9321630
  62.8364080 117.4753700 121.9556190  63.2505100 117.6298780 122.8046610
  61.9015080 117.6008920 122.1181970  63.3086250 114.8149860 123.9595340
  63.8907020 114.0602180 123.8715820  63.4848020 115.3457300 123.1826820
  57.1919760 108.5319850 119.3039680  56.7437060 108.5544110 118.4585230
  56.5584960 108.1338870 119.9009980  57.5979310 117.4274180 119.9252120
  58.0167420 118.2706910 119.7528360  56.6787940 117.5646220 119.6958900
  59.9343210 115.1590360 121.3089960  60.0539420 114.5631500 122.0484800
  60.7937210 115.1960050 120.8891260  62.2731110 115.7127550 119.8852470
  61.7466330 116.2370170 119.2817610  62.6162450 116.3454940 120.5162200
  55.4486730 123.7327190 121.0409850  54.9107820 124.4573250 120.7218550
  55.7020690 123.2557530 120.2507190  56.7011980 111.7011710 122.5665780
  57.2911670 111.3927560 123.2543600  55.8832220 111.2291460 122.7225680
  61.5205410 111.3177520 122.7998800  60.8320930 110.6559060 122.7348790
  62.2411430 110.8715790 123.2447260  62.1505810 107.9129150 108.8589060
  62.4308100 107.0697050 109.2148480  61.3771540 108.1452260 109.3727810
  58.3048940 124.9678400 121.2996500  58.2307640 125.8713540 121.6068870
  57.4027780 124.6490300 121.2718570  58.8534270 124.1336910 108.9222860
  59.7485060 124.4721880 108.9441620  58.8851900 123.4116320 108.2947140
  54.3038150 120.6262000 112.2632090  54.0033690 120.5026970 113.1636000
  54.1975640 119.7670590 111.8547820  65.8328620 122.6640580 121.6289060
  65.2330610 122.7233140 120.8852980  65.9622520 121.7245560 121.7585910
  66.5286530 117.1505880 109.4692970  67.2905440 117.7202530 109.5752660
  66.5440900 116.5833080 110.2401280  64.5180260 119.3892560 119.7265220
  63.7040100 119.8189720 119.9891010  64.9254460 120.0010970 119.1134270
  66.5805700 117.4440250 106.6265490  66.8554540 118.3519130 106.4984710
  66.3916440 117.3802780 107.5627480  62.9781310 110.4685100 107.9219120
  63.3966190 110.2816080 107.0815780  62.6717370 109.6164150 108.2322050
  66.4771040 115.3809240 111.6194920  66.1014640 114.6137170 111.1876210
  65.7474160 115.7631940 112.1069850  65.8670660 114.5280760 121.2534440
  65.6356750 114.2993510 120.3532390  66.1275210 115.4480310 121.2079330
  64.3058730 109.7537190 124.0314140  65.1828910 109.7620590 124.4148140
  64.3179570 109.0168030 123.4206490  65.7522000 113.6066730 114.9202160
  66.2759480 113.1129380 114.2892330  66.3381420 113.7417090 115.6649730
  65.2421970 112.8640080 110.8594570  65.7381090 112.6310950 111.6443450
  65.0438040 112.0251920 110.4432210  66.6709130 111.5001030 113.3932250
  66.5608410 111.3457070 114.3314520  67.4316720 110.9721970 113.1507660
  58.3879330 108.5921350 122.7590350  58.3268220 109.1843180 123.5085760
  59.3279710 108.4847310 122.6140610  61.0253890 108.2491410 122.3982640
  61.6394300 108.5670700 121.7363720  61.5703450 107.7640000 123.0178500
  67.4429070 124.1483040 119.8044480  66.9487350 124.5451910 119.0871610
  66.8342360 123.5232250 120.1981760  51.5475150 106.9285670 122.5121700
  52.0958140 106.7473720 121.7487810  51.6130460 106.1379780 123.0478010
  62.6733910 109.0194420 120.1093650  62.3447270 108.2046180 119.7295380
  63.6216210 108.9764230 119.9859340  59.5136750 107.7293390 117.6644840
  58.7308540 108.2038890 117.9441600  59.2199680 106.8248220 117.5558020
  64.0657820 108.4316490 115.7093930  64.5065910 108.3761590 114.8615530
  63.7965410 109.3474500 115.7804110  65.9296390 108.0631730 113.7202750
  65.8684790 107.1192950 113.5733770  66.7088420 108.1711820 114.2656210
  57.3990970 110.1480140 113.1760870  56.5865480 109.7737030 112.8356750
  57.9032610 109.3925220 113.4782060  65.0450550 107.2144150 109.6884220
  65.2401180 108.1127600 109.9551650  64.2580420 106.9831230 110.1817170
  55.4240150 108.2980060 111.7805920  54.7942890 107.5967370 111.9476050
  54.8845290 109.0584190 111.5639080  58.3632100 124.9119290 124.4516530
  59.2899410 124.6763560 124.4952490  58.3482530 125.7391290 123.9702560
  55.5495710 107.5764040 124.2158410  55.2679980 108.0797640 123.4519230
  55.9315410 106.7785790 123.8500540  54.4404810 124.8439700 109.0026090
  55.1723630 124.5598980 108.4549980  54.6998480 124.6052980 109.8925470
  62.1511170 106.9917620 124.7938880  62.0376620 107.3112230 125.6890400
  62.9680910 107.3930130 124.4976160  64.9309660 124.1389150 124.2757570
  65.7234980 123.6438380 124.0683530  65.2242810 124.8179290 124.8833180
  59.1887360 116.7889110  97.0382890  58.4129460 116.3089550  97.3281460
  59.8400290 116.1094760  96.8639050  63.2094790 121.1949300  95.8182020
  62.7476320 120.4236540  96.1469190  64.0220340 121.2215370  96.3234470
  51.6145140 112.0610810  91.7001040  50.7261840 112.4026780  91.5980920
  51.8986330 111.8611130  90.8081870  59.6601520 112.2716680  97.2721980
  60.0366340 111.3988560  97.1595650  59.5621030 112.6075380  96.3812420
  53.7906530 110.6442310  92.7339420  53.8973280 111.5446040  93.0408180
  52.8798890 110.5960280  92.4434070  63.4425640 109.7667120  94.2050320
  64.2635260 109.2763690  94.2475800  63.4759720 110.3564780  94.9582160
  55.6314260 113.6128680  97.0664600  56.1392480 114.1109650  97.7069620
  56.1627500 112.8363880  96.8903960  67.7325190 111.7833870 100.7693950
  67.0277360 112.1715580 100.2509060  67.9983110 112.4784160 101.3714880
  55.1653210 117.8922420  99.5101520  54.8322590 118.5191340 100.1522590
  55.3419890 118.4184300  98.7303190  63.6787120 111.7067500  96.9777860
  62.9742690 111.9952390  97.5580970  64.0399280 112.5167610  96.6177420
  49.6704650 119.0503080  90.2057550  49.2932630 119.5390180  89.4742450
  49.9277720 119.7228360  90.8364080  66.7474040 111.1522290  97.3687070
  65.7998950 111.1861270  97.5002500  67.0724030 111.9661240  97.7536430
  57.2793580 107.4519470  95.6643060  57.5868560 106.8966360  94.9478560
  56.3494280 107.5863930  95.4816050  64.1254060 119.8902980  93.0440690
  64.0150390 118.9477310  93.1690110  64.1222310 120.2518620  93.9303450
  59.6543420 111.7885300  89.3970340  58.7147090 111.9499260  89.4822800
  59.9726680 112.5070980  88.8506330  66.1756180 116.4703820  99.3749370
  65.3474810 116.5396910  98.8999500  66.7706660 117.0558130  98.9065200
  63.1398190 113.2573140 100.3204240  62.7269370 114.0826850 100.5744230
  62.4074140 112.6718180 100.1280600  65.4553470 107.5718220  88.2252220
  65.1426130 107.6645050  89.1251290  66.2165940 108.1499250  88.1749650
  51.9735610 114.9378020  92.6829560  51.8533210 115.6640110  92.0710830
  51.6636500 114.1680930  92.2057470  49.6120980 118.1093160  98.4898200
  49.6901400 118.2441930  97.5453920  50.2262660 117.4009050  98.6826320
  66.8130750 120.2557260 103.2376620  66.9393810 120.0169140 102.3193800
  66.8552130 119.4241800 103.7098700  58.7269080 111.1481610 101.6688550
  58.2648450 111.3564630 102.4808490  58.3247190 110.3340960 101.3659220
  63.7273590 112.3690560 102.7985210  62.8767180 112.0696310 103.1194280
  63.5675380 112.6132570 101.8869030  60.8223300 113.8692310 104.8984000
  61.1476710 113.0356060 104.5586230  61.6103630 114.3920830 105.0462330
  56.4775170 108.8260420  97.9242830  56.7747500 109.7323250  97.8434850
  57.0260730 108.3379200  97.3102400  54.2313490 113.4046660  93.7934480
  54.0054410 113.1883830  94.6981100  53.4506020 113.8375120  93.4480450
  49.2910520 112.5794490  87.8561330  49.2085190 113.5225250  87.9976320
  48.9393580 112.4369400  86.9773680  60.6531260 114.6379320  98.5179190
  59.9212380 115.1466130  98.8669290  60.2555600 113.8209300  98.2167970
  57.0908650 111.3133520  96.9231680  57.0944710 110.8723470  96.0736220
  57.9859770 111.6350850  97.0303500  57.1528800 112.3145600  89.9138440
  57.2741620 112.2732080  90.8624260  56.7677310 113.1769750  89.7585170
  61.1157170 110.0913000  97.9302130  61.1329910 110.5421650  98.7743980
  60.8672750 109.1918640  98.1435570  57.3916620 115.3735300  98.6697090
  57.7586750 114.8993870  99.4158430  57.2021680 116.2476870  99.0105430
  55.1815990 114.4143940 100.9881300  54.8773060 115.2935920 101.2131660
  56.1362450 114.4743730 101.0238740  64.4685760 117.6170290  97.3774540
  65.1884880 118.1125580  96.9870650  64.2667580 116.9388180  96.7328410
  59.9295700 109.0108250  91.5203930  59.1160310 108.5121420  91.4449240
  59.7357650 109.8506500  91.1040280  59.8504560 117.6879350 103.2643540
  59.7841870 116.7675020 103.0101130  59.2209700 117.7854790 103.9788180
  51.2379720 115.2546680 102.1352660  50.8794660 115.9200530 102.7226000
  50.9434280 114.4230230 102.5065280  64.9158360 114.6939740  89.2845950
  64.8322080 115.1253960  88.4342390  65.6352550 115.1538090  89.7172770
  65.9932500 117.1507260 102.3615920  65.2680690 117.7436040 102.1645310
  66.5207960 117.1430800 101.5629290  65.9445610 121.5482000  92.0128080
  65.3021770 120.8937620  92.2871800  65.5576270 121.9537090  91.2368750
  61.5232090 118.8767430  95.8599770  61.8755910 118.2795560  95.2001140
  60.6394420 118.5511660  96.0308020  49.7487770 115.2537940  88.7587260
  50.6182620 115.5362740  89.0423180  49.2578090 116.0673810  88.6436070
  52.8134360 106.9848800  93.3518060  52.6848990 106.9766700  94.3002980
  51.9896380 107.3231890  93.0009070  64.3342990 120.4398460  88.5504430
  64.1080570 119.7228900  89.1429070  63.9439190 120.1910900  87.7126180
  50.1159020 124.4665320  89.3248890  50.4756660 125.0654660  88.6706160
  49.9751360 125.0125210  90.0983920  49.8128290 108.7439920 102.8124760
  49.0986810 108.9436840 103.4177370  50.2323330 107.9679490 103.1839560
  63.9159240 118.3570400  90.2118590  63.6280940 118.8183090  90.9996470
  64.7111410 117.8968170  90.4802810  58.0913470 121.0036070 105.1989410
  57.7710340 120.2845310 105.7435100  57.4171830 121.6791140 105.2725470
  51.7334280 117.0711410  90.8869320  51.1262230 117.8110310  90.8964620
  52.2083630 117.1610770  90.0607520  61.3067070 111.2362230 100.5626210
  61.6747890 110.4157440 100.8905780  60.4465270 111.2964120 100.9781860
  64.6729100 110.1919170  91.3713770  64.0442260 110.2964840  90.6572000
  64.1781020 110.4115950  92.1607650  56.6413130 112.4705120  92.7871650
  55.9329280 112.9391460  93.2285260  56.9257610 111.8127130  93.4216840
  58.2669060 113.8901820 100.7864180  58.7654310 114.3647640 101.4516030
  58.4092010 112.9665340 100.9934210  60.6728560 109.1955780  94.2267440
  60.5496340 109.2141910  93.2776950  61.6213120 109.2434720  94.3465840
  54.8448150 110.7790200  90.1622360  55.6938680 111.2160350  90.0962550
  54.4779420 111.0910460  90.9894420  53.7439570 117.0322560  88.6357890
  54.5102840 116.9203920  89.1983320  53.8214260 116.3360530  87.9834660
  52.4386330 114.4647630  89.3190780  52.5189920 113.5175140  89.4308180
  53.3306080 114.7954510  89.4251440  61.0823950 119.9068960 105.5586310
  60.4762110 119.9300560 104.8182060  60.7778060 119.1752000 106.0953560
  65.4033520 123.0143460  89.6687630  65.1175030 122.6008600  88.8541810
  65.2053070 123.9431170  89.5488150  57.0195070 117.6933540 104.0882470
  56.2540740 118.2618540 104.0037140  57.2011030 117.4009750 103.1950700
  60.1083480 118.0696770  88.7135230  59.5593580 118.5166070  89.3577970
  60.7302740 117.5646020  89.2372900  64.1618420 119.4238870 104.6457490
  64.9027890 119.7614630 104.1424950  63.3991100 119.5930930 104.0927260
  58.2886240 116.0525300  87.8577630  58.8091900 115.3374320  87.4918780
  58.9354640 116.6911170  88.1578140  62.8364080 117.4753700 103.1812700
  63.2505100 117.6298780 104.0303120  61.9015080 117.6008920 103.3438480
  63.3086250 114.8149860 105.1851850  63.8907020 114.0602180 105.0972330
  63.4848020 115.3457300 104.4083330  57.1919760 108.5319850 100.5296190
  56.7437060 108.5544110  99.6841740  56.5584960 108.1338870 101.1266490
  57.5979310 117.4274180 101.1508630  58.0167420 118.2706910 100.9784870
  56.6787940 117.5646220 100.9215410  59.9343210 115.1590360 102.5346470
  60.0539420 114.5631500 103.2741310  60.7937210 115.1960050 102.1147770
  62.2731110 115.7127550 101.1108980  61.7466330 116.2370170 100.5074120
  62.6162450 116.3454940 101.7418710  61.5205410 111.3177520 104.0255310
  60.8320930 110.6559060 103.9605300  62.2411430 110.8715790 104.4703770
  52.4930430 119.5063960  88.3766370  52.9305300 120.0493630  89.0323950
  52.9778160 118.6810910  88.3862710  50.1966440 123.1623580  98.5668260
  49.7597430 123.3424380  99.3992410  50.7644120 123.9198200  98.4249980
  67.0730070 120.4058400  88.1915280  66.2423030 120.4735050  88.6622510
  67.2501900 121.2962520  87.8882140  66.5286530 117.1505880  90.6949480
  67.2905440 117.7202530  90.8009170  66.5440900 116.5833080  91.4657790
  67.5346500 118.0055980  95.5391410  67.9055330 117.2223300  95.1327380
  68.1748430 118.6945080  95.3608710  66.5805700 117.4440250  87.8522000
  66.8554540 118.3519130  87.7241220  66.3916440 117.3802780  88.7883990
  62.9781310 110.4685100  89.1475630  63.3966190 110.2816080  88.3072290
  62.6717370 109.6164150  89.4578560  66.4771040 115.3809240  92.8451430
  66.1014640 114.6137170  92.4132720  65.7474160 115.7631940  93.3326360
  65.8670660 114.5280760 102.4790950  65.6356750 114.2993510 101.5788900
  66.1275210 115.4480310 102.4335840  49.2428950 112.8842740  90.8682470
  48.3393030 113.1472940  90.6934130  49.7269570 113.1553910  90.0882430
  65.7522000 113.6066730  96.1458670  66.2759480 113.1129380  95.5148840
  66.3381420 113.7417090  96.8906240  65.9311720 113.6906600  99.6678220
  64.9814430 113.6570140  99.7823210  66.1124730 114.6006710  99.4327990
  51.7856160 111.9408280  88.7776850  52.4947860 111.5191500  88.2924130
  51.0696100 112.0083510  88.1460200  51.4330320 107.9947610  87.8179500
  52.1558450 108.5356550  88.1360720  51.7054840 107.7211030  86.9421040
  66.6709130 111.5001030  94.6188760  66.5608410 111.3457070  95.5571030
  67.4316720 110.9721970  94.3764170  64.5756310 124.1411160  94.4790000
  65.1715380 123.8195730  93.8024420  64.8334460 123.6682980  95.2703270
  56.1824910 122.1288660 100.2290350  55.9416270 122.3963220  99.3420870
  57.1227550 122.2994390 100.2841210  58.3879330 108.5921350 103.9846860
  58.3268220 109.1843180 104.7342270  59.3279710 108.4847310 103.8397120
  61.0253890 108.2491410 103.6239150  61.6394300 108.5670700 102.9620230
  61.5703450 107.7640000 104.2435010  52.3206910 123.5191320 101.7478410
  51.7267230 123.3876020 102.4868450  52.3130750 122.6829460 101.2820510
  51.9519140 120.8849700 100.6986450  51.2253200 120.2654990 100.6312400
  52.0128290 121.2790310  99.8284530  59.5136750 107.7293390  98.8901350
  58.7308540 108.2038890  99.1698110  59.2199680 106.8248220  98.7814530
  64.0657820 108.4316490  96.9350440  64.5065910 108.3761590  96.0872040
  63.7965410 109.3474500  97.0060620  50.8577160 108.0340870  91.4115070
  51.6156520 108.1469750  90.8379100  50.3954330 108.8710070  91.3658500
  57.3990970 110.1480140  94.4017380  56.5865480 109.7737030  94.0613260
  57.9032610 109.3925220  94.7038570  61.9015950 106.8122590  95.6400450
  62.5045320 107.3842800  96.1148970  61.1608940 107.3762030  95.4174350
  53.2302310 108.5604920  89.9517040  53.7595070 107.7734720  89.8224990
  53.8630630 109.2396110  90.1852570  55.4240150 108.2980060  93.0062430
  54.7942890 107.5967370  93.1732560  54.8845290 109.0584190  92.7895590
  58.3632100 124.9119290 105.6773040  59.2899410 124.6763560 105.7209000
  58.3482530 125.7391290 105.1959070  66.5977160 124.4544860  92.6747290
  66.7729350 123.7682600  92.0308210  65.8998730 124.9791910  92.2823960
  53.6019600 120.9604430  90.2328930  52.9728480 121.4289530  90.7814760
  53.7167430 120.1153650  90.6675120  62.1511170 106.9917620 106.0195390
  62.0376620 107.3112230 106.9146910  62.9680910 107.3930130 105.7232670
  67.7325190 111.7833870  81.9950460  67.0277360 112.1715580  81.4765570
  67.9983110 112.4784160  82.5971390  60.3021450 118.3646550  74.0574430
  59.6838720 118.8296000  73.4937150  60.8144700 119.0574030  74.4743940
  49.6704650 119.0503080  71.4314060  49.2932630 119.5390180  70.6998960
  49.9277720 119.7228360  72.0620590  66.7474040 111.1522290  78.5943580
  65.7998950 111.1861270  78.7259010  67.0724030 111.9661240  78.9792940
  64.1254060 119.8902980  74.2697200  64.0150390 118.9477310  74.3946620
  64.1222310 120.2518620  75.1559960  61.8736330 116.3175410  71.1367690
  62.3129610 115.4797840  70.9905510  62.5864750 116.9504810  71.2231830
  53.6602330 116.3395610  83.7983800  53.5210100 117.2118410  84.1671200
  52.7783690 115.9968420  83.6531740  65.4553470 107.5718220  69.4508730
  65.1426130 107.6645050  70.3507800  66.2165940 108.1499250  69.4006160
  67.4097500 123.0644410  87.3033120  67.8857220 123.5427300  87.9822200
  68.0304660 122.9961900  86.5778620  49.6120980 118.1093160  79.7154710
  49.6901400 118.2441930  78.7710430  50.2262660 117.4009050  79.9082830
  50.8568610 119.8093350  76.1260890  50.4496690 119.9507940  75.2714490
  51.7481620 119.5253510  75.9232100  66.8130750 120.2557260  84.4633130
  66.9393810 120.0169140  83.5450310  66.8552130 119.4241800  84.9355210
  66.6654760 112.3089720  85.4282870  66.0499030 112.8169390  84.8998330
  66.3451180 111.4088050  85.3708810  49.6680500 119.1507330  82.2549170
  49.8311540 118.6812690  81.4368540  50.1332950 118.6430890  82.9198010
  54.4399270 108.2813090  77.2909740  53.9967420 109.0622630  76.9594260
  54.9984260 108.6042980  77.9980680  56.4775170 108.8260420  79.1499340
  56.7747500 109.7323250  79.0691360  57.0260730 108.3379200  78.5358910
  49.2910520 112.5794490  69.0817840  49.2085190 113.5225250  69.2232830
  48.9393580 112.4369400  68.2030190  52.9411030 111.1960010  77.1082400
  52.6011080 111.6735240  77.8649450  52.1788350 110.7425130  76.7483500
  64.5427920 107.5045180  84.9945020  64.8673690 106.7734840  85.5203000
  64.5784430 107.1858820  84.0926010  51.2419480 118.5258760  84.4144980
  50.8574270 117.8852430  85.0127940  51.5531670 119.2294880  84.9839710
  53.7097780 118.6204930  72.8104660  52.9360040 118.0802550  72.6503380
  54.4392410 118.1011540  72.4722420  62.6444090 113.3827900  71.0422600
  63.5323710 113.6945130  70.8673940  62.6149180 112.5100150  70.6503180
  51.2379720 115.2546680  83.3609170  50.8794660 115.9200530  83.9482510
  50.9434280 114.4230230  83.7321790  65.9932500 117.1507260  83.5872430
  65.2680690 117.7436040  83.3901820  66.5207960 117.1430800  82.7885800
  65.9445610 121.5482000  73.2384590  65.3021770 120.8937620  73.5128310
  65.5576270 121.9537090  72.4625260  49.7487770 115.2537940  69.9843770
  50.6182620 115.5362740  70.2679690  49.2578090 116.0673810  69.8692580
  56.1327640 121.8496520  71.3679070  56.1237740 122.5826210  70.7523580
  55.2126000 121.6028100  71.4606030  51.7334280 117.0711410  72.1125830
  51.1262230 117.8110310  72.1221130  52.2083630 117.1610770  71.2864030
  64.6729100 110.1919170  72.5970280  64.0442260 110.2964840  71.8828510
  64.1781020 110.4115950  73.3864160  65.4735920 110.1069780  82.8549080
  64.9709520 110.8475180  83.1942890  66.2892580 110.4953780  82.5385870
  50.1246520 120.6816590  73.5223340  49.1986300 120.9237730  73.5128750
  50.5902950 121.5090850  73.4008090  52.2459320 123.7989090  86.8367410
  53.0472050 124.1201140  87.2502810  51.7311140 123.4384670  87.5587320
  56.3503350 123.7873330  69.4707400  57.1431960 124.0762160  69.0189190
  55.8307700 123.3565500  68.7919880  61.0823950 119.9068960  86.7842820
  60.4762110 119.9300560  86.0438570  60.7778060 119.1752000  87.3210070
  49.9657130 116.2862550  85.7803460  50.4696150 115.7069830  86.3519690
  49.2264550 116.5702780  86.3179830  57.0195070 117.6933540  85.3138980
  56.2540740 118.2618540  85.2293650  57.2011030 117.4009750  84.4207210
  64.1618420 119.4238870  85.8714000  64.9027890 119.7614630  85.3681460
  63.3991100 119.5930930  85.3183770  51.9980210 114.4292140  86.6753530
  52.0385550 114.1306010  87.5838760  52.8525710 114.8299750  86.5161050
  57.5979310 117.4274180  82.3765140  58.0167420 118.2706910  82.2041380
  56.6787940 117.5646220  82.1471920  62.1505810 107.9129150  71.3102080
  62.4308100 107.0697050  71.6661500  61.3771540 108.1452260  71.8240830
  49.7076230 122.2952990  77.0543140  50.0379240 121.4274050  76.8221780
  50.1367230 122.5011510  77.8848100  50.0290870 115.6743810  76.1513650
  49.3739710 115.4055450  75.5073350  50.8668820 115.5648290  75.7015630
  67.5346500 118.0055980  76.7647920  67.9055330 117.2223300  76.3583890
  68.1748430 118.6945080  76.5865220  62.9781310 110.4685100  70.3732140
  63.3966190 110.2816080  69.5328800  62.6717370 109.6164150  70.6835070
  51.0666800 116.0596380  80.6916990  51.4339840 115.9723780  81.5713010
  50.4977620 115.2962930  80.5923850  64.3058730 109.7537190  86.4827160
  65.1828910 109.7620590  86.8661160  64.3179570 109.0168030  85.8719510
  51.1222510 107.2453800  78.9458630  51.7698700 106.6951180  78.5053790
  51.5424350 107.4996950  79.7674440  65.0174850 107.4395160  82.3028270
  65.6547070 108.0529300  82.6687460  65.1649740 107.4755820  81.3577500
  67.5599400 109.3308950  69.0851410  68.4848710 109.1990130  68.8769700
  67.5375190 109.4101770  70.0387860  67.6337890 110.1019610  71.7108120
  66.8389390 110.0364730  72.2401030  67.8381170 111.0370250  71.6993470
  64.5756310 124.1411160  75.7046510  65.1715380 123.8195730  75.0280930
  64.8334460 123.6682980  76.4959780  65.1268520 124.7906460  79.5344240
  64.6671490 125.5422270  79.1602260  64.4980980 124.0712930  79.4759040
  65.9296390 108.0631730  76.1715770  65.8684790 107.1192950  76.0246790
  66.7088420 108.1711820  76.7169230  65.0450550 107.2144150  72.1397240
  65.2401180 108.1127600  72.4064670  64.2580420 106.9831230  72.6330190
  66.5977160 124.4544860  73.9003800  66.7729350 123.7682600  73.2564720
  65.8998730 124.9791910  73.5080470  53.6019600 120.9604430  71.4585440
  52.9728480 121.4289530  72.0071270  53.7167430 120.1153650  71.8931630
  64.9309660 124.1389150  86.7270590  65.7234980 123.6438380  86.5196550
  65.2242810 124.8179290  87.3346200  61.0569320 115.0110090  57.6086640
  60.9763370 114.0964700  57.3378350  60.6433740 115.5077160  56.9026350
  59.1887360 116.7889110  59.4895910  58.4129460 116.3089550  59.7794480
  59.8400290 116.1094760  59.3152070  53.2053190 117.1008920  60.3671670
  52.3738070 116.8457630  60.7668180  53.8134170 117.1719690  61.1029590
  63.2094790 121.1949300  58.2695040  62.7476320 120.4236540  58.5982210
  64.0220340 121.2215370  58.7747490  49.5778150 114.6616460  60.0353760
  50.1494260 113.8938660  60.0357400  49.5779690 114.9605220  59.1260370
  58.6296350 119.4646300  59.4966070  58.5604630 118.5236240  59.3355200
  59.3916210 119.5547710  60.0688640  50.8203020 110.0700820  61.8222690
  50.6405860 109.1726570  62.1025450  50.4183100 110.6172690  62.4969640
  59.6601520 112.2716680  59.7235000  60.0366340 111.3988560  59.6108670
  59.5621030 112.6075380  58.8325440  51.4389690 112.5661320  60.4305030
  52.1199800 112.8299690  61.0492430  51.1237740 111.7262190  60.7643040
  55.6314260 113.6128680  59.5177620  56.1392480 114.1109650  60.1582640
  56.1627500 112.8363880  59.3416980  67.7325190 111.7833870  63.2206970
  67.0277360 112.1715580  62.7022080  67.9983110 112.4784160  63.8227900
  55.1653210 117.8922420  61.9614540  54.8322590 118.5191340  62.6035610
  55.3419890 118.4184300  61.1816210  63.6787120 111.7067500  59.4290880
  62.9742690 111.9952390  60.0093990  64.0399280 112.5167610  59.0690440
  53.5965690 109.9637200  61.7911490  53.9382500 110.8079250  61.4965360
  52.6581500 110.1120940  61.9076830  54.3772310 119.8603220  63.7763720
  54.9946310 120.5354300  63.4948170  53.5165430 120.2691200  63.6851220
  66.7474040 111.1522290  59.8200090  65.7998950 111.1861270  59.9515520
  67.0724030 111.9661240  60.2049450  62.8308640 123.1686760  60.4063540
  62.8435800 122.7649050  59.5385800  62.2783860 123.9434050  60.3024970
  63.1398190 113.2573140  62.7717260  62.7269370 114.0826850  63.0257250
  62.4074140 112.6718180  62.5793620  55.2730980 116.0433040  57.6335930
  54.8687980 115.3310290  57.1381830  55.3594100 115.6986280  58.5223970
  55.7412680 119.7300600  59.7975140  55.4440970 119.1246070  59.1182920
  56.6912500 119.7677910  59.6864500  53.9859600 112.8176250  61.4134970
  54.5374190 112.9271590  60.6388220  54.5003110 113.1913850  62.1290200
  54.8331110 119.4682290  66.4482940  53.9359640 119.6922260  66.6956340
  54.8583980 119.5917230  65.4994340  59.9831710 121.2571480  56.3305440
  60.4227620 121.9995810  55.9160830  59.9218600 121.4998050  57.2544400
  65.4553470 107.5718220  50.6765240  65.1426130 107.6645050  51.5764310
  66.2165940 108.1499250  50.6262670  67.4097500 123.0644410  68.5289630
  67.8857220 123.5427300  69.2078710  68.0304660 122.9961900  67.8035130
  49.6120980 118.1093160  60.9411220  49.6901400 118.2441930  59.9966940
  50.2262660 117.4009050  61.1339340  60.6747490 123.9585260  64.2584450
  61.1892160 123.8693270  65.0606880  59.8316570 124.3044960  64.5512360
  61.9177950 123.3790870  56.3214940  62.3734900 122.5980250  56.6353560
  62.2570470 124.0897690  56.8656120  49.6680500 119.1507330  63.4805680
  49.8311540 118.6812690  62.6625050  50.1332950 118.6430890  64.1454520
  58.7269080 111.1481610  64.1201570  58.2648450 111.3564630  64.9321510
  58.3247190 110.3340960  63.8172240  63.7273590 112.3690560  65.2498230
  62.8767180 112.0696310  65.5707300  63.5675380 112.6132570  64.3382050
  54.2313490 113.4046660  56.2447500  54.0054410 113.1883830  57.1494120
  53.4506020 113.8375120  55.8993470  60.0676120 112.0473570  56.8741430
  60.4605690 112.3645770  56.0610120  60.4292970 111.1685450  56.9885950
  49.1040290 108.6374370  59.0971630  48.8153340 109.2077230  59.8096610
  49.8486050 108.1578820  59.4602860  49.2910520 112.5794490  50.3074350
  49.2085190 113.5225250  50.4489340  48.9393580 112.4369400  49.4286700
  60.6531260 114.6379320  60.9692210  59.9212380 115.1466130  61.3182310
  60.2555600 113.8209300  60.6680990  57.0908650 111.3133520  59.3744700
  57.0944710 110.8723470  58.5249240  57.9859770 111.6350850  59.4816520
  56.1650300 114.6246740  51.7634760  55.5967200 114.1764990  51.1370670
  56.8739300 114.9839520  51.2299910  64.5427920 107.5045180  66.2201530
  64.8673690 106.7734840  66.7459510  64.5784430 107.1858820  65.3182520
  51.2419480 118.5258760  65.6401490  50.8574270 117.8852430  66.2384450
  51.5531670 119.2294880  66.2096220  57.3916620 115.3735300  61.1210110
  57.7586750 114.8993870  61.8671450  57.2021680 116.2476870  61.4618450
  55.1815990 114.4143940  63.4394320  54.8773060 115.2935920  63.6644680
  56.1362450 114.4743730  63.4751760  59.8504560 117.6879350  65.7156560
  59.7841870 116.7675020  65.4614150  59.2209700 117.7854790  66.4301200
  58.6404680 119.5551590  52.9467280  58.9820380 120.2993820  52.4510600
  57.8117390 119.8682710  53.3092110  51.2379720 115.2546680  64.5865680
  50.8794660 115.9200530  65.1739020  50.9434280 114.4230230  64.9578300
  59.7821290 120.5099920  65.4660360  59.7965830 119.5780880  65.2479270
  59.0746390 120.5959680  66.1050130  61.5232090 118.8767430  58.3112790
  61.8755910 118.2795560  57.6514160  60.6394420 118.5511660  58.4821040
  56.9122580 116.6411150  55.3308560  57.3685360 117.4516400  55.5568750
  56.5610790 116.3234290  56.1627050  59.2155190 122.1517490  62.5600860
  59.8597410 122.3576870  63.2374280  59.5784630 121.3905890  62.1071710
  60.4887270 120.1549840  61.2778310  61.1309500 119.4543000  61.3910480
  61.0136620 120.9348280  61.0975200  58.0913470 121.0036070  67.6502430
  57.7710340 120.2845310  68.1948120  57.4171830 121.6791140  67.7238490
  56.1327640 121.8496520  52.5935580  56.1237740 122.5826210  51.9780090
  55.2126000 121.6028100  52.6862540  64.6729100 110.1919170  53.8226790
  64.0442260 110.2964840  53.1085020  64.1781020 110.4115950  54.6120670
  59.1187240 121.9124760  51.2560770  59.2199220 121.7088750  50.3262750
  58.2188980 121.6583040  51.4608550  56.6413130 112.4705120  55.2384670
  55.9329280 112.9391460  55.6798280  56.9257610 111.8127130  55.8729860
  58.2669060 113.8901820  63.2377200  58.7654310 114.3647640  63.9029050
  58.4092010 112.9665340  63.4447230  60.6728560 109.1955780  56.6780460
  60.5496340 109.2141910  55.7289970  61.6213120 109.2434720  56.7978860
  65.4735920 110.1069780  64.0805590  64.9709520 110.8475180  64.4199400
  66.2892580 110.4953780  63.7642380  53.7439570 117.0322560  51.0870910
  54.5102840 116.9203920  51.6496340  53.8214260 116.3360530  50.4347680
  52.4386330 114.4647630  51.7703800  52.5189920 113.5175140  51.8821200
  53.3306080 114.7954510  51.8764460  65.7683510 122.5211810  59.2021210
  65.8930930 123.3442980  59.6745020  66.6349070 122.3102540  58.8545360
  49.9657130 116.2862550  67.0059970  50.4696150 115.7069830  67.5776200
  49.2264550 116.5702780  67.5436340  56.8680750 119.0076740  50.5606260
  56.7631390 118.3929090  51.2867640  56.7004970 118.4842630  49.7769270
  57.0195070 117.6933540  66.5395490  56.2540740 118.2618540  66.4550160
  57.2011030 117.4009750  65.6463720  60.1083480 118.0696770  51.1648250
  59.5593580 118.5166070  51.8090990  60.7302740 117.5646020  51.6885920
  55.7758600 117.0287690  53.0613550  56.1975020 116.8627560  53.9044940
  55.9009440 116.2187920  52.5668690  58.2886240 116.0525300  50.3090650
  58.8091900 115.3374320  49.9431800  58.9354640 116.6911170  50.6091160
  63.3086250 114.8149860  67.6364870  63.8907020 114.0602180  67.5485350
  63.4848020 115.3457300  66.8596350  57.5979310 117.4274180  63.6021650
  58.0167420 118.2706910  63.4297890  56.6787940 117.5646220  63.3728430
  59.9343210 115.1590360  64.9859490  60.0539420 114.5631500  65.7254330
  60.7937210 115.1960050  64.5660790  62.2731110 115.7127550  63.5622000
  61.7466330 116.2370170  62.9587140  62.6162450 116.3454940  64.1931730
  54.6717500 113.1020920  50.0071710  54.4706560 112.2388280  50.3685050
  54.5009550 113.0154280  49.0693310  55.4486730 123.7327190  64.7179380
  54.9107820 124.4573250  64.3988080  55.7020690 123.2557530  63.9276720
  61.5205410 111.3177520  66.4768330  60.8320930 110.6559060  66.4118320
  62.2411430 110.8715790  66.9216790  53.4700300 110.2021540  49.9949590
  53.7726200 110.2088970  49.0868740  54.2094890 109.8519400  50.4917250
  58.3048940 124.9678400  64.9766030  58.2307640 125.8713540  65.2838400
  57.4027780 124.6490300  64.9488100  58.8534270 124.1336910  52.5992390
  59.7485060 124.4721880  52.6211150  58.8851900 123.4116320  51.9716670
  52.4930430 119.5063960  50.8279390  52.9305300 120.0493630  51.4836970
  52.9778160 118.6810910  50.8375730  51.0666800 116.0596380  61.9173500
  51.4339840 115.9723780  62.7969520  50.4977620 115.2962930  61.8180360
  65.8670660 114.5280760  64.9303970  65.6356750 114.2993510  64.0301920
  66.1275210 115.4480310  64.8848860  64.3058730 109.7537190  67.7083670
  65.1828910 109.7620590  68.0917670  64.3179570 109.0168030  67.0976020
  49.2428950 112.8842740  53.3195490  48.3393030 113.1472940  53.1447150
  49.7269570 113.1553910  52.5395450  65.9311720 113.6906600  62.1191240
  64.9814430 113.6570140  62.2336230  66.1124730 114.6006710  61.8841010
  51.1222510 107.2453800  60.1715140  51.7698700 106.6951180  59.7310300
  51.5424350 107.4996950  60.9930950  67.5599400 109.3308950  50.3107920
  68.4848710 109.1990130  50.1026210  67.5375190 109.4101770  51.2644370
  56.1824910 122.1288660  62.6803370  55.9416270 122.3963220  61.7933890
  57.1227550 122.2994390  62.7354230  58.3879330 108.5921350  66.4359880
  58.3268220 109.1843180  67.1855290  59.3279710 108.4847310  66.2910140
  61.0253890 108.2491410  66.0752170  61.6394300 108.5670700  65.4133250
  61.5703450 107.7640000  66.6948030  65.1268520 124.7906460  60.7600750
  64.6671490 125.5422270  60.3858770  64.4980980 124.0712930  60.7015550
  51.9519140 120.8849700  63.1499470  51.2253200 120.2654990  63.0825420
  52.0128290 121.2790310  62.2797550  58.2959740 123.9903190  60.7617860
  58.5837550 123.7357490  59.8850870  58.8082960 123.4380550  61.3523430
  57.3990970 110.1480140  56.8530400  56.5865480 109.7737030  56.5126280
  57.9032610 109.3925220  57.1551590  65.0450550 107.2144150  53.3653750
  65.2401180 108.1127600  53.6321180  64.2580420 106.9831230  53.8586700
  62.1511170 106.9917620  68.4708410  62.0376620 107.3112230  69.3659930
  62.9680910 107.3930130  68.1745690  64.9309660 124.1389150  67.9527100
  65.7234980 123.6438380  67.7453060  65.2242810 124.8179290  68.5602710
  59.1887360 116.7889110  40.7152420  58.4129460 116.3089550  41.0050990
  59.8400290 116.1094760  40.5408580  51.6145140 112.0610810  35.3770570
  50.7261840 112.4026780  35.2750450  51.8986330 111.8611130  34.4851400
  59.4358100 123.4807310  39.1155540  58.8169540 123.9364810  38.5449980
  60.2909880 123.6358770  38.7145240  53.7906530 110.6442310  36.4108950
  53.8973280 111.5446040  36.7177710  52.8798890 110.5960280  36.1203600
  51.4389690 112.5661320  41.6561540  52.1199800 112.8299690  42.2748940
  51.1237740 111.7262190  41.9899550  55.6314260 113.6128680  40.7434130
  56.1392480 114.1109650  41.3839150  56.1627500 112.8363880  40.5673490
  53.9150360 108.2527240  45.0097550  53.9168800 108.7699630  44.2043450
  53.0854670 107.7757420  44.9867480  60.3021450 118.3646550  36.5087450
  59.6838720 118.8296000  35.9450170  60.8144700 119.0574030  36.9256960
  53.5965690 109.9637200  43.0168000  53.9382500 110.8079250  42.7221870
  52.6581500 110.1120940  43.1333340  49.6704650 119.0503080  33.8827080
  49.2932630 119.5390180  33.1511980  49.9277720 119.7228360  34.5133610
  57.2793580 107.4519470  39.3412590  57.5868560 106.8966360  38.6248090
  56.3494280 107.5863930  39.1585580  64.1254060 119.8902980  36.7210220
  64.0150390 118.9477310  36.8459640  64.1222310 120.2518620  37.6072980
  59.6543420 111.7885300  33.0739870  58.7147090 111.9499260  33.1592330
  59.9726680 112.5070980  32.5275860  53.9859600 112.8176250  42.6391480
  54.5374190 112.9271590  41.8644730  54.5003110 113.1913850  43.3546710
  54.8331110 119.4682290  47.6739450  53.9359640 119.6922260  47.9212850
  54.8583980 119.5917230  46.7250850  61.8736330 116.3175410  33.5880710
  62.3129610 115.4797840  33.4418530  62.5864750 116.9504810  33.6744850
  53.6602330 116.3395610  46.2496820  53.5210100 117.2118410  46.6184220
  52.7783690 115.9968420  46.1044760  59.9831710 121.2571480  37.5561950
  60.4227620 121.9995810  37.1417340  59.9218600 121.4998050  38.4800910
  55.4582680 122.2817310  48.4581970  55.4298110 122.6860260  47.5910400
  55.2947650 121.3527670  48.2953570  65.4553470 107.5718220  31.9021750
  65.1426130 107.6645050  32.8020820  66.2165940 108.1499250  31.8519180
  66.8130750 120.2557260  46.9146150  66.9393810 120.0169140  45.9963330
  66.8552130 119.4241800  47.3868230  62.6501890 124.2440600  34.9124960
  62.4903030 123.9543540  35.8106790  62.4848600 123.4680730  34.3770190
  55.1290270 124.0239130  36.6896580  54.9532750 123.1074670  36.4764380
  54.2746010 124.3826420  36.9294380  62.3528020 121.7528160  33.4722960
  61.6593180 121.7505450  32.8125240  63.0950880 121.3287480  33.0417130
  61.9177950 123.3790870  37.5471450  62.3734900 122.5980250  37.8610070
  62.2570470 124.0897690  38.0912630  49.6680500 119.1507330  44.7062190
  49.8311540 118.6812690  43.8881560  50.1332950 118.6430890  45.3711030
  58.7269080 111.1481610  45.3458080  58.2648450 111.3564630  46.1578020
  58.3247190 110.3340960  45.0428750  60.8223300 113.8692310  48.5753530
  61.1476710 113.0356060  48.2355760  61.6103630 114.3920830  48.7231860
  57.5558090 107.9023790  34.6228590  56.9312270 107.8983660  35.3481900
  57.4688210 107.0354750  34.2264560  56.4775170 108.8260420  41.6012360
  56.7747500 109.7323250  41.5204380  57.0260730 108.3379200  40.9871930
  54.2313490 113.4046660  37.4704010  54.0054410 113.1883830  38.3750630
  53.4506020 113.8375120  37.1249980  56.6712700 114.3032240  48.1364280
  56.5756300 113.3626970  47.9864680  57.5144680 114.5247310  47.7412350
  51.8023240 110.7145910  46.2898060  51.4086630 111.5621120  46.4970840
  51.1141640 110.0772280  46.4806700  49.2910520 112.5794490  31.5330860
  49.2085190 113.5225250  31.6745850  48.9393580 112.4369400  30.6543210
  57.0908650 111.3133520  40.6001210  57.0944710 110.8723470  39.7505750
  57.9859770 111.6350850  40.7073030  57.1528800 112.3145600  33.5907970
  57.2741620 112.2732080  34.5393790  56.7677310 113.1769750  33.4354700
  56.1650300 114.6246740  32.9891270  55.5967200 114.1764990  32.3627180
  56.8739300 114.9839520  32.4556420  51.2419480 118.5258760  46.8658000
  50.8574270 117.8852430  47.4640960  51.5531670 119.2294880  47.4352730
  57.3916620 115.3735300  42.3466620  57.7586750 114.8993870  43.0927960
  57.2021680 116.2476870  42.6874960  55.1815990 114.4143940  44.6650830
  54.8773060 115.2935920  44.8901190  56.1362450 114.4743730  44.7008270
  53.7097780 118.6204930  35.2617680  52.9360040 118.0802550  35.1016400
  54.4392410 118.1011540  34.9235440  59.9295700 109.0108250  35.1973460
  59.1160310 108.5121420  35.1218770  59.7357650 109.8506500  34.7809810
  59.8504560 117.6879350  46.9413070  59.7841870 116.7675020  46.6870660
  59.2209700 117.7854790  47.6557710  58.6404680 119.5551590  34.1723790
  58.9820380 120.2993820  33.6767110  57.8117390 119.8682710  34.5348620
  51.2379720 115.2546680  45.8122190  50.8794660 115.9200530  46.3995530
  50.9434280 114.4230230  46.1834810  54.4392840 115.7130920  48.6961740
  54.1392980 115.8588100  47.7989560  55.2104080 115.1536210  48.6035130
  65.9445610 121.5482000  35.6897610  65.3021770 120.8937620  35.9641330
  65.5576270 121.9537090  34.9138280  57.6095370 119.6365120  36.9439710
  58.2966500 120.1834330  37.3247300  56.8227790 120.1805850  36.9789320
  49.7487770 115.2537940  32.4356790  50.6182620 115.5362740  32.7192710
  49.2578090 116.0673810  32.3205600  56.9122580 116.6411150  36.5565070
  57.3685360 117.4516400  36.7825260  56.5610790 116.3234290  37.3883560
  64.3342990 120.4398460  32.2273960  64.1080570 119.7228900  32.8198600
  63.9439190 120.1910900  31.3895710  62.2624890 120.9544740  45.7070880
  62.5981130 121.5411430  46.3848800  61.3425230 120.8237450  45.9368670
  50.1159020 124.4665320  33.0018420  50.4756660 125.0654660  32.3475690
  49.9751360 125.0125210  33.7753450  49.8128290 108.7439920  46.4894290
  49.0986810 108.9436840  47.0946900  50.2323330 107.9679490  46.8609090
  50.1000880 122.7320180  47.4760820  50.2092000 121.7914920  47.3356210
  49.4481440 122.9974930  46.8274550  58.0913470 121.0036070  48.8758940
  57.7710340 120.2845310  49.4204630  57.4171830 121.6791140  48.9495000
  56.1327640 121.8496520  33.8192090  56.1237740 122.5826210  33.2036600
  55.2126000 121.6028100  33.9119050  51.7334280 117.0711410  34.5638850
  51.1262230 117.8110310  34.5734150  52.2083630 117.1610770  33.7377050
  64.6729100 110.1919170  35.0483300  64.0442260 110.2964840  34.3341530
  64.1781020 110.4115950  35.8377180  59.1187240 121.9124760  32.4817280
  59.2199220 121.7088750  31.5519260  58.2188980 121.6583040  32.6865060
  56.6413130 112.4705120  36.4641180  55.9329280 112.9391460  36.9054790
  56.9257610 111.8127130  37.0986370  58.2669060 113.8901820  44.4633710
  58.7654310 114.3647640  45.1285560  58.4092010 112.9665340  44.6703740
  57.7605350 124.4311080  37.1764950  58.0146850 124.3932470  36.2544320
  56.8117830 124.3044410  37.1693200  53.7439570 117.0322560  32.3127420
  54.5102840 116.9203920  32.8752850  53.8214260 116.3360530  31.6604190
  52.4386330 114.4647630  32.9960310  52.5189920 113.5175140  33.1077710
  53.3306080 114.7954510  33.1020970  56.3503350 123.7873330  31.9220420
  57.1431960 124.0762160  31.4702210  55.8307700 123.3565500  31.2432900
  61.0823950 119.9068960  49.2355840  60.4762110 119.9300560  48.4951590
  60.7778060 119.1752000  49.7723090  62.5124320 123.6349250  47.8465250
  63.4646070 123.5507270  47.7965490  62.3652540 124.2990960  48.5199040
  65.4033520 123.0143460  33.3457160  65.1175030 122.6008600  32.5311340
  65.2053070 123.9431170  33.2257680  49.9657130 116.2862550  48.2316480
  50.4696150 115.7069830  48.8032710  49.2264550 116.5702780  48.7692850
  56.8680750 119.0076740  31.7862770  56.7631390 118.3929090  32.5124150
  56.7004970 118.4842630  31.0025780  57.0195070 117.6933540  47.7652000
  56.2540740 118.2618540  47.6806670  57.2011030 117.4009750  46.8720230
  60.1083480 118.0696770  32.3904760  59.5593580 118.5166070  33.0347500
  60.7302740 117.5646020  32.9142430  64.1618420 119.4238870  48.3227020
  64.9027890 119.7614630  47.8194480  63.3991100 119.5930930  47.7696790
  51.9980210 114.4292140  49.1266550  52.0385550 114.1306010  50.0351780
  52.8525710 114.8299750  48.9674070  55.7758600 117.0287690  34.2870060
  56.1975020 116.8627560  35.1301450  55.9009440 116.2187920  33.7925200
  53.9386020 113.0084240  47.0941040  53.4082480 112.5175190  46.4664380
  54.6074090 113.4368440  46.5598970  58.2886240 116.0525300  31.5347160
  58.8091900 115.3374320  31.1688310  58.9354640 116.6911170  31.8347670
  62.8364080 117.4753700  46.8582230  63.2505100 117.6298780  47.7072650
  61.9015080 117.6008920  47.0208010  54.4258320 109.9746610  47.1738330
  54.3315190 109.3567360  46.4489200  53.8455710 110.7012900  46.9468240
  57.1919760 108.5319850  44.2065720  56.7437060 108.5544110  43.3611270
  56.5584960 108.1338870  44.8036020  57.5979310 117.4274180  44.8278160
  58.0167420 118.2706910  44.6554400  56.6787940 117.5646220  44.5984940
  59.9343210 115.1590360  46.2116000  60.0539420 114.5631500  46.9510840
  60.7937210 115.1960050  45.7917300  62.1505810 107.9129150  33.7615100
  62.4308100 107.0697050  34.1174520  61.3771540 108.1452260  34.2753850
  58.8534270 124.1336910  33.8248900  59.7485060 124.4721880  33.8467660
  58.8851900 123.4116320  33.1973180  52.4930430 119.5063960  32.0535900
  52.9305300 120.0493630  32.7093480  52.9778160 118.6810910  32.0632240
  54.3038150 120.6262000  37.1658130  54.0033690 120.5026970  38.0662040
  54.1975640 119.7670590  36.7573860  65.8328620 122.6640580  46.5315100
  65.2330610 122.7233140  45.7879020  65.9622520 121.7245560  46.6611950
  62.9781310 110.4685100  32.8245160  63.3966190 110.2816080  31.9841820
  62.6717370 109.6164150  33.1348090  51.0666800 116.0596380  43.1430010
  51.4339840 115.9723780  44.0226030  50.4977620 115.2962930  43.0436870
  50.6182800 112.9705470  47.0488430  49.7238850 112.9372230  47.3882140
  51.1580350 113.1692260  47.8139680  64.3058730 109.7537190  48.9340180
  65.1828910 109.7620590  49.3174180  64.3179570 109.0168030  48.3232530
  49.2428950 112.8842740  34.5452000  48.3393030 113.1472940  34.3703660
  49.7269570 113.1553910  33.7651960  67.5599400 109.3308950  31.5364430
  68.4848710 109.1990130  31.3282720  67.5375190 109.4101770  32.4900880
  67.6337890 110.1019610  34.1621140  66.8389390 110.0364730  34.6914050
  67.8381170 111.0370250  34.1506490  50.8754510 107.4009470  44.1396970
  50.5269330 107.8573290  44.9055150  50.5442210 106.5066600  44.2219400
  52.4818880 120.5729070  48.3050160  52.4388510 120.2021980  49.1864620
  52.6129890 121.5106640  48.4451980  67.4429070 124.1483040  44.7070520
  66.9487350 124.5451910  43.9897650  66.8342360 123.5232250  45.1007800
  59.5136750 107.7293390  42.5670880  58.7308540 108.2038890  42.8467640
  59.2199680 106.8248220  42.4584060  65.9296390 108.0631730  38.6228790
  65.8684790 107.1192950  38.4759810  66.7088420 108.1711820  39.1682250
  57.3990970 110.1480140  38.0786910  56.5865480 109.7737030  37.7382790
  57.9032610 109.3925220  38.3808100  65.0450550 107.2144150  34.5910260
  65.2401180 108.1127600  34.8577690  64.2580420 106.9831230  35.0843210
  51.8411840 122.8957320  35.0302880  51.3159460 123.2765350  34.3264840
  51.7656420 123.5208090  35.7512590  55.4240150 108.2980060  36.6831960
  54.7942890 107.5967370  36.8502090  54.8845290 109.0584190  36.4665120
  58.3632100 124.9119290  49.3542570  59.2899410 124.6763560  49.3978530
  58.3482530 125.7391290  48.8728600  66.5977160 124.4544860  36.3516820
  66.7729350 123.7682600  35.7077740  65.8998730 124.9791910  35.9593490
  54.4404810 124.8439700  33.9052130  55.1723630 124.5598980  33.3576020
  54.6998480 124.6052980  34.7951510  53.6019600 120.9604430  33.9098460
  52.9728480 121.4289530  34.4584290  53.7167430 120.1153650  34.3444650
  61.0569320 115.0110090  20.0599660  60.9763370 114.0964700  19.7891370
  60.6433740 115.5077160  19.3539370  59.1887360 116.7889110  21.9408930
  58.4129460 116.3089550  22.2307500  59.8400290 116.1094760  21.7665090
  53.2053190 117.1008920  22.8184690  52.3738070 116.8457630  23.2181200
  53.8134170 117.1719690  23.5542610  63.2094790 121.1949300  20.7208060
  62.7476320 120.4236540  21.0495230  64.0220340 121.2215370  21.2260510
  53.1854450 121.1349010  23.0142710  53.4882490 120.2446750  22.8352930
  53.9298040 121.6919230  22.7864960  51.6145140 112.0610810  16.6027080
  50.7261840 112.4026780  16.5006960  51.8986330 111.8611130  15.7107910
  49.5778150 114.6616460  22.4866780  50.1494260 113.8938660  22.4870420
  49.5779690 114.9605220  21.5773390  59.4358100 123.4807310  20.3412050
  58.8169540 123.9364810  19.7706490  60.2909880 123.6358770  19.9401750
  58.6296350 119.4646300  21.9479090  58.5604630 118.5236240  21.7868220
  59.3916210 119.5547710  22.5201660  50.8203020 110.0700820  24.2735710
  50.6405860 109.1726570  24.5538470  50.4183100 110.6172690  24.9482660
  59.6601520 112.2716680  22.1748020  60.0366340 111.3988560  22.0621690
  59.5621030 112.6075380  21.2838460  53.7906530 110.6442310  17.6365460
  53.8973280 111.5446040  17.9434220  52.8798890 110.5960280  17.3460110
  63.4425640 109.7667120  19.1076360  64.2635260 109.2763690  19.1501840
  63.4759720 110.3564780  19.8608200  51.4389690 112.5661320  22.8818050
  52.1199800 112.8299690  23.5005450  51.1237740 111.7262190  23.2156060
  55.6314260 113.6128680  21.9690640  56.1392480 114.1109650  22.6095660
  56.1627500 112.8363880  21.7930000  67.7325190 111.7833870  25.6719990
  67.0277360 112.1715580  25.1535100  67.9983110 112.4784160  26.2740920
  53.9150360 108.2527240  26.2354060  53.9168800 108.7699630  25.4299960
  53.0854670 107.7757420  26.2123990  60.3021450 118.3646550  17.7343960
  59.6838720 118.8296000  17.1706680  60.8144700 119.0574030  18.1513470
  55.1653210 117.8922420  24.4127560  54.8322590 118.5191340  25.0548630
  55.3419890 118.4184300  23.6329230  63.6787120 111.7067500  21.8803900
  62.9742690 111.9952390  22.4607010  64.0399280 112.5167610  21.5203460
  53.5965690 109.9637200  24.2424510  53.9382500 110.8079250  23.9478380
  52.6581500 110.1120940  24.3589850  54.3772310 119.8603220  26.2276740
  54.9946310 120.5354300  25.9461190  53.5165430 120.2691200  26.1364240
  49.6704650 119.0503080  15.1083590  49.2932630 119.5390180  14.3768490
  49.9277720 119.7228360  15.7390120  65.2949900 121.3242630  24.1431380
  64.6113420 121.9941740  24.1348050  65.8344190 121.5223280  23.3776240
  66.7474040 111.1522290  22.2713110  65.7998950 111.1861270  22.4028540
  67.0724030 111.9661240  22.6562470  57.2793580 107.4519470  20.5669100
  57.5868560 106.8966360  19.8504600  56.3494280 107.5863930  20.3842090
  62.8308640 123.1686760  22.8576560  62.8435800 122.7649050  21.9898820
  62.2783860 123.9434050  22.7537990  64.1254060 119.8902980  17.9466730
  64.0150390 118.9477310  18.0716150  64.1222310 120.2518620  18.8329490
  62.2294080 118.0716600  24.1859170  62.6462870 117.8576710  23.3512630
  62.9533900 118.3289390  24.7567790  59.6674340 115.5168300  17.3029220
  58.7403620 115.4505680  17.5317690  59.8199160 116.4548430  17.1884460
  59.6543420 111.7885300  14.2996380  58.7147090 111.9499260  14.3848840
  59.9726680 112.5070980  13.7532370  66.1756180 116.4703820  24.2775410
  65.3474810 116.5396910  23.8025540  66.7706660 117.0558130  23.8091240
  63.6971630 117.0788600  17.8064470  63.0784050 116.7408150  17.1590770
  63.6796080 116.4348360  18.5143660  55.2730980 116.0433040  20.0848950
  54.8687980 115.3310290  19.5894850  55.3594100 115.6986280  20.9736990
  55.7412680 119.7300600  22.2488160  55.4440970 119.1246070  21.5695940
  56.6912500 119.7677910  22.1377520  53.9859600 112.8176250  23.8647990
  54.5374190 112.9271590  23.0901240  54.5003110 113.1913850  24.5803220
  63.8298290 123.3032470  25.9111260  63.3528850 124.1104660  25.7183870
  63.1460080 122.6510800  26.0637470  54.8331110 119.4682290  28.8995960
  53.9359640 119.6922260  29.1469360  54.8583980 119.5917230  27.9507360
  61.8736330 116.3175410  14.8137220  62.3129610 115.4797840  14.6675040
  62.5864750 116.9504810  14.9001360  53.6602330 116.3395610  27.4753330
  53.5210100 117.2118410  27.8440730  52.7783690 115.9968420  27.3301270
  59.9831710 121.2571480  18.7818460  60.4227620 121.9995810  18.3673850
  59.9218600 121.4998050  19.7057420  55.4582680 122.2817310  29.6838480
  55.4298110 122.6860260  28.8166910  55.2947650 121.3527670  29.5210080
  65.4553470 107.5718220  13.1278260  65.1426130 107.6645050  14.0277330
  66.2165940 108.1499250  13.0775690  51.9735610 114.9378020  17.5855600
  51.8533210 115.6640110  16.9736870  51.6636500 114.1680930  17.1083510
  67.4097500 123.0644410  30.9802650  67.8857220 123.5427300  31.6591730
  68.0304660 122.9961900  30.2548150  49.6120980 118.1093160  23.3924240
  49.6901400 118.2441930  22.4479960  50.2262660 117.4009050  23.5852360
  50.8568610 119.8093350  19.8030420  50.4496690 119.9507940  18.9484020
  51.7481620 119.5253510  19.6001630  66.8130750 120.2557260  28.1402660
  66.9393810 120.0169140  27.2219840  66.8552130 119.4241800  28.6124740
  60.6747490 123.9585260  26.7097470  61.1892160 123.8693270  27.5119900
  59.8316570 124.3044960  27.0025380  62.6501890 124.2440600  16.1381470
  62.4903030 123.9543540  17.0363300  62.4848600 123.4680730  15.6026700
  55.1290270 124.0239130  17.9153090  54.9532750 123.1074670  17.7020890
  54.2746010 124.3826420  18.1550890  62.3528020 121.7528160  14.6979470
  61.6593180 121.7505450  14.0381750  63.0950880 121.3287480  14.2673640
  61.9177950 123.3790870  18.7727960  62.3734900 122.5980250  19.0866580
  62.2570470 124.0897690  19.3169140  49.6680500 119.1507330  25.9318700
  49.8311540 118.6812690  25.1138070  50.1332950 118.6430890  26.5967540
  54.4399270 108.2813090  20.9679270  53.9967420 109.0622630  20.6363790
  54.9984260 108.6042980  21.6750210  60.8223300 113.8692310  29.8010040
  61.1476710 113.0356060  29.4612270  61.6103630 114.3920830  29.9488370
  57.5558090 107.9023790  15.8485100  56.9312270 107.8983660  16.5738410
  57.4688210 107.0354750  15.4521070  56.4775170 108.8260420  22.8268870
  56.7747500 109.7323250  22.7460890  57.0260730 108.3379200  22.2128440
  54.2313490 113.4046660  18.6960520  54.0054410 113.1883830  19.6007140
  53.4506020 113.8375120  18.3506490  61.4611250 113.4110030  17.2951170
  60.8620140 114.1345830  17.1114790  62.0090860 113.3486810  16.5127620
  60.0676120 112.0473570  19.3254450  60.4605690 112.3645770  18.5123140
  60.4292970 111.1685450  19.4398970  49.1040290 108.6374370  21.5484650
  48.8153340 109.2077230  22.2609630  49.8486050 108.1578820  21.9115880
  49.2910520 112.5794490  12.7587370  49.2085190 113.5225250  12.9002360
  48.9393580 112.4369400  11.8799720  60.6531260 114.6379320  23.4205230
  59.9212380 115.1466130  23.7695330  60.2555600 113.8209300  23.1194010
  57.0908650 111.3133520  21.8257720  57.0944710 110.8723470  20.9762260
  57.9859770 111.6350850  21.9329540  52.9411030 111.1960010  20.7851930
  52.6011080 111.6735240  21.5418980  52.1788350 110.7425130  20.4253030
  57.1528800 112.3145600  14.8164480  57.2741620 112.2732080  15.7650300
  56.7677310 113.1769750  14.6611210  61.1157170 110.0913000  22.8328170
  61.1329910 110.5421650  23.6770020  60.8672750 109.1918640  23.0461610
  56.1650300 114.6246740  14.2147780  55.5967200 114.1764990  13.5883690
  56.8739300 114.9839520  13.6812930  51.2419480 118.5258760  28.0914510
  50.8574270 117.8852430  28.6897470  51.5531670 119.2294880  28.6609240
  57.3916620 115.3735300  23.5723130  57.7586750 114.8993870  24.3184470
  57.2021680 116.2476870  23.9131470  50.2557110 110.1178990  19.7016600
  49.9704030 109.7534660  20.5395220  50.1935970 109.3859450  19.0879740
  53.7097780 118.6204930  16.4874190  52.9360040 118.0802550  16.3272910
  54.4392410 118.1011540  16.1491950  64.4685760 117.6170290  22.2800580
  65.1884880 118.1125580  21.8896690  64.2667580 116.9388180  21.6354450
  59.9295700 109.0108250  16.4229970  59.1160310 108.5121420  16.3475280
  59.7357650 109.8506500  16.0066320  59.8504560 117.6879350  28.1669580
  59.7841870 116.7675020  27.9127170  59.2209700 117.7854790  28.8814220
  62.6444090 113.3827900  14.7192130  63.5323710 113.6945130  14.5443470
  62.6149180 112.5100150  14.3272710  53.7535180 118.2885310  20.1253000
  54.2713850 117.4853570  20.0709890  53.3019200 118.2264450  20.9669830
  58.6404680 119.5551590  15.3980300  58.9820380 120.2993820  14.9023620
  57.8117390 119.8682710  15.7605130  51.2379720 115.2546680  27.0378700
  50.8794660 115.9200530  27.6252040  50.9434280 114.4230230  27.4091320
  54.4392840 115.7130920  29.9218250  54.1392980 115.8588100  29.0246070
  55.2104080 115.1536210  29.8291640  59.7821290 120.5099920  27.9173380
  59.7965830 119.5780880  27.6992290  59.0746390 120.5959680  28.5563150
  64.9158360 114.6939740  14.1871990  64.8322080 115.1253960  13.3368430
  65.6352550 115.1538090  14.6198810  65.9445610 121.5482000  16.9154120
  65.3021770 120.8937620  17.1897840  65.5576270 121.9537090  16.1394790
  61.5232090 118.8767430  20.7625810  61.8755910 118.2795560  20.1027180
  60.6394420 118.5511660  20.9334060  57.6095370 119.6365120  18.1696220
  58.2966500 120.1834330  18.5503810  56.8227790 120.1805850  18.2045830
  49.7487770 115.2537940  13.6613300  50.6182620 115.5362740  13.9449220
  49.2578090 116.0673810  13.5462110  56.9122580 116.6411150  17.7821580
  57.3685360 117.4516400  18.0081770  56.5610790 116.3234290  18.6140070
  59.2155190 122.1517490  25.0113880  59.8597410 122.3576870  25.6887300
  59.5784630 121.3905890  24.5584730  52.8134360 106.9848800  18.2544100
  52.6848990 106.9766700  19.2029020  51.9896380 107.3231890  17.9035110
  60.4887270 120.1549840  23.7291330  61.1309500 119.4543000  23.8423500
  61.0136620 120.9348280  23.5488220  64.3342990 120.4398460  13.4530470
  64.1080570 119.7228900  14.0455110  63.9439190 120.1910900  12.6152220
  62.2624890 120.9544740  26.9327390  62.5981130 121.5411430  27.6105310
  61.3425230 120.8237450  27.1625180  50.1159020 124.4665320  14.2274930
  50.4756660 125.0654660  13.5732200  49.9751360 125.0125210  15.0009960
  49.8128290 108.7439920  27.7150800  49.0986810 108.9436840  28.3203410
  50.2323330 107.9679490  28.0865600  63.9159240 118.3570400  15.1144630
  63.6280940 118.8183090  15.9022510  64.7111410 117.8968170  15.3828850
  50.1000880 122.7320180  28.7017330  50.2092000 121.7914920  28.5612720
  49.4481440 122.9974930  28.0531060  58.0913470 121.0036070  30.1015450
  57.7710340 120.2845310  30.6461140  57.4171830 121.6791140  30.1751510
  56.1327640 121.8496520  15.0448600  56.1237740 122.5826210  14.4293110
  55.2126000 121.6028100  15.1375560  51.7334280 117.0711410  15.7895360
  51.1262230 117.8110310  15.7990660  52.2083630 117.1610770  14.9633560
  61.3067070 111.2362230  25.4652250  61.6747890 110.4157440  25.7931820
  60.4465270 111.2964120  25.8807900  64.6729100 110.1919170  16.2739810
  64.0442260 110.2964840  15.5598040  64.1781020 110.4115950  17.0633690
  59.1187240 121.9124760  13.7073790  59.2199220 121.7088750  12.7775770
  58.2188980 121.6583040  13.9121570  56.6413130 112.4705120  17.6897690
  55.9329280 112.9391460  18.1311300  56.9257610 111.8127130  18.3242880
  60.6728560 109.1955780  19.1293480  60.5496340 109.2141910  18.1802990
  61.6213120 109.2434720  19.2491880  57.7605350 124.4311080  18.4021460
  58.0146850 124.3932470  17.4800830  56.8117830 124.3044410  18.3949710
  54.8448150 110.7790200  15.0648400  55.6938680 111.2160350  14.9988590
  54.4779420 111.0910460  15.8920460  63.7657930 115.3502960  19.9779970
  62.8248070 115.3653190  20.1527660  64.0802000 114.5638920  20.4240270
  53.7439570 117.0322560  13.5383930  54.5102840 116.9203920  14.1009360
  53.8214260 116.3360530  12.8860700  52.4386330 114.4647630  14.2216820
  52.5189920 113.5175140  14.3334220  53.3306080 114.7954510  14.3277480
  65.7683510 122.5211810  21.6534230  65.8930930 123.3442980  22.1258040
  66.6349070 122.3102540  21.3058380  53.2401040 124.6143020  21.3251360
  53.9763520 124.0658480  21.5959930  53.6241960 125.4799030  21.1857350
  50.1246520 120.6816590  17.1992870  49.1986300 120.9237730  17.1898280
  50.5902950 121.5090850  17.0777620  52.2459320 123.7989090  30.5136940
  53.0472050 124.1201140  30.9272340  51.7311140 123.4384670  31.2356850
  56.3503350 123.7873330  13.1476930  57.1431960 124.0762160  12.6958720
  55.8307700 123.3565500  12.4689410  61.0823950 119.9068960  30.4612350
  60.4762110 119.9300560  29.7208100  60.7778060 119.1752000  30.9979600
  62.5124320 123.6349250  29.0721760  63.4646070 123.5507270  29.0222000
  62.3652540 124.2990960  29.7455550  65.4033520 123.0143460  14.5713670
  65.1175030 122.6008600  13.7567850  65.2053070 123.9431170  14.4514190
  49.9657130 116.2862550  29.4572990  50.4696150 115.7069830  30.0289220
  49.2264550 116.5702780  29.9949360  56.8680750 119.0076740  13.0119280
  56.7631390 118.3929090  13.7380660  56.7004970 118.4842630  12.2282290
  57.0195070 117.6933540  28.9908510  56.2540740 118.2618540  28.9063180
  57.2011030 117.4009750  28.0976740  60.1083480 118.0696770  13.6161270
  59.5593580 118.5166070  14.2604010  60.7302740 117.5646020  14.1398940
  51.9980210 114.4292140  30.3523060  52.0385550 114.1306010  31.2608290
  52.8525710 114.8299750  30.1930580  55.7758600 117.0287690  15.5126570
  56.1975020 116.8627560  16.3557960  55.9009440 116.2187920  15.0181710
  58.2886240 116.0525300  12.7603670  58.8091900 115.3374320  12.3944820
  58.9354640 116.6911170  13.0604180  57.5979310 117.4274180  26.0534670
  58.0167420 118.2706910  25.8810910  56.6787940 117.5646220  25.8241450
  59.9343210 115.1590360  27.4372510  60.0539420 114.5631500  28.1767350
  60.7937210 115.1960050  27.0173810  54.6717500 113.1020920  12.4584730
  54.4706560 112.2388280  12.8198070  54.5009550 113.0154280  11.5206330
  55.4486730 123.7327190  27.1692400  54.9107820 124.4573250  26.8501100
  55.7020690 123.2557530  26.3789740  61.5205410 111.3177520  28.9281350
  60.8320930 110.6559060  28.8631340  62.2411430 110.8715790  29.3729810
  62.1505810 107.9129150  14.9871610  62.4308100 107.0697050  15.3431030
  61.3771540 108.1452260  15.5010360  53.4700300 110.2021540  12.4462610
  53.7726200 110.2088970  11.5381760  54.2094890 109.8519400  12.9430270
  58.3048940 124.9678400  27.4279050  58.2307640 125.8713540  27.7351420
  57.4027780 124.6490300  27.4001120  56.6885230 109.1456160  13.4318810
  56.3407230 108.4680150  12.8521260  56.8898000 108.6845670  14.2462200
  58.8534270 124.1336910  15.0505410  59.7485060 124.4721880  15.0724170
  58.8851900 123.4116320  14.4229690  52.4930430 119.5063960  13.2792410
  52.9305300 120.0493630  13.9349990  52.9778160 118.6810910  13.2888750
  49.7076230 122.2952990  20.7312670  50.0379240 121.4274050  20.4991310
  50.1367230 122.5011510  21.5617630  54.3038150 120.6262000  18.3914640
  54.0033690 120.5026970  19.2918550  54.1975640 119.7670590  17.9830370
  50.1966440 123.1623580  23.4694300  49.7597430 123.3424380  24.3018450
  50.7644120 123.9198200  23.3276020  65.8328620 122.6640580  27.7571610
  65.2330610 122.7233140  27.0135530  65.9622520 121.7245560  27.8868460
  67.0730070 120.4058400  13.0941320  66.2423030 120.4735050  13.5648550
  67.2501900 121.2962520  12.7908180  66.5286530 117.1505880  15.5975520
  67.2905440 117.7202530  15.7035210  66.5440900 116.5833080  16.3683830
  50.0290870 115.6743810  19.8283180  49.3739710 115.4055450  19.1842880
  50.8668820 115.5648290  19.3785160  67.5346500 118.0055980  20.4417450
  67.9055330 117.2223300  20.0353420  68.1748430 118.6945080  20.2634750
  64.5180260 119.3892560  25.8547770  63.7040100 119.8189720  26.1173560
  64.9254460 120.0010970  25.2416820  66.5805700 117.4440250  12.7548040
  66.8554540 118.3519130  12.6267260  66.3916440 117.3802780  13.6910030
  62.9781310 110.4685100  14.0501670  63.3966190 110.2816080  13.2098330
  62.6717370 109.6164150  14.3604600  66.4771040 115.3809240  17.7477470
  66.1014640 114.6137170  17.3158760  65.7474160 115.7631940  18.2352400
  51.0666800 116.0596380  24.3686520  51.4339840 115.9723780  25.2482540
  50.4977620 115.2962930  24.2693380  50.6182800 112.9705470  28.2744940
  49.7238850 112.9372230  28.6138650  51.1580350 113.1692260  29.0396190
  64.3058730 109.7537190  30.1596690  65.1828910 109.7620590  30.5430690
  64.3179570 109.0168030  29.5489040  49.2428950 112.8842740  15.7708510
  48.3393030 113.1472940  15.5960170  49.7269570 113.1553910  14.9908470
  65.7522000 113.6066730  21.0484710  66.2759480 113.1129380  20.4174880
  66.3381420 113.7417090  21.7932280  65.9311720 113.6906600  24.5704260
  64.9814430 113.6570140  24.6849250  66.1124730 114.6006710  24.3354030
  51.7856160 111.9408280  13.6802890  52.4947860 111.5191500  13.1950170
  51.0696100 112.0083510  13.0486240  51.4330320 107.9947610  12.7205540
  52.1558450 108.5356550  13.0386760  51.7054840 107.7211030  11.8447080
  65.2421970 112.8640080  16.9877120  65.7381090 112.6310950  17.7726000
  65.0438040 112.0251920  16.5714760  51.1222510 107.2453800  22.6228160
  51.7698700 106.6951180  22.1823320  51.5424350 107.4996950  23.4443970
  66.6709130 111.5001030  19.5214800  66.5608410 111.3457070  20.4597070
  67.4316720 110.9721970  19.2790210  67.5599400 109.3308950  12.7620940
  68.4848710 109.1990130  12.5539230  67.5375190 109.4101770  13.7157390
  67.6337890 110.1019610  15.3877650  66.8389390 110.0364730  15.9170560
  67.8381170 111.0370250  15.3763000  64.5756310 124.1411160  19.3816040
  65.1715380 123.8195730  18.7050460  64.8334460 123.6682980  20.1729310
  50.8754510 107.4009470  25.3653480  50.5269330 107.8573290  26.1311660
  50.5442210 106.5066600  25.4475910  52.4818880 120.5729070  29.5306670
  52.4388510 120.2021980  30.4121130  52.6129890 121.5106640  29.6708490
  56.1824910 122.1288660  25.1316390  55.9416270 122.3963220  24.2446910
  57.1227550 122.2994390  25.1867250  61.0253890 108.2491410  28.5265190
  61.6394300 108.5670700  27.8646270  61.5703450 107.7640000  29.1461050
  67.4429070 124.1483040  25.9327030  66.9487350 124.5451910  25.2154160
  66.8342360 123.5232250  26.3264310  51.5475150 106.9285670  28.6404250
  52.0958140 106.7473720  27.8770360  51.6130460 106.1379780  29.1760560
  52.3206910 123.5191320  26.6504450  51.7267230 123.3876020  27.3894490
  52.3130750 122.6829460  26.1846550  65.1268520 124.7906460  23.2113770
  64.6671490 125.5422270  22.8371790  64.4980980 124.0712930  23.1528570
  51.9519140 120.8849700  25.6012490  51.2253200 120.2654990  25.5338440
  52.0128290 121.2790310  24.7310570  55.5564240 123.0994700  22.3861900
  56.0729260 122.4882060  21.8610160  56.2061620 123.6023480  22.8772910
  58.2959740 123.9903190  23.2130880  58.5837550 123.7357490  22.3363890
  58.8082960 123.4380550  23.8036450  59.5136750 107.7293390  23.7927390
  58.7308540 108.2038890  24.0724150  59.2199680 106.8248220  23.6840570
  64.0657820 108.4316490  21.8376480  64.5065910 108.3761590  20.9898080
  63.7965410 109.3474500  21.9086660  65.9296390 108.0631730  19.8485300
  65.8684790 107.1192950  19.7016320  66.7088420 108.1711820  20.3938760
  50.2349140 124.2024090  18.8109250  50.0671180 123.5694770  19.5091140
  49.3683650 124.4083490  18.4603440  50.8577160 108.0340870  16.3141110
  51.6156520 108.1469750  15.7405140  50.3954330 108.8710070  16.2684540
  57.3990970 110.1480140  19.3043420  56.5865480 109.7737030  18.9639300
  57.9032610 109.3925220  19.6064610  61.9015950 106.8122590  20.5426490
  62.5045320 107.3842800  21.0175010  61.1608940 107.3762030  20.3200390
  65.0450550 107.2144150  15.8166770  65.2401180 108.1127600  16.0834200
  64.2580420 106.9831230  16.3099720  51.8411840 122.8957320  16.2559390
  51.3159460 123.2765350  15.5521350  51.7656420 123.5208090  16.9769100
  53.2302310 108.5604920  14.8543080  53.7595070 107.7734720  14.7251030
  53.8630630 109.2396110  15.0878610  55.4240150 108.2980060  17.9088470
  54.7942890 107.5967370  18.0758600  54.8845290 109.0584190  17.6921630
  58.3632100 124.9119290  30.5799080  59.2899410 124.6763560  30.6235040
  58.3482530 125.7391290  30.0985110  66.5977160 124.4544860  17.5773330
  66.7729350 123.7682600  16.9334250  65.8998730 124.9791910  17.1850000
  54.4404810 124.8439700  15.1308640  55.1723630 124.5598980  14.5832530
  54.6998480 124.6052980  16.0208020  53.6019600 120.9604430  15.1354970
  52.9728480 121.4289530  15.6840800  53.7167430 120.1153650  15.5701160
  62.1511170 106.9917620  30.9221430  62.0376620 107.3112230  31.8172950
  62.9680910 107.3930130  30.6258710  64.9309660 124.1389150  30.4040120
  65.7234980 123.6438380  30.1966080  65.2242810 124.8179290  31.0115730
  59.1887360 116.7889110   3.1665440  58.4129460 116.3089550   3.4564010
  59.8400290 116.1094760   2.9921600  53.2053190 117.1008920   4.0441200
  52.3738070 116.8457630   4.4437710  53.8134170 117.1719690   4.7799120
  63.2094790 121.1949300   1.9464570  62.7476320 120.4236540   2.2751740
  64.0220340 121.2215370   2.4517020  53.1854450 121.1349010   4.2399220
  53.4882490 120.2446750   4.0609440  53.9298040 121.6919230   4.0121470
  49.5778150 114.6616460   3.7123290  50.1494260 113.8938660   3.7126930
  49.5779690 114.9605220   2.8029900  58.6296350 119.4646300   3.1735600
  58.5604630 118.5236240   3.0124730  59.3916210 119.5547710   3.7458170
  50.8203020 110.0700820   5.4992220  50.6405860 109.1726570   5.7794980
  50.4183100 110.6172690   6.1739170  59.6601520 112.2716680   3.4004530
  60.0366340 111.3988560   3.2878200  59.5621030 112.6075380   2.5094970
  51.4389690 112.5661320   4.1074560  52.1199800 112.8299690   4.7261960
  51.1237740 111.7262190   4.4412570  55.6314260 113.6128680   3.1947150
  56.1392480 114.1109650   3.8352170  56.1627500 112.8363880   3.0186510
  67.7325190 111.7833870   6.8976500  67.0277360 112.1715580   6.3791610
  67.9983110 112.4784160   7.4997430  53.9150360 108.2527240   7.4610570
  53.9168800 108.7699630   6.6556470  53.0854670 107.7757420   7.4380500
  55.1653210 117.8922420   5.6384070  54.8322590 118.5191340   6.2805140
  55.3419890 118.4184300   4.8585740  63.6787120 111.7067500   3.1060410
  62.9742690 111.9952390   3.6863520  64.0399280 112.5167610   2.7459970
  53.5965690 109.9637200   5.4681020  53.9382500 110.8079250   5.1734890
  52.6581500 110.1120940   5.5846360  54.3772310 119.8603220   7.4533250
  54.9946310 120.5354300   7.1717700  53.5165430 120.2691200   7.3620750
  65.2949900 121.3242630   5.3687890  64.6113420 121.9941740   5.3604560
  65.8344190 121.5223280   4.6032750  66.7474040 111.1522290   3.4969620
  65.7998950 111.1861270   3.6285050  67.0724030 111.9661240   3.8818980
  62.8308640 123.1686760   4.0833070  62.8435800 122.7649050   3.2155330
  62.2783860 123.9434050   3.9794500  62.2294080 118.0716600   5.4115680
  62.6462870 117.8576710   4.5769140  62.9533900 118.3289390   5.9824300
  66.1756180 116.4703820   5.5031920  65.3474810 116.5396910   5.0282050
  66.7706660 117.0558130   5.0347750  63.1398190 113.2573140   6.4486790
  62.7269370 114.0826850   6.7026780  62.4074140 112.6718180   6.2563150
  55.7412680 119.7300600   3.4744670  55.4440970 119.1246070   2.7952450
  56.6912500 119.7677910   3.3634030  53.9859600 112.8176250   5.0904500
  54.5374190 112.9271590   4.3157750  54.5003110 113.1913850   5.8059730
  63.8298290 123.3032470   7.1367770  63.3528850 124.1104660   6.9440380
  63.1460080 122.6510800   7.2893980  54.8331110 119.4682290  10.1252470
  53.9359640 119.6922260  10.3725870  54.8583980 119.5917230   9.1763870
  53.6602330 116.3395610   8.7009840  53.5210100 117.2118410   9.0697240
  52.7783690 115.9968420   8.5557780  55.4582680 122.2817310  10.9094990
  55.4298110 122.6860260  10.0423420  55.2947650 121.3527670  10.7466590
  67.4097500 123.0644410  12.2059160  67.8857220 123.5427300  12.8848240
  68.0304660 122.9961900  11.4804660  49.6120980 118.1093160   4.6180750
  49.6901400 118.2441930   3.6736470  50.2262660 117.4009050   4.8108870
  66.8130750 120.2557260   9.3659170  66.9393810 120.0169140   8.4476350
  66.8552130 119.4241800   9.8381250  60.6747490 123.9585260   7.9353980
  61.1892160 123.8693270   8.7376410  59.8316570 124.3044960   8.2281890
  66.6654760 112.3089720  10.3308910  66.0499030 112.8169390   9.8024370
  66.3451180 111.4088050  10.2734850  49.6680500 119.1507330   7.1575210
  49.8311540 118.6812690   6.3394580  50.1332950 118.6430890   7.8224050
  54.4399270 108.2813090   2.1935780  53.9967420 109.0622630   1.8620300
  54.9984260 108.6042980   2.9006720  58.7269080 111.1481610   7.7971100
  58.2648450 111.3564630   8.6091040  58.3247190 110.3340960   7.4941770
  63.7273590 112.3690560   8.9267760  62.8767180 112.0696310   9.2476830
  63.5675380 112.6132570   8.0151580  60.8223300 113.8692310  11.0266550
  61.1476710 113.0356060  10.6868780  61.6103630 114.3920830  11.1744880
  56.4775170 108.8260420   4.0525380  56.7747500 109.7323250   3.9717400
  57.0260730 108.3379200   3.4384950  56.6712700 114.3032240  10.5877300
  56.5756300 113.3626970  10.4377700  57.5144680 114.5247310  10.1925370
  51.8023240 110.7145910   8.7411080  51.4086630 111.5621120   8.9483860
  51.1141640 110.0772280   8.9319720  58.3768290 110.7980880  11.8107820
  57.6866610 110.6053080  12.4453910  59.1200590 111.0815520  12.3432120
  49.1040290 108.6374370   2.7741160  48.8153340 109.2077230   3.4866140
  49.8486050 108.1578820   3.1372390  60.6531260 114.6379320   4.6461740
  59.9212380 115.1466130   4.9951840  60.2555600 113.8209300   4.3450520
  57.0908650 111.3133520   3.0514230  57.0944710 110.8723470   2.2018770
  57.9859770 111.6350850   3.1586050  52.9411030 111.1960010   2.0108440
  52.6011080 111.6735240   2.7675490  52.1788350 110.7425130   1.6509540
  61.1157170 110.0913000   4.0584680  61.1329910 110.5421650   4.9026530
  60.8672750 109.1918640   4.2718120  64.5427920 107.5045180   9.8971060
  64.8673690 106.7734840  10.4229040  64.5784430 107.1858820   8.9952050
  51.2419480 118.5258760   9.3171020  50.8574270 117.8852430   9.9153980
  51.5531670 119.2294880   9.8865750  57.3916620 115.3735300   4.7979640
  57.7586750 114.8993870   5.5440980  57.2021680 116.2476870   5.1387980
  55.1815990 114.4143940   7.1163850  54.8773060 115.2935920   7.3414210
  56.1362450 114.4743730   7.1521290  64.4685760 117.6170290   3.5057090
  65.1884880 118.1125580   3.1153200  64.2667580 116.9388180   2.8610960
  59.8504560 117.6879350   9.3926090  59.7841870 116.7675020   9.1383680
  59.2209700 117.7854790  10.1070730  51.2379720 115.2546680   8.2635210
  50.8794660 115.9200530   8.8508550  50.9434280 114.4230230   8.6347830
  54.4392840 115.7130920  11.1474760  54.1392980 115.8588100  10.2502580
  55.2104080 115.1536210  11.0548150  59.7821290 120.5099920   9.1429890
  59.7965830 119.5780880   8.9248800  59.0746390 120.5959680   9.7819660
  65.9932500 117.1507260   8.4898470  65.2680690 117.7436040   8.2927860
  66.5207960 117.1430800   7.6911840  59.2155190 122.1517490   6.2370390
  59.8597410 122.3576870   6.9143810  59.5784630 121.3905890   5.7841240
  60.4887270 120.1549840   4.9547840  61.1309500 119.4543000   5.0680010
  61.0136620 120.9348280   4.7744730  62.2624890 120.9544740   8.1583900
  62.5981130 121.5411430   8.8361820  61.3425230 120.8237450   8.3881690
  49.8128290 108.7439920   8.9407310  49.0986810 108.9436840   9.5459920
  50.2323330 107.9679490   9.3122110  50.1000880 122.7320180   9.9273840
  50.2092000 121.7914920   9.7869230  49.4481440 122.9974930   9.2787570
  58.0913470 121.0036070  11.3271960  57.7710340 120.2845310  11.8717650
  57.4171830 121.6791140  11.4008020  61.3067070 111.2362230   6.6908760
  61.6747890 110.4157440   7.0188330  60.4465270 111.2964120   7.1064410
  58.2669060 113.8901820   6.9146730  58.7654310 114.3647640   7.5798580
  58.4092010 112.9665340   7.1216760  65.4735920 110.1069780   7.7575120
  64.9709520 110.8475180   8.0968930  66.2892580 110.4953780   7.4411910
  65.7683510 122.5211810   2.8790740  65.8930930 123.3442980   3.3514550
  66.6349070 122.3102540   2.5314890  53.2401040 124.6143020   2.5507870
  53.9763520 124.0658480   2.8216440  53.6241960 125.4799030   2.4113860
  52.2459320 123.7989090  11.7393450  53.0472050 124.1201140  12.1528850
  51.7311140 123.4384670  12.4613360  61.0823950 119.9068960  11.6868860
  60.4762110 119.9300560  10.9464610  60.7778060 119.1752000  12.2236110
  62.5124320 123.6349250  10.2978270  63.4646070 123.5507270  10.2478510
  62.3652540 124.2990960  10.9712060  49.9657130 116.2862550  10.6829500
  50.4696150 115.7069830  11.2545730  49.2264550 116.5702780  11.2205870
  57.0195070 117.6933540  10.2165020  56.2540740 118.2618540  10.1319690
  57.2011030 117.4009750   9.3233250  64.1618420 119.4238870  10.7740040
  64.9027890 119.7614630  10.2707500  63.3991100 119.5930930  10.2209810
  51.9980210 114.4292140  11.5779570  52.0385550 114.1306010  12.4864800
  52.8525710 114.8299750  11.4187090  53.9386020 113.0084240   9.5454060
  53.4082480 112.5175190   8.9177400  54.6074090 113.4368440   9.0111990
  62.8364080 117.4753700   9.3095250  63.2505100 117.6298780  10.1585670
  61.9015080 117.6008920   9.4721030  63.3086250 114.8149860  11.3134400
  63.8907020 114.0602180  11.2254880  63.4848020 115.3457300  10.5365880
  54.4258320 109.9746610   9.6251350  54.3315190 109.3567360   8.9002220
  53.8455710 110.7012900   9.3981260  57.1919760 108.5319850   6.6578740
  56.7437060 108.5544110   5.8124290  56.5584960 108.1338870   7.2549040
  57.5979310 117.4274180   7.2791180  58.0167420 118.2706910   7.1067420
  56.6787940 117.5646220   7.0497960  59.9343210 115.1590360   8.6629020
  60.0539420 114.5631500   9.4023860  60.7937210 115.1960050   8.2430320
  62.2731110 115.7127550   7.2391530  61.7466330 116.2370170   6.6356670
  62.6162450 116.3454940   7.8701260  55.4486730 123.7327190   8.3948910
  54.9107820 124.4573250   8.0757610  55.7020690 123.2557530   7.6046250
  56.7011980 111.7011710   9.9204840  57.2911670 111.3927560  10.6082660
  55.8832220 111.2291460  10.0764740  61.5205410 111.3177520  10.1537860
  60.8320930 110.6559060  10.0887850  62.2411430 110.8715790  10.5986320
  58.3048940 124.9678400   8.6535560  58.2307640 125.8713540   8.9607930
  57.4027780 124.6490300   8.6257630  49.7076230 122.2952990   1.9569180
  50.0379240 121.4274050   1.7247820  50.1367230 122.5011510   2.7874140
  50.1966440 123.1623580   4.6950810  49.7597430 123.3424380   5.5274960
  50.7644120 123.9198200   4.5532530  65.8328620 122.6640580   8.9828120
  65.2330610 122.7233140   8.2392040  65.9622520 121.7245560   9.1124970
  64.5180260 119.3892560   7.0804280  63.7040100 119.8189720   7.3430070
  64.9254460 120.0010970   6.4673330  51.0666800 116.0596380   5.5943030
  51.4339840 115.9723780   6.4739050  50.4977620 115.2962930   5.4949890
  65.8670660 114.5280760   8.6073500  65.6356750 114.2993510   7.7071450
  66.1275210 115.4480310   8.5618390  50.6182800 112.9705470   9.5001450
  49.7238850 112.9372230   9.8395160  51.1580350 113.1692260  10.2652700
  64.3058730 109.7537190  11.3853200  65.1828910 109.7620590  11.7687200
  64.3179570 109.0168030  10.7745550  65.7522000 113.6066730   2.2741220
  66.2759480 113.1129380   1.6431390  66.3381420 113.7417090   3.0188790
  65.9311720 113.6906600   5.7960770  64.9814430 113.6570140   5.9105760
  66.1124730 114.6006710   5.5610540  51.1222510 107.2453800   3.8484670
  51.7698700 106.6951180   3.4079830  51.5424350 107.4996950   4.6700480
  65.0174850 107.4395160   7.2054310  65.6547070 108.0529300   7.5713500
  65.1649740 107.4755820   6.2603540  50.8754510 107.4009470   6.5909990
  50.5269330 107.8573290   7.3568170  50.5442210 106.5066600   6.6732420
  52.4818880 120.5729070  10.7563180  52.4388510 120.2021980  11.6377640
  52.6129890 121.5106640  10.8965000  56.1824910 122.1288660   6.3572900
  55.9416270 122.3963220   5.4703420  57.1227550 122.2994390   6.4123760
  58.3879330 108.5921350  10.1129410  58.3268220 109.1843180  10.8624820
  59.3279710 108.4847310   9.9679670  61.0253890 108.2491410   9.7521700
  61.6394300 108.5670700   9.0902780  61.5703450 107.7640000  10.3717560
  67.4429070 124.1483040   7.1583540  66.9487350 124.5451910   6.4410670
  66.8342360 123.5232250   7.5520820  51.5475150 106.9285670   9.8660760
  52.0958140 106.7473720   9.1026870  51.6130460 106.1379780  10.4017070
  52.3206910 123.5191320   7.8760960  51.7267230 123.3876020   8.6151000
  52.3130750 122.6829460   7.4103060  61.7661930 106.8123550   6.0790990
  60.8921770 107.1458660   5.8763920  61.6572680 106.3396730   6.9042860
  62.6733910 109.0194420   7.4632710  62.3447270 108.2046180   7.0834440
  63.6216210 108.9764230   7.3398400  65.1268520 124.7906460   4.4370280
  64.6671490 125.5422270   4.0628300  64.4980980 124.0712930   4.3785080
  51.9519140 120.8849700   6.8269000  51.2253200 120.2654990   6.7594950
  52.0128290 121.2790310   5.9567080  55.5564240 123.0994700   3.6118410
  56.0729260 122.4882060   3.0866670  56.2061620 123.6023480   4.1029420
  58.2959740 123.9903190   4.4387390  58.5837550 123.7357490   3.5620400
  58.8082960 123.4380550   5.0292960  59.5136750 107.7293390   5.0183900
  58.7308540 108.2038890   5.2980660  59.2199680 106.8248220   4.9097080
  64.0657820 108.4316490   3.0632990  64.5065910 108.3761590   2.2154590
  63.7965410 109.3474500   3.1343170  61.9015950 106.8122590   1.7683000
  62.5045320 107.3842800   2.2431520  61.1608940 107.3762030   1.5456900
  58.3632100 124.9119290  11.8055590  59.2899410 124.6763560  11.8491550
  58.3482530 125.7391290  11.3241620  55.5495710 107.5764040  11.5697470
  55.2679980 108.0797640  10.8058290  55.9315410 106.7785790  11.2039600
  62.1511170 106.9917620  12.1477940  62.0376620 107.3112230  13.0429460
  62.9680910 107.3930130  11.8515220  64.9309660 124.1389150  11.6296630
  65.7234980 123.6438380  11.4222590  65.2242810 124.8179290  12.2372240
  61.0569320  96.2366600 151.4804090  60.9763370  95.3221210 151.2095800
  60.6433740  96.7333670 150.7743800  59.1887360  98.0145620 153.3613360
  58.4129460  97.5346060 153.6511930  59.8400290  97.3351270 153.1869520
  63.2094790 102.4205810 152.1412490  62.7476320 101.6493050 152.4699660
  64.0220340 102.4471880 152.6464940  53.1854450 102.3605520 154.4347140
  53.4882490 101.4703260 154.2557360  53.9298040 102.9175740 154.2069390
  51.6145140  93.2867320 148.0231510  50.7261840  93.6283290 147.9211390
  51.8986330  93.0867640 147.1312340  49.5778150  95.8872970 153.9071210
  50.1494260  95.1195170 153.9074850  49.5779690  96.1861730 152.9977820
  59.4358100 104.7063820 151.7616480  58.8169540 105.1621320 151.1910920
  60.2909880 104.8615280 151.3606180  58.6296350 100.6902810 153.3683520
  58.5604630  99.7492750 153.2072650  59.3916210 100.7804220 153.9406090
  59.6601520  93.4973190 153.5952450  60.0366340  92.6245070 153.4826120
  59.5621030  93.8331890 152.7042890  53.7906530  91.8698820 149.0569890
  53.8973280  92.7702550 149.3638650  52.8798890  91.8216790 148.7664540
  63.4425640  90.9923630 150.5280790  64.2635260  90.5020200 150.5706270
  63.4759720  91.5821290 151.2812630  55.6314260  94.8385190 153.3895070
  56.1392480  95.3366160 154.0300090  56.1627500  94.0620390 153.2134430
  60.3021450  99.5903060 149.1548390  59.6838720 100.0552510 148.5911110
  60.8144700 100.2830540 149.5717900  63.6787120  92.9324010 153.3008330
  62.9742690  93.2208900 153.8811440  64.0399280  93.7424120 152.9407890
  49.6704650 100.2759590 146.5288020  49.2932630 100.7646690 145.7972920
  49.9277720 100.9484870 147.1594550  66.7474040  92.3778800 153.6917540
  65.7998950  92.4117780 153.8232970  67.0724030  93.1917750 154.0766900
  57.2793580  88.6775980 151.9873530  57.5868560  88.1222870 151.2709030
  56.3494280  88.8120440 151.8046520  62.8308640 104.3943270 154.2780990
  62.8435800 103.9905560 153.4103250  62.2783860 105.1690560 154.1742420
  64.1254060 101.1159490 149.3671160  64.0150390 100.1733820 149.4920580
  64.1222310 101.4775130 150.2533920  59.6674340  96.7424810 148.7233650
  58.7403620  96.6762190 148.9522120  59.8199160  97.6804940 148.6088890
  59.6543420  93.0141810 145.7200810  58.7147090  93.1755770 145.8053270
  59.9726680  93.7327490 145.1736800  63.6971630  98.3045110 149.2268900
  63.0784050  97.9664660 148.5795200  63.6796080  97.6604870 149.9348090
  55.2730980  97.2689550 151.5053380  54.8687980  96.5566800 151.0099280
  55.3594100  96.9242790 152.3941420  55.7412680 100.9557110 153.6692590
  55.4440970 100.3502580 152.9900370  56.6912500 100.9934420 153.5581950
  61.8736330  97.5431920 146.2341650  62.3129610  96.7054350 146.0879470
  62.5864750  98.1761320 146.3205790  59.9831710 102.4827990 150.2022890
  60.4227620 103.2252320 149.7878280  59.9218600 102.7254560 151.1261850
  65.4553470  88.7974730 144.5482690  65.1426130  88.8901560 145.4481760
  66.2165940  89.3755760 144.4980120  51.9735610  96.1634530 149.0060030
  51.8533210  96.8896620 148.3941300  51.6636500  95.3937440 148.5287940
  50.8568610 101.0349860 151.2234850  50.4496690 101.1764450 150.3688450
  51.7481620 100.7510020 151.0206060  62.6501890 105.4697110 147.5585900
  62.4903030 105.1800050 148.4567730  62.4848600 104.6937240 147.0231130
  55.1290270 105.2495640 149.3357520  54.9532750 104.3331180 149.1225320
  54.2746010 105.6082930 149.5755320  62.3528020 102.9784670 146.1183900
  61.6593180 102.9761960 145.4586180  63.0950880 102.5543990 145.6878070
  61.9177950 104.6047380 150.1932390  62.3734900 103.8236760 150.5071010
  62.2570470 105.3154200 150.7373570  54.4399270  89.5069600 152.3883700
  53.9967420  90.2879140 152.0568220  54.9984260  89.8299490 153.0954640
  57.5558090  89.1280300 147.2689530  56.9312270  89.1240170 147.9942840
  57.4688210  88.2611260 146.8725500  56.4775170  90.0516930 154.2473300
  56.7747500  90.9579760 154.1665320  57.0260730  89.5635710 153.6332870
  54.2313490  94.6303170 150.1164950  54.0054410  94.4140340 151.0211570
  53.4506020  95.0631630 149.7710920  61.4611250  94.6366540 148.7155600
  60.8620140  95.3602340 148.5319220  62.0090860  94.5743320 147.9332050
  60.0676120  93.2730080 150.7458880  60.4605690  93.5902280 149.9327570
  60.4292970  92.3941960 150.8603400  49.1040290  89.8630880 152.9689080
  48.8153340  90.4333740 153.6814060  49.8486050  89.3835330 153.3320310
  49.2910520  93.8051000 144.1791800  49.2085190  94.7481760 144.3206790
  48.9393580  93.6625910 143.3004150  57.0908650  92.5390030 153.2462150
  57.0944710  92.0979980 152.3966690  57.9859770  92.8607360 153.3533970
  52.9411030  92.4216520 152.2056360  52.6011080  92.8991750 152.9623410
  52.1788350  91.9681640 151.8457460  57.1528800  93.5402110 146.2368910
  57.2741620  93.4988590 147.1854730  56.7677310  94.4026260 146.0815640
  56.1650300  95.8503250 145.6352210  55.5967200  95.4021500 145.0088120
  56.8739300  96.2096030 145.1017360  50.2557110  91.3435500 151.1221030
  49.9704030  90.9791170 151.9599650  50.1935970  90.6115960 150.5084170
  53.7097780  99.8461440 147.9078620  52.9360040  99.3059060 147.7477340
  54.4392410  99.3268050 147.5696380  64.4685760  98.8426800 153.7005010
  65.1884880  99.3382090 153.3101120  64.2667580  98.1644690 153.0558880
  59.9295700  90.2364760 147.8434400  59.1160310  89.7377930 147.7679710
  59.7357650  91.0763010 147.4270750  62.6444090  94.6084410 146.1396560
  63.5323710  94.9201640 145.9647900  62.6149180  93.7356660 145.7477140
  53.7535180  99.5141820 151.5457430  54.2713850  98.7110080 151.4914320
  53.3019200  99.4520960 152.3874260  58.6404680 100.7808100 146.8184730
  58.9820380 101.5250330 146.3228050  57.8117390 101.0939220 147.1809560
  64.9158360  95.9196250 145.6076420  64.8322080  96.3510470 144.7572860
  65.6352550  96.3794600 146.0403240  65.9445610 102.7738510 148.3358550
  65.3021770 102.1194130 148.6102270  65.5576270 103.1793600 147.5599220
  61.5232090 100.1023940 152.1830240  61.8755910  99.5052070 151.5231610
  60.6394420  99.7768170 152.3538490  57.6095370 100.8621630 149.5900650
  58.2966500 101.4090840 149.9708240  56.8227790 101.4062360 149.6250260
  49.7487770  96.4794450 145.0817730  50.6182620  96.7619250 145.3653650
  49.2578090  97.2930320 144.9666540  56.9122580  97.8667660 149.2026010
  57.3685360  98.6772910 149.4286200  56.5610790  97.5490800 150.0344500
  52.8134360  88.2105310 149.6748530  52.6848990  88.2023210 150.6233450
  51.9896380  88.5488400 149.3239540  64.3342990 101.6654970 144.8734900
  64.1080570 100.9485410 145.4659540  63.9439190 101.4167410 144.0356650
  50.1159020 105.6921830 145.6479360  50.4756660 106.2911170 144.9936630
  49.9751360 106.2381720 146.4214390  63.9159240  99.5826910 146.5349060
  63.6280940 100.0439600 147.3226940  64.7111410  99.1224680 146.8033280
  56.1327640 103.0753030 146.4653030  56.1237740 103.8082720 145.8497540
  55.2126000 102.8284610 146.5579990  51.7334280  98.2967920 147.2099790
  51.1262230  99.0366820 147.2195090  52.2083630  98.3867280 146.3837990
  64.6729100  91.4175680 147.6944240  64.0442260  91.5221350 146.9802470
  64.1781020  91.6372460 148.4838120  59.1187240 103.1381270 145.1278220
  59.2199220 102.9345260 144.1980200  58.2188980 102.8839550 145.3326000
  56.6413130  93.6961630 149.1102120  55.9329280  94.1647970 149.5515730
  56.9257610  93.0383640 149.7447310  60.6728560  90.4212290 150.5497910
  60.5496340  90.4398420 149.6007420  61.6213120  90.4691230 150.6696310
  57.7605350 105.6567590 149.8225890  58.0146850 105.6188980 148.9005260
  56.8117830 105.5300920 149.8154140  54.8448150  92.0046710 146.4852830
  55.6938680  92.4416860 146.4193020  54.4779420  92.3166970 147.3124890
  63.7657930  96.5759470 151.3984400  62.8248070  96.5909700 151.5732090
  64.0802000  95.7895430 151.8444700  53.7439570  98.2579070 144.9588360
  54.5102840  98.1460430 145.5213790  53.8214260  97.5617040 144.3065130
  52.4386330  95.6904140 145.6421250  52.5189920  94.7431650 145.7538650
  53.3306080  96.0211020 145.7481910  65.7683510 103.7468320 153.0738660
  65.8930930 104.5699490 153.5462470  66.6349070 103.5359050 152.7262810
  53.2401040 105.8399530 152.7455790  53.9763520 105.2914990 153.0164360
  53.6241960 106.7055540 152.6061780  50.1246520 101.9073100 148.6197300
  49.1986300 102.1494240 148.6102710  50.5902950 102.7347360 148.4982050
  56.3503350 105.0129840 144.5681360  57.1431960 105.3018670 144.1163150
  55.8307700 104.5822010 143.8893840  65.4033520 104.2399970 145.9918100
  65.1175030 103.8265110 145.1772280  65.2053070 105.1687680 145.8718620
  56.8680750 100.2333250 144.4323710  56.7631390  99.6185600 145.1585090
  56.7004970  99.7099140 143.6486720  60.1083480  99.2953280 145.0365700
  59.5593580  99.7422580 145.6808440  60.7302740  98.7902530 145.5603370
  55.7758600  98.2544200 146.9331000  56.1975020  98.0884070 147.7762390
  55.9009440  97.4444430 146.4386140  58.2886240  97.2781810 144.1808100
  58.8091900  96.5630830 143.8149250  58.9354640  97.9167680 144.4808610
  54.6717500  94.3277430 143.8789160  54.4706560  93.4644790 144.2402500
  54.5009550  94.2410790 142.9410760  62.1505810  89.1385660 146.4076040
  62.4308100  88.2953560 146.7635460  61.3771540  89.3708770 146.9214790
  53.4700300  91.4278050 143.8667040  53.7726200  91.4345480 142.9586190
  54.2094890  91.0775910 144.3634700  56.6885230  90.3712670 144.8523240
  56.3407230  89.6936660 144.2725690  56.8898000  89.9102180 145.6666630
  58.8534270 105.3593420 146.4709840  59.7485060 105.6978390 146.4928600
  58.8851900 104.6372830 145.8434120  52.4930430 100.7320470 144.6996840
  52.9305300 101.2750140 145.3554420  52.9778160  99.9067420 144.7093180
  49.7076230 103.5209500 152.1517100  50.0379240 102.6530560 151.9195740
  50.1367230 103.7268020 152.9822060  54.3038150 101.8518510 149.8119070
  54.0033690 101.7283480 150.7122980  54.1975640 100.9927100 149.4034800
  67.0730070 101.6314910 144.5145750  66.2423030 101.6991560 144.9852980
  67.2501900 102.5219030 144.2112610  66.5286530  98.3762390 147.0179950
  67.2905440  98.9459040 147.1239640  66.5440900  97.8089590 147.7888260
  50.0290870  96.9000320 151.2487610  49.3739710  96.6311960 150.6047310
  50.8668820  96.7904800 150.7989590  67.5346500  99.2312490 151.8621880
  67.9055330  98.4479810 151.4557850  68.1748430  99.9201590 151.6839180
  66.5805700  98.6696760 144.1752470  66.8554540  99.5775640 144.0471690
  66.3916440  98.6059290 145.1114460  62.9781310  91.6941610 145.4706100
  63.3966190  91.5072590 144.6302760  62.6717370  90.8420660 145.7809030
  66.4771040  96.6065750 149.1681900  66.1014640  95.8393680 148.7363190
  65.7474160  96.9888450 149.6556830  49.2428950  94.1099250 147.1912940
  48.3393030  94.3729450 147.0164600  49.7269570  94.3810420 146.4112900
  65.7522000  94.8323240 152.4689140  66.2759480  94.3385890 151.8379310
  66.3381420  94.9673600 153.2136710  51.7856160  93.1664790 145.1007320
  52.4947860  92.7448010 144.6154600  51.0696100  93.2340020 144.4690670
  51.4330320  89.2204120 144.1409970  52.1558450  89.7613060 144.4591190
  51.7054840  88.9467540 143.2651510  65.2421970  94.0896590 148.4081550
  65.7381090  93.8567460 149.1930430  65.0438040  93.2508430 147.9919190
  66.6709130  92.7257540 150.9419230  66.5608410  92.5713580 151.8801500
  67.4316720  92.1978480 150.6994640  67.5599400  90.5565460 144.1825370
  68.4848710  90.4246640 143.9743660  67.5375190  90.6358280 145.1361820
  67.6337890  91.3276120 146.8082080  66.8389390  91.2621240 147.3374990
  67.8381170  92.2626760 146.7967430  64.5756310 105.3667670 150.8020470
  65.1715380 105.0452240 150.1254890  64.8334460 104.8939490 151.5933740
  55.5564240 104.3251210 153.8066330  56.0729260 103.7138570 153.2814590
  56.2061620 104.8279990 154.2977340  64.0657820  89.6573000 153.2580910
  64.5065910  89.6018100 152.4102510  63.7965410  90.5731010 153.3291090
  65.9296390  89.2888240 151.2689730  65.8684790  88.3449460 151.1220750
  66.7088420  89.3968330 151.8143190  50.2349140 105.4280600 150.2313680
  50.0671180 104.7951280 150.9295570  49.3683650 105.6340000 149.8807870
  50.8577160  89.2597380 147.7345540  51.6156520  89.3726260 147.1609570
  50.3954330  90.0966580 147.6888970  57.3990970  91.3736650 150.7247850
  56.5865480  90.9993540 150.3843730  57.9032610  90.6181730 151.0269040
  61.9015950  88.0379100 151.9630920  62.5045320  88.6099310 152.4379440
  61.1608940  88.6018540 151.7404820  65.0450550  88.4400660 147.2371200
  65.2401180  89.3384110 147.5038630  64.2580420  88.2087740 147.7304150
  51.8411840 104.1213830 147.6763820  51.3159460 104.5021860 146.9725780
  51.7656420 104.7464600 148.3973530  53.2302310  89.7861430 146.2747510
  53.7595070  88.9991230 146.1455460  53.8630630  90.4652620 146.5083040
  55.4240150  89.5236570 149.3292900  54.7942890  88.8223880 149.4963030
  54.8845290  90.2840700 149.1126060  66.5977160 105.6801370 148.9977760
  66.7729350 104.9939110 148.3538680  65.8998730 106.2048420 148.6054430
  54.4404810 106.0696210 146.5513070  55.1723630 105.7855490 146.0036960
  54.6998480 105.8309490 147.4412450  53.6019600 102.1860940 146.5559400
  52.9728480 102.6546040 147.1045230  53.7167430 101.3410160 146.9905590
  53.2053190  98.3265430 135.4645630  52.3738070  98.0714140 135.8642140
  53.8134170  98.3976200 136.2003550  63.2094790 102.4205810 133.3669000
  62.7476320 101.6493050 133.6956170  64.0220340 102.4471880 133.8721450
  53.1854450 102.3605520 135.6603650  53.4882490 101.4703260 135.4813870
  53.9298040 102.9175740 135.4325900  50.8203020  91.2957330 136.9196650
  50.6405860  90.3983080 137.1999410  50.4183100  91.8429200 137.5943600
  53.7906530  91.8698820 130.2826400  53.8973280  92.7702550 130.5895160
  52.8798890  91.8216790 129.9921050  55.6314260  94.8385190 134.6151580
  56.1392480  95.3366160 135.2556600  56.1627500  94.0620390 134.4390940
  67.7325190  93.0090380 138.3180930  67.0277360  93.3972090 137.7996040
  67.9983110  93.7040670 138.9201860  53.9150360  89.4783750 138.8815000
  53.9168800  89.9956140 138.0760900  53.0854670  89.0013930 138.8584930
  60.3021450  99.5903060 130.3804900  59.6838720 100.0552510 129.8167620
  60.8144700 100.2830540 130.7974410  55.1653210  99.1178930 137.0588500
  54.8322590  99.7447850 137.7009570  55.3419890  99.6440810 136.2790170
  53.5965690  91.1893710 136.8885450  53.9382500  92.0335760 136.5939320
  52.6581500  91.3377450 137.0050790  54.3772310 101.0859730 138.8737680
  54.9946310 101.7610810 138.5922130  53.5165430 101.4947710 138.7825180
  49.6704650 100.2759590 127.7544530  49.2932630 100.7646690 127.0229430
  49.9277720 100.9484870 128.3851060  65.2949900 102.5499140 136.7892320
  64.6113420 103.2198250 136.7808990  65.8344190 102.7479790 136.0237180
  66.7474040  92.3778800 134.9174050  65.7998950  92.4117780 135.0489480
  67.0724030  93.1917750 135.3023410  64.1254060 101.1159490 130.5927670
  64.0150390 100.1733820 130.7177090  64.1222310 101.4775130 131.4790430
  59.6674340  96.7424810 129.9490160  58.7403620  96.6762190 130.1778630
  59.8199160  97.6804940 129.8345400  55.2730980  97.2689550 132.7309890
  54.8687980  96.5566800 132.2355790  55.3594100  96.9242790 133.6197930
  55.7412680 100.9557110 134.8949100  55.4440970 100.3502580 134.2156880
  56.6912500 100.9934420 134.7838460  53.9859600  94.0432760 136.5108930
  54.5374190  94.1528100 135.7362180  54.5003110  94.4170360 137.2264160
  63.8298290 104.5288980 138.5572200  63.3528850 105.3361170 138.3644810
  63.1460080 103.8767310 138.7098410  54.8331110 100.6938800 141.5456900
  53.9359640 100.9178770 141.7930300  54.8583980 100.8173740 140.5968300
  53.6602330  97.5652120 140.1214270  53.5210100  98.4374920 140.4901670
  52.7783690  97.2224930 139.9762210  59.9831710 102.4827990 131.4279400
  60.4227620 103.2252320 131.0134790  59.9218600 102.7254560 132.3518360
  55.4582680 103.5073820 142.3299420  55.4298110 103.9116770 141.4627850
  55.2947650 102.5784180 142.1671020  65.4553470  88.7974730 125.7739200
  65.1426130  88.8901560 126.6738270  66.2165940  89.3755760 125.7236630
  51.9735610  96.1634530 130.2316540  51.8533210  96.8896620 129.6197810
  51.6636500  95.3937440 129.7544450  67.4097500 104.2900920 143.6263590
  67.8857220 104.7683810 144.3052670  68.0304660 104.2218410 142.9009090
  49.6120980  99.3349670 136.0385180  49.6901400  99.4698440 135.0940900
  50.2262660  98.6265560 136.2313300  50.8568610 101.0349860 132.4491360
  50.4496690 101.1764450 131.5944960  51.7481620 100.7510020 132.2462570
  66.8130750 101.4813770 140.7863600  66.9393810 101.2425650 139.8680780
  66.8552130 100.6498310 141.2585680  60.6747490 105.1841770 139.3558410
  61.1892160 105.0949780 140.1580840  59.8316570 105.5301470 139.6486320
  62.6501890 105.4697110 128.7842410  62.4903030 105.1800050 129.6824240
  62.4848600 104.6937240 128.2487640  62.3528020 102.9784670 127.3440410
  61.6593180 102.9761960 126.6842690  63.0950880 102.5543990 126.9134580
  66.6654760  93.5346230 141.7513340  66.0499030  94.0425900 141.2228800
  66.3451180  92.6344560 141.6939280  49.6680500 100.3763840 138.5779640
  49.8311540  99.9069200 137.7599010  50.1332950  99.8687400 139.2428480
  58.7269080  92.3738120 139.2175530  58.2648450  92.5821140 140.0295470
  58.3247190  91.5597470 138.9146200  63.7273590  93.5947070 140.3472190
  62.8767180  93.2952820 140.6681260  63.5675380  93.8389080 139.4356010
  60.8223300  95.0948820 142.4470980  61.1476710  94.2612570 142.1073210
  61.6103630  95.6177340 142.5949310  54.2313490  94.6303170 131.3421460
  54.0054410  94.4140340 132.2468080  53.4506020  95.0631630 130.9967430
  56.6712700  95.5288750 142.0081730  56.5756300  94.5883480 141.8582130
  57.5144680  95.7503820 141.6129800  51.8023240  91.9402420 140.1615510
  51.4086630  92.7877630 140.3688290  51.1141640  91.3028790 140.3524150
  58.3768290  92.0237390 143.2312250  57.6866610  91.8309590 143.8658340
  59.1200590  92.3072030 143.7636550  61.1157170  91.3169510 135.4789110
  61.1329910  91.7678160 136.3230960  60.8672750  90.4175150 135.6922550
  64.5427920  88.7301690 141.3175490  64.8673690  87.9991350 141.8433470
  64.5784430  88.4115330 140.4156480  51.2419480  99.7515270 140.7375450
  50.8574270  99.1108940 141.3358410  51.5531670 100.4551390 141.3070180
  55.1815990  95.6400450 138.5368280  54.8773060  96.5192430 138.7618640
  56.1362450  95.7000240 138.5725720  53.7097780  99.8461440 129.1335130
  52.9360040  99.3059060 128.9733850  54.4392410  99.3268050 128.7952890
  59.8504560  98.9135860 140.8130520  59.7841870  97.9931530 140.5588110
  59.2209700  99.0111300 141.5275160  53.7535180  99.5141820 132.7713940
  54.2713850  98.7110080 132.7170830  53.3019200  99.4520960 133.6130770
  51.2379720  96.4803190 139.6839640  50.8794660  97.1457040 140.2712980
  50.9434280  95.6486740 140.0552260  54.4392840  96.9387430 142.5679190
  54.1392980  97.0844610 141.6707010  55.2104080  96.3792720 142.4752580
  59.7821290 101.7356430 140.5634320  59.7965830 100.8037390 140.3453230
  59.0746390 101.8216190 141.2024090  65.9932500  98.3763770 139.9102900
  65.2680690  98.9692550 139.7132290  66.5207960  98.3687310 139.1116270
  65.9445610 102.7738510 129.5615060  65.3021770 102.1194130 129.8358780
  65.5576270 103.1793600 128.7855730  57.6095370 100.8621630 130.8157160
  58.2966500 101.4090840 131.1964750  56.8227790 101.4062360 130.8506770
  56.9122580  97.8667660 130.4282520  57.3685360  98.6772910 130.6542710
  56.5610790  97.5490800 131.2601010  59.2155190 103.3774000 137.6574820
  59.8597410 103.5833380 138.3348240  59.5784630 102.6162400 137.2045670
  52.8134360  88.2105310 130.9005040  52.6848990  88.2023210 131.8489960
  51.9896380  88.5488400 130.5496050  62.2624890 102.1801250 139.5788330
  62.5981130 102.7667940 140.2566250  61.3425230 102.0493960 139.8086120
  49.8128290  89.9696430 140.3611740  49.0986810  90.1693350 140.9664350
  50.2323330  89.1936000 140.7326540  63.9159240  99.5826910 127.7605570
  63.6280940 100.0439600 128.5483450  64.7111410  99.1224680 128.0289790
  50.1000880 103.9576690 141.3478270  50.2092000 103.0171430 141.2073660
  49.4481440 104.2231440 140.6992000  58.0913470 102.2292580 142.7476390
  57.7710340 101.5101820 143.2922080  57.4171830 102.9047650 142.8212450
  51.7334280  98.2967920 128.4356300  51.1262230  99.0366820 128.4451600
  52.2083630  98.3867280 127.6094500  61.3067070  92.4618740 138.1113190
  61.6747890  91.6413950 138.4392760  60.4465270  92.5220630 138.5268840
  58.2669060  95.1158330 138.3351160  58.7654310  95.5904150 139.0003010
  58.4092010  94.1921850 138.5421190  65.4735920  91.3326290 139.1779550
  64.9709520  92.0731690 139.5173360  66.2892580  91.7210290 138.8616340
  53.7439570  98.2579070 126.1844870  54.5102840  98.1460430 126.7470300
  53.8214260  97.5617040 125.5321640  65.7683510 103.7468320 134.2995170
  65.8930930 104.5699490 134.7718980  66.6349070 103.5359050 133.9519320
  53.2401040 105.8399530 133.9712300  53.9763520 105.2914990 134.2420870
  53.6241960 106.7055540 133.8318290  50.1246520 101.9073100 129.8453810
  49.1986300 102.1494240 129.8359220  50.5902950 102.7347360 129.7238560
  52.2459320 105.0245600 143.1597880  53.0472050 105.3457650 143.5733280
  51.7311140 104.6641180 143.8817790  61.0823950 101.1325470 143.1073290
  60.4762110 101.1557070 142.3669040  60.7778060 100.4008510 143.6440540
  62.5124320 104.8605760 141.7182700  63.4646070 104.7763780 141.6682940
  62.3652540 105.5247470 142.3916490  65.4033520 104.2399970 127.2174610
  65.1175030 103.8265110 126.4028790  65.2053070 105.1687680 127.0975130
  49.9657130  97.5119060 142.1033930  50.4696150  96.9326340 142.6750160
  49.2264550  97.7959290 142.6410300  57.0195070  98.9190050 141.6369450
  56.2540740  99.4875050 141.5524120  57.2011030  98.6266260 140.7437680
  60.1083480  99.2953280 126.2622210  59.5593580  99.7422580 126.9064950
  60.7302740  98.7902530 126.7859880  64.1618420 100.6495380 142.1944470
  64.9027890 100.9871140 141.6911930  63.3991100 100.8187440 141.6414240
  51.9980210  95.6548650 142.9984000  52.0385550  95.3562520 143.9069230
  52.8525710  96.0556260 142.8391520  55.7758600  98.2544200 128.1587510
  56.1975020  98.0884070 129.0018900  55.9009440  97.4444430 127.6642650
  53.9386020  94.2340750 140.9658490  53.4082480  93.7431700 140.3381830
  54.6074090  94.6624950 140.4316420  58.2886240  97.2781810 125.4064610
  58.8091900  96.5630830 125.0405760  58.9354640  97.9167680 125.7065120
  62.8364080  98.7010210 140.7299680  63.2505100  98.8555290 141.5790100
  61.9015080  98.8265430 140.8925460  63.3086250  96.0406370 142.7338830
  63.8907020  95.2858690 142.6459310  63.4848020  96.5713810 141.9570310
  54.4258320  91.2003120 141.0455780  54.3315190  90.5823870 140.3206650
  53.8455710  91.9269410 140.8185690  57.1919760  89.7576360 138.0783170
  56.7437060  89.7800620 137.2328720  56.5584960  89.3595380 138.6753470
  57.5979310  98.6530690 138.6995610  58.0167420  99.4963420 138.5271850
  56.6787940  98.7902730 138.4702390  59.9343210  96.3846870 140.0833450
  60.0539420  95.7888010 140.8228290  60.7937210  96.4216560 139.6634750
  55.4486730 104.9583700 139.8153340  54.9107820 105.6829760 139.4962040
  55.7020690 104.4814040 139.0250680  56.7011980  92.9268220 141.3409270
  57.2911670  92.6184070 142.0287090  55.8832220  92.4547970 141.4969170
  61.5205410  92.5434030 141.5742290  60.8320930  91.8815570 141.5092280
  62.2411430  92.0972300 142.0190750  58.3048940 106.1934910 140.0739990
  58.2307640 107.0970050 140.3812360  57.4027780 105.8746810 140.0462060
  52.4930430 100.7320470 125.9253350  52.9305300 101.2750140 126.5810930
  52.9778160  99.9067420 125.9349690  49.7076230 103.5209500 133.3773610
  50.0379240 102.6530560 133.1452250  50.1367230 103.7268020 134.2078570
  54.3038150 101.8518510 131.0375580  54.0033690 101.7283480 131.9379490
  54.1975640 100.9927100 130.6291310  50.1966440 104.3880090 136.1155240
  49.7597430 104.5680890 136.9479390  50.7644120 105.1454710 135.9736960
  65.8328620 103.8897090 140.4032550  65.2330610 103.9489650 139.6596470
  65.9622520 102.9502070 140.5329400  67.0730070 101.6314910 125.7402260
  66.2423030 101.6991560 126.2109490  67.2501900 102.5219030 125.4369120
  67.5346500  99.2312490 133.0878390  67.9055330  98.4479810 132.6814360
  68.1748430  99.9201590 132.9095690  64.5180260 100.6149070 138.5008710
  63.7040100 101.0446230 138.7634500  64.9254460 101.2267480 137.8877760
  51.0666800  97.2852890 137.0147460  51.4339840  97.1980290 137.8943480
  50.4977620  96.5219440 136.9154320  65.8670660  95.7537270 140.0277930
  65.6356750  95.5250020 139.1275880  66.1275210  96.6736820 139.9822820
  50.6182800  94.1961980 140.9205880  49.7238850  94.1628740 141.2599590
  51.1580350  94.3948770 141.6857130  64.3058730  90.9793700 142.8057630
  65.1828910  90.9877100 143.1891630  64.3179570  90.2424540 142.1949980
  65.9311720  94.9163110 137.2165200  64.9814430  94.8826650 137.3310190
  66.1124730  95.8263220 136.9814970  65.0174850  88.6651670 138.6258740
  65.6547070  89.2785810 138.9917930  65.1649740  88.7012330 137.6807970
  67.5599400  90.5565460 125.4081880  68.4848710  90.4246640 125.2000170
  67.5375190  90.6358280 126.3618330  64.5756310 105.3667670 132.0276980
  65.1715380 105.0452240 131.3511400  64.8334460 104.8939490 132.8190250
  50.8754510  88.6265980 138.0114420  50.5269330  89.0829800 138.7772600
  50.5442210  87.7323110 138.0936850  52.4818880 101.7985580 142.1767610
  52.4388510 101.4278490 143.0582070  52.6129890 102.7363150 142.3169430
  56.1824910 103.3545170 137.7777330  55.9416270 103.6219730 136.8907850
  57.1227550 103.5250900 137.8328190  58.3879330  89.8177860 141.5333840
  58.3268220  90.4099690 142.2829250  59.3279710  89.7103820 141.3884100
  61.0253890  89.4747920 141.1726130  61.6394300  89.7927210 140.5107210
  61.5703450  88.9896510 141.7921990  67.4429070 105.3739550 138.5787970
  66.9487350 105.7708420 137.8615100  66.8342360 104.7488760 138.9725250
  51.5475150  88.1542180 141.2865190  52.0958140  87.9730230 140.5231300
  51.6130460  87.3636290 141.8221500  52.3206910 104.7447830 139.2965390
  51.7267230 104.6132530 140.0355430  52.3130750 103.9085970 138.8307490
  61.7661930  88.0380060 137.4995420  60.8921770  88.3715170 137.2968350
  61.6572680  87.5653240 138.3247290  62.6733910  90.2450930 138.8837140
  62.3447270  89.4302690 138.5038870  63.6216210  90.2020740 138.7602830
  65.1268520 106.0162970 135.8574710  64.6671490 106.7678780 135.4832730
  64.4980980 105.2969440 135.7989510  51.9519140 102.1106210 138.2473430
  51.2253200 101.4911500 138.1799380  52.0128290 102.5046820 137.3771510
  55.5564240 104.3251210 135.0322840  56.0729260 103.7138570 134.5071100
  56.2061620 104.8279990 135.5233850  59.5136750  88.9549900 136.4388330
  58.7308540  89.4295400 136.7185090  59.2199680  88.0504730 136.3301510
  50.2349140 105.4280600 131.4570190  50.0671180 104.7951280 132.1552080
  49.3683650 105.6340000 131.1064380  50.8577160  89.2597380 128.9602050
  51.6156520  89.3726260 128.3866080  50.3954330  90.0966580 128.9145480
  58.3632100 106.1375800 143.2260020  59.2899410 105.9020070 143.2695980
  58.3482530 106.9647800 142.7446050  66.5977160 105.6801370 130.2234270
  66.7729350 104.9939110 129.5795190  65.8998730 106.2048420 129.8310940
  55.5495710  88.8020550 142.9901900  55.2679980  89.3054150 142.2262720
  55.9315410  88.0042300 142.6244030  62.1511170  88.2174130 143.5682370
  62.0376620  88.5368740 144.4633890  62.9680910  88.6186640 143.2719650
  64.9309660 105.3645660 143.0501060  65.7234980 104.8694890 142.8427020
  65.2242810 106.0435800 143.6576670  51.6145140  93.2867320 110.4744530
  50.7261840  93.6283290 110.3724410  51.8986330  93.0867640 109.5825360
  50.8203020  91.2957330 118.1453160  50.6405860  90.3983080 118.4255920
  50.4183100  91.8429200 118.8200110  53.9150360  89.4783750 120.1071510
  53.9168800  89.9956140 119.3017410  53.0854670  89.0013930 120.0841440
  60.3021450  99.5903060 111.6061410  59.6838720 100.0552510 111.0424130
  60.8144700 100.2830540 112.0230920  53.5965690  91.1893710 118.1141960
  53.9382500  92.0335760 117.8195830  52.6581500  91.3377450 118.2307300
  64.1254060 101.1159490 111.8184180  64.0150390 100.1733820 111.9433600
  64.1222310 101.4775130 112.7046940  59.6674340  96.7424810 111.1746670
  58.7403620  96.6762190 111.4035140  59.8199160  97.6804940 111.0601910
  59.6543420  93.0141810 108.1713830  58.7147090  93.1755770 108.2566290
  59.9726680  93.7327490 107.6249820  61.8736330  97.5431920 108.6854670
  62.3129610  96.7054350 108.5392490  62.5864750  98.1761320 108.7718810
  65.4553470  88.7974730 106.9995710  65.1426130  88.8901560 107.8994780
  66.2165940  89.3755760 106.9493140  51.9735610  96.1634530 111.4573050
  51.8533210  96.8896620 110.8454320  51.6636500  95.3937440 110.9800960
  67.4097500 104.2900920 124.8520100  67.8857220 104.7683810 125.5309180
  68.0304660 104.2218410 124.1265600  62.6501890 105.4697110 110.0098920
  62.4903030 105.1800050 110.9080750  62.4848600 104.6937240 109.4744150
  55.1290270 105.2495640 111.7870540  54.9532750 104.3331180 111.5738340
  54.2746010 105.6082930 112.0268340  62.3528020 102.9784670 108.5696920
  61.6593180 102.9761960 107.9099200  63.0950880 102.5543990 108.1391090
  61.4611250  94.6366540 111.1668620  60.8620140  95.3602340 110.9832240
  62.0090860  94.5743320 110.3845070  56.6712700  95.5288750 123.2338240
  56.5756300  94.5883480 123.0838640  57.5144680  95.7503820 122.8386310
  49.2910520  93.8051000 106.6304820  49.2085190  94.7481760 106.7719810
  48.9393580  93.6625910 105.7517170  59.8504560  98.9135860 122.0387030
  59.7841870  97.9931530 121.7844620  59.2209700  99.0111300 122.7531670
  62.6444090  94.6084410 108.5909580  63.5323710  94.9201640 108.4160920
  62.6149180  93.7356660 108.1990160  53.7535180  99.5141820 113.9970450
  54.2713850  98.7110080 113.9427340  53.3019200  99.4520960 114.8387280
  58.6404680 100.7808100 109.2697750  58.9820380 101.5250330 108.7741070
  57.8117390 101.0939220 109.6322580  54.4392840  96.9387430 123.7935700
  54.1392980  97.0844610 122.8963520  55.2104080  96.3792720 123.7009090
  59.7821290 101.7356430 121.7890830  59.7965830 100.8037390 121.5709740
  59.0746390 101.8216190 122.4280600  65.9445610 102.7738510 110.7871570
  65.3021770 102.1194130 111.0615290  65.5576270 103.1793600 110.0112240
  57.6095370 100.8621630 112.0413670  58.2966500 101.4090840 112.4221260
  56.8227790 101.4062360 112.0763280  49.7487770  96.4794450 107.5330750
  50.6182620  96.7619250 107.8166670  49.2578090  97.2930320 107.4179560
  56.9122580  97.8667660 111.6539030  57.3685360  98.6772910 111.8799220
  56.5610790  97.5490800 112.4857520  59.2155190 103.3774000 118.8831330
  59.8597410 103.5833380 119.5604750  59.5784630 102.6162400 118.4302180
  64.3342990 101.6654970 107.3247920  64.1080570 100.9485410 107.9172560
  63.9439190 101.4167410 106.4869670  49.8128290  89.9696430 121.5868250
  49.0986810  90.1693350 122.1920860  50.2323330  89.1936000 121.9583050
  63.9159240  99.5826910 108.9862080  63.6280940 100.0439600 109.7739960
  64.7111410  99.1224680 109.2546300  64.6729100  91.4175680 110.1457260
  64.0442260  91.5221350 109.4315490  64.1781020  91.6372460 110.9351140
  59.1187240 103.1381270 107.5791240  59.2199220 102.9345260 106.6493220
  58.2188980 102.8839550 107.7839020  57.7605350 105.6567590 112.2738910
  58.0146850 105.6188980 111.3518280  56.8117830 105.5300920 112.2667160
  65.7683510 103.7468320 115.5251680  65.8930930 104.5699490 115.9975490
  66.6349070 103.5359050 115.1775830  53.2401040 105.8399530 115.1968810
  53.9763520 105.2914990 115.4677380  53.6241960 106.7055540 115.0574800
  50.1246520 101.9073100 111.0710320  49.1986300 102.1494240 111.0615730
  50.5902950 102.7347360 110.9495070  65.4033520 104.2399970 108.4431120
  65.1175030 103.8265110 107.6285300  65.2053070 105.1687680 108.3231640
  49.9657130  97.5119060 123.3290440  50.4696150  96.9326340 123.9006670
  49.2264550  97.7959290 123.8666810  57.0195070  98.9190050 122.8625960
  56.2540740  99.4875050 122.7780630  57.2011030  98.6266260 121.9694190
  60.1083480  99.2953280 107.4878720  59.5593580  99.7422580 108.1321460
  60.7302740  98.7902530 108.0116390  58.2886240  97.2781810 106.6321120
  58.8091900  96.5630830 106.2662270  58.9354640  97.9167680 106.9321630
  57.1919760  89.7576360 119.3039680  56.7437060  89.7800620 118.4585230
  56.5584960  89.3595380 119.9009980  62.1505810  89.1385660 108.8589060
  62.4308100  88.2953560 109.2148480  61.3771540  89.3708770 109.3727810
  58.3048940 106.1934910 121.2996500  58.2307640 107.0970050 121.6068870
  57.4027780 105.8746810 121.2718570  56.6885230  90.3712670 107.3036260
  56.3407230  89.6936660 106.7238710  56.8898000  89.9102180 108.1179650
  58.8534270 105.3593420 108.9222860  59.7485060 105.6978390 108.9441620
  58.8851900 104.6372830 108.2947140  54.3038150 101.8518510 112.2632090
  54.0033690 101.7283480 113.1636000  54.1975640 100.9927100 111.8547820
  66.5286530  98.3762390 109.4692970  67.2905440  98.9459040 109.5752660
  66.5440900  97.8089590 110.2401280  62.9781310  91.6941610 107.9219120
  63.3966190  91.5072590 107.0815780  62.6717370  90.8420660 108.2322050
  49.2428950  94.1099250 109.6425960  48.3393030  94.3729450 109.4677620
  49.7269570  94.3810420 108.8625920  65.0174850  88.6651670 119.8515250
  65.6547070  89.2785810 120.2174440  65.1649740  88.7012330 118.9064480
  67.5599400  90.5565460 106.6338390  68.4848710  90.4246640 106.4256680
  67.5375190  90.6358280 107.5874840  67.6337890  91.3276120 109.2595100
  66.8389390  91.2621240 109.7888010  67.8381170  92.2626760 109.2480450
  64.5756310 105.3667670 113.2533490  65.1715380 105.0452240 112.5767910
  64.8334460 104.8939490 114.0446760  50.8754510  88.6265980 119.2370930
  50.5269330  89.0829800 120.0029110  50.5442210  87.7323110 119.3193360
  56.1824910 103.3545170 119.0033840  55.9416270 103.6219730 118.1164360
  57.1227550 103.5250900 119.0584700  51.5475150  88.1542180 122.5121700
  52.0958140  87.9730230 121.7487810  51.6130460  87.3636290 123.0478010
  61.7661930  88.0380060 118.7251930  60.8921770  88.3715170 118.5224860
  61.6572680  87.5653240 119.5503800  55.5564240 104.3251210 116.2579350
  56.0729260 103.7138570 115.7327610  56.2061620 104.8279990 116.7490360
  59.5136750  88.9549900 117.6644840  58.7308540  89.4295400 117.9441600
  59.2199680  88.0504730 117.5558020  64.0657820  89.6573000 115.7093930
  64.5065910  89.6018100 114.8615530  63.7965410  90.5731010 115.7804110
  65.0450550  88.4400660 109.6884220  65.2401180  89.3384110 109.9551650
  64.2580420  88.2087740 110.1817170  51.8411840 104.1213830 110.1276840
  51.3159460 104.5021860 109.4238800  51.7656420 104.7464600 110.8486550
  58.3632100 106.1375800 124.4516530  59.2899410 105.9020070 124.4952490
  58.3482530 106.9647800 123.9702560  66.5977160 105.6801370 111.4490780
  66.7729350 104.9939110 110.8051700  65.8998730 106.2048420 111.0567450
  62.1511170  88.2174130 124.7938880  62.0376620  88.5368740 125.6890400
  62.9680910  88.6186640 124.4976160  61.0569320  96.2366600  95.1573620
  60.9763370  95.3221210  94.8865330  60.6433740  96.7333670  94.4513330
  59.1887360  98.0145620  97.0382890  58.4129460  97.5346060  97.3281460
  59.8400290  97.3351270  96.8639050  63.2094790 102.4205810  95.8182020
  62.7476320 101.6493050  96.1469190  64.0220340 102.4471880  96.3234470
  59.4358100 104.7063820  95.4386010  58.8169540 105.1621320  94.8680450
  60.2909880 104.8615280  95.0375710  58.6296350 100.6902810  97.0453050
  58.5604630  99.7492750  96.8842180  59.3916210 100.7804220  97.6175620
  59.6601520  93.4973190  97.2721980  60.0366340  92.6245070  97.1595650
  59.5621030  93.8331890  96.3812420  63.6787120  92.9324010  96.9777860
  62.9742690  93.2208900  97.5580970  64.0399280  93.7424120  96.6177420
  49.6704650 100.2759590  90.2057550  49.2932630 100.7646690  89.4742450
  49.9277720 100.9484870  90.8364080  57.2793580  88.6775980  95.6643060
  57.5868560  88.1222870  94.9478560  56.3494280  88.8120440  95.4816050
  62.2294080  99.2973110  99.2833130  62.6462870  99.0833220  98.4486590
  62.9533900  99.5545900  99.8541750  63.6971630  98.3045110  92.9038430
  63.0784050  97.9664660  92.2564730  63.6796080  97.6604870  93.6117620
  63.1398190  94.4829650 100.3204240  62.7269370  95.3083360 100.5744230
  62.4074140  93.8974690 100.1280600  59.9831710 102.4827990  93.8792420
  60.4227620 103.2252320  93.4647810  59.9218600 102.7254560  94.8031380
  62.6501890 105.4697110  91.2355430  62.4903030 105.1800050  92.1337260
  62.4848600 104.6937240  90.7000660  55.1290270 105.2495640  93.0127050
  54.9532750 104.3331180  92.7994850  54.2746010 105.6082930  93.2524850
  62.3528020 102.9784670  89.7953430  61.6593180 102.9761960  89.1355710
  63.0950880 102.5543990  89.3647600  61.9177950 104.6047380  93.8701920
  62.3734900 103.8236760  94.1840540  62.2570470 105.3154200  94.4143100
  58.7269080  92.3738120 101.6688550  58.2648450  92.5821140 102.4808490
  58.3247190  91.5597470 101.3659220  56.4775170  90.0516930  97.9242830
  56.7747500  90.9579760  97.8434850  57.0260730  89.5635710  97.3102400
  61.4611250  94.6366540  92.3925130  60.8620140  95.3602340  92.2088750
  62.0090860  94.5743320  91.6101580  60.0676120  93.2730080  94.4228410
  60.4605690  93.5902280  93.6097100  60.4292970  92.3941960  94.5372930
  58.3768290  92.0237390 105.6825270  57.6866610  91.8309590 106.3171360
  59.1200590  92.3072030 106.2149570  60.6531260  95.8635830  98.5179190
  59.9212380  96.3722640  98.8669290  60.2555600  95.0465810  98.2167970
  61.1157170  91.3169510  97.9302130  61.1329910  91.7678160  98.7743980
  60.8672750  90.4175150  98.1435570  64.5427920  88.7301690 103.7688510
  64.8673690  87.9991350 104.2946490  64.5784430  88.4115330 102.8669500
  53.7097780  99.8461440  91.5848150  52.9360040  99.3059060  91.4246870
  54.4392410  99.3268050  91.2465910  64.4685760  98.8426800  97.3774540
  65.1884880  99.3382090  96.9870650  64.2667580  98.1644690  96.7328410
  59.7821290 101.7356430 103.0147340  59.7965830 100.8037390 102.7966250
  59.0746390 101.8216190 103.6537110  61.5232090 100.1023940  95.8599770
  61.8755910  99.5052070  95.2001140  60.6394420  99.7768170  96.0308020
  57.6095370 100.8621630  93.2670180  58.2966500 101.4090840  93.6477770
  56.8227790 101.4062360  93.3019790  59.2155190 103.3774000 100.1087840
  59.8597410 103.5833380 100.7861260  59.5784630 102.6162400  99.6558690
  60.4887270 101.3806350  98.8265290  61.1309500 100.6799510  98.9397460
  61.0136620 102.1604790  98.6462180  50.1159020 105.6921830  89.3248890
  50.4756660 106.2911170  88.6706160  49.9751360 106.2381720  90.0983920
  50.1000880 103.9576690 103.7991290  50.2092000 103.0171430 103.6586680
  49.4481440 104.2231440 103.1505020  58.0913470 102.2292580 105.1989410
  57.7710340 101.5101820 105.7435100  57.4171830 102.9047650 105.2725470
  51.7334280  98.2967920  90.8869320  51.1262230  99.0366820  90.8964620
  52.2083630  98.3867280  90.0607520  61.3067070  92.4618740 100.5626210
  61.6747890  91.6413950 100.8905780  60.4465270  92.5220630 100.9781860
  56.6413130  93.6961630  92.7871650  55.9329280  94.1647970  93.2285260
  56.9257610  93.0383640  93.4216840  57.7605350 105.6567590  93.4995420
  58.0146850 105.6188980  92.5774790  56.8117830 105.5300920  93.4923670
  65.4735920  91.3326290 101.6292570  64.9709520  92.0731690 101.9686380
  66.2892580  91.7210290 101.3129360  63.7657930  96.5759470  95.0753930
  62.8248070  96.5909700  95.2501620  64.0802000  95.7895430  95.5214230
  53.7439570  98.2579070  88.6357890  54.5102840  98.1460430  89.1983320
  53.8214260  97.5617040  87.9834660  52.4386330  95.6904140  89.3190780
  52.5189920  94.7431650  89.4308180  53.3306080  96.0211020  89.4251440
  50.1246520 101.9073100  92.2966830  49.1986300 102.1494240  92.2872240
  50.5902950 102.7347360  92.1751580  61.0823950 101.1325470 105.5586310
  60.4762110 101.1557070 104.8182060  60.7778060 100.4008510 106.0953560
  57.0195070  98.9190050 104.0882470  56.2540740  99.4875050 104.0037140
  57.2011030  98.6266260 103.1950700  57.1919760  89.7576360 100.5296190
  56.7437060  89.7800620  99.6841740  56.5584960  89.3595380 101.1266490
  57.5979310  98.6530690 101.1508630  58.0167420  99.4963420 100.9784870
  56.6787940  98.7902730 100.9215410  55.4486730 104.9583700 102.2666360
  54.9107820 105.6829760 101.9475060  55.7020690 104.4814040 101.4763700
  61.5205410  92.5434030 104.0255310  60.8320930  91.8815570 103.9605300
  62.2411430  92.0972300 104.4703770  58.3048940 106.1934910 102.5253010
  58.2307640 107.0970050 102.8325380  57.4027780 105.8746810 102.4975080
  52.4930430 100.7320470  88.3766370  52.9305300 101.2750140  89.0323950
  52.9778160  99.9067420  88.3862710  54.3038150 101.8518510  93.4888600
  54.0033690 101.7283480  94.3892510  54.1975640 100.9927100  93.0804330
  64.3058730  90.9793700 105.2570650  65.1828910  90.9877100 105.6404650
  64.3179570  90.2424540 104.6463000  51.7856160  93.1664790  88.7776850
  52.4947860  92.7448010  88.2924130  51.0696100  93.2340020  88.1460200
  58.3879330  89.8177860 103.9846860  58.3268220  90.4099690 104.7342270
  59.3279710  89.7103820 103.8397120  61.0253890  89.4747920 103.6239150
  61.6394300  89.7927210 102.9620230  61.5703450  88.9896510 104.2435010
  61.7661930  88.0380060  99.9508440  60.8921770  88.3715170  99.7481370
  61.6572680  87.5653240 100.7760310  62.6733910  90.2450930 101.3350160
  62.3447270  89.4302690 100.9551890  63.6216210  90.2020740 101.2115850
  58.2959740 105.2159700  98.3104840  58.5837550 104.9614000  97.4337850
  58.8082960 104.6637060  98.9010410  59.5136750  88.9549900  98.8901350
  58.7308540  89.4295400  99.1698110  59.2199680  88.0504730  98.7814530
  57.3990970  91.3736650  94.4017380  56.5865480  90.9993540  94.0613260
  57.9032610  90.6181730  94.7038570  51.8411840 104.1213830  91.3533350
  51.3159460 104.5021860  90.6495310  51.7656420 104.7464600  92.0743060
  58.3632100 106.1375800 105.6773040  59.2899410 105.9020070 105.7209000
  58.3482530 106.9647800 105.1959070  53.6019600 102.1860940  90.2328930
  52.9728480 102.6546040  90.7814760  53.7167430 101.3410160  90.6675120
  62.1511170  88.2174130 106.0195390  62.0376620  88.5368740 106.9146910
  62.9680910  88.6186640 105.7232670  61.0569320  96.2366600  76.3830130
  60.9763370  95.3221210  76.1121840  60.6433740  96.7333670  75.6769840
  59.1887360  98.0145620  78.2639400  58.4129460  97.5346060  78.5537970
  59.8400290  97.3351270  78.0895560  63.2094790 102.4205810  77.0438530
  62.7476320 101.6493050  77.3725700  64.0220340 102.4471880  77.5490980
  53.1854450 102.3605520  79.3373180  53.4882490 101.4703260  79.1583400
  53.9298040 102.9175740  79.1095430  51.6145140  93.2867320  72.9257550
  50.7261840  93.6283290  72.8237430  51.8986330  93.0867640  72.0338380
  59.4358100 104.7063820  76.6642520  58.8169540 105.1621320  76.0936960
  60.2909880 104.8615280  76.2632220  58.6296350 100.6902810  78.2709560
  58.5604630  99.7492750  78.1098690  59.3916210 100.7804220  78.8432130
  50.8203020  91.2957330  80.5966180  50.6405860  90.3983080  80.8768940
  50.4183100  91.8429200  81.2713130  59.6601520  93.4973190  78.4978490
  60.0366340  92.6245070  78.3852160  59.5621030  93.8331890  77.6068930
  53.7906530  91.8698820  73.9595930  53.8973280  92.7702550  74.2664690
  52.8798890  91.8216790  73.6690580  55.6314260  94.8385190  78.2921110
  56.1392480  95.3366160  78.9326130  56.1627500  94.0620390  78.1160470
  60.3021450  99.5903060  74.0574430  59.6838720 100.0552510  73.4937150
  60.8144700 100.2830540  74.4743940  55.1653210  99.1178930  80.7358030
  54.8322590  99.7447850  81.3779100  55.3419890  99.6440810  79.9559700
  65.2949900 102.5499140  80.4661850  64.6113420 103.2198250  80.4578520
  65.8344190 102.7479790  79.7006710  57.2793580  88.6775980  76.8899570
  57.5868560  88.1222870  76.1735070  56.3494280  88.8120440  76.7072560
  62.8308640 104.3943270  79.1807030  62.8435800 103.9905560  78.3129290
  62.2783860 105.1690560  79.0768460  64.1254060 101.1159490  74.2697200
  64.0150390 100.1733820  74.3946620  64.1222310 101.4775130  75.1559960
  62.2294080  99.2973110  80.5089640  62.6462870  99.0833220  79.6743100
  62.9533900  99.5545900  81.0798260  59.6674340  96.7424810  73.6259690
  58.7403620  96.6762190  73.8548160  59.8199160  97.6804940  73.5114930
  66.1756180  97.6960330  80.6005880  65.3474810  97.7653420  80.1256010
  66.7706660  98.2814640  80.1321710  63.6971630  98.3045110  74.1294940
  63.0784050  97.9664660  73.4821240  63.6796080  97.6604870  74.8374130
  55.2730980  97.2689550  76.4079420  54.8687980  96.5566800  75.9125320
  55.3594100  96.9242790  77.2967460  55.7412680 100.9557110  78.5718630
  55.4440970 100.3502580  77.8926410  56.6912500 100.9934420  78.4607990
  53.9859600  94.0432760  80.1878460  54.5374190  94.1528100  79.4131710
  54.5003110  94.4170360  80.9033690  63.8298290 104.5288980  82.2341730
  63.3528850 105.3361170  82.0414340  63.1460080 103.8767310  82.3867940
  54.8331110 100.6938800  85.2226430  53.9359640 100.9178770  85.4699830
  54.8583980 100.8173740  84.2737830  53.6602330  97.5652120  83.7983800
  53.5210100  98.4374920  84.1671200  52.7783690  97.2224930  83.6531740
  59.9831710 102.4827990  75.1048930  60.4227620 103.2252320  74.6904320
  59.9218600 102.7254560  76.0287890  51.9735610  96.1634530  73.9086070
  51.8533210  96.8896620  73.2967340  51.6636500  95.3937440  73.4313980
  50.8568610 101.0349860  76.1260890  50.4496690 101.1764450  75.2714490
  51.7481620 100.7510020  75.9232100  62.6501890 105.4697110  72.4611940
  62.4903030 105.1800050  73.3593770  62.4848600 104.6937240  71.9257170
  55.1290270 105.2495640  74.2383560  54.9532750 104.3331180  74.0251360
  54.2746010 105.6082930  74.4781360  62.3528020 102.9784670  71.0209940
  61.6593180 102.9761960  70.3612220  63.0950880 102.5543990  70.5904110
  61.9177950 104.6047380  75.0958430  62.3734900 103.8236760  75.4097050
  62.2570470 105.3154200  75.6399610  58.7269080  92.3738120  82.8945060
  58.2648450  92.5821140  83.7065000  58.3247190  91.5597470  82.5915730
  54.2313490  94.6303170  75.0190990  54.0054410  94.4140340  75.9237610
  53.4506020  95.0631630  74.6736960  61.4611250  94.6366540  73.6181640
  60.8620140  95.3602340  73.4345260  62.0090860  94.5743320  72.8358090
  60.0676120  93.2730080  75.6484920  60.4605690  93.5902280  74.8353610
  60.4292970  92.3941960  75.7629440  51.8023240  91.9402420  83.8385040
  51.4086630  92.7877630  84.0457820  51.1141640  91.3028790  84.0293680
  58.3768290  92.0237390  86.9081780  57.6866610  91.8309590  87.5427870
  59.1200590  92.3072030  87.4406080  49.1040290  89.8630880  77.8715120
  48.8153340  90.4333740  78.5840100  49.8486050  89.3835330  78.2346350
  60.6531260  95.8635830  79.7435700  59.9212380  96.3722640  80.0925800
  60.2555600  95.0465810  79.4424480  57.0908650  92.5390030  78.1488190
  57.0944710  92.0979980  77.2992730  57.9859770  92.8607360  78.2560010
  52.9411030  92.4216520  77.1082400  52.6011080  92.8991750  77.8649450
  52.1788350  91.9681640  76.7483500  57.1528800  93.5402110  71.1394950
  57.2741620  93.4988590  72.0880770  56.7677310  94.4026260  70.9841680
  61.1157170  91.3169510  79.1558640  61.1329910  91.7678160  80.0000490
  60.8672750  90.4175150  79.3692080  56.1650300  95.8503250  70.5378250
  55.5967200  95.4021500  69.9114160  56.8739300  96.2096030  70.0043400
  57.3916620  96.5991810  79.8953600  57.7586750  96.1250380  80.6414940
  57.2021680  97.4733380  80.2361940  50.2557110  91.3435500  76.0247070
  49.9704030  90.9791170  76.8625690  50.1935970  90.6115960  75.4110210
  55.1815990  95.6400450  82.2137810  54.8773060  96.5192430  82.4388170
  56.1362450  95.7000240  82.2495250  53.7097780  99.8461440  72.8104660
  52.9360040  99.3059060  72.6503380  54.4392410  99.3268050  72.4722420
  64.4685760  98.8426800  78.6031050  65.1884880  99.3382090  78.2127160
  64.2667580  98.1644690  77.9584920  59.8504560  98.9135860  84.4900050
  59.7841870  97.9931530  84.2357640  59.2209700  99.0111300  85.2044690
  53.7535180  99.5141820  76.4483470  54.2713850  98.7110080  76.3940360
  53.3019200  99.4520960  77.2900300  58.6404680 100.7808100  71.7210770
  58.9820380 101.5250330  71.2254090  57.8117390 101.0939220  72.0835600
  54.4392840  96.9387430  86.2448720  54.1392980  97.0844610  85.3476540
  55.2104080  96.3792720  86.1522110  59.7821290 101.7356430  84.2403850
  59.7965830 100.8037390  84.0222760  59.0746390 101.8216190  84.8793620
  61.5232090 100.1023940  77.0856280  61.8755910  99.5052070  76.4257650
  60.6394420  99.7768170  77.2564530  57.6095370 100.8621630  74.4926690
  58.2966500 101.4090840  74.8734280  56.8227790 101.4062360  74.5276300
  56.9122580  97.8667660  74.1052050  57.3685360  98.6772910  74.3312240
  56.5610790  97.5490800  74.9370540  59.2155190 103.3774000  81.3344350
  59.8597410 103.5833380  82.0117770  59.5784630 102.6162400  80.8815200
  52.8134360  88.2105310  74.5774570  52.6848990  88.2023210  75.5259490
  51.9896380  88.5488400  74.2265580  60.4887270 101.3806350  80.0521800
  61.1309500 100.6799510  80.1653970  61.0136620 102.1604790  79.8718690
  64.3342990 101.6654970  69.7760940  64.1080570 100.9485410  70.3685580
  63.9439190 101.4167410  68.9382690  62.2624890 102.1801250  83.2557860
  62.5981130 102.7667940  83.9335780  61.3425230 102.0493960  83.4855650
  63.9159240  99.5826910  71.4375100  63.6280940 100.0439600  72.2252980
  64.7111410  99.1224680  71.7059320  50.1000880 103.9576690  85.0247800
  50.2092000 103.0171430  84.8843190  49.4481440 104.2231440  84.3761530
  56.1327640 103.0753030  71.3679070  56.1237740 103.8082720  70.7523580
  55.2126000 102.8284610  71.4606030  51.7334280  98.2967920  72.1125830
  51.1262230  99.0366820  72.1221130  52.2083630  98.3867280  71.2864030
  61.3067070  92.4618740  81.7882720  61.6747890  91.6413950  82.1162290
  60.4465270  92.5220630  82.2038370  59.1187240 103.1381270  70.0304260
  59.2199220 102.9345260  69.1006240  58.2188980 102.8839550  70.2352040
  56.6413130  93.6961630  74.0128160  55.9329280  94.1647970  74.4541770
  56.9257610  93.0383640  74.6473350  58.2669060  95.1158330  82.0120690
  58.7654310  95.5904150  82.6772540  58.4092010  94.1921850  82.2190720
  60.6728560  90.4212290  75.4523950  60.5496340  90.4398420  74.5033460
  61.6213120  90.4691230  75.5722350  57.7605350 105.6567590  74.7251930
  58.0146850 105.6188980  73.8031300  56.8117830 105.5300920  74.7180180
  63.7657930  96.5759470  76.3010440  62.8248070  96.5909700  76.4758130
  64.0802000  95.7895430  76.7470740  53.7439570  98.2579070  69.8614400
  54.5102840  98.1460430  70.4239830  53.8214260  97.5617040  69.2091170
  52.4386330  95.6904140  70.5447290  52.5189920  94.7431650  70.6564690
  53.3306080  96.0211020  70.6507950  53.2401040 105.8399530  77.6481830
  53.9763520 105.2914990  77.9190400  53.6241960 106.7055540  77.5087820
  52.2459320 105.0245600  86.8367410  53.0472050 105.3457650  87.2502810
  51.7311140 104.6641180  87.5587320  56.3503350 105.0129840  69.4707400
  57.1431960 105.3018670  69.0189190  55.8307700 104.5822010  68.7919880
  61.0823950 101.1325470  86.7842820  60.4762110 101.1557070  86.0438570
  60.7778060 100.4008510  87.3210070  65.4033520 104.2399970  70.8944140
  65.1175030 103.8265110  70.0798320  65.2053070 105.1687680  70.7744660
  56.8680750 100.2333250  69.3349750  56.7631390  99.6185600  70.0611130
  56.7004970  99.7099140  68.5512760  57.0195070  98.9190050  85.3138980
  56.2540740  99.4875050  85.2293650  57.2011030  98.6266260  84.4207210
  60.1083480  99.2953280  69.9391740  59.5593580  99.7422580  70.5834480
  60.7302740  98.7902530  70.4629410  51.9980210  95.6548650  86.6753530
  52.0385550  95.3562520  87.5838760  52.8525710  96.0556260  86.5161050
  55.7758600  98.2544200  71.8357040  56.1975020  98.0884070  72.6788430
  55.9009440  97.4444430  71.3412180  53.9386020  94.2340750  84.6428020
  53.4082480  93.7431700  84.0151360  54.6074090  94.6624950  84.1085950
  58.2886240  97.2781810  69.0834140  58.8091900  96.5630830  68.7175290
  58.9354640  97.9167680  69.3834650  57.5979310  98.6530690  82.3765140
  58.0167420  99.4963420  82.2041380  56.6787940  98.7902730  82.1471920
  59.9343210  96.3846870  83.7602980  60.0539420  95.7888010  84.4997820
  60.7937210  96.4216560  83.3404280  54.6717500  94.3277430  68.7815200
  54.4706560  93.4644790  69.1428540  54.5009550  94.2410790  67.8436800
  55.4486730 104.9583700  83.4922870  54.9107820 105.6829760  83.1731570
  55.7020690 104.4814040  82.7020210  56.7011980  92.9268220  85.0178800
  57.2911670  92.6184070  85.7056620  55.8832220  92.4547970  85.1738700
  61.5205410  92.5434030  85.2511820  60.8320930  91.8815570  85.1861810
  62.2411430  92.0972300  85.6960280  58.8534270 105.3593420  71.3735880
  59.7485060 105.6978390  71.3954640  58.8851900 104.6372830  70.7460160
  49.7076230 103.5209500  77.0543140  50.0379240 102.6530560  76.8221780
  50.1367230 103.7268020  77.8848100  54.3038150 101.8518510  74.7145110
  54.0033690 101.7283480  75.6149020  54.1975640 100.9927100  74.3060840
  50.1966440 104.3880090  79.7924770  49.7597430 104.5680890  80.6248920
  50.7644120 105.1454710  79.6506490  50.0290870  96.9000320  76.1513650
  49.3739710  96.6311960  75.5073350  50.8668820  96.7904800  75.7015630
  64.5180260 100.6149070  82.1778240  63.7040100 101.0446230  82.4404030
  64.9254460 101.2267480  81.5647290  49.2428950  94.1099250  72.0938980
  48.3393030  94.3729450  71.9190640  49.7269570  94.3810420  71.3138940
  51.7856160  93.1664790  70.0033360  52.4947860  92.7448010  69.5180640
  51.0696100  93.2340020  69.3716710  65.0174850  88.6651670  82.3028270
  65.6547070  89.2785810  82.6687460  65.1649740  88.7012330  81.3577500
  56.1824910 103.3545170  81.4546860  55.9416270 103.6219730  80.5677380
  57.1227550 103.5250900  81.5097720  61.0253890  89.4747920  84.8495660
  61.6394300  89.7927210  84.1876740  61.5703450  88.9896510  85.4691520
  52.3206910 104.7447830  82.9734920  51.7267230 104.6132530  83.7124960
  52.3130750 103.9085970  82.5077020  61.7661930  88.0380060  81.1764950
  60.8921770  88.3715170  80.9737880  61.6572680  87.5653240  82.0016820
  62.6733910  90.2450930  82.5606670  62.3447270  89.4302690  82.1808400
  63.6216210  90.2020740  82.4372360  65.1268520 106.0162970  79.5344240
  64.6671490 106.7678780  79.1602260  64.4980980 105.2969440  79.4759040
  55.5564240 104.3251210  78.7092370  56.0729260 103.7138570  78.1840630
  56.2061620 104.8279990  79.2003380  59.5136750  88.9549900  80.1157860
  58.7308540  89.4295400  80.3954620  59.2199680  88.0504730  80.0071040
  50.2349140 105.4280600  75.1339720  50.0671180 104.7951280  75.8321610
  49.3683650 105.6340000  74.7833910  50.8577160  89.2597380  72.6371580
  51.6156520  89.3726260  72.0635610  50.3954330  90.0966580  72.5915010
  57.3990970  91.3736650  75.6273890  56.5865480  90.9993540  75.2869770
  57.9032610  90.6181730  75.9295080  61.9015950  88.0379100  76.8656960
  62.5045320  88.6099310  77.3405480  61.1608940  88.6018540  76.6430860
  53.2302310  89.7861430  71.1773550  53.7595070  88.9991230  71.0481500
  53.8630630  90.4652620  71.4109080  55.4240150  89.5236570  74.2318940
  54.7942890  88.8223880  74.3989070  54.8845290  90.2840700  74.0152100
  53.6019600 102.1860940  71.4585440  52.9728480 102.6546040  72.0071270
  53.7167430 101.3410160  71.8931630  58.6296350 100.6902810  59.4966070
  58.5604630  99.7492750  59.3355200  59.3916210 100.7804220  60.0688640
  50.8203020  91.2957330  61.8222690  50.6405860  90.3983080  62.1025450
  50.4183100  91.8429200  62.4969640  51.4389690  93.7917830  60.4305030
  52.1199800  94.0556200  61.0492430  51.1237740  92.9518700  60.7643040
  53.9150360  89.4783750  63.7841040  53.9168800  89.9956140  62.9786940
  53.0854670  89.0013930  63.7610970  55.1653210  99.1178930  61.9614540
  54.8322590  99.7447850  62.6035610  55.3419890  99.6440810  61.1816210
  53.5965690  91.1893710  61.7911490  53.9382500  92.0335760  61.4965360
  52.6581500  91.3377450  61.9076830  49.6704650 100.2759590  52.6570570
  49.2932630 100.7646690  51.9255470  49.9277720 100.9484870  53.2877100
  64.1254060 101.1159490  55.4953710  64.0150390 100.1733820  55.6203130
  64.1222310 101.4775130  56.3816470  55.7412680 100.9557110  59.7975140
  55.4440970 100.3502580  59.1182920  56.6912500 100.9934420  59.6864500
  54.8331110 100.6938800  66.4482940  53.9359640 100.9178770  66.6956340
  54.8583980 100.8173740  65.4994340  53.6602330  97.5652120  65.0240310
  53.5210100  98.4374920  65.3927710  52.7783690  97.2224930  64.8788250
  59.9831710 102.4827990  56.3305440  60.4227620 103.2252320  55.9160830
  59.9218600 102.7254560  57.2544400  55.4582680 103.5073820  67.2325460
  55.4298110 103.9116770  66.3653890  55.2947650 102.5784180  67.0697060
  51.9735610  96.1634530  55.1342580  51.8533210  96.8896620  54.5223850
  51.6636500  95.3937440  54.6570490  66.8130750 101.4813770  65.6889640
  66.9393810 101.2425650  64.7706820  66.8552130 100.6498310  66.1611720
  62.6501890 105.4697110  53.6868450  62.4903030 105.1800050  54.5850280
  62.4848600 104.6937240  53.1513680  62.3528020 102.9784670  52.2466450
  61.6593180 102.9761960  51.5868730  63.0950880 102.5543990  51.8160620
  61.9177950 104.6047380  56.3214940  62.3734900 103.8236760  56.6353560
  62.2570470 105.3154200  56.8656120  56.6712700  95.5288750  66.9107770
  56.5756300  94.5883480  66.7608170  57.5144680  95.7503820  66.5155840
  49.1040290  89.8630880  59.0971630  48.8153340  90.4333740  59.8096610
  49.8486050  89.3835330  59.4602860  49.2910520  93.8051000  50.3074350
  49.2085190  94.7481760  50.4489340  48.9393580  93.6625910  49.4286700
  57.3916620  96.5991810  61.1210110  57.7586750  96.1250380  61.8671450
  57.2021680  97.4733380  61.4618450  50.2557110  91.3435500  57.2503580
  49.9704030  90.9791170  58.0882200  50.1935970  90.6115960  56.6366720
  55.1815990  95.6400450  63.4394320  54.8773060  96.5192430  63.6644680
  56.1362450  95.7000240  63.4751760  53.7097780  99.8461440  54.0361170
  52.9360040  99.3059060  53.8759890  54.4392410  99.3268050  53.6978930
  59.8504560  98.9135860  65.7156560  59.7841870  97.9931530  65.4614150
  59.2209700  99.0111300  66.4301200  53.7535180  99.5141820  57.6739980
  54.2713850  98.7110080  57.6196870  53.3019200  99.4520960  58.5156810
  58.6404680 100.7808100  52.9467280  58.9820380 101.5250330  52.4510600
  57.8117390 101.0939220  53.3092110  54.4392840  96.9387430  67.4705230
  54.1392980  97.0844610  66.5733050  55.2104080  96.3792720  67.3778620
  59.7821290 101.7356430  65.4660360  59.7965830 100.8037390  65.2479270
  59.0746390 101.8216190  66.1050130  65.9445610 102.7738510  54.4641100
  65.3021770 102.1194130  54.7384820  65.5576270 103.1793600  53.6881770
  57.6095370 100.8621630  55.7183200  58.2966500 101.4090840  56.0990790
  56.8227790 101.4062360  55.7532810  49.7487770  96.4794450  51.2100280
  50.6182620  96.7619250  51.4936200  49.2578090  97.2930320  51.0949090
  64.3342990 101.6654970  51.0017450  64.1080570 100.9485410  51.5942090
  63.9439190 101.4167410  50.1639200  62.2624890 102.1801250  64.4814370
  62.5981130 102.7667940  65.1592290  61.3425230 102.0493960  64.7112160
  63.9159240  99.5826910  52.6631610  63.6280940 100.0439600  53.4509490
  64.7111410  99.1224680  52.9315830  58.0913470 102.2292580  67.6502430
  57.7710340 101.5101820  68.1948120  57.4171830 102.9047650  67.7238490
  56.1327640 103.0753030  52.5935580  56.1237740 103.8082720  51.9780090
  55.2126000 102.8284610  52.6862540  51.7334280  98.2967920  53.3382340
  51.1262230  99.0366820  53.3477640  52.2083630  98.3867280  52.5120540
  59.1187240 103.1381270  51.2560770  59.2199220 102.9345260  50.3262750
  58.2188980 102.8839550  51.4608550  57.7605350 105.6567590  55.9508440
  58.0146850 105.6188980  55.0287810  56.8117830 105.5300920  55.9436690
  50.1246520 101.9073100  54.7479850  49.1986300 102.1494240  54.7385260
  50.5902950 102.7347360  54.6264600  56.3503350 105.0129840  50.6963910
  57.1431960 105.3018670  50.2445700  55.8307700 104.5822010  50.0176390
  61.0823950 101.1325470  68.0099330  60.4762110 101.1557070  67.2695080
  60.7778060 100.4008510  68.5466580  62.5124320 104.8605760  66.6208740
  63.4646070 104.7763780  66.5708980  62.3652540 105.5247470  67.2942530
  65.4033520 104.2399970  52.1200650  65.1175030 103.8265110  51.3054830
  65.2053070 105.1687680  52.0001170  57.0195070  98.9190050  66.5395490
  56.2540740  99.4875050  66.4550160  57.2011030  98.6266260  65.6463720
  64.1618420 100.6495380  67.0970510  64.9027890 100.9871140  66.5937970
  63.3991100 100.8187440  66.5440280  53.9386020  94.2340750  65.8684530
  53.4082480  93.7431700  65.2407870  54.6074090  94.6624950  65.3342460
  62.8364080  98.7010210  65.6325720  63.2505100  98.8555290  66.4816140
  61.9015080  98.8265430  65.7951500  54.4258320  91.2003120  65.9481820
  54.3315190  90.5823870  65.2232690  53.8455710  91.9269410  65.7211730
  57.5979310  98.6530690  63.6021650  58.0167420  99.4963420  63.4297890
  56.6787940  98.7902730  63.3728430  58.3048940 106.1934910  64.9766030
  58.2307640 107.0970050  65.2838400  57.4027780 105.8746810  64.9488100
  58.8534270 105.3593420  52.5992390  59.7485060 105.6978390  52.6211150
  58.8851900 104.6372830  51.9716670  52.4930430 100.7320470  50.8279390
  52.9305300 101.2750140  51.4836970  52.9778160  99.9067420  50.8375730
  54.3038150 101.8518510  55.9401620  54.0033690 101.7283480  56.8405530
  54.1975640 100.9927100  55.5317350  65.8328620 103.8897090  65.3058590
  65.2330610 103.9489650  64.5622510  65.9622520 102.9502070  65.4355440
  67.0730070 101.6314910  50.6428300  66.2423030 101.6991560  51.1135530
  67.2501900 102.5219030  50.3395160  64.5180260 100.6149070  63.4034750
  63.7040100 101.0446230  63.6660540  64.9254460 101.2267480  62.7903800
  49.2428950  94.1099250  53.3195490  48.3393030  94.3729450  53.1447150
  49.7269570  94.3810420  52.5395450  51.1222510  88.4710310  60.1715140
  51.7698700  87.9207690  59.7310300  51.5424350  88.7253460  60.9930950
  50.8754510  88.6265980  62.9140460  50.5269330  89.0829800  63.6798640
  50.5442210  87.7323110  62.9962890  67.4429070 105.3739550  63.4814010
  66.9487350 105.7708420  62.7641140  66.8342360 104.7488760  63.8751290
  58.3632100 106.1375800  68.1286060  59.2899410 105.9020070  68.1722020
  58.3482530 106.9647800  67.6472090  66.5977160 105.6801370  55.1260310
  66.7729350 104.9939110  54.4821230  65.8998730 106.2048420  54.7336980
  55.5495710  88.8020550  67.8927940  55.2679980  89.3054150  67.1288760
  55.9315410  88.0042300  67.5270070  53.6019600 102.1860940  52.6841950
  52.9728480 102.6546040  53.2327780  53.7167430 101.3410160  53.1188140
  64.9309660 105.3645660  67.9527100  65.7234980 104.8694890  67.7453060
  65.2242810 106.0435800  68.5602710  61.0569320  96.2366600  38.8343150
  60.9763370  95.3221210  38.5634860  60.6433740  96.7333670  38.1282860
  59.1887360  98.0145620  40.7152420  58.4129460  97.5346060  41.0050990
  59.8400290  97.3351270  40.5408580  53.2053190  98.3265430  41.5928180
  52.3738070  98.0714140  41.9924690  53.8134170  98.3976200  42.3286100
  63.2094790 102.4205810  39.4951550  62.7476320 101.6493050  39.8238720
  64.0220340 102.4471880  40.0004000  53.1854450 102.3605520  41.7886200
  53.4882490 101.4703260  41.6096420  53.9298040 102.9175740  41.5608450
  59.4358100 104.7063820  39.1155540  58.8169540 105.1621320  38.5449980
  60.2909880 104.8615280  38.7145240  58.6296350 100.6902810  40.7222580
  58.5604630  99.7492750  40.5611710  59.3916210 100.7804220  41.2945150
  50.8203020  91.2957330  43.0479200  50.6405860  90.3983080  43.3281960
  50.4183100  91.8429200  43.7226150  59.6601520  93.4973190  40.9491510
  60.0366340  92.6245070  40.8365180  59.5621030  93.8331890  40.0581950
  63.4425640  90.9923630  37.8819850  64.2635260  90.5020200  37.9245330
  63.4759720  91.5821290  38.6351690  60.3021450  99.5903060  36.5087450
  59.6838720 100.0552510  35.9450170  60.8144700 100.2830540  36.9256960
  55.1653210  99.1178930  43.1871050  54.8322590  99.7447850  43.8292120
  55.3419890  99.6440810  42.4072720  54.3772310 101.0859730  45.0020230
  54.9946310 101.7610810  44.7204680  53.5165430 101.4947710  44.9107730
  65.2949900 102.5499140  42.9174870  64.6113420 103.2198250  42.9091540
  65.8344190 102.7479790  42.1519730  62.8308640 104.3943270  41.6320050
  62.8435800 103.9905560  40.7642310  62.2783860 105.1690560  41.5281480
  64.1254060 101.1159490  36.7210220  64.0150390 100.1733820  36.8459640
  64.1222310 101.4775130  37.6072980  59.6674340  96.7424810  36.0772710
  58.7403620  96.6762190  36.3061180  59.8199160  97.6804940  35.9627950
  59.6543420  93.0141810  33.0739870  58.7147090  93.1755770  33.1592330
  59.9726680  93.7327490  32.5275860  63.6971630  98.3045110  36.5807960
  63.0784050  97.9664660  35.9334260  63.6796080  97.6604870  37.2887150
  55.7412680 100.9557110  41.0231650  55.4440970 100.3502580  40.3439430
  56.6912500 100.9934420  40.9121010  63.8298290 104.5288980  44.6854750
  63.3528850 105.3361170  44.4927360  63.1460080 103.8767310  44.8380960
  61.8736330  97.5431920  33.5880710  62.3129610  96.7054350  33.4418530
  62.5864750  98.1761320  33.6744850  59.9831710 102.4827990  37.5561950
  60.4227620 103.2252320  37.1417340  59.9218600 102.7254560  38.4800910
  55.4582680 103.5073820  48.4581970  55.4298110 103.9116770  47.5910400
  55.2947650 102.5784180  48.2953570  65.4553470  88.7974730  31.9021750
  65.1426130  88.8901560  32.8020820  66.2165940  89.3755760  31.8519180
  67.4097500 104.2900920  49.7546140  67.8857220 104.7683810  50.4335220
  68.0304660 104.2218410  49.0291640  49.6120980  99.3349670  42.1667730
  49.6901400  99.4698440  41.2223450  50.2262660  98.6265560  42.3595850
  50.8568610 101.0349860  38.5773910  50.4496690 101.1764450  37.7227510
  51.7481620 100.7510020  38.3745120  60.6747490 105.1841770  45.4840960
  61.1892160 105.0949780  46.2863390  59.8316570 105.5301470  45.7768870
  62.6501890 105.4697110  34.9124960  62.4903030 105.1800050  35.8106790
  62.4848600 104.6937240  34.3770190  55.1290270 105.2495640  36.6896580
  54.9532750 104.3331180  36.4764380  54.2746010 105.6082930  36.9294380
  62.3528020 102.9784670  33.4722960  61.6593180 102.9761960  32.8125240
  63.0950880 102.5543990  33.0417130  61.9177950 104.6047380  37.5471450
  62.3734900 103.8236760  37.8610070  62.2570470 105.3154200  38.0912630
  49.6680500 100.3763840  44.7062190  49.8311540  99.9069200  43.8881560
  50.1332950  99.8687400  45.3711030  54.4399270  89.5069600  39.7422760
  53.9967420  90.2879140  39.4107280  54.9984260  89.8299490  40.4493700
  56.4775170  90.0516930  41.6012360  56.7747500  90.9579760  41.5204380
  57.0260730  89.5635710  40.9871930  61.4611250  94.6366540  36.0694660
  60.8620140  95.3602340  35.8858280  62.0090860  94.5743320  35.2871110
  60.0676120  93.2730080  38.0997940  60.4605690  93.5902280  37.2866630
  60.4292970  92.3941960  38.2142460  49.1040290  89.8630880  40.3228140
  48.8153340  90.4333740  41.0353120  49.8486050  89.3835330  40.6859370
  52.9411030  92.4216520  39.5595420  52.6011080  92.8991750  40.3162470
  52.1788350  91.9681640  39.1996520  56.1650300  95.8503250  32.9891270
  55.5967200  95.4021500  32.3627180  56.8739300  96.2096030  32.4556420
  51.2419480  99.7515270  46.8658000  50.8574270  99.1108940  47.4640960
  51.5531670 100.4551390  47.4352730  50.2557110  91.3435500  38.4760090
  49.9704030  90.9791170  39.3138710  50.1935970  90.6115960  37.8623230
  62.6444090  94.6084410  33.4935620  63.5323710  94.9201640  33.3186960
  62.6149180  93.7356660  33.1016200  53.7535180  99.5141820  38.8996490
  54.2713850  98.7110080  38.8453380  53.3019200  99.4520960  39.7413320
  58.6404680 100.7808100  34.1723790  58.9820380 101.5250330  33.6767110
  57.8117390 101.0939220  34.5348620  59.7821290 101.7356430  46.6916870
  59.7965830 100.8037390  46.4735780  59.0746390 101.8216190  47.3306640
  64.9158360  95.9196250  32.9615480  64.8322080  96.3510470  32.1111920
  65.6352550  96.3794600  33.3942300  65.9445610 102.7738510  35.6897610
  65.3021770 102.1194130  35.9641330  65.5576270 103.1793600  34.9138280
  61.5232090 100.1023940  39.5369300  61.8755910  99.5052070  38.8770670
  60.6394420  99.7768170  39.7077550  57.6095370 100.8621630  36.9439710
  58.2966500 101.4090840  37.3247300  56.8227790 101.4062360  36.9789320
  56.9122580  97.8667660  36.5565070  57.3685360  98.6772910  36.7825260
  56.5610790  97.5490800  37.3883560  59.2155190 103.3774000  43.7857370
  59.8597410 103.5833380  44.4630790  59.5784630 102.6162400  43.3328220
  52.8134360  88.2105310  37.0287590  52.6848990  88.2023210  37.9772510
  51.9896380  88.5488400  36.6778600  60.4887270 101.3806350  42.5034820
  61.1309500 100.6799510  42.6166990  61.0136620 102.1604790  42.3231710
  62.2624890 102.1801250  45.7070880  62.5981130 102.7667940  46.3848800
  61.3425230 102.0493960  45.9368670  49.8128290  89.9696430  46.4894290
  49.0986810  90.1693350  47.0946900  50.2323330  89.1936000  46.8609090
  63.9159240  99.5826910  33.8888120  63.6280940 100.0439600  34.6766000
  64.7111410  99.1224680  34.1572340  58.0913470 102.2292580  48.8758940
  57.7710340 101.5101820  49.4204630  57.4171830 102.9047650  48.9495000
  64.6729100  91.4175680  35.0483300  64.0442260  91.5221350  34.3341530
  64.1781020  91.6372460  35.8377180  59.1187240 103.1381270  32.4817280
  59.2199220 102.9345260  31.5519260  58.2188980 102.8839550  32.6865060
  60.6728560  90.4212290  37.9036970  60.5496340  90.4398420  36.9546480
  61.6213120  90.4691230  38.0235370  57.7605350 105.6567590  37.1764950
  58.0146850 105.6188980  36.2544320  56.8117830 105.5300920  37.1693200
  63.7657930  96.5759470  38.7523460  62.8248070  96.5909700  38.9271150
  64.0802000  95.7895430  39.1983760  65.7683510 103.7468320  40.4277720
  65.8930930 104.5699490  40.9001530  66.6349070 103.5359050  40.0801870
  56.3503350 105.0129840  31.9220420  57.1431960 105.3018670  31.4702210
  55.8307700 104.5822010  31.2432900  62.5124320 104.8605760  47.8465250
  63.4646070 104.7763780  47.7965490  62.3652540 105.5247470  48.5199040
  49.9657130  97.5119060  48.2316480  50.4696150  96.9326340  48.8032710
  49.2264550  97.7959290  48.7692850  60.1083480  99.2953280  32.3904760
  59.5593580  99.7422580  33.0347500  60.7302740  98.7902530  32.9142430
  55.7758600  98.2544200  34.2870060  56.1975020  98.0884070  35.1301450
  55.9009440  97.4444430  33.7925200  58.2886240  97.2781810  31.5347160
  58.8091900  96.5630830  31.1688310  58.9354640  97.9167680  31.8347670
  54.6717500  94.3277430  31.2328220  54.4706560  93.4644790  31.5941560
  54.5009550  94.2410790  30.2949820  55.4486730 104.9583700  45.9435890
  54.9107820 105.6829760  45.6244590  55.7020690 104.4814040  45.1533230
  62.1505810  89.1385660  33.7615100  62.4308100  88.2953560  34.1174520
  61.3771540  89.3708770  34.2753850  58.3048940 106.1934910  46.2022540
  58.2307640 107.0970050  46.5094910  57.4027780 105.8746810  46.1744610
  58.8534270 105.3593420  33.8248900  59.7485060 105.6978390  33.8467660
  58.8851900 104.6372830  33.1973180  54.3038150 101.8518510  37.1658130
  54.0033690 101.7283480  38.0662040  54.1975640 100.9927100  36.7573860
  65.8328620 103.8897090  46.5315100  65.2330610 103.9489650  45.7879020
  65.9622520 102.9502070  46.6611950  62.9781310  91.6941610  32.8245160
  63.3966190  91.5072590  31.9841820  62.6717370  90.8420660  33.1348090
  51.0666800  97.2852890  43.1430010  51.4339840  97.1980290  44.0226030
  50.4977620  96.5219440  43.0436870  65.2421970  94.0896590  35.7620610
  65.7381090  93.8567460  36.5469490  65.0438040  93.2508430  35.3458250
  51.1222510  88.4710310  41.3971650  51.7698700  87.9207690  40.9566810
  51.5424350  88.7253460  42.2187460  67.5599400  90.5565460  31.5364430
  68.4848710  90.4246640  31.3282720  67.5375190  90.6358280  32.4900880
  67.6337890  91.3276120  34.1621140  66.8389390  91.2621240  34.6914050
  67.8381170  92.2626760  34.1506490  64.5756310 105.3667670  38.1559530
  65.1715380 105.0452240  37.4793950  64.8334460 104.8939490  38.9472800
  50.8754510  88.6265980  44.1396970  50.5269330  89.0829800  44.9055150
  50.5442210  87.7323110  44.2219400  56.1824910 103.3545170  43.9059880
  55.9416270 103.6219730  43.0190400  57.1227550 103.5250900  43.9610740
  67.4429070 105.3739550  44.7070520  66.9487350 105.7708420  43.9897650
  66.8342360 104.7488760  45.1007800  52.3206910 104.7447830  45.4247940
  51.7267230 104.6132530  46.1637980  52.3130750 103.9085970  44.9590040
  51.9519140 102.1106210  44.3755980  51.2253200 101.4911500  44.3081930
  52.0128290 102.5046820  43.5054060  55.5564240 104.3251210  41.1605390
  56.0729260 103.7138570  40.6353650  56.2061620 104.8279990  41.6516400
  58.2959740 105.2159700  41.9874370  58.5837550 104.9614000  41.1107380
  58.8082960 104.6637060  42.5779940  64.0657820  89.6573000  40.6119970
  64.5065910  89.6018100  39.7641570  63.7965410  90.5731010  40.6830150
  65.9296390  89.2888240  38.6228790  65.8684790  88.3449460  38.4759810
  66.7088420  89.3968330  39.1682250  61.9015950  88.0379100  39.3169980
  62.5045320  88.6099310  39.7918500  61.1608940  88.6018540  39.0943880
  65.0450550  88.4400660  34.5910260  65.2401180  89.3384110  34.8577690
  64.2580420  88.2087740  35.0843210  66.5977160 105.6801370  36.3516820
  66.7729350 104.9939110  35.7077740  65.8998730 106.2048420  35.9593490
  64.9309660 105.3645660  49.1783610  65.7234980 104.8694890  48.9709570
  65.2242810 106.0435800  49.7859220  61.0569320  96.2366600  20.0599660
  60.9763370  95.3221210  19.7891370  60.6433740  96.7333670  19.3539370
  59.1887360  98.0145620  21.9408930  58.4129460  97.5346060  22.2307500
  59.8400290  97.3351270  21.7665090  53.2053190  98.3265430  22.8184690
  52.3738070  98.0714140  23.2181200  53.8134170  98.3976200  23.5542610
  63.2094790 102.4205810  20.7208060  62.7476320 101.6493050  21.0495230
  64.0220340 102.4471880  21.2260510  53.1854450 102.3605520  23.0142710
  53.4882490 101.4703260  22.8352930  53.9298040 102.9175740  22.7864960
  51.6145140  93.2867320  16.6027080  50.7261840  93.6283290  16.5006960
  51.8986330  93.0867640  15.7107910  49.5778150  95.8872970  22.4866780
  50.1494260  95.1195170  22.4870420  49.5779690  96.1861730  21.5773390
  59.4358100 104.7063820  20.3412050  58.8169540 105.1621320  19.7706490
  60.2909880 104.8615280  19.9401750  58.6296350 100.6902810  21.9479090
  58.5604630  99.7492750  21.7868220  59.3916210 100.7804220  22.5201660
  53.7906530  91.8698820  17.6365460  53.8973280  92.7702550  17.9434220
  52.8798890  91.8216790  17.3460110  63.4425640  90.9923630  19.1076360
  64.2635260  90.5020200  19.1501840  63.4759720  91.5821290  19.8608200
  67.7325190  93.0090380  25.6719990  67.0277360  93.3972090  25.1535100
  67.9983110  93.7040670  26.2740920  60.3021450  99.5903060  17.7343960
  59.6838720 100.0552510  17.1706680  60.8144700 100.2830540  18.1513470
  55.1653210  99.1178930  24.4127560  54.8322590  99.7447850  25.0548630
  55.3419890  99.6440810  23.6329230  63.6787120  92.9324010  21.8803900
  62.9742690  93.2208900  22.4607010  64.0399280  93.7424120  21.5203460
  54.3772310 101.0859730  26.2276740  54.9946310 101.7610810  25.9461190
  53.5165430 101.4947710  26.1364240  49.6704650 100.2759590  15.1083590
  49.2932630 100.7646690  14.3768490  49.9277720 100.9484870  15.7390120
  66.7474040  92.3778800  22.2713110  65.7998950  92.4117780  22.4028540
  67.0724030  93.1917750  22.6562470  62.8308640 104.3943270  22.8576560
  62.8435800 103.9905560  21.9898820  62.2783860 105.1690560  22.7537990
  64.1254060 101.1159490  17.9466730  64.0150390 100.1733820  18.0716150
  64.1222310 101.4775130  18.8329490  59.6674340  96.7424810  17.3029220
  58.7403620  96.6762190  17.5317690  59.8199160  97.6804940  17.1884460
  59.6543420  93.0141810  14.2996380  58.7147090  93.1755770  14.3848840
  59.9726680  93.7327490  13.7532370  63.6971630  98.3045110  17.8064470
  63.0784050  97.9664660  17.1590770  63.6796080  97.6604870  18.5143660
  55.2730980  97.2689550  20.0848950  54.8687980  96.5566800  19.5894850
  55.3594100  96.9242790  20.9736990  55.7412680 100.9557110  22.2488160
  55.4440970 100.3502580  21.5695940  56.6912500 100.9934420  22.1377520
  54.8331110 100.6938800  28.8995960  53.9359640 100.9178770  29.1469360
  54.8583980 100.8173740  27.9507360  61.8736330  97.5431920  14.8137220
  62.3129610  96.7054350  14.6675040  62.5864750  98.1761320  14.9001360
  59.9831710 102.4827990  18.7818460  60.4227620 103.2252320  18.3673850
  59.9218600 102.7254560  19.7057420  55.4582680 103.5073820  29.6838480
  55.4298110 103.9116770  28.8166910  55.2947650 102.5784180  29.5210080
  65.4553470  88.7974730  13.1278260  65.1426130  88.8901560  14.0277330
  66.2165940  89.3755760  13.0775690  51.9735610  96.1634530  17.5855600
  51.8533210  96.8896620  16.9736870  51.6636500  95.3937440  17.1083510
  49.6120980  99.3349670  23.3924240  49.6901400  99.4698440  22.4479960
  50.2262660  98.6265560  23.5852360  50.8568610 101.0349860  19.8030420
  50.4496690 101.1764450  18.9484020  51.7481620 100.7510020  19.6001630
  60.6747490 105.1841770  26.7097470  61.1892160 105.0949780  27.5119900
  59.8316570 105.5301470  27.0025380  62.6501890 105.4697110  16.1381470
  62.4903030 105.1800050  17.0363300  62.4848600 104.6937240  15.6026700
  55.1290270 105.2495640  17.9153090  54.9532750 104.3331180  17.7020890
  54.2746010 105.6082930  18.1550890  62.3528020 102.9784670  14.6979470
  61.6593180 102.9761960  14.0381750  63.0950880 102.5543990  14.2673640
  61.9177950 104.6047380  18.7727960  62.3734900 103.8236760  19.0866580
  62.2570470 105.3154200  19.3169140  57.5558090  89.1280300  15.8485100
  56.9312270  89.1240170  16.5738410  57.4688210  88.2611260  15.4521070
  54.2313490  94.6303170  18.6960520  54.0054410  94.4140340  19.6007140
  53.4506020  95.0631630  18.3506490  61.4611250  94.6366540  17.2951170
  60.8620140  95.3602340  17.1114790  62.0090860  94.5743320  16.5127620
  56.6712700  95.5288750  29.3620790  56.5756300  94.5883480  29.2121190
  57.5144680  95.7503820  28.9668860  60.0676120  93.2730080  19.3254450
  60.4605690  93.5902280  18.5123140  60.4292970  92.3941960  19.4398970
  58.3768290  92.0237390  30.5851310  57.6866610  91.8309590  31.2197400
  59.1200590  92.3072030  31.1175610  49.2910520  93.8051000  12.7587370
  49.2085190  94.7481760  12.9002360  48.9393580  93.6625910  11.8799720
  52.9411030  92.4216520  20.7851930  52.6011080  92.8991750  21.5418980
  52.1788350  91.9681640  20.4253030  57.1528800  93.5402110  14.8164480
  57.2741620  93.4988590  15.7650300  56.7677310  94.4026260  14.6611210
  56.1650300  95.8503250  14.2147780  55.5967200  95.4021500  13.5883690
  56.8739300  96.2096030  13.6812930  64.5427920  88.7301690  28.6714550
  64.8673690  87.9991350  29.1972530  64.5784430  88.4115330  27.7695540
  50.2557110  91.3435500  19.7016600  49.9704030  90.9791170  20.5395220
  50.1935970  90.6115960  19.0879740  53.7097780  99.8461440  16.4874190
  52.9360040  99.3059060  16.3272910  54.4392410  99.3268050  16.1491950
  59.9295700  90.2364760  16.4229970  59.1160310  89.7377930  16.3475280
  59.7357650  91.0763010  16.0066320  62.6444090  94.6084410  14.7192130
  63.5323710  94.9201640  14.5443470  62.6149180  93.7356660  14.3272710
  53.7535180  99.5141820  20.1253000  54.2713850  98.7110080  20.0709890
  53.3019200  99.4520960  20.9669830  58.6404680 100.7808100  15.3980300
  58.9820380 101.5250330  14.9023620  57.8117390 101.0939220  15.7605130
  54.4392840  96.9387430  29.9218250  54.1392980  97.0844610  29.0246070
  55.2104080  96.3792720  29.8291640  59.7821290 101.7356430  27.9173380
  59.7965830 100.8037390  27.6992290  59.0746390 101.8216190  28.5563150
  64.9158360  95.9196250  14.1871990  64.8322080  96.3510470  13.3368430
  65.6352550  96.3794600  14.6198810  65.9445610 102.7738510  16.9154120
  65.3021770 102.1194130  17.1897840  65.5576270 103.1793600  16.1394790
  61.5232090 100.1023940  20.7625810  61.8755910  99.5052070  20.1027180
  60.6394420  99.7768170  20.9334060  57.6095370 100.8621630  18.1696220
  58.2966500 101.4090840  18.5503810  56.8227790 101.4062360  18.2045830
  49.7487770  96.4794450  13.6613300  50.6182620  96.7619250  13.9449220
  49.2578090  97.2930320  13.5462110  56.9122580  97.8667660  17.7821580
  57.3685360  98.6772910  18.0081770  56.5610790  97.5490800  18.6140070
  59.2155190 103.3774000  25.0113880  59.8597410 103.5833380  25.6887300
  59.5784630 102.6162400  24.5584730  52.8134360  88.2105310  18.2544100
  52.6848990  88.2023210  19.2029020  51.9896380  88.5488400  17.9035110
  60.4887270 101.3806350  23.7291330  61.1309500 100.6799510  23.8423500
  61.0136620 102.1604790  23.5488220  64.3342990 101.6654970  13.4530470
  64.1080570 100.9485410  14.0455110  63.9439190 101.4167410  12.6152220
  62.2624890 102.1801250  26.9327390  62.5981130 102.7667940  27.6105310
  61.3425230 102.0493960  27.1625180  50.1159020 105.6921830  14.2274930
  50.4756660 106.2911170  13.5732200  49.9751360 106.2381720  15.0009960
  63.9159240  99.5826910  15.1144630  63.6280940 100.0439600  15.9022510
  64.7111410  99.1224680  15.3828850  58.0913470 102.2292580  30.1015450
  57.7710340 101.5101820  30.6461140  57.4171830 102.9047650  30.1751510
  56.1327640 103.0753030  15.0448600  56.1237740 103.8082720  14.4293110
  55.2126000 102.8284610  15.1375560  51.7334280  98.2967920  15.7895360
  51.1262230  99.0366820  15.7990660  52.2083630  98.3867280  14.9633560
  61.3067070  92.4618740  25.4652250  61.6747890  91.6413950  25.7931820
  60.4465270  92.5220630  25.8807900  64.6729100  91.4175680  16.2739810
  64.0442260  91.5221350  15.5598040  64.1781020  91.6372460  17.0633690
  59.1187240 103.1381270  13.7073790  59.2199220 102.9345260  12.7775770
  58.2188980 102.8839550  13.9121570  56.6413130  93.6961630  17.6897690
  55.9329280  94.1647970  18.1311300  56.9257610  93.0383640  18.3242880
  57.7605350 105.6567590  18.4021460  58.0146850 105.6188980  17.4800830
  56.8117830 105.5300920  18.3949710  54.8448150  92.0046710  15.0648400
  55.6938680  92.4416860  14.9988590  54.4779420  92.3166970  15.8920460
  65.4735920  91.3326290  26.5318610  64.9709520  92.0731690  26.8712420
  66.2892580  91.7210290  26.2155400  63.7657930  96.5759470  19.9779970
  62.8248070  96.5909700  20.1527660  64.0802000  95.7895430  20.4240270
  53.7439570  98.2579070  13.5383930  54.5102840  98.1460430  14.1009360
  53.8214260  97.5617040  12.8860700  52.4386330  95.6904140  14.2216820
  52.5189920  94.7431650  14.3334220  53.3306080  96.0211020  14.3277480
  65.7683510 103.7468320  21.6534230  65.8930930 104.5699490  22.1258040
  66.6349070 103.5359050  21.3058380  53.2401040 105.8399530  21.3251360
  53.9763520 105.2914990  21.5959930  53.6241960 106.7055540  21.1857350
  50.1246520 101.9073100  17.1992870  49.1986300 102.1494240  17.1898280
  50.5902950 102.7347360  17.0777620  52.2459320 105.0245600  30.5136940
  53.0472050 105.3457650  30.9272340  51.7311140 104.6641180  31.2356850
  56.3503350 105.0129840  13.1476930  57.1431960 105.3018670  12.6958720
  55.8307700 104.5822010  12.4689410  61.0823950 101.1325470  30.4612350
  60.4762110 101.1557070  29.7208100  60.7778060 100.4008510  30.9979600
  62.5124320 104.8605760  29.0721760  63.4646070 104.7763780  29.0222000
  62.3652540 105.5247470  29.7455550  65.4033520 104.2399970  14.5713670
  65.1175030 103.8265110  13.7567850  65.2053070 105.1687680  14.4514190
  56.8680750 100.2333250  13.0119280  56.7631390  99.6185600  13.7380660
  56.7004970  99.7099140  12.2282290  57.0195070  98.9190050  28.9908510
  56.2540740  99.4875050  28.9063180  57.2011030  98.6266260  28.0976740
  60.1083480  99.2953280  13.6161270  59.5593580  99.7422580  14.2604010
  60.7302740  98.7902530  14.1398940  55.7758600  98.2544200  15.5126570
  56.1975020  98.0884070  16.3557960  55.9009440  97.4444430  15.0181710
  58.2886240  97.2781810  12.7603670  58.8091900  96.5630830  12.3944820
  58.9354640  97.9167680  13.0604180  57.1919760  89.7576360  25.4322230
  56.7437060  89.7800620  24.5867780  56.5584960  89.3595380  26.0292530
  57.5979310  98.6530690  26.0534670  58.0167420  99.4963420  25.8810910
  56.6787940  98.7902730  25.8241450  54.6717500  94.3277430  12.4584730
  54.4706560  93.4644790  12.8198070  54.5009550  94.2410790  11.5206330
  55.4486730 104.9583700  27.1692400  54.9107820 105.6829760  26.8501100
  55.7020690 104.4814040  26.3789740  56.7011980  92.9268220  28.6948330
  57.2911670  92.6184070  29.3826150  55.8832220  92.4547970  28.8508230
  61.5205410  92.5434030  28.9281350  60.8320930  91.8815570  28.8631340
  62.2411430  92.0972300  29.3729810  62.1505810  89.1385660  14.9871610
  62.4308100  88.2953560  15.3431030  61.3771540  89.3708770  15.5010360
  53.4700300  91.4278050  12.4462610  53.7726200  91.4345480  11.5381760
  54.2094890  91.0775910  12.9430270  58.3048940 106.1934910  27.4279050
  58.2307640 107.0970050  27.7351420  57.4027780 105.8746810  27.4001120
  56.6885230  90.3712670  13.4318810  56.3407230  89.6936660  12.8521260
  56.8898000  89.9102180  14.2462200  58.8534270 105.3593420  15.0505410
  59.7485060 105.6978390  15.0724170  58.8851900 104.6372830  14.4229690
  52.4930430 100.7320470  13.2792410  52.9305300 101.2750140  13.9349990
  52.9778160  99.9067420  13.2888750  49.7076230 103.5209500  20.7312670
  50.0379240 102.6530560  20.4991310  50.1367230 103.7268020  21.5617630
  54.3038150 101.8518510  18.3914640  54.0033690 101.7283480  19.2918550
  54.1975640 100.9927100  17.9830370  50.1966440 104.3880090  23.4694300
  49.7597430 104.5680890  24.3018450  50.7644120 105.1454710  23.3276020
  67.0730070 101.6314910  13.0941320  66.2423030 101.6991560  13.5648550
  67.2501900 102.5219030  12.7908180  66.5286530  98.3762390  15.5975520
  67.2905440  98.9459040  15.7035210  66.5440900  97.8089590  16.3683830
  50.0290870  96.9000320  19.8283180  49.3739710  96.6311960  19.1842880
  50.8668820  96.7904800  19.3785160  67.5346500  99.2312490  20.4417450
  67.9055330  98.4479810  20.0353420  68.1748430  99.9201590  20.2634750
  66.5805700  98.6696760  12.7548040  66.8554540  99.5775640  12.6267260
  66.3916440  98.6059290  13.6910030  62.9781310  91.6941610  14.0501670
  63.3966190  91.5072590  13.2098330  62.6717370  90.8420660  14.3604600
  66.4771040  96.6065750  17.7477470  66.1014640  95.8393680  17.3158760
  65.7474160  96.9888450  18.2352400  64.3058730  90.9793700  30.1596690
  65.1828910  90.9877100  30.5430690  64.3179570  90.2424540  29.5489040
  49.2428950  94.1099250  15.7708510  48.3393030  94.3729450  15.5960170
  49.7269570  94.3810420  14.9908470  65.7522000  94.8323240  21.0484710
  66.2759480  94.3385890  20.4174880  66.3381420  94.9673600  21.7932280
  51.7856160  93.1664790  13.6802890  52.4947860  92.7448010  13.1950170
  51.0696100  93.2340020  13.0486240  51.4330320  89.2204120  12.7205540
  52.1558450  89.7613060  13.0386760  51.7054840  88.9467540  11.8447080
  65.2421970  94.0896590  16.9877120  65.7381090  93.8567460  17.7726000
  65.0438040  93.2508430  16.5714760  66.6709130  92.7257540  19.5214800
  66.5608410  92.5713580  20.4597070  67.4316720  92.1978480  19.2790210
  65.0174850  88.6651670  25.9797800  65.6547070  89.2785810  26.3456990
  65.1649740  88.7012330  25.0347030  67.5599400  90.5565460  12.7620940
  68.4848710  90.4246640  12.5539230  67.5375190  90.6358280  13.7157390
  67.6337890  91.3276120  15.3877650  66.8389390  91.2621240  15.9170560
  67.8381170  92.2626760  15.3763000  64.5756310 105.3667670  19.3816040
  65.1715380 105.0452240  18.7050460  64.8334460 104.8939490  20.1729310
  56.1824910 103.3545170  25.1316390  55.9416270 103.6219730  24.2446910
  57.1227550 103.5250900  25.1867250  58.3879330  89.8177860  28.8872900
  58.3268220  90.4099690  29.6368310  59.3279710  89.7103820  28.7423160
  61.0253890  89.4747920  28.5265190  61.6394300  89.7927210  27.8646270
  61.5703450  88.9896510  29.1461050  52.3206910 104.7447830  26.6504450
  51.7267230 104.6132530  27.3894490  52.3130750 103.9085970  26.1846550
  62.6733910  90.2450930  26.2376200  62.3447270  89.4302690  25.8577930
  63.6216210  90.2020740  26.1141890  51.9519140 102.1106210  25.6012490
  51.2253200 101.4911500  25.5338440  52.0128290 102.5046820  24.7310570
  55.5564240 104.3251210  22.3861900  56.0729260 103.7138570  21.8610160
  56.2061620 104.8279990  22.8772910  58.2959740 105.2159700  23.2130880
  58.5837550 104.9614000  22.3363890  58.8082960 104.6637060  23.8036450
  65.9296390  89.2888240  19.8485300  65.8684790  88.3449460  19.7016320
  66.7088420  89.3968330  20.3938760  50.2349140 105.4280600  18.8109250
  50.0671180 104.7951280  19.5091140  49.3683650 105.6340000  18.4603440
  50.8577160  89.2597380  16.3141110  51.6156520  89.3726260  15.7405140
  50.3954330  90.0966580  16.2684540  65.0450550  88.4400660  15.8166770
  65.2401180  89.3384110  16.0834200  64.2580420  88.2087740  16.3099720
  51.8411840 104.1213830  16.2559390  51.3159460 104.5021860  15.5521350
  51.7656420 104.7464600  16.9769100  53.2302310  89.7861430  14.8543080
  53.7595070  88.9991230  14.7251030  53.8630630  90.4652620  15.0878610
  55.4240150  89.5236570  17.9088470  54.7942890  88.8223880  18.0758600
  54.8845290  90.2840700  17.6921630  58.3632100 106.1375800  30.5799080
  59.2899410 105.9020070  30.6235040  58.3482530 106.9647800  30.0985110
  66.5977160 105.6801370  17.5773330  66.7729350 104.9939110  16.9334250
  65.8998730 106.2048420  17.1850000  54.4404810 106.0696210  15.1308640
  55.1723630 105.7855490  14.5832530  54.6998480 105.8309490  16.0208020
  53.6019600 102.1860940  15.1354970  52.9728480 102.6546040  15.6840800
  53.7167430 101.3410160  15.5701160  62.1511170  88.2174130  30.9221430
  62.0376620  88.5368740  31.8172950  62.9680910  88.6186640  30.6258710
  59.1887360  98.0145620   3.1665440  58.4129460  97.5346060   3.4564010
  59.8400290  97.3351270   2.9921600  53.2053190  98.3265430   4.0441200
  52.3738070  98.0714140   4.4437710  53.8134170  98.3976200   4.7799120
  63.2094790 102.4205810   1.9464570  62.7476320 101.6493050   2.2751740
  64.0220340 102.4471880   2.4517020  53.1854450 102.3605520   4.2399220
  53.4882490 101.4703260   4.0609440  53.9298040 102.9175740   4.0121470
  49.5778150  95.8872970   3.7123290  50.1494260  95.1195170   3.7126930
  49.5779690  96.1861730   2.8029900  58.6296350 100.6902810   3.1735600
  58.5604630  99.7492750   3.0124730  59.3916210 100.7804220   3.7458170
  50.8203020  91.2957330   5.4992220  50.6405860  90.3983080   5.7794980
  50.4183100  91.8429200   6.1739170  59.6601520  93.4973190   3.4004530
  60.0366340  92.6245070   3.2878200  59.5621030  93.8331890   2.5094970
  51.4389690  93.7917830   4.1074560  52.1199800  94.0556200   4.7261960
  51.1237740  92.9518700   4.4412570  55.6314260  94.8385190   3.1947150
  56.1392480  95.3366160   3.8352170  56.1627500  94.0620390   3.0186510
  67.7325190  93.0090380   6.8976500  67.0277360  93.3972090   6.3791610
  67.9983110  93.7040670   7.4997430  53.9150360  89.4783750   7.4610570
  53.9168800  89.9956140   6.6556470  53.0854670  89.0013930   7.4380500
  55.1653210  99.1178930   5.6384070  54.8322590  99.7447850   6.2805140
  55.3419890  99.6440810   4.8585740  63.6787120  92.9324010   3.1060410
  62.9742690  93.2208900   3.6863520  64.0399280  93.7424120   2.7459970
  53.5965690  91.1893710   5.4681020  53.9382500  92.0335760   5.1734890
  52.6581500  91.3377450   5.5846360  54.3772310 101.0859730   7.4533250
  54.9946310 101.7610810   7.1717700  53.5165430 101.4947710   7.3620750
  65.2949900 102.5499140   5.3687890  64.6113420 103.2198250   5.3604560
  65.8344190 102.7479790   4.6032750  66.7474040  92.3778800   3.4969620
  65.7998950  92.4117780   3.6285050  67.0724030  93.1917750   3.8818980
  62.8308640 104.3943270   4.0833070  62.8435800 103.9905560   3.2155330
  62.2783860 105.1690560   3.9794500  62.2294080  99.2973110   5.4115680
  62.6462870  99.0833220   4.5769140  62.9533900  99.5545900   5.9824300
  66.1756180  97.6960330   5.5031920  65.3474810  97.7653420   5.0282050
  66.7706660  98.2814640   5.0347750  63.1398190  94.4829650   6.4486790
  62.7269370  95.3083360   6.7026780  62.4074140  93.8974690   6.2563150
  55.7412680 100.9557110   3.4744670  55.4440970 100.3502580   2.7952450
  56.6912500 100.9934420   3.3634030  53.9859600  94.0432760   5.0904500
  54.5374190  94.1528100   4.3157750  54.5003110  94.4170360   5.8059730
  63.8298290 104.5288980   7.1367770  63.3528850 105.3361170   6.9440380
  63.1460080 103.8767310   7.2893980  54.8331110 100.6938800  10.1252470
  53.9359640 100.9178770  10.3725870  54.8583980 100.8173740   9.1763870
  53.6602330  97.5652120   8.7009840  53.5210100  98.4374920   9.0697240
  52.7783690  97.2224930   8.5557780  55.4582680 103.5073820  10.9094990
  55.4298110 103.9116770  10.0423420  55.2947650 102.5784180  10.7466590
  67.4097500 104.2900920  12.2059160  67.8857220 104.7683810  12.8848240
  68.0304660 104.2218410  11.4804660  49.6120980  99.3349670   4.6180750
  49.6901400  99.4698440   3.6736470  50.2262660  98.6265560   4.8108870
  66.8130750 101.4813770   9.3659170  66.9393810 101.2425650   8.4476350
  66.8552130 100.6498310   9.8381250  60.6747490 105.1841770   7.9353980
  61.1892160 105.0949780   8.7376410  59.8316570 105.5301470   8.2281890
  66.6654760  93.5346230  10.3308910  66.0499030  94.0425900   9.8024370
  66.3451180  92.6344560  10.2734850  49.6680500 100.3763840   7.1575210
  49.8311540  99.9069200   6.3394580  50.1332950  99.8687400   7.8224050
  54.4399270  89.5069600   2.1935780  53.9967420  90.2879140   1.8620300
  54.9984260  89.8299490   2.9006720  58.7269080  92.3738120   7.7971100
  58.2648450  92.5821140   8.6091040  58.3247190  91.5597470   7.4941770
  63.7273590  93.5947070   8.9267760  62.8767180  93.2952820   9.2476830
  63.5675380  93.8389080   8.0151580  60.8223300  95.0948820  11.0266550
  61.1476710  94.2612570  10.6868780  61.6103630  95.6177340  11.1744880
  56.4775170  90.0516930   4.0525380  56.7747500  90.9579760   3.9717400
  57.0260730  89.5635710   3.4384950  56.6712700  95.5288750  10.5877300
  56.5756300  94.5883480  10.4377700  57.5144680  95.7503820  10.1925370
  51.8023240  91.9402420   8.7411080  51.4086630  92.7877630   8.9483860
  51.1141640  91.3028790   8.9319720  58.3768290  92.0237390  11.8107820
  57.6866610  91.8309590  12.4453910  59.1200590  92.3072030  12.3432120
  49.1040290  89.8630880   2.7741160  48.8153340  90.4333740   3.4866140
  49.8486050  89.3835330   3.1372390  60.6531260  95.8635830   4.6461740
  59.9212380  96.3722640   4.9951840  60.2555600  95.0465810   4.3450520
  57.0908650  92.5390030   3.0514230  57.0944710  92.0979980   2.2018770
  57.9859770  92.8607360   3.1586050  52.9411030  92.4216520   2.0108440
  52.6011080  92.8991750   2.7675490  52.1788350  91.9681640   1.6509540
  61.1157170  91.3169510   4.0584680  61.1329910  91.7678160   4.9026530
  60.8672750  90.4175150   4.2718120  64.5427920  88.7301690   9.8971060
  64.8673690  87.9991350  10.4229040  64.5784430  88.4115330   8.9952050
  51.2419480  99.7515270   9.3171020  50.8574270  99.1108940   9.9153980
  51.5531670 100.4551390   9.8865750  57.3916620  96.5991810   4.7979640
  57.7586750  96.1250380   5.5440980  57.2021680  97.4733380   5.1387980
  55.1815990  95.6400450   7.1163850  54.8773060  96.5192430   7.3414210
  56.1362450  95.7000240   7.1521290  64.4685760  98.8426800   3.5057090
  65.1884880  99.3382090   3.1153200  64.2667580  98.1644690   2.8610960
  59.8504560  98.9135860   9.3926090  59.7841870  97.9931530   9.1383680
  59.2209700  99.0111300  10.1070730  51.2379720  96.4803190   8.2635210
  50.8794660  97.1457040   8.8508550  50.9434280  95.6486740   8.6347830
  54.4392840  96.9387430  11.1474760  54.1392980  97.0844610  10.2502580
  55.2104080  96.3792720  11.0548150  59.7821290 101.7356430   9.1429890
  59.7965830 100.8037390   8.9248800  59.0746390 101.8216190   9.7819660
  65.9932500  98.3763770   8.4898470  65.2680690  98.9692550   8.2927860
  66.5207960  98.3687310   7.6911840  59.2155190 103.3774000   6.2370390
  59.8597410 103.5833380   6.9143810  59.5784630 102.6162400   5.7841240
  60.4887270 101.3806350   4.9547840  61.1309500 100.6799510   5.0680010
  61.0136620 102.1604790   4.7744730  62.2624890 102.1801250   8.1583900
  62.5981130 102.7667940   8.8361820  61.3425230 102.0493960   8.3881690
  49.8128290  89.9696430   8.9407310  49.0986810  90.1693350   9.5459920
  50.2323330  89.1936000   9.3122110  50.1000880 103.9576690   9.9273840
  50.2092000 103.0171430   9.7869230  49.4481440 104.2231440   9.2787570
  58.0913470 102.2292580  11.3271960  57.7710340 101.5101820  11.8717650
  57.4171830 102.9047650  11.4008020  61.3067070  92.4618740   6.6908760
  61.6747890  91.6413950   7.0188330  60.4465270  92.5220630   7.1064410
  58.2669060  95.1158330   6.9146730  58.7654310  95.5904150   7.5798580
  58.4092010  94.1921850   7.1216760  65.4735920  91.3326290   7.7575120
  64.9709520  92.0731690   8.0968930  66.2892580  91.7210290   7.4411910
  65.7683510 103.7468320   2.8790740  65.8930930 104.5699490   3.3514550
  66.6349070 103.5359050   2.5314890  53.2401040 105.8399530   2.5507870
  53.9763520 105.2914990   2.8216440  53.6241960 106.7055540   2.4113860
  52.2459320 105.0245600  11.7393450  53.0472050 105.3457650  12.1528850
  51.7311140 104.6641180  12.4613360  61.0823950 101.1325470  11.6868860
  60.4762110 101.1557070  10.9464610  60.7778060 100.4008510  12.2236110
  62.5124320 104.8605760  10.2978270  63.4646070 104.7763780  10.2478510
  62.3652540 105.5247470  10.9712060  49.9657130  97.5119060  10.6829500
  50.4696150  96.9326340  11.2545730  49.2264550  97.7959290  11.2205870
  57.0195070  98.9190050  10.2165020  56.2540740  99.4875050  10.1319690
  57.2011030  98.6266260   9.3233250  64.1618420 100.6495380  10.7740040
  64.9027890 100.9871140  10.2707500  63.3991100 100.8187440  10.2209810
  51.9980210  95.6548650  11.5779570  52.0385550  95.3562520  12.4864800
  52.8525710  96.0556260  11.4187090  53.9386020  94.2340750   9.5454060
  53.4082480  93.7431700   8.9177400  54.6074090  94.6624950   9.0111990
  62.8364080  98.7010210   9.3095250  63.2505100  98.8555290  10.1585670
  61.9015080  98.8265430   9.4721030  63.3086250  96.0406370  11.3134400
  63.8907020  95.2858690  11.2254880  63.4848020  96.5713810  10.5365880
  54.4258320  91.2003120   9.6251350  54.3315190  90.5823870   8.9002220
  53.8455710  91.9269410   9.3981260  57.1919760  89.7576360   6.6578740
  56.7437060  89.7800620   5.8124290  56.5584960  89.3595380   7.2549040
  57.5979310  98.6530690   7.2791180  58.0167420  99.4963420   7.1067420
  56.6787940  98.7902730   7.0497960  59.9343210  96.3846870   8.6629020
  60.0539420  95.7888010   9.4023860  60.7937210  96.4216560   8.2430320
  62.2731110  96.9384060   7.2391530  61.7466330  97.4626680   6.6356670
  62.6162450  97.5711450   7.8701260  55.4486730 104.9583700   8.3948910
  54.9107820 105.6829760   8.0757610  55.7020690 104.4814040   7.6046250
  56.7011980  92.9268220   9.9204840  57.2911670  92.6184070  10.6082660
  55.8832220  92.4547970  10.0764740  61.5205410  92.5434030  10.1537860
  60.8320930  91.8815570  10.0887850  62.2411430  92.0972300  10.5986320
  58.3048940 106.1934910   8.6535560  58.2307640 107.0970050   8.9607930
  57.4027780 105.8746810   8.6257630  49.7076230 103.5209500   1.9569180
  50.0379240 102.6530560   1.7247820  50.1367230 103.7268020   2.7874140
  50.1966440 104.3880090   4.6950810  49.7597430 104.5680890   5.5274960
  50.7644120 105.1454710   4.5532530  65.8328620 103.8897090   8.9828120
  65.2330610 103.9489650   8.2392040  65.9622520 102.9502070   9.1124970
  64.5180260 100.6149070   7.0804280  63.7040100 101.0446230   7.3430070
  64.9254460 101.2267480   6.4673330  51.0666800  97.2852890   5.5943030
  51.4339840  97.1980290   6.4739050  50.4977620  96.5219440   5.4949890
  65.8670660  95.7537270   8.6073500  65.6356750  95.5250020   7.7071450
  66.1275210  96.6736820   8.5618390  50.6182800  94.1961980   9.5001450
  49.7238850  94.1628740   9.8395160  51.1580350  94.3948770  10.2652700
  64.3058730  90.9793700  11.3853200  65.1828910  90.9877100  11.7687200
  64.3179570  90.2424540  10.7745550  65.7522000  94.8323240   2.2741220
  66.2759480  94.3385890   1.6431390  66.3381420  94.9673600   3.0188790
  65.9311720  94.9163110   5.7960770  64.9814430  94.8826650   5.9105760
  66.1124730  95.8263220   5.5610540  51.1222510  88.4710310   3.8484670
  51.7698700  87.9207690   3.4079830  51.5424350  88.7253460   4.6700480
  65.0174850  88.6651670   7.2054310  65.6547070  89.2785810   7.5713500
  65.1649740  88.7012330   6.2603540  50.8754510  88.6265980   6.5909990
  50.5269330  89.0829800   7.3568170  50.5442210  87.7323110   6.6732420
  52.4818880 101.7985580  10.7563180  52.4388510 101.4278490  11.6377640
  52.6129890 102.7363150  10.8965000  56.1824910 103.3545170   6.3572900
  55.9416270 103.6219730   5.4703420  57.1227550 103.5250900   6.4123760
  58.3879330  89.8177860  10.1129410  58.3268220  90.4099690  10.8624820
  59.3279710  89.7103820   9.9679670  61.0253890  89.4747920   9.7521700
  61.6394300  89.7927210   9.0902780  61.5703450  88.9896510  10.3717560
  67.4429070 105.3739550   7.1583540  66.9487350 105.7708420   6.4410670
  66.8342360 104.7488760   7.5520820  51.5475150  88.1542180   9.8660760
  52.0958140  87.9730230   9.1026870  51.6130460  87.3636290  10.4017070
  52.3206910 104.7447830   7.8760960  51.7267230 104.6132530   8.6151000
  52.3130750 103.9085970   7.4103060  61.7661930  88.0380060   6.0790990
  60.8921770  88.3715170   5.8763920  61.6572680  87.5653240   6.9042860
  62.6733910  90.2450930   7.4632710  62.3447270  89.4302690   7.0834440
  63.6216210  90.2020740   7.3398400  65.1268520 106.0162970   4.4370280
  64.6671490 106.7678780   4.0628300  64.4980980 105.2969440   4.3785080
  51.9519140 102.1106210   6.8269000  51.2253200 101.4911500   6.7594950
  52.0128290 102.5046820   5.9567080  55.5564240 104.3251210   3.6118410
  56.0729260 103.7138570   3.0866670  56.2061620 104.8279990   4.1029420
  58.2959740 105.2159700   4.4387390  58.5837550 104.9614000   3.5620400
  58.8082960 104.6637060   5.0292960  59.5136750  88.9549900   5.0183900
  58.7308540  89.4295400   5.2980660  59.2199680  88.0504730   4.9097080
  64.0657820  89.6573000   3.0632990  64.5065910  89.6018100   2.2154590
  63.7965410  90.5731010   3.1343170  61.9015950  88.0379100   1.7683000
  62.5045320  88.6099310   2.2431520  61.1608940  88.6018540   1.5456900
  58.3632100 106.1375800  11.8055590  59.2899410 105.9020070  11.8491550
  58.3482530 106.9647800  11.3241620  55.5495710  88.8020550  11.5697470
  55.2679980  89.3054150  10.8058290  55.9315410  88.0042300  11.2039600
  62.1511170  88.2174130  12.1477940  62.0376620  88.5368740  13.0429460
  62.9680910  88.6186640  11.8515220  64.9309660 105.3645660  11.6296630
  65.7234980 104.8694890  11.4222590  65.2242810 106.0435800  12.2372240
  61.0569320  77.4623110 151.4804090  60.9763370  76.5477720 151.2095800
  60.6433740  77.9590180 150.7743800  59.1887360  79.2402130 153.3613360
  58.4129460  78.7602570 153.6511930  59.8400290  78.5607780 153.1869520
  63.2094790  83.6462320 152.1412490  62.7476320  82.8749560 152.4699660
  64.0220340  83.6728390 152.6464940  53.1854450  83.5862030 154.4347140
  53.4882490  82.6959770 154.2557360  53.9298040  84.1432250 154.2069390
  51.6145140  74.5123830 148.0231510  50.7261840  74.8539800 147.9211390
  51.8986330  74.3124150 147.1312340  49.5778150  77.1129480 153.9071210
  50.1494260  76.3451680 153.9074850  49.5779690  77.4118240 152.9977820
  59.4358100  85.9320330 151.7616480  58.8169540  86.3877830 151.1910920
  60.2909880  86.0871790 151.3606180  58.6296350  81.9159320 153.3683520
  58.5604630  80.9749260 153.2072650  59.3916210  82.0060730 153.9406090
  59.6601520  74.7229700 153.5952450  60.0366340  73.8501580 153.4826120
  59.5621030  75.0588400 152.7042890  53.7906530  73.0955330 149.0569890
  53.8973280  73.9959060 149.3638650  52.8798890  73.0473300 148.7664540
  63.4425640  72.2180140 150.5280790  64.2635260  71.7276710 150.5706270
  63.4759720  72.8077800 151.2812630  55.6314260  76.0641700 153.3895070
  56.1392480  76.5622670 154.0300090  56.1627500  75.2876900 153.2134430
  60.3021450  80.8159570 149.1548390  59.6838720  81.2809020 148.5911110
  60.8144700  81.5087050 149.5717900  63.6787120  74.1580520 153.3008330
  62.9742690  74.4465410 153.8811440  64.0399280  74.9680630 152.9407890
  49.6704650  81.5016100 146.5288020  49.2932630  81.9903200 145.7972920
  49.9277720  82.1741380 147.1594550  66.7474040  73.6035310 153.6917540
  65.7998950  73.6374290 153.8232970  67.0724030  74.4174260 154.0766900
  57.2793580  69.9032490 151.9873530  57.5868560  69.3479380 151.2709030
  56.3494280  70.0376950 151.8046520  62.8308640  85.6199780 154.2780990
  62.8435800  85.2162070 153.4103250  62.2783860  86.3947070 154.1742420
  64.1254060  82.3416000 149.3671160  64.0150390  81.3990330 149.4920580
  64.1222310  82.7031640 150.2533920  59.6674340  77.9681320 148.7233650
  58.7403620  77.9018700 148.9522120  59.8199160  78.9061450 148.6088890
  59.6543420  74.2398320 145.7200810  58.7147090  74.4012280 145.8053270
  59.9726680  74.9584000 145.1736800  63.6971630  79.5301620 149.2268900
  63.0784050  79.1921170 148.5795200  63.6796080  78.8861380 149.9348090
  55.2730980  78.4946060 151.5053380  54.8687980  77.7823310 151.0099280
  55.3594100  78.1499300 152.3941420  55.7412680  82.1813620 153.6692590
  55.4440970  81.5759090 152.9900370  56.6912500  82.2190930 153.5581950
  61.8736330  78.7688430 146.2341650  62.3129610  77.9310860 146.0879470
  62.5864750  79.4017830 146.3205790  59.9831710  83.7084500 150.2022890
  60.4227620  84.4508830 149.7878280  59.9218600  83.9511070 151.1261850
  51.9735610  77.3891040 149.0060030  51.8533210  78.1153130 148.3941300
  51.6636500  76.6193950 148.5287940  50.8568610  82.2606370 151.2234850
  50.4496690  82.4020960 150.3688450  51.7481620  81.9766530 151.0206060
  62.6501890  86.6953620 147.5585900  62.4903030  86.4056560 148.4567730
  62.4848600  85.9193750 147.0231130  55.1290270  86.4752150 149.3357520
  54.9532750  85.5587690 149.1225320  54.2746010  86.8339440 149.5755320
  62.3528020  84.2041180 146.1183900  61.6593180  84.2018470 145.4586180
  63.0950880  83.7800500 145.6878070  61.9177950  85.8303890 150.1932390
  62.3734900  85.0493270 150.5071010  62.2570470  86.5410710 150.7373570
  54.4399270  70.7326110 152.3883700  53.9967420  71.5135650 152.0568220
  54.9984260  71.0556000 153.0954640  57.5558090  70.3536810 147.2689530
  56.9312270  70.3496680 147.9942840  57.4688210  69.4867770 146.8725500
  56.4775170  71.2773440 154.2473300  56.7747500  72.1836270 154.1665320
  57.0260730  70.7892220 153.6332870  54.2313490  75.8559680 150.1164950
  54.0054410  75.6396850 151.0211570  53.4506020  76.2888140 149.7710920
  61.4611250  75.8623050 148.7155600  60.8620140  76.5858850 148.5319220
  62.0090860  75.7999830 147.9332050  60.0676120  74.4986590 150.7458880
  60.4605690  74.8158790 149.9327570  60.4292970  73.6198470 150.8603400
  49.1040290  71.0887390 152.9689080  48.8153340  71.6590250 153.6814060
  49.8486050  70.6091840 153.3320310  49.2910520  75.0307510 144.1791800
  49.2085190  75.9738270 144.3206790  48.9393580  74.8882420 143.3004150
  57.0908650  73.7646540 153.2462150  57.0944710  73.3236490 152.3966690
  57.9859770  74.0863870 153.3533970  52.9411030  73.6473030 152.2056360
  52.6011080  74.1248260 152.9623410  52.1788350  73.1938150 151.8457460
  57.1528800  74.7658620 146.2368910  57.2741620  74.7245100 147.1854730
  56.7677310  75.6282770 146.0815640  56.1650300  77.0759760 145.6352210
  55.5967200  76.6278010 145.0088120  56.8739300  77.4352540 145.1017360
  50.2557110  72.5692010 151.1221030  49.9704030  72.2047680 151.9599650
  50.1935970  71.8372470 150.5084170  53.7097780  81.0717950 147.9078620
  52.9360040  80.5315570 147.7477340  54.4392410  80.5524560 147.5696380
  64.4685760  80.0683310 153.7005010  65.1884880  80.5638600 153.3101120
  64.2667580  79.3901200 153.0558880  59.9295700  71.4621270 147.8434400
  59.1160310  70.9634440 147.7679710  59.7357650  72.3019520 147.4270750
  62.6444090  75.8340920 146.1396560  63.5323710  76.1458150 145.9647900
  62.6149180  74.9613170 145.7477140  53.7535180  80.7398330 151.5457430
  54.2713850  79.9366590 151.4914320  53.3019200  80.6777470 152.3874260
  58.6404680  82.0064610 146.8184730  58.9820380  82.7506840 146.3228050
  57.8117390  82.3195730 147.1809560  64.9158360  77.1452760 145.6076420
  64.8322080  77.5766980 144.7572860  65.6352550  77.6051110 146.0403240
  65.9445610  83.9995020 148.3358550  65.3021770  83.3450640 148.6102270
  65.5576270  84.4050110 147.5599220  61.5232090  81.3280450 152.1830240
  61.8755910  80.7308580 151.5231610  60.6394420  81.0024680 152.3538490
  57.6095370  82.0878140 149.5900650  58.2966500  82.6347350 149.9708240
  56.8227790  82.6318870 149.6250260  49.7487770  77.7050960 145.0817730
  50.6182620  77.9875760 145.3653650  49.2578090  78.5186830 144.9666540
  56.9122580  79.0924170 149.2026010  57.3685360  79.9029420 149.4286200
  56.5610790  78.7747310 150.0344500  52.8134360  69.4361820 149.6748530
  52.6848990  69.4279720 150.6233450  51.9896380  69.7744910 149.3239540
  64.3342990  82.8911480 144.8734900  64.1080570  82.1741920 145.4659540
  63.9439190  82.6423920 144.0356650  50.1159020  86.9178340 145.6479360
  50.4756660  87.5167680 144.9936630  49.9751360  87.4638230 146.4214390
  63.9159240  80.8083420 146.5349060  63.6280940  81.2696110 147.3226940
  64.7111410  80.3481190 146.8033280  56.1327640  84.3009540 146.4653030
  56.1237740  85.0339230 145.8497540  55.2126000  84.0541120 146.5579990
  51.7334280  79.5224430 147.2099790  51.1262230  80.2623330 147.2195090
  52.2083630  79.6123790 146.3837990  64.6729100  72.6432190 147.6944240
  64.0442260  72.7477860 146.9802470  64.1781020  72.8628970 148.4838120
  59.1187240  84.3637780 145.1278220  59.2199220  84.1601770 144.1980200
  58.2188980  84.1096060 145.3326000  56.6413130  74.9218140 149.1102120
  55.9329280  75.3904480 149.5515730  56.9257610  74.2640150 149.7447310
  60.6728560  71.6468800 150.5497910  60.5496340  71.6654930 149.6007420
  61.6213120  71.6947740 150.6696310  57.7605350  86.8824100 149.8225890
  58.0146850  86.8445490 148.9005260  56.8117830  86.7557430 149.8154140
  54.8448150  73.2303220 146.4852830  55.6938680  73.6673370 146.4193020
  54.4779420  73.5423480 147.3124890  63.7657930  77.8015980 151.3984400
  62.8248070  77.8166210 151.5732090  64.0802000  77.0151940 151.8444700
  53.7439570  79.4835580 144.9588360  54.5102840  79.3716940 145.5213790
  53.8214260  78.7873550 144.3065130  52.4386330  76.9160650 145.6421250
  52.5189920  75.9688160 145.7538650  53.3306080  77.2467530 145.7481910
  65.7683510  84.9724830 153.0738660  65.8930930  85.7956000 153.5462470
  66.6349070  84.7615560 152.7262810  53.2401040  87.0656040 152.7455790
  53.9763520  86.5171500 153.0164360  53.6241960  87.9312050 152.6061780
  50.1246520  83.1329610 148.6197300  49.1986300  83.3750750 148.6102710
  50.5902950  83.9603870 148.4982050  56.3503350  86.2386350 144.5681360
  57.1431960  86.5275180 144.1163150  55.8307700  85.8078520 143.8893840
  65.4033520  85.4656480 145.9918100  65.1175030  85.0521620 145.1772280
  65.2053070  86.3944190 145.8718620  56.8680750  81.4589760 144.4323710
  56.7631390  80.8442110 145.1585090  56.7004970  80.9355650 143.6486720
  60.1083480  80.5209790 145.0365700  59.5593580  80.9679090 145.6808440
  60.7302740  80.0159040 145.5603370  55.7758600  79.4800710 146.9331000
  56.1975020  79.3140580 147.7762390  55.9009440  78.6700940 146.4386140
  58.2886240  78.5038320 144.1808100  58.8091900  77.7887340 143.8149250
  58.9354640  79.1424190 144.4808610  54.6717500  75.5533940 143.8789160
  54.4706560  74.6901300 144.2402500  54.5009550  75.4667300 142.9410760
  62.1505810  70.3642170 146.4076040  62.4308100  69.5210070 146.7635460
  61.3771540  70.5965280 146.9214790  53.4700300  72.6534560 143.8667040
  53.7726200  72.6601990 142.9586190  54.2094890  72.3032420 144.3634700
  56.6885230  71.5969180 144.8523240  56.3407230  70.9193170 144.2725690
  56.8898000  71.1358690 145.6666630  58.8534270  86.5849930 146.4709840
  59.7485060  86.9234900 146.4928600  58.8851900  85.8629340 145.8434120
  52.4930430  81.9576980 144.6996840  52.9305300  82.5006650 145.3554420
  52.9778160  81.1323930 144.7093180  49.7076230  84.7466010 152.1517100
  50.0379240  83.8787070 151.9195740  50.1367230  84.9524530 152.9822060
  54.3038150  83.0775020 149.8119070  54.0033690  82.9539990 150.7122980
  54.1975640  82.2183610 149.4034800  67.0730070  82.8571420 144.5145750
  66.2423030  82.9248070 144.9852980  67.2501900  83.7475540 144.2112610
  66.5286530  79.6018900 147.0179950  67.2905440  80.1715550 147.1239640
  66.5440900  79.0346100 147.7888260  50.0290870  78.1256830 151.2487610
  49.3739710  77.8568470 150.6047310  50.8668820  78.0161310 150.7989590
  67.5346500  80.4569000 151.8621880  67.9055330  79.6736320 151.4557850
  68.1748430  81.1458100 151.6839180  66.5805700  79.8953270 144.1752470
  66.8554540  80.8032150 144.0471690  66.3916440  79.8315800 145.1114460
  62.9781310  72.9198120 145.4706100  63.3966190  72.7329100 144.6302760
  62.6717370  72.0677170 145.7809030  66.4771040  77.8322260 149.1681900
  66.1014640  77.0650190 148.7363190  65.7474160  78.2144960 149.6556830
  49.2428950  75.3355760 147.1912940  48.3393030  75.5985960 147.0164600
  49.7269570  75.6066930 146.4112900  65.7522000  76.0579750 152.4689140
  66.2759480  75.5642400 151.8379310  66.3381420  76.1930110 153.2136710
  51.7856160  74.3921300 145.1007320  52.4947860  73.9704520 144.6154600
  51.0696100  74.4596530 144.4690670  51.4330320  70.4460630 144.1409970
  52.1558450  70.9869570 144.4591190  51.7054840  70.1724050 143.2651510
  65.2421970  75.3153100 148.4081550  65.7381090  75.0823970 149.1930430
  65.0438040  74.4764940 147.9919190  66.6709130  73.9514050 150.9419230
  66.5608410  73.7970090 151.8801500  67.4316720  73.4234990 150.6994640
  67.6337890  72.5532630 146.8082080  66.8389390  72.4877750 147.3374990
  67.8381170  73.4883270 146.7967430  64.5756310  86.5924180 150.8020470
  65.1715380  86.2708750 150.1254890  64.8334460  86.1196000 151.5933740
  55.5564240  85.5507720 153.8066330  56.0729260  84.9395080 153.2814590
  56.2061620  86.0536500 154.2977340  64.0657820  70.8829510 153.2580910
  64.5065910  70.8274610 152.4102510  63.7965410  71.7987520 153.3291090
  65.9296390  70.5144750 151.2689730  65.8684790  69.5705970 151.1220750
  66.7088420  70.6224840 151.8143190  50.2349140  86.6537110 150.2313680
  50.0671180  86.0207790 150.9295570  49.3683650  86.8596510 149.8807870
  50.8577160  70.4853890 147.7345540  51.6156520  70.5982770 147.1609570
  50.3954330  71.3223090 147.6888970  57.3990970  72.5993160 150.7247850
  56.5865480  72.2250050 150.3843730  57.9032610  71.8438240 151.0269040
  61.9015950  69.2635610 151.9630920  62.5045320  69.8355820 152.4379440
  61.1608940  69.8275050 151.7404820  65.0450550  69.6657170 147.2371200
  65.2401180  70.5640620 147.5038630  64.2580420  69.4344250 147.7304150
  51.8411840  85.3470340 147.6763820  51.3159460  85.7278370 146.9725780
  51.7656420  85.9721110 148.3973530  53.2302310  71.0117940 146.2747510
  53.7595070  70.2247740 146.1455460  53.8630630  71.6909130 146.5083040
  55.4240150  70.7493080 149.3292900  54.7942890  70.0480390 149.4963030
  54.8845290  71.5097210 149.1126060  66.5977160  86.9057880 148.9977760
  66.7729350  86.2195620 148.3538680  65.8998730  87.4304930 148.6054430
  54.4404810  87.2952720 146.5513070  55.1723630  87.0112000 146.0036960
  54.6998480  87.0566000 147.4412450  53.6019600  83.4117450 146.5559400
  52.9728480  83.8802550 147.1045230  53.7167430  82.5666670 146.9905590
  59.1887360  79.2402130 134.5869870  58.4129460  78.7602570 134.8768440
  59.8400290  78.5607780 134.4126030  53.2053190  79.5521940 135.4645630
  52.3738070  79.2970650 135.8642140  53.8134170  79.6232710 136.2003550
  53.1854450  83.5862030 135.6603650  53.4882490  82.6959770 135.4813870
  53.9298040  84.1432250 135.4325900  49.5778150  77.1129480 135.1327720
  50.1494260  76.3451680 135.1331360  49.5779690  77.4118240 134.2234330
  59.4358100  85.9320330 132.9872990  58.8169540  86.3877830 132.4167430
  60.2909880  86.0871790 132.5862690  58.6296350  81.9159320 134.5940030
  58.5604630  80.9749260 134.4329160  59.3916210  82.0060730 135.1662600
  63.4425640  72.2180140 131.7537300  64.2635260  71.7276710 131.7962780
  63.4759720  72.8077800 132.5069140  55.6314260  76.0641700 134.6151580
  56.1392480  76.5622670 135.2556600  56.1627500  75.2876900 134.4390940
  53.9150360  70.7040260 138.8815000  53.9168800  71.2212650 138.0760900
  53.0854670  70.2270440 138.8584930  55.1653210  80.3435440 137.0588500
  54.8322590  80.9704360 137.7009570  55.3419890  80.8697320 136.2790170
  53.5965690  72.4150220 136.8885450  53.9382500  73.2592270 136.5939320
  52.6581500  72.5633960 137.0050790  54.3772310  82.3116240 138.8737680
  54.9946310  82.9867320 138.5922130  53.5165430  82.7204220 138.7825180
  65.2949900  83.7755650 136.7892320  64.6113420  84.4454760 136.7808990
  65.8344190  83.9736300 136.0237180  57.2793580  69.9032490 133.2130040
  57.5868560  69.3479380 132.4965540  56.3494280  70.0376950 133.0303030
  64.1254060  82.3416000 130.5927670  64.0150390  81.3990330 130.7177090
  64.1222310  82.7031640 131.4790430  63.6971630  79.5301620 130.4525410
  63.0784050  79.1921170 129.8051710  63.6796080  78.8861380 131.1604600
  55.7412680  82.1813620 134.8949100  55.4440970  81.5759090 134.2156880
  56.6912500  82.2190930 134.7838460  53.9859600  75.2689270 136.5108930
  54.5374190  75.3784610 135.7362180  54.5003110  75.6426870 137.2264160
  63.8298290  85.7545490 138.5572200  63.3528850  86.5617680 138.3644810
  63.1460080  85.1023820 138.7098410  54.8331110  81.9195310 141.5456900
  53.9359640  82.1435280 141.7930300  54.8583980  82.0430250 140.5968300
  53.6602330  78.7908630 140.1214270  53.5210100  79.6631430 140.4901670
  52.7783690  78.4481440 139.9762210  55.4582680  84.7330330 142.3299420
  55.4298110  85.1373280 141.4627850  55.2947650  83.8040690 142.1671020
  67.4097500  85.5157430 143.6263590  67.8857220  85.9940320 144.3052670
  68.0304660  85.4474920 142.9009090  49.6120980  80.5606180 136.0385180
  49.6901400  80.6954950 135.0940900  50.2262660  79.8522070 136.2313300
  66.8130750  82.7070280 140.7863600  66.9393810  82.4682160 139.8680780
  66.8552130  81.8754820 141.2585680  60.6747490  86.4098280 139.3558410
  61.1892160  86.3206290 140.1580840  59.8316570  86.7557980 139.6486320
  55.1290270  86.4752150 130.5614030  54.9532750  85.5587690 130.3481830
  54.2746010  86.8339440 130.8011830  66.6654760  74.7602740 141.7513340
  66.0499030  75.2682410 141.2228800  66.3451180  73.8601070 141.6939280
  49.6680500  81.6020350 138.5779640  49.8311540  81.1325710 137.7599010
  50.1332950  81.0943910 139.2428480  58.7269080  73.5994630 139.2175530
  58.2648450  73.8077650 140.0295470  58.3247190  72.7853980 138.9146200
  60.8223300  76.3205330 142.4470980  61.1476710  75.4869080 142.1073210
  61.6103630  76.8433850 142.5949310  56.4775170  71.2773440 135.4729810
  56.7747500  72.1836270 135.3921830  57.0260730  70.7892220 134.8589380
  56.6712700  76.7545260 142.0081730  56.5756300  75.8139990 141.8582130
  57.5144680  76.9760330 141.6129800  60.0676120  74.4986590 131.9715390
  60.4605690  74.8158790 131.1584080  60.4292970  73.6198470 132.0859910
  51.8023240  73.1658930 140.1615510  51.4086630  74.0134140 140.3688290
  51.1141640  72.5285300 140.3524150  58.3768290  73.2493900 143.2312250
  57.6866610  73.0566100 143.8658340  59.1200590  73.5328540 143.7636550
  57.0908650  73.7646540 134.4718660  57.0944710  73.3236490 133.6223200
  57.9859770  74.0863870 134.5790480  61.1157170  72.5426020 135.4789110
  61.1329910  72.9934670 136.3230960  60.8672750  71.6431660 135.6922550
  51.2419480  80.9771780 140.7375450  50.8574270  80.3365450 141.3358410
  51.5531670  81.6807900 141.3070180  57.3916620  77.8248320 136.2184070
  57.7586750  77.3506890 136.9645410  57.2021680  78.6989890 136.5592410
  55.1815990  76.8656960 138.5368280  54.8773060  77.7448940 138.7618640
  56.1362450  76.9256750 138.5725720  59.8504560  80.1392370 140.8130520
  59.7841870  79.2188040 140.5588110  59.2209700  80.2367810 141.5275160
  51.2379720  77.7059700 139.6839640  50.8794660  78.3713550 140.2712980
  50.9434280  76.8743250 140.0552260  54.4392840  78.1643940 142.5679190
  54.1392980  78.3101120 141.6707010  55.2104080  77.6049230 142.4752580
  59.7821290  82.9612940 140.5634320  59.7965830  82.0293900 140.3453230
  59.0746390  83.0472700 141.2024090  64.9158360  77.1452760 126.8332930
  64.8322080  77.5766980 125.9829370  65.6352550  77.6051110 127.2659750
  65.9932500  79.6020280 139.9102900  65.2680690  80.1949060 139.7132290
  66.5207960  79.5943820 139.1116270  61.5232090  81.3280450 133.4086750
  61.8755910  80.7308580 132.7488120  60.6394420  81.0024680 133.5795000
  59.2155190  84.6030510 137.6574820  59.8597410  84.8089890 138.3348240
  59.5784630  83.8418910 137.2045670  60.4887270  82.6062860 136.3752270
  61.1309500  81.9056020 136.4884440  61.0136620  83.3861300 136.1949160
  62.2624890  83.4057760 139.5788330  62.5981130  83.9924450 140.2566250
  61.3425230  83.2750470 139.8086120  50.1159020  86.9178340 126.8735870
  50.4756660  87.5167680 126.2193140  49.9751360  87.4638230 127.6470900
  49.8128290  71.1952940 140.3611740  49.0986810  71.3949860 140.9664350
  50.2323330  70.4192510 140.7326540  50.1000880  85.1833200 141.3478270
  50.2092000  84.2427940 141.2073660  49.4481440  85.4487950 140.6992000
  58.0913470  83.4549090 142.7476390  57.7710340  82.7358330 143.2922080
  57.4171830  84.1304160 142.8212450  64.6729100  72.6432190 128.9200750
  64.0442260  72.7477860 128.2058980  64.1781020  72.8628970 129.7094630
  58.2669060  76.3414840 138.3351160  58.7654310  76.8160660 139.0003010
  58.4092010  75.4178360 138.5421190  60.6728560  71.6468800 131.7754420
  60.5496340  71.6654930 130.8263930  61.6213120  71.6947740 131.8952820
  65.4735920  72.5582800 139.1779550  64.9709520  73.2988200 139.5173360
  66.2892580  72.9466800 138.8616340  53.2401040  87.0656040 133.9712300
  53.9763520  86.5171500 134.2420870  53.6241960  87.9312050 133.8318290
  52.2459320  86.2502110 143.1597880  53.0472050  86.5714160 143.5733280
  51.7311140  85.8897690 143.8817790  61.0823950  82.3581980 143.1073290
  60.4762110  82.3813580 142.3669040  60.7778060  81.6265020 143.6440540
  62.5124320  86.0862270 141.7182700  63.4646070  86.0020290 141.6682940
  62.3652540  86.7503980 142.3916490  49.9657130  78.7375570 142.1033930
  50.4696150  78.1582850 142.6750160  49.2264550  79.0215800 142.6410300
  57.0195070  80.1446560 141.6369450  56.2540740  80.7131560 141.5524120
  57.2011030  79.8522770 140.7437680  64.1618420  81.8751890 142.1944470
  64.9027890  82.2127650 141.6911930  63.3991100  82.0443950 141.6414240
  51.9980210  76.8805160 142.9984000  52.0385550  76.5819030 143.9069230
  52.8525710  77.2812770 142.8391520  53.9386020  75.4597260 140.9658490
  53.4082480  74.9688210 140.3381830  54.6074090  75.8881460 140.4316420
  62.8364080  79.9266720 140.7299680  63.2505100  80.0811800 141.5790100
  61.9015080  80.0521940 140.8925460  63.3086250  77.2662880 142.7338830
  63.8907020  76.5115200 142.6459310  63.4848020  77.7970320 141.9570310
  54.4258320  72.4259630 141.0455780  54.3315190  71.8080380 140.3206650
  53.8455710  73.1525920 140.8185690  57.1919760  70.9832870 138.0783170
  56.7437060  71.0057130 137.2328720  56.5584960  70.5851890 138.6753470
  57.5979310  79.8787200 138.6995610  58.0167420  80.7219930 138.5271850
  56.6787940  80.0159240 138.4702390  59.9343210  77.6103380 140.0833450
  60.0539420  77.0144520 140.8228290  60.7937210  77.6473070 139.6634750
  55.4486730  86.1840210 139.8153340  54.9107820  86.9086270 139.4962040
  55.7020690  85.7070550 139.0250680  56.7011980  74.1524730 141.3409270
  57.2911670  73.8440580 142.0287090  55.8832220  73.6804480 141.4969170
  61.5205410  73.7690540 141.5742290  60.8320930  73.1072080 141.5092280
  62.2411430  73.3228810 142.0190750  62.1505810  70.3642170 127.6332550
  62.4308100  69.5210070 127.9891970  61.3771540  70.5965280 128.1471300
  58.3048940  87.4191420 140.0739990  58.2307640  88.3226560 140.3812360
  57.4027780  87.1003320 140.0462060  49.7076230  84.7466010 133.3773610
  50.0379240  83.8787070 133.1452250  50.1367230  84.9524530 134.2078570
  50.1966440  85.6136600 136.1155240  49.7597430  85.7937400 136.9479390
  50.7644120  86.3711220 135.9736960  65.8328620  85.1153600 140.4032550
  65.2330610  85.1746160 139.6596470  65.9622520  84.1758580 140.5329400
  66.5286530  79.6018900 128.2436460  67.2905440  80.1715550 128.3496150
  66.5440900  79.0346100 129.0144770  64.5180260  81.8405580 138.5008710
  63.7040100  82.2702740 138.7634500  64.9254460  82.4523990 137.8877760
  66.5805700  79.8953270 125.4008980  66.8554540  80.8032150 125.2728200
  66.3916440  79.8315800 126.3370970  66.4771040  77.8322260 130.3938410
  66.1014640  77.0650190 129.9619700  65.7474160  78.2144960 130.8813340
  51.0666800  78.5109400 137.0147460  51.4339840  78.4236800 137.8943480
  50.4977620  77.7475950 136.9154320  65.8670660  76.9793780 140.0277930
  65.6356750  76.7506530 139.1275880  66.1275210  77.8993330 139.9822820
  50.6182800  75.4218490 140.9205880  49.7238850  75.3885250 141.2599590
  51.1580350  75.6205280 141.6857130  65.2421970  75.3153100 129.6338060
  65.7381090  75.0823970 130.4186940  65.0438040  74.4764940 129.2175700
  65.0174850  69.8908180 138.6258740  65.6547070  70.5042320 138.9917930
  65.1649740  69.9268840 137.6807970  50.8754510  69.8522490 138.0114420
  50.5269330  70.3086310 138.7772600  50.5442210  68.9579620 138.0936850
  52.4818880  83.0242090 142.1767610  52.4388510  82.6535000 143.0582070
  52.6129890  83.9619660 142.3169430  56.1824910  84.5801680 137.7777330
  55.9416270  84.8476240 136.8907850  57.1227550  84.7507410 137.8328190
  58.3879330  71.0434370 141.5333840  58.3268220  71.6356200 142.2829250
  59.3279710  70.9360330 141.3884100  61.0253890  70.7004430 141.1726130
  61.6394300  71.0183720 140.5107210  61.5703450  70.2153020 141.7921990
  67.4429070  86.5996060 138.5787970  66.9487350  86.9964930 137.8615100
  66.8342360  85.9745270 138.9725250  51.5475150  69.3798690 141.2865190
  52.0958140  69.1986740 140.5231300  51.6130460  68.5892800 141.8221500
  52.3206910  85.9704340 139.2965390  51.7267230  85.8389040 140.0355430
  52.3130750  85.1342480 138.8307490  61.7661930  69.2636570 137.4995420
  60.8921770  69.5971680 137.2968350  61.6572680  68.7909750 138.3247290
  62.6733910  71.4707440 138.8837140  62.3447270  70.6559200 138.5038870
  63.6216210  71.4277250 138.7602830  51.9519140  83.3362720 138.2473430
  51.2253200  82.7168010 138.1799380  52.0128290  83.7303330 137.3771510
  55.5564240  85.5507720 135.0322840  56.0729260  84.9395080 134.5071100
  56.2061620  86.0536500 135.5233850  58.2959740  86.4416210 135.8591820
  58.5837550  86.1870510 134.9824830  58.8082960  85.8893570 136.4497390
  59.5136750  70.1806410 136.4388330  58.7308540  70.6551910 136.7185090
  59.2199680  69.2761240 136.3301510  61.9015950  69.2635610 133.1887430
  62.5045320  69.8355820 133.6635950  61.1608940  69.8275050 132.9661330
  58.3632100  87.3632310 143.2260020  59.2899410  87.1276580 143.2695980
  58.3482530  88.1904310 142.7446050  55.5495710  70.0277060 142.9901900
  55.2679980  70.5310660 142.2262720  55.9315410  69.2298810 142.6244030
  62.1511170  69.4430640 143.5682370  62.0376620  69.7625250 144.4633890
  62.9680910  69.8443150 143.2719650  64.9309660  86.5902170 143.0501060
  65.7234980  86.0951400 142.8427020  65.2242810  87.2692310 143.6576670
  59.1887360  79.2402130 115.8126380  58.4129460  78.7602570 116.1024950
  59.8400290  78.5607780 115.6382540  63.2094790  83.6462320 114.5925510
  62.7476320  82.8749560 114.9212680  64.0220340  83.6728390 115.0977960
  53.1854450  83.5862030 116.8860160  53.4882490  82.6959770 116.7070380
  53.9298040  84.1432250 116.6582410  51.6145140  74.5123830 110.4744530
  50.7261840  74.8539800 110.3724410  51.8986330  74.3124150 109.5825360
  58.6296350  81.9159320 115.8196540  58.5604630  80.9749260 115.6585670
  59.3916210  82.0060730 116.3919110  53.9150360  70.7040260 120.1071510
  53.9168800  71.2212650 119.3017410  53.0854670  70.2270440 120.0841440
  60.3021450  80.8159570 111.6061410  59.6838720  81.2809020 111.0424130
  60.8144700  81.5087050 112.0230920  55.1653210  80.3435440 118.2845010
  54.8322590  80.9704360 118.9266080  55.3419890  80.8697320 117.5046680
  53.5965690  72.4150220 118.1141960  53.9382500  73.2592270 117.8195830
  52.6581500  72.5633960 118.2307300  54.3772310  82.3116240 120.0994190
  54.9946310  82.9867320 119.8178640  53.5165430  82.7204220 120.0081690
  62.8308640  85.6199780 116.7294010  62.8435800  85.2162070 115.8616270
  62.2783860  86.3947070 116.6255440  64.1254060  82.3416000 111.8184180
  64.0150390  81.3990330 111.9433600  64.1222310  82.7031640 112.7046940
  62.2294080  80.5229620 118.0576620  62.6462870  80.3089730 117.2230080
  62.9533900  80.7802410 118.6285240  66.1756180  78.9216840 118.1492860
  65.3474810  78.9909930 117.6742990  66.7706660  79.5071150 117.6808690
  63.1398190  75.7086160 119.0947730  62.7269370  76.5339870 119.3487720
  62.4074140  75.1231200 118.9024090  55.7412680  82.1813620 116.1205610
  55.4440970  81.5759090 115.4413390  56.6912500  82.2190930 116.0094970
  63.8298290  85.7545490 119.7828710  63.3528850  86.5617680 119.5901320
  63.1460080  85.1023820 119.9354920  59.9831710  83.7084500 112.6535910
  60.4227620  84.4508830 112.2391300  59.9218600  83.9511070 113.5774870
  50.8568610  82.2606370 113.6747870  50.4496690  82.4020960 112.8201470
  51.7481620  81.9766530 113.4719080  60.6747490  86.4098280 120.5814920
  61.1892160  86.3206290 121.3837350  59.8316570  86.7557980 120.8742830
  62.6501890  86.6953620 110.0098920  62.4903030  86.4056560 110.9080750
  62.4848600  85.9193750 109.4744150  62.3528020  84.2041180 108.5696920
  61.6593180  84.2018470 107.9099200  63.0950880  83.7800500 108.1391090
  54.4399270  70.7326110 114.8396720  53.9967420  71.5135650 114.5081240
  54.9984260  71.0556000 115.5467660  58.7269080  73.5994630 120.4432040
  58.2648450  73.8077650 121.2551980  58.3247190  72.7853980 120.1402710
  63.7273590  74.8203580 121.5728700  62.8767180  74.5209330 121.8937770
  63.5675380  75.0645590 120.6612520  51.8023240  73.1658930 121.3872020
  51.4086630  74.0134140 121.5944800  51.1141640  72.5285300 121.5780660
  57.0908650  73.7646540 115.6975170  57.0944710  73.3236490 114.8479710
  57.9859770  74.0863870 115.8046990  57.3916620  77.8248320 117.4440580
  57.7586750  77.3506890 118.1901920  57.2021680  78.6989890 117.7848920
  53.7097780  81.0717950 110.3591640  52.9360040  80.5315570 110.1990360
  54.4392410  80.5524560 110.0209400  64.4685760  80.0683310 116.1518030
  65.1884880  80.5638600 115.7614140  64.2667580  79.3901200 115.5071900
  58.6404680  82.0064610 109.2697750  58.9820380  82.7506840 108.7741070
  57.8117390  82.3195730 109.6322580  59.7821290  82.9612940 121.7890830
  59.7965830  82.0293900 121.5709740  59.0746390  83.0472700 122.4280600
  65.9932500  79.6020280 121.1359410  65.2680690  80.1949060 120.9388800
  66.5207960  79.5943820 120.3372780  65.9445610  83.9995020 110.7871570
  65.3021770  83.3450640 111.0615290  65.5576270  84.4050110 110.0112240
  61.5232090  81.3280450 114.6343260  61.8755910  80.7308580 113.9744630
  60.6394420  81.0024680 114.8051510  57.6095370  82.0878140 112.0413670
  58.2966500  82.6347350 112.4221260  56.8227790  82.6318870 112.0763280
  49.7487770  77.7050960 107.5330750  50.6182620  77.9875760 107.8166670
  49.2578090  78.5186830 107.4179560  56.9122580  79.0924170 111.6539030
  57.3685360  79.9029420 111.8799220  56.5610790  78.7747310 112.4857520
  59.2155190  84.6030510 118.8831330  59.8597410  84.8089890 119.5604750
  59.5784630  83.8418910 118.4302180  60.4887270  82.6062860 117.6008780
  61.1309500  81.9056020 117.7140950  61.0136620  83.3861300 117.4205670
  62.2624890  83.4057760 120.8044840  62.5981130  83.9924450 121.4822760
  61.3425230  83.2750470 121.0342630  49.8128290  71.1952940 121.5868250
  49.0986810  71.3949860 122.1920860  50.2323330  70.4192510 121.9583050
  51.7334280  79.5224430 109.6612810  51.1262230  80.2623330 109.6708110
  52.2083630  79.6123790 108.8351010  61.3067070  73.6875250 119.3369700
  61.6747890  72.8670460 119.6649270  60.4465270  73.7477140 119.7525350
  59.1187240  84.3637780 107.5791240  59.2199220  84.1601770 106.6493220
  58.2188980  84.1096060 107.7839020  58.2669060  76.3414840 119.5607670
  58.7654310  76.8160660 120.2259520  58.4092010  75.4178360 119.7677700
  53.7439570  79.4835580 107.4101380  54.5102840  79.3716940 107.9726810
  53.8214260  78.7873550 106.7578150  52.4386330  76.9160650 108.0934270
  52.5189920  75.9688160 108.2051670  53.3306080  77.2467530 108.1994930
  53.2401040  87.0656040 115.1968810  53.9763520  86.5171500 115.4677380
  53.6241960  87.9312050 115.0574800  52.2459320  86.2502110 124.3854390
  53.0472050  86.5714160 124.7989790  51.7311140  85.8897690 125.1074300
  56.3503350  86.2386350 107.0194380  57.1431960  86.5275180 106.5676170
  55.8307700  85.8078520 106.3406860  62.5124320  86.0862270 122.9439210
  63.4646070  86.0020290 122.8939450  62.3652540  86.7503980 123.6173000
  65.4033520  85.4656480 108.4431120  65.1175030  85.0521620 107.6285300
  65.2053070  86.3944190 108.3231640  56.8680750  81.4589760 106.8836730
  56.7631390  80.8442110 107.6098110  56.7004970  80.9355650 106.0999740
  60.1083480  80.5209790 107.4878720  59.5593580  80.9679090 108.1321460
  60.7302740  80.0159040 108.0116390  55.7758600  79.4800710 109.3844020
  56.1975020  79.3140580 110.2275410  55.9009440  78.6700940 108.8899160
  62.8364080  79.9266720 121.9556190  63.2505100  80.0811800 122.8046610
  61.9015080  80.0521940 122.1181970  63.3086250  77.2662880 123.9595340
  63.8907020  76.5115200 123.8715820  63.4848020  77.7970320 123.1826820
  57.1919760  70.9832870 119.3039680  56.7437060  71.0057130 118.4585230
  56.5584960  70.5851890 119.9009980  59.9343210  77.6103380 121.3089960
  60.0539420  77.0144520 122.0484800  60.7937210  77.6473070 120.8891260
  62.2731110  78.1640570 119.8852470  61.7466330  78.6883190 119.2817610
  62.6162450  78.7967960 120.5162200  61.5205410  73.7690540 122.7998800
  60.8320930  73.1072080 122.7348790  62.2411430  73.3228810 123.2447260
  67.5346500  80.4569000 114.3134900  67.9055330  79.6736320 113.9070870
  68.1748430  81.1458100 114.1352200  64.5180260  81.8405580 119.7265220
  63.7040100  82.2702740 119.9891010  64.9254460  82.4523990 119.1134270
  49.2428950  75.3355760 109.6425960  48.3393030  75.5985960 109.4677620
  49.7269570  75.6066930 108.8625920  65.9311720  76.1419620 118.4421710
  64.9814430  76.1083160 118.5566700  66.1124730  77.0519730 118.2071480
  51.7856160  74.3921300 107.5520340  52.4947860  73.9704520 107.0667620
  51.0696100  74.4596530 106.9203690  51.4330320  70.4460630 106.5922990
  52.1558450  70.9869570 106.9104210  51.7054840  70.1724050 105.7164530
  51.1222510  69.6966820 116.4945610  51.7698700  69.1464200 116.0540770
  51.5424350  69.9509970 117.3161420  64.5756310  86.5924180 113.2533490
  65.1715380  86.2708750 112.5767910  64.8334460  86.1196000 114.0446760
  50.8754510  69.8522490 119.2370930  50.5269330  70.3086310 120.0029110
  50.5442210  68.9579620 119.3193360  56.1824910  84.5801680 119.0033840
  55.9416270  84.8476240 118.1164360  57.1227550  84.7507410 119.0584700
  61.0253890  70.7004430 122.3982640  61.6394300  71.0183720 121.7363720
  61.5703450  70.2153020 123.0178500  51.5475150  69.3798690 122.5121700
  52.0958140  69.1986740 121.7487810  51.6130460  68.5892800 123.0478010
  52.3206910  85.9704340 120.5221900  51.7267230  85.8389040 121.2611940
  52.3130750  85.1342480 120.0564000  61.7661930  69.2636570 118.7251930
  60.8921770  69.5971680 118.5224860  61.6572680  68.7909750 119.5503800
  62.6733910  71.4707440 120.1093650  62.3447270  70.6559200 119.7295380
  63.6216210  71.4277250 119.9859340  55.5564240  85.5507720 116.2579350
  56.0729260  84.9395080 115.7327610  56.2061620  86.0536500 116.7490360
  58.2959740  86.4416210 117.0848330  58.5837550  86.1870510 116.2081340
  58.8082960  85.8893570 117.6753900  50.8577160  70.4853890 110.1858560
  51.6156520  70.5982770 109.6122590  50.3954330  71.3223090 110.1401990
  66.5977160  86.9057880 111.4490780  66.7729350  86.2195620 110.8051700
  65.8998730  87.4304930 111.0567450  62.1511170  69.4430640 124.7938880
  62.0376620  69.7625250 125.6890400  62.9680910  69.8443150 124.4976160
  53.2053190  79.5521940  97.9158650  52.3738070  79.2970650  98.3155160
  53.8134170  79.6232710  98.6516570  53.1854450  83.5862030  98.1116670
  53.4882490  82.6959770  97.9326890  53.9298040  84.1432250  97.8838920
  49.5778150  77.1129480  97.5840740  50.1494260  76.3451680  97.5844380
  49.5779690  77.4118240  96.6747350  50.8203020  72.5213840  99.3709670
  50.6405860  71.6239590  99.6512430  50.4183100  73.0685710 100.0456620
  51.4389690  75.0174340  97.9792010  52.1199800  75.2812710  98.5979410
  51.1237740  74.1775210  98.3130020  55.1653210  80.3435440  99.5101520
  54.8322590  80.9704360 100.1522590  55.3419890  80.8697320  98.7303190
  54.3772310  82.3116240 101.3250700  54.9946310  82.9867320 101.0435150
  53.5165430  82.7204220 101.2338200  49.6704650  81.5016100  90.2057550
  49.2932630  81.9903200  89.4742450  49.9277720  82.1741380  90.8364080
  55.7412680  82.1813620  97.3462120  55.4440970  81.5759090  96.6669900
  56.6912500  82.2190930  97.2351480  54.8331110  81.9195310 103.9969920
  53.9359640  82.1435280 104.2443320  54.8583980  82.0430250 103.0481320
  53.6602330  78.7908630 102.5727290  53.5210100  79.6631430 102.9414690
  52.7783690  78.4481440 102.4275230  55.4582680  84.7330330 104.7812440
  55.4298110  85.1373280 103.9140870  55.2947650  83.8040690 104.6184040
  49.6120980  80.5606180  98.4898200  49.6901400  80.6954950  97.5453920
  50.2262660  79.8522070  98.6826320  50.8568610  82.2606370  94.9004380
  50.4496690  82.4020960  94.0457980  51.7481620  81.9766530  94.6975590
  60.6747490  86.4098280 101.8071430  61.1892160  86.3206290 102.6093860
  59.8316570  86.7557980 102.0999340  55.1290270  86.4752150  93.0127050
  54.9532750  85.5587690  92.7994850  54.2746010  86.8339440  93.2524850
  49.6680500  81.6020350 101.0292660  49.8311540  81.1325710 100.2112030
  50.1332950  81.0943910 101.6941500  54.4399270  70.7326110  96.0653230
  53.9967420  71.5135650  95.7337750  54.9984260  71.0556000  96.7724170
  57.5558090  70.3536810  90.9459060  56.9312270  70.3496680  91.6712370
  57.4688210  69.4867770  90.5495030  51.8023240  73.1658930 102.6128530
  51.4086630  74.0134140 102.8201310  51.1141640  72.5285300 102.8037170
  49.1040290  71.0887390  96.6458610  48.8153340  71.6590250  97.3583590
  49.8486050  70.6091840  97.0089840  49.2910520  75.0307510  87.8561330
  49.2085190  75.9738270  87.9976320  48.9393580  74.8882420  86.9773680
  51.2419480  80.9771780 103.1888470  50.8574270  80.3365450 103.7871430
  51.5531670  81.6807900 103.7583200  50.2557110  72.5692010  94.7990560
  49.9704030  72.2047680  95.6369180  50.1935970  71.8372470  94.1853700
  55.1815990  76.8656960 100.9881300  54.8773060  77.7448940 101.2131660
  56.1362450  76.9256750 101.0238740  53.7097780  81.0717950  91.5848150
  52.9360040  80.5315570  91.4246870  54.4392410  80.5524560  91.2465910
  53.7535180  80.7398330  95.2226960  54.2713850  79.9366590  95.1683850
  53.3019200  80.6777470  96.0643790  58.6404680  82.0064610  90.4954260
  58.9820380  82.7506840  89.9997580  57.8117390  82.3195730  90.8579090
  51.2379720  77.7059700 102.1352660  50.8794660  78.3713550 102.7226000
  50.9434280  76.8743250 102.5065280  54.4392840  78.1643940 105.0192210
  54.1392980  78.3101120 104.1220030  55.2104080  77.6049230 104.9265600
  49.7487770  77.7050960  88.7587260  50.6182620  77.9875760  89.0423180
  49.2578090  78.5186830  88.6436070  52.8134360  69.4361820  93.3518060
  52.6848990  69.4279720  94.3002980  51.9896380  69.7744910  93.0009070
  58.0913470  83.4549090 105.1989410  57.7710340  82.7358330 105.7435100
  57.4171830  84.1304160 105.2725470  56.1327640  84.3009540  90.1422560
  56.1237740  85.0339230  89.5267070  55.2126000  84.0541120  90.2349520
  51.7334280  79.5224430  90.8869320  51.1262230  80.2623330  90.8964620
  52.2083630  79.6123790  90.0607520  59.1187240  84.3637780  88.8047750
  59.2199220  84.1601770  87.8749730  58.2188980  84.1096060  89.0095530
  57.7605350  86.8824100  93.4995420  58.0146850  86.8445490  92.5774790
  56.8117830  86.7557430  93.4923670  54.8448150  73.2303220  90.1622360
  55.6938680  73.6673370  90.0962550  54.4779420  73.5423480  90.9894420
  53.7439570  79.4835580  88.6357890  54.5102840  79.3716940  89.1983320
  53.8214260  78.7873550  87.9834660  52.4386330  76.9160650  89.3190780
  52.5189920  75.9688160  89.4308180  53.3306080  77.2467530  89.4251440
  50.1246520  83.1329610  92.2966830  49.1986300  83.3750750  92.2872240
  50.5902950  83.9603870  92.1751580  61.0823950  82.3581980 105.5586310
  60.4762110  82.3813580 104.8182060  60.7778060  81.6265020 106.0953560
  62.5124320  86.0862270 104.1695720  63.4646070  86.0020290 104.1195960
  62.3652540  86.7503980 104.8429510  49.9657130  78.7375570 104.5546950
  50.4696150  78.1582850 105.1263180  49.2264550  79.0215800 105.0923320
  56.8680750  81.4589760  88.1093240  56.7631390  80.8442110  88.8354620
  56.7004970  80.9355650  87.3256250  60.1083480  80.5209790  88.7135230
  59.5593580  80.9679090  89.3577970  60.7302740  80.0159040  89.2372900
  51.9980210  76.8805160 105.4497020  52.0385550  76.5819030 106.3582250
  52.8525710  77.2812770 105.2904540  55.7758600  79.4800710  90.6100530
  56.1975020  79.3140580  91.4531920  55.9009440  78.6700940  90.1155670
  53.9386020  75.4597260 103.4171510  53.4082480  74.9688210 102.7894850
  54.6074090  75.8881460 102.8829440  58.2886240  78.5038320  87.8577630
  58.8091900  77.7887340  87.4918780  58.9354640  79.1424190  88.1578140
  54.6717500  75.5533940  87.5558690  54.4706560  74.6901300  87.9172030
  54.5009550  75.4667300  86.6180290  55.4486730  86.1840210 102.2666360
  54.9107820  86.9086270 101.9475060  55.7020690  85.7070550 101.4763700
  53.4700300  72.6534560  87.5436570  53.7726200  72.6601990  86.6355720
  54.2094890  72.3032420  88.0404230  58.3048940  87.4191420 102.5253010
  58.2307640  88.3226560 102.8325380  57.4027780  87.1003320 102.4975080
  56.6885230  71.5969180  88.5292770  56.3407230  70.9193170  87.9495220
  56.8898000  71.1358690  89.3436160  52.4930430  81.9576980  88.3766370
  52.9305300  82.5006650  89.0323950  52.9778160  81.1323930  88.3862710
  54.3038150  83.0775020  93.4888600  54.0033690  82.9539990  94.3892510
  54.1975640  82.2183610  93.0804330  62.9781310  72.9198120  89.1475630
  63.3966190  72.7329100  88.3072290  62.6717370  72.0677170  89.4578560
  51.0666800  78.5109400  99.4660480  51.4339840  78.4236800 100.3456500
  50.4977620  77.7475950  99.3667340  50.6182800  75.4218490 103.3718900
  49.7238850  75.3885250 103.7112610  51.1580350  75.6205280 104.1370150
  49.2428950  75.3355760  90.8682470  48.3393030  75.5985960  90.6934130
  49.7269570  75.6066930  90.0882430  51.7856160  74.3921300  88.7776850
  52.4947860  73.9704520  88.2924130  51.0696100  74.4596530  88.1460200
  51.1222510  69.6966820  97.7202120  51.7698700  69.1464200  97.2797280
  51.5424350  69.9509970  98.5417930  50.8754510  69.8522490 100.4627440
  50.5269330  70.3086310 101.2285620  50.5442210  68.9579620 100.5449870
  56.1824910  84.5801680 100.2290350  55.9416270  84.8476240  99.3420870
  57.1227550  84.7507410 100.2841210  51.5475150  69.3798690 103.7378210
  52.0958140  69.1986740 102.9744320  51.6130460  68.5892800 104.2734520
  52.3206910  85.9704340 101.7478410  51.7267230  85.8389040 102.4868450
  52.3130750  85.1342480 101.2820510  51.9519140  83.3362720 100.6986450
  51.2253200  82.7168010 100.6312400  52.0128290  83.7303330  99.8284530
  55.5564240  85.5507720  97.4835860  56.0729260  84.9395080  96.9584120
  56.2061620  86.0536500  97.9746870  53.2302310  71.0117940  89.9517040
  53.7595070  70.2247740  89.8224990  53.8630630  71.6909130  90.1852570
  55.4240150  70.7493080  93.0062430  54.7942890  70.0480390  93.1732560
  54.8845290  71.5097210  92.7895590  58.3632100  87.3632310 105.6773040
  59.2899410  87.1276580 105.7209000  58.3482530  88.1904310 105.1959070
  53.6019600  83.4117450  90.2328930  52.9728480  83.8802550  90.7814760
  53.7167430  82.5666670  90.6675120  64.9309660  86.5902170 105.5014080
  65.7234980  86.0951400 105.2940040  65.2242810  87.2692310 106.1089690
  61.0569320  77.4623110  76.3830130  60.9763370  76.5477720  76.1121840
  60.6433740  77.9590180  75.6769840  63.2094790  83.6462320  77.0438530
  62.7476320  82.8749560  77.3725700  64.0220340  83.6728390  77.5490980
  51.6145140  74.5123830  72.9257550  50.7261840  74.8539800  72.8237430
  51.8986330  74.3124150  72.0338380  59.4358100  85.9320330  76.6642520
  58.8169540  86.3877830  76.0936960  60.2909880  86.0871790  76.2632220
  50.8203020  72.5213840  80.5966180  50.6405860  71.6239590  80.8768940
  50.4183100  73.0685710  81.2713130  59.6601520  74.7229700  78.4978490
  60.0366340  73.8501580  78.3852160  59.5621030  75.0588400  77.6068930
  53.7906530  73.0955330  73.9595930  53.8973280  73.9959060  74.2664690
  52.8798890  73.0473300  73.6690580  63.4425640  72.2180140  75.4306830
  64.2635260  71.7276710  75.4732310  63.4759720  72.8077800  76.1838670
  51.4389690  75.0174340  79.2048520  52.1199800  75.2812710  79.8235920
  51.1237740  74.1775210  79.5386530  55.6314260  76.0641700  78.2921110
  56.1392480  76.5622670  78.9326130  56.1627500  75.2876900  78.1160470
  67.7325190  74.2346890  81.9950460  67.0277360  74.6228600  81.4765570
  67.9983110  74.9297180  82.5971390  53.9150360  70.7040260  82.5584530
  53.9168800  71.2212650  81.7530430  53.0854670  70.2270440  82.5354460
  60.3021450  80.8159570  74.0574430  59.6838720  81.2809020  73.4937150
  60.8144700  81.5087050  74.4743940  63.6787120  74.1580520  78.2034370
  62.9742690  74.4465410  78.7837480  64.0399280  74.9680630  77.8433930
  53.5965690  72.4150220  80.5654980  53.9382500  73.2592270  80.2708850
  52.6581500  72.5633960  80.6820320  54.3772310  82.3116240  82.5507210
  54.9946310  82.9867320  82.2691660  53.5165430  82.7204220  82.4594710
  49.6704650  81.5016100  71.4314060  49.2932630  81.9903200  70.6998960
  49.9277720  82.1741380  72.0620590  65.2949900  83.7755650  80.4661850
  64.6113420  84.4454760  80.4578520  65.8344190  83.9736300  79.7006710
  66.7474040  73.6035310  78.5943580  65.7998950  73.6374290  78.7259010
  67.0724030  74.4174260  78.9792940  57.2793580  69.9032490  76.8899570
  57.5868560  69.3479380  76.1735070  56.3494280  70.0376950  76.7072560
  62.8308640  85.6199780  79.1807030  62.8435800  85.2162070  78.3129290
  62.2783860  86.3947070  79.0768460  64.1254060  82.3416000  74.2697200
  64.0150390  81.3990330  74.3946620  64.1222310  82.7031640  75.1559960
  62.2294080  80.5229620  80.5089640  62.6462870  80.3089730  79.6743100
  62.9533900  80.7802410  81.0798260  59.6674340  77.9681320  73.6259690
  58.7403620  77.9018700  73.8548160  59.8199160  78.9061450  73.5114930
  59.6543420  74.2398320  70.6226850  58.7147090  74.4012280  70.7079310
  59.9726680  74.9584000  70.0762840  66.1756180  78.9216840  80.6005880
  65.3474810  78.9909930  80.1256010  66.7706660  79.5071150  80.1321710
  63.6971630  79.5301620  74.1294940  63.0784050  79.1921170  73.4821240
  63.6796080  78.8861380  74.8374130  63.1398190  75.7086160  81.5460750
  62.7269370  76.5339870  81.8000740  62.4074140  75.1231200  81.3537110
  55.2730980  78.4946060  76.4079420  54.8687980  77.7823310  75.9125320
  55.3594100  78.1499300  77.2967460  53.9859600  75.2689270  80.1878460
  54.5374190  75.3784610  79.4131710  54.5003110  75.6426870  80.9033690
  63.8298290  85.7545490  82.2341730  63.3528850  86.5617680  82.0414340
  63.1460080  85.1023820  82.3867940  54.8331110  81.9195310  85.2226430
  53.9359640  82.1435280  85.4699830  54.8583980  82.0430250  84.2737830
  53.6602330  78.7908630  83.7983800  53.5210100  79.6631430  84.1671200
  52.7783690  78.4481440  83.6531740  59.9831710  83.7084500  75.1048930
  60.4227620  84.4508830  74.6904320  59.9218600  83.9511070  76.0287890
  55.4582680  84.7330330  86.0068950  55.4298110  85.1373280  85.1397380
  55.2947650  83.8040690  85.8440550  60.6747490  86.4098280  83.0327940
  61.1892160  86.3206290  83.8350370  59.8316570  86.7557980  83.3255850
  55.1290270  86.4752150  74.2383560  54.9532750  85.5587690  74.0251360
  54.2746010  86.8339440  74.4781360  61.9177950  85.8303890  75.0958430
  62.3734900  85.0493270  75.4097050  62.2570470  86.5410710  75.6399610
  49.6680500  81.6020350  82.2549170  49.8311540  81.1325710  81.4368540
  50.1332950  81.0943910  82.9198010  54.4399270  70.7326110  77.2909740
  53.9967420  71.5135650  76.9594260  54.9984260  71.0556000  77.9980680
  58.7269080  73.5994630  82.8945060  58.2648450  73.8077650  83.7065000
  58.3247190  72.7853980  82.5915730  63.7273590  74.8203580  84.0241720
  62.8767180  74.5209330  84.3450790  63.5675380  75.0645590  83.1125540
  60.8223300  76.3205330  86.1240510  61.1476710  75.4869080  85.7842740
  61.6103630  76.8433850  86.2718840  57.5558090  70.3536810  72.1715570
  56.9312270  70.3496680  72.8968880  57.4688210  69.4867770  71.7751540
  56.4775170  71.2773440  79.1499340  56.7747500  72.1836270  79.0691360
  57.0260730  70.7892220  78.5358910  54.2313490  75.8559680  75.0190990
  54.0054410  75.6396850  75.9237610  53.4506020  76.2888140  74.6736960
  61.4611250  75.8623050  73.6181640  60.8620140  76.5858850  73.4345260
  62.0090860  75.7999830  72.8358090  56.6712700  76.7545260  85.6851260
  56.5756300  75.8139990  85.5351660  57.5144680  76.9760330  85.2899330
  60.0676120  74.4986590  75.6484920  60.4605690  74.8158790  74.8353610
  60.4292970  73.6198470  75.7629440  51.8023240  73.1658930  83.8385040
  51.4086630  74.0134140  84.0457820  51.1141640  72.5285300  84.0293680
  58.3768290  73.2493900  86.9081780  57.6866610  73.0566100  87.5427870
  59.1200590  73.5328540  87.4406080  49.1040290  71.0887390  77.8715120
  48.8153340  71.6590250  78.5840100  49.8486050  70.6091840  78.2346350
  49.2910520  75.0307510  69.0817840  49.2085190  75.9738270  69.2232830
  48.9393580  74.8882420  68.2030190  60.6531260  77.0892340  79.7435700
  59.9212380  77.5979150  80.0925800  60.2555600  76.2722320  79.4424480
  57.0908650  73.7646540  78.1488190  57.0944710  73.3236490  77.2992730
  57.9859770  74.0863870  78.2560010  52.9411030  73.6473030  77.1082400
  52.6011080  74.1248260  77.8649450  52.1788350  73.1938150  76.7483500
  57.1528800  74.7658620  71.1394950  57.2741620  74.7245100  72.0880770
  56.7677310  75.6282770  70.9841680  61.1157170  72.5426020  79.1558640
  61.1329910  72.9934670  80.0000490  60.8672750  71.6431660  79.3692080
  56.1650300  77.0759760  70.5378250  55.5967200  76.6278010  69.9114160
  56.8739300  77.4352540  70.0043400  51.2419480  80.9771780  84.4144980
  50.8574270  80.3365450  85.0127940  51.5531670  81.6807900  84.9839710
  50.2557110  72.5692010  76.0247070  49.9704030  72.2047680  76.8625690
  50.1935970  71.8372470  75.4110210  55.1815990  76.8656960  82.2137810
  54.8773060  77.7448940  82.4388170  56.1362450  76.9256750  82.2495250
  64.4685760  80.0683310  78.6031050  65.1884880  80.5638600  78.2127160
  64.2667580  79.3901200  77.9584920  59.9295700  71.4621270  72.7460440
  59.1160310  70.9634440  72.6705750  59.7357650  72.3019520  72.3296790
  59.8504560  80.1392370  84.4900050  59.7841870  79.2188040  84.2357640
  59.2209700  80.2367810  85.2044690  58.6404680  82.0064610  71.7210770
  58.9820380  82.7506840  71.2254090  57.8117390  82.3195730  72.0835600
  51.2379720  77.7059700  83.3609170  50.8794660  78.3713550  83.9482510
  50.9434280  76.8743250  83.7321790  54.4392840  78.1643940  86.2448720
  54.1392980  78.3101120  85.3476540  55.2104080  77.6049230  86.1522110
  59.7821290  82.9612940  84.2403850  59.7965830  82.0293900  84.0222760
  59.0746390  83.0472700  84.8793620  65.9932500  79.6020280  83.5872430
  65.2680690  80.1949060  83.3901820  66.5207960  79.5943820  82.7885800
  49.7487770  77.7050960  69.9843770  50.6182620  77.9875760  70.2679690
  49.2578090  78.5186830  69.8692580  56.9122580  79.0924170  74.1052050
  57.3685360  79.9029420  74.3312240  56.5610790  78.7747310  74.9370540
  59.2155190  84.6030510  81.3344350  59.8597410  84.8089890  82.0117770
  59.5784630  83.8418910  80.8815200  52.8134360  69.4361820  74.5774570
  52.6848990  69.4279720  75.5259490  51.9896380  69.7744910  74.2265580
  64.3342990  82.8911480  69.7760940  64.1080570  82.1741920  70.3685580
  63.9439190  82.6423920  68.9382690  62.2624890  83.4057760  83.2557860
  62.5981130  83.9924450  83.9335780  61.3425230  83.2750470  83.4855650
  49.8128290  71.1952940  84.0381270  49.0986810  71.3949860  84.6433880
  50.2323330  70.4192510  84.4096070  63.9159240  80.8083420  71.4375100
  63.6280940  81.2696110  72.2252980  64.7111410  80.3481190  71.7059320
  50.1000880  85.1833200  85.0247800  50.2092000  84.2427940  84.8843190
  49.4481440  85.4487950  84.3761530  58.0913470  83.4549090  86.4245920
  57.7710340  82.7358330  86.9691610  57.4171830  84.1304160  86.4981980
  56.1327640  84.3009540  71.3679070  56.1237740  85.0339230  70.7523580
  55.2126000  84.0541120  71.4606030  51.7334280  79.5224430  72.1125830
  51.1262230  80.2623330  72.1221130  52.2083630  79.6123790  71.2864030
  61.3067070  73.6875250  81.7882720  61.6747890  72.8670460  82.1162290
  60.4465270  73.7477140  82.2038370  59.1187240  84.3637780  70.0304260
  59.2199220  84.1601770  69.1006240  58.2188980  84.1096060  70.2352040
  56.6413130  74.9218140  74.0128160  55.9329280  75.3904480  74.4541770
  56.9257610  74.2640150  74.6473350  58.2669060  76.3414840  82.0120690
  58.7654310  76.8160660  82.6772540  58.4092010  75.4178360  82.2190720
  60.6728560  71.6468800  75.4523950  60.5496340  71.6654930  74.5033460
  61.6213120  71.6947740  75.5722350  54.8448150  73.2303220  71.3878870
  55.6938680  73.6673370  71.3219060  54.4779420  73.5423480  72.2150930
  65.4735920  72.5582800  82.8549080  64.9709520  73.2988200  83.1942890
  66.2892580  72.9466800  82.5385870  63.7657930  77.8015980  76.3010440
  62.8248070  77.8166210  76.4758130  64.0802000  77.0151940  76.7470740
  52.4386330  76.9160650  70.5447290  52.5189920  75.9688160  70.6564690
  53.3306080  77.2467530  70.6507950  65.7683510  84.9724830  77.9764700
  65.8930930  85.7956000  78.4488510  66.6349070  84.7615560  77.6288850
  61.0823950  82.3581980  86.7842820  60.4762110  82.3813580  86.0438570
  60.7778060  81.6265020  87.3210070  49.9657130  78.7375570  85.7803460
  50.4696150  78.1582850  86.3519690  49.2264550  79.0215800  86.3179830
  57.0195070  80.1446560  85.3138980  56.2540740  80.7131560  85.2293650
  57.2011030  79.8522770  84.4207210  51.9980210  76.8805160  86.6753530
  52.0385550  76.5819030  87.5838760  52.8525710  77.2812770  86.5161050
  55.7758600  79.4800710  71.8357040  56.1975020  79.3140580  72.6788430
  55.9009440  78.6700940  71.3412180  53.9386020  75.4597260  84.6428020
  53.4082480  74.9688210  84.0151360  54.6074090  75.8881460  84.1085950
  62.8364080  79.9266720  84.4069210  63.2505100  80.0811800  85.2559630
  61.9015080  80.0521940  84.5694990  54.4258320  72.4259630  84.7225310
  54.3315190  71.8080380  83.9976180  53.8455710  73.1525920  84.4955220
  57.1919760  70.9832870  81.7552700  56.7437060  71.0057130  80.9098250
  56.5584960  70.5851890  82.3523000  59.9343210  77.6103380  83.7602980
  60.0539420  77.0144520  84.4997820  60.7937210  77.6473070  83.3404280
  62.2731110  78.1640570  82.3365490  61.7466330  78.6883190  81.7330630
  62.6162450  78.7967960  82.9675220  54.6717500  75.5533940  68.7815200
  54.4706560  74.6901300  69.1428540  54.5009550  75.4667300  67.8436800
  56.7011980  74.1524730  85.0178800  57.2911670  73.8440580  85.7056620
  55.8832220  73.6804480  85.1738700  61.5205410  73.7690540  85.2511820
  60.8320930  73.1072080  85.1861810  62.2411430  73.3228810  85.6960280
  53.4700300  72.6534560  68.7693080  53.7726200  72.6601990  67.8612230
  54.2094890  72.3032420  69.2660740  58.3048940  87.4191420  83.7509520
  58.2307640  88.3226560  84.0581890  57.4027780  87.1003320  83.7231590
  56.6885230  71.5969180  69.7549280  56.3407230  70.9193170  69.1751730
  56.8898000  71.1358690  70.5692670  52.4930430  81.9576980  69.6022880
  52.9305300  82.5006650  70.2580460  52.9778160  81.1323930  69.6119220
  67.5346500  80.4569000  76.7647920  67.9055330  79.6736320  76.3583890
  68.1748430  81.1458100  76.5865220  64.5180260  81.8405580  82.1778240
  63.7040100  82.2702740  82.4404030  64.9254460  82.4523990  81.5647290
  51.0666800  78.5109400  80.6916990  51.4339840  78.4236800  81.5713010
  50.4977620  77.7475950  80.5923850  65.8670660  76.9793780  83.7047460
  65.6356750  76.7506530  82.8045410  66.1275210  77.8993330  83.6592350
  50.6182800  75.4218490  84.5975410  49.7238850  75.3885250  84.9369120
  51.1580350  75.6205280  85.3626660  49.2428950  75.3355760  72.0938980
  48.3393030  75.5985960  71.9190640  49.7269570  75.6066930  71.3138940
  65.7522000  76.0579750  77.3715180  66.2759480  75.5642400  76.7405350
  66.3381420  76.1930110  78.1162750  65.9311720  76.1419620  80.8934730
  64.9814430  76.1083160  81.0079720  66.1124730  77.0519730  80.6584500
  51.7856160  74.3921300  70.0033360  52.4947860  73.9704520  69.5180640
  51.0696100  74.4596530  69.3716710  51.4330320  70.4460630  69.0436010
  52.1558450  70.9869570  69.3617230  51.7054840  70.1724050  68.1677550
  51.1222510  69.6966820  78.9458630  51.7698700  69.1464200  78.5053790
  51.5424350  69.9509970  79.7674440  66.6709130  73.9514050  75.8445270
  66.5608410  73.7970090  76.7827540  67.4316720  73.4234990  75.6020680
  50.8754510  69.8522490  81.6883950  50.5269330  70.3086310  82.4542130
  50.5442210  68.9579620  81.7706380  52.4818880  83.0242090  85.8537140
  52.4388510  82.6535000  86.7351600  52.6129890  83.9619660  85.9938960
  56.1824910  84.5801680  81.4546860  55.9416270  84.8476240  80.5677380
  57.1227550  84.7507410  81.5097720  58.3879330  71.0434370  85.2103370
  58.3268220  71.6356200  85.9598780  59.3279710  70.9360330  85.0653630
  61.0253890  70.7004430  84.8495660  61.6394300  71.0183720  84.1876740
  61.5703450  70.2153020  85.4691520  61.7661930  69.2636570  81.1764950
  60.8921770  69.5971680  80.9737880  61.6572680  68.7909750  82.0016820
  62.6733910  71.4707440  82.5606670  62.3447270  70.6559200  82.1808400
  63.6216210  71.4277250  82.4372360  55.5564240  85.5507720  78.7092370
  56.0729260  84.9395080  78.1840630  56.2061620  86.0536500  79.2003380
  58.2959740  86.4416210  79.5361350  58.5837550  86.1870510  78.6594360
  58.8082960  85.8893570  80.1266920  59.5136750  70.1806410  80.1157860
  58.7308540  70.6551910  80.3954620  59.2199680  69.2761240  80.0071040
  64.0657820  70.8829510  78.1606950  64.5065910  70.8274610  77.3128550
  63.7965410  71.7987520  78.2317130  65.9296390  70.5144750  76.1715770
  65.8684790  69.5705970  76.0246790  66.7088420  70.6224840  76.7169230
  57.3990970  72.5993160  75.6273890  56.5865480  72.2250050  75.2869770
  57.9032610  71.8438240  75.9295080  61.9015950  69.2635610  76.8656960
  62.5045320  69.8355820  77.3405480  61.1608940  69.8275050  76.6430860
  53.2302310  71.0117940  71.1773550  53.7595070  70.2247740  71.0481500
  53.8630630  71.6909130  71.4109080  55.4240150  70.7493080  74.2318940
  54.7942890  70.0480390  74.3989070  54.8845290  71.5097210  74.0152100
  55.5495710  70.0277060  86.6671430  55.2679980  70.5310660  85.9032250
  55.9315410  69.2298810  86.3013560  54.4404810  87.2952720  71.4539110
  55.1723630  87.0112000  70.9063000  54.6998480  87.0566000  72.3438490
  53.6019600  83.4117450  71.4585440  52.9728480  83.8802550  72.0071270
  53.7167430  82.5666670  71.8931630  49.5778150  77.1129480  60.0353760
  50.1494260  76.3451680  60.0357400  49.5779690  77.4118240  59.1260370
  53.9150360  70.7040260  63.7841040  53.9168800  71.2212650  62.9786940
  53.0854670  70.2270440  63.7610970  53.5965690  72.4150220  61.7911490
  53.9382500  73.2592270  61.4965360  52.6581500  72.5633960  61.9076830
  55.2730980  78.4946060  57.6335930  54.8687980  77.7823310  57.1381830
  55.3594100  78.1499300  58.5223970  53.9859600  75.2689270  61.4134970
  54.5374190  75.3784610  60.6388220  54.5003110  75.6426870  62.1290200
  55.4582680  84.7330330  67.2325460  55.4298110  85.1373280  66.3653890
  55.2947650  83.8040690  67.0697060  49.6120980  80.5606180  60.9411220
  49.6901400  80.6954950  59.9966940  50.2262660  79.8522070  61.1339340
  49.6680500  81.6020350  63.4805680  49.8311540  81.1325710  62.6625050
  50.1332950  81.0943910  64.1454520  54.4399270  70.7326110  58.5166250
  53.9967420  71.5135650  58.1850770  54.9984260  71.0556000  59.2237190
  57.5558090  70.3536810  53.3972080  56.9312270  70.3496680  54.1225390
  57.4688210  69.4867770  53.0008050  51.8023240  73.1658930  65.0641550
  51.4086630  74.0134140  65.2714330  51.1141640  72.5285300  65.2550190
  58.3768290  73.2493900  68.1338290  57.6866610  73.0566100  68.7684380
  59.1200590  73.5328540  68.6662590  49.2910520  75.0307510  50.3074350
  49.2085190  75.9738270  50.4489340  48.9393580  74.8882420  49.4286700
  59.9295700  71.4621270  53.9716950  59.1160310  70.9634440  53.8962260
  59.7357650  72.3019520  53.5553300  49.7487770  77.7050960  51.2100280
  50.6182620  77.9875760  51.4936200  49.2578090  78.5186830  51.0949090
  49.8128290  71.1952940  65.2637780  49.0986810  71.3949860  65.8690390
  50.2323330  70.4192510  65.6352580  50.1000880  85.1833200  66.2504310
  50.2092000  84.2427940  66.1099700  49.4481440  85.4487950  65.6018040
  51.7334280  79.5224430  53.3382340  51.1262230  80.2623330  53.3477640
  52.2083630  79.6123790  52.5120540  52.2459320  86.2502110  68.0623920
  53.0472050  86.5714160  68.4759320  51.7311140  85.8897690  68.7843830
  54.4258320  72.4259630  65.9481820  54.3315190  71.8080380  65.2232690
  53.8455710  73.1525920  65.7211730  55.4486730  86.1840210  64.7179380
  54.9107820  86.9086270  64.3988080  55.7020690  85.7070550  63.9276720
  62.1505810  70.3642170  52.5358590  62.4308100  69.5210070  52.8918010
  61.3771540  70.5965280  53.0497340  56.6885230  71.5969180  50.9805790
  56.3407230  70.9193170  50.4008240  56.8898000  71.1358690  51.7949180
  49.7076230  84.7466010  58.2799650  50.0379240  83.8787070  58.0478290
  50.1367230  84.9524530  59.1104610  50.1966440  85.6136600  61.0181280
  49.7597430  85.7937400  61.8505430  50.7644120  86.3711220  60.8763000
  50.0290870  78.1256830  57.3770160  49.3739710  77.8568470  56.7329860
  50.8668820  78.0161310  56.9272140  52.4818880  83.0242090  67.0793650
  52.4388510  82.6535000  67.9608110  52.6129890  83.9619660  67.2195470
  58.3879330  71.0434370  66.4359880  58.3268220  71.6356200  67.1855290
  59.3279710  70.9360330  66.2910140  51.5475150  69.3798690  66.1891230
  52.0958140  69.1986740  65.4257340  51.6130460  68.5892800  66.7247540
  52.3206910  85.9704340  64.1991430  51.7267230  85.8389040  64.9381470
  52.3130750  85.1342480  63.7333530  51.9519140  83.3362720  63.1499470
  51.2253200  82.7168010  63.0825420  52.0128290  83.7303330  62.2797550
  50.2349140  86.6537110  56.3596230  50.0671180  86.0207790  57.0578120
  49.3683650  86.8596510  56.0090420  65.0450550  69.6657170  53.3653750
  65.2401180  70.5640620  53.6321180  64.2580420  69.4344250  53.8586700
  55.4240150  70.7493080  55.4575450  54.7942890  70.0480390  55.6245580
  54.8845290  71.5097210  55.2408610  55.5495710  70.0277060  67.8927940
  55.2679980  70.5310660  67.1288760  55.9315410  69.2298810  67.5270070
  53.2053190  79.5521940  41.5928180  52.3738070  79.2970650  41.9924690
  53.8134170  79.6232710  42.3286100  53.1854450  83.5862030  41.7886200
  53.4882490  82.6959770  41.6096420  53.9298040  84.1432250  41.5608450
  50.8203020  72.5213840  43.0479200  50.6405860  71.6239590  43.3281960
  50.4183100  73.0685710  43.7226150  51.4389690  75.0174340  41.6561540
  52.1199800  75.2812710  42.2748940  51.1237740  74.1775210  41.9899550
  55.6314260  76.0641700  40.7434130  56.1392480  76.5622670  41.3839150
  56.1627500  75.2876900  40.5673490  67.7325190  74.2346890  44.4463480
  67.0277360  74.6228600  43.9278590  67.9983110  74.9297180  45.0484410
  53.9150360  70.7040260  45.0097550  53.9168800  71.2212650  44.2043450
  53.0854670  70.2270440  44.9867480  53.5965690  72.4150220  43.0168000
  53.9382500  73.2592270  42.7221870  52.6581500  72.5633960  43.1333340
  66.7474040  73.6035310  41.0456600  65.7998950  73.6374290  41.1772030
  67.0724030  74.4174260  41.4305960  57.2793580  69.9032490  39.3412590
  57.5868560  69.3479380  38.6248090  56.3494280  70.0376950  39.1585580
  59.6674340  77.9681320  36.0772710  58.7403620  77.9018700  36.3061180
  59.8199160  78.9061450  35.9627950  63.1398190  75.7086160  43.9973770
  62.7269370  76.5339870  44.2513760  62.4074140  75.1231200  43.8050130
  55.7412680  82.1813620  41.0231650  55.4440970  81.5759090  40.3439430
  56.6912500  82.2190930  40.9121010  53.9859600  75.2689270  42.6391480
  54.5374190  75.3784610  41.8644730  54.5003110  75.6426870  43.3546710
  53.6602330  78.7908630  46.2496820  53.5210100  79.6631430  46.6184220
  52.7783690  78.4481440  46.1044760  49.6120980  80.5606180  42.1667730
  49.6901400  80.6954950  41.2223450  50.2262660  79.8522070  42.3595850
  62.6501890  86.6953620  34.9124960  62.4903030  86.4056560  35.8106790
  62.4848600  85.9193750  34.3770190  49.6680500  81.6020350  44.7062190
  49.8311540  81.1325710  43.8881560  50.1332950  81.0943910  45.3711030
  54.4399270  70.7326110  39.7422760  53.9967420  71.5135650  39.4107280
  54.9984260  71.0556000  40.4493700  58.7269080  73.5994630  45.3458080
  58.2648450  73.8077650  46.1578020  58.3247190  72.7853980  45.0428750
  56.4775170  71.2773440  41.6012360  56.7747500  72.1836270  41.5204380
  57.0260730  70.7892220  40.9871930  54.2313490  75.8559680  37.4704010
  54.0054410  75.6396850  38.3750630  53.4506020  76.2888140  37.1249980
  51.8023240  73.1658930  46.2898060  51.4086630  74.0134140  46.4970840
  51.1141640  72.5285300  46.4806700  58.3768290  73.2493900  49.3594800
  57.6866610  73.0566100  49.9940890  59.1200590  73.5328540  49.8919100
  52.9411030  73.6473030  39.5595420  52.6011080  74.1248260  40.3162470
  52.1788350  73.1938150  39.1996520  64.5427920  69.9558200  47.4458040
  64.8673690  69.2247860  47.9716020  64.5784430  69.6371840  46.5439030
  55.1815990  76.8656960  44.6650830  54.8773060  77.7448940  44.8901190
  56.1362450  76.9256750  44.7008270  51.2379720  77.7059700  45.8122190
  50.8794660  78.3713550  46.3995530  50.9434280  76.8743250  46.1834810
  64.9158360  77.1452760  32.9615480  64.8322080  77.5766980  32.1111920
  65.6352550  77.6051110  33.3942300  49.8128290  71.1952940  46.4894290
  49.0986810  71.3949860  47.0946900  50.2323330  70.4192510  46.8609090
  61.3067070  73.6875250  44.2395740  61.6747890  72.8670460  44.5675310
  60.4465270  73.7477140  44.6551390  56.6413130  74.9218140  36.4641180
  55.9329280  75.3904480  36.9054790  56.9257610  74.2640150  37.0986370
  65.4735920  72.5582800  45.3062100  64.9709520  73.2988200  45.6455910
  66.2892580  72.9466800  44.9898890  63.7657930  77.8015980  38.7523460
  62.8248070  77.8166210  38.9271150  64.0802000  77.0151940  39.1983760
  53.2401040  87.0656040  40.0994850  53.9763520  86.5171500  40.3703420
  53.6241960  87.9312050  39.9600840  49.9657130  78.7375570  48.2316480
  50.4696150  78.1582850  48.8032710  49.2264550  79.0215800  48.7692850
  56.8680750  81.4589760  31.7862770  56.7631390  80.8442110  32.5124150
  56.7004970  80.9355650  31.0025780  51.9980210  76.8805160  49.1266550
  52.0385550  76.5819030  50.0351780  52.8525710  77.2812770  48.9674070
  53.9386020  75.4597260  47.0941040  53.4082480  74.9688210  46.4664380
  54.6074090  75.8881460  46.5598970  54.4258320  72.4259630  47.1738330
  54.3315190  71.8080380  46.4489200  53.8455710  73.1525920  46.9468240
  57.1919760  70.9832870  44.2065720  56.7437060  71.0057130  43.3611270
  56.5584960  70.5851890  44.8036020  56.7011980  74.1524730  47.4691820
  57.2911670  73.8440580  48.1569640  55.8832220  73.6804480  47.6251720
  56.6885230  71.5969180  32.2062300  56.3407230  70.9193170  31.6264750
  56.8898000  71.1358690  33.0205690  52.4930430  81.9576980  32.0535900
  52.9305300  82.5006650  32.7093480  52.9778160  81.1323930  32.0632240
  50.1966440  85.6136600  42.2437790  49.7597430  85.7937400  43.0761940
  50.7644120  86.3711220  42.1019510  67.5346500  80.4569000  39.2160940
  67.9055330  79.6736320  38.8096910  68.1748430  81.1458100  39.0378240
  66.4771040  77.8322260  36.5220960  66.1014640  77.0650190  36.0902250
  65.7474160  78.2144960  37.0095890  50.6182800  75.4218490  47.0488430
  49.7238850  75.3885250  47.3882140  51.1580350  75.6205280  47.8139680
  64.3058730  72.2050210  48.9340180  65.1828910  72.2133610  49.3174180
  64.3179570  71.4681050  48.3232530  65.7522000  76.0579750  39.8228200
  66.2759480  75.5642400  39.1918370  66.3381420  76.1930110  40.5675770
  65.9311720  76.1419620  43.3447750  64.9814430  76.1083160  43.4592740
  66.1124730  77.0519730  43.1097520  65.2421970  75.3153100  35.7620610
  65.7381090  75.0823970  36.5469490  65.0438040  74.4764940  35.3458250
  66.6709130  73.9514050  38.2958290  66.5608410  73.7970090  39.2340560
  67.4316720  73.4234990  38.0533700  65.0174850  69.8908180  44.7541290
  65.6547070  70.5042320  45.1200480  65.1649740  69.9268840  43.8090520
  58.3879330  71.0434370  47.6616390  58.3268220  71.6356200  48.4111800
  59.3279710  70.9360330  47.5166650  61.0253890  70.7004430  47.3008680
  61.6394300  71.0183720  46.6389760  61.5703450  70.2153020  47.9204540
  61.7661930  69.2636570  43.6277970  60.8921770  69.5971680  43.4250900
  61.6572680  68.7909750  44.4529840  62.6733910  71.4707440  45.0119690
  62.3447270  70.6559200  44.6321420  63.6216210  71.4277250  44.8885380
  55.5564240  85.5507720  41.1605390  56.0729260  84.9395080  40.6353650
  56.2061620  86.0536500  41.6516400  59.5136750  70.1806410  42.5670880
  58.7308540  70.6551910  42.8467640  59.2199680  69.2761240  42.4584060
  50.2349140  86.6537110  37.5852740  50.0671180  86.0207790  38.2834630
  49.3683650  86.8596510  37.2346930  55.4240150  70.7493080  36.6831960
  54.7942890  70.0480390  36.8502090  54.8845290  71.5097210  36.4665120
  66.5977160  86.9057880  36.3516820  66.7729350  86.2195620  35.7077740
  65.8998730  87.4304930  35.9593490  55.5495710  70.0277060  49.1184450
  55.2679980  70.5310660  48.3545270  55.9315410  69.2298810  48.7526580
  62.1511170  69.4430640  49.6964920  62.0376620  69.7625250  50.5916440
  62.9680910  69.8443150  49.4002200  59.1887360  79.2402130  21.9408930
  58.4129460  78.7602570  22.2307500  59.8400290  78.5607780  21.7665090
  53.1854450  83.5862030  23.0142710  53.4882490  82.6959770  22.8352930
  53.9298040  84.1432250  22.7864960  51.6145140  74.5123830  16.6027080
  50.7261840  74.8539800  16.5006960  51.8986330  74.3124150  15.7107910
  58.6296350  81.9159320  21.9479090  58.5604630  80.9749260  21.7868220
  59.3916210  82.0060730  22.5201660  59.6601520  74.7229700  22.1748020
  60.0366340  73.8501580  22.0621690  59.5621030  75.0588400  21.2838460
  53.7906530  73.0955330  17.6365460  53.8973280  73.9959060  17.9434220
  52.8798890  73.0473300  17.3460110  54.3772310  82.3116240  26.2276740
  54.9946310  82.9867320  25.9461190  53.5165430  82.7204220  26.1364240
  49.6704650  81.5016100  15.1083590  49.2932630  81.9903200  14.3768490
  49.9277720  82.1741380  15.7390120  57.2793580  69.9032490  20.5669100
  57.5868560  69.3479380  19.8504600  56.3494280  70.0376950  20.3842090
  59.6674340  77.9681320  17.3029220  58.7403620  77.9018700  17.5317690
  59.8199160  78.9061450  17.1884460  55.2730980  78.4946060  20.0848950
  54.8687980  77.7823310  19.5894850  55.3594100  78.1499300  20.9736990
  55.7412680  82.1813620  22.2488160  55.4440970  81.5759090  21.5695940
  56.6912500  82.2190930  22.1377520  54.8331110  81.9195310  28.8995960
  53.9359640  82.1435280  29.1469360  54.8583980  82.0430250  27.9507360
  61.8736330  78.7688430  14.8137220  62.3129610  77.9310860  14.6675040
  62.5864750  79.4017830  14.9001360  55.4582680  84.7330330  29.6838480
  55.4298110  85.1373280  28.8166910  55.2947650  83.8040690  29.5210080
  65.4553470  70.0231240  13.1278260  65.1426130  70.1158070  14.0277330
  66.2165940  70.6012270  13.0775690  51.9735610  77.3891040  17.5855600
  51.8533210  78.1153130  16.9736870  51.6636500  76.6193950  17.1083510
  50.8568610  82.2606370  19.8030420  50.4496690  82.4020960  18.9484020
  51.7481620  81.9766530  19.6001630  60.6747490  86.4098280  26.7097470
  61.1892160  86.3206290  27.5119900  59.8316570  86.7557980  27.0025380
  55.1290270  86.4752150  17.9153090  54.9532750  85.5587690  17.7020890
  54.2746010  86.8339440  18.1550890  49.6680500  81.6020350  25.9318700
  49.8311540  81.1325710  25.1138070  50.1332950  81.0943910  26.5967540
  54.4399270  70.7326110  20.9679270  53.9967420  71.5135650  20.6363790
  54.9984260  71.0556000  21.6750210  58.7269080  73.5994630  26.5714590
  58.2648450  73.8077650  27.3834530  58.3247190  72.7853980  26.2685260
  60.8223300  76.3205330  29.8010040  61.1476710  75.4869080  29.4612270
  61.6103630  76.8433850  29.9488370  57.5558090  70.3536810  15.8485100
  56.9312270  70.3496680  16.5738410  57.4688210  69.4867770  15.4521070
  56.4775170  71.2773440  22.8268870  56.7747500  72.1836270  22.7460890
  57.0260730  70.7892220  22.2128440  54.2313490  75.8559680  18.6960520
  54.0054410  75.6396850  19.6007140  53.4506020  76.2888140  18.3506490
  49.2910520  75.0307510  12.7587370  49.2085190  75.9738270  12.9002360
  48.9393580  74.8882420  11.8799720  57.0908650  73.7646540  21.8257720
  57.0944710  73.3236490  20.9762260  57.9859770  74.0863870  21.9329540
  52.9411030  73.6473030  20.7851930  52.6011080  74.1248260  21.5418980
  52.1788350  73.1938150  20.4253030  61.1157170  72.5426020  22.8328170
  61.1329910  72.9934670  23.6770020  60.8672750  71.6431660  23.0461610
  56.1650300  77.0759760  14.2147780  55.5967200  76.6278010  13.5883690
  56.8739300  77.4352540  13.6812930  51.2419480  80.9771780  28.0914510
  50.8574270  80.3365450  28.6897470  51.5531670  81.6807900  28.6609240
  50.2557110  72.5692010  19.7016600  49.9704030  72.2047680  20.5395220
  50.1935970  71.8372470  19.0879740  53.7097780  81.0717950  16.4874190
  52.9360040  80.5315570  16.3272910  54.4392410  80.5524560  16.1491950
  62.6444090  75.8340920  14.7192130  63.5323710  76.1458150  14.5443470
  62.6149180  74.9613170  14.3272710  53.7535180  80.7398330  20.1253000
  54.2713850  79.9366590  20.0709890  53.3019200  80.6777470  20.9669830
  58.6404680  82.0064610  15.3980300  58.9820380  82.7506840  14.9023620
  57.8117390  82.3195730  15.7605130  64.9158360  77.1452760  14.1871990
  64.8322080  77.5766980  13.3368430  65.6352550  77.6051110  14.6198810
  57.6095370  82.0878140  18.1696220  58.2966500  82.6347350  18.5503810
  56.8227790  82.6318870  18.2045830  49.7487770  77.7050960  13.6613300
  50.6182620  77.9875760  13.9449220  49.2578090  78.5186830  13.5462110
  56.9122580  79.0924170  17.7821580  57.3685360  79.9029420  18.0081770
  56.5610790  78.7747310  18.6140070  59.2155190  84.6030510  25.0113880
  59.8597410  84.8089890  25.6887300  59.5784630  83.8418910  24.5584730
  52.8134360  69.4361820  18.2544100  52.6848990  69.4279720  19.2029020
  51.9896380  69.7744910  17.9035110  64.3342990  82.8911480  13.4530470
  64.1080570  82.1741920  14.0455110  63.9439190  82.6423920  12.6152220
  50.1159020  86.9178340  14.2274930  50.4756660  87.5167680  13.5732200
  49.9751360  87.4638230  15.0009960  49.8128290  71.1952940  27.7150800
  49.0986810  71.3949860  28.3203410  50.2323330  70.4192510  28.0865600
  50.1000880  85.1833200  28.7017330  50.2092000  84.2427940  28.5612720
  49.4481440  85.4487950  28.0531060  56.1327640  84.3009540  15.0448600
  56.1237740  85.0339230  14.4293110  55.2126000  84.0541120  15.1375560
  51.7334280  79.5224430  15.7895360  51.1262230  80.2623330  15.7990660
  52.2083630  79.6123790  14.9633560  64.6729100  72.6432190  16.2739810
  64.0442260  72.7477860  15.5598040  64.1781020  72.8628970  17.0633690
  59.1187240  84.3637780  13.7073790  59.2199220  84.1601770  12.7775770
  58.2188980  84.1096060  13.9121570  54.8448150  73.2303220  15.0648400
  55.6938680  73.6673370  14.9988590  54.4779420  73.5423480  15.8920460
  53.7439570  79.4835580  13.5383930  54.5102840  79.3716940  14.1009360
  53.8214260  78.7873550  12.8860700  52.4386330  76.9160650  14.2216820
  52.5189920  75.9688160  14.3334220  53.3306080  77.2467530  14.3277480
  53.2401040  87.0656040  21.3251360  53.9763520  86.5171500  21.5959930
  53.6241960  87.9312050  21.1857350  50.1246520  83.1329610  17.1992870
  49.1986300  83.3750750  17.1898280  50.5902950  83.9603870  17.0777620
  52.2459320  86.2502110  30.5136940  53.0472050  86.5714160  30.9272340
  51.7311140  85.8897690  31.2356850  56.3503350  86.2386350  13.1476930
  57.1431960  86.5275180  12.6958720  55.8307700  85.8078520  12.4689410
  62.5124320  86.0862270  29.0721760  63.4646070  86.0020290  29.0222000
  62.3652540  86.7503980  29.7455550  56.8680750  81.4589760  13.0119280
  56.7631390  80.8442110  13.7380660  56.7004970  80.9355650  12.2282290
  60.1083480  80.5209790  13.6161270  59.5593580  80.9679090  14.2604010
  60.7302740  80.0159040  14.1398940  55.7758600  79.4800710  15.5126570
  56.1975020  79.3140580  16.3557960  55.9009440  78.6700940  15.0181710
  58.2886240  78.5038320  12.7603670  58.8091900  77.7887340  12.3944820
  58.9354640  79.1424190  13.0604180  63.3086250  77.2662880  30.0877890
  63.8907020  76.5115200  29.9998370  63.4848020  77.7970320  29.3109370
  54.4258320  72.4259630  28.3994840  54.3315190  71.8080380  27.6745710
  53.8455710  73.1525920  28.1724750  57.1919760  70.9832870  25.4322230
  56.7437060  71.0057130  24.5867780  56.5584960  70.5851890  26.0292530
  54.6717500  75.5533940  12.4584730  54.4706560  74.6901300  12.8198070
  54.5009550  75.4667300  11.5206330  55.4486730  86.1840210  27.1692400
  54.9107820  86.9086270  26.8501100  55.7020690  85.7070550  26.3789740
  61.5205410  73.7690540  28.9281350  60.8320930  73.1072080  28.8631340
  62.2411430  73.3228810  29.3729810  62.1505810  70.3642170  14.9871610
  62.4308100  69.5210070  15.3431030  61.3771540  70.5965280  15.5010360
  53.4700300  72.6534560  12.4462610  53.7726200  72.6601990  11.5381760
  54.2094890  72.3032420  12.9430270  58.3048940  87.4191420  27.4279050
  58.2307640  88.3226560  27.7351420  57.4027780  87.1003320  27.4001120
  56.6885230  71.5969180  13.4318810  56.3407230  70.9193170  12.8521260
  56.8898000  71.1358690  14.2462200  58.8534270  86.5849930  15.0505410
  59.7485060  86.9234900  15.0724170  58.8851900  85.8629340  14.4229690
  52.4930430  81.9576980  13.2792410  52.9305300  82.5006650  13.9349990
  52.9778160  81.1323930  13.2888750  49.7076230  84.7466010  20.7312670
  50.0379240  83.8787070  20.4991310  50.1367230  84.9524530  21.5617630
  54.3038150  83.0775020  18.3914640  54.0033690  82.9539990  19.2918550
  54.1975640  82.2183610  17.9830370  50.1966440  85.6136600  23.4694300
  49.7597430  85.7937400  24.3018450  50.7644120  86.3711220  23.3276020
  67.0730070  82.8571420  13.0941320  66.2423030  82.9248070  13.5648550
  67.2501900  83.7475540  12.7908180  50.0290870  78.1256830  19.8283180
  49.3739710  77.8568470  19.1842880  50.8668820  78.0161310  19.3785160
  66.5805700  79.8953270  12.7548040  66.8554540  80.8032150  12.6267260
  66.3916440  79.8315800  13.6910030  62.9781310  72.9198120  14.0501670
  63.3966190  72.7329100  13.2098330  62.6717370  72.0677170  14.3604600
  49.2428950  75.3355760  15.7708510  48.3393030  75.5985960  15.5960170
  49.7269570  75.6066930  14.9908470  51.7856160  74.3921300  13.6802890
  52.4947860  73.9704520  13.1950170  51.0696100  74.4596530  13.0486240
  51.4330320  70.4460630  12.7205540  52.1558450  70.9869570  13.0386760
  51.7054840  70.1724050  11.8447080  65.2421970  75.3153100  16.9877120
  65.7381090  75.0823970  17.7726000  65.0438040  74.4764940  16.5714760
  67.5599400  71.7821970  12.7620940  68.4848710  71.6503150  12.5539230
  67.5375190  71.8614790  13.7157390  67.6337890  72.5532630  15.3877650
  66.8389390  72.4877750  15.9170560  67.8381170  73.4883270  15.3763000
  52.4818880  83.0242090  29.5306670  52.4388510  82.6535000  30.4121130
  52.6129890  83.9619660  29.6708490  56.1824910  84.5801680  25.1316390
  55.9416270  84.8476240  24.2446910  57.1227550  84.7507410  25.1867250
  58.3879330  71.0434370  28.8872900  58.3268220  71.6356200  29.6368310
  59.3279710  70.9360330  28.7423160  61.0253890  70.7004430  28.5265190
  61.6394300  71.0183720  27.8646270  61.5703450  70.2153020  29.1461050
  52.3206910  85.9704340  26.6504450  51.7267230  85.8389040  27.3894490
  52.3130750  85.1342480  26.1846550  51.9519140  83.3362720  25.6012490
  51.2253200  82.7168010  25.5338440  52.0128290  83.7303330  24.7310570
  55.5564240  85.5507720  22.3861900  56.0729260  84.9395080  21.8610160
  56.2061620  86.0536500  22.8772910  59.5136750  70.1806410  23.7927390
  58.7308540  70.6551910  24.0724150  59.2199680  69.2761240  23.6840570
  50.2349140  86.6537110  18.8109250  50.0671180  86.0207790  19.5091140
  49.3683650  86.8596510  18.4603440  50.8577160  70.4853890  16.3141110
  51.6156520  70.5982770  15.7405140  50.3954330  71.3223090  16.2684540
  65.0450550  69.6657170  15.8166770  65.2401180  70.5640620  16.0834200
  64.2580420  69.4344250  16.3099720  51.8411840  85.3470340  16.2559390
  51.3159460  85.7278370  15.5521350  51.7656420  85.9721110  16.9769100
  53.2302310  71.0117940  14.8543080  53.7595070  70.2247740  14.7251030
  53.8630630  71.6909130  15.0878610  55.4240150  70.7493080  17.9088470
  54.7942890  70.0480390  18.0758600  54.8845290  71.5097210  17.6921630
  58.3632100  87.3632310  30.5799080  59.2899410  87.1276580  30.6235040
  58.3482530  88.1904310  30.0985110  55.5495710  70.0277060  30.3440960
  55.2679980  70.5310660  29.5801780  55.9315410  69.2298810  29.9783090
  54.4404810  87.2952720  15.1308640  55.1723630  87.0112000  14.5832530
  54.6998480  87.0566000  16.0208020  53.6019600  83.4117450  15.1354970
  52.9728480  83.8802550  15.6840800  53.7167430  82.5666670  15.5701160
  64.9309660  86.5902170  30.4040120  65.7234980  86.0951400  30.1966080
  65.2242810  87.2692310  31.0115730  59.1887360  79.2402130   3.1665440
  58.4129460  78.7602570   3.4564010  59.8400290  78.5607780   2.9921600
  53.2053190  79.5521940   4.0441200  52.3738070  79.2970650   4.4437710
  53.8134170  79.6232710   4.7799120  63.2094790  83.6462320   1.9464570
  62.7476320  82.8749560   2.2751740  64.0220340  83.6728390   2.4517020
  53.1854450  83.5862030   4.2399220  53.4882490  82.6959770   4.0609440
  53.9298040  84.1432250   4.0121470  49.5778150  77.1129480   3.7123290
  50.1494260  76.3451680   3.7126930  49.5779690  77.4118240   2.8029900
  58.6296350  81.9159320   3.1735600  58.5604630  80.9749260   3.0124730
  59.3916210  82.0060730   3.7458170  50.8203020  72.5213840   5.4992220
  50.6405860  71.6239590   5.7794980  50.4183100  73.0685710   6.1739170
  59.6601520  74.7229700   3.4004530  60.0366340  73.8501580   3.2878200
  59.5621030  75.0588400   2.5094970  51.4389690  75.0174340   4.1074560
  52.1199800  75.2812710   4.7261960  51.1237740  74.1775210   4.4412570
  55.6314260  76.0641700   3.1947150  56.1392480  76.5622670   3.8352170
  56.1627500  75.2876900   3.0186510  67.7325190  74.2346890   6.8976500
  67.0277360  74.6228600   6.3791610  67.9983110  74.9297180   7.4997430
  53.9150360  70.7040260   7.4610570  53.9168800  71.2212650   6.6556470
  53.0854670  70.2270440   7.4380500  55.1653210  80.3435440   5.6384070
  54.8322590  80.9704360   6.2805140  55.3419890  80.8697320   4.8585740
  63.6787120  74.1580520   3.1060410  62.9742690  74.4465410   3.6863520
  64.0399280  74.9680630   2.7459970  53.5965690  72.4150220   5.4681020
  53.9382500  73.2592270   5.1734890  52.6581500  72.5633960   5.5846360
  54.3772310  82.3116240   7.4533250  54.9946310  82.9867320   7.1717700
  53.5165430  82.7204220   7.3620750  65.2949900  83.7755650   5.3687890
  64.6113420  84.4454760   5.3604560  65.8344190  83.9736300   4.6032750
  66.7474040  73.6035310   3.4969620  65.7998950  73.6374290   3.6285050
  67.0724030  74.4174260   3.8818980  62.8308640  85.6199780   4.0833070
  62.8435800  85.2162070   3.2155330  62.2783860  86.3947070   3.9794500
  62.2294080  80.5229620   5.4115680  62.6462870  80.3089730   4.5769140
  62.9533900  80.7802410   5.9824300  66.1756180  78.9216840   5.5031920
  65.3474810  78.9909930   5.0282050  66.7706660  79.5071150   5.0347750
  63.1398190  75.7086160   6.4486790  62.7269370  76.5339870   6.7026780
  62.4074140  75.1231200   6.2563150  55.7412680  82.1813620   3.4744670
  55.4440970  81.5759090   2.7952450  56.6912500  82.2190930   3.3634030
  53.9859600  75.2689270   5.0904500  54.5374190  75.3784610   4.3157750
  54.5003110  75.6426870   5.8059730  63.8298290  85.7545490   7.1367770
  63.3528850  86.5617680   6.9440380  63.1460080  85.1023820   7.2893980
  54.8331110  81.9195310  10.1252470  53.9359640  82.1435280  10.3725870
  54.8583980  82.0430250   9.1763870  53.6602330  78.7908630   8.7009840
  53.5210100  79.6631430   9.0697240  52.7783690  78.4481440   8.5557780
  55.4582680  84.7330330  10.9094990  55.4298110  85.1373280  10.0423420
  55.2947650  83.8040690  10.7466590  67.4097500  85.5157430  12.2059160
  67.8857220  85.9940320  12.8848240  68.0304660  85.4474920  11.4804660
  49.6120980  80.5606180   4.6180750  49.6901400  80.6954950   3.6736470
  50.2262660  79.8522070   4.8108870  66.8130750  82.7070280   9.3659170
  66.9393810  82.4682160   8.4476350  66.8552130  81.8754820   9.8381250
  60.6747490  86.4098280   7.9353980  61.1892160  86.3206290   8.7376410
  59.8316570  86.7557980   8.2281890  66.6654760  74.7602740  10.3308910
  66.0499030  75.2682410   9.8024370  66.3451180  73.8601070  10.2734850
  49.6680500  81.6020350   7.1575210  49.8311540  81.1325710   6.3394580
  50.1332950  81.0943910   7.8224050  54.4399270  70.7326110   2.1935780
  53.9967420  71.5135650   1.8620300  54.9984260  71.0556000   2.9006720
  58.7269080  73.5994630   7.7971100  58.2648450  73.8077650   8.6091040
  58.3247190  72.7853980   7.4941770  63.7273590  74.8203580   8.9267760
  62.8767180  74.5209330   9.2476830  63.5675380  75.0645590   8.0151580
  60.8223300  76.3205330  11.0266550  61.1476710  75.4869080  10.6868780
  61.6103630  76.8433850  11.1744880  56.4775170  71.2773440   4.0525380
  56.7747500  72.1836270   3.9717400  57.0260730  70.7892220   3.4384950
  56.6712700  76.7545260  10.5877300  56.5756300  75.8139990  10.4377700
  57.5144680  76.9760330  10.1925370  51.8023240  73.1658930   8.7411080
  51.4086630  74.0134140   8.9483860  51.1141640  72.5285300   8.9319720
  58.3768290  73.2493900  11.8107820  57.6866610  73.0566100  12.4453910
  59.1200590  73.5328540  12.3432120  49.1040290  71.0887390   2.7741160
  48.8153340  71.6590250   3.4866140  49.8486050  70.6091840   3.1372390
  60.6531260  77.0892340   4.6461740  59.9212380  77.5979150   4.9951840
  60.2555600  76.2722320   4.3450520  57.0908650  73.7646540   3.0514230
  57.0944710  73.3236490   2.2018770  57.9859770  74.0863870   3.1586050
  52.9411030  73.6473030   2.0108440  52.6011080  74.1248260   2.7675490
  52.1788350  73.1938150   1.6509540  61.1157170  72.5426020   4.0584680
  61.1329910  72.9934670   4.9026530  60.8672750  71.6431660   4.2718120
  64.5427920  69.9558200   9.8971060  64.8673690  69.2247860  10.4229040
  64.5784430  69.6371840   8.9952050  51.2419480  80.9771780   9.3171020
  50.8574270  80.3365450   9.9153980  51.5531670  81.6807900   9.8865750
  57.3916620  77.8248320   4.7979640  57.7586750  77.3506890   5.5440980
  57.2021680  78.6989890   5.1387980  55.1815990  76.8656960   7.1163850
  54.8773060  77.7448940   7.3414210  56.1362450  76.9256750   7.1521290
  64.4685760  80.0683310   3.5057090  65.1884880  80.5638600   3.1153200
  64.2667580  79.3901200   2.8610960  59.8504560  80.1392370   9.3926090
  59.7841870  79.2188040   9.1383680  59.2209700  80.2367810  10.1070730
  51.2379720  77.7059700   8.2635210  50.8794660  78.3713550   8.8508550
  50.9434280  76.8743250   8.6347830  54.4392840  78.1643940  11.1474760
  54.1392980  78.3101120  10.2502580  55.2104080  77.6049230  11.0548150
  59.7821290  82.9612940   9.1429890  59.7965830  82.0293900   8.9248800
  59.0746390  83.0472700   9.7819660  65.9932500  79.6020280   8.4898470
  65.2680690  80.1949060   8.2927860  66.5207960  79.5943820   7.6911840
  59.2155190  84.6030510   6.2370390  59.8597410  84.8089890   6.9143810
  59.5784630  83.8418910   5.7841240  60.4887270  82.6062860   4.9547840
  61.1309500  81.9056020   5.0680010  61.0136620  83.3861300   4.7744730
  62.2624890  83.4057760   8.1583900  62.5981130  83.9924450   8.8361820
  61.3425230  83.2750470   8.3881690  49.8128290  71.1952940   8.9407310
  49.0986810  71.3949860   9.5459920  50.2323330  70.4192510   9.3122110
  50.1000880  85.1833200   9.9273840  50.2092000  84.2427940   9.7869230
  49.4481440  85.4487950   9.2787570  58.0913470  83.4549090  11.3271960
  57.7710340  82.7358330  11.8717650  57.4171830  84.1304160  11.4008020
  61.3067070  73.6875250   6.6908760  61.6747890  72.8670460   7.0188330
  60.4465270  73.7477140   7.1064410  58.2669060  76.3414840   6.9146730
  58.7654310  76.8160660   7.5798580  58.4092010  75.4178360   7.1216760
  65.4735920  72.5582800   7.7575120  64.9709520  73.2988200   8.0968930
  66.2892580  72.9466800   7.4411910  65.7683510  84.9724830   2.8790740
  65.8930930  85.7956000   3.3514550  66.6349070  84.7615560   2.5314890
  53.2401040  87.0656040   2.5507870  53.9763520  86.5171500   2.8216440
  53.6241960  87.9312050   2.4113860  52.2459320  86.2502110  11.7393450
  53.0472050  86.5714160  12.1528850  51.7311140  85.8897690  12.4613360
  61.0823950  82.3581980  11.6868860  60.4762110  82.3813580  10.9464610
  60.7778060  81.6265020  12.2236110  62.5124320  86.0862270  10.2978270
  63.4646070  86.0020290  10.2478510  62.3652540  86.7503980  10.9712060
  49.9657130  78.7375570  10.6829500  50.4696150  78.1582850  11.2545730
  49.2264550  79.0215800  11.2205870  57.0195070  80.1446560  10.2165020
  56.2540740  80.7131560  10.1319690  57.2011030  79.8522770   9.3233250
  64.1618420  81.8751890  10.7740040  64.9027890  82.2127650  10.2707500
  63.3991100  82.0443950  10.2209810  51.9980210  76.8805160  11.5779570
  52.0385550  76.5819030  12.4864800  52.8525710  77.2812770  11.4187090
  53.9386020  75.4597260   9.5454060  53.4082480  74.9688210   8.9177400
  54.6074090  75.8881460   9.0111990  62.8364080  79.9266720   9.3095250
  63.2505100  80.0811800  10.1585670  61.9015080  80.0521940   9.4721030
  63.3086250  77.2662880  11.3134400  63.8907020  76.5115200  11.2254880
  63.4848020  77.7970320  10.5365880  54.4258320  72.4259630   9.6251350
  54.3315190  71.8080380   8.9002220  53.8455710  73.1525920   9.3981260
  57.1919760  70.9832870   6.6578740  56.7437060  71.0057130   5.8124290
  56.5584960  70.5851890   7.2549040  57.5979310  79.8787200   7.2791180
  58.0167420  80.7219930   7.1067420  56.6787940  80.0159240   7.0497960
  59.9343210  77.6103380   8.6629020  60.0539420  77.0144520   9.4023860
  60.7937210  77.6473070   8.2430320  62.2731110  78.1640570   7.2391530
  61.7466330  78.6883190   6.6356670  62.6162450  78.7967960   7.8701260
  55.4486730  86.1840210   8.3948910  54.9107820  86.9086270   8.0757610
  55.7020690  85.7070550   7.6046250  56.7011980  74.1524730   9.9204840
  57.2911670  73.8440580  10.6082660  55.8832220  73.6804480  10.0764740
  61.5205410  73.7690540  10.1537860  60.8320930  73.1072080  10.0887850
  62.2411430  73.3228810  10.5986320  58.3048940  87.4191420   8.6535560
  58.2307640  88.3226560   8.9607930  57.4027780  87.1003320   8.6257630
  49.7076230  84.7466010   1.9569180  50.0379240  83.8787070   1.7247820
  50.1367230  84.9524530   2.7874140  50.1966440  85.6136600   4.6950810
  49.7597430  85.7937400   5.5274960  50.7644120  86.3711220   4.5532530
  65.8328620  85.1153600   8.9828120  65.2330610  85.1746160   8.2392040
  65.9622520  84.1758580   9.1124970  64.5180260  81.8405580   7.0804280
  63.7040100  82.2702740   7.3430070  64.9254460  82.4523990   6.4673330
  51.0666800  78.5109400   5.5943030  51.4339840  78.4236800   6.4739050
  50.4977620  77.7475950   5.4949890  65.8670660  76.9793780   8.6073500
  65.6356750  76.7506530   7.7071450  66.1275210  77.8993330   8.5618390
  50.6182800  75.4218490   9.5001450  49.7238850  75.3885250   9.8395160
  51.1580350  75.6205280  10.2652700  64.3058730  72.2050210  11.3853200
  65.1828910  72.2133610  11.7687200  64.3179570  71.4681050  10.7745550
  65.7522000  76.0579750   2.2741220  66.2759480  75.5642400   1.6431390
  66.3381420  76.1930110   3.0188790  65.9311720  76.1419620   5.7960770
  64.9814430  76.1083160   5.9105760  66.1124730  77.0519730   5.5610540
  51.1222510  69.6966820   3.8484670  51.7698700  69.1464200   3.4079830
  51.5424350  69.9509970   4.6700480  65.0174850  69.8908180   7.2054310
  65.6547070  70.5042320   7.5713500  65.1649740  69.9268840   6.2603540
  50.8754510  69.8522490   6.5909990  50.5269330  70.3086310   7.3568170
  50.5442210  68.9579620   6.6732420  52.4818880  83.0242090  10.7563180
  52.4388510  82.6535000  11.6377640  52.6129890  83.9619660  10.8965000
  56.1824910  84.5801680   6.3572900  55.9416270  84.8476240   5.4703420
  57.1227550  84.7507410   6.4123760  58.3879330  71.0434370  10.1129410
  58.3268220  71.6356200  10.8624820  59.3279710  70.9360330   9.9679670
  61.0253890  70.7004430   9.7521700  61.6394300  71.0183720   9.0902780
  61.5703450  70.2153020  10.3717560  67.4429070  86.5996060   7.1583540
  66.9487350  86.9964930   6.4410670  66.8342360  85.9745270   7.5520820
  51.5475150  69.3798690   9.8660760  52.0958140  69.1986740   9.1026870
  51.6130460  68.5892800  10.4017070  52.3206910  85.9704340   7.8760960
  51.7267230  85.8389040   8.6151000  52.3130750  85.1342480   7.4103060
  61.7661930  69.2636570   6.0790990  60.8921770  69.5971680   5.8763920
  61.6572680  68.7909750   6.9042860  62.6733910  71.4707440   7.4632710
  62.3447270  70.6559200   7.0834440  63.6216210  71.4277250   7.3398400
  65.1268520  87.2419480   4.4370280  64.6671490  87.9935290   4.0628300
  64.4980980  86.5225950   4.3785080  51.9519140  83.3362720   6.8269000
  51.2253200  82.7168010   6.7594950  52.0128290  83.7303330   5.9567080
  55.5564240  85.5507720   3.6118410  56.0729260  84.9395080   3.0866670
  56.2061620  86.0536500   4.1029420  58.2959740  86.4416210   4.4387390
  58.5837550  86.1870510   3.5620400  58.8082960  85.8893570   5.0292960
  59.5136750  70.1806410   5.0183900  58.7308540  70.6551910   5.2980660
  59.2199680  69.2761240   4.9097080  64.0657820  70.8829510   3.0632990
  64.5065910  70.8274610   2.2154590  63.7965410  71.7987520   3.1343170
  61.9015950  69.2635610   1.7683000  62.5045320  69.8355820   2.2431520
  61.1608940  69.8275050   1.5456900  58.3632100  87.3632310  11.8055590
  59.2899410  87.1276580  11.8491550  58.3482530  88.1904310  11.3241620
  55.5495710  70.0277060  11.5697470  55.2679980  70.5310660  10.8058290
  55.9315410  69.2298810  11.2039600  62.1511170  69.4430640  12.1477940
  62.0376620  69.7625250  13.0429460  62.9680910  69.8443150  11.8515220
  64.9309660  86.5902170  11.6296630  65.7234980  86.0951400  11.4222590
  65.2242810  87.2692310  12.2372240  61.0569320  58.6879620 151.4804090
  60.9763370  57.7734230 151.2095800  60.6433740  59.1846690 150.7743800
  59.1887360  60.4658640 153.3613360  58.4129460  59.9859080 153.6511930
  59.8400290  59.7864290 153.1869520  63.2094790  64.8718830 152.1412490
  62.7476320  64.1006070 152.4699660  64.0220340  64.8984900 152.6464940
  53.1854450  64.8118540 154.4347140  53.4882490  63.9216280 154.2557360
  53.9298040  65.3688760 154.2069390  51.6145140  55.7380340 148.0231510
  50.7261840  56.0796310 147.9211390  51.8986330  55.5380660 147.1312340
  49.5778150  58.3385990 153.9071210  50.1494260  57.5708190 153.9074850
  49.5779690  58.6374750 152.9977820  59.4358100  67.1576840 151.7616480
  58.8169540  67.6134340 151.1910920  60.2909880  67.3128300 151.3606180
  58.6296350  63.1415830 153.3683520  58.5604630  62.2005770 153.2072650
  59.3916210  63.2317240 153.9406090  59.6601520  55.9486210 153.5952450
  60.0366340  55.0758090 153.4826120  59.5621030  56.2844910 152.7042890
  53.7906530  54.3211840 149.0569890  53.8973280  55.2215570 149.3638650
  52.8798890  54.2729810 148.7664540  63.4425640  53.4436650 150.5280790
  64.2635260  52.9533220 150.5706270  63.4759720  54.0334310 151.2812630
  55.6314260  57.2898210 153.3895070  56.1392480  57.7879180 154.0300090
  56.1627500  56.5133410 153.2134430  60.3021450  62.0416080 149.1548390
  59.6838720  62.5065530 148.5911110  60.8144700  62.7343560 149.5717900
  63.6787120  55.3837030 153.3008330  62.9742690  55.6721920 153.8811440
  64.0399280  56.1937140 152.9407890  49.6704650  62.7272610 146.5288020
  49.2932630  63.2159710 145.7972920  49.9277720  63.3997890 147.1594550
  66.7474040  54.8291820 153.6917540  65.7998950  54.8630800 153.8232970
  67.0724030  55.6430770 154.0766900  57.2793580  51.1289000 151.9873530
  57.5868560  50.5735890 151.2709030  56.3494280  51.2633460 151.8046520
  62.8308640  66.8456290 154.2780990  62.8435800  66.4418580 153.4103250
  62.2783860  67.6203580 154.1742420  64.1254060  63.5672510 149.3671160
  64.0150390  62.6246840 149.4920580  64.1222310  63.9288150 150.2533920
  59.6674340  59.1937830 148.7233650  58.7403620  59.1275210 148.9522120
  59.8199160  60.1317960 148.6088890  59.6543420  55.4654830 145.7200810
  58.7147090  55.6268790 145.8053270  59.9726680  56.1840510 145.1736800
  63.6971630  60.7558130 149.2268900  63.0784050  60.4177680 148.5795200
  63.6796080  60.1117890 149.9348090  55.2730980  59.7202570 151.5053380
  54.8687980  59.0079820 151.0099280  55.3594100  59.3755810 152.3941420
  55.7412680  63.4070130 153.6692590  55.4440970  62.8015600 152.9900370
  56.6912500  63.4447440 153.5581950  61.8736330  59.9944940 146.2341650
  62.3129610  59.1567370 146.0879470  62.5864750  60.6274340 146.3205790
  59.9831710  64.9341010 150.2022890  60.4227620  65.6765340 149.7878280
  59.9218600  65.1767580 151.1261850  65.4553470  51.2487750 144.5482690
  65.1426130  51.3414580 145.4481760  66.2165940  51.8268780 144.4980120
  51.9735610  58.6147550 149.0060030  51.8533210  59.3409640 148.3941300
  51.6636500  57.8450460 148.5287940  50.8568610  63.4862880 151.2234850
  50.4496690  63.6277470 150.3688450  51.7481620  63.2023040 151.0206060
  62.6501890  67.9210130 147.5585900  62.4903030  67.6313070 148.4567730
  62.4848600  67.1450260 147.0231130  55.1290270  67.7008660 149.3357520
  54.9532750  66.7844200 149.1225320  54.2746010  68.0595950 149.5755320
  62.3528020  65.4297690 146.1183900  61.6593180  65.4274980 145.4586180
  63.0950880  65.0057010 145.6878070  61.9177950  67.0560400 150.1932390
  62.3734900  66.2749780 150.5071010  62.2570470  67.7667220 150.7373570
  54.4399270  51.9582620 152.3883700  53.9967420  52.7392160 152.0568220
  54.9984260  52.2812510 153.0954640  57.5558090  51.5793320 147.2689530
  56.9312270  51.5753190 147.9942840  57.4688210  50.7124280 146.8725500
  56.4775170  52.5029950 154.2473300  56.7747500  53.4092780 154.1665320
  57.0260730  52.0148730 153.6332870  54.2313490  57.0816190 150.1164950
  54.0054410  56.8653360 151.0211570  53.4506020  57.5144650 149.7710920
  61.4611250  57.0879560 148.7155600  60.8620140  57.8115360 148.5319220
  62.0090860  57.0256340 147.9332050  60.0676120  55.7243100 150.7458880
  60.4605690  56.0415300 149.9327570  60.4292970  54.8454980 150.8603400
  49.1040290  52.3143900 152.9689080  48.8153340  52.8846760 153.6814060
  49.8486050  51.8348350 153.3320310  49.2910520  56.2564020 144.1791800
  49.2085190  57.1994780 144.3206790  48.9393580  56.1138930 143.3004150
  57.0908650  54.9903050 153.2462150  57.0944710  54.5493000 152.3966690
  57.9859770  55.3120380 153.3533970  52.9411030  54.8729540 152.2056360
  52.6011080  55.3504770 152.9623410  52.1788350  54.4194660 151.8457460
  57.1528800  55.9915130 146.2368910  57.2741620  55.9501610 147.1854730
  56.7677310  56.8539280 146.0815640  56.1650300  58.3016270 145.6352210
  55.5967200  57.8534520 145.0088120  56.8739300  58.6609050 145.1017360
  50.2557110  53.7948520 151.1221030  49.9704030  53.4304190 151.9599650
  50.1935970  53.0628980 150.5084170  53.7097780  62.2974460 147.9078620
  52.9360040  61.7572080 147.7477340  54.4392410  61.7781070 147.5696380
  64.4685760  61.2939820 153.7005010  65.1884880  61.7895110 153.3101120
  64.2667580  60.6157710 153.0558880  59.9295700  52.6877780 147.8434400
  59.1160310  52.1890950 147.7679710  59.7357650  53.5276030 147.4270750
  62.6444090  57.0597430 146.1396560  63.5323710  57.3714660 145.9647900
  62.6149180  56.1869680 145.7477140  53.7535180  61.9654840 151.5457430
  54.2713850  61.1623100 151.4914320  53.3019200  61.9033980 152.3874260
  58.6404680  63.2321120 146.8184730  58.9820380  63.9763350 146.3228050
  57.8117390  63.5452240 147.1809560  64.9158360  58.3709270 145.6076420
  64.8322080  58.8023490 144.7572860  65.6352550  58.8307620 146.0403240
  65.9445610  65.2251530 148.3358550  65.3021770  64.5707150 148.6102270
  65.5576270  65.6306620 147.5599220  61.5232090  62.5536960 152.1830240
  61.8755910  61.9565090 151.5231610  60.6394420  62.2281190 152.3538490
  57.6095370  63.3134650 149.5900650  58.2966500  63.8603860 149.9708240
  56.8227790  63.8575380 149.6250260  49.7487770  58.9307470 145.0817730
  50.6182620  59.2132270 145.3653650  49.2578090  59.7443340 144.9666540
  56.9122580  60.3180680 149.2026010  57.3685360  61.1285930 149.4286200
  56.5610790  60.0003820 150.0344500  52.8134360  50.6618330 149.6748530
  52.6848990  50.6536230 150.6233450  51.9896380  51.0001420 149.3239540
  64.3342990  64.1167990 144.8734900  64.1080570  63.3998430 145.4659540
  63.9439190  63.8680430 144.0356650  50.1159020  68.1434850 145.6479360
  50.4756660  68.7424190 144.9936630  49.9751360  68.6894740 146.4214390
  63.9159240  62.0339930 146.5349060  63.6280940  62.4952620 147.3226940
  64.7111410  61.5737700 146.8033280  56.1327640  65.5266050 146.4653030
  56.1237740  66.2595740 145.8497540  55.2126000  65.2797630 146.5579990
  51.7334280  60.7480940 147.2099790  51.1262230  61.4879840 147.2195090
  52.2083630  60.8380300 146.3837990  64.6729100  53.8688700 147.6944240
  64.0442260  53.9734370 146.9802470  64.1781020  54.0885480 148.4838120
  59.1187240  65.5894290 145.1278220  59.2199220  65.3858280 144.1980200
  58.2188980  65.3352570 145.3326000  56.6413130  56.1474650 149.1102120
  55.9329280  56.6160990 149.5515730  56.9257610  55.4896660 149.7447310
  60.6728560  52.8725310 150.5497910  60.5496340  52.8911440 149.6007420
  61.6213120  52.9204250 150.6696310  57.7605350  68.1080610 149.8225890
  58.0146850  68.0702000 148.9005260  56.8117830  67.9813940 149.8154140
  54.8448150  54.4559730 146.4852830  55.6938680  54.8929880 146.4193020
  54.4779420  54.7679990 147.3124890  63.7657930  59.0272490 151.3984400
  62.8248070  59.0422720 151.5732090  64.0802000  58.2408450 151.8444700
  53.7439570  60.7092090 144.9588360  54.5102840  60.5973450 145.5213790
  53.8214260  60.0130060 144.3065130  52.4386330  58.1417160 145.6421250
  52.5189920  57.1944670 145.7538650  53.3306080  58.4724040 145.7481910
  65.7683510  66.1981340 153.0738660  65.8930930  67.0212510 153.5462470
  66.6349070  65.9872070 152.7262810  53.2401040  68.2912550 152.7455790
  53.9763520  67.7428010 153.0164360  53.6241960  69.1568560 152.6061780
  50.1246520  64.3586120 148.6197300  49.1986300  64.6007260 148.6102710
  50.5902950  65.1860380 148.4982050  56.3503350  67.4642860 144.5681360
  57.1431960  67.7531690 144.1163150  55.8307700  67.0335030 143.8893840
  65.4033520  66.6912990 145.9918100  65.1175030  66.2778130 145.1772280
  65.2053070  67.6200700 145.8718620  56.8680750  62.6846270 144.4323710
  56.7631390  62.0698620 145.1585090  56.7004970  62.1612160 143.6486720
  60.1083480  61.7466300 145.0365700  59.5593580  62.1935600 145.6808440
  60.7302740  61.2415550 145.5603370  55.7758600  60.7057220 146.9331000
  56.1975020  60.5397090 147.7762390  55.9009440  59.8957450 146.4386140
  58.2886240  59.7294830 144.1808100  58.8091900  59.0143850 143.8149250
  58.9354640  60.3680700 144.4808610  54.6717500  56.7790450 143.8789160
  54.4706560  55.9157810 144.2402500  54.5009550  56.6923810 142.9410760
  62.1505810  51.5898680 146.4076040  62.4308100  50.7466580 146.7635460
  61.3771540  51.8221790 146.9214790  53.4700300  53.8791070 143.8667040
  53.7726200  53.8858500 142.9586190  54.2094890  53.5288930 144.3634700
  56.6885230  52.8225690 144.8523240  56.3407230  52.1449680 144.2725690
  56.8898000  52.3615200 145.6666630  58.8534270  67.8106440 146.4709840
  59.7485060  68.1491410 146.4928600  58.8851900  67.0885850 145.8434120
  52.4930430  63.1833490 144.6996840  52.9305300  63.7263160 145.3554420
  52.9778160  62.3580440 144.7093180  49.7076230  65.9722520 152.1517100
  50.0379240  65.1043580 151.9195740  50.1367230  66.1781040 152.9822060
  54.3038150  64.3031530 149.8119070  54.0033690  64.1796500 150.7122980
  54.1975640  63.4440120 149.4034800  67.0730070  64.0827930 144.5145750
  66.2423030  64.1504580 144.9852980  67.2501900  64.9732050 144.2112610
  66.5286530  60.8275410 147.0179950  67.2905440  61.3972060 147.1239640
  66.5440900  60.2602610 147.7888260  50.0290870  59.3513340 151.2487610
  49.3739710  59.0824980 150.6047310  50.8668820  59.2417820 150.7989590
  67.5346500  61.6825510 151.8621880  67.9055330  60.8992830 151.4557850
  68.1748430  62.3714610 151.6839180  66.5805700  61.1209780 144.1752470
  66.8554540  62.0288660 144.0471690  66.3916440  61.0572310 145.1114460
  62.9781310  54.1454630 145.4706100  63.3966190  53.9585610 144.6302760
  62.6717370  53.2933680 145.7809030  66.4771040  59.0578770 149.1681900
  66.1014640  58.2906700 148.7363190  65.7474160  59.4401470 149.6556830
  49.2428950  56.5612270 147.1912940  48.3393030  56.8242470 147.0164600
  49.7269570  56.8323440 146.4112900  65.7522000  57.2836260 152.4689140
  66.2759480  56.7898910 151.8379310  66.3381420  57.4186620 153.2136710
  51.7856160  55.6177810 145.1007320  52.4947860  55.1961030 144.6154600
  51.0696100  55.6853040 144.4690670  51.4330320  51.6717140 144.1409970
  52.1558450  52.2126080 144.4591190  51.7054840  51.3980560 143.2651510
  65.2421970  56.5409610 148.4081550  65.7381090  56.3080480 149.1930430
  65.0438040  55.7021450 147.9919190  66.6709130  55.1770560 150.9419230
  66.5608410  55.0226600 151.8801500  67.4316720  54.6491500 150.6994640
  67.5599400  53.0078480 144.1825370  68.4848710  52.8759660 143.9743660
  67.5375190  53.0871300 145.1361820  67.6337890  53.7789140 146.8082080
  66.8389390  53.7134260 147.3374990  67.8381170  54.7139780 146.7967430
  64.5756310  67.8180690 150.8020470  65.1715380  67.4965260 150.1254890
  64.8334460  67.3452510 151.5933740  55.5564240  66.7764230 153.8066330
  56.0729260  66.1651590 153.2814590  56.2061620  67.2793010 154.2977340
  64.0657820  52.1086020 153.2580910  64.5065910  52.0531120 152.4102510
  63.7965410  53.0244030 153.3291090  65.9296390  51.7401260 151.2689730
  65.8684790  50.7962480 151.1220750  66.7088420  51.8481350 151.8143190
  50.2349140  67.8793620 150.2313680  50.0671180  67.2464300 150.9295570
  49.3683650  68.0853020 149.8807870  50.8577160  51.7110400 147.7345540
  51.6156520  51.8239280 147.1609570  50.3954330  52.5479600 147.6888970
  57.3990970  53.8249670 150.7247850  56.5865480  53.4506560 150.3843730
  57.9032610  53.0694750 151.0269040  61.9015950  50.4892120 151.9630920
  62.5045320  51.0612330 152.4379440  61.1608940  51.0531560 151.7404820
  65.0450550  50.8913680 147.2371200  65.2401180  51.7897130 147.5038630
  64.2580420  50.6600760 147.7304150  51.8411840  66.5726850 147.6763820
  51.3159460  66.9534880 146.9725780  51.7656420  67.1977620 148.3973530
  53.2302310  52.2374450 146.2747510  53.7595070  51.4504250 146.1455460
  53.8630630  52.9165640 146.5083040  55.4240150  51.9749590 149.3292900
  54.7942890  51.2736900 149.4963030  54.8845290  52.7353720 149.1126060
  66.5977160  68.1314390 148.9977760  66.7729350  67.4452130 148.3538680
  65.8998730  68.6561440 148.6054430  54.4404810  68.5209230 146.5513070
  55.1723630  68.2368510 146.0036960  54.6998480  68.2822510 147.4412450
  53.6019600  64.6373960 146.5559400  52.9728480  65.1059060 147.1045230
  53.7167430  63.7923180 146.9905590  61.0569320  58.6879620 132.7060600
  60.9763370  57.7734230 132.4352310  60.6433740  59.1846690 132.0000310
  59.1887360  60.4658640 134.5869870  58.4129460  59.9859080 134.8768440
  59.8400290  59.7864290 134.4126030  53.2053190  60.7778450 135.4645630
  52.3738070  60.5227160 135.8642140  53.8134170  60.8489220 136.2003550
  63.2094790  64.8718830 133.3669000  62.7476320  64.1006070 133.6956170
  64.0220340  64.8984900 133.8721450  53.1854450  64.8118540 135.6603650
  53.4882490  63.9216280 135.4813870  53.9298040  65.3688760 135.4325900
  49.5778150  58.3385990 135.1327720  50.1494260  57.5708190 135.1331360
  49.5779690  58.6374750 134.2234330  59.4358100  67.1576840 132.9872990
  58.8169540  67.6134340 132.4167430  60.2909880  67.3128300 132.5862690
  58.6296350  63.1415830 134.5940030  58.5604630  62.2005770 134.4329160
  59.3916210  63.2317240 135.1662600  50.8203020  53.7470350 136.9196650
  50.6405860  52.8496100 137.1999410  50.4183100  54.2942220 137.5943600
  59.6601520  55.9486210 134.8208960  60.0366340  55.0758090 134.7082630
  59.5621030  56.2844910 133.9299400  63.4425640  53.4436650 131.7537300
  64.2635260  52.9533220 131.7962780  63.4759720  54.0334310 132.5069140
  51.4389690  56.2430850 135.5278990  52.1199800  56.5069220 136.1466390
  51.1237740  55.4031720 135.8617000  55.6314260  57.2898210 134.6151580
  56.1392480  57.7879180 135.2556600  56.1627500  56.5133410 134.4390940
  67.7325190  55.4603400 138.3180930  67.0277360  55.8485110 137.7996040
  67.9983110  56.1553690 138.9201860  53.9150360  51.9296770 138.8815000
  53.9168800  52.4469160 138.0760900  53.0854670  51.4526950 138.8584930
  60.3021450  62.0416080 130.3804900  59.6838720  62.5065530 129.8167620
  60.8144700  62.7343560 130.7974410  55.1653210  61.5691950 137.0588500
  54.8322590  62.1960870 137.7009570  55.3419890  62.0953830 136.2790170
  63.6787120  55.3837030 134.5264840  62.9742690  55.6721920 135.1067950
  64.0399280  56.1937140 134.1664400  53.5965690  53.6406730 136.8885450
  53.9382500  54.4848780 136.5939320  52.6581500  53.7890470 137.0050790
  54.3772310  63.5372750 138.8737680  54.9946310  64.2123830 138.5922130
  53.5165430  63.9460730 138.7825180  65.2949900  65.0012160 136.7892320
  64.6113420  65.6711270 136.7808990  65.8344190  65.1992810 136.0237180
  66.7474040  54.8291820 134.9174050  65.7998950  54.8630800 135.0489480
  67.0724030  55.6430770 135.3023410  57.2793580  51.1289000 133.2130040
  57.5868560  50.5735890 132.4965540  56.3494280  51.2633460 133.0303030
  62.8308640  66.8456290 135.5037500  62.8435800  66.4418580 134.6359760
  62.2783860  67.6203580 135.3998930  64.1254060  63.5672510 130.5927670
  64.0150390  62.6246840 130.7177090  64.1222310  63.9288150 131.4790430
  62.2294080  61.7486130 136.8320110  62.6462870  61.5346240 135.9973570
  62.9533900  62.0058920 137.4028730  59.6674340  59.1937830 129.9490160
  58.7403620  59.1275210 130.1778630  59.8199160  60.1317960 129.8345400
  66.1756180  60.1473350 136.9236350  65.3474810  60.2166440 136.4486480
  66.7706660  60.7327660 136.4552180  63.1398190  56.9342670 137.8691220
  62.7269370  57.7596380 138.1231210  62.4074140  56.3487710 137.6767580
  55.2730980  59.7202570 132.7309890  54.8687980  59.0079820 132.2355790
  55.3594100  59.3755810 133.6197930  55.7412680  63.4070130 134.8949100
  55.4440970  62.8015600 134.2156880  56.6912500  63.4447440 134.7838460
  53.9859600  56.4945780 136.5108930  54.5374190  56.6041120 135.7362180
  54.5003110  56.8683380 137.2264160  63.8298290  66.9802000 138.5572200
  63.3528850  67.7874190 138.3644810  63.1460080  66.3280330 138.7098410
  54.8331110  63.1451820 141.5456900  53.9359640  63.3691790 141.7930300
  54.8583980  63.2686760 140.5968300  53.6602330  60.0165140 140.1214270
  53.5210100  60.8887940 140.4901670  52.7783690  59.6737950 139.9762210
  59.9831710  64.9341010 131.4279400  60.4227620  65.6765340 131.0134790
  59.9218600  65.1767580 132.3518360  55.4582680  65.9586840 142.3299420
  55.4298110  66.3629790 141.4627850  55.2947650  65.0297200 142.1671020
  65.4553470  51.2487750 125.7739200  65.1426130  51.3414580 126.6738270
  66.2165940  51.8268780 125.7236630  49.6120980  61.7862690 136.0385180
  49.6901400  61.9211460 135.0940900  50.2262660  61.0778580 136.2313300
  66.8130750  63.9326790 140.7863600  66.9393810  63.6938670 139.8680780
  66.8552130  63.1011330 141.2585680  60.6747490  67.6354790 139.3558410
  61.1892160  67.5462800 140.1580840  59.8316570  67.9814490 139.6486320
  62.6501890  67.9210130 128.7842410  62.4903030  67.6313070 129.6824240
  62.4848600  67.1450260 128.2487640  62.3528020  65.4297690 127.3440410
  61.6593180  65.4274980 126.6842690  63.0950880  65.0057010 126.9134580
  61.9177950  67.0560400 131.4188900  62.3734900  66.2749780 131.7327520
  62.2570470  67.7667220 131.9630080  66.6654760  55.9859250 141.7513340
  66.0499030  56.4938920 141.2228800  66.3451180  55.0857580 141.6939280
  49.6680500  62.8276860 138.5779640  49.8311540  62.3582220 137.7599010
  50.1332950  62.3200420 139.2428480  54.4399270  51.9582620 133.6140210
  53.9967420  52.7392160 133.2824730  54.9984260  52.2812510 134.3211150
  58.7269080  54.8251140 139.2175530  58.2648450  55.0334160 140.0295470
  58.3247190  54.0110490 138.9146200  63.7273590  56.0460090 140.3472190
  62.8767180  55.7465840 140.6681260  63.5675380  56.2902100 139.4356010
  60.8223300  57.5461840 142.4470980  61.1476710  56.7125590 142.1073210
  61.6103630  58.0690360 142.5949310  57.5558090  51.5793320 128.4946040
  56.9312270  51.5753190 129.2199350  57.4688210  50.7124280 128.0982010
  56.4775170  52.5029950 135.4729810  56.7747500  53.4092780 135.3921830
  57.0260730  52.0148730 134.8589380  54.2313490  57.0816190 131.3421460
  54.0054410  56.8653360 132.2468080  53.4506020  57.5144650 130.9967430
  56.6712700  57.9801770 142.0081730  56.5756300  57.0396500 141.8582130
  57.5144680  58.2016840 141.6129800  60.0676120  55.7243100 131.9715390
  60.4605690  56.0415300 131.1584080  60.4292970  54.8454980 132.0859910
  51.8023240  54.3915440 140.1615510  51.4086630  55.2390650 140.3688290
  51.1141640  53.7541810 140.3524150  58.3768290  54.4750410 143.2312250
  57.6866610  54.2822610 143.8658340  59.1200590  54.7585050 143.7636550
  49.1040290  52.3143900 134.1945590  48.8153340  52.8846760 134.9070570
  49.8486050  51.8348350 134.5576820  60.6531260  58.3148850 136.0666170
  59.9212380  58.8235660 136.4156270  60.2555600  57.4978830 135.7654950
  57.0908650  54.9903050 134.4718660  57.0944710  54.5493000 133.6223200
  57.9859770  55.3120380 134.5790480  52.9411030  54.8729540 133.4312870
  52.6011080  55.3504770 134.1879920  52.1788350  54.4194660 133.0713970
  61.1157170  53.7682530 135.4789110  61.1329910  54.2191180 136.3230960
  60.8672750  52.8688170 135.6922550  64.5427920  51.1814710 141.3175490
  64.8673690  50.4504370 141.8433470  64.5784430  50.8628350 140.4156480
  51.2419480  62.2028290 140.7375450  50.8574270  61.5621960 141.3358410
  51.5531670  62.9064410 141.3070180  57.3916620  59.0504830 136.2184070
  57.7586750  58.5763400 136.9645410  57.2021680  59.9246400 136.5592410
  55.1815990  58.0913470 138.5368280  54.8773060  58.9705450 138.7618640
  56.1362450  58.1513260 138.5725720  64.4685760  61.2939820 134.9261520
  65.1884880  61.7895110 134.5357630  64.2667580  60.6157710 134.2815390
  59.8504560  61.3648880 140.8130520  59.7841870  60.4444550 140.5588110
  59.2209700  61.4624320 141.5275160  53.7535180  61.9654840 132.7713940
  54.2713850  61.1623100 132.7170830  53.3019200  61.9033980 133.6130770
  51.2379720  58.9316210 139.6839640  50.8794660  59.5970060 140.2712980
  50.9434280  58.0999760 140.0552260  54.4392840  59.3900450 142.5679190
  54.1392980  59.5357630 141.6707010  55.2104080  58.8305740 142.4752580
  59.7821290  64.1869450 140.5634320  59.7965830  63.2550410 140.3453230
  59.0746390  64.2729210 141.2024090  65.9932500  60.8276790 139.9102900
  65.2680690  61.4205570 139.7132290  66.5207960  60.8200330 139.1116270
  65.9445610  65.2251530 129.5615060  65.3021770  64.5707150 129.8358780
  65.5576270  65.6306620 128.7855730  61.5232090  62.5536960 133.4086750
  61.8755910  61.9565090 132.7488120  60.6394420  62.2281190 133.5795000
  57.6095370  63.3134650 130.8157160  58.2966500  63.8603860 131.1964750
  56.8227790  63.8575380 130.8506770  49.7487770  58.9307470 126.3074240
  50.6182620  59.2132270 126.5910160  49.2578090  59.7443340 126.1923050
  56.9122580  60.3180680 130.4282520  57.3685360  61.1285930 130.6542710
  56.5610790  60.0003820 131.2601010  59.2155190  65.8287020 137.6574820
  59.8597410  66.0346400 138.3348240  59.5784630  65.0675420 137.2045670
  52.8134360  50.6618330 130.9005040  52.6848990  50.6536230 131.8489960
  51.9896380  51.0001420 130.5496050  60.4887270  63.8319370 136.3752270
  61.1309500  63.1312530 136.4884440  61.0136620  64.6117810 136.1949160
  64.3342990  64.1167990 126.0991410  64.1080570  63.3998430 126.6916050
  63.9439190  63.8680430 125.2613160  62.2624890  64.6314270 139.5788330
  62.5981130  65.2180960 140.2566250  61.3425230  64.5006980 139.8086120
  49.8128290  52.4209450 140.3611740  49.0986810  52.6206370 140.9664350
  50.2323330  51.6449020 140.7326540  63.9159240  62.0339930 127.7605570
  63.6280940  62.4952620 128.5483450  64.7111410  61.5737700 128.0289790
  50.1000880  66.4089710 141.3478270  50.2092000  65.4684450 141.2073660
  49.4481440  66.6744460 140.6992000  58.0913470  64.6805600 142.7476390
  57.7710340  63.9614840 143.2922080  57.4171830  65.3560670 142.8212450
  61.3067070  54.9131760 138.1113190  61.6747890  54.0926970 138.4392760
  60.4465270  54.9733650 138.5268840  56.6413130  56.1474650 130.3358630
  55.9329280  56.6160990 130.7772240  56.9257610  55.4896660 130.9703820
  58.2669060  57.5671350 138.3351160  58.7654310  58.0417170 139.0003010
  58.4092010  56.6434870 138.5421190  60.6728560  52.8725310 131.7754420
  60.5496340  52.8911440 130.8263930  61.6213120  52.9204250 131.8952820
  57.7605350  68.1080610 131.0482400  58.0146850  68.0702000 130.1261770
  56.8117830  67.9813940 131.0410650  54.8448150  54.4559730 127.7109340
  55.6938680  54.8929880 127.6449530  54.4779420  54.7679990 128.5381400
  65.4735920  53.7839310 139.1779550  64.9709520  54.5244710 139.5173360
  66.2892580  54.1723310 138.8616340  63.7657930  59.0272490 132.6240910
  62.8248070  59.0422720 132.7988600  64.0802000  58.2408450 133.0701210
  53.7439570  60.7092090 126.1844870  54.5102840  60.5973450 126.7470300
  53.8214260  60.0130060 125.5321640  65.7683510  66.1981340 134.2995170
  65.8930930  67.0212510 134.7718980  66.6349070  65.9872070 133.9519320
  52.2459320  67.4758620 143.1597880  53.0472050  67.7970670 143.5733280
  51.7311140  67.1154200 143.8817790  61.0823950  63.5838490 143.1073290
  60.4762110  63.6070090 142.3669040  60.7778060  62.8521530 143.6440540
  62.5124320  67.3118780 141.7182700  63.4646070  67.2276800 141.6682940
  62.3652540  67.9760490 142.3916490  49.9657130  59.9632080 142.1033930
  50.4696150  59.3839360 142.6750160  49.2264550  60.2472310 142.6410300
  57.0195070  61.3703070 141.6369450  56.2540740  61.9388070 141.5524120
  57.2011030  61.0779280 140.7437680  60.1083480  61.7466300 126.2622210
  59.5593580  62.1935600 126.9064950  60.7302740  61.2415550 126.7859880
  64.1618420  63.1008400 142.1944470  64.9027890  63.4384160 141.6911930
  63.3991100  63.2700460 141.6414240  51.9980210  58.1061670 142.9984000
  52.0385550  57.8075540 143.9069230  52.8525710  58.5069280 142.8391520
  55.7758600  60.7057220 128.1587510  56.1975020  60.5397090 129.0018900
  55.9009440  59.8957450 127.6642650  53.9386020  56.6853770 140.9658490
  53.4082480  56.1944720 140.3381830  54.6074090  57.1137970 140.4316420
  62.8364080  61.1523230 140.7299680  63.2505100  61.3068310 141.5790100
  61.9015080  61.2778450 140.8925460  63.3086250  58.4919390 142.7338830
  63.8907020  57.7371710 142.6459310  63.4848020  59.0226830 141.9570310
  54.4258320  53.6516140 141.0455780  54.3315190  53.0336890 140.3206650
  53.8455710  54.3782430 140.8185690  57.1919760  52.2089380 138.0783170
  56.7437060  52.2313640 137.2328720  56.5584960  51.8108400 138.6753470
  57.5979310  61.1043710 138.6995610  58.0167420  61.9476440 138.5271850
  56.6787940  61.2415750 138.4702390  59.9343210  58.8359890 140.0833450
  60.0539420  58.2401030 140.8228290  60.7937210  58.8729580 139.6634750
  62.2731110  59.3897080 138.6595960  61.7466330  59.9139700 138.0561100
  62.6162450  60.0224470 139.2905690  54.6717500  56.7790450 125.1045670
  54.4706560  55.9157810 125.4659010  54.5009550  56.6923810 124.1667270
  55.4486730  67.4096720 139.8153340  54.9107820  68.1342780 139.4962040
  55.7020690  66.9327060 139.0250680  56.7011980  55.3781240 141.3409270
  57.2911670  55.0697090 142.0287090  55.8832220  54.9060990 141.4969170
  61.5205410  54.9947050 141.5742290  60.8320930  54.3328590 141.5092280
  62.2411430  54.5485320 142.0190750  58.3048940  68.6447930 140.0739990
  58.2307640  69.5483070 140.3812360  57.4027780  68.3259830 140.0462060
  65.8328620  66.3410110 140.4032550  65.2330610  66.4002670 139.6596470
  65.9622520  65.4015090 140.5329400  67.0730070  64.0827930 125.7402260
  66.2423030  64.1504580 126.2109490  67.2501900  64.9732050 125.4369120
  50.0290870  59.3513340 132.4744120  49.3739710  59.0824980 131.8303820
  50.8668820  59.2417820 132.0246100  67.5346500  61.6825510 133.0878390
  67.9055330  60.8992830 132.6814360  68.1748430  62.3714610 132.9095690
  64.5180260  63.0662090 138.5008710  63.7040100  63.4959250 138.7634500
  64.9254460  63.6780500 137.8877760  51.0666800  59.7365910 137.0147460
  51.4339840  59.6493310 137.8943480  50.4977620  58.9732460 136.9154320
  65.8670660  58.2050290 140.0277930  65.6356750  57.9763040 139.1275880
  66.1275210  59.1249840 139.9822820  50.6182800  56.6475000 140.9205880
  49.7238850  56.6141760 141.2599590  51.1580350  56.8461790 141.6857130
  64.3058730  53.4306720 142.8057630  65.1828910  53.4390120 143.1891630
  64.3179570  52.6937560 142.1949980  65.7522000  57.2836260 133.6945650
  66.2759480  56.7898910 133.0635820  66.3381420  57.4186620 134.4393220
  65.9311720  57.3676130 137.2165200  64.9814430  57.3339670 137.3310190
  66.1124730  58.2776240 136.9814970  51.1222510  50.9223330 135.2689100
  51.7698700  50.3720710 134.8284260  51.5424350  51.1766480 136.0904910
  66.6709130  55.1770560 132.1675740  66.5608410  55.0226600 133.1058010
  67.4316720  54.6491500 131.9251150  65.0174850  51.1164690 138.6258740
  65.6547070  51.7298830 138.9917930  65.1649740  51.1525350 137.6807970
  64.5756310  67.8180690 132.0276980  65.1715380  67.4965260 131.3511400
  64.8334460  67.3452510 132.8190250  50.8754510  51.0779000 138.0114420
  50.5269330  51.5342820 138.7772600  50.5442210  50.1836130 138.0936850
  52.4818880  64.2498600 142.1767610  52.4388510  63.8791510 143.0582070
  52.6129890  65.1876170 142.3169430  56.1824910  65.8058190 137.7777330
  55.9416270  66.0732750 136.8907850  57.1227550  65.9763920 137.8328190
  58.3879330  52.2690880 141.5333840  58.3268220  52.8612710 142.2829250
  59.3279710  52.1616840 141.3884100  61.0253890  51.9260940 141.1726130
  61.6394300  52.2440230 140.5107210  61.5703450  51.4409530 141.7921990
  67.4429070  67.8252570 138.5787970  66.9487350  68.2221440 137.8615100
  66.8342360  67.2001780 138.9725250  51.5475150  50.6055200 141.2865190
  52.0958140  50.4243250 140.5231300  51.6130460  49.8149310 141.8221500
  52.3206910  67.1960850 139.2965390  51.7267230  67.0645550 140.0355430
  52.3130750  66.3598990 138.8307490  61.7661930  50.4893080 137.4995420
  60.8921770  50.8228190 137.2968350  61.6572680  50.0166260 138.3247290
  62.6733910  52.6963950 138.8837140  62.3447270  51.8815710 138.5038870
  63.6216210  52.6533760 138.7602830  65.1268520  68.4675990 135.8574710
  64.6671490  69.2191800 135.4832730  64.4980980  67.7482460 135.7989510
  51.9519140  64.5619230 138.2473430  51.2253200  63.9424520 138.1799380
  52.0128290  64.9559840 137.3771510  55.5564240  66.7764230 135.0322840
  56.0729260  66.1651590 134.5071100  56.2061620  67.2793010 135.5233850
  58.2959740  67.6672720 135.8591820  58.5837550  67.4127020 134.9824830
  58.8082960  67.1150080 136.4497390  59.5136750  51.4062920 136.4388330
  58.7308540  51.8808420 136.7185090  59.2199680  50.5017750 136.3301510
  64.0657820  52.1086020 134.4837420  64.5065910  52.0531120 133.6359020
  63.7965410  53.0244030 134.5547600  65.9296390  51.7401260 132.4946240
  65.8684790  50.7962480 132.3477260  66.7088420  51.8481350 133.0399700
  57.3990970  53.8249670 131.9504360  56.5865480  53.4506560 131.6100240
  57.9032610  53.0694750 132.2525550  61.9015950  50.4892120 133.1887430
  62.5045320  51.0612330 133.6635950  61.1608940  51.0531560 132.9661330
  65.0450550  50.8913680 128.4627710  65.2401180  51.7897130 128.7295140
  64.2580420  50.6600760 128.9560660  55.4240150  51.9749590 130.5549410
  54.7942890  51.2736900 130.7219540  54.8845290  52.7353720 130.3382570
  58.3632100  68.5888820 143.2260020  59.2899410  68.3533090 143.2695980
  58.3482530  69.4160820 142.7446050  66.5977160  68.1314390 130.2234270
  66.7729350  67.4452130 129.5795190  65.8998730  68.6561440 129.8310940
  55.5495710  51.2533570 142.9901900  55.2679980  51.7567170 142.2262720
  55.9315410  50.4555320 142.6244030  62.1511170  50.6687150 143.5682370
  62.0376620  50.9881760 144.4633890  62.9680910  51.0699660 143.2719650
  64.9309660  67.8158680 143.0501060  65.7234980  67.3207910 142.8427020
  65.2242810  68.4948820 143.6576670  53.2053190  60.7778450 116.6902140
  52.3738070  60.5227160 117.0898650  53.8134170  60.8489220 117.4260060
  53.1854450  64.8118540 116.8860160  53.4882490  63.9216280 116.7070380
  53.9298040  65.3688760 116.6582410  51.6145140  55.7380340 110.4744530
  50.7261840  56.0796310 110.3724410  51.8986330  55.5380660 109.5825360
  49.5778150  58.3385990 116.3584230  50.1494260  57.5708190 116.3587870
  49.5779690  58.6374750 115.4490840  59.6601520  55.9486210 116.0465470
  60.0366340  55.0758090 115.9339140  59.5621030  56.2844910 115.1555910
  53.7906530  54.3211840 111.5082910  53.8973280  55.2215570 111.8151670
  52.8798890  54.2729810 111.2177560  51.4389690  56.2430850 116.7535500
  52.1199800  56.5069220 117.3722900  51.1237740  55.4031720 117.0873510
  55.6314260  57.2898210 115.8408090  56.1392480  57.7879180 116.4813110
  56.1627500  56.5133410 115.6647450  67.7325190  55.4603400 119.5437440
  67.0277360  55.8485110 119.0252550  67.9983110  56.1553690 120.1458370
  63.6787120  55.3837030 115.7521350  62.9742690  55.6721920 116.3324460
  64.0399280  56.1937140 115.3920910  53.5965690  53.6406730 118.1141960
  53.9382500  54.4848780 117.8195830  52.6581500  53.7890470 118.2307300
  54.3772310  63.5372750 120.0994190  54.9946310  64.2123830 119.8178640
  53.5165430  63.9460730 120.0081690  49.6704650  62.7272610 108.9801040
  49.2932630  63.2159710 108.2485940  49.9277720  63.3997890 109.6107570
  65.2949900  65.0012160 118.0148830  64.6113420  65.6711270 118.0065500
  65.8344190  65.1992810 117.2493690  57.2793580  51.1289000 114.4386550
  57.5868560  50.5735890 113.7222050  56.3494280  51.2633460 114.2559540
  62.2294080  61.7486130 118.0576620  62.6462870  61.5346240 117.2230080
  62.9533900  62.0058920 118.6285240  63.1398190  56.9342670 119.0947730
  62.7269370  57.7596380 119.3487720  62.4074140  56.3487710 118.9024090
  53.9859600  56.4945780 117.7365440  54.5374190  56.6041120 116.9618690
  54.5003110  56.8683380 118.4520670  63.8298290  66.9802000 119.7828710
  63.3528850  67.7874190 119.5901320  63.1460080  66.3280330 119.9354920
  54.8331110  63.1451820 122.7713410  53.9359640  63.3691790 123.0186810
  54.8583980  63.2686760 121.8224810  53.6602330  60.0165140 121.3470780
  53.5210100  60.8887940 121.7158180  52.7783690  59.6737950 121.2018720
  65.4553470  51.2487750 106.9995710  65.1426130  51.3414580 107.8994780
  66.2165940  51.8268780 106.9493140  51.9735610  58.6147550 111.4573050
  51.8533210  59.3409640 110.8454320  51.6636500  57.8450460 110.9800960
  49.6120980  61.7862690 117.2641690  49.6901400  61.9211460 116.3197410
  50.2262660  61.0778580 117.4569810  50.8568610  63.4862880 113.6747870
  50.4496690  63.6277470 112.8201470  51.7481620  63.2023040 113.4719080
  66.8130750  63.9326790 122.0120110  66.9393810  63.6938670 121.0937290
  66.8552130  63.1011330 122.4842190  60.6747490  67.6354790 120.5814920
  61.1892160  67.5462800 121.3837350  59.8316570  67.9814490 120.8742830
  49.6680500  62.8276860 119.8036150  49.8311540  62.3582220 118.9855520
  50.1332950  62.3200420 120.4684990  54.4399270  51.9582620 114.8396720
  53.9967420  52.7392160 114.5081240  54.9984260  52.2812510 115.5467660
  57.5558090  51.5793320 109.7202550  56.9312270  51.5753190 110.4455860
  57.4688210  50.7124280 109.3238520  56.4775170  52.5029950 116.6986320
  56.7747500  53.4092780 116.6178340  57.0260730  52.0148730 116.0845890
  54.2313490  57.0816190 112.5677970  54.0054410  56.8653360 113.4724590
  53.4506020  57.5144650 112.2223940  56.6712700  57.9801770 123.2338240
  56.5756300  57.0396500 123.0838640  57.5144680  58.2016840 122.8386310
  57.0908650  54.9903050 115.6975170  57.0944710  54.5493000 114.8479710
  57.9859770  55.3120380 115.8046990  52.9411030  54.8729540 114.6569380
  52.6011080  55.3504770 115.4136430  52.1788350  54.4194660 114.2970480
  61.1157170  53.7682530 116.7045620  61.1329910  54.2191180 117.5487470
  60.8672750  52.8688170 116.9179060  51.2419480  62.2028290 121.9631960
  50.8574270  61.5621960 122.5614920  51.5531670  62.9064410 122.5326690
  50.2557110  53.7948520 113.5734050  49.9704030  53.4304190 114.4112670
  50.1935970  53.0628980 112.9597190  55.1815990  58.0913470 119.7624790
  54.8773060  58.9705450 119.9875150  56.1362450  58.1513260 119.7982230
  59.8504560  61.3648880 122.0387030  59.7841870  60.4444550 121.7844620
  59.2209700  61.4624320 122.7531670  51.2379720  58.9316210 120.9096150
  50.8794660  59.5970060 121.4969490  50.9434280  58.0999760 121.2808770
  54.4392840  59.3900450 123.7935700  54.1392980  59.5357630 122.8963520
  55.2104080  58.8305740 123.7009090  59.7821290  64.1869450 121.7890830
  59.7965830  63.2550410 121.5709740  59.0746390  64.2729210 122.4280600
  65.9932500  60.8276790 121.1359410  65.2680690  61.4205570 120.9388800
  66.5207960  60.8200330 120.3372780  49.7487770  58.9307470 107.5330750
  50.6182620  59.2132270 107.8166670  49.2578090  59.7443340 107.4179560
  59.2155190  65.8287020 118.8831330  59.8597410  66.0346400 119.5604750
  59.5784630  65.0675420 118.4302180  52.8134360  50.6618330 112.1261550
  52.6848990  50.6536230 113.0746470  51.9896380  51.0001420 111.7752560
  62.2624890  64.6314270 120.8044840  62.5981130  65.2180960 121.4822760
  61.3425230  64.5006980 121.0342630  50.1000880  66.4089710 122.5734780
  50.2092000  65.4684450 122.4330170  49.4481440  66.6744460 121.9248510
  51.7334280  60.7480940 109.6612810  51.1262230  61.4879840 109.6708110
  52.2083630  60.8380300 108.8351010  64.6729100  53.8688700 110.1457260
  64.0442260  53.9734370 109.4315490  64.1781020  54.0885480 110.9351140
  58.2669060  57.5671350 119.5607670  58.7654310  58.0417170 120.2259520
  58.4092010  56.6434870 119.7677700  54.8448150  54.4559730 108.9365850
  55.6938680  54.8929880 108.8706040  54.4779420  54.7679990 109.7637910
  53.7439570  60.7092090 107.4101380  54.5102840  60.5973450 107.9726810
  53.8214260  60.0130060 106.7578150  52.4386330  58.1417160 108.0934270
  52.5189920  57.1944670 108.2051670  53.3306080  58.4724040 108.1994930
  53.2401040  68.2912550 115.1968810  53.9763520  67.7428010 115.4677380
  53.6241960  69.1568560 115.0574800  50.1246520  64.3586120 111.0710320
  49.1986300  64.6007260 111.0615730  50.5902950  65.1860380 110.9495070
  61.0823950  63.5838490 124.3329800  60.4762110  63.6070090 123.5925550
  60.7778060  62.8521530 124.8697050  62.5124320  67.3118780 122.9439210
  63.4646070  67.2276800 122.8939450  62.3652540  67.9760490 123.6173000
  49.9657130  59.9632080 123.3290440  50.4696150  59.3839360 123.9006670
  49.2264550  60.2472310 123.8666810  57.0195070  61.3703070 122.8625960
  56.2540740  61.9388070 122.7780630  57.2011030  61.0779280 121.9694190
  64.1618420  63.1008400 123.4200980  64.9027890  63.4384160 122.9168440
  63.3991100  63.2700460 122.8670750  51.9980210  58.1061670 124.2240510
  52.0385550  57.8075540 125.1325740  52.8525710  58.5069280 124.0648030
  53.9386020  56.6853770 122.1915000  53.4082480  56.1944720 121.5638340
  54.6074090  57.1137970 121.6572930  62.8364080  61.1523230 121.9556190
  63.2505100  61.3068310 122.8046610  61.9015080  61.2778450 122.1181970
  54.4258320  53.6516140 122.2712290  54.3315190  53.0336890 121.5463160
  53.8455710  54.3782430 122.0442200  59.9343210  58.8359890 121.3089960
  60.0539420  58.2401030 122.0484800  60.7937210  58.8729580 120.8891260
  62.2731110  59.3897080 119.8852470  61.7466330  59.9139700 119.2817610
  62.6162450  60.0224470 120.5162200  54.6717500  56.7790450 106.3302180
  54.4706560  55.9157810 106.6915520  54.5009550  56.6923810 105.3923780
  55.4486730  67.4096720 121.0409850  54.9107820  68.1342780 120.7218550
  55.7020690  66.9327060 120.2507190  53.4700300  53.8791070 106.3180060
  53.7726200  53.8858500 105.4099210  54.2094890  53.5288930 106.8147720
  58.3048940  68.6447930 121.2996500  58.2307640  69.5483070 121.6068870
  57.4027780  68.3259830 121.2718570  56.6885230  52.8225690 107.3036260
  56.3407230  52.1449680 106.7238710  56.8898000  52.3615200 108.1179650
  49.7076230  65.9722520 114.6030120  50.0379240  65.1043580 114.3708760
  50.1367230  66.1781040 115.4335080  50.1966440  66.8393110 117.3411750
  49.7597430  67.0193910 118.1735900  50.7644120  67.5967730 117.1993470
  65.8328620  66.3410110 121.6289060  65.2330610  66.4002670 120.8852980
  65.9622520  65.4015090 121.7585910  50.0290870  59.3513340 113.7000630
  49.3739710  59.0824980 113.0560330  50.8668820  59.2417820 113.2502610
  64.5180260  63.0662090 119.7265220  63.7040100  63.4959250 119.9891010
  64.9254460  63.6780500 119.1134270  62.9781310  54.1454630 107.9219120
  63.3966190  53.9585610 107.0815780  62.6717370  53.2933680 108.2322050
  51.0666800  59.7365910 118.2403970  51.4339840  59.6493310 119.1199990
  50.4977620  58.9732460 118.1410830  65.8670660  58.2050290 121.2534440
  65.6356750  57.9763040 120.3532390  66.1275210  59.1249840 121.2079330
  50.6182800  56.6475000 122.1462390  49.7238850  56.6141760 122.4856100
  51.1580350  56.8461790 122.9113640  49.2428950  56.5612270 109.6425960
  48.3393030  56.8242470 109.4677620  49.7269570  56.8323440 108.8625920
  65.9311720  57.3676130 118.4421710  64.9814430  57.3339670 118.5566700
  66.1124730  58.2776240 118.2071480  51.7856160  55.6177810 107.5520340
  52.4947860  55.1961030 107.0667620  51.0696100  55.6853040 106.9203690
  67.5599400  53.0078480 106.6338390  68.4848710  52.8759660 106.4256680
  67.5375190  53.0871300 107.5874840  67.6337890  53.7789140 109.2595100
  66.8389390  53.7134260 109.7888010  67.8381170  54.7139780 109.2480450
  52.4818880  64.2498600 123.4024120  52.4388510  63.8791510 124.2838580
  52.6129890  65.1876170 123.5425940  56.1824910  65.8058190 119.0033840
  55.9416270  66.0732750 118.1164360  57.1227550  65.9763920 119.0584700
  52.3206910  67.1960850 120.5221900  51.7267230  67.0645550 121.2611940
  52.3130750  66.3598990 120.0564000  51.9519140  64.5619230 119.4729940
  51.2253200  63.9424520 119.4055890  52.0128290  64.9559840 118.6028020
  55.5564240  66.7764230 116.2579350  56.0729260  66.1651590 115.7327610
  56.2061620  67.2793010 116.7490360  58.2959740  67.6672720 117.0848330
  58.5837550  67.4127020 116.2081340  58.8082960  67.1150080 117.6753900
  50.2349140  67.8793620 112.6826700  50.0671180  67.2464300 113.3808590
  49.3683650  68.0853020 112.3320890  50.8577160  51.7110400 110.1858560
  51.6156520  51.8239280 109.6122590  50.3954330  52.5479600 110.1401990
  57.3990970  53.8249670 113.1760870  56.5865480  53.4506560 112.8356750
  57.9032610  53.0694750 113.4782060  53.2302310  52.2374450 108.7260530
  53.7595070  51.4504250 108.5968480  53.8630630  52.9165640 108.9596060
  55.4240150  51.9749590 111.7805920  54.7942890  51.2736900 111.9476050
  54.8845290  52.7353720 111.5639080  59.1887360  60.4658640  97.0382890
  58.4129460  59.9859080  97.3281460  59.8400290  59.7864290  96.8639050
  53.2053190  60.7778450  97.9158650  52.3738070  60.5227160  98.3155160
  53.8134170  60.8489220  98.6516570  53.1854450  64.8118540  98.1116670
  53.4882490  63.9216280  97.9326890  53.9298040  65.3688760  97.8838920
  51.6145140  55.7380340  91.7001040  50.7261840  56.0796310  91.5980920
  51.8986330  55.5380660  90.8081870  49.5778150  58.3385990  97.5840740
  50.1494260  57.5708190  97.5844380  49.5779690  58.6374750  96.6747350
  50.8203020  53.7470350  99.3709670  50.6405860  52.8496100  99.6512430
  50.4183100  54.2942220 100.0456620  59.6601520  55.9486210  97.2721980
  60.0366340  55.0758090  97.1595650  59.5621030  56.2844910  96.3812420
  53.7906530  54.3211840  92.7339420  53.8973280  55.2215570  93.0408180
  52.8798890  54.2729810  92.4434070  63.4425640  53.4436650  94.2050320
  64.2635260  52.9533220  94.2475800  63.4759720  54.0334310  94.9582160
  51.4389690  56.2430850  97.9792010  52.1199800  56.5069220  98.5979410
  51.1237740  55.4031720  98.3130020  55.6314260  57.2898210  97.0664600
  56.1392480  57.7879180  97.7069620  56.1627500  56.5133410  96.8903960
  63.6787120  55.3837030  96.9777860  62.9742690  55.6721920  97.5580970
  64.0399280  56.1937140  96.6177420  53.5965690  53.6406730  99.3398470
  53.9382500  54.4848780  99.0452340  52.6581500  53.7890470  99.4563810
  54.3772310  63.5372750 101.3250700  54.9946310  64.2123830 101.0435150
  53.5165430  63.9460730 101.2338200  49.6704650  62.7272610  90.2057550
  49.2932630  63.2159710  89.4742450  49.9277720  63.3997890  90.8364080
  55.2730980  59.7202570  95.1822910  54.8687980  59.0079820  94.6868810
  55.3594100  59.3755810  96.0710950  55.7412680  63.4070130  97.3462120
  55.4440970  62.8015600  96.6669900  56.6912500  63.4447440  97.2351480
  53.9859600  56.4945780  98.9621950  54.5374190  56.6041120  98.1875200
  54.5003110  56.8683380  99.6777180  65.4553470  51.2487750  88.2252220
  65.1426130  51.3414580  89.1251290  66.2165940  51.8268780  88.1749650
  51.9735610  58.6147550  92.6829560  51.8533210  59.3409640  92.0710830
  51.6636500  57.8450460  92.2057470  49.6120980  61.7862690  98.4898200
  49.6901400  61.9211460  97.5453920  50.2262660  61.0778580  98.6826320
  50.8568610  63.4862880  94.9004380  50.4496690  63.6277470  94.0457980
  51.7481620  63.2023040  94.6975590  55.1290270  67.7008660  93.0127050
  54.9532750  66.7844200  92.7994850  54.2746010  68.0595950  93.2524850
  66.6654760  55.9859250 104.2026360  66.0499030  56.4938920 103.6741820
  66.3451180  55.0857580 104.1452300  54.4399270  51.9582620  96.0653230
  53.9967420  52.7392160  95.7337750  54.9984260  52.2812510  96.7724170
  58.7269080  54.8251140 101.6688550  58.2648450  55.0334160 102.4808490
  58.3247190  54.0110490 101.3659220  56.4775170  52.5029950  97.9242830
  56.7747500  53.4092780  97.8434850  57.0260730  52.0148730  97.3102400
  54.2313490  57.0816190  93.7934480  54.0054410  56.8653360  94.6981100
  53.4506020  57.5144650  93.4480450  61.4611250  57.0879560  92.3925130
  60.8620140  57.8115360  92.2088750  62.0090860  57.0256340  91.6101580
  60.0676120  55.7243100  94.4228410  60.4605690  56.0415300  93.6097100
  60.4292970  54.8454980  94.5372930  51.8023240  54.3915440 102.6128530
  51.4086630  55.2390650 102.8201310  51.1141640  53.7541810 102.8037170
  58.3768290  54.4750410 105.6825270  57.6866610  54.2822610 106.3171360
  59.1200590  54.7585050 106.2149570  49.1040290  52.3143900  96.6458610
  48.8153340  52.8846760  97.3583590  49.8486050  51.8348350  97.0089840
  60.6531260  58.3148850  98.5179190  59.9212380  58.8235660  98.8669290
  60.2555600  57.4978830  98.2167970  57.0908650  54.9903050  96.9231680
  57.0944710  54.5493000  96.0736220  57.9859770  55.3120380  97.0303500
  52.9411030  54.8729540  95.8825890  52.6011080  55.3504770  96.6392940
  52.1788350  54.4194660  95.5226990  61.1157170  53.7682530  97.9302130
  61.1329910  54.2191180  98.7743980  60.8672750  52.8688170  98.1435570
  53.7097780  62.2974460  91.5848150  52.9360040  61.7572080  91.4246870
  54.4392410  61.7781070  91.2465910  53.7535180  61.9654840  95.2226960
  54.2713850  61.1623100  95.1683850  53.3019200  61.9033980  96.0643790
  54.4392840  59.3900450 105.0192210  54.1392980  59.5357630 104.1220030
  55.2104080  58.8305740 104.9265600  57.6095370  63.3134650  93.2670180
  58.2966500  63.8603860  93.6477770  56.8227790  63.8575380  93.3019790
  49.7487770  58.9307470  88.7587260  50.6182620  59.2132270  89.0423180
  49.2578090  59.7443340  88.6436070  56.9122580  60.3180680  92.8795540
  57.3685360  61.1285930  93.1055730  56.5610790  60.0003820  93.7114030
  52.8134360  50.6618330  93.3518060  52.6848990  50.6536230  94.3002980
  51.9896380  51.0001420  93.0009070  49.8128290  52.4209450 102.8124760
  49.0986810  52.6206370 103.4177370  50.2323330  51.6449020 103.1839560
  50.1000880  66.4089710 103.7991290  50.2092000  65.4684450 103.6586680
  49.4481440  66.6744460 103.1505020  51.7334280  60.7480940  90.8869320
  51.1262230  61.4879840  90.8964620  52.2083630  60.8380300  90.0607520
  64.6729100  53.8688700  91.3713770  64.0442260  53.9734370  90.6572000
  64.1781020  54.0885480  92.1607650  56.6413130  56.1474650  92.7871650
  55.9329280  56.6160990  93.2285260  56.9257610  55.4896660  93.4216840
  60.6728560  52.8725310  94.2267440  60.5496340  52.8911440  93.2776950
  61.6213120  52.9204250  94.3465840  54.8448150  54.4559730  90.1622360
  55.6938680  54.8929880  90.0962550  54.4779420  54.7679990  90.9894420
  53.7439570  60.7092090  88.6357890  54.5102840  60.5973450  89.1983320
  53.8214260  60.0130060  87.9834660  52.4386330  58.1417160  89.3190780
  52.5189920  57.1944670  89.4308180  53.3306080  58.4724040  89.4251440
  53.2401040  68.2912550  96.4225320  53.9763520  67.7428010  96.6933890
  53.6241960  69.1568560  96.2831310  50.1246520  64.3586120  92.2966830
  49.1986300  64.6007260  92.2872240  50.5902950  65.1860380  92.1751580
  56.8680750  62.6846270  88.1093240  56.7631390  62.0698620  88.8354620
  56.7004970  62.1612160  87.3256250  51.9980210  58.1061670 105.4497020
  52.0385550  57.8075540 106.3582250  52.8525710  58.5069280 105.2904540
  55.7758600  60.7057220  90.6100530  56.1975020  60.5397090  91.4531920
  55.9009440  59.8957450  90.1155670  53.9386020  56.6853770 103.4171510
  53.4082480  56.1944720 102.7894850  54.6074090  57.1137970 102.8829440
  58.2886240  59.7294830  87.8577630  58.8091900  59.0143850  87.4918780
  58.9354640  60.3680700  88.1578140  57.1919760  52.2089380 100.5296190
  56.7437060  52.2313640  99.6841740  56.5584960  51.8108400 101.1266490
  54.6717500  56.7790450  87.5558690  54.4706560  55.9157810  87.9172030
  54.5009550  56.6923810  86.6180290  56.7011980  55.3781240 103.7922290
  57.2911670  55.0697090 104.4800110  55.8832220  54.9060990 103.9482190
  53.4700300  53.8791070  87.5436570  53.7726200  53.8858500  86.6355720
  54.2094890  53.5288930  88.0404230  52.4930430  63.1833490  88.3766370
  52.9305300  63.7263160  89.0323950  52.9778160  62.3580440  88.3862710
  49.7076230  65.9722520  95.8286630  50.0379240  65.1043580  95.5965270
  50.1367230  66.1781040  96.6591590  54.3038150  64.3031530  93.4888600
  54.0033690  64.1796500  94.3892510  54.1975640  63.4440120  93.0804330
  50.1966440  66.8393110  98.5668260  49.7597430  67.0193910  99.3992410
  50.7644120  67.5967730  98.4249980  50.0290870  59.3513340  94.9257140
  49.3739710  59.0824980  94.2816840  50.8668820  59.2417820  94.4759120
  62.9781310  54.1454630  89.1475630  63.3966190  53.9585610  88.3072290
  62.6717370  53.2933680  89.4578560  51.7856160  55.6177810  88.7776850
  52.4947860  55.1961030  88.2924130  51.0696100  55.6853040  88.1460200
  51.4330320  51.6717140  87.8179500  52.1558450  52.2126080  88.1360720
  51.7054840  51.3980560  86.9421040  51.1222510  50.9223330  97.7202120
  51.7698700  50.3720710  97.2797280  51.5424350  51.1766480  98.5417930
  66.6709130  55.1770560  94.6188760  66.5608410  55.0226600  95.5571030
  67.4316720  54.6491500  94.3764170  58.3879330  52.2690880 103.9846860
  58.3268220  52.8612710 104.7342270  59.3279710  52.1616840 103.8397120
  52.3206910  67.1960850 101.7478410  51.7267230  67.0645550 102.4868450
  52.3130750  66.3598990 101.2820510  51.9519140  64.5619230 100.6986450
  51.2253200  63.9424520 100.6312400  52.0128290  64.9559840  99.8284530
  55.5564240  66.7764230  97.4835860  56.0729260  66.1651590  96.9584120
  56.2061620  67.2793010  97.9746870  59.5136750  51.4062920  98.8901350
  58.7308540  51.8808420  99.1698110  59.2199680  50.5017750  98.7814530
  64.0657820  52.1086020  96.9350440  64.5065910  52.0531120  96.0872040
  63.7965410  53.0244030  97.0060620  65.9296390  51.7401260  94.9459260
  65.8684790  50.7962480  94.7990280  66.7088420  51.8481350  95.4912720
  50.2349140  67.8793620  93.9083210  50.0671180  67.2464300  94.6065100
  49.3683650  68.0853020  93.5577400  57.3990970  53.8249670  94.4017380
  56.5865480  53.4506560  94.0613260  57.9032610  53.0694750  94.7038570
  61.9015950  50.4892120  95.6400450  62.5045320  51.0612330  96.1148970
  61.1608940  51.0531560  95.4174350  65.0450550  50.8913680  90.9140730
  65.2401180  51.7897130  91.1808160  64.2580420  50.6600760  91.4073680
  53.2302310  52.2374450  89.9517040  53.7595070  51.4504250  89.8224990
  53.8630630  52.9165640  90.1852570  62.1511170  50.6687150 106.0195390
  62.0376620  50.9881760 106.9146910  62.9680910  51.0699660 105.7232670
  59.1887360  60.4658640  78.2639400  58.4129460  59.9859080  78.5537970
  59.8400290  59.7864290  78.0895560  53.2053190  60.7778450  79.1415160
  52.3738070  60.5227160  79.5411670  53.8134170  60.8489220  79.8773080
  63.2094790  64.8718830  77.0438530  62.7476320  64.1006070  77.3725700
  64.0220340  64.8984900  77.5490980  51.6145140  55.7380340  72.9257550
  50.7261840  56.0796310  72.8237430  51.8986330  55.5380660  72.0338380
  49.5778150  58.3385990  78.8097250  50.1494260  57.5708190  78.8100890
  49.5779690  58.6374750  77.9003860  59.4358100  67.1576840  76.6642520
  58.8169540  67.6134340  76.0936960  60.2909880  67.3128300  76.2632220
  58.6296350  63.1415830  78.2709560  58.5604630  62.2005770  78.1098690
  59.3916210  63.2317240  78.8432130  50.8203020  53.7470350  80.5966180
  50.6405860  52.8496100  80.8768940  50.4183100  54.2942220  81.2713130
  59.6601520  55.9486210  78.4978490  60.0366340  55.0758090  78.3852160
  59.5621030  56.2844910  77.6068930  53.7906530  54.3211840  73.9595930
  53.8973280  55.2215570  74.2664690  52.8798890  54.2729810  73.6690580
  63.4425640  53.4436650  75.4306830  64.2635260  52.9533220  75.4732310
  63.4759720  54.0334310  76.1838670  51.4389690  56.2430850  79.2048520
  52.1199800  56.5069220  79.8235920  51.1237740  55.4031720  79.5386530
  55.6314260  57.2898210  78.2921110  56.1392480  57.7879180  78.9326130
  56.1627500  56.5133410  78.1160470  53.9150360  51.9296770  82.5584530
  53.9168800  52.4469160  81.7530430  53.0854670  51.4526950  82.5354460
  55.1653210  61.5691950  80.7358030  54.8322590  62.1960870  81.3779100
  55.3419890  62.0953830  79.9559700  63.6787120  55.3837030  78.2034370
  62.9742690  55.6721920  78.7837480  64.0399280  56.1937140  77.8433930
  53.5965690  53.6406730  80.5654980  53.9382500  54.4848780  80.2708850
  52.6581500  53.7890470  80.6820320  54.3772310  63.5372750  82.5507210
  54.9946310  64.2123830  82.2691660  53.5165430  63.9460730  82.4594710
  49.6704650  62.7272610  71.4314060  49.2932630  63.2159710  70.6998960
  49.9277720  63.3997890  72.0620590  66.7474040  54.8291820  78.5943580
  65.7998950  54.8630800  78.7259010  67.0724030  55.6430770  78.9792940
  62.8308640  66.8456290  79.1807030  62.8435800  66.4418580  78.3129290
  62.2783860  67.6203580  79.0768460  62.2294080  61.7486130  80.5089640
  62.6462870  61.5346240  79.6743100  62.9533900  62.0058920  81.0798260
  63.1398190  56.9342670  81.5460750  62.7269370  57.7596380  81.8000740
  62.4074140  56.3487710  81.3537110  55.2730980  59.7202570  76.4079420
  54.8687980  59.0079820  75.9125320  55.3594100  59.3755810  77.2967460
  55.7412680  63.4070130  78.5718630  55.4440970  62.8015600  77.8926410
  56.6912500  63.4447440  78.4607990  53.9859600  56.4945780  80.1878460
  54.5374190  56.6041120  79.4131710  54.5003110  56.8683380  80.9033690
  54.8331110  63.1451820  85.2226430  53.9359640  63.3691790  85.4699830
  54.8583980  63.2686760  84.2737830  53.6602330  60.0165140  83.7983800
  53.5210100  60.8887940  84.1671200  52.7783690  59.6737950  83.6531740
  59.9831710  64.9341010  75.1048930  60.4227620  65.6765340  74.6904320
  59.9218600  65.1767580  76.0287890  55.4582680  65.9586840  86.0068950
  55.4298110  66.3629790  85.1397380  55.2947650  65.0297200  85.8440550
  51.9735610  58.6147550  73.9086070  51.8533210  59.3409640  73.2967340
  51.6636500  57.8450460  73.4313980  60.6747490  67.6354790  83.0327940
  61.1892160  67.5462800  83.8350370  59.8316570  67.9814490  83.3255850
  55.1290270  67.7008660  74.2383560  54.9532750  66.7844200  74.0251360
  54.2746010  68.0595950  74.4781360  62.3528020  65.4297690  71.0209940
  61.6593180  65.4274980  70.3612220  63.0950880  65.0057010  70.5904110
  61.9177950  67.0560400  75.0958430  62.3734900  66.2749780  75.4097050
  62.2570470  67.7667220  75.6399610  66.6654760  55.9859250  85.4282870
  66.0499030  56.4938920  84.8998330  66.3451180  55.0857580  85.3708810
  54.4399270  51.9582620  77.2909740  53.9967420  52.7392160  76.9594260
  54.9984260  52.2812510  77.9980680  63.7273590  56.0460090  84.0241720
  62.8767180  55.7465840  84.3450790  63.5675380  56.2902100  83.1125540
  56.4775170  52.5029950  79.1499340  56.7747500  53.4092780  79.0691360
  57.0260730  52.0148730  78.5358910  56.6712700  57.9801770  85.6851260
  56.5756300  57.0396500  85.5351660  57.5144680  58.2016840  85.2899330
  60.0676120  55.7243100  75.6484920  60.4605690  56.0415300  74.8353610
  60.4292970  54.8454980  75.7629440  51.8023240  54.3915440  83.8385040
  51.4086630  55.2390650  84.0457820  51.1141640  53.7541810  84.0293680
  49.1040290  52.3143900  77.8715120  48.8153340  52.8846760  78.5840100
  49.8486050  51.8348350  78.2346350  49.2910520  56.2564020  69.0817840
  49.2085190  57.1994780  69.2232830  48.9393580  56.1138930  68.2030190
  60.6531260  58.3148850  79.7435700  59.9212380  58.8235660  80.0925800
  60.2555600  57.4978830  79.4424480  57.0908650  54.9903050  78.1488190
  57.0944710  54.5493000  77.2992730  57.9859770  55.3120380  78.2560010
  52.9411030  54.8729540  77.1082400  52.6011080  55.3504770  77.8649450
  52.1788350  54.4194660  76.7483500  64.5427920  51.1814710  84.9945020
  64.8673690  50.4504370  85.5203000  64.5784430  50.8628350  84.0926010
  51.2419480  62.2028290  84.4144980  50.8574270  61.5621960  85.0127940
  51.5531670  62.9064410  84.9839710  57.3916620  59.0504830  79.8953600
  57.7586750  58.5763400  80.6414940  57.2021680  59.9246400  80.2361940
  50.2557110  53.7948520  76.0247070  49.9704030  53.4304190  76.8625690
  50.1935970  53.0628980  75.4110210  55.1815990  58.0913470  82.2137810
  54.8773060  58.9705450  82.4388170  56.1362450  58.1513260  82.2495250
  53.7097780  62.2974460  72.8104660  52.9360040  61.7572080  72.6503380
  54.4392410  61.7781070  72.4722420  59.8504560  61.3648880  84.4900050
  59.7841870  60.4444550  84.2357640  59.2209700  61.4624320  85.2044690
  53.7535180  61.9654840  76.4483470  54.2713850  61.1623100  76.3940360
  53.3019200  61.9033980  77.2900300  58.6404680  63.2321120  71.7210770
  58.9820380  63.9763350  71.2254090  57.8117390  63.5452240  72.0835600
  51.2379720  58.9316210  83.3609170  50.8794660  59.5970060  83.9482510
  50.9434280  58.0999760  83.7321790  54.4392840  59.3900450  86.2448720
  54.1392980  59.5357630  85.3476540  55.2104080  58.8305740  86.1522110
  61.5232090  62.5536960  77.0856280  61.8755910  61.9565090  76.4257650
  60.6394420  62.2281190  77.2564530  57.6095370  63.3134650  74.4926690
  58.2966500  63.8603860  74.8734280  56.8227790  63.8575380  74.5276300
  49.7487770  58.9307470  69.9843770  50.6182620  59.2132270  70.2679690
  49.2578090  59.7443340  69.8692580  59.2155190  65.8287020  81.3344350
  59.8597410  66.0346400  82.0117770  59.5784630  65.0675420  80.8815200
  52.8134360  50.6618330  74.5774570  52.6848990  50.6536230  75.5259490
  51.9896380  51.0001420  74.2265580  60.4887270  63.8319370  80.0521800
  61.1309500  63.1312530  80.1653970  61.0136620  64.6117810  79.8718690
  49.8128290  52.4209450  84.0381270  49.0986810  52.6206370  84.6433880
  50.2323330  51.6449020  84.4096070  56.1327640  65.5266050  71.3679070
  56.1237740  66.2595740  70.7523580  55.2126000  65.2797630  71.4606030
  51.7334280  60.7480940  72.1125830  51.1262230  61.4879840  72.1221130
  52.2083630  60.8380300  71.2864030  59.1187240  65.5894290  70.0304260
  59.2199220  65.3858280  69.1006240  58.2188980  65.3352570  70.2352040
  58.2669060  57.5671350  82.0120690  58.7654310  58.0417170  82.6772540
  58.4092010  56.6434870  82.2190720  60.6728560  52.8725310  75.4523950
  60.5496340  52.8911440  74.5033460  61.6213120  52.9204250  75.5722350
  57.7605350  68.1080610  74.7251930  58.0146850  68.0702000  73.8031300
  56.8117830  67.9813940  74.7180180  53.7439570  60.7092090  69.8614400
  54.5102840  60.5973450  70.4239830  53.8214260  60.0130060  69.2091170
  52.4386330  58.1417160  70.5447290  52.5189920  57.1944670  70.6564690
  53.3306080  58.4724040  70.6507950  56.3503350  67.4642860  69.4707400
  57.1431960  67.7531690  69.0189190  55.8307700  67.0335030  68.7919880
  49.9657130  59.9632080  85.7803460  50.4696150  59.3839360  86.3519690
  49.2264550  60.2472310  86.3179830  56.8680750  62.6846270  69.3349750
  56.7631390  62.0698620  70.0611130  56.7004970  62.1612160  68.5512760
  57.0195070  61.3703070  85.3138980  56.2540740  61.9388070  85.2293650
  57.2011030  61.0779280  84.4207210  60.1083480  61.7466300  69.9391740
  59.5593580  62.1935600  70.5834480  60.7302740  61.2415550  70.4629410
  51.9980210  58.1061670  86.6753530  52.0385550  57.8075540  87.5838760
  52.8525710  58.5069280  86.5161050  55.7758600  60.7057220  71.8357040
  56.1975020  60.5397090  72.6788430  55.9009440  59.8957450  71.3412180
  53.9386020  56.6853770  84.6428020  53.4082480  56.1944720  84.0151360
  54.6074090  57.1137970  84.1085950  62.8364080  61.1523230  84.4069210
  63.2505100  61.3068310  85.2559630  61.9015080  61.2778450  84.5694990
  63.3086250  58.4919390  86.4108360  63.8907020  57.7371710  86.3228840
  63.4848020  59.0226830  85.6339840  54.4258320  53.6516140  84.7225310
  54.3315190  53.0336890  83.9976180  53.8455710  54.3782430  84.4955220
  57.5979310  61.1043710  82.3765140  58.0167420  61.9476440  82.2041380
  56.6787940  61.2415750  82.1471920  59.9343210  58.8359890  83.7602980
  60.0539420  58.2401030  84.4997820  60.7937210  58.8729580  83.3404280
  62.2731110  59.3897080  82.3365490  61.7466330  59.9139700  81.7330630
  62.6162450  60.0224470  82.9675220  55.4486730  67.4096720  83.4922870
  54.9107820  68.1342780  83.1731570  55.7020690  66.9327060  82.7020210
  62.1505810  51.5898680  71.3102080  62.4308100  50.7466580  71.6661500
  61.3771540  51.8221790  71.8240830  53.4700300  53.8791070  68.7693080
  53.7726200  53.8858500  67.8612230  54.2094890  53.5288930  69.2660740
  58.3048940  68.6447930  83.7509520  58.2307640  69.5483070  84.0581890
  57.4027780  68.3259830  83.7231590  58.8534270  67.8106440  71.3735880
  59.7485060  68.1491410  71.3954640  58.8851900  67.0885850  70.7460160
  52.4930430  63.1833490  69.6022880  52.9305300  63.7263160  70.2580460
  52.9778160  62.3580440  69.6119220  54.3038150  64.3031530  74.7145110
  54.0033690  64.1796500  75.6149020  54.1975640  63.4440120  74.3060840
  50.0290870  59.3513340  76.1513650  49.3739710  59.0824980  75.5073350
  50.8668820  59.2417820  75.7015630  51.0666800  59.7365910  80.6916990
  51.4339840  59.6493310  81.5713010  50.4977620  58.9732460  80.5923850
  50.6182800  56.6475000  84.5975410  49.7238850  56.6141760  84.9369120
  51.1580350  56.8461790  85.3626660  64.3058730  53.4306720  86.4827160
  65.1828910  53.4390120  86.8661160  64.3179570  52.6937560  85.8719510
  49.2428950  56.5612270  72.0938980  48.3393030  56.8242470  71.9190640
  49.7269570  56.8323440  71.3138940  65.7522000  57.2836260  77.3715180
  66.2759480  56.7898910  76.7405350  66.3381420  57.4186620  78.1162750
  65.9311720  57.3676130  80.8934730  64.9814430  57.3339670  81.0079720
  66.1124730  58.2776240  80.6584500  51.7856160  55.6177810  70.0033360
  52.4947860  55.1961030  69.5180640  51.0696100  55.6853040  69.3716710
  51.4330320  51.6717140  69.0436010  52.1558450  52.2126080  69.3617230
  51.7054840  51.3980560  68.1677550  51.1222510  50.9223330  78.9458630
  51.7698700  50.3720710  78.5053790  51.5424350  51.1766480  79.7674440
  64.5756310  67.8180690  75.7046510  65.1715380  67.4965260  75.0280930
  64.8334460  67.3452510  76.4959780  50.8754510  51.0779000  81.6883950
  50.5269330  51.5342820  82.4542130  50.5442210  50.1836130  81.7706380
  52.4818880  64.2498600  85.8537140  52.4388510  63.8791510  86.7351600
  52.6129890  65.1876170  85.9938960  56.1824910  65.8058190  81.4546860
  55.9416270  66.0732750  80.5677380  57.1227550  65.9763920  81.5097720
  51.5475150  50.6055200  84.9634720  52.0958140  50.4243250  84.2000830
  51.6130460  49.8149310  85.4991030  55.5564240  66.7764230  78.7092370
  56.0729260  66.1651590  78.1840630  56.2061620  67.2793010  79.2003380
  58.2959740  67.6672720  79.5361350  58.5837550  67.4127020  78.6594360
  58.8082960  67.1150080  80.1266920  65.9296390  51.7401260  76.1715770
  65.8684790  50.7962480  76.0246790  66.7088420  51.8481350  76.7169230
  50.8577160  51.7110400  72.6371580  51.6156520  51.8239280  72.0635610
  50.3954330  52.5479600  72.5915010  51.8411840  66.5726850  72.5789860
  51.3159460  66.9534880  71.8751820  51.7656420  67.1977620  73.2999570
  55.5495710  51.2533570  86.6671430  55.2679980  51.7567170  85.9032250
  55.9315410  50.4555320  86.3013560  54.4404810  68.5209230  71.4539110
  55.1723630  68.2368510  70.9063000  54.6998480  68.2822510  72.3438490
  53.6019600  64.6373960  71.4585440  52.9728480  65.1059060  72.0071270
  53.7167430  63.7923180  71.8931630  59.1887360  60.4658640  59.4895910
  58.4129460  59.9859080  59.7794480  59.8400290  59.7864290  59.3152070
  63.2094790  64.8718830  58.2695040  62.7476320  64.1006070  58.5982210
  64.0220340  64.8984900  58.7747490  53.1854450  64.8118540  60.5629690
  53.4882490  63.9216280  60.3839910  53.9298040  65.3688760  60.3351940
  51.6145140  55.7380340  54.1514060  50.7261840  56.0796310  54.0493940
  51.8986330  55.5380660  53.2594890  59.4358100  67.1576840  57.8899030
  58.8169540  67.6134340  57.3193470  60.2909880  67.3128300  57.4888730
  58.6296350  63.1415830  59.4966070  58.5604630  62.2005770  59.3355200
  59.3916210  63.2317240  60.0688640  50.8203020  53.7470350  61.8222690
  50.6405860  52.8496100  62.1025450  50.4183100  54.2942220  62.4969640
  59.6601520  55.9486210  59.7235000  60.0366340  55.0758090  59.6108670
  59.5621030  56.2844910  58.8325440  51.4389690  56.2430850  60.4305030
  52.1199800  56.5069220  61.0492430  51.1237740  55.4031720  60.7643040
  55.6314260  57.2898210  59.5177620  56.1392480  57.7879180  60.1582640
  56.1627500  56.5133410  59.3416980  55.1653210  61.5691950  61.9614540
  54.8322590  62.1960870  62.6035610  55.3419890  62.0953830  61.1816210
  53.5965690  53.6406730  61.7911490  53.9382500  54.4848780  61.4965360
  52.6581500  53.7890470  61.9076830  54.3772310  63.5372750  63.7763720
  54.9946310  64.2123830  63.4948170  53.5165430  63.9460730  63.6851220
  62.2294080  61.7486130  61.7346150  62.6462870  61.5346240  60.8999610
  62.9533900  62.0058920  62.3054770  59.6543420  55.4654830  51.8483360
  58.7147090  55.6268790  51.9335820  59.9726680  56.1840510  51.3019350
  63.1398190  56.9342670  62.7717260  62.7269370  57.7596380  63.0257250
  62.4074140  56.3487710  62.5793620  55.7412680  63.4070130  59.7975140
  55.4440970  62.8015600  59.1182920  56.6912500  63.4447440  59.6864500
  53.9859600  56.4945780  61.4134970  54.5374190  56.6041120  60.6388220
  54.5003110  56.8683380  62.1290200  54.8331110  63.1451820  66.4482940
  53.9359640  63.3691790  66.6956340  54.8583980  63.2686760  65.4994340
  53.6602330  60.0165140  65.0240310  53.5210100  60.8887940  65.3927710
  52.7783690  59.6737950  64.8788250  59.9831710  64.9341010  56.3305440
  60.4227620  65.6765340  55.9160830  59.9218600  65.1767580  57.2544400
  55.4582680  65.9586840  67.2325460  55.4298110  66.3629790  66.3653890
  55.2947650  65.0297200  67.0697060  62.6501890  67.9210130  53.6868450
  62.4903030  67.6313070  54.5850280  62.4848600  67.1450260  53.1513680
  55.1290270  67.7008660  55.4640070  54.9532750  66.7844200  55.2507870
  54.2746010  68.0595950  55.7037870  62.3528020  65.4297690  52.2466450
  61.6593180  65.4274980  51.5868730  63.0950880  65.0057010  51.8160620
  61.9177950  67.0560400  56.3214940  62.3734900  66.2749780  56.6353560
  62.2570470  67.7667220  56.8656120  49.6680500  62.8276860  63.4805680
  49.8311540  62.3582220  62.6625050  50.1332950  62.3200420  64.1454520
  58.7269080  54.8251140  64.1201570  58.2648450  55.0334160  64.9321510
  58.3247190  54.0110490  63.8172240  60.8223300  57.5461840  67.3497020
  61.1476710  56.7125590  67.0099250  61.6103630  58.0690360  67.4975350
  56.4775170  52.5029950  60.3755850  56.7747500  53.4092780  60.2947870
  57.0260730  52.0148730  59.7615420  54.2313490  57.0816190  56.2447500
  54.0054410  56.8653360  57.1494120  53.4506020  57.5144650  55.8993470
  56.6712700  57.9801770  66.9107770  56.5756300  57.0396500  66.7608170
  57.5144680  58.2016840  66.5155840  60.0676120  55.7243100  56.8741430
  60.4605690  56.0415300  56.0610120  60.4292970  54.8454980  56.9885950
  51.8023240  54.3915440  65.0641550  51.4086630  55.2390650  65.2714330
  51.1141640  53.7541810  65.2550190  58.3768290  54.4750410  68.1338290
  57.6866610  54.2822610  68.7684380  59.1200590  54.7585050  68.6662590
  49.1040290  52.3143900  59.0971630  48.8153340  52.8846760  59.8096610
  49.8486050  51.8348350  59.4602860  60.6531260  58.3148850  60.9692210
  59.9212380  58.8235660  61.3182310  60.2555600  57.4978830  60.6680990
  57.0908650  54.9903050  59.3744700  57.0944710  54.5493000  58.5249240
  57.9859770  55.3120380  59.4816520  57.1528800  55.9915130  52.3651460
  57.2741620  55.9501610  53.3137280  56.7677310  56.8539280  52.2098190
  61.1157170  53.7682530  60.3815150  61.1329910  54.2191180  61.2257000
  60.8672750  52.8688170  60.5948590  51.2419480  62.2028290  65.6401490
  50.8574270  61.5621960  66.2384450  51.5531670  62.9064410  66.2096220
  57.3916620  59.0504830  61.1210110  57.7586750  58.5763400  61.8671450
  57.2021680  59.9246400  61.4618450  55.1815990  58.0913470  63.4394320
  54.8773060  58.9705450  63.6644680  56.1362450  58.1513260  63.4751760
  59.8504560  61.3648880  65.7156560  59.7841870  60.4444550  65.4614150
  59.2209700  61.4624320  66.4301200  58.6404680  63.2321120  52.9467280
  58.9820380  63.9763350  52.4510600  57.8117390  63.5452240  53.3092110
  51.2379720  58.9316210  64.5865680  50.8794660  59.5970060  65.1739020
  50.9434280  58.0999760  64.9578300  54.4392840  59.3900450  67.4705230
  54.1392980  59.5357630  66.5733050  55.2104080  58.8305740  67.3778620
  57.6095370  63.3134650  55.7183200  58.2966500  63.8603860  56.0990790
  56.8227790  63.8575380  55.7532810  56.9122580  60.3180680  55.3308560
  57.3685360  61.1285930  55.5568750  56.5610790  60.0003820  56.1627050
  60.4887270  63.8319370  61.2778310  61.1309500  63.1312530  61.3910480
  61.0136620  64.6117810  61.0975200  64.3342990  64.1167990  51.0017450
  64.1080570  63.3998430  51.5942090  63.9439190  63.8680430  50.1639200
  49.8128290  52.4209450  65.2637780  49.0986810  52.6206370  65.8690390
  50.2323330  51.6449020  65.6352580  56.1327640  65.5266050  52.5935580
  56.1237740  66.2595740  51.9780090  55.2126000  65.2797630  52.6862540
  61.3067070  54.9131760  63.0139230  61.6747890  54.0926970  63.3418800
  60.4465270  54.9733650  63.4294880  59.1187240  65.5894290  51.2560770
  59.2199220  65.3858280  50.3262750  58.2188980  65.3352570  51.4608550
  56.6413130  56.1474650  55.2384670  55.9329280  56.6160990  55.6798280
  56.9257610  55.4896660  55.8729860  58.2669060  57.5671350  63.2377200
  58.7654310  58.0417170  63.9029050  58.4092010  56.6434870  63.4447230
  57.7605350  68.1080610  55.9508440  58.0146850  68.0702000  55.0287810
  56.8117830  67.9813940  55.9436690  53.2401040  68.2912550  58.8738340
  53.9763520  67.7428010  59.1446910  53.6241960  69.1568560  58.7344330
  52.2459320  67.4758620  68.0623920  53.0472050  67.7970670  68.4759320
  51.7311140  67.1154200  68.7843830  56.3503350  67.4642860  50.6963910
  57.1431960  67.7531690  50.2445700  55.8307700  67.0335030  50.0176390
  65.4033520  66.6912990  52.1200650  65.1175030  66.2778130  51.3054830
  65.2053070  67.6200700  52.0001170  49.9657130  59.9632080  67.0059970
  50.4696150  59.3839360  67.5776200  49.2264550  60.2472310  67.5436340
  57.0195070  61.3703070  66.5395490  56.2540740  61.9388070  66.4550160
  57.2011030  61.0779280  65.6463720  60.1083480  61.7466300  51.1648250
  59.5593580  62.1935600  51.8090990  60.7302740  61.2415550  51.6885920
  51.9980210  58.1061670  67.9010040  52.0385550  57.8075540  68.8095270
  52.8525710  58.5069280  67.7417560  53.9386020  56.6853770  65.8684530
  53.4082480  56.1944720  65.2407870  54.6074090  57.1137970  65.3342460
  63.3086250  58.4919390  67.6364870  63.8907020  57.7371710  67.5485350
  63.4848020  59.0226830  66.8596350  54.4258320  53.6516140  65.9481820
  54.3315190  53.0336890  65.2232690  53.8455710  54.3782430  65.7211730
  57.1919760  52.2089380  62.9809210  56.7437060  52.2313640  62.1354760
  56.5584960  51.8108400  63.5779510  57.5979310  61.1043710  63.6021650
  58.0167420  61.9476440  63.4297890  56.6787940  61.2415750  63.3728430
  59.9343210  58.8359890  64.9859490  60.0539420  58.2401030  65.7254330
  60.7937210  58.8729580  64.5660790  62.2731110  59.3897080  63.5622000
  61.7466330  59.9139700  62.9587140  62.6162450  60.0224470  64.1931730
  55.4486730  67.4096720  64.7179380  54.9107820  68.1342780  64.3988080
  55.7020690  66.9327060  63.9276720  56.7011980  55.3781240  66.2435310
  57.2911670  55.0697090  66.9313130  55.8832220  54.9060990  66.3995210
  61.5205410  54.9947050  66.4768330  60.8320930  54.3328590  66.4118320
  62.2411430  54.5485320  66.9216790  53.4700300  53.8791070  49.9949590
  53.7726200  53.8858500  49.0868740  54.2094890  53.5288930  50.4917250
  58.8534270  67.8106440  52.5992390  59.7485060  68.1491410  52.6211150
  58.8851900  67.0885850  51.9716670  67.0730070  64.0827930  50.6428300
  66.2423030  64.1504580  51.1135530  67.2501900  64.9732050  50.3395160
  66.5805700  61.1209780  50.3035020  66.8554540  62.0288660  50.1754240
  66.3916440  61.0572310  51.2397010  51.0666800  59.7365910  61.9173500
  51.4339840  59.6493310  62.7969520  50.4977620  58.9732460  61.8180360
  50.6182800  56.6475000  65.8231920  49.7238850  56.6141760  66.1625630
  51.1580350  56.8461790  66.5883170  67.5599400  53.0078480  50.3107920
  68.4848710  52.8759660  50.1026210  67.5375190  53.0871300  51.2644370
  52.4818880  64.2498600  67.0793650  52.4388510  63.8791510  67.9608110
  52.6129890  65.1876170  67.2195470  56.1824910  65.8058190  62.6803370
  55.9416270  66.0732750  61.7933890  57.1227550  65.9763920  62.7354230
  58.3879330  52.2690880  66.4359880  58.3268220  52.8612710  67.1855290
  59.3279710  52.1616840  66.2910140  61.0253890  51.9260940  66.0752170
  61.6394300  52.2440230  65.4133250  61.5703450  51.4409530  66.6948030
  51.5475150  50.6055200  66.1891230  52.0958140  50.4243250  65.4257340
  51.6130460  49.8149310  66.7247540  52.3206910  67.1960850  64.1991430
  51.7267230  67.0645550  64.9381470  52.3130750  66.3598990  63.7333530
  61.7661930  50.4893080  62.4021460  60.8921770  50.8228190  62.1994390
  61.6572680  50.0166260  63.2273330  51.9519140  64.5619230  63.1499470
  51.2253200  63.9424520  63.0825420  52.0128290  64.9559840  62.2797550
  55.5564240  66.7764230  59.9348880  56.0729260  66.1651590  59.4097140
  56.2061620  67.2793010  60.4259890  59.5136750  51.4062920  61.3414370
  58.7308540  51.8808420  61.6211130  59.2199680  50.5017750  61.2327550
  51.8411840  66.5726850  53.8046370  51.3159460  66.9534880  53.1008330
  51.7656420  67.1977620  54.5256080  54.4404810  68.5209230  52.6795620
  55.1723630  68.2368510  52.1319510  54.6998480  68.2822510  53.5695000
  53.6019600  64.6373960  52.6841950  52.9728480  65.1059060  53.2327780
  53.7167430  63.7923180  53.1188140  62.1511170  50.6687150  68.4708410
  62.0376620  50.9881760  69.3659930  62.9680910  51.0699660  68.1745690
  61.0569320  58.6879620  38.8343150  60.9763370  57.7734230  38.5634860
  60.6433740  59.1846690  38.1282860  59.1887360  60.4658640  40.7152420
  58.4129460  59.9859080  41.0050990  59.8400290  59.7864290  40.5408580
  53.2053190  60.7778450  41.5928180  52.3738070  60.5227160  41.9924690
  53.8134170  60.8489220  42.3286100  63.2094790  64.8718830  39.4951550
  62.7476320  64.1006070  39.8238720  64.0220340  64.8984900  40.0004000
  53.1854450  64.8118540  41.7886200  53.4882490  63.9216280  41.6096420
  53.9298040  65.3688760  41.5608450  58.6296350  63.1415830  40.7222580
  58.5604630  62.2005770  40.5611710  59.3916210  63.2317240  41.2945150
  63.4425640  53.4436650  37.8819850  64.2635260  52.9533220  37.9245330
  63.4759720  54.0334310  38.6351690  55.6314260  57.2898210  40.7434130
  56.1392480  57.7879180  41.3839150  56.1627500  56.5133410  40.5673490
  55.1653210  61.5691950  43.1871050  54.8322590  62.1960870  43.8292120
  55.3419890  62.0953830  42.4072720  53.5965690  53.6406730  43.0168000
  53.9382500  54.4848780  42.7221870  52.6581500  53.7890470  43.1333340
  54.3772310  63.5372750  45.0020230  54.9946310  64.2123830  44.7204680
  53.5165430  63.9460730  44.9107730  49.6704650  62.7272610  33.8827080
  49.2932630  63.2159710  33.1511980  49.9277720  63.3997890  34.5133610
  65.2949900  65.0012160  42.9174870  64.6113420  65.6711270  42.9091540
  65.8344190  65.1992810  42.1519730  66.7474040  54.8291820  41.0456600
  65.7998950  54.8630800  41.1772030  67.0724030  55.6430770  41.4305960
  57.2793580  51.1289000  39.3412590  57.5868560  50.5735890  38.6248090
  56.3494280  51.2633460  39.1585580  62.8308640  66.8456290  41.6320050
  62.8435800  66.4418580  40.7642310  62.2783860  67.6203580  41.5281480
  62.2294080  61.7486130  42.9602660  62.6462870  61.5346240  42.1256120
  62.9533900  62.0058920  43.5311280  66.1756180  60.1473350  43.0518900
  65.3474810  60.2166440  42.5769030  66.7706660  60.7327660  42.5834730
  63.1398190  56.9342670  43.9973770  62.7269370  57.7596380  44.2513760
  62.4074140  56.3487710  43.8050130  55.7412680  63.4070130  41.0231650
  55.4440970  62.8015600  40.3439430  56.6912500  63.4447440  40.9121010
  53.9859600  56.4945780  42.6391480  54.5374190  56.6041120  41.8644730
  54.5003110  56.8683380  43.3546710  63.8298290  66.9802000  44.6854750
  63.3528850  67.7874190  44.4927360  63.1460080  66.3280330  44.8380960
  55.4582680  65.9586840  48.4581970  55.4298110  66.3629790  47.5910400
  55.2947650  65.0297200  48.2953570  66.8130750  63.9326790  46.9146150
  66.9393810  63.6938670  45.9963330  66.8552130  63.1011330  47.3868230
  60.6747490  67.6354790  45.4840960  61.1892160  67.5462800  46.2863390
  59.8316570  67.9814490  45.7768870  66.6654760  55.9859250  47.8795890
  66.0499030  56.4938920  47.3511350  66.3451180  55.0857580  47.8221830
  54.4399270  51.9582620  39.7422760  53.9967420  52.7392160  39.4107280
  54.9984260  52.2812510  40.4493700  63.7273590  56.0460090  46.4754740
  62.8767180  55.7465840  46.7963810  63.5675380  56.2902100  45.5638560
  60.8223300  57.5461840  48.5753530  61.1476710  56.7125590  48.2355760
  61.6103630  58.0690360  48.7231860  57.5558090  51.5793320  34.6228590
  56.9312270  51.5753190  35.3481900  57.4688210  50.7124280  34.2264560
  51.8023240  54.3915440  46.2898060  51.4086630  55.2390650  46.4970840
  51.1141640  53.7541810  46.4806700  58.3768290  54.4750410  49.3594800
  57.6866610  54.2822610  49.9940890  59.1200590  54.7585050  49.8919100
  49.2910520  56.2564020  31.5330860  49.2085190  57.1994780  31.6745850
  48.9393580  56.1138930  30.6543210  60.6531260  58.3148850  42.1948720
  59.9212380  58.8235660  42.5438820  60.2555600  57.4978830  41.8937500
  57.0908650  54.9903050  40.6001210  57.0944710  54.5493000  39.7505750
  57.9859770  55.3120380  40.7073030  51.2419480  62.2028290  46.8658000
  50.8574270  61.5621960  47.4640960  51.5531670  62.9064410  47.4352730
  57.3916620  59.0504830  42.3466620  57.7586750  58.5763400  43.0927960
  57.2021680  59.9246400  42.6874960  55.1815990  58.0913470  44.6650830
  54.8773060  58.9705450  44.8901190  56.1362450  58.1513260  44.7008270
  64.4685760  61.2939820  41.0544070  65.1884880  61.7895110  40.6640180
  64.2667580  60.6157710  40.4097940  59.8504560  61.3648880  46.9413070
  59.7841870  60.4444550  46.6870660  59.2209700  61.4624320  47.6557710
  53.7535180  61.9654840  38.8996490  54.2713850  61.1623100  38.8453380
  53.3019200  61.9033980  39.7413320  51.2379720  58.9316210  45.8122190
  50.8794660  59.5970060  46.3995530  50.9434280  58.0999760  46.1834810
  59.7821290  64.1869450  46.6916870  59.7965830  63.2550410  46.4735780
  59.0746390  64.2729210  47.3306640  65.9932500  60.8276790  46.0385450
  65.2680690  61.4205570  45.8414840  66.5207960  60.8200330  45.2398820
  61.5232090  62.5536960  39.5369300  61.8755910  61.9565090  38.8770670
  60.6394420  62.2281190  39.7077550  49.7487770  58.9307470  32.4356790
  50.6182620  59.2132270  32.7192710  49.2578090  59.7443340  32.3205600
  59.2155190  65.8287020  43.7857370  59.8597410  66.0346400  44.4630790
  59.5784630  65.0675420  43.3328220  52.8134360  50.6618330  37.0287590
  52.6848990  50.6536230  37.9772510  51.9896380  51.0001420  36.6778600
  60.4887270  63.8319370  42.5034820  61.1309500  63.1312530  42.6166990
  61.0136620  64.6117810  42.3231710  62.2624890  64.6314270  45.7070880
  62.5981130  65.2180960  46.3848800  61.3425230  64.5006980  45.9368670
  50.1159020  68.1434850  33.0018420  50.4756660  68.7424190  32.3475690
  49.9751360  68.6894740  33.7753450  58.0913470  64.6805600  48.8758940
  57.7710340  63.9614840  49.4204630  57.4171830  65.3560670  48.9495000
  64.6729100  53.8688700  35.0483300  64.0442260  53.9734370  34.3341530
  64.1781020  54.0885480  35.8377180  58.2669060  57.5671350  44.4633710
  58.7654310  58.0417170  45.1285560  58.4092010  56.6434870  44.6703740
  60.6728560  52.8725310  37.9036970  60.5496340  52.8911440  36.9546480
  61.6213120  52.9204250  38.0235370  63.7657930  59.0272490  38.7523460
  62.8248070  59.0422720  38.9271150  64.0802000  58.2408450  39.1983760
  52.4386330  58.1417160  32.9960310  52.5189920  57.1944670  33.1077710
  53.3306080  58.4724040  33.1020970  53.2401040  68.2912550  40.0994850
  53.9763520  67.7428010  40.3703420  53.6241960  69.1568560  39.9600840
  50.1246520  64.3586120  35.9736360  49.1986300  64.6007260  35.9641770
  50.5902950  65.1860380  35.8521110  52.2459320  67.4758620  49.2880430
  53.0472050  67.7970670  49.7015830  51.7311140  67.1154200  50.0100340
  61.0823950  63.5838490  49.2355840  60.4762110  63.6070090  48.4951590
  60.7778060  62.8521530  49.7723090  62.5124320  67.3118780  47.8465250
  63.4646070  67.2276800  47.7965490  62.3652540  67.9760490  48.5199040
  64.1618420  63.1008400  48.3227020  64.9027890  63.4384160  47.8194480
  63.3991100  63.2700460  47.7696790  62.8364080  61.1523230  46.8582230
  63.2505100  61.3068310  47.7072650  61.9015080  61.2778450  47.0208010
  63.3086250  58.4919390  48.8621380  63.8907020  57.7371710  48.7741860
  63.4848020  59.0226830  48.0852860  54.4258320  53.6516140  47.1738330
  54.3315190  53.0336890  46.4489200  53.8455710  54.3782430  46.9468240
  57.5979310  61.1043710  44.8278160  58.0167420  61.9476440  44.6554400
  56.6787940  61.2415750  44.5984940  59.9343210  58.8359890  46.2116000
  60.0539420  58.2401030  46.9510840  60.7937210  58.8729580  45.7917300
  62.2731110  59.3897080  44.7878510  61.7466330  59.9139700  44.1843650
  62.6162450  60.0224470  45.4188240  55.4486730  67.4096720  45.9435890
  54.9107820  68.1342780  45.6244590  55.7020690  66.9327060  45.1533230
  61.5205410  54.9947050  47.7024840  60.8320930  54.3328590  47.6374830
  62.2411430  54.5485320  48.1473300  62.1505810  51.5898680  33.7615100
  62.4308100  50.7466580  34.1174520  61.3771540  51.8221790  34.2753850
  58.3048940  68.6447930  46.2022540  58.2307640  69.5483070  46.5094910
  57.4027780  68.3259830  46.1744610  65.8328620  66.3410110  46.5315100
  65.2330610  66.4002670  45.7879020  65.9622520  65.4015090  46.6611950
  67.5346500  61.6825510  39.2160940  67.9055330  60.8992830  38.8096910
  68.1748430  62.3714610  39.0378240  64.5180260  63.0662090  44.6291260
  63.7040100  63.4959250  44.8917050  64.9254460  63.6780500  44.0160310
  66.4771040  59.0578770  36.5220960  66.1014640  58.2906700  36.0902250
  65.7474160  59.4401470  37.0095890  51.0666800  59.7365910  43.1430010
  51.4339840  59.6493310  44.0226030  50.4977620  58.9732460  43.0436870
  65.8670660  58.2050290  46.1560480  65.6356750  57.9763040  45.2558430
  66.1275210  59.1249840  46.1105370  50.6182800  56.6475000  47.0488430
  49.7238850  56.6141760  47.3882140  51.1580350  56.8461790  47.8139680
  64.3058730  53.4306720  48.9340180  65.1828910  53.4390120  49.3174180
  64.3179570  52.6937560  48.3232530  65.7522000  57.2836260  39.8228200
  66.2759480  56.7898910  39.1918370  66.3381420  57.4186620  40.5675770
  65.9311720  57.3676130  43.3447750  64.9814430  57.3339670  43.4592740
  66.1124730  58.2776240  43.1097520  65.2421970  56.5409610  35.7620610
  65.7381090  56.3080480  36.5469490  65.0438040  55.7021450  35.3458250
  52.4818880  64.2498600  48.3050160  52.4388510  63.8791510  49.1864620
  52.6129890  65.1876170  48.4451980  56.1824910  65.8058190  43.9059880
  55.9416270  66.0732750  43.0190400  57.1227550  65.9763920  43.9610740
  67.4429070  67.8252570  44.7070520  66.9487350  68.2221440  43.9897650
  66.8342360  67.2001780  45.1007800  55.5564240  66.7764230  41.1605390
  56.0729260  66.1651590  40.6353650  56.2061620  67.2793010  41.6516400
  58.2959740  67.6672720  41.9874370  58.5837550  67.4127020  41.1107380
  58.8082960  67.1150080  42.5779940  65.9296390  51.7401260  38.6228790
  65.8684790  50.7962480  38.4759810  66.7088420  51.8481350  39.1682250
  50.8577160  51.7110400  35.0884600  51.6156520  51.8239280  34.5148630
  50.3954330  52.5479600  35.0428030  57.3990970  53.8249670  38.0786910
  56.5865480  53.4506560  37.7382790  57.9032610  53.0694750  38.3808100
  61.9015950  50.4892120  39.3169980  62.5045320  51.0612330  39.7918500
  61.1608940  51.0531560  39.0943880  51.8411840  66.5726850  35.0302880
  51.3159460  66.9534880  34.3264840  51.7656420  67.1977620  35.7512590
  53.2302310  52.2374450  33.6286570  53.7595070  51.4504250  33.4994520
  53.8630630  52.9165640  33.8622100  55.4240150  51.9749590  36.6831960
  54.7942890  51.2736900  36.8502090  54.8845290  52.7353720  36.4665120
  58.3632100  68.5888820  49.3542570  59.2899410  68.3533090  49.3978530
  58.3482530  69.4160820  48.8728600  62.1511170  50.6687150  49.6964920
  62.0376620  50.9881760  50.5916440  62.9680910  51.0699660  49.4002200
  64.9309660  67.8158680  49.1783610  65.7234980  67.3207910  48.9709570
  65.2242810  68.4948820  49.7859220  61.0569320  58.6879620  20.0599660
  60.9763370  57.7734230  19.7891370  60.6433740  59.1846690  19.3539370
  51.6145140  55.7380340  16.6027080  50.7261840  56.0796310  16.5006960
  51.8986330  55.5380660  15.7107910  49.5778150  58.3385990  22.4866780
  50.1494260  57.5708190  22.4870420  49.5779690  58.6374750  21.5773390
  59.4358100  67.1576840  20.3412050  58.8169540  67.6134340  19.7706490
  60.2909880  67.3128300  19.9401750  53.7906530  54.3211840  17.6365460
  53.8973280  55.2215570  17.9434220  52.8798890  54.2729810  17.3460110
  63.4425640  53.4436650  19.1076360  64.2635260  52.9533220  19.1501840
  63.4759720  54.0334310  19.8608200  60.3021450  62.0416080  17.7343960
  59.6838720  62.5065530  17.1706680  60.8144700  62.7343560  18.1513470
  49.6704650  62.7272610  15.1083590  49.2932630  63.2159710  14.3768490
  49.9277720  63.3997890  15.7390120  57.2793580  51.1289000  20.5669100
  57.5868560  50.5735890  19.8504600  56.3494280  51.2633460  20.3842090
  64.1254060  63.5672510  17.9466730  64.0150390  62.6246840  18.0716150
  64.1222310  63.9288150  18.8329490  62.2294080  61.7486130  24.1859170
  62.6462870  61.5346240  23.3512630  62.9533900  62.0058920  24.7567790
  59.6674340  59.1937830  17.3029220  58.7403620  59.1275210  17.5317690
  59.8199160  60.1317960  17.1884460  59.6543420  55.4654830  14.2996380
  58.7147090  55.6268790  14.3848840  59.9726680  56.1840510  13.7532370
  63.6971630  60.7558130  17.8064470  63.0784050  60.4177680  17.1590770
  63.6796080  60.1117890  18.5143660  61.8736330  59.9944940  14.8137220
  62.3129610  59.1567370  14.6675040  62.5864750  60.6274340  14.9001360
  59.9831710  64.9341010  18.7818460  60.4227620  65.6765340  18.3673850
  59.9218600  65.1767580  19.7057420  65.4553470  51.2487750  13.1278260
  65.1426130  51.3414580  14.0277330  66.2165940  51.8268780  13.0775690
  51.9735610  58.6147550  17.5855600  51.8533210  59.3409640  16.9736870
  51.6636500  57.8450460  17.1083510  49.6120980  61.7862690  23.3924240
  49.6901400  61.9211460  22.4479960  50.2262660  61.0778580  23.5852360
  62.6501890  67.9210130  16.1381470  62.4903030  67.6313070  17.0363300
  62.4848600  67.1450260  15.6026700  55.1290270  67.7008660  17.9153090
  54.9532750  66.7844200  17.7020890  54.2746010  68.0595950  18.1550890
  62.3528020  65.4297690  14.6979470  61.6593180  65.4274980  14.0381750
  63.0950880  65.0057010  14.2673640  61.9177950  67.0560400  18.7727960
  62.3734900  66.2749780  19.0866580  62.2570470  67.7667220  19.3169140
  54.4399270  51.9582620  20.9679270  53.9967420  52.7392160  20.6363790
  54.9984260  52.2812510  21.6750210  58.7269080  54.8251140  26.5714590
  58.2648450  55.0334160  27.3834530  58.3247190  54.0110490  26.2685260
  57.5558090  51.5793320  15.8485100  56.9312270  51.5753190  16.5738410
  57.4688210  50.7124280  15.4521070  54.2313490  57.0816190  18.6960520
  54.0054410  56.8653360  19.6007140  53.4506020  57.5144650  18.3506490
  61.4611250  57.0879560  17.2951170  60.8620140  57.8115360  17.1114790
  62.0090860  57.0256340  16.5127620  60.0676120  55.7243100  19.3254450
  60.4605690  56.0415300  18.5123140  60.4292970  54.8454980  19.4398970
  49.1040290  52.3143900  21.5484650  48.8153340  52.8846760  22.2609630
  49.8486050  51.8348350  21.9115880  49.2910520  56.2564020  12.7587370
  49.2085190  57.1994780  12.9002360  48.9393580  56.1138930  11.8799720
  52.9411030  54.8729540  20.7851930  52.6011080  55.3504770  21.5418980
  52.1788350  54.4194660  20.4253030  57.1528800  55.9915130  14.8164480
  57.2741620  55.9501610  15.7650300  56.7677310  56.8539280  14.6611210
  56.1650300  58.3016270  14.2147780  55.5967200  57.8534520  13.5883690
  56.8739300  58.6609050  13.6812930  50.2557110  53.7948520  19.7016600
  49.9704030  53.4304190  20.5395220  50.1935970  53.0628980  19.0879740
  64.4685760  61.2939820  22.2800580  65.1884880  61.7895110  21.8896690
  64.2667580  60.6157710  21.6354450  59.9295700  52.6877780  16.4229970
  59.1160310  52.1890950  16.3475280  59.7357650  53.5276030  16.0066320
  62.6444090  57.0597430  14.7192130  63.5323710  57.3714660  14.5443470
  62.6149180  56.1869680  14.3272710  58.6404680  63.2321120  15.3980300
  58.9820380  63.9763350  14.9023620  57.8117390  63.5452240  15.7605130
  51.2379720  58.9316210  27.0378700  50.8794660  59.5970060  27.6252040
  50.9434280  58.0999760  27.4091320  64.9158360  58.3709270  14.1871990
  64.8322080  58.8023490  13.3368430  65.6352550  58.8307620  14.6198810
  65.9445610  65.2251530  16.9154120  65.3021770  64.5707150  17.1897840
  65.5576270  65.6306620  16.1394790  61.5232090  62.5536960  20.7625810
  61.8755910  61.9565090  20.1027180  60.6394420  62.2281190  20.9334060
  49.7487770  58.9307470  13.6613300  50.6182620  59.2132270  13.9449220
  49.2578090  59.7443340  13.5462110  56.9122580  60.3180680  17.7821580
  57.3685360  61.1285930  18.0081770  56.5610790  60.0003820  18.6140070
  52.8134360  50.6618330  18.2544100  52.6848990  50.6536230  19.2029020
  51.9896380  51.0001420  17.9035110  64.3342990  64.1167990  13.4530470
  64.1080570  63.3998430  14.0455110  63.9439190  63.8680430  12.6152220
  50.1159020  68.1434850  14.2274930  50.4756660  68.7424190  13.5732200
  49.9751360  68.6894740  15.0009960  63.9159240  62.0339930  15.1144630
  63.6280940  62.4952620  15.9022510  64.7111410  61.5737700  15.3828850
  56.1327640  65.5266050  15.0448600  56.1237740  66.2595740  14.4293110
  55.2126000  65.2797630  15.1375560  51.7334280  60.7480940  15.7895360
  51.1262230  61.4879840  15.7990660  52.2083630  60.8380300  14.9633560
  64.6729100  53.8688700  16.2739810  64.0442260  53.9734370  15.5598040
  64.1781020  54.0885480  17.0633690  59.1187240  65.5894290  13.7073790
  59.2199220  65.3858280  12.7775770  58.2188980  65.3352570  13.9121570
  56.6413130  56.1474650  17.6897690  55.9329280  56.6160990  18.1311300
  56.9257610  55.4896660  18.3242880  60.6728560  52.8725310  19.1293480
  60.5496340  52.8911440  18.1802990  61.6213120  52.9204250  19.2491880
  57.7605350  68.1080610  18.4021460  58.0146850  68.0702000  17.4800830
  56.8117830  67.9813940  18.3949710  54.8448150  54.4559730  15.0648400
  55.6938680  54.8929880  14.9988590  54.4779420  54.7679990  15.8920460
  63.7657930  59.0272490  19.9779970  62.8248070  59.0422720  20.1527660
  64.0802000  58.2408450  20.4240270  53.7439570  60.7092090  13.5383930
  54.5102840  60.5973450  14.1009360  53.8214260  60.0130060  12.8860700
  52.4386330  58.1417160  14.2216820  52.5189920  57.1944670  14.3334220
  53.3306080  58.4724040  14.3277480  50.1246520  64.3586120  17.1992870
  49.1986300  64.6007260  17.1898280  50.5902950  65.1860380  17.0777620
  56.3503350  67.4642860  13.1476930  57.1431960  67.7531690  12.6958720
  55.8307700  67.0335030  12.4689410  65.4033520  66.6912990  14.5713670
  65.1175030  66.2778130  13.7567850  65.2053070  67.6200700  14.4514190
  49.9657130  59.9632080  29.4572990  50.4696150  59.3839360  30.0289220
  49.2264550  60.2472310  29.9949360  56.8680750  62.6846270  13.0119280
  56.7631390  62.0698620  13.7380660  56.7004970  62.1612160  12.2282290
  60.1083480  61.7466300  13.6161270  59.5593580  62.1935600  14.2604010
  60.7302740  61.2415550  14.1398940  55.7758600  60.7057220  15.5126570
  56.1975020  60.5397090  16.3557960  55.9009440  59.8957450  15.0181710
  58.2886240  59.7294830  12.7603670  58.8091900  59.0143850  12.3944820
  58.9354640  60.3680700  13.0604180  54.6717500  56.7790450  12.4584730
  54.4706560  55.9157810  12.8198070  54.5009550  56.6923810  11.5206330
  62.1505810  51.5898680  14.9871610  62.4308100  50.7466580  15.3431030
  61.3771540  51.8221790  15.5010360  53.4700300  53.8791070  12.4462610
  53.7726200  53.8858500  11.5381760  54.2094890  53.5288930  12.9430270
  56.6885230  52.8225690  13.4318810  56.3407230  52.1449680  12.8521260
  56.8898000  52.3615200  14.2462200  58.8534270  67.8106440  15.0505410
  59.7485060  68.1491410  15.0724170  58.8851900  67.0885850  14.4229690
  52.4930430  63.1833490  13.2792410  52.9305300  63.7263160  13.9349990
  52.9778160  62.3580440  13.2888750  67.0730070  64.0827930  13.0941320
  66.2423030  64.1504580  13.5648550  67.2501900  64.9732050  12.7908180
  66.5286530  60.8275410  15.5975520  67.2905440  61.3972060  15.7035210
  66.5440900  60.2602610  16.3683830  50.0290870  59.3513340  19.8283180
  49.3739710  59.0824980  19.1842880  50.8668820  59.2417820  19.3785160
  66.5805700  61.1209780  12.7548040  66.8554540  62.0288660  12.6267260
  66.3916440  61.0572310  13.6910030  62.9781310  54.1454630  14.0501670
  63.3966190  53.9585610  13.2098330  62.6717370  53.2933680  14.3604600
  66.4771040  59.0578770  17.7477470  66.1014640  58.2906700  17.3158760
  65.7474160  59.4401470  18.2352400  51.0666800  59.7365910  24.3686520
  51.4339840  59.6493310  25.2482540  50.4977620  58.9732460  24.2693380
  50.6182800  56.6475000  28.2744940  49.7238850  56.6141760  28.6138650
  51.1580350  56.8461790  29.0396190  49.2428950  56.5612270  15.7708510
  48.3393030  56.8242470  15.5960170  49.7269570  56.8323440  14.9908470
  65.7522000  57.2836260  21.0484710  66.2759480  56.7898910  20.4174880
  66.3381420  57.4186620  21.7932280  51.7856160  55.6177810  13.6802890
  52.4947860  55.1961030  13.1950170  51.0696100  55.6853040  13.0486240
  51.4330320  51.6717140  12.7205540  52.1558450  52.2126080  13.0386760
  51.7054840  51.3980560  11.8447080  65.2421970  56.5409610  16.9877120
  65.7381090  56.3080480  17.7726000  65.0438040  55.7021450  16.5714760
  66.6709130  55.1770560  19.5214800  66.5608410  55.0226600  20.4597070
  67.4316720  54.6491500  19.2790210  67.5599400  53.0078480  12.7620940
  68.4848710  52.8759660  12.5539230  67.5375190  53.0871300  13.7157390
  67.6337890  53.7789140  15.3877650  66.8389390  53.7134260  15.9170560
  67.8381170  54.7139780  15.3763000  58.3879330  52.2690880  28.8872900
  58.3268220  52.8612710  29.6368310  59.3279710  52.1616840  28.7423160
  59.5136750  51.4062920  23.7927390  58.7308540  51.8808420  24.0724150
  59.2199680  50.5017750  23.6840570  65.9296390  51.7401260  19.8485300
  65.8684790  50.7962480  19.7016320  66.7088420  51.8481350  20.3938760
  50.8577160  51.7110400  16.3141110  51.6156520  51.8239280  15.7405140
  50.3954330  52.5479600  16.2684540  57.3990970  53.8249670  19.3043420
  56.5865480  53.4506560  18.9639300  57.9032610  53.0694750  19.6064610
  61.9015950  50.4892120  20.5426490  62.5045320  51.0612330  21.0175010
  61.1608940  51.0531560  20.3200390  65.0450550  50.8913680  15.8166770
  65.2401180  51.7897130  16.0834200  64.2580420  50.6600760  16.3099720
  51.8411840  66.5726850  16.2559390  51.3159460  66.9534880  15.5521350
  51.7656420  67.1977620  16.9769100  53.2302310  52.2374450  14.8543080
  53.7595070  51.4504250  14.7251030  53.8630630  52.9165640  15.0878610
  55.4240150  51.9749590  17.9088470  54.7942890  51.2736900  18.0758600
  54.8845290  52.7353720  17.6921630  54.4404810  68.5209230  15.1308640
  55.1723630  68.2368510  14.5832530  54.6998480  68.2822510  16.0208020
  53.6019600  64.6373960  15.1354970  52.9728480  65.1059060  15.6840800
  53.7167430  63.7923180  15.5701160  62.1511170  50.6687150  30.9221430
  62.0376620  50.9881760  31.8172950  62.9680910  51.0699660  30.6258710
  59.1887360  60.4658640   3.1665440  58.4129460  59.9859080   3.4564010
  59.8400290  59.7864290   2.9921600  53.2053190  60.7778450   4.0441200
  52.3738070  60.5227160   4.4437710  53.8134170  60.8489220   4.7799120
  63.2094790  64.8718830   1.9464570  62.7476320  64.1006070   2.2751740
  64.0220340  64.8984900   2.4517020  53.1854450  64.8118540   4.2399220
  53.4882490  63.9216280   4.0609440  53.9298040  65.3688760   4.0121470
  49.5778150  58.3385990   3.7123290  50.1494260  57.5708190   3.7126930
  49.5779690  58.6374750   2.8029900  58.6296350  63.1415830   3.1735600
  58.5604630  62.2005770   3.0124730  59.3916210  63.2317240   3.7458170
  50.8203020  53.7470350   5.4992220  50.6405860  52.8496100   5.7794980
  50.4183100  54.2942220   6.1739170  59.6601520  55.9486210   3.4004530
  60.0366340  55.0758090   3.2878200  59.5621030  56.2844910   2.5094970
  51.4389690  56.2430850   4.1074560  52.1199800  56.5069220   4.7261960
  51.1237740  55.4031720   4.4412570  55.6314260  57.2898210   3.1947150
  56.1392480  57.7879180   3.8352170  56.1627500  56.5133410   3.0186510
  67.7325190  55.4603400   6.8976500  67.0277360  55.8485110   6.3791610
  67.9983110  56.1553690   7.4997430  53.9150360  51.9296770   7.4610570
  53.9168800  52.4469160   6.6556470  53.0854670  51.4526950   7.4380500
  55.1653210  61.5691950   5.6384070  54.8322590  62.1960870   6.2805140
  55.3419890  62.0953830   4.8585740  63.6787120  55.3837030   3.1060410
  62.9742690  55.6721920   3.6863520  64.0399280  56.1937140   2.7459970
  53.5965690  53.6406730   5.4681020  53.9382500  54.4848780   5.1734890
  52.6581500  53.7890470   5.5846360  54.3772310  63.5372750   7.4533250
  54.9946310  64.2123830   7.1717700  53.5165430  63.9460730   7.3620750
  65.2949900  65.0012160   5.3687890  64.6113420  65.6711270   5.3604560
  65.8344190  65.1992810   4.6032750  66.7474040  54.8291820   3.4969620
  65.7998950  54.8630800   3.6285050  67.0724030  55.6430770   3.8818980
  62.8308640  66.8456290   4.0833070  62.8435800  66.4418580   3.2155330
  62.2783860  67.6203580   3.9794500  62.2294080  61.7486130   5.4115680
  62.6462870  61.5346240   4.5769140  62.9533900  62.0058920   5.9824300
  66.1756180  60.1473350   5.5031920  65.3474810  60.2166440   5.0282050
  66.7706660  60.7327660   5.0347750  63.1398190  56.9342670   6.4486790
  62.7269370  57.7596380   6.7026780  62.4074140  56.3487710   6.2563150
  55.7412680  63.4070130   3.4744670  55.4440970  62.8015600   2.7952450
  56.6912500  63.4447440   3.3634030  53.9859600  56.4945780   5.0904500
  54.5374190  56.6041120   4.3157750  54.5003110  56.8683380   5.8059730
  63.8298290  66.9802000   7.1367770  63.3528850  67.7874190   6.9440380
  63.1460080  66.3280330   7.2893980  54.8331110  63.1451820  10.1252470
  53.9359640  63.3691790  10.3725870  54.8583980  63.2686760   9.1763870
  53.6602330  60.0165140   8.7009840  53.5210100  60.8887940   9.0697240
  52.7783690  59.6737950   8.5557780  55.4582680  65.9586840  10.9094990
  55.4298110  66.3629790  10.0423420  55.2947650  65.0297200  10.7466590
  67.4097500  66.7413940  12.2059160  67.8857220  67.2196830  12.8848240
  68.0304660  66.6731430  11.4804660  49.6120980  61.7862690   4.6180750
  49.6901400  61.9211460   3.6736470  50.2262660  61.0778580   4.8108870
  66.8130750  63.9326790   9.3659170  66.9393810  63.6938670   8.4476350
  66.8552130  63.1011330   9.8381250  60.6747490  67.6354790   7.9353980
  61.1892160  67.5462800   8.7376410  59.8316570  67.9814490   8.2281890
  66.6654760  55.9859250  10.3308910  66.0499030  56.4938920   9.8024370
  66.3451180  55.0857580  10.2734850  49.6680500  62.8276860   7.1575210
  49.8311540  62.3582220   6.3394580  50.1332950  62.3200420   7.8224050
  54.4399270  51.9582620   2.1935780  53.9967420  52.7392160   1.8620300
  54.9984260  52.2812510   2.9006720  58.7269080  54.8251140   7.7971100
  58.2648450  55.0334160   8.6091040  58.3247190  54.0110490   7.4941770
  63.7273590  56.0460090   8.9267760  62.8767180  55.7465840   9.2476830
  63.5675380  56.2902100   8.0151580  60.8223300  57.5461840  11.0266550
  61.1476710  56.7125590  10.6868780  61.6103630  58.0690360  11.1744880
  56.4775170  52.5029950   4.0525380  56.7747500  53.4092780   3.9717400
  57.0260730  52.0148730   3.4384950  56.6712700  57.9801770  10.5877300
  56.5756300  57.0396500  10.4377700  57.5144680  58.2016840  10.1925370
  51.8023240  54.3915440   8.7411080  51.4086630  55.2390650   8.9483860
  51.1141640  53.7541810   8.9319720  58.3768290  54.4750410  11.8107820
  57.6866610  54.2822610  12.4453910  59.1200590  54.7585050  12.3432120
  49.1040290  52.3143900   2.7741160  48.8153340  52.8846760   3.4866140
  49.8486050  51.8348350   3.1372390  60.6531260  58.3148850   4.6461740
  59.9212380  58.8235660   4.9951840  60.2555600  57.4978830   4.3450520
  57.0908650  54.9903050   3.0514230  57.0944710  54.5493000   2.2018770
  57.9859770  55.3120380   3.1586050  52.9411030  54.8729540   2.0108440
  52.6011080  55.3504770   2.7675490  52.1788350  54.4194660   1.6509540
  61.1157170  53.7682530   4.0584680  61.1329910  54.2191180   4.9026530
  60.8672750  52.8688170   4.2718120  64.5427920  51.1814710   9.8971060
  64.8673690  50.4504370  10.4229040  64.5784430  50.8628350   8.9952050
  51.2419480  62.2028290   9.3171020  50.8574270  61.5621960   9.9153980
  51.5531670  62.9064410   9.8865750  57.3916620  59.0504830   4.7979640
  57.7586750  58.5763400   5.5440980  57.2021680  59.9246400   5.1387980
  55.1815990  58.0913470   7.1163850  54.8773060  58.9705450   7.3414210
  56.1362450  58.1513260   7.1521290  64.4685760  61.2939820   3.5057090
  65.1884880  61.7895110   3.1153200  64.2667580  60.6157710   2.8610960
  59.8504560  61.3648880   9.3926090  59.7841870  60.4444550   9.1383680
  59.2209700  61.4624320  10.1070730  51.2379720  58.9316210   8.2635210
  50.8794660  59.5970060   8.8508550  50.9434280  58.0999760   8.6347830
  54.4392840  59.3900450  11.1474760  54.1392980  59.5357630  10.2502580
  55.2104080  58.8305740  11.0548150  59.7821290  64.1869450   9.1429890
  59.7965830  63.2550410   8.9248800  59.0746390  64.2729210   9.7819660
  65.9932500  60.8276790   8.4898470  65.2680690  61.4205570   8.2927860
  66.5207960  60.8200330   7.6911840  59.2155190  65.8287020   6.2370390
  59.8597410  66.0346400   6.9143810  59.5784630  65.0675420   5.7841240
  60.4887270  63.8319370   4.9547840  61.1309500  63.1312530   5.0680010
  61.0136620  64.6117810   4.7744730  62.2624890  64.6314270   8.1583900
  62.5981130  65.2180960   8.8361820  61.3425230  64.5006980   8.3881690
  49.8128290  52.4209450   8.9407310  49.0986810  52.6206370   9.5459920
  50.2323330  51.6449020   9.3122110  50.1000880  66.4089710   9.9273840
  50.2092000  65.4684450   9.7869230  49.4481440  66.6744460   9.2787570
  58.0913470  64.6805600  11.3271960  57.7710340  63.9614840  11.8717650
  57.4171830  65.3560670  11.4008020  61.3067070  54.9131760   6.6908760
  61.6747890  54.0926970   7.0188330  60.4465270  54.9733650   7.1064410
  58.2669060  57.5671350   6.9146730  58.7654310  58.0417170   7.5798580
  58.4092010  56.6434870   7.1216760  65.4735920  53.7839310   7.7575120
  64.9709520  54.5244710   8.0968930  66.2892580  54.1723310   7.4411910
  65.7683510  66.1981340   2.8790740  65.8930930  67.0212510   3.3514550
  66.6349070  65.9872070   2.5314890  53.2401040  68.2912550   2.5507870
  53.9763520  67.7428010   2.8216440  53.6241960  69.1568560   2.4113860
  52.2459320  67.4758620  11.7393450  53.0472050  67.7970670  12.1528850
  51.7311140  67.1154200  12.4613360  61.0823950  63.5838490  11.6868860
  60.4762110  63.6070090  10.9464610  60.7778060  62.8521530  12.2236110
  62.5124320  67.3118780  10.2978270  63.4646070  67.2276800  10.2478510
  62.3652540  67.9760490  10.9712060  49.9657130  59.9632080  10.6829500
  50.4696150  59.3839360  11.2545730  49.2264550  60.2472310  11.2205870
  57.0195070  61.3703070  10.2165020  56.2540740  61.9388070  10.1319690
  57.2011030  61.0779280   9.3233250  64.1618420  63.1008400  10.7740040
  64.9027890  63.4384160  10.2707500  63.3991100  63.2700460  10.2209810
  51.9980210  58.1061670  11.5779570  52.0385550  57.8075540  12.4864800
  52.8525710  58.5069280  11.4187090  53.9386020  56.6853770   9.5454060
  53.4082480  56.1944720   8.9177400  54.6074090  57.1137970   9.0111990
  62.8364080  61.1523230   9.3095250  63.2505100  61.3068310  10.1585670
  61.9015080  61.2778450   9.4721030  63.3086250  58.4919390  11.3134400
  63.8907020  57.7371710  11.2254880  63.4848020  59.0226830  10.5365880
  54.4258320  53.6516140   9.6251350  54.3315190  53.0336890   8.9002220
  53.8455710  54.3782430   9.3981260  57.1919760  52.2089380   6.6578740
  56.7437060  52.2313640   5.8124290  56.5584960  51.8108400   7.2549040
  57.5979310  61.1043710   7.2791180  58.0167420  61.9476440   7.1067420
  56.6787940  61.2415750   7.0497960  59.9343210  58.8359890   8.6629020
  60.0539420  58.2401030   9.4023860  60.7937210  58.8729580   8.2430320
  62.2731110  59.3897080   7.2391530  61.7466330  59.9139700   6.6356670
  62.6162450  60.0224470   7.8701260  55.4486730  67.4096720   8.3948910
  54.9107820  68.1342780   8.0757610  55.7020690  66.9327060   7.6046250
  56.7011980  55.3781240   9.9204840  57.2911670  55.0697090  10.6082660
  55.8832220  54.9060990  10.0764740  61.5205410  54.9947050  10.1537860
  60.8320930  54.3328590  10.0887850  62.2411430  54.5485320  10.5986320
  58.3048940  68.6447930   8.6535560  58.2307640  69.5483070   8.9607930
  57.4027780  68.3259830   8.6257630  49.7076230  65.9722520   1.9569180
  50.0379240  65.1043580   1.7247820  50.1367230  66.1781040   2.7874140
  50.1966440  66.8393110   4.6950810  49.7597430  67.0193910   5.5274960
  50.7644120  67.5967730   4.5532530  65.8328620  66.3410110   8.9828120
  65.2330610  66.4002670   8.2392040  65.9622520  65.4015090   9.1124970
  64.5180260  63.0662090   7.0804280  63.7040100  63.4959250   7.3430070
  64.9254460  63.6780500   6.4673330  51.0666800  59.7365910   5.5943030
  51.4339840  59.6493310   6.4739050  50.4977620  58.9732460   5.4949890
  65.8670660  58.2050290   8.6073500  65.6356750  57.9763040   7.7071450
  66.1275210  59.1249840   8.5618390  50.6182800  56.6475000   9.5001450
  49.7238850  56.6141760   9.8395160  51.1580350  56.8461790  10.2652700
  64.3058730  53.4306720  11.3853200  65.1828910  53.4390120  11.7687200
  64.3179570  52.6937560  10.7745550  65.7522000  57.2836260   2.2741220
  66.2759480  56.7898910   1.6431390  66.3381420  57.4186620   3.0188790
  65.9311720  57.3676130   5.7960770  64.9814430  57.3339670   5.9105760
  66.1124730  58.2776240   5.5610540  51.1222510  50.9223330   3.8484670
  51.7698700  50.3720710   3.4079830  51.5424350  51.1766480   4.6700480
  65.0174850  51.1164690   7.2054310  65.6547070  51.7298830   7.5713500
  65.1649740  51.1525350   6.2603540  50.8754510  51.0779000   6.5909990
  50.5269330  51.5342820   7.3568170  50.5442210  50.1836130   6.6732420
  52.4818880  64.2498600  10.7563180  52.4388510  63.8791510  11.6377640
  52.6129890  65.1876170  10.8965000  56.1824910  65.8058190   6.3572900
  55.9416270  66.0732750   5.4703420  57.1227550  65.9763920   6.4123760
  58.3879330  52.2690880  10.1129410  58.3268220  52.8612710  10.8624820
  59.3279710  52.1616840   9.9679670  61.0253890  51.9260940   9.7521700
  61.6394300  52.2440230   9.0902780  61.5703450  51.4409530  10.3717560
  67.4429070  67.8252570   7.1583540  66.9487350  68.2221440   6.4410670
  66.8342360  67.2001780   7.5520820  51.5475150  50.6055200   9.8660760
  52.0958140  50.4243250   9.1026870  51.6130460  49.8149310  10.4017070
  52.3206910  67.1960850   7.8760960  51.7267230  67.0645550   8.6151000
  52.3130750  66.3598990   7.4103060  61.7661930  50.4893080   6.0790990
  60.8921770  50.8228190   5.8763920  61.6572680  50.0166260   6.9042860
  62.6733910  52.6963950   7.4632710  62.3447270  51.8815710   7.0834440
  63.6216210  52.6533760   7.3398400  65.1268520  68.4675990   4.4370280
  64.6671490  69.2191800   4.0628300  64.4980980  67.7482460   4.3785080
  51.9519140  64.5619230   6.8269000  51.2253200  63.9424520   6.7594950
  52.0128290  64.9559840   5.9567080  55.5564240  66.7764230   3.6118410
  56.0729260  66.1651590   3.0866670  56.2061620  67.2793010   4.1029420
  58.2959740  67.6672720   4.4387390  58.5837550  67.4127020   3.5620400
  58.8082960  67.1150080   5.0292960  59.5136750  51.4062920   5.0183900
  58.7308540  51.8808420   5.2980660  59.2199680  50.5017750   4.9097080
  64.0657820  52.1086020   3.0632990  64.5065910  52.0531120   2.2154590
  63.7965410  53.0244030   3.1343170  61.9015950  50.4892120   1.7683000
  62.5045320  51.0612330   2.2431520  61.1608940  51.0531560   1.5456900
  58.3632100  68.5888820  11.8055590  59.2899410  68.3533090  11.8491550
  58.3482530  69.4160820  11.3241620  55.5495710  51.2533570  11.5697470
  55.2679980  51.7567170  10.8058290  55.9315410  50.4555320  11.2039600
  62.1511170  50.6687150  12.1477940  62.0376620  50.9881760  13.0429460
  62.9680910  51.0699660  11.8515220  64.9309660  67.8158680  11.6296630
  65.7234980  67.3207910  11.4222590  65.2242810  68.4948820  12.2372240
  61.0569320  39.9136130 151.4804090  60.9763370  38.9990740 151.2095800
  60.6433740  40.4103200 150.7743800  59.1887360  41.6915150 153.3613360
  58.4129460  41.2115590 153.6511930  59.8400290  41.0120800 153.1869520
  63.2094790  46.0975340 152.1412490  62.7476320  45.3262580 152.4699660
  64.0220340  46.1241410 152.6464940  53.1854450  46.0375050 154.4347140
  53.4882490  45.1472790 154.2557360  53.9298040  46.5945270 154.2069390
  51.6145140  36.9636850 148.0231510  50.7261840  37.3052820 147.9211390
  51.8986330  36.7637170 147.1312340  49.5778150  39.5642500 153.9071210
  50.1494260  38.7964700 153.9074850  49.5779690  39.8631260 152.9977820
  59.4358100  48.3833350 151.7616480  58.8169540  48.8390850 151.1910920
  60.2909880  48.5384810 151.3606180  58.6296350  44.3672340 153.3683520
  58.5604630  43.4262280 153.2072650  59.3916210  44.4573750 153.9406090
  59.6601520  37.1742720 153.5952450  60.0366340  36.3014600 153.4826120
  59.5621030  37.5101420 152.7042890  53.7906530  35.5468350 149.0569890
  53.8973280  36.4472080 149.3638650  52.8798890  35.4986320 148.7664540
  63.4425640  34.6693160 150.5280790  64.2635260  34.1789730 150.5706270
  63.4759720  35.2590820 151.2812630  55.6314260  38.5154720 153.3895070
  56.1392480  39.0135690 154.0300090  56.1627500  37.7389920 153.2134430
  60.3021450  43.2672590 149.1548390  59.6838720  43.7322040 148.5911110
  60.8144700  43.9600070 149.5717900  63.6787120  36.6093540 153.3008330
  62.9742690  36.8978430 153.8811440  64.0399280  37.4193650 152.9407890
  49.6704650  43.9529120 146.5288020  49.2932630  44.4416220 145.7972920
  49.9277720  44.6254400 147.1594550  66.7474040  36.0548330 153.6917540
  65.7998950  36.0887310 153.8232970  67.0724030  36.8687280 154.0766900
  57.2793580  32.3545510 151.9873530  57.5868560  31.7992400 151.2709030
  56.3494280  32.4889970 151.8046520  62.8308640  48.0712800 154.2780990
  62.8435800  47.6675090 153.4103250  62.2783860  48.8460090 154.1742420
  64.1254060  44.7929020 149.3671160  64.0150390  43.8503350 149.4920580
  64.1222310  45.1544660 150.2533920  59.6674340  40.4194340 148.7233650
  58.7403620  40.3531720 148.9522120  59.8199160  41.3574470 148.6088890
  59.6543420  36.6911340 145.7200810  58.7147090  36.8525300 145.8053270
  59.9726680  37.4097020 145.1736800  63.6971630  41.9814640 149.2268900
  63.0784050  41.6434190 148.5795200  63.6796080  41.3374400 149.9348090
  55.2730980  40.9459080 151.5053380  54.8687980  40.2336330 151.0099280
  55.3594100  40.6012320 152.3941420  55.7412680  44.6326640 153.6692590
  55.4440970  44.0272110 152.9900370  56.6912500  44.6703950 153.5581950
  61.8736330  41.2201450 146.2341650  62.3129610  40.3823880 146.0879470
  62.5864750  41.8530850 146.3205790  59.9831710  46.1597520 150.2022890
  60.4227620  46.9021850 149.7878280  59.9218600  46.4024090 151.1261850
  65.4553470  32.4744260 144.5482690  65.1426130  32.5671090 145.4481760
  66.2165940  33.0525290 144.4980120  51.9735610  39.8404060 149.0060030
  51.8533210  40.5666150 148.3941300  51.6636500  39.0706970 148.5287940
  50.8568610  44.7119390 151.2234850  50.4496690  44.8533980 150.3688450
  51.7481620  44.4279550 151.0206060  62.6501890  49.1466640 147.5585900
  62.4903030  48.8569580 148.4567730  62.4848600  48.3706770 147.0231130
  55.1290270  48.9265170 149.3357520  54.9532750  48.0100710 149.1225320
  54.2746010  49.2852460 149.5755320  62.3528020  46.6554200 146.1183900
  61.6593180  46.6531490 145.4586180  63.0950880  46.2313520 145.6878070
  61.9177950  48.2816910 150.1932390  62.3734900  47.5006290 150.5071010
  62.2570470  48.9923730 150.7373570  54.4399270  33.1839130 152.3883700
  53.9967420  33.9648670 152.0568220  54.9984260  33.5069020 153.0954640
  57.5558090  32.8049830 147.2689530  56.9312270  32.8009700 147.9942840
  57.4688210  31.9380790 146.8725500  56.4775170  33.7286460 154.2473300
  56.7747500  34.6349290 154.1665320  57.0260730  33.2405240 153.6332870
  54.2313490  38.3072700 150.1164950  54.0054410  38.0909870 151.0211570
  53.4506020  38.7401160 149.7710920  61.4611250  38.3136070 148.7155600
  60.8620140  39.0371870 148.5319220  62.0090860  38.2512850 147.9332050
  60.0676120  36.9499610 150.7458880  60.4605690  37.2671810 149.9327570
  60.4292970  36.0711490 150.8603400  49.1040290  33.5400410 152.9689080
  48.8153340  34.1103270 153.6814060  49.8486050  33.0604860 153.3320310
  49.2910520  37.4820530 144.1791800  49.2085190  38.4251290 144.3206790
  48.9393580  37.3395440 143.3004150  57.0908650  36.2159560 153.2462150
  57.0944710  35.7749510 152.3966690  57.9859770  36.5376890 153.3533970
  52.9411030  36.0986050 152.2056360  52.6011080  36.5761280 152.9623410
  52.1788350  35.6451170 151.8457460  57.1528800  37.2171640 146.2368910
  57.2741620  37.1758120 147.1854730  56.7677310  38.0795790 146.0815640
  56.1650300  39.5272780 145.6352210  55.5967200  39.0791030 145.0088120
  56.8739300  39.8865560 145.1017360  50.2557110  35.0205030 151.1221030
  49.9704030  34.6560700 151.9599650  50.1935970  34.2885490 150.5084170
  53.7097780  43.5230970 147.9078620  52.9360040  42.9828590 147.7477340
  54.4392410  43.0037580 147.5696380  64.4685760  42.5196330 153.7005010
  65.1884880  43.0151620 153.3101120  64.2667580  41.8414220 153.0558880
  59.9295700  33.9134290 147.8434400  59.1160310  33.4147460 147.7679710
  59.7357650  34.7532540 147.4270750  62.6444090  38.2853940 146.1396560
  63.5323710  38.5971170 145.9647900  62.6149180  37.4126190 145.7477140
  53.7535180  43.1911350 151.5457430  54.2713850  42.3879610 151.4914320
  53.3019200  43.1290490 152.3874260  58.6404680  44.4577630 146.8184730
  58.9820380  45.2019860 146.3228050  57.8117390  44.7708750 147.1809560
  64.9158360  39.5965780 145.6076420  64.8322080  40.0280000 144.7572860
  65.6352550  40.0564130 146.0403240  65.9445610  46.4508040 148.3358550
  65.3021770  45.7963660 148.6102270  65.5576270  46.8563130 147.5599220
  61.5232090  43.7793470 152.1830240  61.8755910  43.1821600 151.5231610
  60.6394420  43.4537700 152.3538490  57.6095370  44.5391160 149.5900650
  58.2966500  45.0860370 149.9708240  56.8227790  45.0831890 149.6250260
  49.7487770  40.1563980 145.0817730  50.6182620  40.4388780 145.3653650
  49.2578090  40.9699850 144.9666540  56.9122580  41.5437190 149.2026010
  57.3685360  42.3542440 149.4286200  56.5610790  41.2260330 150.0344500
  52.8134360  31.8874840 149.6748530  52.6848990  31.8792740 150.6233450
  51.9896380  32.2257930 149.3239540  64.3342990  45.3424500 144.8734900
  64.1080570  44.6254940 145.4659540  63.9439190  45.0936940 144.0356650
  50.1159020  49.3691360 145.6479360  50.4756660  49.9680700 144.9936630
  49.9751360  49.9151250 146.4214390  63.9159240  43.2596440 146.5349060
  63.6280940  43.7209130 147.3226940  64.7111410  42.7994210 146.8033280
  56.1327640  46.7522560 146.4653030  56.1237740  47.4852250 145.8497540
  55.2126000  46.5054140 146.5579990  51.7334280  41.9737450 147.2099790
  51.1262230  42.7136350 147.2195090  52.2083630  42.0636810 146.3837990
  64.6729100  35.0945210 147.6944240  64.0442260  35.1990880 146.9802470
  64.1781020  35.3141990 148.4838120  59.1187240  46.8150800 145.1278220
  59.2199220  46.6114790 144.1980200  58.2188980  46.5609080 145.3326000
  56.6413130  37.3731160 149.1102120  55.9329280  37.8417500 149.5515730
  56.9257610  36.7153170 149.7447310  60.6728560  34.0981820 150.5497910
  60.5496340  34.1167950 149.6007420  61.6213120  34.1460760 150.6696310
  57.7605350  49.3337120 149.8225890  58.0146850  49.2958510 148.9005260
  56.8117830  49.2070450 149.8154140  54.8448150  35.6816240 146.4852830
  55.6938680  36.1186390 146.4193020  54.4779420  35.9936500 147.3124890
  63.7657930  40.2529000 151.3984400  62.8248070  40.2679230 151.5732090
  64.0802000  39.4664960 151.8444700  53.7439570  41.9348600 144.9588360
  54.5102840  41.8229960 145.5213790  53.8214260  41.2386570 144.3065130
  52.4386330  39.3673670 145.6421250  52.5189920  38.4201180 145.7538650
  53.3306080  39.6980550 145.7481910  65.7683510  47.4237850 153.0738660
  65.8930930  48.2469020 153.5462470  66.6349070  47.2128580 152.7262810
  53.2401040  49.5169060 152.7455790  53.9763520  48.9684520 153.0164360
  53.6241960  50.3825070 152.6061780  50.1246520  45.5842630 148.6197300
  49.1986300  45.8263770 148.6102710  50.5902950  46.4116890 148.4982050
  56.3503350  48.6899370 144.5681360  57.1431960  48.9788200 144.1163150
  55.8307700  48.2591540 143.8893840  65.4033520  47.9169500 145.9918100
  65.1175030  47.5034640 145.1772280  65.2053070  48.8457210 145.8718620
  56.8680750  43.9102780 144.4323710  56.7631390  43.2955130 145.1585090
  56.7004970  43.3868670 143.6486720  60.1083480  42.9722810 145.0365700
  59.5593580  43.4192110 145.6808440  60.7302740  42.4672060 145.5603370
  55.7758600  41.9313730 146.9331000  56.1975020  41.7653600 147.7762390
  55.9009440  41.1213960 146.4386140  58.2886240  40.9551340 144.1808100
  58.8091900  40.2400360 143.8149250  58.9354640  41.5937210 144.4808610
  54.6717500  38.0046960 143.8789160  54.4706560  37.1414320 144.2402500
  54.5009550  37.9180320 142.9410760  62.1505810  32.8155190 146.4076040
  62.4308100  31.9723090 146.7635460  61.3771540  33.0478300 146.9214790
  53.4700300  35.1047580 143.8667040  53.7726200  35.1115010 142.9586190
  54.2094890  34.7545440 144.3634700  56.6885230  34.0482200 144.8523240
  56.3407230  33.3706190 144.2725690  56.8898000  33.5871710 145.6666630
  58.8534270  49.0362950 146.4709840  59.7485060  49.3747920 146.4928600
  58.8851900  48.3142360 145.8434120  52.4930430  44.4090000 144.6996840
  52.9305300  44.9519670 145.3554420  52.9778160  43.5836950 144.7093180
  49.7076230  47.1979030 152.1517100  50.0379240  46.3300090 151.9195740
  50.1367230  47.4037550 152.9822060  54.3038150  45.5288040 149.8119070
  54.0033690  45.4053010 150.7122980  54.1975640  44.6696630 149.4034800
  67.0730070  45.3084440 144.5145750  66.2423030  45.3761090 144.9852980
  67.2501900  46.1988560 144.2112610  66.5286530  42.0531920 147.0179950
  67.2905440  42.6228570 147.1239640  66.5440900  41.4859120 147.7888260
  50.0290870  40.5769850 151.2487610  49.3739710  40.3081490 150.6047310
  50.8668820  40.4674330 150.7989590  67.5346500  42.9082020 151.8621880
  67.9055330  42.1249340 151.4557850  68.1748430  43.5971120 151.6839180
  66.5805700  42.3466290 144.1752470  66.8554540  43.2545170 144.0471690
  66.3916440  42.2828820 145.1114460  62.9781310  35.3711140 145.4706100
  63.3966190  35.1842120 144.6302760  62.6717370  34.5190190 145.7809030
  66.4771040  40.2835280 149.1681900  66.1014640  39.5163210 148.7363190
  65.7474160  40.6657980 149.6556830  49.2428950  37.7868780 147.1912940
  48.3393030  38.0498980 147.0164600  49.7269570  38.0579950 146.4112900
  65.7522000  38.5092770 152.4689140  66.2759480  38.0155420 151.8379310
  66.3381420  38.6443130 153.2136710  51.7856160  36.8434320 145.1007320
  52.4947860  36.4217540 144.6154600  51.0696100  36.9109550 144.4690670
  51.4330320  32.8973650 144.1409970  52.1558450  33.4382590 144.4591190
  51.7054840  32.6237070 143.2651510  65.2421970  37.7666120 148.4081550
  65.7381090  37.5336990 149.1930430  65.0438040  36.9277960 147.9919190
  66.6709130  36.4027070 150.9419230  66.5608410  36.2483110 151.8801500
  67.4316720  35.8748010 150.6994640  67.5599400  34.2334990 144.1825370
  68.4848710  34.1016170 143.9743660  67.5375190  34.3127810 145.1361820
  67.6337890  35.0045650 146.8082080  66.8389390  34.9390770 147.3374990
  67.8381170  35.9396290 146.7967430  64.5756310  49.0437200 150.8020470
  65.1715380  48.7221770 150.1254890  64.8334460  48.5709020 151.5933740
  55.5564240  48.0020740 153.8066330  56.0729260  47.3908100 153.2814590
  56.2061620  48.5049520 154.2977340  64.0657820  33.3342530 153.2580910
  64.5065910  33.2787630 152.4102510  63.7965410  34.2500540 153.3291090
  65.9296390  32.9657770 151.2689730  65.8684790  32.0218990 151.1220750
  66.7088420  33.0737860 151.8143190  50.2349140  49.1050130 150.2313680
  50.0671180  48.4720810 150.9295570  49.3683650  49.3109530 149.8807870
  50.8577160  32.9366910 147.7345540  51.6156520  33.0495790 147.1609570
  50.3954330  33.7736110 147.6888970  57.3990970  35.0506180 150.7247850
  56.5865480  34.6763070 150.3843730  57.9032610  34.2951260 151.0269040
  61.9015950  31.7148630 151.9630920  62.5045320  32.2868840 152.4379440
  61.1608940  32.2788070 151.7404820  65.0450550  32.1170190 147.2371200
  65.2401180  33.0153640 147.5038630  64.2580420  31.8857270 147.7304150
  51.8411840  47.7983360 147.6763820  51.3159460  48.1791390 146.9725780
  51.7656420  48.4234130 148.3973530  53.2302310  33.4630960 146.2747510
  53.7595070  32.6760760 146.1455460  53.8630630  34.1422150 146.5083040
  55.4240150  33.2006100 149.3292900  54.7942890  32.4993410 149.4963030
  54.8845290  33.9610230 149.1126060  66.5977160  49.3570900 148.9977760
  66.7729350  48.6708640 148.3538680  65.8998730  49.8817950 148.6054430
  54.4404810  49.7465740 146.5513070  55.1723630  49.4625020 146.0036960
  54.6998480  49.5079020 147.4412450  53.6019600  45.8630470 146.5559400
  52.9728480  46.3315570 147.1045230  53.7167430  45.0179690 146.9905590
  61.0569320  39.9136130 132.7060600  60.9763370  38.9990740 132.4352310
  60.6433740  40.4103200 132.0000310  59.1887360  41.6915150 134.5869870
  58.4129460  41.2115590 134.8768440  59.8400290  41.0120800 134.4126030
  53.2053190  42.0034960 135.4645630  52.3738070  41.7483670 135.8642140
  53.8134170  42.0745730 136.2003550  63.2094790  46.0975340 133.3669000
  62.7476320  45.3262580 133.6956170  64.0220340  46.1241410 133.8721450
  53.1854450  46.0375050 135.6603650  53.4882490  45.1472790 135.4813870
  53.9298040  46.5945270 135.4325900  51.6145140  36.9636850 129.2488020
  50.7261840  37.3052820 129.1467900  51.8986330  36.7637170 128.3568850
  49.5778150  39.5642500 135.1327720  50.1494260  38.7964700 135.1331360
  49.5779690  39.8631260 134.2234330  59.4358100  48.3833350 132.9872990
  58.8169540  48.8390850 132.4167430  60.2909880  48.5384810 132.5862690
  58.6296350  44.3672340 134.5940030  58.5604630  43.4262280 134.4329160
  59.3916210  44.4573750 135.1662600  50.8203020  34.9726860 136.9196650
  50.6405860  34.0752610 137.1999410  50.4183100  35.5198730 137.5943600
  59.6601520  37.1742720 134.8208960  60.0366340  36.3014600 134.7082630
  59.5621030  37.5101420 133.9299400  53.7906530  35.5468350 130.2826400
  53.8973280  36.4472080 130.5895160  52.8798890  35.4986320 129.9921050
  63.4425640  34.6693160 131.7537300  64.2635260  34.1789730 131.7962780
  63.4759720  35.2590820 132.5069140  51.4389690  37.4687360 135.5278990
  52.1199800  37.7325730 136.1466390  51.1237740  36.6288230 135.8617000
  55.6314260  38.5154720 134.6151580  56.1392480  39.0135690 135.2556600
  56.1627500  37.7389920 134.4390940  67.7325190  36.6859910 138.3180930
  67.0277360  37.0741620 137.7996040  67.9983110  37.3810200 138.9201860
  53.9150360  33.1553280 138.8815000  53.9168800  33.6725670 138.0760900
  53.0854670  32.6783460 138.8584930  60.3021450  43.2672590 130.3804900
  59.6838720  43.7322040 129.8167620  60.8144700  43.9600070 130.7974410
  55.1653210  42.7948460 137.0588500  54.8322590  43.4217380 137.7009570
  55.3419890  43.3210340 136.2790170  63.6787120  36.6093540 134.5264840
  62.9742690  36.8978430 135.1067950  64.0399280  37.4193650 134.1664400
  53.5965690  34.8663240 136.8885450  53.9382500  35.7105290 136.5939320
  52.6581500  35.0146980 137.0050790  54.3772310  44.7629260 138.8737680
  54.9946310  45.4380340 138.5922130  53.5165430  45.1717240 138.7825180
  65.2949900  46.2268670 136.7892320  64.6113420  46.8967780 136.7808990
  65.8344190  46.4249320 136.0237180  66.7474040  36.0548330 134.9174050
  65.7998950  36.0887310 135.0489480  67.0724030  36.8687280 135.3023410
  57.2793580  32.3545510 133.2130040  57.5868560  31.7992400 132.4965540
  56.3494280  32.4889970 133.0303030  62.8308640  48.0712800 135.5037500
  62.8435800  47.6675090 134.6359760  62.2783860  48.8460090 135.3998930
  64.1254060  44.7929020 130.5927670  64.0150390  43.8503350 130.7177090
  64.1222310  45.1544660 131.4790430  62.2294080  42.9742640 136.8320110
  62.6462870  42.7602750 135.9973570  62.9533900  43.2315430 137.4028730
  59.6674340  40.4194340 129.9490160  58.7403620  40.3531720 130.1778630
  59.8199160  41.3574470 129.8345400  59.6543420  36.6911340 126.9457320
  58.7147090  36.8525300 127.0309780  59.9726680  37.4097020 126.3993310
  66.1756180  41.3729860 136.9236350  65.3474810  41.4422950 136.4486480
  66.7706660  41.9584170 136.4552180  63.6971630  41.9814640 130.4525410
  63.0784050  41.6434190 129.8051710  63.6796080  41.3374400 131.1604600
  63.1398190  38.1599180 137.8691220  62.7269370  38.9852890 138.1231210
  62.4074140  37.5744220 137.6767580  55.2730980  40.9459080 132.7309890
  54.8687980  40.2336330 132.2355790  55.3594100  40.6012320 133.6197930
  55.7412680  44.6326640 134.8949100  55.4440970  44.0272110 134.2156880
  56.6912500  44.6703950 134.7838460  53.9859600  37.7202290 136.5108930
  54.5374190  37.8297630 135.7362180  54.5003110  38.0939890 137.2264160
  63.8298290  48.2058510 138.5572200  63.3528850  49.0130700 138.3644810
  63.1460080  47.5536840 138.7098410  54.8331110  44.3708330 141.5456900
  53.9359640  44.5948300 141.7930300  54.8583980  44.4943270 140.5968300
  53.6602330  41.2421650 140.1214270  53.5210100  42.1144450 140.4901670
  52.7783690  40.8994460 139.9762210  59.9831710  46.1597520 131.4279400
  60.4227620  46.9021850 131.0134790  59.9218600  46.4024090 132.3518360
  55.4582680  47.1843350 142.3299420  55.4298110  47.5886300 141.4627850
  55.2947650  46.2553710 142.1671020  65.4553470  32.4744260 125.7739200
  65.1426130  32.5671090 126.6738270  66.2165940  33.0525290 125.7236630
  51.9735610  39.8404060 130.2316540  51.8533210  40.5666150 129.6197810
  51.6636500  39.0706970 129.7544450  67.4097500  47.9670450 143.6263590
  67.8857220  48.4453340 144.3052670  68.0304660  47.8987940 142.9009090
  49.6120980  43.0119200 136.0385180  49.6901400  43.1467970 135.0940900
  50.2262660  42.3035090 136.2313300  50.8568610  44.7119390 132.4491360
  50.4496690  44.8533980 131.5944960  51.7481620  44.4279550 132.2462570
  66.8130750  45.1583300 140.7863600  66.9393810  44.9195180 139.8680780
  66.8552130  44.3267840 141.2585680  60.6747490  48.8611300 139.3558410
  61.1892160  48.7719310 140.1580840  59.8316570  49.2071000 139.6486320
  62.6501890  49.1466640 128.7842410  62.4903030  48.8569580 129.6824240
  62.4848600  48.3706770 128.2487640  55.1290270  48.9265170 130.5614030
  54.9532750  48.0100710 130.3481830  54.2746010  49.2852460 130.8011830
  61.9177950  48.2816910 131.4188900  62.3734900  47.5006290 131.7327520
  62.2570470  48.9923730 131.9630080  66.6654760  37.2115760 141.7513340
  66.0499030  37.7195430 141.2228800  66.3451180  36.3114090 141.6939280
  49.6680500  44.0533370 138.5779640  49.8311540  43.5838730 137.7599010
  50.1332950  43.5456930 139.2428480  54.4399270  33.1839130 133.6140210
  53.9967420  33.9648670 133.2824730  54.9984260  33.5069020 134.3211150
  58.7269080  36.0507650 139.2175530  58.2648450  36.2590670 140.0295470
  58.3247190  35.2367000 138.9146200  63.7273590  37.2716600 140.3472190
  62.8767180  36.9722350 140.6681260  63.5675380  37.5158610 139.4356010
  60.8223300  38.7718350 142.4470980  61.1476710  37.9382100 142.1073210
  61.6103630  39.2946870 142.5949310  57.5558090  32.8049830 128.4946040
  56.9312270  32.8009700 129.2199350  57.4688210  31.9380790 128.0982010
  56.4775170  33.7286460 135.4729810  56.7747500  34.6349290 135.3921830
  57.0260730  33.2405240 134.8589380  54.2313490  38.3072700 131.3421460
  54.0054410  38.0909870 132.2468080  53.4506020  38.7401160 130.9967430
  61.4611250  38.3136070 129.9412110  60.8620140  39.0371870 129.7575730
  62.0090860  38.2512850 129.1588560  56.6712700  39.2058280 142.0081730
  56.5756300  38.2653010 141.8582130  57.5144680  39.4273350 141.6129800
  60.0676120  36.9499610 131.9715390  60.4605690  37.2671810 131.1584080
  60.4292970  36.0711490 132.0859910  51.8023240  35.6171950 140.1615510
  51.4086630  36.4647160 140.3688290  51.1141640  34.9798320 140.3524150
  58.3768290  35.7006920 143.2312250  57.6866610  35.5079120 143.8658340
  59.1200590  35.9841560 143.7636550  49.1040290  33.5400410 134.1945590
  48.8153340  34.1103270 134.9070570  49.8486050  33.0604860 134.5576820
  49.2910520  37.4820530 125.4048310  49.2085190  38.4251290 125.5463300
  48.9393580  37.3395440 124.5260660  60.6531260  39.5405360 136.0666170
  59.9212380  40.0492170 136.4156270  60.2555600  38.7235340 135.7654950
  57.0908650  36.2159560 134.4718660  57.0944710  35.7749510 133.6223200
  57.9859770  36.5376890 134.5790480  52.9411030  36.0986050 133.4312870
  52.6011080  36.5761280 134.1879920  52.1788350  35.6451170 133.0713970
  57.1528800  37.2171640 127.4625420  57.2741620  37.1758120 128.4111240
  56.7677310  38.0795790 127.3072150  61.1157170  34.9939040 135.4789110
  61.1329910  35.4447690 136.3230960  60.8672750  34.0944680 135.6922550
  56.1650300  39.5272780 126.8608720  55.5967200  39.0791030 126.2344630
  56.8739300  39.8865560 126.3273870  64.5427920  32.4071220 141.3175490
  64.8673690  31.6760880 141.8433470  64.5784430  32.0884860 140.4156480
  51.2419480  43.4284800 140.7375450  50.8574270  42.7878470 141.3358410
  51.5531670  44.1320920 141.3070180  57.3916620  40.2761340 136.2184070
  57.7586750  39.8019910 136.9645410  57.2021680  41.1502910 136.5592410
  50.2557110  35.0205030 132.3477540  49.9704030  34.6560700 133.1856160
  50.1935970  34.2885490 131.7340680  55.1815990  39.3169980 138.5368280
  54.8773060  40.1961960 138.7618640  56.1362450  39.3769770 138.5725720
  64.4685760  42.5196330 134.9261520  65.1884880  43.0151620 134.5357630
  64.2667580  41.8414220 134.2815390  59.9295700  33.9134290 129.0690910
  59.1160310  33.4147460 128.9936220  59.7357650  34.7532540 128.6527260
  59.8504560  42.5905390 140.8130520  59.7841870  41.6701060 140.5588110
  59.2209700  42.6880830 141.5275160  62.6444090  38.2853940 127.3653070
  63.5323710  38.5971170 127.1904410  62.6149180  37.4126190 126.9733650
  53.7535180  43.1911350 132.7713940  54.2713850  42.3879610 132.7170830
  53.3019200  43.1290490 133.6130770  58.6404680  44.4577630 128.0441240
  58.9820380  45.2019860 127.5484560  57.8117390  44.7708750 128.4066070
  51.2379720  40.1572720 139.6839640  50.8794660  40.8226570 140.2712980
  50.9434280  39.3256270 140.0552260  54.4392840  40.6156960 142.5679190
  54.1392980  40.7614140 141.6707010  55.2104080  40.0562250 142.4752580
  59.7821290  45.4125960 140.5634320  59.7965830  44.4806920 140.3453230
  59.0746390  45.4985720 141.2024090  65.9932500  42.0533300 139.9102900
  65.2680690  42.6462080 139.7132290  66.5207960  42.0456840 139.1116270
  65.9445610  46.4508040 129.5615060  65.3021770  45.7963660 129.8358780
  65.5576270  46.8563130 128.7855730  61.5232090  43.7793470 133.4086750
  61.8755910  43.1821600 132.7488120  60.6394420  43.4537700 133.5795000
  57.6095370  44.5391160 130.8157160  58.2966500  45.0860370 131.1964750
  56.8227790  45.0831890 130.8506770  56.9122580  41.5437190 130.4282520
  57.3685360  42.3542440 130.6542710  56.5610790  41.2260330 131.2601010
  59.2155190  47.0543530 137.6574820  59.8597410  47.2602910 138.3348240
  59.5784630  46.2931930 137.2045670  52.8134360  31.8874840 130.9005040
  52.6848990  31.8792740 131.8489960  51.9896380  32.2257930 130.5496050
  60.4887270  45.0575880 136.3752270  61.1309500  44.3569040 136.4884440
  61.0136620  45.8374320 136.1949160  62.2624890  45.8570780 139.5788330
  62.5981130  46.4437470 140.2566250  61.3425230  45.7263490 139.8086120
  49.8128290  33.6465960 140.3611740  49.0986810  33.8462880 140.9664350
  50.2323330  32.8705530 140.7326540  50.1000880  47.6346220 141.3478270
  50.2092000  46.6940960 141.2073660  49.4481440  47.9000970 140.6992000
  58.0913470  45.9062110 142.7476390  57.7710340  45.1871350 143.2922080
  57.4171830  46.5817180 142.8212450  56.1327640  46.7522560 127.6909540
  56.1237740  47.4852250 127.0754050  55.2126000  46.5054140 127.7836500
  61.3067070  36.1388270 138.1113190  61.6747890  35.3183480 138.4392760
  60.4465270  36.1990160 138.5268840  64.6729100  35.0945210 128.9200750
  64.0442260  35.1990880 128.2058980  64.1781020  35.3141990 129.7094630
  59.1187240  46.8150800 126.3534730  59.2199220  46.6114790 125.4236710
  58.2188980  46.5609080 126.5582510  56.6413130  37.3731160 130.3358630
  55.9329280  37.8417500 130.7772240  56.9257610  36.7153170 130.9703820
  58.2669060  38.7927860 138.3351160  58.7654310  39.2673680 139.0003010
  58.4092010  37.8691380 138.5421190  60.6728560  34.0981820 131.7754420
  60.5496340  34.1167950 130.8263930  61.6213120  34.1460760 131.8952820
  57.7605350  49.3337120 131.0482400  58.0146850  49.2958510 130.1261770
  56.8117830  49.2070450 131.0410650  54.8448150  35.6816240 127.7109340
  55.6938680  36.1186390 127.6449530  54.4779420  35.9936500 128.5381400
  65.4735920  35.0095820 139.1779550  64.9709520  35.7501220 139.5173360
  66.2892580  35.3979820 138.8616340  63.7657930  40.2529000 132.6240910
  62.8248070  40.2679230 132.7988600  64.0802000  39.4664960 133.0701210
  52.4386330  39.3673670 126.8677760  52.5189920  38.4201180 126.9795160
  53.3306080  39.6980550 126.9738420  65.7683510  47.4237850 134.2995170
  65.8930930  48.2469020 134.7718980  66.6349070  47.2128580 133.9519320
  53.2401040  49.5169060 133.9712300  53.9763520  48.9684520 134.2420870
  53.6241960  50.3825070 133.8318290  52.2459320  48.7015130 143.1597880
  53.0472050  49.0227180 143.5733280  51.7311140  48.3410710 143.8817790
  56.3503350  48.6899370 125.7937870  57.1431960  48.9788200 125.3419660
  55.8307700  48.2591540 125.1150350  61.0823950  44.8095000 143.1073290
  60.4762110  44.8326600 142.3669040  60.7778060  44.0778040 143.6440540
  62.5124320  48.5375290 141.7182700  63.4646070  48.4533310 141.6682940
  62.3652540  49.2017000 142.3916490  65.4033520  47.9169500 127.2174610
  65.1175030  47.5034640 126.4028790  65.2053070  48.8457210 127.0975130
  49.9657130  41.1888590 142.1033930  50.4696150  40.6095870 142.6750160
  49.2264550  41.4728820 142.6410300  56.8680750  43.9102780 125.6580220
  56.7631390  43.2955130 126.3841600  56.7004970  43.3868670 124.8743230
  57.0195070  42.5959580 141.6369450  56.2540740  43.1644580 141.5524120
  57.2011030  42.3035790 140.7437680  64.1618420  44.3264910 142.1944470
  64.9027890  44.6640670 141.6911930  63.3991100  44.4956970 141.6414240
  51.9980210  39.3318180 142.9984000  52.0385550  39.0332050 143.9069230
  52.8525710  39.7325790 142.8391520  55.7758600  41.9313730 128.1587510
  56.1975020  41.7653600 129.0018900  55.9009440  41.1213960 127.6642650
  53.9386020  37.9110280 140.9658490  53.4082480  37.4201230 140.3381830
  54.6074090  38.3394480 140.4316420  58.2886240  40.9551340 125.4064610
  58.8091900  40.2400360 125.0405760  58.9354640  41.5937210 125.7065120
  62.8364080  42.3779740 140.7299680  63.2505100  42.5324820 141.5790100
  61.9015080  42.5034960 140.8925460  63.3086250  39.7175900 142.7338830
  63.8907020  38.9628220 142.6459310  63.4848020  40.2483340 141.9570310
  54.4258320  34.8772650 141.0455780  54.3315190  34.2593400 140.3206650
  53.8455710  35.6038940 140.8185690  57.1919760  33.4345890 138.0783170
  56.7437060  33.4570150 137.2328720  56.5584960  33.0364910 138.6753470
  57.5979310  42.3300220 138.6995610  58.0167420  43.1732950 138.5271850
  56.6787940  42.4672260 138.4702390  59.9343210  40.0616400 140.0833450
  60.0539420  39.4657540 140.8228290  60.7937210  40.0986090 139.6634750
  62.2731110  40.6153590 138.6595960  61.7466330  41.1396210 138.0561100
  62.6162450  41.2480980 139.2905690  54.6717500  38.0046960 125.1045670
  54.4706560  37.1414320 125.4659010  54.5009550  37.9180320 124.1667270
  55.4486730  48.6353230 139.8153340  54.9107820  49.3599290 139.4962040
  55.7020690  48.1583570 139.0250680  56.7011980  36.6037750 141.3409270
  57.2911670  36.2953600 142.0287090  55.8832220  36.1317500 141.4969170
  61.5205410  36.2203560 141.5742290  60.8320930  35.5585100 141.5092280
  62.2411430  35.7741830 142.0190750  62.1505810  32.8155190 127.6332550
  62.4308100  31.9723090 127.9891970  61.3771540  33.0478300 128.1471300
  58.3048940  49.8704440 140.0739990  58.2307640  50.7739580 140.3812360
  57.4027780  49.5516340 140.0462060  56.6885230  34.0482200 126.0779750
  56.3407230  33.3706190 125.4982200  56.8898000  33.5871710 126.8923140
  58.8534270  49.0362950 127.6966350  59.7485060  49.3747920 127.7185110
  58.8851900  48.3142360 127.0690630  49.7076230  47.1979030 133.3773610
  50.0379240  46.3300090 133.1452250  50.1367230  47.4037550 134.2078570
  54.3038150  45.5288040 131.0375580  54.0033690  45.4053010 131.9379490
  54.1975640  44.6696630 130.6291310  50.1966440  48.0649620 136.1155240
  49.7597430  48.2450420 136.9479390  50.7644120  48.8224240 135.9736960
  65.8328620  47.5666620 140.4032550  65.2330610  47.6259180 139.6596470
  65.9622520  46.6271600 140.5329400  50.0290870  40.5769850 132.4744120
  49.3739710  40.3081490 131.8303820  50.8668820  40.4674330 132.0246100
  67.5346500  42.9082020 133.0878390  67.9055330  42.1249340 132.6814360
  68.1748430  43.5971120 132.9095690  64.5180260  44.2918600 138.5008710
  63.7040100  44.7215760 138.7634500  64.9254460  44.9037010 137.8877760
  62.9781310  35.3711140 126.6962610  63.3966190  35.1842120 125.8559270
  62.6717370  34.5190190 127.0065540  66.4771040  40.2835280 130.3938410
  66.1014640  39.5163210 129.9619700  65.7474160  40.6657980 130.8813340
  51.0666800  40.9622420 137.0147460  51.4339840  40.8749820 137.8943480
  50.4977620  40.1988970 136.9154320  65.8670660  39.4306800 140.0277930
  65.6356750  39.2019550 139.1275880  66.1275210  40.3506350 139.9822820
  50.6182800  37.8731510 140.9205880  49.7238850  37.8398270 141.2599590
  51.1580350  38.0718300 141.6857130  64.3058730  34.6563230 142.8057630
  65.1828910  34.6646630 143.1891630  64.3179570  33.9194070 142.1949980
  49.2428950  37.7868780 128.4169450  48.3393030  38.0498980 128.2421110
  49.7269570  38.0579950 127.6369410  65.7522000  38.5092770 133.6945650
  66.2759480  38.0155420 133.0635820  66.3381420  38.6443130 134.4393220
  65.9311720  38.5932640 137.2165200  64.9814430  38.5596180 137.3310190
  66.1124730  39.5032750 136.9814970  51.7856160  36.8434320 126.3263830
  52.4947860  36.4217540 125.8411110  51.0696100  36.9109550 125.6947180
  51.4330320  32.8973650 125.3666480  52.1558450  33.4382590 125.6847700
  51.7054840  32.6237070 124.4908020  65.2421970  37.7666120 129.6338060
  65.7381090  37.5336990 130.4186940  65.0438040  36.9277960 129.2175700
  51.1222510  32.1479840 135.2689100  51.7698700  31.5977220 134.8284260
  51.5424350  32.4022990 136.0904910  66.6709130  36.4027070 132.1675740
  66.5608410  36.2483110 133.1058010  67.4316720  35.8748010 131.9251150
  65.0174850  32.3421200 138.6258740  65.6547070  32.9555340 138.9917930
  65.1649740  32.3781860 137.6807970  67.6337890  35.0045650 128.0338590
  66.8389390  34.9390770 128.5631500  67.8381170  35.9396290 128.0223940
  64.5756310  49.0437200 132.0276980  65.1715380  48.7221770 131.3511400
  64.8334460  48.5709020 132.8190250  50.8754510  32.3035510 138.0114420
  50.5269330  32.7599330 138.7772600  50.5442210  31.4092640 138.0936850
  52.4818880  45.4755110 142.1767610  52.4388510  45.1048020 143.0582070
  52.6129890  46.4132680 142.3169430  56.1824910  47.0314700 137.7777330
  55.9416270  47.2989260 136.8907850  57.1227550  47.2020430 137.8328190
  58.3879330  33.4947390 141.5333840  58.3268220  34.0869220 142.2829250
  59.3279710  33.3873350 141.3884100  61.0253890  33.1517450 141.1726130
  61.6394300  33.4696740 140.5107210  61.5703450  32.6666040 141.7921990
  67.4429070  49.0509080 138.5787970  66.9487350  49.4477950 137.8615100
  66.8342360  48.4258290 138.9725250  51.5475150  31.8311710 141.2865190
  52.0958140  31.6499760 140.5231300  51.6130460  31.0405820 141.8221500
  52.3206910  48.4217360 139.2965390  51.7267230  48.2902060 140.0355430
  52.3130750  47.5855500 138.8307490  61.7661930  31.7149590 137.4995420
  60.8921770  32.0484700 137.2968350  61.6572680  31.2422770 138.3247290
  62.6733910  33.9220460 138.8837140  62.3447270  33.1072220 138.5038870
  63.6216210  33.8790270 138.7602830  65.1268520  49.6932500 135.8574710
  64.6671490  50.4448310 135.4832730  64.4980980  48.9738970 135.7989510
  51.9519140  45.7875740 138.2473430  51.2253200  45.1681030 138.1799380
  52.0128290  46.1816350 137.3771510  55.5564240  48.0020740 135.0322840
  56.0729260  47.3908100 134.5071100  56.2061620  48.5049520 135.5233850
  58.2959740  48.8929230 135.8591820  58.5837550  48.6383530 134.9824830
  58.8082960  48.3406590 136.4497390  59.5136750  32.6319430 136.4388330
  58.7308540  33.1064930 136.7185090  59.2199680  31.7274260 136.3301510
  64.0657820  33.3342530 134.4837420  64.5065910  33.2787630 133.6359020
  63.7965410  34.2500540 134.5547600  65.9296390  32.9657770 132.4946240
  65.8684790  32.0218990 132.3477260  66.7088420  33.0737860 133.0399700
  50.2349140  49.1050130 131.4570190  50.0671180  48.4720810 132.1552080
  49.3683650  49.3109530 131.1064380  50.8577160  32.9366910 128.9602050
  51.6156520  33.0495790 128.3866080  50.3954330  33.7736110 128.9145480
  57.3990970  35.0506180 131.9504360  56.5865480  34.6763070 131.6100240
  57.9032610  34.2951260 132.2525550  61.9015950  31.7148630 133.1887430
  62.5045320  32.2868840 133.6635950  61.1608940  32.2788070 132.9661330
  65.0450550  32.1170190 128.4627710  65.2401180  33.0153640 128.7295140
  64.2580420  31.8857270 128.9560660  53.2302310  33.4630960 127.5004020
  53.7595070  32.6760760 127.3711970  53.8630630  34.1422150 127.7339550
  55.4240150  33.2006100 130.5549410  54.7942890  32.4993410 130.7219540
  54.8845290  33.9610230 130.3382570  58.3632100  49.8145330 143.2260020
  59.2899410  49.5789600 143.2695980  58.3482530  50.6417330 142.7446050
  66.5977160  49.3570900 130.2234270  66.7729350  48.6708640 129.5795190
  65.8998730  49.8817950 129.8310940  55.5495710  32.4790080 142.9901900
  55.2679980  32.9823680 142.2262720  55.9315410  31.6811830 142.6244030
  62.1511170  31.8943660 143.5682370  62.0376620  32.2138270 144.4633890
  62.9680910  32.2956170 143.2719650  64.9309660  49.0415190 143.0501060
  65.7234980  48.5464420 142.8427020  65.2242810  49.7205330 143.6576670
  53.2053190  42.0034960 116.6902140  52.3738070  41.7483670 117.0898650
  53.8134170  42.0745730 117.4260060  49.5778150  39.5642500 116.3584230
  50.1494260  38.7964700 116.3587870  49.5779690  39.8631260 115.4490840
  58.6296350  44.3672340 115.8196540  58.5604630  43.4262280 115.6585670
  59.3916210  44.4573750 116.3919110  51.4389690  37.4687360 116.7535500
  52.1199800  37.7325730 117.3722900  51.1237740  36.6288230 117.0873510
  67.7325190  36.6859910 119.5437440  67.0277360  37.0741620 119.0252550
  67.9983110  37.3810200 120.1458370  55.1653210  42.7948460 118.2845010
  54.8322590  43.4217380 118.9266080  55.3419890  43.3210340 117.5046680
  54.3772310  44.7629260 120.0994190  54.9946310  45.4380340 119.8178640
  53.5165430  45.1717240 120.0081690  49.6704650  43.9529120 108.9801040
  49.2932630  44.4416220 108.2485940  49.9277720  44.6254400 109.6107570
  62.8308640  48.0712800 116.7294010  62.8435800  47.6675090 115.8616270
  62.2783860  48.8460090 116.6255440  55.2730980  40.9459080 113.9566400
  54.8687980  40.2336330 113.4612300  55.3594100  40.6012320 114.8454440
  55.7412680  44.6326640 116.1205610  55.4440970  44.0272110 115.4413390
  56.6912500  44.6703950 116.0094970  53.9859600  37.7202290 117.7365440
  54.5374190  37.8297630 116.9618690  54.5003110  38.0939890 118.4520670
  54.8331110  44.3708330 122.7713410  53.9359640  44.5948300 123.0186810
  54.8583980  44.4943270 121.8224810  53.6602330  41.2421650 121.3470780
  53.5210100  42.1144450 121.7158180  52.7783690  40.8994460 121.2018720
  55.4582680  47.1843350 123.5555930  55.4298110  47.5886300 122.6884360
  55.2947650  46.2553710 123.3927530  49.6120980  43.0119200 117.2641690
  49.6901400  43.1467970 116.3197410  50.2262660  42.3035090 117.4569810
  50.8568610  44.7119390 113.6747870  50.4496690  44.8533980 112.8201470
  51.7481620  44.4279550 113.4719080  55.1290270  48.9265170 111.7870540
  54.9532750  48.0100710 111.5738340  54.2746010  49.2852460 112.0268340
  66.6654760  37.2115760 122.9769850  66.0499030  37.7195430 122.4485310
  66.3451180  36.3114090 122.9195790  58.7269080  36.0507650 120.4432040
  58.2648450  36.2590670 121.2551980  58.3247190  35.2367000 120.1402710
  60.8223300  38.7718350 123.6727490  61.1476710  37.9382100 123.3329720
  61.6103630  39.2946870 123.8205820  56.6712700  39.2058280 123.2338240
  56.5756300  38.2653010 123.0838640  57.5144680  39.4273350 122.8386310
  58.3768290  35.7006920 124.4568760  57.6866610  35.5079120 125.0914850
  59.1200590  35.9841560 124.9893060  49.1040290  33.5400410 115.4202100
  48.8153340  34.1103270 116.1327080  49.8486050  33.0604860 115.7833330
  64.5427920  32.4071220 122.5432000  64.8673690  31.6760880 123.0689980
  64.5784430  32.0884860 121.6412990  50.2557110  35.0205030 113.5734050
  49.9704030  34.6560700 114.4112670  50.1935970  34.2885490 112.9597190
  55.1815990  39.3169980 119.7624790  54.8773060  40.1961960 119.9875150
  56.1362450  39.3769770 119.7982230  53.7097780  43.5230970 110.3591640
  52.9360040  42.9828590 110.1990360  54.4392410  43.0037580 110.0209400
  59.8504560  42.5905390 122.0387030  59.7841870  41.6701060 121.7844620
  59.2209700  42.6880830 122.7531670  53.7535180  43.1911350 113.9970450
  54.2713850  42.3879610 113.9427340  53.3019200  43.1290490 114.8387280
  54.4392840  40.6156960 123.7935700  54.1392980  40.7614140 122.8963520
  55.2104080  40.0562250 123.7009090  59.7821290  45.4125960 121.7890830
  59.7965830  44.4806920 121.5709740  59.0746390  45.4985720 122.4280600
  50.1159020  49.3691360 108.0992380  50.4756660  49.9680700 107.4449650
  49.9751360  49.9151250 108.8727410  50.1000880  47.6346220 122.5734780
  50.2092000  46.6940960 122.4330170  49.4481440  47.9000970 121.9248510
  58.0913470  45.9062110 123.9732900  57.7710340  45.1871350 124.5178590
  57.4171830  46.5817180 124.0468960  56.1327640  46.7522560 108.9166050
  56.1237740  47.4852250 108.3010560  55.2126000  46.5054140 109.0093010
  51.7334280  41.9737450 109.6612810  51.1262230  42.7136350 109.6708110
  52.2083630  42.0636810 108.8351010  58.2669060  38.7927860 119.5607670
  58.7654310  39.2673680 120.2259520  58.4092010  37.8691380 119.7677700
  57.7605350  49.3337120 112.2738910  58.0146850  49.2958510 111.3518280
  56.8117830  49.2070450 112.2667160  53.7439570  41.9348600 107.4101380
  54.5102840  41.8229960 107.9726810  53.8214260  41.2386570 106.7578150
  50.1246520  45.5842630 111.0710320  49.1986300  45.8263770 111.0615730
  50.5902950  46.4116890 110.9495070  65.4033520  47.9169500 108.4431120
  65.1175030  47.5034640 107.6285300  65.2053070  48.8457210 108.3231640
  57.0195070  42.5959580 122.8625960  56.2540740  43.1644580 122.7780630
  57.2011030  42.3035790 121.9694190  51.9980210  39.3318180 124.2240510
  52.0385550  39.0332050 125.1325740  52.8525710  39.7325790 124.0648030
  55.7758600  41.9313730 109.3844020  56.1975020  41.7653600 110.2275410
  55.9009440  41.1213960 108.8899160  58.2886240  40.9551340 106.6321120
  58.8091900  40.2400360 106.2662270  58.9354640  41.5937210 106.9321630
  57.1919760  33.4345890 119.3039680  56.7437060  33.4570150 118.4585230
  56.5584960  33.0364910 119.9009980  57.5979310  42.3300220 119.9252120
  58.0167420  43.1732950 119.7528360  56.6787940  42.4672260 119.6958900
  59.9343210  40.0616400 121.3089960  60.0539420  39.4657540 122.0484800
  60.7937210  40.0986090 120.8891260  56.7011980  36.6037750 122.5665780
  57.2911670  36.2953600 123.2543600  55.8832220  36.1317500 122.7225680
  61.5205410  36.2203560 122.7998800  60.8320930  35.5585100 122.7348790
  62.2411430  35.7741830 123.2447260  56.6885230  34.0482200 107.3036260
  56.3407230  33.3706190 106.7238710  56.8898000  33.5871710 108.1179650
  52.4930430  44.4090000 107.1509860  52.9305300  44.9519670 107.8067440
  52.9778160  43.5836950 107.1606200  54.3038150  45.5288040 112.2632090
  54.0033690  45.4053010 113.1636000  54.1975640  44.6696630 111.8547820
  67.0730070  45.3084440 106.9658770  66.2423030  45.3761090 107.4366000
  67.2501900  46.1988560 106.6625630  50.0290870  40.5769850 113.7000630
  49.3739710  40.3081490 113.0560330  50.8668820  40.4674330 113.2502610
  51.0666800  40.9622420 118.2403970  51.4339840  40.8749820 119.1199990
  50.4977620  40.1988970 118.1410830  65.8670660  39.4306800 121.2534440
  65.6356750  39.2019550 120.3532390  66.1275210  40.3506350 121.2079330
  64.3058730  34.6563230 124.0314140  65.1828910  34.6646630 124.4148140
  64.3179570  33.9194070 123.4206490  51.1222510  32.1479840 116.4945610
  51.7698700  31.5977220 116.0540770  51.5424350  32.4022990 117.3161420
  56.1824910  47.0314700 119.0033840  55.9416270  47.2989260 118.1164360
  57.1227550  47.2020430 119.0584700  58.3879330  33.4947390 122.7590350
  58.3268220  34.0869220 123.5085760  59.3279710  33.3873350 122.6140610
  61.0253890  33.1517450 122.3982640  61.6394300  33.4696740 121.7363720
  61.5703450  32.6666040 123.0178500  65.1268520  49.6932500 117.0831220
  64.6671490  50.4448310 116.7089240  64.4980980  48.9738970 117.0246020
  51.9519140  45.7875740 119.4729940  51.2253200  45.1681030 119.4055890
  52.0128290  46.1816350 118.6028020  55.5564240  48.0020740 116.2579350
  56.0729260  47.3908100 115.7327610  56.2061620  48.5049520 116.7490360
  50.2349140  49.1050130 112.6826700  50.0671180  48.4720810 113.3808590
  49.3683650  49.3109530 112.3320890  51.8411840  47.7983360 110.1276840
  51.3159460  48.1791390 109.4238800  51.7656420  48.4234130 110.8486550
  55.5495710  32.4790080 124.2158410  55.2679980  32.9823680 123.4519230
  55.9315410  31.6811830 123.8500540  54.4404810  49.7465740 109.0026090
  55.1723630  49.4625020 108.4549980  54.6998480  49.5079020 109.8925470
  53.6019600  45.8630470 109.0072420  52.9728480  46.3315570 109.5558250
  53.7167430  45.0179690 109.4418610  62.1511170  31.8943660 124.7938880
  62.0376620  32.2138270 125.6890400  62.9680910  32.2956170 124.4976160
  61.0569320  39.9136130  95.1573620  60.9763370  38.9990740  94.8865330
  60.6433740  40.4103200  94.4513330  59.1887360  41.6915150  97.0382890
  58.4129460  41.2115590  97.3281460  59.8400290  41.0120800  96.8639050
  53.2053190  42.0034960  97.9158650  52.3738070  41.7483670  98.3155160
  53.8134170  42.0745730  98.6516570  53.1854450  46.0375050  98.1116670
  53.4882490  45.1472790  97.9326890  53.9298040  46.5945270  97.8838920
  58.6296350  44.3672340  97.0453050  58.5604630  43.4262280  96.8842180
  59.3916210  44.4573750  97.6175620  50.8203020  34.9726860  99.3709670
  50.6405860  34.0752610  99.6512430  50.4183100  35.5198730 100.0456620
  51.4389690  37.4687360  97.9792010  52.1199800  37.7325730  98.5979410
  51.1237740  36.6288230  98.3130020  60.3021450  43.2672590  92.8317920
  59.6838720  43.7322040  92.2680640  60.8144700  43.9600070  93.2487430
  53.5965690  34.8663240  99.3398470  53.9382500  35.7105290  99.0452340
  52.6581500  35.0146980  99.4563810  57.2793580  32.3545510  95.6643060
  57.5868560  31.7992400  94.9478560  56.3494280  32.4889970  95.4816050
  62.8308640  48.0712800  97.9550520  62.8435800  47.6675090  97.0872780
  62.2783860  48.8460090  97.8511950  64.1254060  44.7929020  93.0440690
  64.0150390  43.8503350  93.1690110  64.1222310  45.1544660  93.9303450
  62.2294080  42.9742640  99.2833130  62.6462870  42.7602750  98.4486590
  62.9533900  43.2315430  99.8541750  59.6674340  40.4194340  92.4003180
  58.7403620  40.3531720  92.6291650  59.8199160  41.3574470  92.2858420
  59.6543420  36.6911340  89.3970340  58.7147090  36.8525300  89.4822800
  59.9726680  37.4097020  88.8506330  63.6971630  41.9814640  92.9038430
  63.0784050  41.6434190  92.2564730  63.6796080  41.3374400  93.6117620
  63.1398190  38.1599180 100.3204240  62.7269370  38.9852890 100.5744230
  62.4074140  37.5744220 100.1280600  55.7412680  44.6326640  97.3462120
  55.4440970  44.0272110  96.6669900  56.6912500  44.6703950  97.2351480
  61.8736330  41.2201450  89.9111180  62.3129610  40.3823880  89.7649000
  62.5864750  41.8530850  89.9975320  59.9831710  46.1597520  93.8792420
  60.4227620  46.9021850  93.4647810  59.9218600  46.4024090  94.8031380
  49.6120980  43.0119200  98.4898200  49.6901400  43.1467970  97.5453920
  50.2262660  42.3035090  98.6826320  49.6680500  44.0533370 101.0292660
  49.8311540  43.5838730 100.2112030  50.1332950  43.5456930 101.6941500
  54.4399270  33.1839130  96.0653230  53.9967420  33.9648670  95.7337750
  54.9984260  33.5069020  96.7724170  58.7269080  36.0507650 101.6688550
  58.2648450  36.2590670 102.4808490  58.3247190  35.2367000 101.3659220
  57.5558090  32.8049830  90.9459060  56.9312270  32.8009700  91.6712370
  57.4688210  31.9380790  90.5495030  56.4775170  33.7286460  97.9242830
  56.7747500  34.6349290  97.8434850  57.0260730  33.2405240  97.3102400
  61.4611250  38.3136070  92.3925130  60.8620140  39.0371870  92.2088750
  62.0090860  38.2512850  91.6101580  51.8023240  35.6171950 102.6128530
  51.4086630  36.4647160 102.8201310  51.1141640  34.9798320 102.8037170
  58.3768290  35.7006920 105.6825270  57.6866610  35.5079120 106.3171360
  59.1200590  35.9841560 106.2149570  49.2910520  37.4820530  87.8561330
  49.2085190  38.4251290  87.9976320  48.9393580  37.3395440  86.9773680
  60.6531260  39.5405360  98.5179190  59.9212380  40.0492170  98.8669290
  60.2555600  38.7235340  98.2167970  57.0908650  36.2159560  96.9231680
  57.0944710  35.7749510  96.0736220  57.9859770  36.5376890  97.0303500
  57.1528800  37.2171640  89.9138440  57.2741620  37.1758120  90.8624260
  56.7677310  38.0795790  89.7585170  56.1650300  39.5272780  89.3121740
  55.5967200  39.0791030  88.6857650  56.8739300  39.8865560  88.7786890
  51.2419480  43.4284800 103.1888470  50.8574270  42.7878470 103.7871430
  51.5531670  44.1320920 103.7583200  59.9295700  33.9134290  91.5203930
  59.1160310  33.4147460  91.4449240  59.7357650  34.7532540  91.1040280
  62.6444090  38.2853940  89.8166090  63.5323710  38.5971170  89.6417430
  62.6149180  37.4126190  89.4246670  58.6404680  44.4577630  90.4954260
  58.9820380  45.2019860  89.9997580  57.8117390  44.7708750  90.8579090
  65.9445610  46.4508040  92.0128080  65.3021770  45.7963660  92.2871800
  65.5576270  46.8563130  91.2368750  61.5232090  43.7793470  95.8599770
  61.8755910  43.1821600  95.2001140  60.6394420  43.4537700  96.0308020
  57.6095370  44.5391160  93.2670180  58.2966500  45.0860370  93.6477770
  56.8227790  45.0831890  93.3019790  49.7487770  40.1563980  88.7587260
  50.6182620  40.4388780  89.0423180  49.2578090  40.9699850  88.6436070
  59.2155190  47.0543530 100.1087840  59.8597410  47.2602910 100.7861260
  59.5784630  46.2931930  99.6558690  60.4887270  45.0575880  98.8265290
  61.1309500  44.3569040  98.9397460  61.0136620  45.8374320  98.6462180
  64.3342990  45.3424500  88.5504430  64.1080570  44.6254940  89.1429070
  63.9439190  45.0936940  87.7126180  49.8128290  33.6465960 102.8124760
  49.0986810  33.8462880 103.4177370  50.2323330  32.8705530 103.1839560
  63.9159240  43.2596440  90.2118590  63.6280940  43.7209130  90.9996470
  64.7111410  42.7994210  90.4802810  54.8448150  35.6816240  90.1622360
  55.6938680  36.1186390  90.0962550  54.4779420  35.9936500  90.9894420
  53.7439570  41.9348600  88.6357890  54.5102840  41.8229960  89.1983320
  53.8214260  41.2386570  87.9834660  52.4386330  39.3673670  89.3190780
  52.5189920  38.4201180  89.4308180  53.3306080  39.6980550  89.4251440
  53.2401040  49.5169060  96.4225320  53.9763520  48.9684520  96.6933890
  53.6241960  50.3825070  96.2831310  62.5124320  48.5375290 104.1695720
  63.4646070  48.4533310 104.1195960  62.3652540  49.2017000 104.8429510
  65.4033520  47.9169500  89.6687630  65.1175030  47.5034640  88.8541810
  65.2053070  48.8457210  89.5488150  49.9657130  41.1888590 104.5546950
  50.4696150  40.6095870 105.1263180  49.2264550  41.4728820 105.0923320
  56.8680750  43.9102780  88.1093240  56.7631390  43.2955130  88.8354620
  56.7004970  43.3868670  87.3256250  60.1083480  42.9722810  88.7135230
  59.5593580  43.4192110  89.3577970  60.7302740  42.4672060  89.2372900
  55.7758600  41.9313730  90.6100530  56.1975020  41.7653600  91.4531920
  55.9009440  41.1213960  90.1155670  58.2886240  40.9551340  87.8577630
  58.8091900  40.2400360  87.4918780  58.9354640  41.5937210  88.1578140
  54.4258320  34.8772650 103.4968800  54.3315190  34.2593400 102.7719670
  53.8455710  35.6038940 103.2698710  59.9343210  40.0616400 102.5346470
  60.0539420  39.4657540 103.2741310  60.7937210  40.0986090 102.1147770
  62.2731110  40.6153590 101.1108980  61.7466330  41.1396210 100.5074120
  62.6162450  41.2480980 101.7418710  54.6717500  38.0046960  87.5558690
  54.4706560  37.1414320  87.9172030  54.5009550  37.9180320  86.6180290
  62.1505810  32.8155190  90.0845570  62.4308100  31.9723090  90.4404990
  61.3771540  33.0478300  90.5984320  53.4700300  35.1047580  87.5436570
  53.7726200  35.1115010  86.6355720  54.2094890  34.7545440  88.0404230
  58.3048940  49.8704440 102.5253010  58.2307640  50.7739580 102.8325380
  57.4027780  49.5516340 102.4975080  56.6885230  34.0482200  88.5292770
  56.3407230  33.3706190  87.9495220  56.8898000  33.5871710  89.3436160
  50.1966440  48.0649620  98.5668260  49.7597430  48.2450420  99.3992410
  50.7644120  48.8224240  98.4249980  67.0730070  45.3084440  88.1915280
  66.2423030  45.3761090  88.6622510  67.2501900  46.1988560  87.8882140
  66.5286530  42.0531920  90.6949480  67.2905440  42.6228570  90.8009170
  66.5440900  41.4859120  91.4657790  50.0290870  40.5769850  94.9257140
  49.3739710  40.3081490  94.2816840  50.8668820  40.4674330  94.4759120
  62.9781310  35.3711140  89.1475630  63.3966190  35.1842120  88.3072290
  62.6717370  34.5190190  89.4578560  51.0666800  40.9622420  99.4660480
  51.4339840  40.8749820 100.3456500  50.4977620  40.1988970  99.3667340
  65.8670660  39.4306800 102.4790950  65.6356750  39.2019550 101.5788900
  66.1275210  40.3506350 102.4335840  50.6182800  37.8731510 103.3718900
  49.7238850  37.8398270 103.7112610  51.1580350  38.0718300 104.1370150
  51.7856160  36.8434320  88.7776850  52.4947860  36.4217540  88.2924130
  51.0696100  36.9109550  88.1460200  51.4330320  32.8973650  87.8179500
  52.1558450  33.4382590  88.1360720  51.7054840  32.6237070  86.9421040
  65.2421970  37.7666120  92.0851080  65.7381090  37.5336990  92.8699960
  65.0438040  36.9277960  91.6688720  51.1222510  32.1479840  97.7202120
  51.7698700  31.5977220  97.2797280  51.5424350  32.4022990  98.5417930
  64.5756310  49.0437200  94.4790000  65.1715380  48.7221770  93.8024420
  64.8334460  48.5709020  95.2703270  50.8754510  32.3035510 100.4627440
  50.5269330  32.7599330 101.2285620  50.5442210  31.4092640 100.5449870
  61.0253890  33.1517450 103.6239150  61.6394300  33.4696740 102.9620230
  61.5703450  32.6666040 104.2435010  55.5564240  48.0020740  97.4835860
  56.0729260  47.3908100  96.9584120  56.2061620  48.5049520  97.9746870
  58.2959740  48.8929230  98.3104840  58.5837550  48.6383530  97.4337850
  58.8082960  48.3406590  98.9010410  57.3990970  35.0506180  94.4017380
  56.5865480  34.6763070  94.0613260  57.9032610  34.2951260  94.7038570
  53.2302310  33.4630960  89.9517040  53.7595070  32.6760760  89.8224990
  53.8630630  34.1422150  90.1852570  55.4240150  33.2006100  93.0062430
  54.7942890  32.4993410  93.1732560  54.8845290  33.9610230  92.7895590
  66.5977160  49.3570900  92.6747290  66.7729350  48.6708640  92.0308210
  65.8998730  49.8817950  92.2823960  64.9309660  49.0415190 105.5014080
  65.7234980  48.5464420 105.2940040  65.2242810  49.7205330 106.1089690
  51.6145140  36.9636850  72.9257550  50.7261840  37.3052820  72.8237430
  51.8986330  36.7637170  72.0338380  49.6704650  43.9529120  71.4314060
  49.2932630  44.4416220  70.6998960  49.9277720  44.6254400  72.0620590
  65.2949900  46.2268670  80.4661850  64.6113420  46.8967780  80.4578520
  65.8344190  46.4249320  79.7006710  64.1254060  44.7929020  74.2697200
  64.0150390  43.8503350  74.3946620  64.1222310  45.1544660  75.1559960
  62.2294080  42.9742640  80.5089640  62.6462870  42.7602750  79.6743100
  62.9533900  43.2315430  81.0798260  66.1756180  41.3729860  80.6005880
  65.3474810  41.4422950  80.1256010  66.7706660  41.9584170  80.1321710
  63.6971630  41.9814640  74.1294940  63.0784050  41.6434190  73.4821240
  63.6796080  41.3374400  74.8374130  63.1398190  38.1599180  81.5460750
  62.7269370  38.9852890  81.8000740  62.4074140  37.5744220  81.3537110
  54.8331110  44.3708330  85.2226430  53.9359640  44.5948300  85.4699830
  54.8583980  44.4943270  84.2737830  61.8736330  41.2201450  71.1367690
  62.3129610  40.3823880  70.9905510  62.5864750  41.8530850  71.2231830
  53.6602330  41.2421650  83.7983800  53.5210100  42.1144450  84.1671200
  52.7783690  40.8994460  83.6531740  55.4582680  47.1843350  86.0068950
  55.4298110  47.5886300  85.1397380  55.2947650  46.2553710  85.8440550
  51.9735610  39.8404060  73.9086070  51.8533210  40.5666150  73.2967340
  51.6636500  39.0706970  73.4313980  67.4097500  47.9670450  87.3033120
  67.8857220  48.4453340  87.9822200  68.0304660  47.8987940  86.5778620
  66.8130750  45.1583300  84.4633130  66.9393810  44.9195180  83.5450310
  66.8552130  44.3267840  84.9355210  62.6501890  49.1466640  72.4611940
  62.4903030  48.8569580  73.3593770  62.4848600  48.3706770  71.9257170
  62.3528020  46.6554200  71.0209940  61.6593180  46.6531490  70.3612220
  63.0950880  46.2313520  70.5904110  49.6680500  44.0533370  82.2549170
  49.8311540  43.5838730  81.4368540  50.1332950  43.5456930  82.9198010
  58.7269080  36.0507650  82.8945060  58.2648450  36.2590670  83.7065000
  58.3247190  35.2367000  82.5915730  60.8223300  38.7718350  86.1240510
  61.1476710  37.9382100  85.7842740  61.6103630  39.2946870  86.2718840
  54.2313490  38.3072700  75.0190990  54.0054410  38.0909870  75.9237610
  53.4506020  38.7401160  74.6736960  56.6712700  39.2058280  85.6851260
  56.5756300  38.2653010  85.5351660  57.5144680  39.4273350  85.2899330
  51.8023240  35.6171950  83.8385040  51.4086630  36.4647160  84.0457820
  51.1141640  34.9798320  84.0293680  58.3768290  35.7006920  86.9081780
  57.6866610  35.5079120  87.5427870  59.1200590  35.9841560  87.4406080
  56.1650300  39.5272780  70.5378250  55.5967200  39.0791030  69.9114160
  56.8739300  39.8865560  70.0043400  51.2419480  43.4284800  84.4144980
  50.8574270  42.7878470  85.0127940  51.5531670  44.1320920  84.9839710
  53.7097780  43.5230970  72.8104660  52.9360040  42.9828590  72.6503380
  54.4392410  43.0037580  72.4722420  64.4685760  42.5196330  78.6031050
  65.1884880  43.0151620  78.2127160  64.2667580  41.8414220  77.9584920
  59.8504560  42.5905390  84.4900050  59.7841870  41.6701060  84.2357640
  59.2209700  42.6880830  85.2044690  51.2379720  40.1572720  83.3609170
  50.8794660  40.8226570  83.9482510  50.9434280  39.3256270  83.7321790
  54.4392840  40.6156960  86.2448720  54.1392980  40.7614140  85.3476540
  55.2104080  40.0562250  86.1522110  59.7821290  45.4125960  84.2403850
  59.7965830  44.4806920  84.0222760  59.0746390  45.4985720  84.8793620
  64.9158360  39.5965780  70.5102460  64.8322080  40.0280000  69.6598900
  65.6352550  40.0564130  70.9429280  65.9932500  42.0533300  83.5872430
  65.2680690  42.6462080  83.3901820  66.5207960  42.0456840  82.7885800
  65.9445610  46.4508040  73.2384590  65.3021770  45.7963660  73.5128310
  65.5576270  46.8563130  72.4625260  49.7487770  40.1563980  69.9843770
  50.6182620  40.4388780  70.2679690  49.2578090  40.9699850  69.8692580
  52.8134360  31.8874840  74.5774570  52.6848990  31.8792740  75.5259490
  51.9896380  32.2257930  74.2265580  64.3342990  45.3424500  69.7760940
  64.1080570  44.6254940  70.3685580  63.9439190  45.0936940  68.9382690
  62.2624890  45.8570780  83.2557860  62.5981130  46.4437470  83.9335780
  61.3425230  45.7263490  83.4855650  50.1159020  49.3691360  70.5505400
  50.4756660  49.9680700  69.8962670  49.9751360  49.9151250  71.3240430
  49.8128290  33.6465960  84.0381270  49.0986810  33.8462880  84.6433880
  50.2323330  32.8705530  84.4096070  63.9159240  43.2596440  71.4375100
  63.6280940  43.7209130  72.2252980  64.7111410  42.7994210  71.7059320
  50.1000880  47.6346220  85.0247800  50.2092000  46.6940960  84.8843190
  49.4481440  47.9000970  84.3761530  51.7334280  41.9737450  72.1125830
  51.1262230  42.7136350  72.1221130  52.2083630  42.0636810  71.2864030
  61.3067070  36.1388270  81.7882720  61.6747890  35.3183480  82.1162290
  60.4465270  36.1990160  82.2038370  59.1187240  46.8150800  70.0304260
  59.2199220  46.6114790  69.1006240  58.2188980  46.5609080  70.2352040
  56.6413130  37.3731160  74.0128160  55.9329280  37.8417500  74.4541770
  56.9257610  36.7153170  74.6473350  58.2669060  38.7927860  82.0120690
  58.7654310  39.2673680  82.6772540  58.4092010  37.8691380  82.2190720
  63.7657930  40.2529000  76.3010440  62.8248070  40.2679230  76.4758130
  64.0802000  39.4664960  76.7470740  53.7439570  41.9348600  69.8614400
  54.5102840  41.8229960  70.4239830  53.8214260  41.2386570  69.2091170
  52.4386330  39.3673670  70.5447290  52.5189920  38.4201180  70.6564690
  53.3306080  39.6980550  70.6507950  65.7683510  47.4237850  77.9764700
  65.8930930  48.2469020  78.4488510  66.6349070  47.2128580  77.6288850
  53.2401040  49.5169060  77.6481830  53.9763520  48.9684520  77.9190400
  53.6241960  50.3825070  77.5087820  50.1246520  45.5842630  73.5223340
  49.1986300  45.8263770  73.5128750  50.5902950  46.4116890  73.4008090
  65.4033520  47.9169500  70.8944140  65.1175030  47.5034640  70.0798320
  65.2053070  48.8457210  70.7744660  49.9657130  41.1888590  85.7803460
  50.4696150  40.6095870  86.3519690  49.2264550  41.4728820  86.3179830
  56.8680750  43.9102780  69.3349750  56.7631390  43.2955130  70.0611130
  56.7004970  43.3868670  68.5512760  57.0195070  42.5959580  85.3138980
  56.2540740  43.1644580  85.2293650  57.2011030  42.3035790  84.4207210
  60.1083480  42.9722810  69.9391740  59.5593580  43.4192110  70.5834480
  60.7302740  42.4672060  70.4629410  64.1618420  44.3264910  85.8714000
  64.9027890  44.6640670  85.3681460  63.3991100  44.4956970  85.3183770
  51.9980210  39.3318180  86.6753530  52.0385550  39.0332050  87.5838760
  52.8525710  39.7325790  86.5161050  55.7758600  41.9313730  71.8357040
  56.1975020  41.7653600  72.6788430  55.9009440  41.1213960  71.3412180
  53.9386020  37.9110280  84.6428020  53.4082480  37.4201230  84.0151360
  54.6074090  38.3394480  84.1085950  62.8364080  42.3779740  84.4069210
  63.2505100  42.5324820  85.2559630  61.9015080  42.5034960  84.5694990
  54.4258320  34.8772650  84.7225310  54.3315190  34.2593400  83.9976180
  53.8455710  35.6038940  84.4955220  59.9343210  40.0616400  83.7602980
  60.0539420  39.4657540  84.4997820  60.7937210  40.0986090  83.3404280
  62.2731110  40.6153590  82.3365490  61.7466330  41.1396210  81.7330630
  62.6162450  41.2480980  82.9675220  54.6717500  38.0046960  68.7815200
  54.4706560  37.1414320  69.1428540  54.5009550  37.9180320  67.8436800
  55.4486730  48.6353230  83.4922870  54.9107820  49.3599290  83.1731570
  55.7020690  48.1583570  82.7020210  56.7011980  36.6037750  85.0178800
  57.2911670  36.2953600  85.7056620  55.8832220  36.1317500  85.1738700
  61.5205410  36.2203560  85.2511820  60.8320930  35.5585100  85.1861810
  62.2411430  35.7741830  85.6960280  62.1505810  32.8155190  71.3102080
  62.4308100  31.9723090  71.6661500  61.3771540  33.0478300  71.8240830
  52.4930430  44.4090000  69.6022880  52.9305300  44.9519670  70.2580460
  52.9778160  43.5836950  69.6119220  49.7076230  47.1979030  77.0543140
  50.0379240  46.3300090  76.8221780  50.1367230  47.4037550  77.8848100
  50.1966440  48.0649620  79.7924770  49.7597430  48.2450420  80.6248920
  50.7644120  48.8224240  79.6506490  65.8328620  47.5666620  84.0802080
  65.2330610  47.6259180  83.3366000  65.9622520  46.6271600  84.2098930
  66.5286530  42.0531920  71.9205990  67.2905440  42.6228570  72.0265680
  66.5440900  41.4859120  72.6914300  67.5346500  42.9082020  76.7647920
  67.9055330  42.1249340  76.3583890  68.1748430  43.5971120  76.5865220
  64.5180260  44.2918600  82.1778240  63.7040100  44.7215760  82.4404030
  64.9254460  44.9037010  81.5647290  66.5805700  42.3466290  69.0778510
  66.8554540  43.2545170  68.9497730  66.3916440  42.2828820  70.0140500
  66.4771040  40.2835280  74.0707940  66.1014640  39.5163210  73.6389230
  65.7474160  40.6657980  74.5582870  50.6182800  37.8731510  84.5975410
  49.7238850  37.8398270  84.9369120  51.1580350  38.0718300  85.3626660
  65.9311720  38.5932640  80.8934730  64.9814430  38.5596180  81.0079720
  66.1124730  39.5032750  80.6584500  52.4818880  45.4755110  85.8537140
  52.4388510  45.1048020  86.7351600  52.6129890  46.4132680  85.9938960
  56.1824910  47.0314700  81.4546860  55.9416270  47.2989260  80.5677380
  57.1227550  47.2020430  81.5097720  58.3879330  33.4947390  85.2103370
  58.3268220  34.0869220  85.9598780  59.3279710  33.3873350  85.0653630
  61.0253890  33.1517450  84.8495660  61.6394300  33.4696740  84.1876740
  61.5703450  32.6666040  85.4691520  52.3206910  48.4217360  82.9734920
  51.7267230  48.2902060  83.7124960  52.3130750  47.5855500  82.5077020
  61.7661930  31.7149590  81.1764950  60.8921770  32.0484700  80.9737880
  61.6572680  31.2422770  82.0016820  51.9519140  45.7875740  81.9242960
  51.2253200  45.1681030  81.8568910  52.0128290  46.1816350  81.0541040
  59.5136750  32.6319430  80.1157860  58.7308540  33.1064930  80.3954620
  59.2199680  31.7274260  80.0071040  50.2349140  49.1050130  75.1339720
  50.0671180  48.4720810  75.8321610  49.3683650  49.3109530  74.7833910
  50.8577160  32.9366910  72.6371580  51.6156520  33.0495790  72.0635610
  50.3954330  33.7736110  72.5915010  51.8411840  47.7983360  72.5789860
  51.3159460  48.1791390  71.8751820  51.7656420  48.4234130  73.2999570
  62.1511170  31.8943660  87.2451900  62.0376620  32.2138270  88.1403420
  62.9680910  32.2956170  86.9489180  61.0569320  39.9136130  57.6086640
  60.9763370  38.9990740  57.3378350  60.6433740  40.4103200  56.9026350
  59.1887360  41.6915150  59.4895910  58.4129460  41.2115590  59.7794480
  59.8400290  41.0120800  59.3152070  53.2053190  42.0034960  60.3671670
  52.3738070  41.7483670  60.7668180  53.8134170  42.0745730  61.1029590
  63.2094790  46.0975340  58.2695040  62.7476320  45.3262580  58.5982210
  64.0220340  46.1241410  58.7747490  59.4358100  48.3833350  57.8899030
  58.8169540  48.8390850  57.3193470  60.2909880  48.5384810  57.4888730
  58.6296350  44.3672340  59.4966070  58.5604630  43.4262280  59.3355200
  59.3916210  44.4573750  60.0688640  50.8203020  34.9726860  61.8222690
  50.6405860  34.0752610  62.1025450  50.4183100  35.5198730  62.4969640
  67.7325190  36.6859910  63.2206970  67.0277360  37.0741620  62.7022080
  67.9983110  37.3810200  63.8227900  53.9150360  33.1553280  63.7841040
  53.9168800  33.6725670  62.9786940  53.0854670  32.6783460  63.7610970
  60.3021450  43.2672590  55.2830940  59.6838720  43.7322040  54.7193660
  60.8144700  43.9600070  55.7000450  55.1653210  42.7948460  61.9614540
  54.8322590  43.4217380  62.6035610  55.3419890  43.3210340  61.1816210
  63.6787120  36.6093540  59.4290880  62.9742690  36.8978430  60.0093990
  64.0399280  37.4193650  59.0690440  53.5965690  34.8663240  61.7911490
  53.9382500  35.7105290  61.4965360  52.6581500  35.0146980  61.9076830
  54.3772310  44.7629260  63.7763720  54.9946310  45.4380340  63.4948170
  53.5165430  45.1717240  63.6851220  49.6704650  43.9529120  52.6570570
  49.2932630  44.4416220  51.9255470  49.9277720  44.6254400  53.2877100
  66.7474040  36.0548330  59.8200090  65.7998950  36.0887310  59.9515520
  67.0724030  36.8687280  60.2049450  62.8308640  48.0712800  60.4063540
  62.8435800  47.6675090  59.5385800  62.2783860  48.8460090  60.3024970
  62.2294080  42.9742640  61.7346150  62.6462870  42.7602750  60.8999610
  62.9533900  43.2315430  62.3054770  59.6674340  40.4194340  54.8516200
  58.7403620  40.3531720  55.0804670  59.8199160  41.3574470  54.7371440
  59.6543420  36.6911340  51.8483360  58.7147090  36.8525300  51.9335820
  59.9726680  37.4097020  51.3019350  66.1756180  41.3729860  61.8262390
  65.3474810  41.4422950  61.3512520  66.7706660  41.9584170  61.3578220
  63.6971630  41.9814640  55.3551450  63.0784050  41.6434190  54.7077750
  63.6796080  41.3374400  56.0630640  63.1398190  38.1599180  62.7717260
  62.7269370  38.9852890  63.0257250  62.4074140  37.5744220  62.5793620
  55.2730980  40.9459080  57.6335930  54.8687980  40.2336330  57.1381830
  55.3594100  40.6012320  58.5223970  55.7412680  44.6326640  59.7975140
  55.4440970  44.0272110  59.1182920  56.6912500  44.6703950  59.6864500
  53.9859600  37.7202290  61.4134970  54.5374190  37.8297630  60.6388220
  54.5003110  38.0939890  62.1290200  54.8331110  44.3708330  66.4482940
  53.9359640  44.5948300  66.6956340  54.8583980  44.4943270  65.4994340
  53.6602330  41.2421650  65.0240310  53.5210100  42.1144450  65.3927710
  52.7783690  40.8994460  64.8788250  59.9831710  46.1597520  56.3305440
  60.4227620  46.9021850  55.9160830  59.9218600  46.4024090  57.2544400
  55.4582680  47.1843350  67.2325460  55.4298110  47.5886300  66.3653890
  55.2947650  46.2553710  67.0697060  65.4553470  32.4744260  50.6765240
  65.1426130  32.5671090  51.5764310  66.2165940  33.0525290  50.6262670
  66.8130750  45.1583300  65.6889640  66.9393810  44.9195180  64.7706820
  66.8552130  44.3267840  66.1611720  60.6747490  48.8611300  64.2584450
  61.1892160  48.7719310  65.0606880  59.8316570  49.2071000  64.5512360
  58.7269080  36.0507650  64.1201570  58.2648450  36.2590670  64.9321510
  58.3247190  35.2367000  63.8172240  61.4611250  38.3136070  54.8438150
  60.8620140  39.0371870  54.6601770  62.0090860  38.2512850  54.0614600
  49.1040290  33.5400410  59.0971630  48.8153340  34.1103270  59.8096610
  49.8486050  33.0604860  59.4602860  60.6531260  39.5405360  60.9692210
  59.9212380  40.0492170  61.3182310  60.2555600  38.7235340  60.6680990
  61.1157170  34.9939040  60.3815150  61.1329910  35.4447690  61.2257000
  60.8672750  34.0944680  60.5948590  56.1650300  39.5272780  51.7634760
  55.5967200  39.0791030  51.1370670  56.8739300  39.8865560  51.2299910
  64.5427920  32.4071220  66.2201530  64.8673690  31.6760880  66.7459510
  64.5784430  32.0884860  65.3182520  51.2419480  43.4284800  65.6401490
  50.8574270  42.7878470  66.2384450  51.5531670  44.1320920  66.2096220
  57.3916620  40.2761340  61.1210110  57.7586750  39.8019910  61.8671450
  57.2021680  41.1502910  61.4618450  50.2557110  35.0205030  57.2503580
  49.9704030  34.6560700  58.0882200  50.1935970  34.2885490  56.6366720
  55.1815990  39.3169980  63.4394320  54.8773060  40.1961960  63.6644680
  56.1362450  39.3769770  63.4751760  53.7097780  43.5230970  54.0361170
  52.9360040  42.9828590  53.8759890  54.4392410  43.0037580  53.6978930
  64.4685760  42.5196330  59.8287560  65.1884880  43.0151620  59.4383670
  64.2667580  41.8414220  59.1841430  59.8504560  42.5905390  65.7156560
  59.7841870  41.6701060  65.4614150  59.2209700  42.6880830  66.4301200
  53.7535180  43.1911350  57.6739980  54.2713850  42.3879610  57.6196870
  53.3019200  43.1290490  58.5156810  58.6404680  44.4577630  52.9467280
  58.9820380  45.2019860  52.4510600  57.8117390  44.7708750  53.3092110
  54.4392840  40.6156960  67.4705230  54.1392980  40.7614140  66.5733050
  55.2104080  40.0562250  67.3778620  59.7821290  45.4125960  65.4660360
  59.7965830  44.4806920  65.2479270  59.0746390  45.4985720  66.1050130
  65.9932500  42.0533300  64.8128940  65.2680690  42.6462080  64.6158330
  66.5207960  42.0456840  64.0142310  61.5232090  43.7793470  58.3112790
  61.8755910  43.1821600  57.6514160  60.6394420  43.4537700  58.4821040
  57.6095370  44.5391160  55.7183200  58.2966500  45.0860370  56.0990790
  56.8227790  45.0831890  55.7532810  56.9122580  41.5437190  55.3308560
  57.3685360  42.3542440  55.5568750  56.5610790  41.2260330  56.1627050
  59.2155190  47.0543530  62.5600860  59.8597410  47.2602910  63.2374280
  59.5784630  46.2931930  62.1071710  60.4887270  45.0575880  61.2778310
  61.1309500  44.3569040  61.3910480  61.0136620  45.8374320  61.0975200
  62.2624890  45.8570780  64.4814370  62.5981130  46.4437470  65.1592290
  61.3425230  45.7263490  64.7112160  50.1000880  47.6346220  66.2504310
  50.2092000  46.6940960  66.1099700  49.4481440  47.9000970  65.6018040
  58.0913470  45.9062110  67.6502430  57.7710340  45.1871350  68.1948120
  57.4171830  46.5817180  67.7238490  56.1327640  46.7522560  52.5935580
  56.1237740  47.4852250  51.9780090  55.2126000  46.5054140  52.6862540
  61.3067070  36.1388270  63.0139230  61.6747890  35.3183480  63.3418800
  60.4465270  36.1990160  63.4294880  58.2669060  38.7927860  63.2377200
  58.7654310  39.2673680  63.9029050  58.4092010  37.8691380  63.4447230
  57.7605350  49.3337120  55.9508440  58.0146850  49.2958510  55.0287810
  56.8117830  49.2070450  55.9436690  65.4735920  35.0095820  64.0805590
  64.9709520  35.7501220  64.4199400  66.2892580  35.3979820  63.7642380
  63.7657930  40.2529000  57.5266950  62.8248070  40.2679230  57.7014640
  64.0802000  39.4664960  57.9727250  50.1246520  45.5842630  54.7479850
  49.1986300  45.8263770  54.7385260  50.5902950  46.4116890  54.6264600
  52.2459320  48.7015130  68.0623920  53.0472050  49.0227180  68.4759320
  51.7311140  48.3410710  68.7843830  61.0823950  44.8095000  68.0099330
  60.4762110  44.8326600  67.2695080  60.7778060  44.0778040  68.5466580
  49.9657130  41.1888590  67.0059970  50.4696150  40.6095870  67.5776200
  49.2264550  41.4728820  67.5436340  56.8680750  43.9102780  50.5606260
  56.7631390  43.2955130  51.2867640  56.7004970  43.3868670  49.7769270
  57.0195070  42.5959580  66.5395490  56.2540740  43.1644580  66.4550160
  57.2011030  42.3035790  65.6463720  60.1083480  42.9722810  51.1648250
  59.5593580  43.4192110  51.8090990  60.7302740  42.4672060  51.6885920
  64.1618420  44.3264910  67.0970510  64.9027890  44.6640670  66.5937970
  63.3991100  44.4956970  66.5440280  51.9980210  39.3318180  67.9010040
  52.0385550  39.0332050  68.8095270  52.8525710  39.7325790  67.7417560
  55.7758600  41.9313730  53.0613550  56.1975020  41.7653600  53.9044940
  55.9009440  41.1213960  52.5668690  53.9386020  37.9110280  65.8684530
  53.4082480  37.4201230  65.2407870  54.6074090  38.3394480  65.3342460
  58.2886240  40.9551340  50.3090650  58.8091900  40.2400360  49.9431800
  58.9354640  41.5937210  50.6091160  62.8364080  42.3779740  65.6325720
  63.2505100  42.5324820  66.4816140  61.9015080  42.5034960  65.7951500
  54.4258320  34.8772650  65.9481820  54.3315190  34.2593400  65.2232690
  53.8455710  35.6038940  65.7211730  57.1919760  33.4345890  62.9809210
  56.7437060  33.4570150  62.1354760  56.5584960  33.0364910  63.5779510
  57.5979310  42.3300220  63.6021650  58.0167420  43.1732950  63.4297890
  56.6787940  42.4672260  63.3728430  62.2731110  40.6153590  63.5622000
  61.7466330  41.1396210  62.9587140  62.6162450  41.2480980  64.1931730
  58.3048940  49.8704440  64.9766030  58.2307640  50.7739580  65.2838400
  57.4027780  49.5516340  64.9488100  56.6885230  34.0482200  50.9805790
  56.3407230  33.3706190  50.4008240  56.8898000  33.5871710  51.7949180
  58.8534270  49.0362950  52.5992390  59.7485060  49.3747920  52.6211150
  58.8851900  48.3142360  51.9716670  52.4930430  44.4090000  50.8279390
  52.9305300  44.9519670  51.4836970  52.9778160  43.5836950  50.8375730
  66.5286530  42.0531920  53.1462500  67.2905440  42.6228570  53.2522190
  66.5440900  41.4859120  53.9170810  67.5346500  42.9082020  57.9904430
  67.9055330  42.1249340  57.5840400  68.1748430  43.5971120  57.8121730
  64.5180260  44.2918600  63.4034750  63.7040100  44.7215760  63.6660540
  64.9254460  44.9037010  62.7903800  66.5805700  42.3466290  50.3035020
  66.8554540  43.2545170  50.1754240  66.3916440  42.2828820  51.2397010
  65.8670660  39.4306800  64.9303970  65.6356750  39.2019550  64.0301920
  66.1275210  40.3506350  64.8848860  65.7522000  38.5092770  58.5971690
  66.2759480  38.0155420  57.9661860  66.3381420  38.6443130  59.3419260
  65.9311720  38.5932640  62.1191240  64.9814430  38.5596180  62.2336230
  66.1124730  39.5032750  61.8841010  51.1222510  32.1479840  60.1715140
  51.7698700  31.5977220  59.7310300  51.5424350  32.4022990  60.9930950
  66.6709130  36.4027070  57.0701780  66.5608410  36.2483110  58.0084050
  67.4316720  35.8748010  56.8277190  65.0174850  32.3421200  63.5284780
  65.6547070  32.9555340  63.8943970  65.1649740  32.3781860  62.5834010
  50.8754510  32.3035510  62.9140460  50.5269330  32.7599330  63.6798640
  50.5442210  31.4092640  62.9962890  52.4818880  45.4755110  67.0793650
  52.4388510  45.1048020  67.9608110  52.6129890  46.4132680  67.2195470
  58.3879330  33.4947390  66.4359880  58.3268220  34.0869220  67.1855290
  59.3279710  33.3873350  66.2910140  61.0253890  33.1517450  66.0752170
  61.6394300  33.4696740  65.4133250  61.5703450  32.6666040  66.6948030
  61.7661930  31.7149590  62.4021460  60.8921770  32.0484700  62.1994390
  61.6572680  31.2422770  63.2273330  62.6733910  33.9220460  63.7863180
  62.3447270  33.1072220  63.4064910  63.6216210  33.8790270  63.6628870
  58.2959740  48.8929230  60.7617860  58.5837550  48.6383530  59.8850870
  58.8082960  48.3406590  61.3523430  59.5136750  32.6319430  61.3414370
  58.7308540  33.1064930  61.6211130  59.2199680  31.7274260  61.2327550
  64.0657820  33.3342530  59.3863460  64.5065910  33.2787630  58.5385060
  63.7965410  34.2500540  59.4573640  51.8411840  47.7983360  53.8046370
  51.3159460  48.1791390  53.1008330  51.7656420  48.4234130  54.5256080
  55.5495710  32.4790080  67.8927940  55.2679980  32.9823680  67.1288760
  55.9315410  31.6811830  67.5270070  53.6019600  45.8630470  52.6841950
  52.9728480  46.3315570  53.2327780  53.7167430  45.0179690  53.1188140
  62.1511170  31.8943660  68.4708410  62.0376620  32.2138270  69.3659930
  62.9680910  32.2956170  68.1745690  51.6145140  36.9636850  35.3770570
  50.7261840  37.3052820  35.2750450  51.8986330  36.7637170  34.4851400
  59.6601520  37.1742720  40.9491510  60.0366340  36.3014600  40.8365180
  59.5621030  37.5101420  40.0581950  53.7906530  35.5468350  36.4108950
  53.8973280  36.4472080  36.7177710  52.8798890  35.4986320  36.1203600
  55.1653210  42.7948460  43.1871050  54.8322590  43.4217380  43.8292120
  55.3419890  43.3210340  42.4072720  54.3772310  44.7629260  45.0020230
  54.9946310  45.4380340  44.7204680  53.5165430  45.1717240  44.9107730
  49.6704650  43.9529120  33.8827080  49.2932630  44.4416220  33.1511980
  49.9277720  44.6254400  34.5133610  65.2949900  46.2268670  42.9174870
  64.6113420  46.8967780  42.9091540  65.8344190  46.4249320  42.1519730
  62.8308640  48.0712800  41.6320050  62.8435800  47.6675090  40.7642310
  62.2783860  48.8460090  41.5281480  62.2294080  42.9742640  42.9602660
  62.6462870  42.7602750  42.1256120  62.9533900  43.2315430  43.5311280
  59.6543420  36.6911340  33.0739870  58.7147090  36.8525300  33.1592330
  59.9726680  37.4097020  32.5275860  63.6971630  41.9814640  36.5807960
  63.0784050  41.6434190  35.9334260  63.6796080  41.3374400  37.2887150
  63.8298290  48.2058510  44.6854750  63.3528850  49.0130700  44.4927360
  63.1460080  47.5536840  44.8380960  54.8331110  44.3708330  47.6739450
  53.9359640  44.5948300  47.9212850  54.8583980  44.4943270  46.7250850
  61.8736330  41.2201450  33.5880710  62.3129610  40.3823880  33.4418530
  62.5864750  41.8530850  33.6744850  65.4553470  32.4744260  31.9021750
  65.1426130  32.5671090  32.8020820  66.2165940  33.0525290  31.8519180
  51.9735610  39.8404060  36.3599090  51.8533210  40.5666150  35.7480360
  51.6636500  39.0706970  35.8827000  50.8568610  44.7119390  38.5773910
  50.4496690  44.8533980  37.7227510  51.7481620  44.4279550  38.3745120
  66.8130750  45.1583300  46.9146150  66.9393810  44.9195180  45.9963330
  66.8552130  44.3267840  47.3868230  55.1290270  48.9265170  36.6896580
  54.9532750  48.0100710  36.4764380  54.2746010  49.2852460  36.9294380
  66.6654760  37.2115760  47.8795890  66.0499030  37.7195430  47.3511350
  66.3451180  36.3114090  47.8221830  54.4399270  33.1839130  39.7422760
  53.9967420  33.9648670  39.4107280  54.9984260  33.5069020  40.4493700
  54.2313490  38.3072700  37.4704010  54.0054410  38.0909870  38.3750630
  53.4506020  38.7401160  37.1249980  61.4611250  38.3136070  36.0694660
  60.8620140  39.0371870  35.8858280  62.0090860  38.2512850  35.2871110
  49.2910520  37.4820530  31.5330860  49.2085190  38.4251290  31.6745850
  48.9393580  37.3395440  30.6543210  60.6531260  39.5405360  42.1948720
  59.9212380  40.0492170  42.5438820  60.2555600  38.7235340  41.8937500
  57.0908650  36.2159560  40.6001210  57.0944710  35.7749510  39.7505750
  57.9859770  36.5376890  40.7073030  64.5427920  32.4071220  47.4458040
  64.8673690  31.6760880  47.9716020  64.5784430  32.0884860  46.5439030
  57.3916620  40.2761340  42.3466620  57.7586750  39.8019910  43.0927960
  57.2021680  41.1502910  42.6874960  62.6444090  38.2853940  33.4935620
  63.5323710  38.5971170  33.3186960  62.6149180  37.4126190  33.1016200
  53.7535180  43.1911350  38.8996490  54.2713850  42.3879610  38.8453380
  53.3019200  43.1290490  39.7413320  64.9158360  39.5965780  32.9615480
  64.8322080  40.0280000  32.1111920  65.6352550  40.0564130  33.3942300
  61.5232090  43.7793470  39.5369300  61.8755910  43.1821600  38.8770670
  60.6394420  43.4537700  39.7077550  49.7487770  40.1563980  32.4356790
  50.6182620  40.4388780  32.7192710  49.2578090  40.9699850  32.3205600
  52.8134360  31.8874840  37.0287590  52.6848990  31.8792740  37.9772510
  51.9896380  32.2257930  36.6778600  64.3342990  45.3424500  32.2273960
  64.1080570  44.6254940  32.8198600  63.9439190  45.0936940  31.3895710
  50.1159020  49.3691360  33.0018420  50.4756660  49.9680700  32.3475690
  49.9751360  49.9151250  33.7753450  63.9159240  43.2596440  33.8888120
  63.6280940  43.7209130  34.6766000  64.7111410  42.7994210  34.1572340
  64.6729100  35.0945210  35.0483300  64.0442260  35.1990880  34.3341530
  64.1781020  35.3141990  35.8377180  59.1187240  46.8150800  32.4817280
  59.2199220  46.6114790  31.5519260  58.2188980  46.5609080  32.6865060
  56.6413130  37.3731160  36.4641180  55.9329280  37.8417500  36.9054790
  56.9257610  36.7153170  37.0986370  57.7605350  49.3337120  37.1764950
  58.0146850  49.2958510  36.2544320  56.8117830  49.2070450  37.1693200
  54.8448150  35.6816240  33.8391890  55.6938680  36.1186390  33.7732080
  54.4779420  35.9936500  34.6663950  65.7683510  47.4237850  40.4277720
  65.8930930  48.2469020  40.9001530  66.6349070  47.2128580  40.0801870
  53.2401040  49.5169060  40.0994850  53.9763520  48.9684520  40.3703420
  53.6241960  50.3825070  39.9600840  50.1246520  45.5842630  35.9736360
  49.1986300  45.8263770  35.9641770  50.5902950  46.4116890  35.8521110
  56.3503350  48.6899370  31.9220420  57.1431960  48.9788200  31.4702210
  55.8307700  48.2591540  31.2432900  61.0823950  44.8095000  49.2355840
  60.4762110  44.8326600  48.4951590  60.7778060  44.0778040  49.7723090
  62.5124320  48.5375290  47.8465250  63.4646070  48.4533310  47.7965490
  62.3652540  49.2017000  48.5199040  57.0195070  42.5959580  47.7652000
  56.2540740  43.1644580  47.6806670  57.2011030  42.3035790  46.8720230
  64.1618420  44.3264910  48.3227020  64.9027890  44.6640670  47.8194480
  63.3991100  44.4956970  47.7696790  62.8364080  42.3779740  46.8582230
  63.2505100  42.5324820  47.7072650  61.9015080  42.5034960  47.0208010
  57.5979310  42.3300220  44.8278160  58.0167420  43.1732950  44.6554400
  56.6787940  42.4672260  44.5984940  62.2731110  40.6153590  44.7878510
  61.7466330  41.1396210  44.1843650  62.6162450  41.2480980  45.4188240
  53.4700300  35.1047580  31.2206100  53.7726200  35.1115010  30.3125250
  54.2094890  34.7545440  31.7173760  56.6885230  34.0482200  32.2062300
  56.3407230  33.3706190  31.6264750  56.8898000  33.5871710  33.0205690
  58.8534270  49.0362950  33.8248900  59.7485060  49.3747920  33.8467660
  58.8851900  48.3142360  33.1973180  52.4930430  44.4090000  32.0535900
  52.9305300  44.9519670  32.7093480  52.9778160  43.5836950  32.0632240
  65.8328620  47.5666620  46.5315100  65.2330610  47.6259180  45.7879020
  65.9622520  46.6271600  46.6611950  66.5286530  42.0531920  34.3719010
  67.2905440  42.6228570  34.4778700  66.5440900  41.4859120  35.1427320
  50.0290870  40.5769850  38.6026670  49.3739710  40.3081490  37.9586370
  50.8668820  40.4674330  38.1528650  64.5180260  44.2918600  44.6291260
  63.7040100  44.7215760  44.8917050  64.9254460  44.9037010  44.0160310
  62.9781310  35.3711140  32.8245160  63.3966190  35.1842120  31.9841820
  62.6717370  34.5190190  33.1348090  49.2428950  37.7868780  34.5452000
  48.3393030  38.0498980  34.3703660  49.7269570  38.0579950  33.7651960
  51.4330320  32.8973650  31.4949030  52.1558450  33.4382590  31.8130250
  51.7054840  32.6237070  30.6190570  65.2421970  37.7666120  35.7620610
  65.7381090  37.5336990  36.5469490  65.0438040  36.9277960  35.3458250
  67.5599400  34.2334990  31.5364430  68.4848710  34.1016170  31.3282720
  67.5375190  34.3127810  32.4900880  52.4818880  45.4755110  48.3050160
  52.4388510  45.1048020  49.1864620  52.6129890  46.4132680  48.4451980
  65.1268520  49.6932500  41.9857260  64.6671490  50.4448310  41.6115280
  64.4980980  48.9738970  41.9272060  65.9296390  32.9657770  38.6228790
  65.8684790  32.0218990  38.4759810  66.7088420  33.0737860  39.1682250
  50.8577160  32.9366910  35.0884600  51.6156520  33.0495790  34.5148630
  50.3954330  33.7736110  35.0428030  65.0450550  32.1170190  34.5910260
  65.2401180  33.0153640  34.8577690  64.2580420  31.8857270  35.0843210
  51.8411840  47.7983360  35.0302880  51.3159460  48.1791390  34.3264840
  51.7656420  48.4234130  35.7512590  53.2302310  33.4630960  33.6286570
  53.7595070  32.6760760  33.4994520  53.8630630  34.1422150  33.8622100
  55.4240150  33.2006100  36.6831960  54.7942890  32.4993410  36.8502090
  54.8845290  33.9610230  36.4665120  55.5495710  32.4790080  49.1184450
  55.2679980  32.9823680  48.3545270  55.9315410  31.6811830  48.7526580
  54.4404810  49.7465740  33.9052130  55.1723630  49.4625020  33.3576020
  54.6998480  49.5079020  34.7951510  62.1511170  31.8943660  49.6964920
  62.0376620  32.2138270  50.5916440  62.9680910  32.2956170  49.4002200
  64.9309660  49.0415190  49.1783610  65.7234980  48.5464420  48.9709570
  65.2242810  49.7205330  49.7859220  61.0569320  39.9136130  20.0599660
  60.9763370  38.9990740  19.7891370  60.6433740  40.4103200  19.3539370
  59.1887360  41.6915150  21.9408930  58.4129460  41.2115590  22.2307500
  59.8400290  41.0120800  21.7665090  53.2053190  42.0034960  22.8184690
  52.3738070  41.7483670  23.2181200  53.8134170  42.0745730  23.5542610
  63.2094790  46.0975340  20.7208060  62.7476320  45.3262580  21.0495230
  64.0220340  46.1241410  21.2260510  53.1854450  46.0375050  23.0142710
  53.4882490  45.1472790  22.8352930  53.9298040  46.5945270  22.7864960
  51.6145140  36.9636850  16.6027080  50.7261840  37.3052820  16.5006960
  51.8986330  36.7637170  15.7107910  49.5778150  39.5642500  22.4866780
  50.1494260  38.7964700  22.4870420  49.5779690  39.8631260  21.5773390
  59.4358100  48.3833350  20.3412050  58.8169540  48.8390850  19.7706490
  60.2909880  48.5384810  19.9401750  58.6296350  44.3672340  21.9479090
  58.5604630  43.4262280  21.7868220  59.3916210  44.4573750  22.5201660
  50.8203020  34.9726860  24.2735710  50.6405860  34.0752610  24.5538470
  50.4183100  35.5198730  24.9482660  59.6601520  37.1742720  22.1748020
  60.0366340  36.3014600  22.0621690  59.5621030  37.5101420  21.2838460
  53.7906530  35.5468350  17.6365460  53.8973280  36.4472080  17.9434220
  52.8798890  35.4986320  17.3460110  63.4425640  34.6693160  19.1076360
  64.2635260  34.1789730  19.1501840  63.4759720  35.2590820  19.8608200
  51.4389690  37.4687360  22.8818050  52.1199800  37.7325730  23.5005450
  51.1237740  36.6288230  23.2156060  55.6314260  38.5154720  21.9690640
  56.1392480  39.0135690  22.6095660  56.1627500  37.7389920  21.7930000
  67.7325190  36.6859910  25.6719990  67.0277360  37.0741620  25.1535100
  67.9983110  37.3810200  26.2740920  53.9150360  33.1553280  26.2354060
  53.9168800  33.6725670  25.4299960  53.0854670  32.6783460  26.2123990
  60.3021450  43.2672590  17.7343960  59.6838720  43.7322040  17.1706680
  60.8144700  43.9600070  18.1513470  55.1653210  42.7948460  24.4127560
  54.8322590  43.4217380  25.0548630  55.3419890  43.3210340  23.6329230
  63.6787120  36.6093540  21.8803900  62.9742690  36.8978430  22.4607010
  64.0399280  37.4193650  21.5203460  53.5965690  34.8663240  24.2424510
  53.9382500  35.7105290  23.9478380  52.6581500  35.0146980  24.3589850
  54.3772310  44.7629260  26.2276740  54.9946310  45.4380340  25.9461190
  53.5165430  45.1717240  26.1364240  49.6704650  43.9529120  15.1083590
  49.2932630  44.4416220  14.3768490  49.9277720  44.6254400  15.7390120
  65.2949900  46.2268670  24.1431380  64.6113420  46.8967780  24.1348050
  65.8344190  46.4249320  23.3776240  66.7474040  36.0548330  22.2713110
  65.7998950  36.0887310  22.4028540  67.0724030  36.8687280  22.6562470
  57.2793580  32.3545510  20.5669100  57.5868560  31.7992400  19.8504600
  56.3494280  32.4889970  20.3842090  62.8308640  48.0712800  22.8576560
  62.8435800  47.6675090  21.9898820  62.2783860  48.8460090  22.7537990
  64.1254060  44.7929020  17.9466730  64.0150390  43.8503350  18.0716150
  64.1222310  45.1544660  18.8329490  62.2294080  42.9742640  24.1859170
  62.6462870  42.7602750  23.3512630  62.9533900  43.2315430  24.7567790
  59.6674340  40.4194340  17.3029220  58.7403620  40.3531720  17.5317690
  59.8199160  41.3574470  17.1884460  59.6543420  36.6911340  14.2996380
  58.7147090  36.8525300  14.3848840  59.9726680  37.4097020  13.7532370
  66.1756180  41.3729860  24.2775410  65.3474810  41.4422950  23.8025540
  66.7706660  41.9584170  23.8091240  63.6971630  41.9814640  17.8064470
  63.0784050  41.6434190  17.1590770  63.6796080  41.3374400  18.5143660
  63.1398190  38.1599180  25.2230280  62.7269370  38.9852890  25.4770270
  62.4074140  37.5744220  25.0306640  55.2730980  40.9459080  20.0848950
  54.8687980  40.2336330  19.5894850  55.3594100  40.6012320  20.9736990
  55.7412680  44.6326640  22.2488160  55.4440970  44.0272110  21.5695940
  56.6912500  44.6703950  22.1377520  53.9859600  37.7202290  23.8647990
  54.5374190  37.8297630  23.0901240  54.5003110  38.0939890  24.5803220
  54.8331110  44.3708330  28.8995960  53.9359640  44.5948300  29.1469360
  54.8583980  44.4943270  27.9507360  61.8736330  41.2201450  14.8137220
  62.3129610  40.3823880  14.6675040  62.5864750  41.8530850  14.9001360
  53.6602330  41.2421650  27.4753330  53.5210100  42.1144450  27.8440730
  52.7783690  40.8994460  27.3301270  59.9831710  46.1597520  18.7818460
  60.4227620  46.9021850  18.3673850  59.9218600  46.4024090  19.7057420
  55.4582680  47.1843350  29.6838480  55.4298110  47.5886300  28.8166910
  55.2947650  46.2553710  29.5210080  65.4553470  32.4744260  13.1278260
  65.1426130  32.5671090  14.0277330  66.2165940  33.0525290  13.0775690
  51.9735610  39.8404060  17.5855600  51.8533210  40.5666150  16.9736870
  51.6636500  39.0706970  17.1083510  49.6120980  43.0119200  23.3924240
  49.6901400  43.1467970  22.4479960  50.2262660  42.3035090  23.5852360
  50.8568610  44.7119390  19.8030420  50.4496690  44.8533980  18.9484020
  51.7481620  44.4279550  19.6001630  66.8130750  45.1583300  28.1402660
  66.9393810  44.9195180  27.2219840  66.8552130  44.3267840  28.6124740
  60.6747490  48.8611300  26.7097470  61.1892160  48.7719310  27.5119900
  59.8316570  49.2071000  27.0025380  62.6501890  49.1466640  16.1381470
  62.4903030  48.8569580  17.0363300  62.4848600  48.3706770  15.6026700
  55.1290270  48.9265170  17.9153090  54.9532750  48.0100710  17.7020890
  54.2746010  49.2852460  18.1550890  62.3528020  46.6554200  14.6979470
  61.6593180  46.6531490  14.0381750  63.0950880  46.2313520  14.2673640
  61.9177950  48.2816910  18.7727960  62.3734900  47.5006290  19.0866580
  62.2570470  48.9923730  19.3169140  49.6680500  44.0533370  25.9318700
  49.8311540  43.5838730  25.1138070  50.1332950  43.5456930  26.5967540
  54.4399270  33.1839130  20.9679270  53.9967420  33.9648670  20.6363790
  54.9984260  33.5069020  21.6750210  58.7269080  36.0507650  26.5714590
  58.2648450  36.2590670  27.3834530  58.3247190  35.2367000  26.2685260
  63.7273590  37.2716600  27.7011250  62.8767180  36.9722350  28.0220320
  63.5675380  37.5158610  26.7895070  60.8223300  38.7718350  29.8010040
  61.1476710  37.9382100  29.4612270  61.6103630  39.2946870  29.9488370
  57.5558090  32.8049830  15.8485100  56.9312270  32.8009700  16.5738410
  57.4688210  31.9380790  15.4521070  56.4775170  33.7286460  22.8268870
  56.7747500  34.6349290  22.7460890  57.0260730  33.2405240  22.2128440
  54.2313490  38.3072700  18.6960520  54.0054410  38.0909870  19.6007140
  53.4506020  38.7401160  18.3506490  61.4611250  38.3136070  17.2951170
  60.8620140  39.0371870  17.1114790  62.0090860  38.2512850  16.5127620
  56.6712700  39.2058280  29.3620790  56.5756300  38.2653010  29.2121190
  57.5144680  39.4273350  28.9668860  60.0676120  36.9499610  19.3254450
  60.4605690  37.2671810  18.5123140  60.4292970  36.0711490  19.4398970
  51.8023240  35.6171950  27.5154570  51.4086630  36.4647160  27.7227350
  51.1141640  34.9798320  27.7063210  58.3768290  35.7006920  30.5851310
  57.6866610  35.5079120  31.2197400  59.1200590  35.9841560  31.1175610
  49.1040290  33.5400410  21.5484650  48.8153340  34.1103270  22.2609630
  49.8486050  33.0604860  21.9115880  49.2910520  37.4820530  12.7587370
  49.2085190  38.4251290  12.9002360  48.9393580  37.3395440  11.8799720
  60.6531260  39.5405360  23.4205230  59.9212380  40.0492170  23.7695330
  60.2555600  38.7235340  23.1194010  57.0908650  36.2159560  21.8257720
  57.0944710  35.7749510  20.9762260  57.9859770  36.5376890  21.9329540
  52.9411030  36.0986050  20.7851930  52.6011080  36.5761280  21.5418980
  52.1788350  35.6451170  20.4253030  57.1528800  37.2171640  14.8164480
  57.2741620  37.1758120  15.7650300  56.7677310  38.0795790  14.6611210
  61.1157170  34.9939040  22.8328170  61.1329910  35.4447690  23.6770020
  60.8672750  34.0944680  23.0461610  56.1650300  39.5272780  14.2147780
  55.5967200  39.0791030  13.5883690  56.8739300  39.8865560  13.6812930
  64.5427920  32.4071220  28.6714550  64.8673690  31.6760880  29.1972530
  64.5784430  32.0884860  27.7695540  51.2419480  43.4284800  28.0914510
  50.8574270  42.7878470  28.6897470  51.5531670  44.1320920  28.6609240
  57.3916620  40.2761340  23.5723130  57.7586750  39.8019910  24.3184470
  57.2021680  41.1502910  23.9131470  50.2557110  35.0205030  19.7016600
  49.9704030  34.6560700  20.5395220  50.1935970  34.2885490  19.0879740
  55.1815990  39.3169980  25.8907340  54.8773060  40.1961960  26.1157700
  56.1362450  39.3769770  25.9264780  53.7097780  43.5230970  16.4874190
  52.9360040  42.9828590  16.3272910  54.4392410  43.0037580  16.1491950
  64.4685760  42.5196330  22.2800580  65.1884880  43.0151620  21.8896690
  64.2667580  41.8414220  21.6354450  59.9295700  33.9134290  16.4229970
  59.1160310  33.4147460  16.3475280  59.7357650  34.7532540  16.0066320
  59.8504560  42.5905390  28.1669580  59.7841870  41.6701060  27.9127170
  59.2209700  42.6880830  28.8814220  62.6444090  38.2853940  14.7192130
  63.5323710  38.5971170  14.5443470  62.6149180  37.4126190  14.3272710
  53.7535180  43.1911350  20.1253000  54.2713850  42.3879610  20.0709890
  53.3019200  43.1290490  20.9669830  58.6404680  44.4577630  15.3980300
  58.9820380  45.2019860  14.9023620  57.8117390  44.7708750  15.7605130
  51.2379720  40.1572720  27.0378700  50.8794660  40.8226570  27.6252040
  50.9434280  39.3256270  27.4091320  59.7821290  45.4125960  27.9173380
  59.7965830  44.4806920  27.6992290  59.0746390  45.4985720  28.5563150
  64.9158360  39.5965780  14.1871990  64.8322080  40.0280000  13.3368430
  65.6352550  40.0564130  14.6198810  65.9932500  42.0533300  27.2641960
  65.2680690  42.6462080  27.0671350  66.5207960  42.0456840  26.4655330
  65.9445610  46.4508040  16.9154120  65.3021770  45.7963660  17.1897840
  65.5576270  46.8563130  16.1394790  61.5232090  43.7793470  20.7625810
  61.8755910  43.1821600  20.1027180  60.6394420  43.4537700  20.9334060
  57.6095370  44.5391160  18.1696220  58.2966500  45.0860370  18.5503810
  56.8227790  45.0831890  18.2045830  49.7487770  40.1563980  13.6613300
  50.6182620  40.4388780  13.9449220  49.2578090  40.9699850  13.5462110
  56.9122580  41.5437190  17.7821580  57.3685360  42.3542440  18.0081770
  56.5610790  41.2260330  18.6140070  59.2155190  47.0543530  25.0113880
  59.8597410  47.2602910  25.6887300  59.5784630  46.2931930  24.5584730
  52.8134360  31.8874840  18.2544100  52.6848990  31.8792740  19.2029020
  51.9896380  32.2257930  17.9035110  60.4887270  45.0575880  23.7291330
  61.1309500  44.3569040  23.8423500  61.0136620  45.8374320  23.5488220
  64.3342990  45.3424500  13.4530470  64.1080570  44.6254940  14.0455110
  63.9439190  45.0936940  12.6152220  62.2624890  45.8570780  26.9327390
  62.5981130  46.4437470  27.6105310  61.3425230  45.7263490  27.1625180
  50.1159020  49.3691360  14.2274930  50.4756660  49.9680700  13.5732200
  49.9751360  49.9151250  15.0009960  49.8128290  33.6465960  27.7150800
  49.0986810  33.8462880  28.3203410  50.2323330  32.8705530  28.0865600
  63.9159240  43.2596440  15.1144630  63.6280940  43.7209130  15.9022510
  64.7111410  42.7994210  15.3828850  50.1000880  47.6346220  28.7017330
  50.2092000  46.6940960  28.5612720  49.4481440  47.9000970  28.0531060
  58.0913470  45.9062110  30.1015450  57.7710340  45.1871350  30.6461140
  57.4171830  46.5817180  30.1751510  56.1327640  46.7522560  15.0448600
  56.1237740  47.4852250  14.4293110  55.2126000  46.5054140  15.1375560
  51.7334280  41.9737450  15.7895360  51.1262230  42.7136350  15.7990660
  52.2083630  42.0636810  14.9633560  61.3067070  36.1388270  25.4652250
  61.6747890  35.3183480  25.7931820  60.4465270  36.1990160  25.8807900
  64.6729100  35.0945210  16.2739810  64.0442260  35.1990880  15.5598040
  64.1781020  35.3141990  17.0633690  59.1187240  46.8150800  13.7073790
  59.2199220  46.6114790  12.7775770  58.2188980  46.5609080  13.9121570
  56.6413130  37.3731160  17.6897690  55.9329280  37.8417500  18.1311300
  56.9257610  36.7153170  18.3242880  58.2669060  38.7927860  25.6890220
  58.7654310  39.2673680  26.3542070  58.4092010  37.8691380  25.8960250
  60.6728560  34.0981820  19.1293480  60.5496340  34.1167950  18.1802990
  61.6213120  34.1460760  19.2491880  57.7605350  49.3337120  18.4021460
  58.0146850  49.2958510  17.4800830  56.8117830  49.2070450  18.3949710
  54.8448150  35.6816240  15.0648400  55.6938680  36.1186390  14.9988590
  54.4779420  35.9936500  15.8920460  65.4735920  35.0095820  26.5318610
  64.9709520  35.7501220  26.8712420  66.2892580  35.3979820  26.2155400
  63.7657930  40.2529000  19.9779970  62.8248070  40.2679230  20.1527660
  64.0802000  39.4664960  20.4240270  53.7439570  41.9348600  13.5383930
  54.5102840  41.8229960  14.1009360  53.8214260  41.2386570  12.8860700
  52.4386330  39.3673670  14.2216820  52.5189920  38.4201180  14.3334220
  53.3306080  39.6980550  14.3277480  65.7683510  47.4237850  21.6534230
  65.8930930  48.2469020  22.1258040  66.6349070  47.2128580  21.3058380
  53.2401040  49.5169060  21.3251360  53.9763520  48.9684520  21.5959930
  53.6241960  50.3825070  21.1857350  50.1246520  45.5842630  17.1992870
  49.1986300  45.8263770  17.1898280  50.5902950  46.4116890  17.0777620
  52.2459320  48.7015130  30.5136940  53.0472050  49.0227180  30.9272340
  51.7311140  48.3410710  31.2356850  56.3503350  48.6899370  13.1476930
  57.1431960  48.9788200  12.6958720  55.8307700  48.2591540  12.4689410
  61.0823950  44.8095000  30.4612350  60.4762110  44.8326600  29.7208100
  60.7778060  44.0778040  30.9979600  62.5124320  48.5375290  29.0721760
  63.4646070  48.4533310  29.0222000  62.3652540  49.2017000  29.7455550
  65.4033520  47.9169500  14.5713670  65.1175030  47.5034640  13.7567850
  65.2053070  48.8457210  14.4514190  49.9657130  41.1888590  29.4572990
  50.4696150  40.6095870  30.0289220  49.2264550  41.4728820  29.9949360
  56.8680750  43.9102780  13.0119280  56.7631390  43.2955130  13.7380660
  56.7004970  43.3868670  12.2282290  57.0195070  42.5959580  28.9908510
  56.2540740  43.1644580  28.9063180  57.2011030  42.3035790  28.0976740
  60.1083480  42.9722810  13.6161270  59.5593580  43.4192110  14.2604010
  60.7302740  42.4672060  14.1398940  64.1618420  44.3264910  29.5483530
  64.9027890  44.6640670  29.0450990  63.3991100  44.4956970  28.9953300
  55.7758600  41.9313730  15.5126570  56.1975020  41.7653600  16.3557960
  55.9009440  41.1213960  15.0181710  53.9386020  37.9110280  28.3197550
  53.4082480  37.4201230  27.6920890  54.6074090  38.3394480  27.7855480
  58.2886240  40.9551340  12.7603670  58.8091900  40.2400360  12.3944820
  58.9354640  41.5937210  13.0604180  62.8364080  42.3779740  28.0838740
  63.2505100  42.5324820  28.9329160  61.9015080  42.5034960  28.2464520
  63.3086250  39.7175900  30.0877890  63.8907020  38.9628220  29.9998370
  63.4848020  40.2483340  29.3109370  54.4258320  34.8772650  28.3994840
  54.3315190  34.2593400  27.6745710  53.8455710  35.6038940  28.1724750
  57.1919760  33.4345890  25.4322230  56.7437060  33.4570150  24.5867780
  56.5584960  33.0364910  26.0292530  57.5979310  42.3300220  26.0534670
  58.0167420  43.1732950  25.8810910  56.6787940  42.4672260  25.8241450
  59.9343210  40.0616400  27.4372510  60.0539420  39.4657540  28.1767350
  60.7937210  40.0986090  27.0173810  62.2731110  40.6153590  26.0135020
  61.7466330  41.1396210  25.4100160  62.6162450  41.2480980  26.6444750
  54.6717500  38.0046960  12.4584730  54.4706560  37.1414320  12.8198070
  54.5009550  37.9180320  11.5206330  56.7011980  36.6037750  28.6948330
  57.2911670  36.2953600  29.3826150  55.8832220  36.1317500  28.8508230
  61.5205410  36.2203560  28.9281350  60.8320930  35.5585100  28.8631340
  62.2411430  35.7741830  29.3729810  62.1505810  32.8155190  14.9871610
  62.4308100  31.9723090  15.3431030  61.3771540  33.0478300  15.5010360
  53.4700300  35.1047580  12.4462610  53.7726200  35.1115010  11.5381760
  54.2094890  34.7545440  12.9430270  58.3048940  49.8704440  27.4279050
  58.2307640  50.7739580  27.7351420  57.4027780  49.5516340  27.4001120
  56.6885230  34.0482200  13.4318810  56.3407230  33.3706190  12.8521260
  56.8898000  33.5871710  14.2462200  58.8534270  49.0362950  15.0505410
  59.7485060  49.3747920  15.0724170  58.8851900  48.3142360  14.4229690
  52.4930430  44.4090000  13.2792410  52.9305300  44.9519670  13.9349990
  52.9778160  43.5836950  13.2888750  49.7076230  47.1979030  20.7312670
  50.0379240  46.3300090  20.4991310  50.1367230  47.4037550  21.5617630
  54.3038150  45.5288040  18.3914640  54.0033690  45.4053010  19.2918550
  54.1975640  44.6696630  17.9830370  50.1966440  48.0649620  23.4694300
  49.7597430  48.2450420  24.3018450  50.7644120  48.8224240  23.3276020
  67.0730070  45.3084440  13.0941320  66.2423030  45.3761090  13.5648550
  67.2501900  46.1988560  12.7908180  66.5286530  42.0531920  15.5975520
  67.2905440  42.6228570  15.7035210  66.5440900  41.4859120  16.3683830
  50.0290870  40.5769850  19.8283180  49.3739710  40.3081490  19.1842880
  50.8668820  40.4674330  19.3785160  67.5346500  42.9082020  20.4417450
  67.9055330  42.1249340  20.0353420  68.1748430  43.5971120  20.2634750
  64.5180260  44.2918600  25.8547770  63.7040100  44.7215760  26.1173560
  64.9254460  44.9037010  25.2416820  66.5805700  42.3466290  12.7548040
  66.8554540  43.2545170  12.6267260  66.3916440  42.2828820  13.6910030
  62.9781310  35.3711140  14.0501670  63.3966190  35.1842120  13.2098330
  62.6717370  34.5190190  14.3604600  66.4771040  40.2835280  17.7477470
  66.1014640  39.5163210  17.3158760  65.7474160  40.6657980  18.2352400
  51.0666800  40.9622420  24.3686520  51.4339840  40.8749820  25.2482540
  50.4977620  40.1988970  24.2693380  65.8670660  39.4306800  27.3816990
  65.6356750  39.2019550  26.4814940  66.1275210  40.3506350  27.3361880
  50.6182800  37.8731510  28.2744940  49.7238850  37.8398270  28.6138650
  51.1580350  38.0718300  29.0396190  64.3058730  34.6563230  30.1596690
  65.1828910  34.6646630  30.5430690  64.3179570  33.9194070  29.5489040
  49.2428950  37.7868780  15.7708510  48.3393030  38.0498980  15.5960170
  49.7269570  38.0579950  14.9908470  65.7522000  38.5092770  21.0484710
  66.2759480  38.0155420  20.4174880  66.3381420  38.6443130  21.7932280
  65.9311720  38.5932640  24.5704260  64.9814430  38.5596180  24.6849250
  66.1124730  39.5032750  24.3354030  51.7856160  36.8434320  13.6802890
  52.4947860  36.4217540  13.1950170  51.0696100  36.9109550  13.0486240
  51.4330320  32.8973650  12.7205540  52.1558450  33.4382590  13.0386760
  51.7054840  32.6237070  11.8447080  65.2421970  37.7666120  16.9877120
  65.7381090  37.5336990  17.7726000  65.0438040  36.9277960  16.5714760
  51.1222510  32.1479840  22.6228160  51.7698700  31.5977220  22.1823320
  51.5424350  32.4022990  23.4443970  66.6709130  36.4027070  19.5214800
  66.5608410  36.2483110  20.4597070  67.4316720  35.8748010  19.2790210
  65.0174850  32.3421200  25.9797800  65.6547070  32.9555340  26.3456990
  65.1649740  32.3781860  25.0347030  67.5599400  34.2334990  12.7620940
  68.4848710  34.1016170  12.5539230  67.5375190  34.3127810  13.7157390
  67.6337890  35.0045650  15.3877650  66.8389390  34.9390770  15.9170560
  67.8381170  35.9396290  15.3763000  64.5756310  49.0437200  19.3816040
  65.1715380  48.7221770  18.7050460  64.8334460  48.5709020  20.1729310
  50.8754510  32.3035510  25.3653480  50.5269330  32.7599330  26.1311660
  50.5442210  31.4092640  25.4475910  52.4818880  45.4755110  29.5306670
  52.4388510  45.1048020  30.4121130  52.6129890  46.4132680  29.6708490
  56.1824910  47.0314700  25.1316390  55.9416270  47.2989260  24.2446910
  57.1227550  47.2020430  25.1867250  58.3879330  33.4947390  28.8872900
  58.3268220  34.0869220  29.6368310  59.3279710  33.3873350  28.7423160
  61.0253890  33.1517450  28.5265190  61.6394300  33.4696740  27.8646270
  61.5703450  32.6666040  29.1461050  51.5475150  31.8311710  28.6404250
  52.0958140  31.6499760  27.8770360  51.6130460  31.0405820  29.1760560
  61.7661930  31.7149590  24.8534480  60.8921770  32.0484700  24.6507410
  61.6572680  31.2422770  25.6786350  62.6733910  33.9220460  26.2376200
  62.3447270  33.1072220  25.8577930  63.6216210  33.8790270  26.1141890
  51.9519140  45.7875740  25.6012490  51.2253200  45.1681030  25.5338440
  52.0128290  46.1816350  24.7310570  55.5564240  48.0020740  22.3861900
  56.0729260  47.3908100  21.8610160  56.2061620  48.5049520  22.8772910
  58.2959740  48.8929230  23.2130880  58.5837550  48.6383530  22.3363890
  58.8082960  48.3406590  23.8036450  59.5136750  32.6319430  23.7927390
  58.7308540  33.1064930  24.0724150  59.2199680  31.7274260  23.6840570
  64.0657820  33.3342530  21.8376480  64.5065910  33.2787630  20.9898080
  63.7965410  34.2500540  21.9086660  65.9296390  32.9657770  19.8485300
  65.8684790  32.0218990  19.7016320  66.7088420  33.0737860  20.3938760
  50.2349140  49.1050130  18.8109250  50.0671180  48.4720810  19.5091140
  49.3683650  49.3109530  18.4603440  50.8577160  32.9366910  16.3141110
  51.6156520  33.0495790  15.7405140  50.3954330  33.7736110  16.2684540
  57.3990970  35.0506180  19.3043420  56.5865480  34.6763070  18.9639300
  57.9032610  34.2951260  19.6064610  61.9015950  31.7148630  20.5426490
  62.5045320  32.2868840  21.0175010  61.1608940  32.2788070  20.3200390
  65.0450550  32.1170190  15.8166770  65.2401180  33.0153640  16.0834200
  64.2580420  31.8857270  16.3099720  51.8411840  47.7983360  16.2559390
  51.3159460  48.1791390  15.5521350  51.7656420  48.4234130  16.9769100
  53.2302310  33.4630960  14.8543080  53.7595070  32.6760760  14.7251030
  53.8630630  34.1422150  15.0878610  55.4240150  33.2006100  17.9088470
  54.7942890  32.4993410  18.0758600  54.8845290  33.9610230  17.6921630
  58.3632100  49.8145330  30.5799080  59.2899410  49.5789600  30.6235040
  58.3482530  50.6417330  30.0985110  66.5977160  49.3570900  17.5773330
  66.7729350  48.6708640  16.9334250  65.8998730  49.8817950  17.1850000
  55.5495710  32.4790080  30.3440960  55.2679980  32.9823680  29.5801780
  55.9315410  31.6811830  29.9783090  54.4404810  49.7465740  15.1308640
  55.1723630  49.4625020  14.5832530  54.6998480  49.5079020  16.0208020
  53.6019600  45.8630470  15.1354970  52.9728480  46.3315570  15.6840800
  53.7167430  45.0179690  15.5701160  62.1511170  31.8943660  30.9221430
  62.0376620  32.2138270  31.8172950  62.9680910  32.2956170  30.6258710
  59.1887360  41.6915150   3.1665440  58.4129460  41.2115590   3.4564010
  59.8400290  41.0120800   2.9921600  53.2053190  42.0034960   4.0441200
  52.3738070  41.7483670   4.4437710  53.8134170  42.0745730   4.7799120
  63.2094790  46.0975340   1.9464570  62.7476320  45.3262580   2.2751740
  64.0220340  46.1241410   2.4517020  53.1854450  46.0375050   4.2399220
  53.4882490  45.1472790   4.0609440  53.9298040  46.5945270   4.0121470
  49.5778150  39.5642500   3.7123290  50.1494260  38.7964700   3.7126930
  49.5779690  39.8631260   2.8029900  58.6296350  44.3672340   3.1735600
  58.5604630  43.4262280   3.0124730  59.3916210  44.4573750   3.7458170
  50.8203020  34.9726860   5.4992220  50.6405860  34.0752610   5.7794980
  50.4183100  35.5198730   6.1739170  59.6601520  37.1742720   3.4004530
  60.0366340  36.3014600   3.2878200  59.5621030  37.5101420   2.5094970
  51.4389690  37.4687360   4.1074560  52.1199800  37.7325730   4.7261960
  51.1237740  36.6288230   4.4412570  55.6314260  38.5154720   3.1947150
  56.1392480  39.0135690   3.8352170  56.1627500  37.7389920   3.0186510
  67.7325190  36.6859910   6.8976500  67.0277360  37.0741620   6.3791610
  67.9983110  37.3810200   7.4997430  53.9150360  33.1553280   7.4610570
  53.9168800  33.6725670   6.6556470  53.0854670  32.6783460   7.4380500
  55.1653210  42.7948460   5.6384070  54.8322590  43.4217380   6.2805140
  55.3419890  43.3210340   4.8585740  63.6787120  36.6093540   3.1060410
  62.9742690  36.8978430   3.6863520  64.0399280  37.4193650   2.7459970
  53.5965690  34.8663240   5.4681020  53.9382500  35.7105290   5.1734890
  52.6581500  35.0146980   5.5846360  54.3772310  44.7629260   7.4533250
  54.9946310  45.4380340   7.1717700  53.5165430  45.1717240   7.3620750
  65.2949900  46.2268670   5.3687890  64.6113420  46.8967780   5.3604560
  65.8344190  46.4249320   4.6032750  66.7474040  36.0548330   3.4969620
  65.7998950  36.0887310   3.6285050  67.0724030  36.8687280   3.8818980
  62.8308640  48.0712800   4.0833070  62.8435800  47.6675090   3.2155330
  62.2783860  48.8460090   3.9794500  62.2294080  42.9742640   5.4115680
  62.6462870  42.7602750   4.5769140  62.9533900  43.2315430   5.9824300
  66.1756180  41.3729860   5.5031920  65.3474810  41.4422950   5.0282050
  66.7706660  41.9584170   5.0347750  63.1398190  38.1599180   6.4486790
  62.7269370  38.9852890   6.7026780  62.4074140  37.5744220   6.2563150
  55.7412680  44.6326640   3.4744670  55.4440970  44.0272110   2.7952450
  56.6912500  44.6703950   3.3634030  53.9859600  37.7202290   5.0904500
  54.5374190  37.8297630   4.3157750  54.5003110  38.0939890   5.8059730
  63.8298290  48.2058510   7.1367770  63.3528850  49.0130700   6.9440380
  63.1460080  47.5536840   7.2893980  54.8331110  44.3708330  10.1252470
  53.9359640  44.5948300  10.3725870  54.8583980  44.4943270   9.1763870
  53.6602330  41.2421650   8.7009840  53.5210100  42.1144450   9.0697240
  52.7783690  40.8994460   8.5557780  55.4582680  47.1843350  10.9094990
  55.4298110  47.5886300  10.0423420  55.2947650  46.2553710  10.7466590
  67.4097500  47.9670450  12.2059160  67.8857220  48.4453340  12.8848240
  68.0304660  47.8987940  11.4804660  49.6120980  43.0119200   4.6180750
  49.6901400  43.1467970   3.6736470  50.2262660  42.3035090   4.8108870
  66.8130750  45.1583300   9.3659170  66.9393810  44.9195180   8.4476350
  66.8552130  44.3267840   9.8381250  60.6747490  48.8611300   7.9353980
  61.1892160  48.7719310   8.7376410  59.8316570  49.2071000   8.2281890
  66.6654760  37.2115760  10.3308910  66.0499030  37.7195430   9.8024370
  66.3451180  36.3114090  10.2734850  49.6680500  44.0533370   7.1575210
  49.8311540  43.5838730   6.3394580  50.1332950  43.5456930   7.8224050
  54.4399270  33.1839130   2.1935780  53.9967420  33.9648670   1.8620300
  54.9984260  33.5069020   2.9006720  58.7269080  36.0507650   7.7971100
  58.2648450  36.2590670   8.6091040  58.3247190  35.2367000   7.4941770
  63.7273590  37.2716600   8.9267760  62.8767180  36.9722350   9.2476830
  63.5675380  37.5158610   8.0151580  60.8223300  38.7718350  11.0266550
  61.1476710  37.9382100  10.6868780  61.6103630  39.2946870  11.1744880
  56.4775170  33.7286460   4.0525380  56.7747500  34.6349290   3.9717400
  57.0260730  33.2405240   3.4384950  56.6712700  39.2058280  10.5877300
  56.5756300  38.2653010  10.4377700  57.5144680  39.4273350  10.1925370
  51.8023240  35.6171950   8.7411080  51.4086630  36.4647160   8.9483860
  51.1141640  34.9798320   8.9319720  58.3768290  35.7006920  11.8107820
  57.6866610  35.5079120  12.4453910  59.1200590  35.9841560  12.3432120
  49.1040290  33.5400410   2.7741160  48.8153340  34.1103270   3.4866140
  49.8486050  33.0604860   3.1372390  60.6531260  39.5405360   4.6461740
  59.9212380  40.0492170   4.9951840  60.2555600  38.7235340   4.3450520
  57.0908650  36.2159560   3.0514230  57.0944710  35.7749510   2.2018770
  57.9859770  36.5376890   3.1586050  52.9411030  36.0986050   2.0108440
  52.6011080  36.5761280   2.7675490  52.1788350  35.6451170   1.6509540
  61.1157170  34.9939040   4.0584680  61.1329910  35.4447690   4.9026530
  60.8672750  34.0944680   4.2718120  64.5427920  32.4071220   9.8971060
  64.8673690  31.6760880  10.4229040  64.5784430  32.0884860   8.9952050
  51.2419480  43.4284800   9.3171020  50.8574270  42.7878470   9.9153980
  51.5531670  44.1320920   9.8865750  57.3916620  40.2761340   4.7979640
  57.7586750  39.8019910   5.5440980  57.2021680  41.1502910   5.1387980
  55.1815990  39.3169980   7.1163850  54.8773060  40.1961960   7.3414210
  56.1362450  39.3769770   7.1521290  64.4685760  42.5196330   3.5057090
  65.1884880  43.0151620   3.1153200  64.2667580  41.8414220   2.8610960
  59.8504560  42.5905390   9.3926090  59.7841870  41.6701060   9.1383680
  59.2209700  42.6880830  10.1070730  51.2379720  40.1572720   8.2635210
  50.8794660  40.8226570   8.8508550  50.9434280  39.3256270   8.6347830
  54.4392840  40.6156960  11.1474760  54.1392980  40.7614140  10.2502580
  55.2104080  40.0562250  11.0548150  59.7821290  45.4125960   9.1429890
  59.7965830  44.4806920   8.9248800  59.0746390  45.4985720   9.7819660
  65.9932500  42.0533300   8.4898470  65.2680690  42.6462080   8.2927860
  66.5207960  42.0456840   7.6911840  59.2155190  47.0543530   6.2370390
  59.8597410  47.2602910   6.9143810  59.5784630  46.2931930   5.7841240
  60.4887270  45.0575880   4.9547840  61.1309500  44.3569040   5.0680010
  61.0136620  45.8374320   4.7744730  62.2624890  45.8570780   8.1583900
  62.5981130  46.4437470   8.8361820  61.3425230  45.7263490   8.3881690
  49.8128290  33.6465960   8.9407310  49.0986810  33.8462880   9.5459920
  50.2323330  32.8705530   9.3122110  50.1000880  47.6346220   9.9273840
  50.2092000  46.6940960   9.7869230  49.4481440  47.9000970   9.2787570
  58.0913470  45.9062110  11.3271960  57.7710340  45.1871350  11.8717650
  57.4171830  46.5817180  11.4008020  61.3067070  36.1388270   6.6908760
  61.6747890  35.3183480   7.0188330  60.4465270  36.1990160   7.1064410
  58.2669060  38.7927860   6.9146730  58.7654310  39.2673680   7.5798580
  58.4092010  37.8691380   7.1216760  65.4735920  35.0095820   7.7575120
  64.9709520  35.7501220   8.0968930  66.2892580  35.3979820   7.4411910
  65.7683510  47.4237850   2.8790740  65.8930930  48.2469020   3.3514550
  66.6349070  47.2128580   2.5314890  53.2401040  49.5169060   2.5507870
  53.9763520  48.9684520   2.8216440  53.6241960  50.3825070   2.4113860
  52.2459320  48.7015130  11.7393450  53.0472050  49.0227180  12.1528850
  51.7311140  48.3410710  12.4613360  61.0823950  44.8095000  11.6868860
  60.4762110  44.8326600  10.9464610  60.7778060  44.0778040  12.2236110
  62.5124320  48.5375290  10.2978270  63.4646070  48.4533310  10.2478510
  62.3652540  49.2017000  10.9712060  49.9657130  41.1888590  10.6829500
  50.4696150  40.6095870  11.2545730  49.2264550  41.4728820  11.2205870
  57.0195070  42.5959580  10.2165020  56.2540740  43.1644580  10.1319690
  57.2011030  42.3035790   9.3233250  64.1618420  44.3264910  10.7740040
  64.9027890  44.6640670  10.2707500  63.3991100  44.4956970  10.2209810
  51.9980210  39.3318180  11.5779570  52.0385550  39.0332050  12.4864800
  52.8525710  39.7325790  11.4187090  53.9386020  37.9110280   9.5454060
  53.4082480  37.4201230   8.9177400  54.6074090  38.3394480   9.0111990
  62.8364080  42.3779740   9.3095250  63.2505100  42.5324820  10.1585670
  61.9015080  42.5034960   9.4721030  63.3086250  39.7175900  11.3134400
  63.8907020  38.9628220  11.2254880  63.4848020  40.2483340  10.5365880
  54.4258320  34.8772650   9.6251350  54.3315190  34.2593400   8.9002220
  53.8455710  35.6038940   9.3981260  57.1919760  33.4345890   6.6578740
  56.7437060  33.4570150   5.8124290  56.5584960  33.0364910   7.2549040
  57.5979310  42.3300220   7.2791180  58.0167420  43.1732950   7.1067420
  56.6787940  42.4672260   7.0497960  59.9343210  40.0616400   8.6629020
  60.0539420  39.4657540   9.4023860  60.7937210  40.0986090   8.2430320
  62.2731110  40.6153590   7.2391530  61.7466330  41.1396210   6.6356670
  62.6162450  41.2480980   7.8701260  55.4486730  48.6353230   8.3948910
  54.9107820  49.3599290   8.0757610  55.7020690  48.1583570   7.6046250
  56.7011980  36.6037750   9.9204840  57.2911670  36.2953600  10.6082660
  55.8832220  36.1317500  10.0764740  61.5205410  36.2203560  10.1537860
  60.8320930  35.5585100  10.0887850  62.2411430  35.7741830  10.5986320
  58.3048940  49.8704440   8.6535560  58.2307640  50.7739580   8.9607930
  57.4027780  49.5516340   8.6257630  49.7076230  47.1979030   1.9569180
  50.0379240  46.3300090   1.7247820  50.1367230  47.4037550   2.7874140
  50.1966440  48.0649620   4.6950810  49.7597430  48.2450420   5.5274960
  50.7644120  48.8224240   4.5532530  65.8328620  47.5666620   8.9828120
  65.2330610  47.6259180   8.2392040  65.9622520  46.6271600   9.1124970
  64.5180260  44.2918600   7.0804280  63.7040100  44.7215760   7.3430070
  64.9254460  44.9037010   6.4673330  51.0666800  40.9622420   5.5943030
  51.4339840  40.8749820   6.4739050  50.4977620  40.1988970   5.4949890
  65.8670660  39.4306800   8.6073500  65.6356750  39.2019550   7.7071450
  66.1275210  40.3506350   8.5618390  50.6182800  37.8731510   9.5001450
  49.7238850  37.8398270   9.8395160  51.1580350  38.0718300  10.2652700
  64.3058730  34.6563230  11.3853200  65.1828910  34.6646630  11.7687200
  64.3179570  33.9194070  10.7745550  65.7522000  38.5092770   2.2741220
  66.2759480  38.0155420   1.6431390  66.3381420  38.6443130   3.0188790
  65.9311720  38.5932640   5.7960770  64.9814430  38.5596180   5.9105760
  66.1124730  39.5032750   5.5610540  51.1222510  32.1479840   3.8484670
  51.7698700  31.5977220   3.4079830  51.5424350  32.4022990   4.6700480
  65.0174850  32.3421200   7.2054310  65.6547070  32.9555340   7.5713500
  65.1649740  32.3781860   6.2603540  50.8754510  32.3035510   6.5909990
  50.5269330  32.7599330   7.3568170  50.5442210  31.4092640   6.6732420
  52.4818880  45.4755110  10.7563180  52.4388510  45.1048020  11.6377640
  52.6129890  46.4132680  10.8965000  56.1824910  47.0314700   6.3572900
  55.9416270  47.2989260   5.4703420  57.1227550  47.2020430   6.4123760
  58.3879330  33.4947390  10.1129410  58.3268220  34.0869220  10.8624820
  59.3279710  33.3873350   9.9679670  61.0253890  33.1517450   9.7521700
  61.6394300  33.4696740   9.0902780  61.5703450  32.6666040  10.3717560
  67.4429070  49.0509080   7.1583540  66.9487350  49.4477950   6.4410670
  66.8342360  48.4258290   7.5520820  51.5475150  31.8311710   9.8660760
  52.0958140  31.6499760   9.1026870  51.6130460  31.0405820  10.4017070
  52.3206910  48.4217360   7.8760960  51.7267230  48.2902060   8.6151000
  52.3130750  47.5855500   7.4103060  61.7661930  31.7149590   6.0790990
  60.8921770  32.0484700   5.8763920  61.6572680  31.2422770   6.9042860
  62.6733910  33.9220460   7.4632710  62.3447270  33.1072220   7.0834440
  63.6216210  33.8790270   7.3398400  65.1268520  49.6932500   4.4370280
  64.6671490  50.4448310   4.0628300  64.4980980  48.9738970   4.3785080
  51.9519140  45.7875740   6.8269000  51.2253200  45.1681030   6.7594950
  52.0128290  46.1816350   5.9567080  55.5564240  48.0020740   3.6118410
  56.0729260  47.3908100   3.0866670  56.2061620  48.5049520   4.1029420
  58.2959740  48.8929230   4.4387390  58.5837550  48.6383530   3.5620400
  58.8082960  48.3406590   5.0292960  59.5136750  32.6319430   5.0183900
  58.7308540  33.1064930   5.2980660  59.2199680  31.7274260   4.9097080
  64.0657820  33.3342530   3.0632990  64.5065910  33.2787630   2.2154590
  63.7965410  34.2500540   3.1343170  61.9015950  31.7148630   1.7683000
  62.5045320  32.2868840   2.2431520  61.1608940  32.2788070   1.5456900
  58.3632100  49.8145330  11.8055590  59.2899410  49.5789600  11.8491550
  58.3482530  50.6417330  11.3241620  55.5495710  32.4790080  11.5697470
  55.2679980  32.9823680  10.8058290  55.9315410  31.6811830  11.2039600
  62.1511170  31.8943660  12.1477940  62.0376620  32.2138270  13.0429460
  62.9680910  32.2956170  11.8515220  64.9309660  49.0415190  11.6296630
  65.7234980  48.5464420  11.4222590  65.2242810  49.7205330  12.2372240
  61.0569320  21.1392640 151.4804090  60.9763370  20.2247250 151.2095800
  60.6433740  21.6359710 150.7743800  59.1887360  22.9171660 153.3613360
  58.4129460  22.4372100 153.6511930  59.8400290  22.2377310 153.1869520
  63.2094790  27.3231850 152.1412490  62.7476320  26.5519090 152.4699660
  64.0220340  27.3497920 152.6464940  53.1854450  27.2631560 154.4347140
  53.4882490  26.3729300 154.2557360  53.9298040  27.8201780 154.2069390
  51.6145140  18.1893360 148.0231510  50.7261840  18.5309330 147.9211390
  51.8986330  17.9893680 147.1312340  49.5778150  20.7899010 153.9071210
  50.1494260  20.0221210 153.9074850  49.5779690  21.0887770 152.9977820
  59.4358100  29.6089860 151.7616480  58.8169540  30.0647360 151.1910920
  60.2909880  29.7641320 151.3606180  58.6296350  25.5928850 153.3683520
  58.5604630  24.6518790 153.2072650  59.3916210  25.6830260 153.9406090
  59.6601520  18.3999230 153.5952450  60.0366340  17.5271110 153.4826120
  59.5621030  18.7357930 152.7042890  53.7906530  16.7724860 149.0569890
  53.8973280  17.6728590 149.3638650  52.8798890  16.7242830 148.7664540
  63.4425640  15.8949670 150.5280790  64.2635260  15.4046240 150.5706270
  63.4759720  16.4847330 151.2812630  55.6314260  19.7411230 153.3895070
  56.1392480  20.2392200 154.0300090  56.1627500  18.9646430 153.2134430
  60.3021450  24.4929100 149.1548390  59.6838720  24.9578550 148.5911110
  60.8144700  25.1856580 149.5717900  63.6787120  17.8350050 153.3008330
  62.9742690  18.1234940 153.8811440  64.0399280  18.6450160 152.9407890
  49.6704650  25.1785630 146.5288020  49.2932630  25.6672730 145.7972920
  49.9277720  25.8510910 147.1594550  66.7474040  17.2804840 153.6917540
  65.7998950  17.3143820 153.8232970  67.0724030  18.0943790 154.0766900
  57.2793580  13.5802020 151.9873530  57.5868560  13.0248910 151.2709030
  56.3494280  13.7146480 151.8046520  62.8308640  29.2969310 154.2780990
  62.8435800  28.8931600 153.4103250  62.2783860  30.0716600 154.1742420
  64.1254060  26.0185530 149.3671160  64.0150390  25.0759860 149.4920580
  64.1222310  26.3801170 150.2533920  59.6674340  21.6450850 148.7233650
  58.7403620  21.5788230 148.9522120  59.8199160  22.5830980 148.6088890
  59.6543420  17.9167850 145.7200810  58.7147090  18.0781810 145.8053270
  59.9726680  18.6353530 145.1736800  63.6971630  23.2071150 149.2268900
  63.0784050  22.8690700 148.5795200  63.6796080  22.5630910 149.9348090
  55.2730980  22.1715590 151.5053380  54.8687980  21.4592840 151.0099280
  55.3594100  21.8268830 152.3941420  55.7412680  25.8583150 153.6692590
  55.4440970  25.2528620 152.9900370  56.6912500  25.8960460 153.5581950
  61.8736330  22.4457960 146.2341650  62.3129610  21.6080390 146.0879470
  62.5864750  23.0787360 146.3205790  59.9831710  27.3854030 150.2022890
  60.4227620  28.1278360 149.7878280  59.9218600  27.6280600 151.1261850
  65.4553470  13.7000770 144.5482690  65.1426130  13.7927600 145.4481760
  66.2165940  14.2781800 144.4980120  51.9735610  21.0660570 149.0060030
  51.8533210  21.7922660 148.3941300  51.6636500  20.2963480 148.5287940
  50.8568610  25.9375900 151.2234850  50.4496690  26.0790490 150.3688450
  51.7481620  25.6536060 151.0206060  62.6501890  30.3723150 147.5585900
  62.4903030  30.0826090 148.4567730  62.4848600  29.5963280 147.0231130
  55.1290270  30.1521680 149.3357520  54.9532750  29.2357220 149.1225320
  54.2746010  30.5108970 149.5755320  62.3528020  27.8810710 146.1183900
  61.6593180  27.8788000 145.4586180  63.0950880  27.4570030 145.6878070
  61.9177950  29.5073420 150.1932390  62.3734900  28.7262800 150.5071010
  62.2570470  30.2180240 150.7373570  54.4399270  14.4095640 152.3883700
  53.9967420  15.1905180 152.0568220  54.9984260  14.7325530 153.0954640
  57.5558090  14.0306340 147.2689530  56.9312270  14.0266210 147.9942840
  57.4688210  13.1637300 146.8725500  56.4775170  14.9542970 154.2473300
  56.7747500  15.8605800 154.1665320  57.0260730  14.4661750 153.6332870
  54.2313490  19.5329210 150.1164950  54.0054410  19.3166380 151.0211570
  53.4506020  19.9657670 149.7710920  61.4611250  19.5392580 148.7155600
  60.8620140  20.2628380 148.5319220  62.0090860  19.4769360 147.9332050
  60.0676120  18.1756120 150.7458880  60.4605690  18.4928320 149.9327570
  60.4292970  17.2968000 150.8603400  49.1040290  14.7656920 152.9689080
  48.8153340  15.3359780 153.6814060  49.8486050  14.2861370 153.3320310
  49.2910520  18.7077040 144.1791800  49.2085190  19.6507800 144.3206790
  48.9393580  18.5651950 143.3004150  57.0908650  17.4416070 153.2462150
  57.0944710  17.0006020 152.3966690  57.9859770  17.7633400 153.3533970
  52.9411030  17.3242560 152.2056360  52.6011080  17.8017790 152.9623410
  52.1788350  16.8707680 151.8457460  57.1528800  18.4428150 146.2368910
  57.2741620  18.4014630 147.1854730  56.7677310  19.3052300 146.0815640
  56.1650300  20.7529290 145.6352210  55.5967200  20.3047540 145.0088120
  56.8739300  21.1122070 145.1017360  50.2557110  16.2461540 151.1221030
  49.9704030  15.8817210 151.9599650  50.1935970  15.5142000 150.5084170
  53.7097780  24.7487480 147.9078620  52.9360040  24.2085100 147.7477340
  54.4392410  24.2294090 147.5696380  64.4685760  23.7452840 153.7005010
  65.1884880  24.2408130 153.3101120  64.2667580  23.0670730 153.0558880
  59.9295700  15.1390800 147.8434400  59.1160310  14.6403970 147.7679710
  59.7357650  15.9789050 147.4270750  62.6444090  19.5110450 146.1396560
  63.5323710  19.8227680 145.9647900  62.6149180  18.6382700 145.7477140
  53.7535180  24.4167860 151.5457430  54.2713850  23.6136120 151.4914320
  53.3019200  24.3547000 152.3874260  58.6404680  25.6834140 146.8184730
  58.9820380  26.4276370 146.3228050  57.8117390  25.9965260 147.1809560
  64.9158360  20.8222290 145.6076420  64.8322080  21.2536510 144.7572860
  65.6352550  21.2820640 146.0403240  65.9445610  27.6764550 148.3358550
  65.3021770  27.0220170 148.6102270  65.5576270  28.0819640 147.5599220
  61.5232090  25.0049980 152.1830240  61.8755910  24.4078110 151.5231610
  60.6394420  24.6794210 152.3538490  57.6095370  25.7647670 149.5900650
  58.2966500  26.3116880 149.9708240  56.8227790  26.3088400 149.6250260
  49.7487770  21.3820490 145.0817730  50.6182620  21.6645290 145.3653650
  49.2578090  22.1956360 144.9666540  56.9122580  22.7693700 149.2026010
  57.3685360  23.5798950 149.4286200  56.5610790  22.4516840 150.0344500
  52.8134360  13.1131350 149.6748530  52.6848990  13.1049250 150.6233450
  51.9896380  13.4514440 149.3239540  64.3342990  26.5681010 144.8734900
  64.1080570  25.8511450 145.4659540  63.9439190  26.3193450 144.0356650
  50.1159020  30.5947870 145.6479360  50.4756660  31.1937210 144.9936630
  49.9751360  31.1407760 146.4214390  63.9159240  24.4852950 146.5349060
  63.6280940  24.9465640 147.3226940  64.7111410  24.0250720 146.8033280
  56.1327640  27.9779070 146.4653030  56.1237740  28.7108760 145.8497540
  55.2126000  27.7310650 146.5579990  51.7334280  23.1993960 147.2099790
  51.1262230  23.9392860 147.2195090  52.2083630  23.2893320 146.3837990
  64.6729100  16.3201720 147.6944240  64.0442260  16.4247390 146.9802470
  64.1781020  16.5398500 148.4838120  59.1187240  28.0407310 145.1278220
  59.2199220  27.8371300 144.1980200  58.2188980  27.7865590 145.3326000
  56.6413130  18.5987670 149.1102120  55.9329280  19.0674010 149.5515730
  56.9257610  17.9409680 149.7447310  60.6728560  15.3238330 150.5497910
  60.5496340  15.3424460 149.6007420  61.6213120  15.3717270 150.6696310
  57.7605350  30.5593630 149.8225890  58.0146850  30.5215020 148.9005260
  56.8117830  30.4326960 149.8154140  54.8448150  16.9072750 146.4852830
  55.6938680  17.3442900 146.4193020  54.4779420  17.2193010 147.3124890
  63.7657930  21.4785510 151.3984400  62.8248070  21.4935740 151.5732090
  64.0802000  20.6921470 151.8444700  53.7439570  23.1605110 144.9588360
  54.5102840  23.0486470 145.5213790  53.8214260  22.4643080 144.3065130
  52.4386330  20.5930180 145.6421250  52.5189920  19.6457690 145.7538650
  53.3306080  20.9237060 145.7481910  65.7683510  28.6494360 153.0738660
  65.8930930  29.4725530 153.5462470  66.6349070  28.4385090 152.7262810
  53.2401040  30.7425570 152.7455790  53.9763520  30.1941030 153.0164360
  53.6241960  31.6081580 152.6061780  50.1246520  26.8099140 148.6197300
  49.1986300  27.0520280 148.6102710  50.5902950  27.6373400 148.4982050
  56.3503350  29.9155880 144.5681360  57.1431960  30.2044710 144.1163150
  55.8307700  29.4848050 143.8893840  65.4033520  29.1426010 145.9918100
  65.1175030  28.7291150 145.1772280  65.2053070  30.0713720 145.8718620
  56.8680750  25.1359290 144.4323710  56.7631390  24.5211640 145.1585090
  56.7004970  24.6125180 143.6486720  60.1083480  24.1979320 145.0365700
  59.5593580  24.6448620 145.6808440  60.7302740  23.6928570 145.5603370
  55.7758600  23.1570240 146.9331000  56.1975020  22.9910110 147.7762390
  55.9009440  22.3470470 146.4386140  58.2886240  22.1807850 144.1808100
  58.8091900  21.4656870 143.8149250  58.9354640  22.8193720 144.4808610
  54.6717500  19.2303470 143.8789160  54.4706560  18.3670830 144.2402500
  54.5009550  19.1436830 142.9410760  62.1505810  14.0411700 146.4076040
  62.4308100  13.1979600 146.7635460  61.3771540  14.2734810 146.9214790
  53.4700300  16.3304090 143.8667040  53.7726200  16.3371520 142.9586190
  54.2094890  15.9801950 144.3634700  56.6885230  15.2738710 144.8523240
  56.3407230  14.5962700 144.2725690  56.8898000  14.8128220 145.6666630
  58.8534270  30.2619460 146.4709840  59.7485060  30.6004430 146.4928600
  58.8851900  29.5398870 145.8434120  52.4930430  25.6346510 144.6996840
  52.9305300  26.1776180 145.3554420  52.9778160  24.8093460 144.7093180
  49.7076230  28.4235540 152.1517100  50.0379240  27.5556600 151.9195740
  50.1367230  28.6294060 152.9822060  54.3038150  26.7544550 149.8119070
  54.0033690  26.6309520 150.7122980  54.1975640  25.8953140 149.4034800
  67.0730070  26.5340950 144.5145750  66.2423030  26.6017600 144.9852980
  67.2501900  27.4245070 144.2112610  66.5286530  23.2788430 147.0179950
  67.2905440  23.8485080 147.1239640  66.5440900  22.7115630 147.7888260
  50.0290870  21.8026360 151.2487610  49.3739710  21.5338000 150.6047310
  50.8668820  21.6930840 150.7989590  67.5346500  24.1338530 151.8621880
  67.9055330  23.3505850 151.4557850  68.1748430  24.8227630 151.6839180
  66.5805700  23.5722800 144.1752470  66.8554540  24.4801680 144.0471690
  66.3916440  23.5085330 145.1114460  62.9781310  16.5967650 145.4706100
  63.3966190  16.4098630 144.6302760  62.6717370  15.7446700 145.7809030
  66.4771040  21.5091790 149.1681900  66.1014640  20.7419720 148.7363190
  65.7474160  21.8914490 149.6556830  49.2428950  19.0125290 147.1912940
  48.3393030  19.2755490 147.0164600  49.7269570  19.2836460 146.4112900
  65.7522000  19.7349280 152.4689140  66.2759480  19.2411930 151.8379310
  66.3381420  19.8699640 153.2136710  51.7856160  18.0690830 145.1007320
  52.4947860  17.6474050 144.6154600  51.0696100  18.1366060 144.4690670
  51.4330320  14.1230160 144.1409970  52.1558450  14.6639100 144.4591190
  51.7054840  13.8493580 143.2651510  65.2421970  18.9922630 148.4081550
  65.7381090  18.7593500 149.1930430  65.0438040  18.1534470 147.9919190
  66.6709130  17.6283580 150.9419230  66.5608410  17.4739620 151.8801500
  67.4316720  17.1004520 150.6994640  67.5599400  15.4591500 144.1825370
  68.4848710  15.3272680 143.9743660  67.5375190  15.5384320 145.1361820
  67.6337890  16.2302160 146.8082080  66.8389390  16.1647280 147.3374990
  67.8381170  17.1652800 146.7967430  64.5756310  30.2693710 150.8020470
  65.1715380  29.9478280 150.1254890  64.8334460  29.7965530 151.5933740
  55.5564240  29.2277250 153.8066330  56.0729260  28.6164610 153.2814590
  56.2061620  29.7306030 154.2977340  64.0657820  14.5599040 153.2580910
  64.5065910  14.5044140 152.4102510  63.7965410  15.4757050 153.3291090
  65.9296390  14.1914280 151.2689730  65.8684790  13.2475500 151.1220750
  66.7088420  14.2994370 151.8143190  50.2349140  30.3306640 150.2313680
  50.0671180  29.6977320 150.9295570  49.3683650  30.5366040 149.8807870
  50.8577160  14.1623420 147.7345540  51.6156520  14.2752300 147.1609570
  50.3954330  14.9992620 147.6888970  57.3990970  16.2762690 150.7247850
  56.5865480  15.9019580 150.3843730  57.9032610  15.5207770 151.0269040
  61.9015950  12.9405140 151.9630920  62.5045320  13.5125350 152.4379440
  61.1608940  13.5044580 151.7404820  65.0450550  13.3426700 147.2371200
  65.2401180  14.2410150 147.5038630  64.2580420  13.1113780 147.7304150
  51.8411840  29.0239870 147.6763820  51.3159460  29.4047900 146.9725780
  51.7656420  29.6490640 148.3973530  53.2302310  14.6887470 146.2747510
  53.7595070  13.9017270 146.1455460  53.8630630  15.3678660 146.5083040
  55.4240150  14.4262610 149.3292900  54.7942890  13.7249920 149.4963030
  54.8845290  15.1866740 149.1126060  66.5977160  30.5827410 148.9977760
  66.7729350  29.8965150 148.3538680  65.8998730  31.1074460 148.6054430
  54.4404810  30.9722250 146.5513070  55.1723630  30.6881530 146.0036960
  54.6998480  30.7335530 147.4412450  53.6019600  27.0886980 146.5559400
  52.9728480  27.5572080 147.1045230  53.7167430  26.2436200 146.9905590
  61.0569320  21.1392640 132.7060600  60.9763370  20.2247250 132.4352310
  60.6433740  21.6359710 132.0000310  59.1887360  22.9171660 134.5869870
  58.4129460  22.4372100 134.8768440  59.8400290  22.2377310 134.4126030
  53.2053190  23.2291470 135.4645630  52.3738070  22.9740180 135.8642140
  53.8134170  23.3002240 136.2003550  63.2094790  27.3231850 133.3669000
  62.7476320  26.5519090 133.6956170  64.0220340  27.3497920 133.8721450
  53.1854450  27.2631560 135.6603650  53.4882490  26.3729300 135.4813870
  53.9298040  27.8201780 135.4325900  51.6145140  18.1893360 129.2488020
  50.7261840  18.5309330 129.1467900  51.8986330  17.9893680 128.3568850
  49.5778150  20.7899010 135.1327720  50.1494260  20.0221210 135.1331360
  49.5779690  21.0887770 134.2234330  59.4358100  29.6089860 132.9872990
  58.8169540  30.0647360 132.4167430  60.2909880  29.7641320 132.5862690
  58.6296350  25.5928850 134.5940030  58.5604630  24.6518790 134.4329160
  59.3916210  25.6830260 135.1662600  50.8203020  16.1983370 136.9196650
  50.6405860  15.3009120 137.1999410  50.4183100  16.7455240 137.5943600
  59.6601520  18.3999230 134.8208960  60.0366340  17.5271110 134.7082630
  59.5621030  18.7357930 133.9299400  53.7906530  16.7724860 130.2826400
  53.8973280  17.6728590 130.5895160  52.8798890  16.7242830 129.9921050
  63.4425640  15.8949670 131.7537300  64.2635260  15.4046240 131.7962780
  63.4759720  16.4847330 132.5069140  51.4389690  18.6943870 135.5278990
  52.1199800  18.9582240 136.1466390  51.1237740  17.8544740 135.8617000
  55.6314260  19.7411230 134.6151580  56.1392480  20.2392200 135.2556600
  56.1627500  18.9646430 134.4390940  67.7325190  17.9116420 138.3180930
  67.0277360  18.2998130 137.7996040  67.9983110  18.6066710 138.9201860
  53.9150360  14.3809790 138.8815000  53.9168800  14.8982180 138.0760900
  53.0854670  13.9039970 138.8584930  60.3021450  24.4929100 130.3804900
  59.6838720  24.9578550 129.8167620  60.8144700  25.1856580 130.7974410
  55.1653210  24.0204970 137.0588500  54.8322590  24.6473890 137.7009570
  55.3419890  24.5466850 136.2790170  63.6787120  17.8350050 134.5264840
  62.9742690  18.1234940 135.1067950  64.0399280  18.6450160 134.1664400
  53.5965690  16.0919750 136.8885450  53.9382500  16.9361800 136.5939320
  52.6581500  16.2403490 137.0050790  54.3772310  25.9885770 138.8737680
  54.9946310  26.6636850 138.5922130  53.5165430  26.3973750 138.7825180
  49.6704650  25.1785630 127.7544530  49.2932630  25.6672730 127.0229430
  49.9277720  25.8510910 128.3851060  65.2949900  27.4525180 136.7892320
  64.6113420  28.1224290 136.7808990  65.8344190  27.6505830 136.0237180
  66.7474040  17.2804840 134.9174050  65.7998950  17.3143820 135.0489480
  67.0724030  18.0943790 135.3023410  57.2793580  13.5802020 133.2130040
  57.5868560  13.0248910 132.4965540  56.3494280  13.7146480 133.0303030
  62.8308640  29.2969310 135.5037500  62.8435800  28.8931600 134.6359760
  62.2783860  30.0716600 135.3998930  64.1254060  26.0185530 130.5927670
  64.0150390  25.0759860 130.7177090  64.1222310  26.3801170 131.4790430
  62.2294080  24.1999150 136.8320110  62.6462870  23.9859260 135.9973570
  62.9533900  24.4571940 137.4028730  59.6674340  21.6450850 129.9490160
  58.7403620  21.5788230 130.1778630  59.8199160  22.5830980 129.8345400
  59.6543420  17.9167850 126.9457320  58.7147090  18.0781810 127.0309780
  59.9726680  18.6353530 126.3993310  66.1756180  22.5986370 136.9236350
  65.3474810  22.6679460 136.4486480  66.7706660  23.1840680 136.4552180
  63.6971630  23.2071150 130.4525410  63.0784050  22.8690700 129.8051710
  63.6796080  22.5630910 131.1604600  63.1398190  19.3855690 137.8691220
  62.7269370  20.2109400 138.1231210  62.4074140  18.8000730 137.6767580
  55.2730980  22.1715590 132.7309890  54.8687980  21.4592840 132.2355790
  55.3594100  21.8268830 133.6197930  55.7412680  25.8583150 134.8949100
  55.4440970  25.2528620 134.2156880  56.6912500  25.8960460 134.7838460
  53.9859600  18.9458800 136.5108930  54.5374190  19.0554140 135.7362180
  54.5003110  19.3196400 137.2264160  63.8298290  29.4315020 138.5572200
  63.3528850  30.2387210 138.3644810  63.1460080  28.7793350 138.7098410
  54.8331110  25.5964840 141.5456900  53.9359640  25.8204810 141.7930300
  54.8583980  25.7199780 140.5968300  61.8736330  22.4457960 127.4598160
  62.3129610  21.6080390 127.3135980  62.5864750  23.0787360 127.5462300
  53.6602330  22.4678160 140.1214270  53.5210100  23.3400960 140.4901670
  52.7783690  22.1250970 139.9762210  59.9831710  27.3854030 131.4279400
  60.4227620  28.1278360 131.0134790  59.9218600  27.6280600 132.3518360
  55.4582680  28.4099860 142.3299420  55.4298110  28.8142810 141.4627850
  55.2947650  27.4810220 142.1671020  65.4553470  13.7000770 125.7739200
  65.1426130  13.7927600 126.6738270  66.2165940  14.2781800 125.7236630
  51.9735610  21.0660570 130.2316540  51.8533210  21.7922660 129.6197810
  51.6636500  20.2963480 129.7544450  67.4097500  29.1926960 143.6263590
  67.8857220  29.6709850 144.3052670  68.0304660  29.1244450 142.9009090
  49.6120980  24.2375710 136.0385180  49.6901400  24.3724480 135.0940900
  50.2262660  23.5291600 136.2313300  50.8568610  25.9375900 132.4491360
  50.4496690  26.0790490 131.5944960  51.7481620  25.6536060 132.2462570
  66.8130750  26.3839810 140.7863600  66.9393810  26.1451690 139.8680780
  66.8552130  25.5524350 141.2585680  60.6747490  30.0867810 139.3558410
  61.1892160  29.9975820 140.1580840  59.8316570  30.4327510 139.6486320
  62.6501890  30.3723150 128.7842410  62.4903030  30.0826090 129.6824240
  62.4848600  29.5963280 128.2487640  55.1290270  30.1521680 130.5614030
  54.9532750  29.2357220 130.3481830  54.2746010  30.5108970 130.8011830
  62.3528020  27.8810710 127.3440410  61.6593180  27.8788000 126.6842690
  63.0950880  27.4570030 126.9134580  61.9177950  29.5073420 131.4188900
  62.3734900  28.7262800 131.7327520  62.2570470  30.2180240 131.9630080
  66.6654760  18.4372270 141.7513340  66.0499030  18.9451940 141.2228800
  66.3451180  17.5370600 141.6939280  49.6680500  25.2789880 138.5779640
  49.8311540  24.8095240 137.7599010  50.1332950  24.7713440 139.2428480
  54.4399270  14.4095640 133.6140210  53.9967420  15.1905180 133.2824730
  54.9984260  14.7325530 134.3211150  58.7269080  17.2764160 139.2175530
  58.2648450  17.4847180 140.0295470  58.3247190  16.4623510 138.9146200
  63.7273590  18.4973110 140.3472190  62.8767180  18.1978860 140.6681260
  63.5675380  18.7415120 139.4356010  60.8223300  19.9974860 142.4470980
  61.1476710  19.1638610 142.1073210  61.6103630  20.5203380 142.5949310
  57.5558090  14.0306340 128.4946040  56.9312270  14.0266210 129.2199350
  57.4688210  13.1637300 128.0982010  56.4775170  14.9542970 135.4729810
  56.7747500  15.8605800 135.3921830  57.0260730  14.4661750 134.8589380
  54.2313490  19.5329210 131.3421460  54.0054410  19.3166380 132.2468080
  53.4506020  19.9657670 130.9967430  61.4611250  19.5392580 129.9412110
  60.8620140  20.2628380 129.7575730  62.0090860  19.4769360 129.1588560
  56.6712700  20.4314790 142.0081730  56.5756300  19.4909520 141.8582130
  57.5144680  20.6529860 141.6129800  60.0676120  18.1756120 131.9715390
  60.4605690  18.4928320 131.1584080  60.4292970  17.2968000 132.0859910
  51.8023240  16.8428460 140.1615510  51.4086630  17.6903670 140.3688290
  51.1141640  16.2054830 140.3524150  58.3768290  16.9263430 143.2312250
  57.6866610  16.7335630 143.8658340  59.1200590  17.2098070 143.7636550
  49.1040290  14.7656920 134.1945590  48.8153340  15.3359780 134.9070570
  49.8486050  14.2861370 134.5576820  49.2910520  18.7077040 125.4048310
  49.2085190  19.6507800 125.5463300  48.9393580  18.5651950 124.5260660
  60.6531260  20.7661870 136.0666170  59.9212380  21.2748680 136.4156270
  60.2555600  19.9491850 135.7654950  57.0908650  17.4416070 134.4718660
  57.0944710  17.0006020 133.6223200  57.9859770  17.7633400 134.5790480
  52.9411030  17.3242560 133.4312870  52.6011080  17.8017790 134.1879920
  52.1788350  16.8707680 133.0713970  57.1528800  18.4428150 127.4625420
  57.2741620  18.4014630 128.4111240  56.7677310  19.3052300 127.3072150
  61.1157170  16.2195550 135.4789110  61.1329910  16.6704200 136.3230960
  60.8672750  15.3201190 135.6922550  56.1650300  20.7529290 126.8608720
  55.5967200  20.3047540 126.2344630  56.8739300  21.1122070 126.3273870
  64.5427920  13.6327730 141.3175490  64.8673690  12.9017390 141.8433470
  64.5784430  13.3141370 140.4156480  51.2419480  24.6541310 140.7375450
  50.8574270  24.0134980 141.3358410  51.5531670  25.3577430 141.3070180
  57.3916620  21.5017850 136.2184070  57.7586750  21.0276420 136.9645410
  57.2021680  22.3759420 136.5592410  50.2557110  16.2461540 132.3477540
  49.9704030  15.8817210 133.1856160  50.1935970  15.5142000 131.7340680
  55.1815990  20.5426490 138.5368280  54.8773060  21.4218470 138.7618640
  56.1362450  20.6026280 138.5725720  53.7097780  24.7487480 129.1335130
  52.9360040  24.2085100 128.9733850  54.4392410  24.2294090 128.7952890
  64.4685760  23.7452840 134.9261520  65.1884880  24.2408130 134.5357630
  64.2667580  23.0670730 134.2815390  59.9295700  15.1390800 129.0690910
  59.1160310  14.6403970 128.9936220  59.7357650  15.9789050 128.6527260
  59.8504560  23.8161900 140.8130520  59.7841870  22.8957570 140.5588110
  59.2209700  23.9137340 141.5275160  62.6444090  19.5110450 127.3653070
  63.5323710  19.8227680 127.1904410  62.6149180  18.6382700 126.9733650
  53.7535180  24.4167860 132.7713940  54.2713850  23.6136120 132.7170830
  53.3019200  24.3547000 133.6130770  58.6404680  25.6834140 128.0441240
  58.9820380  26.4276370 127.5484560  57.8117390  25.9965260 128.4066070
  51.2379720  21.3829230 139.6839640  50.8794660  22.0483080 140.2712980
  50.9434280  20.5512780 140.0552260  54.4392840  21.8413470 142.5679190
  54.1392980  21.9870650 141.6707010  55.2104080  21.2818760 142.4752580
  59.7821290  26.6382470 140.5634320  59.7965830  25.7063430 140.3453230
  59.0746390  26.7242230 141.2024090  64.9158360  20.8222290 126.8332930
  64.8322080  21.2536510 125.9829370  65.6352550  21.2820640 127.2659750
  65.9932500  23.2789810 139.9102900  65.2680690  23.8718590 139.7132290
  66.5207960  23.2713350 139.1116270  65.9445610  27.6764550 129.5615060
  65.3021770  27.0220170 129.8358780  65.5576270  28.0819640 128.7855730
  61.5232090  25.0049980 133.4086750  61.8755910  24.4078110 132.7488120
  60.6394420  24.6794210 133.5795000  57.6095370  25.7647670 130.8157160
  58.2966500  26.3116880 131.1964750  56.8227790  26.3088400 130.8506770
  49.7487770  21.3820490 126.3074240  50.6182620  21.6645290 126.5910160
  49.2578090  22.1956360 126.1923050  56.9122580  22.7693700 130.4282520
  57.3685360  23.5798950 130.6542710  56.5610790  22.4516840 131.2601010
  59.2155190  28.2800040 137.6574820  59.8597410  28.4859420 138.3348240
  59.5784630  27.5188440 137.2045670  52.8134360  13.1131350 130.9005040
  52.6848990  13.1049250 131.8489960  51.9896380  13.4514440 130.5496050
  60.4887270  26.2832390 136.3752270  61.1309500  25.5825550 136.4884440
  61.0136620  27.0630830 136.1949160  64.3342990  26.5681010 126.0991410
  64.1080570  25.8511450 126.6916050  63.9439190  26.3193450 125.2613160
  62.2624890  27.0827290 139.5788330  62.5981130  27.6693980 140.2566250
  61.3425230  26.9520000 139.8086120  50.1159020  30.5947870 126.8735870
  50.4756660  31.1937210 126.2193140  49.9751360  31.1407760 127.6470900
  49.8128290  14.8722470 140.3611740  49.0986810  15.0719390 140.9664350
  50.2323330  14.0962040 140.7326540  63.9159240  24.4852950 127.7605570
  63.6280940  24.9465640 128.5483450  64.7111410  24.0250720 128.0289790
  50.1000880  28.8602730 141.3478270  50.2092000  27.9197470 141.2073660
  49.4481440  29.1257480 140.6992000  58.0913470  27.1318620 142.7476390
  57.7710340  26.4127860 143.2922080  57.4171830  27.8073690 142.8212450
  56.1327640  27.9779070 127.6909540  56.1237740  28.7108760 127.0754050
  55.2126000  27.7310650 127.7836500  51.7334280  23.1993960 128.4356300
  51.1262230  23.9392860 128.4451600  52.2083630  23.2893320 127.6094500
  61.3067070  17.3644780 138.1113190  61.6747890  16.5439990 138.4392760
  60.4465270  17.4246670 138.5268840  64.6729100  16.3201720 128.9200750
  64.0442260  16.4247390 128.2058980  64.1781020  16.5398500 129.7094630
  59.1187240  28.0407310 126.3534730  59.2199220  27.8371300 125.4236710
  58.2188980  27.7865590 126.5582510  56.6413130  18.5987670 130.3358630
  55.9329280  19.0674010 130.7772240  56.9257610  17.9409680 130.9703820
  58.2669060  20.0184370 138.3351160  58.7654310  20.4930190 139.0003010
  58.4092010  19.0947890 138.5421190  60.6728560  15.3238330 131.7754420
  60.5496340  15.3424460 130.8263930  61.6213120  15.3717270 131.8952820
  57.7605350  30.5593630 131.0482400  58.0146850  30.5215020 130.1261770
  56.8117830  30.4326960 131.0410650  54.8448150  16.9072750 127.7109340
  55.6938680  17.3442900 127.6449530  54.4779420  17.2193010 128.5381400
  65.4735920  16.2352330 139.1779550  64.9709520  16.9757730 139.5173360
  66.2892580  16.6236330 138.8616340  63.7657930  21.4785510 132.6240910
  62.8248070  21.4935740 132.7988600  64.0802000  20.6921470 133.0701210
  53.7439570  23.1605110 126.1844870  54.5102840  23.0486470 126.7470300
  53.8214260  22.4643080 125.5321640  52.4386330  20.5930180 126.8677760
  52.5189920  19.6457690 126.9795160  53.3306080  20.9237060 126.9738420
  65.7683510  28.6494360 134.2995170  65.8930930  29.4725530 134.7718980
  66.6349070  28.4385090 133.9519320  53.2401040  30.7425570 133.9712300
  53.9763520  30.1941030 134.2420870  53.6241960  31.6081580 133.8318290
  50.1246520  26.8099140 129.8453810  49.1986300  27.0520280 129.8359220
  50.5902950  27.6373400 129.7238560  52.2459320  29.9271640 143.1597880
  53.0472050  30.2483690 143.5733280  51.7311140  29.5667220 143.8817790
  56.3503350  29.9155880 125.7937870  57.1431960  30.2044710 125.3419660
  55.8307700  29.4848050 125.1150350  61.0823950  26.0351510 143.1073290
  60.4762110  26.0583110 142.3669040  60.7778060  25.3034550 143.6440540
  62.5124320  29.7631800 141.7182700  63.4646070  29.6789820 141.6682940
  62.3652540  30.4273510 142.3916490  65.4033520  29.1426010 127.2174610
  65.1175030  28.7291150 126.4028790  65.2053070  30.0713720 127.0975130
  49.9657130  22.4145100 142.1033930  50.4696150  21.8352380 142.6750160
  49.2264550  22.6985330 142.6410300  56.8680750  25.1359290 125.6580220
  56.7631390  24.5211640 126.3841600  56.7004970  24.6125180 124.8743230
  57.0195070  23.8216090 141.6369450  56.2540740  24.3901090 141.5524120
  57.2011030  23.5292300 140.7437680  60.1083480  24.1979320 126.2622210
  59.5593580  24.6448620 126.9064950  60.7302740  23.6928570 126.7859880
  64.1618420  25.5521420 142.1944470  64.9027890  25.8897180 141.6911930
  63.3991100  25.7213480 141.6414240  51.9980210  20.5574690 142.9984000
  52.0385550  20.2588560 143.9069230  52.8525710  20.9582300 142.8391520
  55.7758600  23.1570240 128.1587510  56.1975020  22.9910110 129.0018900
  55.9009440  22.3470470 127.6642650  53.9386020  19.1366790 140.9658490
  53.4082480  18.6457740 140.3381830  54.6074090  19.5650990 140.4316420
  58.2886240  22.1807850 125.4064610  58.8091900  21.4656870 125.0405760
  58.9354640  22.8193720 125.7065120  62.8364080  23.6036250 140.7299680
  63.2505100  23.7581330 141.5790100  61.9015080  23.7291470 140.8925460
  63.3086250  20.9432410 142.7338830  63.8907020  20.1884730 142.6459310
  63.4848020  21.4739850 141.9570310  54.4258320  16.1029160 141.0455780
  54.3315190  15.4849910 140.3206650  53.8455710  16.8295450 140.8185690
  57.1919760  14.6602400 138.0783170  56.7437060  14.6826660 137.2328720
  56.5584960  14.2621420 138.6753470  57.5979310  23.5556730 138.6995610
  58.0167420  24.3989460 138.5271850  56.6787940  23.6928770 138.4702390
  59.9343210  21.2872910 140.0833450  60.0539420  20.6914050 140.8228290
  60.7937210  21.3242600 139.6634750  62.2731110  21.8410100 138.6595960
  61.7466330  22.3652720 138.0561100  62.6162450  22.4737490 139.2905690
  54.6717500  19.2303470 125.1045670  54.4706560  18.3670830 125.4659010
  54.5009550  19.1436830 124.1667270  55.4486730  29.8609740 139.8153340
  54.9107820  30.5855800 139.4962040  55.7020690  29.3840080 139.0250680
  56.7011980  17.8294260 141.3409270  57.2911670  17.5210110 142.0287090
  55.8832220  17.3574010 141.4969170  61.5205410  17.4460070 141.5742290
  60.8320930  16.7841610 141.5092280  62.2411430  16.9998340 142.0190750
  62.1505810  14.0411700 127.6332550  62.4308100  13.1979600 127.9891970
  61.3771540  14.2734810 128.1471300  53.4700300  16.3304090 125.0923550
  53.7726200  16.3371520 124.1842700  54.2094890  15.9801950 125.5891210
  58.3048940  31.0960950 140.0739990  58.2307640  31.9996090 140.3812360
  57.4027780  30.7772850 140.0462060  56.6885230  15.2738710 126.0779750
  56.3407230  14.5962700 125.4982200  56.8898000  14.8128220 126.8923140
  58.8534270  30.2619460 127.6966350  59.7485060  30.6004430 127.7185110
  58.8851900  29.5398870 127.0690630  52.4930430  25.6346510 125.9253350
  52.9305300  26.1776180 126.5810930  52.9778160  24.8093460 125.9349690
  49.7076230  28.4235540 133.3773610  50.0379240  27.5556600 133.1452250
  50.1367230  28.6294060 134.2078570  54.3038150  26.7544550 131.0375580
  54.0033690  26.6309520 131.9379490  54.1975640  25.8953140 130.6291310
  50.1966440  29.2906130 136.1155240  49.7597430  29.4706930 136.9479390
  50.7644120  30.0480750 135.9736960  65.8328620  28.7923130 140.4032550
  65.2330610  28.8515690 139.6596470  65.9622520  27.8528110 140.5329400
  67.0730070  26.5340950 125.7402260  66.2423030  26.6017600 126.2109490
  67.2501900  27.4245070 125.4369120  66.5286530  23.2788430 128.2436460
  67.2905440  23.8485080 128.3496150  66.5440900  22.7115630 129.0144770
  50.0290870  21.8026360 132.4744120  49.3739710  21.5338000 131.8303820
  50.8668820  21.6930840 132.0246100  67.5346500  24.1338530 133.0878390
  67.9055330  23.3505850 132.6814360  68.1748430  24.8227630 132.9095690
  64.5180260  25.5175110 138.5008710  63.7040100  25.9472270 138.7634500
  64.9254460  26.1293520 137.8877760  66.5805700  23.5722800 125.4008980
  66.8554540  24.4801680 125.2728200  66.3916440  23.5085330 126.3370970
  62.9781310  16.5967650 126.6962610  63.3966190  16.4098630 125.8559270
  62.6717370  15.7446700 127.0065540  66.4771040  21.5091790 130.3938410
  66.1014640  20.7419720 129.9619700  65.7474160  21.8914490 130.8813340
  51.0666800  22.1878930 137.0147460  51.4339840  22.1006330 137.8943480
  50.4977620  21.4245480 136.9154320  65.8670660  20.6563310 140.0277930
  65.6356750  20.4276060 139.1275880  66.1275210  21.5762860 139.9822820
  50.6182800  19.0988020 140.9205880  49.7238850  19.0654780 141.2599590
  51.1580350  19.2974810 141.6857130  64.3058730  15.8819740 142.8057630
  65.1828910  15.8903140 143.1891630  64.3179570  15.1450580 142.1949980
  49.2428950  19.0125290 128.4169450  48.3393030  19.2755490 128.2421110
  49.7269570  19.2836460 127.6369410  65.7522000  19.7349280 133.6945650
  66.2759480  19.2411930 133.0635820  66.3381420  19.8699640 134.4393220
  65.9311720  19.8189150 137.2165200  64.9814430  19.7852690 137.3310190
  66.1124730  20.7289260 136.9814970  51.7856160  18.0690830 126.3263830
  52.4947860  17.6474050 125.8411110  51.0696100  18.1366060 125.6947180
  51.4330320  14.1230160 125.3666480  52.1558450  14.6639100 125.6847700
  51.7054840  13.8493580 124.4908020  65.2421970  18.9922630 129.6338060
  65.7381090  18.7593500 130.4186940  65.0438040  18.1534470 129.2175700
  51.1222510  13.3736350 135.2689100  51.7698700  12.8233730 134.8284260
  51.5424350  13.6279500 136.0904910  66.6709130  17.6283580 132.1675740
  66.5608410  17.4739620 133.1058010  67.4316720  17.1004520 131.9251150
  65.0174850  13.5677710 138.6258740  65.6547070  14.1811850 138.9917930
  65.1649740  13.6038370 137.6807970  67.5599400  15.4591500 125.4081880
  68.4848710  15.3272680 125.2000170  67.5375190  15.5384320 126.3618330
  67.6337890  16.2302160 128.0338590  66.8389390  16.1647280 128.5631500
  67.8381170  17.1652800 128.0223940  64.5756310  30.2693710 132.0276980
  65.1715380  29.9478280 131.3511400  64.8334460  29.7965530 132.8190250
  50.8754510  13.5292020 138.0114420  50.5269330  13.9855840 138.7772600
  50.5442210  12.6349150 138.0936850  52.4818880  26.7011620 142.1767610
  52.4388510  26.3304530 143.0582070  52.6129890  27.6389190 142.3169430
  56.1824910  28.2571210 137.7777330  55.9416270  28.5245770 136.8907850
  57.1227550  28.4276940 137.8328190  58.3879330  14.7203900 141.5333840
  58.3268220  15.3125730 142.2829250  59.3279710  14.6129860 141.3884100
  61.0253890  14.3773960 141.1726130  61.6394300  14.6953250 140.5107210
  61.5703450  13.8922550 141.7921990  67.4429070  30.2765590 138.5787970
  66.9487350  30.6734460 137.8615100  66.8342360  29.6514800 138.9725250
  51.5475150  13.0568220 141.2865190  52.0958140  12.8756270 140.5231300
  51.6130460  12.2662330 141.8221500  52.3206910  29.6473870 139.2965390
  51.7267230  29.5158570 140.0355430  52.3130750  28.8112010 138.8307490
  61.7661930  12.9406100 137.4995420  60.8921770  13.2741210 137.2968350
  61.6572680  12.4679280 138.3247290  62.6733910  15.1476970 138.8837140
  62.3447270  14.3328730 138.5038870  63.6216210  15.1046780 138.7602830
  65.1268520  30.9189010 135.8574710  64.6671490  31.6704820 135.4832730
  64.4980980  30.1995480 135.7989510  51.9519140  27.0132250 138.2473430
  51.2253200  26.3937540 138.1799380  52.0128290  27.4072860 137.3771510
  55.5564240  29.2277250 135.0322840  56.0729260  28.6164610 134.5071100
  56.2061620  29.7306030 135.5233850  58.2959740  30.1185740 135.8591820
  58.5837550  29.8640040 134.9824830  58.8082960  29.5663100 136.4497390
  59.5136750  13.8575940 136.4388330  58.7308540  14.3321440 136.7185090
  59.2199680  12.9530770 136.3301510  64.0657820  14.5599040 134.4837420
  64.5065910  14.5044140 133.6359020  63.7965410  15.4757050 134.5547600
  65.9296390  14.1914280 132.4946240  65.8684790  13.2475500 132.3477260
  66.7088420  14.2994370 133.0399700  50.2349140  30.3306640 131.4570190
  50.0671180  29.6977320 132.1552080  49.3683650  30.5366040 131.1064380
  50.8577160  14.1623420 128.9602050  51.6156520  14.2752300 128.3866080
  50.3954330  14.9992620 128.9145480  57.3990970  16.2762690 131.9504360
  56.5865480  15.9019580 131.6100240  57.9032610  15.5207770 132.2525550
  61.9015950  12.9405140 133.1887430  62.5045320  13.5125350 133.6635950
  61.1608940  13.5044580 132.9661330  65.0450550  13.3426700 128.4627710
  65.2401180  14.2410150 128.7295140  64.2580420  13.1113780 128.9560660
  51.8411840  29.0239870 128.9020330  51.3159460  29.4047900 128.1982290
  51.7656420  29.6490640 129.6230040  53.2302310  14.6887470 127.5004020
  53.7595070  13.9017270 127.3711970  53.8630630  15.3678660 127.7339550
  55.4240150  14.4262610 130.5549410  54.7942890  13.7249920 130.7219540
  54.8845290  15.1866740 130.3382570  58.3632100  31.0401840 143.2260020
  59.2899410  30.8046110 143.2695980  58.3482530  31.8673840 142.7446050
  66.5977160  30.5827410 130.2234270  66.7729350  29.8965150 129.5795190
  65.8998730  31.1074460 129.8310940  55.5495710  13.7046590 142.9901900
  55.2679980  14.2080190 142.2262720  55.9315410  12.9068340 142.6244030
  54.4404810  30.9722250 127.7769580  55.1723630  30.6881530 127.2293470
  54.6998480  30.7335530 128.6668960  53.6019600  27.0886980 127.7815910
  52.9728480  27.5572080 128.3301740  53.7167430  26.2436200 128.2162100
  62.1511170  13.1200170 143.5682370  62.0376620  13.4394780 144.4633890
  62.9680910  13.5212680 143.2719650  64.9309660  30.2671700 143.0501060
  65.7234980  29.7720930 142.8427020  65.2242810  30.9461840 143.6576670
  61.0569320  21.1392640 113.9317110  60.9763370  20.2247250 113.6608820
  60.6433740  21.6359710 113.2256820  59.1887360  22.9171660 115.8126380
  58.4129460  22.4372100 116.1024950  59.8400290  22.2377310 115.6382540
  53.2053190  23.2291470 116.6902140  52.3738070  22.9740180 117.0898650
  53.8134170  23.3002240 117.4260060  53.1854450  27.2631560 116.8860160
  53.4882490  26.3729300 116.7070380  53.9298040  27.8201780 116.6582410
  51.6145140  18.1893360 110.4744530  50.7261840  18.5309330 110.3724410
  51.8986330  17.9893680 109.5825360  49.5778150  20.7899010 116.3584230
  50.1494260  20.0221210 116.3587870  49.5779690  21.0887770 115.4490840
  50.8203020  16.1983370 118.1453160  50.6405860  15.3009120 118.4255920
  50.4183100  16.7455240 118.8200110  59.6601520  18.3999230 116.0465470
  60.0366340  17.5271110 115.9339140  59.5621030  18.7357930 115.1555910
  53.7906530  16.7724860 111.5082910  53.8973280  17.6728590 111.8151670
  52.8798890  16.7242830 111.2177560  63.4425640  15.8949670 112.9793810
  64.2635260  15.4046240 113.0219290  63.4759720  16.4847330 113.7325650
  51.4389690  18.6943870 116.7535500  52.1199800  18.9582240 117.3722900
  51.1237740  17.8544740 117.0873510  55.6314260  19.7411230 115.8408090
  56.1392480  20.2392200 116.4813110  56.1627500  18.9646430 115.6647450
  67.7325190  17.9116420 119.5437440  67.0277360  18.2998130 119.0252550
  67.9983110  18.6066710 120.1458370  53.9150360  14.3809790 120.1071510
  53.9168800  14.8982180 119.3017410  53.0854670  13.9039970 120.0841440
  55.1653210  24.0204970 118.2845010  54.8322590  24.6473890 118.9266080
  55.3419890  24.5466850 117.5046680  63.6787120  17.8350050 115.7521350
  62.9742690  18.1234940 116.3324460  64.0399280  18.6450160 115.3920910
  53.5965690  16.0919750 118.1141960  53.9382500  16.9361800 117.8195830
  52.6581500  16.2403490 118.2307300  54.3772310  25.9885770 120.0994190
  54.9946310  26.6636850 119.8178640  53.5165430  26.3973750 120.0081690
  49.6704650  25.1785630 108.9801040  49.2932630  25.6672730 108.2485940
  49.9277720  25.8510910 109.6107570  66.7474040  17.2804840 116.1430560
  65.7998950  17.3143820 116.2745990  67.0724030  18.0943790 116.5279920
  57.2793580  13.5802020 114.4386550  57.5868560  13.0248910 113.7222050
  56.3494280  13.7146480 114.2559540  62.2294080  24.1999150 118.0576620
  62.6462870  23.9859260 117.2230080  62.9533900  24.4571940 118.6285240
  59.6674340  21.6450850 111.1746670  58.7403620  21.5788230 111.4035140
  59.8199160  22.5830980 111.0601910  59.6543420  17.9167850 108.1713830
  58.7147090  18.0781810 108.2566290  59.9726680  18.6353530 107.6249820
  66.1756180  22.5986370 118.1492860  65.3474810  22.6679460 117.6742990
  66.7706660  23.1840680 117.6808690  63.1398190  19.3855690 119.0947730
  62.7269370  20.2109400 119.3487720  62.4074140  18.8000730 118.9024090
  55.2730980  22.1715590 113.9566400  54.8687980  21.4592840 113.4612300
  55.3594100  21.8268830 114.8454440  55.7412680  25.8583150 116.1205610
  55.4440970  25.2528620 115.4413390  56.6912500  25.8960460 116.0094970
  53.9859600  18.9458800 117.7365440  54.5374190  19.0554140 116.9618690
  54.5003110  19.3196400 118.4520670  54.8331110  25.5964840 122.7713410
  53.9359640  25.8204810 123.0186810  54.8583980  25.7199780 121.8224810
  53.6602330  22.4678160 121.3470780  53.5210100  23.3400960 121.7158180
  52.7783690  22.1250970 121.2018720  55.4582680  28.4099860 123.5555930
  55.4298110  28.8142810 122.6884360  55.2947650  27.4810220 123.3927530
  65.4553470  13.7000770 106.9995710  65.1426130  13.7927600 107.8994780
  66.2165940  14.2781800 106.9493140  51.9735610  21.0660570 111.4573050
  51.8533210  21.7922660 110.8454320  51.6636500  20.2963480 110.9800960
  67.4097500  29.1926960 124.8520100  67.8857220  29.6709850 125.5309180
  68.0304660  29.1244450 124.1265600  49.6120980  24.2375710 117.2641690
  49.6901400  24.3724480 116.3197410  50.2262660  23.5291600 117.4569810
  50.8568610  25.9375900 113.6747870  50.4496690  26.0790490 112.8201470
  51.7481620  25.6536060 113.4719080  66.8130750  26.3839810 122.0120110
  66.9393810  26.1451690 121.0937290  66.8552130  25.5524350 122.4842190
  60.6747490  30.0867810 120.5814920  61.1892160  29.9975820 121.3837350
  59.8316570  30.4327510 120.8742830  66.6654760  18.4372270 122.9769850
  66.0499030  18.9451940 122.4485310  66.3451180  17.5370600 122.9195790
  49.6680500  25.2789880 119.8036150  49.8311540  24.8095240 118.9855520
  50.1332950  24.7713440 120.4684990  54.4399270  14.4095640 114.8396720
  53.9967420  15.1905180 114.5081240  54.9984260  14.7325530 115.5467660
  58.7269080  17.2764160 120.4432040  58.2648450  17.4847180 121.2551980
  58.3247190  16.4623510 120.1402710  63.7273590  18.4973110 121.5728700
  62.8767180  18.1978860 121.8937770  63.5675380  18.7415120 120.6612520
  60.8223300  19.9974860 123.6727490  61.1476710  19.1638610 123.3329720
  61.6103630  20.5203380 123.8205820  57.5558090  14.0306340 109.7202550
  56.9312270  14.0266210 110.4455860  57.4688210  13.1637300 109.3238520
  56.4775170  14.9542970 116.6986320  56.7747500  15.8605800 116.6178340
  57.0260730  14.4661750 116.0845890  54.2313490  19.5329210 112.5677970
  54.0054410  19.3166380 113.4724590  53.4506020  19.9657670 112.2223940
  61.4611250  19.5392580 111.1668620  60.8620140  20.2628380 110.9832240
  62.0090860  19.4769360 110.3845070  56.6712700  20.4314790 123.2338240
  56.5756300  19.4909520 123.0838640  57.5144680  20.6529860 122.8386310
  60.0676120  18.1756120 113.1971900  60.4605690  18.4928320 112.3840590
  60.4292970  17.2968000 113.3116420  51.8023240  16.8428460 121.3872020
  51.4086630  17.6903670 121.5944800  51.1141640  16.2054830 121.5780660
  58.3768290  16.9263430 124.4568760  57.6866610  16.7335630 125.0914850
  59.1200590  17.2098070 124.9893060  49.1040290  14.7656920 115.4202100
  48.8153340  15.3359780 116.1327080  49.8486050  14.2861370 115.7833330
  49.2910520  18.7077040 106.6304820  49.2085190  19.6507800 106.7719810
  48.9393580  18.5651950 105.7517170  60.6531260  20.7661870 117.2922680
  59.9212380  21.2748680 117.6412780  60.2555600  19.9491850 116.9911460
  57.0908650  17.4416070 115.6975170  57.0944710  17.0006020 114.8479710
  57.9859770  17.7633400 115.8046990  52.9411030  17.3242560 114.6569380
  52.6011080  17.8017790 115.4136430  52.1788350  16.8707680 114.2970480
  57.1528800  18.4428150 108.6881930  57.2741620  18.4014630 109.6367750
  56.7677310  19.3052300 108.5328660  61.1157170  16.2195550 116.7045620
  61.1329910  16.6704200 117.5487470  60.8672750  15.3201190 116.9179060
  56.1650300  20.7529290 108.0865230  55.5967200  20.3047540 107.4601140
  56.8739300  21.1122070 107.5530380  64.5427920  13.6327730 122.5432000
  64.8673690  12.9017390 123.0689980  64.5784430  13.3141370 121.6412990
  51.2419480  24.6541310 121.9631960  50.8574270  24.0134980 122.5614920
  51.5531670  25.3577430 122.5326690  57.3916620  21.5017850 117.4440580
  57.7586750  21.0276420 118.1901920  57.2021680  22.3759420 117.7848920
  50.2557110  16.2461540 113.5734050  49.9704030  15.8817210 114.4112670
  50.1935970  15.5142000 112.9597190  55.1815990  20.5426490 119.7624790
  54.8773060  21.4218470 119.9875150  56.1362450  20.6026280 119.7982230
  53.7097780  24.7487480 110.3591640  52.9360040  24.2085100 110.1990360
  54.4392410  24.2294090 110.0209400  64.4685760  23.7452840 116.1518030
  65.1884880  24.2408130 115.7614140  64.2667580  23.0670730 115.5071900
  59.9295700  15.1390800 110.2947420  59.1160310  14.6403970 110.2192730
  59.7357650  15.9789050 109.8783770  59.8504560  23.8161900 122.0387030
  59.7841870  22.8957570 121.7844620  59.2209700  23.9137340 122.7531670
  62.6444090  19.5110450 108.5909580  63.5323710  19.8227680 108.4160920
  62.6149180  18.6382700 108.1990160  53.7535180  24.4167860 113.9970450
  54.2713850  23.6136120 113.9427340  53.3019200  24.3547000 114.8387280
  51.2379720  21.3829230 120.9096150  50.8794660  22.0483080 121.4969490
  50.9434280  20.5512780 121.2808770  54.4392840  21.8413470 123.7935700
  54.1392980  21.9870650 122.8963520  55.2104080  21.2818760 123.7009090
  59.7821290  26.6382470 121.7890830  59.7965830  25.7063430 121.5709740
  59.0746390  26.7242230 122.4280600  64.9158360  20.8222290 108.0589440
  64.8322080  21.2536510 107.2085880  65.6352550  21.2820640 108.4916260
  65.9932500  23.2789810 121.1359410  65.2680690  23.8718590 120.9388800
  66.5207960  23.2713350 120.3372780  49.7487770  21.3820490 107.5330750
  50.6182620  21.6645290 107.8166670  49.2578090  22.1956360 107.4179560
  56.9122580  22.7693700 111.6539030  57.3685360  23.5798950 111.8799220
  56.5610790  22.4516840 112.4857520  52.8134360  13.1131350 112.1261550
  52.6848990  13.1049250 113.0746470  51.9896380  13.4514440 111.7752560
  62.2624890  27.0827290 120.8044840  62.5981130  27.6693980 121.4822760
  61.3425230  26.9520000 121.0342630  49.8128290  14.8722470 121.5868250
  49.0986810  15.0719390 122.1920860  50.2323330  14.0962040 121.9583050
  50.1000880  28.8602730 122.5734780  50.2092000  27.9197470 122.4330170
  49.4481440  29.1257480 121.9248510  58.0913470  27.1318620 123.9732900
  57.7710340  26.4127860 124.5178590  57.4171830  27.8073690 124.0468960
  56.1327640  27.9779070 108.9166050  56.1237740  28.7108760 108.3010560
  55.2126000  27.7310650 109.0093010  51.7334280  23.1993960 109.6612810
  51.1262230  23.9392860 109.6708110  52.2083630  23.2893320 108.8351010
  61.3067070  17.3644780 119.3369700  61.6747890  16.5439990 119.6649270
  60.4465270  17.4246670 119.7525350  64.6729100  16.3201720 110.1457260
  64.0442260  16.4247390 109.4315490  64.1781020  16.5398500 110.9351140
  56.6413130  18.5987670 111.5615140  55.9329280  19.0674010 112.0028750
  56.9257610  17.9409680 112.1960330  58.2669060  20.0184370 119.5607670
  58.7654310  20.4930190 120.2259520  58.4092010  19.0947890 119.7677700
  60.6728560  15.3238330 113.0010930  60.5496340  15.3424460 112.0520440
  61.6213120  15.3717270 113.1209330  54.8448150  16.9072750 108.9365850
  55.6938680  17.3442900 108.8706040  54.4779420  17.2193010 109.7637910
  65.4735920  16.2352330 120.4036060  64.9709520  16.9757730 120.7429870
  66.2892580  16.6236330 120.0872850  63.7657930  21.4785510 113.8497420
  62.8248070  21.4935740 114.0245110  64.0802000  20.6921470 114.2957720
  53.7439570  23.1605110 107.4101380  54.5102840  23.0486470 107.9726810
  53.8214260  22.4643080 106.7578150  52.4386330  20.5930180 108.0934270
  52.5189920  19.6457690 108.2051670  53.3306080  20.9237060 108.1994930
  53.2401040  30.7425570 115.1968810  53.9763520  30.1941030 115.4677380
  53.6241960  31.6081580 115.0574800  52.2459320  29.9271640 124.3854390
  53.0472050  30.2483690 124.7989790  51.7311140  29.5667220 125.1074300
  56.3503350  29.9155880 107.0194380  57.1431960  30.2044710 106.5676170
  55.8307700  29.4848050 106.3406860  61.0823950  26.0351510 124.3329800
  60.4762110  26.0583110 123.5925550  60.7778060  25.3034550 124.8697050
  62.5124320  29.7631800 122.9439210  63.4646070  29.6789820 122.8939450
  62.3652540  30.4273510 123.6173000  49.9657130  22.4145100 123.3290440
  50.4696150  21.8352380 123.9006670  49.2264550  22.6985330 123.8666810
  56.8680750  25.1359290 106.8836730  56.7631390  24.5211640 107.6098110
  56.7004970  24.6125180 106.0999740  57.0195070  23.8216090 122.8625960
  56.2540740  24.3901090 122.7780630  57.2011030  23.5292300 121.9694190
  64.1618420  25.5521420 123.4200980  64.9027890  25.8897180 122.9168440
  63.3991100  25.7213480 122.8670750  51.9980210  20.5574690 124.2240510
  52.0385550  20.2588560 125.1325740  52.8525710  20.9582300 124.0648030
  55.7758600  23.1570240 109.3844020  56.1975020  22.9910110 110.2275410
  55.9009440  22.3470470 108.8899160  53.9386020  19.1366790 122.1915000
  53.4082480  18.6457740 121.5638340  54.6074090  19.5650990 121.6572930
  58.2886240  22.1807850 106.6321120  58.8091900  21.4656870 106.2662270
  58.9354640  22.8193720 106.9321630  62.8364080  23.6036250 121.9556190
  63.2505100  23.7581330 122.8046610  61.9015080  23.7291470 122.1181970
  63.3086250  20.9432410 123.9595340  63.8907020  20.1884730 123.8715820
  63.4848020  21.4739850 123.1826820  54.4258320  16.1029160 122.2712290
  54.3315190  15.4849910 121.5463160  53.8455710  16.8295450 122.0442200
  57.1919760  14.6602400 119.3039680  56.7437060  14.6826660 118.4585230
  56.5584960  14.2621420 119.9009980  57.5979310  23.5556730 119.9252120
  58.0167420  24.3989460 119.7528360  56.6787940  23.6928770 119.6958900
  59.9343210  21.2872910 121.3089960  60.0539420  20.6914050 122.0484800
  60.7937210  21.3242600 120.8891260  62.2731110  21.8410100 119.8852470
  61.7466330  22.3652720 119.2817610  62.6162450  22.4737490 120.5162200
  54.6717500  19.2303470 106.3302180  54.4706560  18.3670830 106.6915520
  54.5009550  19.1436830 105.3923780  55.4486730  29.8609740 121.0409850
  54.9107820  30.5855800 120.7218550  55.7020690  29.3840080 120.2507190
  56.7011980  17.8294260 122.5665780  57.2911670  17.5210110 123.2543600
  55.8832220  17.3574010 122.7225680  61.5205410  17.4460070 122.7998800
  60.8320930  16.7841610 122.7348790  62.2411430  16.9998340 123.2447260
  62.1505810  14.0411700 108.8589060  62.4308100  13.1979600 109.2148480
  61.3771540  14.2734810 109.3727810  53.4700300  16.3304090 106.3180060
  53.7726200  16.3371520 105.4099210  54.2094890  15.9801950 106.8147720
  58.3048940  31.0960950 121.2996500  58.2307640  31.9996090 121.6068870
  57.4027780  30.7772850 121.2718570  56.6885230  15.2738710 107.3036260
  56.3407230  14.5962700 106.7238710  56.8898000  14.8128220 108.1179650
  58.8534270  30.2619460 108.9222860  59.7485060  30.6004430 108.9441620
  58.8851900  29.5398870 108.2947140  52.4930430  25.6346510 107.1509860
  52.9305300  26.1776180 107.8067440  52.9778160  24.8093460 107.1606200
  49.7076230  28.4235540 114.6030120  50.0379240  27.5556600 114.3708760
  50.1367230  28.6294060 115.4335080  54.3038150  26.7544550 112.2632090
  54.0033690  26.6309520 113.1636000  54.1975640  25.8953140 111.8547820
  50.1966440  29.2906130 117.3411750  49.7597430  29.4706930 118.1735900
  50.7644120  30.0480750 117.1993470  65.8328620  28.7923130 121.6289060
  65.2330610  28.8515690 120.8852980  65.9622520  27.8528110 121.7585910
  50.0290870  21.8026360 113.7000630  49.3739710  21.5338000 113.0560330
  50.8668820  21.6930840 113.2502610  67.5346500  24.1338530 114.3134900
  67.9055330  23.3505850 113.9070870  68.1748430  24.8227630 114.1352200
  64.5180260  25.5175110 119.7265220  63.7040100  25.9472270 119.9891010
  64.9254460  26.1293520 119.1134270  62.9781310  16.5967650 107.9219120
  63.3966190  16.4098630 107.0815780  62.6717370  15.7446700 108.2322050
  66.4771040  21.5091790 111.6194920  66.1014640  20.7419720 111.1876210
  65.7474160  21.8914490 112.1069850  51.0666800  22.1878930 118.2403970
  51.4339840  22.1006330 119.1199990  50.4977620  21.4245480 118.1410830
  65.8670660  20.6563310 121.2534440  65.6356750  20.4276060 120.3532390
  66.1275210  21.5762860 121.2079330  50.6182800  19.0988020 122.1462390
  49.7238850  19.0654780 122.4856100  51.1580350  19.2974810 122.9113640
  64.3058730  15.8819740 124.0314140  65.1828910  15.8903140 124.4148140
  64.3179570  15.1450580 123.4206490  49.2428950  19.0125290 109.6425960
  48.3393030  19.2755490 109.4677620  49.7269570  19.2836460 108.8625920
  65.7522000  19.7349280 114.9202160  66.2759480  19.2411930 114.2892330
  66.3381420  19.8699640 115.6649730  65.9311720  19.8189150 118.4421710
  64.9814430  19.7852690 118.5566700  66.1124730  20.7289260 118.2071480
  51.7856160  18.0690830 107.5520340  52.4947860  17.6474050 107.0667620
  51.0696100  18.1366060 106.9203690  51.4330320  14.1230160 106.5922990
  52.1558450  14.6639100 106.9104210  51.7054840  13.8493580 105.7164530
  65.2421970  18.9922630 110.8594570  65.7381090  18.7593500 111.6443450
  65.0438040  18.1534470 110.4432210  51.1222510  13.3736350 116.4945610
  51.7698700  12.8233730 116.0540770  51.5424350  13.6279500 117.3161420
  66.6709130  17.6283580 113.3932250  66.5608410  17.4739620 114.3314520
  67.4316720  17.1004520 113.1507660  65.0174850  13.5677710 119.8515250
  65.6547070  14.1811850 120.2174440  65.1649740  13.6038370 118.9064480
  67.5599400  15.4591500 106.6338390  68.4848710  15.3272680 106.4256680
  67.5375190  15.5384320 107.5874840  67.6337890  16.2302160 109.2595100
  66.8389390  16.1647280 109.7888010  67.8381170  17.1652800 109.2480450
  50.8754510  13.5292020 119.2370930  50.5269330  13.9855840 120.0029110
  50.5442210  12.6349150 119.3193360  52.4818880  26.7011620 123.4024120
  52.4388510  26.3304530 124.2838580  52.6129890  27.6389190 123.5425940
  56.1824910  28.2571210 119.0033840  55.9416270  28.5245770 118.1164360
  57.1227550  28.4276940 119.0584700  58.3879330  14.7203900 122.7590350
  58.3268220  15.3125730 123.5085760  59.3279710  14.6129860 122.6140610
  61.0253890  14.3773960 122.3982640  61.6394300  14.6953250 121.7363720
  61.5703450  13.8922550 123.0178500  51.5475150  13.0568220 122.5121700
  52.0958140  12.8756270 121.7487810  51.6130460  12.2662330 123.0478010
  52.3206910  29.6473870 120.5221900  51.7267230  29.5158570 121.2611940
  52.3130750  28.8112010 120.0564000  61.7661930  12.9406100 118.7251930
  60.8921770  13.2741210 118.5224860  61.6572680  12.4679280 119.5503800
  62.6733910  15.1476970 120.1093650  62.3447270  14.3328730 119.7295380
  63.6216210  15.1046780 119.9859340  51.9519140  27.0132250 119.4729940
  51.2253200  26.3937540 119.4055890  52.0128290  27.4072860 118.6028020
  55.5564240  29.2277250 116.2579350  56.0729260  28.6164610 115.7327610
  56.2061620  29.7306030 116.7490360  59.5136750  13.8575940 117.6644840
  58.7308540  14.3321440 117.9441600  59.2199680  12.9530770 117.5558020
  64.0657820  14.5599040 115.7093930  64.5065910  14.5044140 114.8615530
  63.7965410  15.4757050 115.7804110  65.9296390  14.1914280 113.7202750
  65.8684790  13.2475500 113.5733770  66.7088420  14.2994370 114.2656210
  50.8577160  14.1623420 110.1858560  51.6156520  14.2752300 109.6122590
  50.3954330  14.9992620 110.1401990  57.3990970  16.2762690 113.1760870
  56.5865480  15.9019580 112.8356750  57.9032610  15.5207770 113.4782060
  61.9015950  12.9405140 114.4143940  62.5045320  13.5125350 114.8892460
  61.1608940  13.5044580 114.1917840  65.0450550  13.3426700 109.6884220
  65.2401180  14.2410150 109.9551650  64.2580420  13.1113780 110.1817170
  53.2302310  14.6887470 108.7260530  53.7595070  13.9017270 108.5968480
  53.8630630  15.3678660 108.9596060  55.4240150  14.4262610 111.7805920
  54.7942890  13.7249920 111.9476050  54.8845290  15.1866740 111.5639080
  58.3632100  31.0401840 124.4516530  59.2899410  30.8046110 124.4952490
  58.3482530  31.8673840 123.9702560  55.5495710  13.7046590 124.2158410
  55.2679980  14.2080190 123.4519230  55.9315410  12.9068340 123.8500540
  53.6019600  27.0886980 109.0072420  52.9728480  27.5572080 109.5558250
  53.7167430  26.2436200 109.4418610  62.1511170  13.1200170 124.7938880
  62.0376620  13.4394780 125.6890400  62.9680910  13.5212680 124.4976160
  64.9309660  30.2671700 124.2757570  65.7234980  29.7720930 124.0683530
  65.2242810  30.9461840 124.8833180  53.1854450  27.2631560  98.1116670
  53.4882490  26.3729300  97.9326890  53.9298040  27.8201780  97.8838920
  51.6145140  18.1893360  91.7001040  50.7261840  18.5309330  91.5980920
  51.8986330  17.9893680  90.8081870  49.5778150  20.7899010  97.5840740
  50.1494260  20.0221210  97.5844380  49.5779690  21.0887770  96.6747350
  59.4358100  29.6089860  95.4386010  58.8169540  30.0647360  94.8680450
  60.2909880  29.7641320  95.0375710  50.8203020  16.1983370  99.3709670
  50.6405860  15.3009120  99.6512430  50.4183100  16.7455240 100.0456620
  53.7906530  16.7724860  92.7339420  53.8973280  17.6728590  93.0408180
  52.8798890  16.7242830  92.4434070  63.4425640  15.8949670  94.2050320
  64.2635260  15.4046240  94.2475800  63.4759720  16.4847330  94.9582160
  51.4389690  18.6943870  97.9792010  52.1199800  18.9582240  98.5979410
  51.1237740  17.8544740  98.3130020  55.6314260  19.7411230  97.0664600
  56.1392480  20.2392200  97.7069620  56.1627500  18.9646430  96.8903960
  67.7325190  17.9116420 100.7693950  67.0277360  18.2998130 100.2509060
  67.9983110  18.6066710 101.3714880  53.9150360  14.3809790 101.3328020
  53.9168800  14.8982180 100.5273920  53.0854670  13.9039970 101.3097950
  60.3021450  24.4929100  92.8317920  59.6838720  24.9578550  92.2680640
  60.8144700  25.1856580  93.2487430  55.1653210  24.0204970  99.5101520
  54.8322590  24.6473890 100.1522590  55.3419890  24.5466850  98.7303190
  53.5965690  16.0919750  99.3398470  53.9382500  16.9361800  99.0452340
  52.6581500  16.2403490  99.4563810  54.3772310  25.9885770 101.3250700
  54.9946310  26.6636850 101.0435150  53.5165430  26.3973750 101.2338200
  49.6704650  25.1785630  90.2057550  49.2932630  25.6672730  89.4742450
  49.9277720  25.8510910  90.8364080  66.7474040  17.2804840  97.3687070
  65.7998950  17.3143820  97.5002500  67.0724030  18.0943790  97.7536430
  57.2793580  13.5802020  95.6643060  57.5868560  13.0248910  94.9478560
  56.3494280  13.7146480  95.4816050  59.6674340  21.6450850  92.4003180
  58.7403620  21.5788230  92.6291650  59.8199160  22.5830980  92.2858420
  53.9859600  18.9458800  98.9621950  54.5374190  19.0554140  98.1875200
  54.5003110  19.3196400  99.6777180  63.8298290  29.4315020 101.0085220
  63.3528850  30.2387210 100.8157830  63.1460080  28.7793350 101.1611430
  54.8331110  25.5964840 103.9969920  53.9359640  25.8204810 104.2443320
  54.8583980  25.7199780 103.0481320  53.6602330  22.4678160 102.5727290
  53.5210100  23.3400960 102.9414690  52.7783690  22.1250970 102.4275230
  59.9831710  27.3854030  93.8792420  60.4227620  28.1278360  93.4647810
  59.9218600  27.6280600  94.8031380  55.4582680  28.4099860 104.7812440
  55.4298110  28.8142810 103.9140870  55.2947650  27.4810220 104.6184040
  65.4553470  13.7000770  88.2252220  65.1426130  13.7927600  89.1251290
  66.2165940  14.2781800  88.1749650  49.6120980  24.2375710  98.4898200
  49.6901400  24.3724480  97.5453920  50.2262660  23.5291600  98.6826320
  55.1290270  30.1521680  93.0127050  54.9532750  29.2357220  92.7994850
  54.2746010  30.5108970  93.2524850  61.9177950  29.5073420  93.8701920
  62.3734900  28.7262800  94.1840540  62.2570470  30.2180240  94.4143100
  66.6654760  18.4372270 104.2026360  66.0499030  18.9451940 103.6741820
  66.3451180  17.5370600 104.1452300  49.6680500  25.2789880 101.0292660
  49.8311540  24.8095240 100.2112030  50.1332950  24.7713440 101.6941500
  54.4399270  14.4095640  96.0653230  53.9967420  15.1905180  95.7337750
  54.9984260  14.7325530  96.7724170  63.7273590  18.4973110 102.7985210
  62.8767180  18.1978860 103.1194280  63.5675380  18.7415120 101.8869030
  60.8223300  19.9974860 104.8984000  61.1476710  19.1638610 104.5586230
  61.6103630  20.5203380 105.0462330  57.5558090  14.0306340  90.9459060
  56.9312270  14.0266210  91.6712370  57.4688210  13.1637300  90.5495030
  56.4775170  14.9542970  97.9242830  56.7747500  15.8605800  97.8434850
  57.0260730  14.4661750  97.3102400  61.4611250  19.5392580  92.3925130
  60.8620140  20.2628380  92.2088750  62.0090860  19.4769360  91.6101580
  56.6712700  20.4314790 104.4594750  56.5756300  19.4909520 104.3095150
  57.5144680  20.6529860 104.0642820  51.8023240  16.8428460 102.6128530
  51.4086630  17.6903670 102.8201310  51.1141640  16.2054830 102.8037170
  58.3768290  16.9263430 105.6825270  57.6866610  16.7335630 106.3171360
  59.1200590  17.2098070 106.2149570  49.1040290  14.7656920  96.6458610
  48.8153340  15.3359780  97.3583590  49.8486050  14.2861370  97.0089840
  49.2910520  18.7077040  87.8561330  49.2085190  19.6507800  87.9976320
  48.9393580  18.5651950  86.9773680  52.9411030  17.3242560  95.8825890
  52.6011080  17.8017790  96.6392940  52.1788350  16.8707680  95.5226990
  57.1528800  18.4428150  89.9138440  57.2741620  18.4014630  90.8624260
  56.7677310  19.3052300  89.7585170  56.1650300  20.7529290  89.3121740
  55.5967200  20.3047540  88.6857650  56.8739300  21.1122070  88.7786890
  64.5427920  13.6327730 103.7688510  64.8673690  12.9017390 104.2946490
  64.5784430  13.3141370 102.8669500  51.2419480  24.6541310 103.1888470
  50.8574270  24.0134980 103.7871430  51.5531670  25.3577430 103.7583200
  50.2557110  16.2461540  94.7990560  49.9704030  15.8817210  95.6369180
  50.1935970  15.5142000  94.1853700  59.9295700  15.1390800  91.5203930
  59.1160310  14.6403970  91.4449240  59.7357650  15.9789050  91.1040280
  59.8504560  23.8161900 103.2643540  59.7841870  22.8957570 103.0101130
  59.2209700  23.9137340 103.9788180  58.6404680  25.6834140  90.4954260
  58.9820380  26.4276370  89.9997580  57.8117390  25.9965260  90.8579090
  51.2379720  21.3829230 102.1352660  50.8794660  22.0483080 102.7226000
  50.9434280  20.5512780 102.5065280  54.4392840  21.8413470 105.0192210
  54.1392980  21.9870650 104.1220030  55.2104080  21.2818760 104.9265600
  59.7821290  26.6382470 103.0147340  59.7965830  25.7063430 102.7966250
  59.0746390  26.7242230 103.6537110  57.6095370  25.7647670  93.2670180
  58.2966500  26.3116880  93.6477770  56.8227790  26.3088400  93.3019790
  49.7487770  21.3820490  88.7587260  50.6182620  21.6645290  89.0423180
  49.2578090  22.1956360  88.6436070  52.8134360  13.1131350  93.3518060
  52.6848990  13.1049250  94.3002980  51.9896380  13.4514440  93.0009070
  62.2624890  27.0827290 102.0301350  62.5981130  27.6693980 102.7079270
  61.3425230  26.9520000 102.2599140  49.8128290  14.8722470 102.8124760
  49.0986810  15.0719390 103.4177370  50.2323330  14.0962040 103.1839560
  58.0913470  27.1318620 105.1989410  57.7710340  26.4127860 105.7435100
  57.4171830  27.8073690 105.2725470  56.1327640  27.9779070  90.1422560
  56.1237740  28.7108760  89.5267070  55.2126000  27.7310650  90.2349520
  64.6729100  16.3201720  91.3713770  64.0442260  16.4247390  90.6572000
  64.1781020  16.5398500  92.1607650  59.1187240  28.0407310  88.8047750
  59.2199220  27.8371300  87.8749730  58.2188980  27.7865590  89.0095530
  56.6413130  18.5987670  92.7871650  55.9329280  19.0674010  93.2285260
  56.9257610  17.9409680  93.4216840  60.6728560  15.3238330  94.2267440
  60.5496340  15.3424460  93.2776950  61.6213120  15.3717270  94.3465840
  57.7605350  30.5593630  93.4995420  58.0146850  30.5215020  92.5774790
  56.8117830  30.4326960  93.4923670  54.8448150  16.9072750  90.1622360
  55.6938680  17.3442900  90.0962550  54.4779420  17.2193010  90.9894420
  65.4735920  16.2352330 101.6292570  64.9709520  16.9757730 101.9686380
  66.2892580  16.6236330 101.3129360  53.7439570  23.1605110  88.6357890
  54.5102840  23.0486470  89.1983320  53.8214260  22.4643080  87.9834660
  53.2401040  30.7425570  96.4225320  53.9763520  30.1941030  96.6933890
  53.6241960  31.6081580  96.2831310  50.1246520  26.8099140  92.2966830
  49.1986300  27.0520280  92.2872240  50.5902950  27.6373400  92.1751580
  62.5124320  29.7631800 104.1695720  63.4646070  29.6789820 104.1195960
  62.3652540  30.4273510 104.8429510  49.9657130  22.4145100 104.5546950
  50.4696150  21.8352380 105.1263180  49.2264550  22.6985330 105.0923320
  56.8680750  25.1359290  88.1093240  56.7631390  24.5211640  88.8354620
  56.7004970  24.6125180  87.3256250  57.0195070  23.8216090 104.0882470
  56.2540740  24.3901090 104.0037140  57.2011030  23.5292300 103.1950700
  60.1083480  24.1979320  88.7135230  59.5593580  24.6448620  89.3577970
  60.7302740  23.6928570  89.2372900  51.9980210  20.5574690 105.4497020
  52.0385550  20.2588560 106.3582250  52.8525710  20.9582300 105.2904540
  53.9386020  19.1366790 103.4171510  53.4082480  18.6457740 102.7894850
  54.6074090  19.5650990 102.8829440  58.2886240  22.1807850  87.8577630
  58.8091900  21.4656870  87.4918780  58.9354640  22.8193720  88.1578140
  63.3086250  20.9432410 105.1851850  63.8907020  20.1884730 105.0972330
  63.4848020  21.4739850 104.4083330  54.4258320  16.1029160 103.4968800
  54.3315190  15.4849910 102.7719670  53.8455710  16.8295450 103.2698710
  57.1919760  14.6602400 100.5296190  56.7437060  14.6826660  99.6841740
  56.5584960  14.2621420 101.1266490  54.6717500  19.2303470  87.5558690
  54.4706560  18.3670830  87.9172030  54.5009550  19.1436830  86.6180290
  56.7011980  17.8294260 103.7922290  57.2911670  17.5210110 104.4800110
  55.8832220  17.3574010 103.9482190  61.5205410  17.4460070 104.0255310
  60.8320930  16.7841610 103.9605300  62.2411430  16.9998340 104.4703770
  62.1505810  14.0411700  90.0845570  62.4308100  13.1979600  90.4404990
  61.3771540  14.2734810  90.5984320  53.4700300  16.3304090  87.5436570
  53.7726200  16.3371520  86.6355720  54.2094890  15.9801950  88.0404230
  56.6885230  15.2738710  88.5292770  56.3407230  14.5962700  87.9495220
  56.8898000  14.8128220  89.3436160  58.8534270  30.2619460  90.1479370
  59.7485060  30.6004430  90.1698130  58.8851900  29.5398870  89.5203650
  49.7076230  28.4235540  95.8286630  50.0379240  27.5556600  95.5965270
  50.1367230  28.6294060  96.6591590  54.3038150  26.7544550  93.4888600
  54.0033690  26.6309520  94.3892510  54.1975640  25.8953140  93.0804330
  50.1966440  29.2906130  98.5668260  49.7597430  29.4706930  99.3992410
  50.7644120  30.0480750  98.4249980  62.9781310  16.5967650  89.1475630
  63.3966190  16.4098630  88.3072290  62.6717370  15.7446700  89.4578560
  51.0666800  22.1878930  99.4660480  51.4339840  22.1006330 100.3456500
  50.4977620  21.4245480  99.3667340  50.6182800  19.0988020 103.3718900
  49.7238850  19.0654780 103.7112610  51.1580350  19.2974810 104.1370150
  64.3058730  15.8819740 105.2570650  65.1828910  15.8903140 105.6404650
  64.3179570  15.1450580 104.6463000  49.2428950  19.0125290  90.8682470
  48.3393030  19.2755490  90.6934130  49.7269570  19.2836460  90.0882430
  51.7856160  18.0690830  88.7776850  52.4947860  17.6474050  88.2924130
  51.0696100  18.1366060  88.1460200  51.4330320  14.1230160  87.8179500
  52.1558450  14.6639100  88.1360720  51.7054840  13.8493580  86.9421040
  51.1222510  13.3736350  97.7202120  51.7698700  12.8233730  97.2797280
  51.5424350  13.6279500  98.5417930  66.6709130  17.6283580  94.6188760
  66.5608410  17.4739620  95.5571030  67.4316720  17.1004520  94.3764170
  65.0174850  13.5677710 101.0771760  65.6547070  14.1811850 101.4430950
  65.1649740  13.6038370 100.1320990  67.5599400  15.4591500  87.8594900
  68.4848710  15.3272680  87.6513190  67.5375190  15.5384320  88.8131350
  67.6337890  16.2302160  90.4851610  66.8389390  16.1647280  91.0144520
  67.8381170  17.1652800  90.4736960  50.8754510  13.5292020 100.4627440
  50.5269330  13.9855840 101.2285620  50.5442210  12.6349150 100.5449870
  52.4818880  26.7011620 104.6280630  52.4388510  26.3304530 105.5095090
  52.6129890  27.6389190 104.7682450  58.3879330  14.7203900 103.9846860
  58.3268220  15.3125730 104.7342270  59.3279710  14.6129860 103.8397120
  61.0253890  14.3773960 103.6239150  61.6394300  14.6953250 102.9620230
  61.5703450  13.8922550 104.2435010  51.5475150  13.0568220 103.7378210
  52.0958140  12.8756270 102.9744320  51.6130460  12.2662330 104.2734520
  52.3206910  29.6473870 101.7478410  51.7267230  29.5158570 102.4868450
  52.3130750  28.8112010 101.2820510  61.7661930  12.9406100  99.9508440
  60.8921770  13.2741210  99.7481370  61.6572680  12.4679280 100.7760310
  62.6733910  15.1476970 101.3350160  62.3447270  14.3328730 100.9551890
  63.6216210  15.1046780 101.2115850  51.9519140  27.0132250 100.6986450
  51.2253200  26.3937540 100.6312400  52.0128290  27.4072860  99.8284530
  55.5564240  29.2277250  97.4835860  56.0729260  28.6164610  96.9584120
  56.2061620  29.7306030  97.9746870  59.5136750  13.8575940  98.8901350
  58.7308540  14.3321440  99.1698110  59.2199680  12.9530770  98.7814530
  64.0657820  14.5599040  96.9350440  64.5065910  14.5044140  96.0872040
  63.7965410  15.4757050  97.0060620  65.9296390  14.1914280  94.9459260
  65.8684790  13.2475500  94.7990280  66.7088420  14.2994370  95.4912720
  50.8577160  14.1623420  91.4115070  51.6156520  14.2752300  90.8379100
  50.3954330  14.9992620  91.3658500  57.3990970  16.2762690  94.4017380
  56.5865480  15.9019580  94.0613260  57.9032610  15.5207770  94.7038570
  61.9015950  12.9405140  95.6400450  62.5045320  13.5125350  96.1148970
  61.1608940  13.5044580  95.4174350  65.0450550  13.3426700  90.9140730
  65.2401180  14.2410150  91.1808160  64.2580420  13.1113780  91.4073680
  53.2302310  14.6887470  89.9517040  53.7595070  13.9017270  89.8224990
  53.8630630  15.3678660  90.1852570  55.4240150  14.4262610  93.0062430
  54.7942890  13.7249920  93.1732560  54.8845290  15.1866740  92.7895590
  55.5495710  13.7046590 105.4414920  55.2679980  14.2080190 104.6775740
  55.9315410  12.9068340 105.0757050  54.4404810  30.9722250  90.2282600
  55.1723630  30.6881530  89.6806490  54.6998480  30.7335530  91.1181980
  53.6019600  27.0886980  90.2328930  52.9728480  27.5572080  90.7814760
  53.7167430  26.2436200  90.6675120  62.1511170  13.1200170 106.0195390
  62.0376620  13.4394780 106.9146910  62.9680910  13.5212680 105.7232670
  53.2053190  23.2291470  79.1415160  52.3738070  22.9740180  79.5411670
  53.8134170  23.3002240  79.8773080  51.6145140  18.1893360  72.9257550
  50.7261840  18.5309330  72.8237430  51.8986330  17.9893680  72.0338380
  50.8203020  16.1983370  80.5966180  50.6405860  15.3009120  80.8768940
  50.4183100  16.7455240  81.2713130  59.6601520  18.3999230  78.4978490
  60.0366340  17.5271110  78.3852160  59.5621030  18.7357930  77.6068930
  53.7906530  16.7724860  73.9595930  53.8973280  17.6728590  74.2664690
  52.8798890  16.7242830  73.6690580  63.4425640  15.8949670  75.4306830
  64.2635260  15.4046240  75.4732310  63.4759720  16.4847330  76.1838670
  51.4389690  18.6943870  79.2048520  52.1199800  18.9582240  79.8235920
  51.1237740  17.8544740  79.5386530  55.6314260  19.7411230  78.2921110
  56.1392480  20.2392200  78.9326130  56.1627500  18.9646430  78.1160470
  53.9150360  14.3809790  82.5584530  53.9168800  14.8982180  81.7530430
  53.0854670  13.9039970  82.5354460  53.5965690  16.0919750  80.5654980
  53.9382500  16.9361800  80.2708850  52.6581500  16.2403490  80.6820320
  66.7474040  17.2804840  78.5943580  65.7998950  17.3143820  78.7259010
  67.0724030  18.0943790  78.9792940  57.2793580  13.5802020  76.8899570
  57.5868560  13.0248910  76.1735070  56.3494280  13.7146480  76.7072560
  62.2294080  24.1999150  80.5089640  62.6462870  23.9859260  79.6743100
  62.9533900  24.4571940  81.0798260  59.6543420  17.9167850  70.6226850
  58.7147090  18.0781810  70.7079310  59.9726680  18.6353530  70.0762840
  53.9859600  18.9458800  80.1878460  54.5374190  19.0554140  79.4131710
  54.5003110  19.3196400  80.9033690  65.4553470  13.7000770  69.4508730
  65.1426130  13.7927600  70.3507800  66.2165940  14.2781800  69.4006160
  51.9735610  21.0660570  73.9086070  51.8533210  21.7922660  73.2967340
  51.6636500  20.2963480  73.4313980  50.8568610  25.9375900  76.1260890
  50.4496690  26.0790490  75.2714490  51.7481620  25.6536060  75.9232100
  60.6747490  30.0867810  83.0327940  61.1892160  29.9975820  83.8350370
  59.8316570  30.4327510  83.3255850  54.4399270  14.4095640  77.2909740
  53.9967420  15.1905180  76.9594260  54.9984260  14.7325530  77.9980680
  57.5558090  14.0306340  72.1715570  56.9312270  14.0266210  72.8968880
  57.4688210  13.1637300  71.7751540  56.4775170  14.9542970  79.1499340
  56.7747500  15.8605800  79.0691360  57.0260730  14.4661750  78.5358910
  54.2313490  19.5329210  75.0190990  54.0054410  19.3166380  75.9237610
  53.4506020  19.9657670  74.6736960  61.4611250  19.5392580  73.6181640
  60.8620140  20.2628380  73.4345260  62.0090860  19.4769360  72.8358090
  56.6712700  20.4314790  85.6851260  56.5756300  19.4909520  85.5351660
  57.5144680  20.6529860  85.2899330  60.0676120  18.1756120  75.6484920
  60.4605690  18.4928320  74.8353610  60.4292970  17.2968000  75.7629440
  51.8023240  16.8428460  83.8385040  51.4086630  17.6903670  84.0457820
  51.1141640  16.2054830  84.0293680  49.1040290  14.7656920  77.8715120
  48.8153340  15.3359780  78.5840100  49.8486050  14.2861370  78.2346350
  49.2910520  18.7077040  69.0817840  49.2085190  19.6507800  69.2232830
  48.9393580  18.5651950  68.2030190  60.6531260  20.7661870  79.7435700
  59.9212380  21.2748680  80.0925800  60.2555600  19.9491850  79.4424480
  57.0908650  17.4416070  78.1488190  57.0944710  17.0006020  77.2992730
  57.9859770  17.7633400  78.2560010  52.9411030  17.3242560  77.1082400
  52.6011080  17.8017790  77.8649450  52.1788350  16.8707680  76.7483500
  57.1528800  18.4428150  71.1394950  57.2741620  18.4014630  72.0880770
  56.7677310  19.3052300  70.9841680  61.1157170  16.2195550  79.1558640
  61.1329910  16.6704200  80.0000490  60.8672750  15.3201190  79.3692080
  64.5427920  13.6327730  84.9945020  64.8673690  12.9017390  85.5203000
  64.5784430  13.3141370  84.0926010  57.3916620  21.5017850  79.8953600
  57.7586750  21.0276420  80.6414940  57.2021680  22.3759420  80.2361940
  50.2557110  16.2461540  76.0247070  49.9704030  15.8817210  76.8625690
  50.1935970  15.5142000  75.4110210  55.1815990  20.5426490  82.2137810
  54.8773060  21.4218470  82.4388170  56.1362450  20.6026280  82.2495250
  59.9295700  15.1390800  72.7460440  59.1160310  14.6403970  72.6705750
  59.7357650  15.9789050  72.3296790  59.8504560  23.8161900  84.4900050
  59.7841870  22.8957570  84.2357640  59.2209700  23.9137340  85.2044690
  62.6444090  19.5110450  71.0422600  63.5323710  19.8227680  70.8673940
  62.6149180  18.6382700  70.6503180  54.4392840  21.8413470  86.2448720
  54.1392980  21.9870650  85.3476540  55.2104080  21.2818760  86.1522110
  59.7821290  26.6382470  84.2403850  59.7965830  25.7063430  84.0222760
  59.0746390  26.7242230  84.8793620  65.9932500  23.2789810  83.5872430
  65.2680690  23.8718590  83.3901820  66.5207960  23.2713350  82.7885800
  49.7487770  21.3820490  69.9843770  50.6182620  21.6645290  70.2679690
  49.2578090  22.1956360  69.8692580  52.8134360  13.1131350  74.5774570
  52.6848990  13.1049250  75.5259490  51.9896380  13.4514440  74.2265580
  62.2624890  27.0827290  83.2557860  62.5981130  27.6693980  83.9335780
  61.3425230  26.9520000  83.4855650  49.8128290  14.8722470  84.0381270
  49.0986810  15.0719390  84.6433880  50.2323330  14.0962040  84.4096070
  63.9159240  24.4852950  71.4375100  63.6280940  24.9465640  72.2252980
  64.7111410  24.0250720  71.7059320  58.0913470  27.1318620  86.4245920
  57.7710340  26.4127860  86.9691610  57.4171830  27.8073690  86.4981980
  51.7334280  23.1993960  72.1125830  51.1262230  23.9392860  72.1221130
  52.2083630  23.2893320  71.2864030  64.6729100  16.3201720  72.5970280
  64.0442260  16.4247390  71.8828510  64.1781020  16.5398500  73.3864160
  56.6413130  18.5987670  74.0128160  55.9329280  19.0674010  74.4541770
  56.9257610  17.9409680  74.6473350  58.2669060  20.0184370  82.0120690
  58.7654310  20.4930190  82.6772540  58.4092010  19.0947890  82.2190720
  60.6728560  15.3238330  75.4523950  60.5496340  15.3424460  74.5033460
  61.6213120  15.3717270  75.5722350  54.8448150  16.9072750  71.3878870
  55.6938680  17.3442900  71.3219060  54.4779420  17.2193010  72.2150930
  63.7657930  21.4785510  76.3010440  62.8248070  21.4935740  76.4758130
  64.0802000  20.6921470  76.7470740  50.1246520  26.8099140  73.5223340
  49.1986300  27.0520280  73.5128750  50.5902950  27.6373400  73.4008090
  56.3503350  29.9155880  69.4707400  57.1431960  30.2044710  69.0189190
  55.8307700  29.4848050  68.7919880  61.0823950  26.0351510  86.7842820
  60.4762110  26.0583110  86.0438570  60.7778060  25.3034550  87.3210070
  62.5124320  29.7631800  85.3952230  63.4646070  29.6789820  85.3452470
  62.3652540  30.4273510  86.0686020  65.4033520  29.1426010  70.8944140
  65.1175030  28.7291150  70.0798320  65.2053070  30.0713720  70.7744660
  57.0195070  23.8216090  85.3138980  56.2540740  24.3901090  85.2293650
  57.2011030  23.5292300  84.4207210  51.9980210  20.5574690  86.6753530
  52.0385550  20.2588560  87.5838760  52.8525710  20.9582300  86.5161050
  53.9386020  19.1366790  84.6428020  53.4082480  18.6457740  84.0151360
  54.6074090  19.5650990  84.1085950  62.8364080  23.6036250  84.4069210
  63.2505100  23.7581330  85.2559630  61.9015080  23.7291470  84.5694990
  54.4258320  16.1029160  84.7225310  54.3315190  15.4849910  83.9976180
  53.8455710  16.8295450  84.4955220  57.1919760  14.6602400  81.7552700
  56.7437060  14.6826660  80.9098250  56.5584960  14.2621420  82.3523000
  57.5979310  23.5556730  82.3765140  58.0167420  24.3989460  82.2041380
  56.6787940  23.6928770  82.1471920  59.9343210  21.2872910  83.7602980
  60.0539420  20.6914050  84.4997820  60.7937210  21.3242600  83.3404280
  62.1505810  14.0411700  71.3102080  62.4308100  13.1979600  71.6661500
  61.3771540  14.2734810  71.8240830  53.4700300  16.3304090  68.7693080
  53.7726200  16.3371520  67.8612230  54.2094890  15.9801950  69.2660740
  58.3048940  31.0960950  83.7509520  58.2307640  31.9996090  84.0581890
  57.4027780  30.7772850  83.7231590  56.6885230  15.2738710  69.7549280
  56.3407230  14.5962700  69.1751730  56.8898000  14.8128220  70.5692670
  67.0730070  26.5340950  69.4171790  66.2423030  26.6017600  69.8879020
  67.2501900  27.4245070  69.1138650  50.0290870  21.8026360  76.1513650
  49.3739710  21.5338000  75.5073350  50.8668820  21.6930840  75.7015630
  62.9781310  16.5967650  70.3732140  63.3966190  16.4098630  69.5328800
  62.6717370  15.7446700  70.6835070  50.6182800  19.0988020  84.5975410
  49.7238850  19.0654780  84.9369120  51.1580350  19.2974810  85.3626660
  64.3058730  15.8819740  86.4827160  65.1828910  15.8903140  86.8661160
  64.3179570  15.1450580  85.8719510  49.2428950  19.0125290  72.0938980
  48.3393030  19.2755490  71.9190640  49.7269570  19.2836460  71.3138940
  65.7522000  19.7349280  77.3715180  66.2759480  19.2411930  76.7405350
  66.3381420  19.8699640  78.1162750  51.7856160  18.0690830  70.0033360
  52.4947860  17.6474050  69.5180640  51.0696100  18.1366060  69.3716710
  51.4330320  14.1230160  69.0436010  52.1558450  14.6639100  69.3617230
  51.7054840  13.8493580  68.1677550  51.1222510  13.3736350  78.9458630
  51.7698700  12.8233730  78.5053790  51.5424350  13.6279500  79.7674440
  66.6709130  17.6283580  75.8445270  66.5608410  17.4739620  76.7827540
  67.4316720  17.1004520  75.6020680  65.0174850  13.5677710  82.3028270
  65.6547070  14.1811850  82.6687460  65.1649740  13.6038370  81.3577500
  67.5599400  15.4591500  69.0851410  68.4848710  15.3272680  68.8769700
  67.5375190  15.5384320  70.0387860  67.6337890  16.2302160  71.7108120
  66.8389390  16.1647280  72.2401030  67.8381170  17.1652800  71.6993470
  50.8754510  13.5292020  81.6883950  50.5269330  13.9855840  82.4542130
  50.5442210  12.6349150  81.7706380  51.5475150  13.0568220  84.9634720
  52.0958140  12.8756270  84.2000830  51.6130460  12.2662330  85.4991030
  61.7661930  12.9406100  81.1764950  60.8921770  13.2741210  80.9737880
  61.6572680  12.4679280  82.0016820  59.5136750  13.8575940  80.1157860
  58.7308540  14.3321440  80.3954620  59.2199680  12.9530770  80.0071040
  64.0657820  14.5599040  78.1606950  64.5065910  14.5044140  77.3128550
  63.7965410  15.4757050  78.2317130  65.9296390  14.1914280  76.1715770
  65.8684790  13.2475500  76.0246790  66.7088420  14.2994370  76.7169230
  50.8577160  14.1623420  72.6371580  51.6156520  14.2752300  72.0635610
  50.3954330  14.9992620  72.5915010  57.3990970  16.2762690  75.6273890
  56.5865480  15.9019580  75.2869770  57.9032610  15.5207770  75.9295080
  61.9015950  12.9405140  76.8656960  62.5045320  13.5125350  77.3405480
  61.1608940  13.5044580  76.6430860  65.0450550  13.3426700  72.1397240
  65.2401180  14.2410150  72.4064670  64.2580420  13.1113780  72.6330190
  51.8411840  29.0239870  72.5789860  51.3159460  29.4047900  71.8751820
  51.7656420  29.6490640  73.2999570  53.2302310  14.6887470  71.1773550
  53.7595070  13.9017270  71.0481500  53.8630630  15.3678660  71.4109080
  55.4240150  14.4262610  74.2318940  54.7942890  13.7249920  74.3989070
  54.8845290  15.1866740  74.0152100  58.3632100  31.0401840  86.9029550
  59.2899410  30.8046110  86.9465510  58.3482530  31.8673840  86.4215580
  55.5495710  13.7046590  86.6671430  55.2679980  14.2080190  85.9032250
  55.9315410  12.9068340  86.3013560  62.1511170  13.1200170  87.2451900
  62.0376620  13.4394780  88.1403420  62.9680910  13.5212680  86.9489180
  64.9309660  30.2671700  86.7270590  65.7234980  29.7720930  86.5196550
  65.2242810  30.9461840  87.3346200  53.2053190  23.2291470  60.3671670
  52.3738070  22.9740180  60.7668180  53.8134170  23.3002240  61.1029590
  53.1854450  27.2631560  60.5629690  53.4882490  26.3729300  60.3839910
  53.9298040  27.8201780  60.3351940  51.6145140  18.1893360  54.1514060
  50.7261840  18.5309330  54.0493940  51.8986330  17.9893680  53.2594890
  49.5778150  20.7899010  60.0353760  50.1494260  20.0221210  60.0357400
  49.5779690  21.0887770  59.1260370  50.8203020  16.1983370  61.8222690
  50.6405860  15.3009120  62.1025450  50.4183100  16.7455240  62.4969640
  59.6601520  18.3999230  59.7235000  60.0366340  17.5271110  59.6108670
  59.5621030  18.7357930  58.8325440  53.7906530  16.7724860  55.1852440
  53.8973280  17.6728590  55.4921200  52.8798890  16.7242830  54.8947090
  63.4425640  15.8949670  56.6563340  64.2635260  15.4046240  56.6988820
  63.4759720  16.4847330  57.4095180  51.4389690  18.6943870  60.4305030
  52.1199800  18.9582240  61.0492430  51.1237740  17.8544740  60.7643040
  67.7325190  17.9116420  63.2206970  67.0277360  18.2998130  62.7022080
  67.9983110  18.6066710  63.8227900  53.9150360  14.3809790  63.7841040
  53.9168800  14.8982180  62.9786940  53.0854670  13.9039970  63.7610970
  55.1653210  24.0204970  61.9614540  54.8322590  24.6473890  62.6035610
  55.3419890  24.5466850  61.1816210  63.6787120  17.8350050  59.4290880
  62.9742690  18.1234940  60.0093990  64.0399280  18.6450160  59.0690440
  53.5965690  16.0919750  61.7911490  53.9382500  16.9361800  61.4965360
  52.6581500  16.2403490  61.9076830  49.6704650  25.1785630  52.6570570
  49.2932630  25.6672730  51.9255470  49.9277720  25.8510910  53.2877100
  66.7474040  17.2804840  59.8200090  65.7998950  17.3143820  59.9515520
  67.0724030  18.0943790  60.2049450  57.2793580  13.5802020  58.1156080
  57.5868560  13.0248910  57.3991580  56.3494280  13.7146480  57.9329070
  59.6543420  17.9167850  51.8483360  58.7147090  18.0781810  51.9335820
  59.9726680  18.6353530  51.3019350  66.1756180  22.5986370  61.8262390
  65.3474810  22.6679460  61.3512520  66.7706660  23.1840680  61.3578220
  55.7412680  25.8583150  59.7975140  55.4440970  25.2528620  59.1182920
  56.6912500  25.8960460  59.6864500  53.9859600  18.9458800  61.4134970
  54.5374190  19.0554140  60.6388220  54.5003110  19.3196400  62.1290200
  63.8298290  29.4315020  63.4598240  63.3528850  30.2387210  63.2670850
  63.1460080  28.7793350  63.6124450  61.8736330  22.4457960  52.3624200
  62.3129610  21.6080390  52.2162020  62.5864750  23.0787360  52.4488340
  65.4553470  13.7000770  50.6765240  65.1426130  13.7927600  51.5764310
  66.2165940  14.2781800  50.6262670  49.6120980  24.2375710  60.9411220
  49.6901400  24.3724480  59.9966940  50.2262660  23.5291600  61.1339340
  50.8568610  25.9375900  57.3517400  50.4496690  26.0790490  56.4971000
  51.7481620  25.6536060  57.1488610  66.8130750  26.3839810  65.6889640
  66.9393810  26.1451690  64.7706820  66.8552130  25.5524350  66.1611720
  60.6747490  30.0867810  64.2584450  61.1892160  29.9975820  65.0606880
  59.8316570  30.4327510  64.5512360  66.6654760  18.4372270  66.6539380
  66.0499030  18.9451940  66.1254840  66.3451180  17.5370600  66.5965320
  49.6680500  25.2789880  63.4805680  49.8311540  24.8095240  62.6625050
  50.1332950  24.7713440  64.1454520  54.4399270  14.4095640  58.5166250
  53.9967420  15.1905180  58.1850770  54.9984260  14.7325530  59.2237190
  58.7269080  17.2764160  64.1201570  58.2648450  17.4847180  64.9321510
  58.3247190  16.4623510  63.8172240  57.5558090  14.0306340  53.3972080
  56.9312270  14.0266210  54.1225390  57.4688210  13.1637300  53.0008050
  56.4775170  14.9542970  60.3755850  56.7747500  15.8605800  60.2947870
  57.0260730  14.4661750  59.7615420  61.4611250  19.5392580  54.8438150
  60.8620140  20.2628380  54.6601770  62.0090860  19.4769360  54.0614600
  60.0676120  18.1756120  56.8741430  60.4605690  18.4928320  56.0610120
  60.4292970  17.2968000  56.9885950  51.8023240  16.8428460  65.0641550
  51.4086630  17.6903670  65.2714330  51.1141640  16.2054830  65.2550190
  58.3768290  16.9263430  68.1338290  57.6866610  16.7335630  68.7684380
  59.1200590  17.2098070  68.6662590  49.1040290  14.7656920  59.0971630
  48.8153340  15.3359780  59.8096610  49.8486050  14.2861370  59.4602860
  49.2910520  18.7077040  50.3074350  49.2085190  19.6507800  50.4489340
  48.9393580  18.5651950  49.4286700  57.0908650  17.4416070  59.3744700
  57.0944710  17.0006020  58.5249240  57.9859770  17.7633400  59.4816520
  52.9411030  17.3242560  58.3338910  52.6011080  17.8017790  59.0905960
  52.1788350  16.8707680  57.9740010  57.1528800  18.4428150  52.3651460
  57.2741620  18.4014630  53.3137280  56.7677310  19.3052300  52.2098190
  61.1157170  16.2195550  60.3815150  61.1329910  16.6704200  61.2257000
  60.8672750  15.3201190  60.5948590  64.5427920  13.6327730  66.2201530
  64.8673690  12.9017390  66.7459510  64.5784430  13.3141370  65.3182520
  57.3916620  21.5017850  61.1210110  57.7586750  21.0276420  61.8671450
  57.2021680  22.3759420  61.4618450  50.2557110  16.2461540  57.2503580
  49.9704030  15.8817210  58.0882200  50.1935970  15.5142000  56.6366720
  59.9295700  15.1390800  53.9716950  59.1160310  14.6403970  53.8962260
  59.7357650  15.9789050  53.5553300  62.6444090  19.5110450  52.2679110
  63.5323710  19.8227680  52.0930450  62.6149180  18.6382700  51.8759690
  51.2379720  21.3829230  64.5865680  50.8794660  22.0483080  65.1739020
  50.9434280  20.5512780  64.9578300  64.9158360  20.8222290  51.7358970
  64.8322080  21.2536510  50.8855410  65.6352550  21.2820640  52.1685790
  49.7487770  21.3820490  51.2100280  50.6182620  21.6645290  51.4936200
  49.2578090  22.1956360  51.0949090  52.8134360  13.1131350  55.8031080
  52.6848990  13.1049250  56.7516000  51.9896380  13.4514440  55.4522090
  49.8128290  14.8722470  65.2637780  49.0986810  15.0719390  65.8690390
  50.2323330  14.0962040  65.6352580  61.3067070  17.3644780  63.0139230
  61.6747890  16.5439990  63.3418800  60.4465270  17.4246670  63.4294880
  64.6729100  16.3201720  53.8226790  64.0442260  16.4247390  53.1085020
  64.1781020  16.5398500  54.6120670  60.6728560  15.3238330  56.6780460
  60.5496340  15.3424460  55.7289970  61.6213120  15.3717270  56.7978860
  54.8448150  16.9072750  52.6135380  55.6938680  17.3442900  52.5475570
  54.4779420  17.2193010  53.4407440  65.4735920  16.2352330  64.0805590
  64.9709520  16.9757730  64.4199400  66.2892580  16.6236330  63.7642380
  52.4386330  20.5930180  51.7703800  52.5189920  19.6457690  51.8821200
  53.3306080  20.9237060  51.8764460  53.2401040  30.7425570  58.8738340
  53.9763520  30.1941030  59.1446910  53.6241960  31.6081580  58.7344330
  62.5124320  29.7631800  66.6208740  63.4646070  29.6789820  66.5708980
  62.3652540  30.4273510  67.2942530  49.9657130  22.4145100  67.0059970
  50.4696150  21.8352380  67.5776200  49.2264550  22.6985330  67.5436340
  54.4258320  16.1029160  65.9481820  54.3315190  15.4849910  65.2232690
  53.8455710  16.8295450  65.7211730  57.1919760  14.6602400  62.9809210
  56.7437060  14.6826660  62.1354760  56.5584960  14.2621420  63.5779510
  54.6717500  19.2303470  50.0071710  54.4706560  18.3670830  50.3685050
  54.5009550  19.1436830  49.0693310  62.1505810  14.0411700  52.5358590
  62.4308100  13.1979600  52.8918010  61.3771540  14.2734810  53.0497340
  53.4700300  16.3304090  49.9949590  53.7726200  16.3371520  49.0868740
  54.2094890  15.9801950  50.4917250  58.3048940  31.0960950  64.9766030
  58.2307640  31.9996090  65.2838400  57.4027780  30.7772850  64.9488100
  56.6885230  15.2738710  50.9805790  56.3407230  14.5962700  50.4008240
  56.8898000  14.8128220  51.7949180  49.7076230  28.4235540  58.2799650
  50.0379240  27.5556600  58.0478290  50.1367230  28.6294060  59.1104610
  50.1966440  29.2906130  61.0181280  49.7597430  29.4706930  61.8505430
  50.7644120  30.0480750  60.8763000  65.8328620  28.7923130  65.3058590
  65.2330610  28.8515690  64.5622510  65.9622520  27.8528110  65.4355440
  50.0290870  21.8026360  57.3770160  49.3739710  21.5338000  56.7329860
  50.8668820  21.6930840  56.9272140  67.5346500  24.1338530  57.9904430
  67.9055330  23.3505850  57.5840400  68.1748430  24.8227630  57.8121730
  62.9781310  16.5967650  51.5988650  63.3966190  16.4098630  50.7585310
  62.6717370  15.7446700  51.9091580  66.4771040  21.5091790  55.2964450
  66.1014640  20.7419720  54.8645740  65.7474160  21.8914490  55.7839380
  51.0666800  22.1878930  61.9173500  51.4339840  22.1006330  62.7969520
  50.4977620  21.4245480  61.8180360  65.8670660  20.6563310  64.9303970
  65.6356750  20.4276060  64.0301920  66.1275210  21.5762860  64.8848860
  50.6182800  19.0988020  65.8231920  49.7238850  19.0654780  66.1625630
  51.1580350  19.2974810  66.5883170  64.3058730  15.8819740  67.7083670
  65.1828910  15.8903140  68.0917670  64.3179570  15.1450580  67.0976020
  49.2428950  19.0125290  53.3195490  48.3393030  19.2755490  53.1447150
  49.7269570  19.2836460  52.5395450  65.7522000  19.7349280  58.5971690
  66.2759480  19.2411930  57.9661860  66.3381420  19.8699640  59.3419260
  65.9311720  19.8189150  62.1191240  64.9814430  19.7852690  62.2336230
  66.1124730  20.7289260  61.8841010  51.7856160  18.0690830  51.2289870
  52.4947860  17.6474050  50.7437150  51.0696100  18.1366060  50.5973220
  51.4330320  14.1230160  50.2692520  52.1558450  14.6639100  50.5873740
  51.7054840  13.8493580  49.3934060  65.2421970  18.9922630  54.5364100
  65.7381090  18.7593500  55.3212980  65.0438040  18.1534470  54.1201740
  51.1222510  13.3736350  60.1715140  51.7698700  12.8233730  59.7310300
  51.5424350  13.6279500  60.9930950  66.6709130  17.6283580  57.0701780
  66.5608410  17.4739620  58.0084050  67.4316720  17.1004520  56.8277190
  65.0174850  13.5677710  63.5284780  65.6547070  14.1811850  63.8943970
  65.1649740  13.6038370  62.5834010  67.5599400  15.4591500  50.3107920
  68.4848710  15.3272680  50.1026210  67.5375190  15.5384320  51.2644370
  67.6337890  16.2302160  52.9364630  66.8389390  16.1647280  53.4657540
  67.8381170  17.1652800  52.9249980  50.8754510  13.5292020  62.9140460
  50.5269330  13.9855840  63.6798640  50.5442210  12.6349150  62.9962890
  58.3879330  14.7203900  66.4359880  58.3268220  15.3125730  67.1855290
  59.3279710  14.6129860  66.2910140  61.0253890  14.3773960  66.0752170
  61.6394300  14.6953250  65.4133250  61.5703450  13.8922550  66.6948030
  67.4429070  30.2765590  63.4814010  66.9487350  30.6734460  62.7641140
  66.8342360  29.6514800  63.8751290  51.5475150  13.0568220  66.1891230
  52.0958140  12.8756270  65.4257340  51.6130460  12.2662330  66.7247540
  52.3206910  29.6473870  64.1991430  51.7267230  29.5158570  64.9381470
  52.3130750  28.8112010  63.7333530  61.7661930  12.9406100  62.4021460
  60.8921770  13.2741210  62.1994390  61.6572680  12.4679280  63.2273330
  62.6733910  15.1476970  63.7863180  62.3447270  14.3328730  63.4064910
  63.6216210  15.1046780  63.6628870  65.1268520  30.9189010  60.7600750
  64.6671490  31.6704820  60.3858770  64.4980980  30.1995480  60.7015550
  51.9519140  27.0132250  63.1499470  51.2253200  26.3937540  63.0825420
  52.0128290  27.4072860  62.2797550  55.5564240  29.2277250  59.9348880
  56.0729260  28.6164610  59.4097140  56.2061620  29.7306030  60.4259890
  58.2959740  30.1185740  60.7617860  58.5837550  29.8640040  59.8850870
  58.8082960  29.5663100  61.3523430  59.5136750  13.8575940  61.3414370
  58.7308540  14.3321440  61.6211130  59.2199680  12.9530770  61.2327550
  64.0657820  14.5599040  59.3863460  64.5065910  14.5044140  58.5385060
  63.7965410  15.4757050  59.4573640  65.9296390  14.1914280  57.3972280
  65.8684790  13.2475500  57.2503300  66.7088420  14.2994370  57.9425740
  50.2349140  30.3306640  56.3596230  50.0671180  29.6977320  57.0578120
  49.3683650  30.5366040  56.0090420  50.8577160  14.1623420  53.8628090
  51.6156520  14.2752300  53.2892120  50.3954330  14.9992620  53.8171520
  57.3990970  16.2762690  56.8530400  56.5865480  15.9019580  56.5126280
  57.9032610  15.5207770  57.1551590  61.9015950  12.9405140  58.0913470
  62.5045320  13.5125350  58.5661990  61.1608940  13.5044580  57.8687370
  65.0450550  13.3426700  53.3653750  65.2401180  14.2410150  53.6321180
  64.2580420  13.1113780  53.8586700  53.2302310  14.6887470  52.4030060
  53.7595070  13.9017270  52.2738010  53.8630630  15.3678660  52.6365590
  55.4240150  14.4262610  55.4575450  54.7942890  13.7249920  55.6245580
  54.8845290  15.1866740  55.2408610  58.3632100  31.0401840  68.1286060
  59.2899410  30.8046110  68.1722020  58.3482530  31.8673840  67.6472090
  55.5495710  13.7046590  67.8927940  55.2679980  14.2080190  67.1288760
  55.9315410  12.9068340  67.5270070  62.1511170  13.1200170  68.4708410
  62.0376620  13.4394780  69.3659930  62.9680910  13.5212680  68.1745690
  64.9309660  30.2671700  67.9527100  65.7234980  29.7720930  67.7453060
  65.2242810  30.9461840  68.5602710  61.0569320  21.1392640  38.8343150
  60.9763370  20.2247250  38.5634860  60.6433740  21.6359710  38.1282860
  59.1887360  22.9171660  40.7152420  58.4129460  22.4372100  41.0050990
  59.8400290  22.2377310  40.5408580  53.2053190  23.2291470  41.5928180
  52.3738070  22.9740180  41.9924690  53.8134170  23.3002240  42.3286100
  53.1854450  27.2631560  41.7886200  53.4882490  26.3729300  41.6096420
  53.9298040  27.8201780  41.5608450  51.6145140  18.1893360  35.3770570
  50.7261840  18.5309330  35.2750450  51.8986330  17.9893680  34.4851400
  49.5778150  20.7899010  41.2610270  50.1494260  20.0221210  41.2613910
  49.5779690  21.0887770  40.3516880  58.6296350  25.5928850  40.7222580
  58.5604630  24.6518790  40.5611710  59.3916210  25.6830260  41.2945150
  50.8203020  16.1983370  43.0479200  50.6405860  15.3009120  43.3281960
  50.4183100  16.7455240  43.7226150  59.6601520  18.3999230  40.9491510
  60.0366340  17.5271110  40.8365180  59.5621030  18.7357930  40.0581950
  53.7906530  16.7724860  36.4108950  53.8973280  17.6728590  36.7177710
  52.8798890  16.7242830  36.1203600  63.4425640  15.8949670  37.8819850
  64.2635260  15.4046240  37.9245330  63.4759720  16.4847330  38.6351690
  51.4389690  18.6943870  41.6561540  52.1199800  18.9582240  42.2748940
  51.1237740  17.8544740  41.9899550  55.6314260  19.7411230  40.7434130
  56.1392480  20.2392200  41.3839150  56.1627500  18.9646430  40.5673490
  67.7325190  17.9116420  44.4463480  67.0277360  18.2998130  43.9278590
  67.9983110  18.6066710  45.0484410  53.9150360  14.3809790  45.0097550
  53.9168800  14.8982180  44.2043450  53.0854670  13.9039970  44.9867480
  60.3021450  24.4929100  36.5087450  59.6838720  24.9578550  35.9450170
  60.8144700  25.1856580  36.9256960  55.1653210  24.0204970  43.1871050
  54.8322590  24.6473890  43.8292120  55.3419890  24.5466850  42.4072720
  63.6787120  17.8350050  40.6547390  62.9742690  18.1234940  41.2350500
  64.0399280  18.6450160  40.2946950  53.5965690  16.0919750  43.0168000
  53.9382500  16.9361800  42.7221870  52.6581500  16.2403490  43.1333340
  54.3772310  25.9885770  45.0020230  54.9946310  26.6636850  44.7204680
  53.5165430  26.3973750  44.9107730  49.6704650  25.1785630  33.8827080
  49.2932630  25.6672730  33.1511980  49.9277720  25.8510910  34.5133610
  65.2949900  27.4525180  42.9174870  64.6113420  28.1224290  42.9091540
  65.8344190  27.6505830  42.1519730  66.7474040  17.2804840  41.0456600
  65.7998950  17.3143820  41.1772030  67.0724030  18.0943790  41.4305960
  57.2793580  13.5802020  39.3412590  57.5868560  13.0248910  38.6248090
  56.3494280  13.7146480  39.1585580  64.1254060  26.0185530  36.7210220
  64.0150390  25.0759860  36.8459640  64.1222310  26.3801170  37.6072980
  62.2294080  24.1999150  42.9602660  62.6462870  23.9859260  42.1256120
  62.9533900  24.4571940  43.5311280  59.6674340  21.6450850  36.0772710
  58.7403620  21.5788230  36.3061180  59.8199160  22.5830980  35.9627950
  59.6543420  17.9167850  33.0739870  58.7147090  18.0781810  33.1592330
  59.9726680  18.6353530  32.5275860  66.1756180  22.5986370  43.0518900
  65.3474810  22.6679460  42.5769030  66.7706660  23.1840680  42.5834730
  63.6971630  23.2071150  36.5807960  63.0784050  22.8690700  35.9334260
  63.6796080  22.5630910  37.2887150  63.1398190  19.3855690  43.9973770
  62.7269370  20.2109400  44.2513760  62.4074140  18.8000730  43.8050130
  55.2730980  22.1715590  38.8592440  54.8687980  21.4592840  38.3638340
  55.3594100  21.8268830  39.7480480  55.7412680  25.8583150  41.0231650
  55.4440970  25.2528620  40.3439430  56.6912500  25.8960460  40.9121010
  53.9859600  18.9458800  42.6391480  54.5374190  19.0554140  41.8644730
  54.5003110  19.3196400  43.3546710  61.8736330  22.4457960  33.5880710
  62.3129610  21.6080390  33.4418530  62.5864750  23.0787360  33.6744850
  53.6602330  22.4678160  46.2496820  53.5210100  23.3400960  46.6184220
  52.7783690  22.1250970  46.1044760  59.9831710  27.3854030  37.5561950
  60.4227620  28.1278360  37.1417340  59.9218600  27.6280600  38.4800910
  65.4553470  13.7000770  31.9021750  65.1426130  13.7927600  32.8020820
  66.2165940  14.2781800  31.8519180  51.9735610  21.0660570  36.3599090
  51.8533210  21.7922660  35.7480360  51.6636500  20.2963480  35.8827000
  49.6120980  24.2375710  42.1667730  49.6901400  24.3724480  41.2223450
  50.2262660  23.5291600  42.3595850  50.8568610  25.9375900  38.5773910
  50.4496690  26.0790490  37.7227510  51.7481620  25.6536060  38.3745120
  66.8130750  26.3839810  46.9146150  66.9393810  26.1451690  45.9963330
  66.8552130  25.5524350  47.3868230  55.1290270  30.1521680  36.6896580
  54.9532750  29.2357220  36.4764380  54.2746010  30.5108970  36.9294380
  62.3528020  27.8810710  33.4722960  61.6593180  27.8788000  32.8125240
  63.0950880  27.4570030  33.0417130  66.6654760  18.4372270  47.8795890
  66.0499030  18.9451940  47.3511350  66.3451180  17.5370600  47.8221830
  49.6680500  25.2789880  44.7062190  49.8311540  24.8095240  43.8881560
  50.1332950  24.7713440  45.3711030  54.4399270  14.4095640  39.7422760
  53.9967420  15.1905180  39.4107280  54.9984260  14.7325530  40.4493700
  58.7269080  17.2764160  45.3458080  58.2648450  17.4847180  46.1578020
  58.3247190  16.4623510  45.0428750  63.7273590  18.4973110  46.4754740
  62.8767180  18.1978860  46.7963810  63.5675380  18.7415120  45.5638560
  60.8223300  19.9974860  48.5753530  61.1476710  19.1638610  48.2355760
  61.6103630  20.5203380  48.7231860  57.5558090  14.0306340  34.6228590
  56.9312270  14.0266210  35.3481900  57.4688210  13.1637300  34.2264560
  56.4775170  14.9542970  41.6012360  56.7747500  15.8605800  41.5204380
  57.0260730  14.4661750  40.9871930  54.2313490  19.5329210  37.4704010
  54.0054410  19.3166380  38.3750630  53.4506020  19.9657670  37.1249980
  61.4611250  19.5392580  36.0694660  60.8620140  20.2628380  35.8858280
  62.0090860  19.4769360  35.2871110  56.6712700  20.4314790  48.1364280
  56.5756300  19.4909520  47.9864680  57.5144680  20.6529860  47.7412350
  60.0676120  18.1756120  38.0997940  60.4605690  18.4928320  37.2866630
  60.4292970  17.2968000  38.2142460  51.8023240  16.8428460  46.2898060
  51.4086630  17.6903670  46.4970840  51.1141640  16.2054830  46.4806700
  58.3768290  16.9263430  49.3594800  57.6866610  16.7335630  49.9940890
  59.1200590  17.2098070  49.8919100  49.1040290  14.7656920  40.3228140
  48.8153340  15.3359780  41.0353120  49.8486050  14.2861370  40.6859370
  49.2910520  18.7077040  31.5330860  49.2085190  19.6507800  31.6745850
  48.9393580  18.5651950  30.6543210  60.6531260  20.7661870  42.1948720
  59.9212380  21.2748680  42.5438820  60.2555600  19.9491850  41.8937500
  57.0908650  17.4416070  40.6001210  57.0944710  17.0006020  39.7505750
  57.9859770  17.7633400  40.7073030  52.9411030  17.3242560  39.5595420
  52.6011080  17.8017790  40.3162470  52.1788350  16.8707680  39.1996520
  57.1528800  18.4428150  33.5907970  57.2741620  18.4014630  34.5393790
  56.7677310  19.3052300  33.4354700  61.1157170  16.2195550  41.6071660
  61.1329910  16.6704200  42.4513510  60.8672750  15.3201190  41.8205100
  56.1650300  20.7529290  32.9891270  55.5967200  20.3047540  32.3627180
  56.8739300  21.1122070  32.4556420  64.5427920  13.6327730  47.4458040
  64.8673690  12.9017390  47.9716020  64.5784430  13.3141370  46.5439030
  57.3916620  21.5017850  42.3466620  57.7586750  21.0276420  43.0927960
  57.2021680  22.3759420  42.6874960  50.2557110  16.2461540  38.4760090
  49.9704030  15.8817210  39.3138710  50.1935970  15.5142000  37.8623230
  55.1815990  20.5426490  44.6650830  54.8773060  21.4218470  44.8901190
  56.1362450  20.6026280  44.7008270  53.7097780  24.7487480  35.2617680
  52.9360040  24.2085100  35.1016400  54.4392410  24.2294090  34.9235440
  64.4685760  23.7452840  41.0544070  65.1884880  24.2408130  40.6640180
  64.2667580  23.0670730  40.4097940  59.9295700  15.1390800  35.1973460
  59.1160310  14.6403970  35.1218770  59.7357650  15.9789050  34.7809810
  59.8504560  23.8161900  46.9413070  59.7841870  22.8957570  46.6870660
  59.2209700  23.9137340  47.6557710  62.6444090  19.5110450  33.4935620
  63.5323710  19.8227680  33.3186960  62.6149180  18.6382700  33.1016200
  53.7535180  24.4167860  38.8996490  54.2713850  23.6136120  38.8453380
  53.3019200  24.3547000  39.7413320  58.6404680  25.6834140  34.1723790
  58.9820380  26.4276370  33.6767110  57.8117390  25.9965260  34.5348620
  51.2379720  21.3829230  45.8122190  50.8794660  22.0483080  46.3995530
  50.9434280  20.5512780  46.1834810  59.7821290  26.6382470  46.6916870
  59.7965830  25.7063430  46.4735780  59.0746390  26.7242230  47.3306640
  64.9158360  20.8222290  32.9615480  64.8322080  21.2536510  32.1111920
  65.6352550  21.2820640  33.3942300  65.9932500  23.2789810  46.0385450
  65.2680690  23.8718590  45.8414840  66.5207960  23.2713350  45.2398820
  65.9445610  27.6764550  35.6897610  65.3021770  27.0220170  35.9641330
  65.5576270  28.0819640  34.9138280  61.5232090  25.0049980  39.5369300
  61.8755910  24.4078110  38.8770670  60.6394420  24.6794210  39.7077550
  57.6095370  25.7647670  36.9439710  58.2966500  26.3116880  37.3247300
  56.8227790  26.3088400  36.9789320  49.7487770  21.3820490  32.4356790
  50.6182620  21.6645290  32.7192710  49.2578090  22.1956360  32.3205600
  56.9122580  22.7693700  36.5565070  57.3685360  23.5798950  36.7825260
  56.5610790  22.4516840  37.3883560  59.2155190  28.2800040  43.7857370
  59.8597410  28.4859420  44.4630790  59.5784630  27.5188440  43.3328220
  52.8134360  13.1131350  37.0287590  52.6848990  13.1049250  37.9772510
  51.9896380  13.4514440  36.6778600  60.4887270  26.2832390  42.5034820
  61.1309500  25.5825550  42.6166990  61.0136620  27.0630830  42.3231710
  64.3342990  26.5681010  32.2273960  64.1080570  25.8511450  32.8198600
  63.9439190  26.3193450  31.3895710  62.2624890  27.0827290  45.7070880
  62.5981130  27.6693980  46.3848800  61.3425230  26.9520000  45.9368670
  50.1159020  30.5947870  33.0018420  50.4756660  31.1937210  32.3475690
  49.9751360  31.1407760  33.7753450  49.8128290  14.8722470  46.4894290
  49.0986810  15.0719390  47.0946900  50.2323330  14.0962040  46.8609090
  63.9159240  24.4852950  33.8888120  63.6280940  24.9465640  34.6766000
  64.7111410  24.0250720  34.1572340  56.1327640  27.9779070  33.8192090
  56.1237740  28.7108760  33.2036600  55.2126000  27.7310650  33.9119050
  51.7334280  23.1993960  34.5638850  51.1262230  23.9392860  34.5734150
  52.2083630  23.2893320  33.7377050  61.3067070  17.3644780  44.2395740
  61.6747890  16.5439990  44.5675310  60.4465270  17.4246670  44.6551390
  64.6729100  16.3201720  35.0483300  64.0442260  16.4247390  34.3341530
  64.1781020  16.5398500  35.8377180  59.1187240  28.0407310  32.4817280
  59.2199220  27.8371300  31.5519260  58.2188980  27.7865590  32.6865060
  56.6413130  18.5987670  36.4641180  55.9329280  19.0674010  36.9054790
  56.9257610  17.9409680  37.0986370  58.2669060  20.0184370  44.4633710
  58.7654310  20.4930190  45.1285560  58.4092010  19.0947890  44.6703740
  60.6728560  15.3238330  37.9036970  60.5496340  15.3424460  36.9546480
  61.6213120  15.3717270  38.0235370  54.8448150  16.9072750  33.8391890
  55.6938680  17.3442900  33.7732080  54.4779420  17.2193010  34.6663950
  65.4735920  16.2352330  45.3062100  64.9709520  16.9757730  45.6455910
  66.2892580  16.6236330  44.9898890  63.7657930  21.4785510  38.7523460
  62.8248070  21.4935740  38.9271150  64.0802000  20.6921470  39.1983760
  53.7439570  23.1605110  32.3127420  54.5102840  23.0486470  32.8752850
  53.8214260  22.4643080  31.6604190  52.4386330  20.5930180  32.9960310
  52.5189920  19.6457690  33.1077710  53.3306080  20.9237060  33.1020970
  53.2401040  30.7425570  40.0994850  53.9763520  30.1941030  40.3703420
  53.6241960  31.6081580  39.9600840  50.1246520  26.8099140  35.9736360
  49.1986300  27.0520280  35.9641770  50.5902950  27.6373400  35.8521110
  56.3503350  29.9155880  31.9220420  57.1431960  30.2044710  31.4702210
  55.8307700  29.4848050  31.2432900  62.5124320  29.7631800  47.8465250
  63.4646070  29.6789820  47.7965490  62.3652540  30.4273510  48.5199040
  65.4033520  29.1426010  33.3457160  65.1175030  28.7291150  32.5311340
  65.2053070  30.0713720  33.2257680  49.9657130  22.4145100  48.2316480
  50.4696150  21.8352380  48.8032710  49.2264550  22.6985330  48.7692850
  56.8680750  25.1359290  31.7862770  56.7631390  24.5211640  32.5124150
  56.7004970  24.6125180  31.0025780  60.1083480  24.1979320  32.3904760
  59.5593580  24.6448620  33.0347500  60.7302740  23.6928570  32.9142430
  64.1618420  25.5521420  48.3227020  64.9027890  25.8897180  47.8194480
  63.3991100  25.7213480  47.7696790  51.9980210  20.5574690  49.1266550
  52.0385550  20.2588560  50.0351780  52.8525710  20.9582300  48.9674070
  55.7758600  23.1570240  34.2870060  56.1975020  22.9910110  35.1301450
  55.9009440  22.3470470  33.7925200  53.9386020  19.1366790  47.0941040
  53.4082480  18.6457740  46.4664380  54.6074090  19.5650990  46.5598970
  58.2886240  22.1807850  31.5347160  58.8091900  21.4656870  31.1688310
  58.9354640  22.8193720  31.8347670  62.8364080  23.6036250  46.8582230
  63.2505100  23.7581330  47.7072650  61.9015080  23.7291470  47.0208010
  63.3086250  20.9432410  48.8621380  63.8907020  20.1884730  48.7741860
  63.4848020  21.4739850  48.0852860  54.4258320  16.1029160  47.1738330
  54.3315190  15.4849910  46.4489200  53.8455710  16.8295450  46.9468240
  57.1919760  14.6602400  44.2065720  56.7437060  14.6826660  43.3611270
  56.5584960  14.2621420  44.8036020  57.5979310  23.5556730  44.8278160
  58.0167420  24.3989460  44.6554400  56.6787940  23.6928770  44.5984940
  59.9343210  21.2872910  46.2116000  60.0539420  20.6914050  46.9510840
  60.7937210  21.3242600  45.7917300  62.2731110  21.8410100  44.7878510
  61.7466330  22.3652720  44.1843650  62.6162450  22.4737490  45.4188240
  54.6717500  19.2303470  31.2328220  54.4706560  18.3670830  31.5941560
  54.5009550  19.1436830  30.2949820  56.7011980  17.8294260  47.4691820
  57.2911670  17.5210110  48.1569640  55.8832220  17.3574010  47.6251720
  61.5205410  17.4460070  47.7024840  60.8320930  16.7841610  47.6374830
  62.2411430  16.9998340  48.1473300  62.1505810  14.0411700  33.7615100
  62.4308100  13.1979600  34.1174520  61.3771540  14.2734810  34.2753850
  53.4700300  16.3304090  31.2206100  53.7726200  16.3371520  30.3125250
  54.2094890  15.9801950  31.7173760  56.6885230  15.2738710  32.2062300
  56.3407230  14.5962700  31.6264750  56.8898000  14.8128220  33.0205690
  52.4930430  25.6346510  32.0535900  52.9305300  26.1776180  32.7093480
  52.9778160  24.8093460  32.0632240  49.7076230  28.4235540  39.5056160
  50.0379240  27.5556600  39.2734800  50.1367230  28.6294060  40.3361120
  54.3038150  26.7544550  37.1658130  54.0033690  26.6309520  38.0662040
  54.1975640  25.8953140  36.7573860  50.1966440  29.2906130  42.2437790
  49.7597430  29.4706930  43.0761940  50.7644120  30.0480750  42.1019510
  65.8328620  28.7923130  46.5315100  65.2330610  28.8515690  45.7879020
  65.9622520  27.8528110  46.6611950  67.0730070  26.5340950  31.8684810
  66.2423030  26.6017600  32.3392040  67.2501900  27.4245070  31.5651670
  66.5286530  23.2788430  34.3719010  67.2905440  23.8485080  34.4778700
  66.5440900  22.7115630  35.1427320  50.0290870  21.8026360  38.6026670
  49.3739710  21.5338000  37.9586370  50.8668820  21.6930840  38.1528650
  67.5346500  24.1338530  39.2160940  67.9055330  23.3505850  38.8096910
  68.1748430  24.8227630  39.0378240  64.5180260  25.5175110  44.6291260
  63.7040100  25.9472270  44.8917050  64.9254460  26.1293520  44.0160310
  66.5805700  23.5722800  31.5291530  66.8554540  24.4801680  31.4010750
  66.3916440  23.5085330  32.4653520  62.9781310  16.5967650  32.8245160
  63.3966190  16.4098630  31.9841820  62.6717370  15.7446700  33.1348090
  66.4771040  21.5091790  36.5220960  66.1014640  20.7419720  36.0902250
  65.7474160  21.8914490  37.0095890  51.0666800  22.1878930  43.1430010
  51.4339840  22.1006330  44.0226030  50.4977620  21.4245480  43.0436870
  65.8670660  20.6563310  46.1560480  65.6356750  20.4276060  45.2558430
  66.1275210  21.5762860  46.1105370  50.6182800  19.0988020  47.0488430
  49.7238850  19.0654780  47.3882140  51.1580350  19.2974810  47.8139680
  64.3058730  15.8819740  48.9340180  65.1828910  15.8903140  49.3174180
  64.3179570  15.1450580  48.3232530  49.2428950  19.0125290  34.5452000
  48.3393030  19.2755490  34.3703660  49.7269570  19.2836460  33.7651960
  65.7522000  19.7349280  39.8228200  66.2759480  19.2411930  39.1918370
  66.3381420  19.8699640  40.5675770  65.9311720  19.8189150  43.3447750
  64.9814430  19.7852690  43.4592740  66.1124730  20.7289260  43.1097520
  51.7856160  18.0690830  32.4546380  52.4947860  17.6474050  31.9693660
  51.0696100  18.1366060  31.8229730  51.4330320  14.1230160  31.4949030
  52.1558450  14.6639100  31.8130250  51.7054840  13.8493580  30.6190570
  65.2421970  18.9922630  35.7620610  65.7381090  18.7593500  36.5469490
  65.0438040  18.1534470  35.3458250  51.1222510  13.3736350  41.3971650
  51.7698700  12.8233730  40.9566810  51.5424350  13.6279500  42.2187460
  66.6709130  17.6283580  38.2958290  66.5608410  17.4739620  39.2340560
  67.4316720  17.1004520  38.0533700  65.0174850  13.5677710  44.7541290
  65.6547070  14.1811850  45.1200480  65.1649740  13.6038370  43.8090520
  67.5599400  15.4591500  31.5364430  68.4848710  15.3272680  31.3282720
  67.5375190  15.5384320  32.4900880  67.6337890  16.2302160  34.1621140
  66.8389390  16.1647280  34.6914050  67.8381170  17.1652800  34.1506490
  50.8754510  13.5292020  44.1396970  50.5269330  13.9855840  44.9055150
  50.5442210  12.6349150  44.2219400  56.1824910  28.2571210  43.9059880
  55.9416270  28.5245770  43.0190400  57.1227550  28.4276940  43.9610740
  58.3879330  14.7203900  47.6616390  58.3268220  15.3125730  48.4111800
  59.3279710  14.6129860  47.5166650  61.0253890  14.3773960  47.3008680
  61.6394300  14.6953250  46.6389760  61.5703450  13.8922550  47.9204540
  51.5475150  13.0568220  47.4147740  52.0958140  12.8756270  46.6513850
  51.6130460  12.2662330  47.9504050  61.7661930  12.9406100  43.6277970
  60.8921770  13.2741210  43.4250900  61.6572680  12.4679280  44.4529840
  62.6733910  15.1476970  45.0119690  62.3447270  14.3328730  44.6321420
  63.6216210  15.1046780  44.8885380  55.5564240  29.2277250  41.1605390
  56.0729260  28.6164610  40.6353650  56.2061620  29.7306030  41.6516400
  59.5136750  13.8575940  42.5670880  58.7308540  14.3321440  42.8467640
  59.2199680  12.9530770  42.4584060  64.0657820  14.5599040  40.6119970
  64.5065910  14.5044140  39.7641570  63.7965410  15.4757050  40.6830150
  65.9296390  14.1914280  38.6228790  65.8684790  13.2475500  38.4759810
  66.7088420  14.2994370  39.1682250  50.2349140  30.3306640  37.5852740
  50.0671180  29.6977320  38.2834630  49.3683650  30.5366040  37.2346930
  50.8577160  14.1623420  35.0884600  51.6156520  14.2752300  34.5148630
  50.3954330  14.9992620  35.0428030  57.3990970  16.2762690  38.0786910
  56.5865480  15.9019580  37.7382790  57.9032610  15.5207770  38.3808100
  61.9015950  12.9405140  39.3169980  62.5045320  13.5125350  39.7918500
  61.1608940  13.5044580  39.0943880  65.0450550  13.3426700  34.5910260
  65.2401180  14.2410150  34.8577690  64.2580420  13.1113780  35.0843210
  51.8411840  29.0239870  35.0302880  51.3159460  29.4047900  34.3264840
  51.7656420  29.6490640  35.7512590  53.2302310  14.6887470  33.6286570
  53.7595070  13.9017270  33.4994520  53.8630630  15.3678660  33.8622100
  55.4240150  14.4262610  36.6831960  54.7942890  13.7249920  36.8502090
  54.8845290  15.1866740  36.4665120  66.5977160  30.5827410  36.3516820
  66.7729350  29.8965150  35.7077740  65.8998730  31.1074460  35.9593490
  55.5495710  13.7046590  49.1184450  55.2679980  14.2080190  48.3545270
  55.9315410  12.9068340  48.7526580  54.4404810  30.9722250  33.9052130
  55.1723630  30.6881530  33.3576020  54.6998480  30.7335530  34.7951510
  53.6019600  27.0886980  33.9098460  52.9728480  27.5572080  34.4584290
  53.7167430  26.2436200  34.3444650  62.1511170  13.1200170  49.6964920
  62.0376620  13.4394780  50.5916440  62.9680910  13.5212680  49.4002200
  61.0569320  21.1392640  20.0599660  60.9763370  20.2247250  19.7891370
  60.6433740  21.6359710  19.3539370  59.1887360  22.9171660  21.9408930
  58.4129460  22.4372100  22.2307500  59.8400290  22.2377310  21.7665090
  53.2053190  23.2291470  22.8184690  52.3738070  22.9740180  23.2181200
  53.8134170  23.3002240  23.5542610  63.2094790  27.3231850  20.7208060
  62.7476320  26.5519090  21.0495230  64.0220340  27.3497920  21.2260510
  53.1854450  27.2631560  23.0142710  53.4882490  26.3729300  22.8352930
  53.9298040  27.8201780  22.7864960  51.6145140  18.1893360  16.6027080
  50.7261840  18.5309330  16.5006960  51.8986330  17.9893680  15.7107910
  49.5778150  20.7899010  22.4866780  50.1494260  20.0221210  22.4870420
  49.5779690  21.0887770  21.5773390  59.4358100  29.6089860  20.3412050
  58.8169540  30.0647360  19.7706490  60.2909880  29.7641320  19.9401750
  58.6296350  25.5928850  21.9479090  58.5604630  24.6518790  21.7868220
  59.3916210  25.6830260  22.5201660  50.8203020  16.1983370  24.2735710
  50.6405860  15.3009120  24.5538470  50.4183100  16.7455240  24.9482660
  59.6601520  18.3999230  22.1748020  60.0366340  17.5271110  22.0621690
  59.5621030  18.7357930  21.2838460  53.7906530  16.7724860  17.6365460
  53.8973280  17.6728590  17.9434220  52.8798890  16.7242830  17.3460110
  63.4425640  15.8949670  19.1076360  64.2635260  15.4046240  19.1501840
  63.4759720  16.4847330  19.8608200  51.4389690  18.6943870  22.8818050
  52.1199800  18.9582240  23.5005450  51.1237740  17.8544740  23.2156060
  55.6314260  19.7411230  21.9690640  56.1392480  20.2392200  22.6095660
  56.1627500  18.9646430  21.7930000  67.7325190  17.9116420  25.6719990
  67.0277360  18.2998130  25.1535100  67.9983110  18.6066710  26.2740920
  53.9150360  14.3809790  26.2354060  53.9168800  14.8982180  25.4299960
  53.0854670  13.9039970  26.2123990  60.3021450  24.4929100  17.7343960
  59.6838720  24.9578550  17.1706680  60.8144700  25.1856580  18.1513470
  55.1653210  24.0204970  24.4127560  54.8322590  24.6473890  25.0548630
  55.3419890  24.5466850  23.6329230  63.6787120  17.8350050  21.8803900
  62.9742690  18.1234940  22.4607010  64.0399280  18.6450160  21.5203460
  53.5965690  16.0919750  24.2424510  53.9382500  16.9361800  23.9478380
  52.6581500  16.2403490  24.3589850  54.3772310  25.9885770  26.2276740
  54.9946310  26.6636850  25.9461190  53.5165430  26.3973750  26.1364240
  49.6704650  25.1785630  15.1083590  49.2932630  25.6672730  14.3768490
  49.9277720  25.8510910  15.7390120  65.2949900  27.4525180  24.1431380
  64.6113420  28.1224290  24.1348050  65.8344190  27.6505830  23.3776240
  66.7474040  17.2804840  22.2713110  65.7998950  17.3143820  22.4028540
  67.0724030  18.0943790  22.6562470  57.2793580  13.5802020  20.5669100
  57.5868560  13.0248910  19.8504600  56.3494280  13.7146480  20.3842090
  62.8308640  29.2969310  22.8576560  62.8435800  28.8931600  21.9898820
  62.2783860  30.0716600  22.7537990  64.1254060  26.0185530  17.9466730
  64.0150390  25.0759860  18.0716150  64.1222310  26.3801170  18.8329490
  62.2294080  24.1999150  24.1859170  62.6462870  23.9859260  23.3512630
  62.9533900  24.4571940  24.7567790  59.6674340  21.6450850  17.3029220
  58.7403620  21.5788230  17.5317690  59.8199160  22.5830980  17.1884460
  59.6543420  17.9167850  14.2996380  58.7147090  18.0781810  14.3848840
  59.9726680  18.6353530  13.7532370  66.1756180  22.5986370  24.2775410
  65.3474810  22.6679460  23.8025540  66.7706660  23.1840680  23.8091240
  63.6971630  23.2071150  17.8064470  63.0784050  22.8690700  17.1590770
  63.6796080  22.5630910  18.5143660  63.1398190  19.3855690  25.2230280
  62.7269370  20.2109400  25.4770270  62.4074140  18.8000730  25.0306640
  55.2730980  22.1715590  20.0848950  54.8687980  21.4592840  19.5894850
  55.3594100  21.8268830  20.9736990  55.7412680  25.8583150  22.2488160
  55.4440970  25.2528620  21.5695940  56.6912500  25.8960460  22.1377520
  53.9859600  18.9458800  23.8647990  54.5374190  19.0554140  23.0901240
  54.5003110  19.3196400  24.5803220  63.8298290  29.4315020  25.9111260
  63.3528850  30.2387210  25.7183870  63.1460080  28.7793350  26.0637470
  54.8331110  25.5964840  28.8995960  53.9359640  25.8204810  29.1469360
  54.8583980  25.7199780  27.9507360  61.8736330  22.4457960  14.8137220
  62.3129610  21.6080390  14.6675040  62.5864750  23.0787360  14.9001360
  53.6602330  22.4678160  27.4753330  53.5210100  23.3400960  27.8440730
  52.7783690  22.1250970  27.3301270  59.9831710  27.3854030  18.7818460
  60.4227620  28.1278360  18.3673850  59.9218600  27.6280600  19.7057420
  55.4582680  28.4099860  29.6838480  55.4298110  28.8142810  28.8166910
  55.2947650  27.4810220  29.5210080  65.4553470  13.7000770  13.1278260
  65.1426130  13.7927600  14.0277330  66.2165940  14.2781800  13.0775690
  51.9735610  21.0660570  17.5855600  51.8533210  21.7922660  16.9736870
  51.6636500  20.2963480  17.1083510  67.4097500  29.1926960  30.9802650
  67.8857220  29.6709850  31.6591730  68.0304660  29.1244450  30.2548150
  49.6120980  24.2375710  23.3924240  49.6901400  24.3724480  22.4479960
  50.2262660  23.5291600  23.5852360  50.8568610  25.9375900  19.8030420
  50.4496690  26.0790490  18.9484020  51.7481620  25.6536060  19.6001630
  66.8130750  26.3839810  28.1402660  66.9393810  26.1451690  27.2219840
  66.8552130  25.5524350  28.6124740  60.6747490  30.0867810  26.7097470
  61.1892160  29.9975820  27.5119900  59.8316570  30.4327510  27.0025380
  62.6501890  30.3723150  16.1381470  62.4903030  30.0826090  17.0363300
  62.4848600  29.5963280  15.6026700  55.1290270  30.1521680  17.9153090
  54.9532750  29.2357220  17.7020890  54.2746010  30.5108970  18.1550890
  62.3528020  27.8810710  14.6979470  61.6593180  27.8788000  14.0381750
  63.0950880  27.4570030  14.2673640  61.9177950  29.5073420  18.7727960
  62.3734900  28.7262800  19.0866580  62.2570470  30.2180240  19.3169140
  66.6654760  18.4372270  29.1052400  66.0499030  18.9451940  28.5767860
  66.3451180  17.5370600  29.0478340  49.6680500  25.2789880  25.9318700
  49.8311540  24.8095240  25.1138070  50.1332950  24.7713440  26.5967540
  54.4399270  14.4095640  20.9679270  53.9967420  15.1905180  20.6363790
  54.9984260  14.7325530  21.6750210  58.7269080  17.2764160  26.5714590
  58.2648450  17.4847180  27.3834530  58.3247190  16.4623510  26.2685260
  63.7273590  18.4973110  27.7011250  62.8767180  18.1978860  28.0220320
  63.5675380  18.7415120  26.7895070  60.8223300  19.9974860  29.8010040
  61.1476710  19.1638610  29.4612270  61.6103630  20.5203380  29.9488370
  57.5558090  14.0306340  15.8485100  56.9312270  14.0266210  16.5738410
  57.4688210  13.1637300  15.4521070  56.4775170  14.9542970  22.8268870
  56.7747500  15.8605800  22.7460890  57.0260730  14.4661750  22.2128440
  54.2313490  19.5329210  18.6960520  54.0054410  19.3166380  19.6007140
  53.4506020  19.9657670  18.3506490  61.4611250  19.5392580  17.2951170
  60.8620140  20.2628380  17.1114790  62.0090860  19.4769360  16.5127620
  56.6712700  20.4314790  29.3620790  56.5756300  19.4909520  29.2121190
  57.5144680  20.6529860  28.9668860  60.0676120  18.1756120  19.3254450
  60.4605690  18.4928320  18.5123140  60.4292970  17.2968000  19.4398970
  51.8023240  16.8428460  27.5154570  51.4086630  17.6903670  27.7227350
  51.1141640  16.2054830  27.7063210  58.3768290  16.9263430  30.5851310
  57.6866610  16.7335630  31.2197400  59.1200590  17.2098070  31.1175610
  49.1040290  14.7656920  21.5484650  48.8153340  15.3359780  22.2609630
  49.8486050  14.2861370  21.9115880  49.2910520  18.7077040  12.7587370
  49.2085190  19.6507800  12.9002360  48.9393580  18.5651950  11.8799720
  60.6531260  20.7661870  23.4205230  59.9212380  21.2748680  23.7695330
  60.2555600  19.9491850  23.1194010  57.0908650  17.4416070  21.8257720
  57.0944710  17.0006020  20.9762260  57.9859770  17.7633400  21.9329540
  52.9411030  17.3242560  20.7851930  52.6011080  17.8017790  21.5418980
  52.1788350  16.8707680  20.4253030  57.1528800  18.4428150  14.8164480
  57.2741620  18.4014630  15.7650300  56.7677310  19.3052300  14.6611210
  61.1157170  16.2195550  22.8328170  61.1329910  16.6704200  23.6770020
  60.8672750  15.3201190  23.0461610  56.1650300  20.7529290  14.2147780
  55.5967200  20.3047540  13.5883690  56.8739300  21.1122070  13.6812930
  64.5427920  13.6327730  28.6714550  64.8673690  12.9017390  29.1972530
  64.5784430  13.3141370  27.7695540  51.2419480  24.6541310  28.0914510
  50.8574270  24.0134980  28.6897470  51.5531670  25.3577430  28.6609240
  57.3916620  21.5017850  23.5723130  57.7586750  21.0276420  24.3184470
  57.2021680  22.3759420  23.9131470  50.2557110  16.2461540  19.7016600
  49.9704030  15.8817210  20.5395220  50.1935970  15.5142000  19.0879740
  55.1815990  20.5426490  25.8907340  54.8773060  21.4218470  26.1157700
  56.1362450  20.6026280  25.9264780  53.7097780  24.7487480  16.4874190
  52.9360040  24.2085100  16.3272910  54.4392410  24.2294090  16.1491950
  64.4685760  23.7452840  22.2800580  65.1884880  24.2408130  21.8896690
  64.2667580  23.0670730  21.6354450  59.9295700  15.1390800  16.4229970
  59.1160310  14.6403970  16.3475280  59.7357650  15.9789050  16.0066320
  59.8504560  23.8161900  28.1669580  59.7841870  22.8957570  27.9127170
  59.2209700  23.9137340  28.8814220  62.6444090  19.5110450  14.7192130
  63.5323710  19.8227680  14.5443470  62.6149180  18.6382700  14.3272710
  53.7535180  24.4167860  20.1253000  54.2713850  23.6136120  20.0709890
  53.3019200  24.3547000  20.9669830  58.6404680  25.6834140  15.3980300
  58.9820380  26.4276370  14.9023620  57.8117390  25.9965260  15.7605130
  51.2379720  21.3829230  27.0378700  50.8794660  22.0483080  27.6252040
  50.9434280  20.5512780  27.4091320  54.4392840  21.8413470  29.9218250
  54.1392980  21.9870650  29.0246070  55.2104080  21.2818760  29.8291640
  59.7821290  26.6382470  27.9173380  59.7965830  25.7063430  27.6992290
  59.0746390  26.7242230  28.5563150  64.9158360  20.8222290  14.1871990
  64.8322080  21.2536510  13.3368430  65.6352550  21.2820640  14.6198810
  65.9932500  23.2789810  27.2641960  65.2680690  23.8718590  27.0671350
  66.5207960  23.2713350  26.4655330  65.9445610  27.6764550  16.9154120
  65.3021770  27.0220170  17.1897840  65.5576270  28.0819640  16.1394790
  61.5232090  25.0049980  20.7625810  61.8755910  24.4078110  20.1027180
  60.6394420  24.6794210  20.9334060  57.6095370  25.7647670  18.1696220
  58.2966500  26.3116880  18.5503810  56.8227790  26.3088400  18.2045830
  49.7487770  21.3820490  13.6613300  50.6182620  21.6645290  13.9449220
  49.2578090  22.1956360  13.5462110  56.9122580  22.7693700  17.7821580
  57.3685360  23.5798950  18.0081770  56.5610790  22.4516840  18.6140070
  59.2155190  28.2800040  25.0113880  59.8597410  28.4859420  25.6887300
  59.5784630  27.5188440  24.5584730  52.8134360  13.1131350  18.2544100
  52.6848990  13.1049250  19.2029020  51.9896380  13.4514440  17.9035110
  60.4887270  26.2832390  23.7291330  61.1309500  25.5825550  23.8423500
  61.0136620  27.0630830  23.5488220  64.3342990  26.5681010  13.4530470
  64.1080570  25.8511450  14.0455110  63.9439190  26.3193450  12.6152220
  62.2624890  27.0827290  26.9327390  62.5981130  27.6693980  27.6105310
  61.3425230  26.9520000  27.1625180  50.1159020  30.5947870  14.2274930
  50.4756660  31.1937210  13.5732200  49.9751360  31.1407760  15.0009960
  49.8128290  14.8722470  27.7150800  49.0986810  15.0719390  28.3203410
  50.2323330  14.0962040  28.0865600  63.9159240  24.4852950  15.1144630
  63.6280940  24.9465640  15.9022510  64.7111410  24.0250720  15.3828850
  50.1000880  28.8602730  28.7017330  50.2092000  27.9197470  28.5612720
  49.4481440  29.1257480  28.0531060  58.0913470  27.1318620  30.1015450
  57.7710340  26.4127860  30.6461140  57.4171830  27.8073690  30.1751510
  56.1327640  27.9779070  15.0448600  56.1237740  28.7108760  14.4293110
  55.2126000  27.7310650  15.1375560  51.7334280  23.1993960  15.7895360
  51.1262230  23.9392860  15.7990660  52.2083630  23.2893320  14.9633560
  61.3067070  17.3644780  25.4652250  61.6747890  16.5439990  25.7931820
  60.4465270  17.4246670  25.8807900  64.6729100  16.3201720  16.2739810
  64.0442260  16.4247390  15.5598040  64.1781020  16.5398500  17.0633690
  59.1187240  28.0407310  13.7073790  59.2199220  27.8371300  12.7775770
  58.2188980  27.7865590  13.9121570  56.6413130  18.5987670  17.6897690
  55.9329280  19.0674010  18.1311300  56.9257610  17.9409680  18.3242880
  58.2669060  20.0184370  25.6890220  58.7654310  20.4930190  26.3542070
  58.4092010  19.0947890  25.8960250  60.6728560  15.3238330  19.1293480
  60.5496340  15.3424460  18.1802990  61.6213120  15.3717270  19.2491880
  57.7605350  30.5593630  18.4021460  58.0146850  30.5215020  17.4800830
  56.8117830  30.4326960  18.3949710  54.8448150  16.9072750  15.0648400
  55.6938680  17.3442900  14.9988590  54.4779420  17.2193010  15.8920460
  65.4735920  16.2352330  26.5318610  64.9709520  16.9757730  26.8712420
  66.2892580  16.6236330  26.2155400  63.7657930  21.4785510  19.9779970
  62.8248070  21.4935740  20.1527660  64.0802000  20.6921470  20.4240270
  53.7439570  23.1605110  13.5383930  54.5102840  23.0486470  14.1009360
  53.8214260  22.4643080  12.8860700  52.4386330  20.5930180  14.2216820
  52.5189920  19.6457690  14.3334220  53.3306080  20.9237060  14.3277480
  65.7683510  28.6494360  21.6534230  65.8930930  29.4725530  22.1258040
  66.6349070  28.4385090  21.3058380  53.2401040  30.7425570  21.3251360
  53.9763520  30.1941030  21.5959930  53.6241960  31.6081580  21.1857350
  50.1246520  26.8099140  17.1992870  49.1986300  27.0520280  17.1898280
  50.5902950  27.6373400  17.0777620  52.2459320  29.9271640  30.5136940
  53.0472050  30.2483690  30.9272340  51.7311140  29.5667220  31.2356850
  56.3503350  29.9155880  13.1476930  57.1431960  30.2044710  12.6958720
  55.8307700  29.4848050  12.4689410  61.0823950  26.0351510  30.4612350
  60.4762110  26.0583110  29.7208100  60.7778060  25.3034550  30.9979600
  62.5124320  29.7631800  29.0721760  63.4646070  29.6789820  29.0222000
  62.3652540  30.4273510  29.7455550  65.4033520  29.1426010  14.5713670
  65.1175030  28.7291150  13.7567850  65.2053070  30.0713720  14.4514190
  49.9657130  22.4145100  29.4572990  50.4696150  21.8352380  30.0289220
  49.2264550  22.6985330  29.9949360  56.8680750  25.1359290  13.0119280
  56.7631390  24.5211640  13.7380660  56.7004970  24.6125180  12.2282290
  57.0195070  23.8216090  28.9908510  56.2540740  24.3901090  28.9063180
  57.2011030  23.5292300  28.0976740  60.1083480  24.1979320  13.6161270
  59.5593580  24.6448620  14.2604010  60.7302740  23.6928570  14.1398940
  64.1618420  25.5521420  29.5483530  64.9027890  25.8897180  29.0450990
  63.3991100  25.7213480  28.9953300  51.9980210  20.5574690  30.3523060
  52.0385550  20.2588560  31.2608290  52.8525710  20.9582300  30.1930580
  55.7758600  23.1570240  15.5126570  56.1975020  22.9910110  16.3557960
  55.9009440  22.3470470  15.0181710  53.9386020  19.1366790  28.3197550
  53.4082480  18.6457740  27.6920890  54.6074090  19.5650990  27.7855480
  58.2886240  22.1807850  12.7603670  58.8091900  21.4656870  12.3944820
  58.9354640  22.8193720  13.0604180  62.8364080  23.6036250  28.0838740
  63.2505100  23.7581330  28.9329160  61.9015080  23.7291470  28.2464520
  63.3086250  20.9432410  30.0877890  63.8907020  20.1884730  29.9998370
  63.4848020  21.4739850  29.3109370  54.4258320  16.1029160  28.3994840
  54.3315190  15.4849910  27.6745710  53.8455710  16.8295450  28.1724750
  57.1919760  14.6602400  25.4322230  56.7437060  14.6826660  24.5867780
  56.5584960  14.2621420  26.0292530  57.5979310  23.5556730  26.0534670
  58.0167420  24.3989460  25.8810910  56.6787940  23.6928770  25.8241450
  59.9343210  21.2872910  27.4372510  60.0539420  20.6914050  28.1767350
  60.7937210  21.3242600  27.0173810  62.2731110  21.8410100  26.0135020
  61.7466330  22.3652720  25.4100160  62.6162450  22.4737490  26.6444750
  54.6717500  19.2303470  12.4584730  54.4706560  18.3670830  12.8198070
  54.5009550  19.1436830  11.5206330  55.4486730  29.8609740  27.1692400
  54.9107820  30.5855800  26.8501100  55.7020690  29.3840080  26.3789740
  56.7011980  17.8294260  28.6948330  57.2911670  17.5210110  29.3826150
  55.8832220  17.3574010  28.8508230  61.5205410  17.4460070  28.9281350
  60.8320930  16.7841610  28.8631340  62.2411430  16.9998340  29.3729810
  62.1505810  14.0411700  14.9871610  62.4308100  13.1979600  15.3431030
  61.3771540  14.2734810  15.5010360  53.4700300  16.3304090  12.4462610
  53.7726200  16.3371520  11.5381760  54.2094890  15.9801950  12.9430270
  58.3048940  31.0960950  27.4279050  58.2307640  31.9996090  27.7351420
  57.4027780  30.7772850  27.4001120  56.6885230  15.2738710  13.4318810
  56.3407230  14.5962700  12.8521260  56.8898000  14.8128220  14.2462200
  58.8534270  30.2619460  15.0505410  59.7485060  30.6004430  15.0724170
  58.8851900  29.5398870  14.4229690  52.4930430  25.6346510  13.2792410
  52.9305300  26.1776180  13.9349990  52.9778160  24.8093460  13.2888750
  49.7076230  28.4235540  20.7312670  50.0379240  27.5556600  20.4991310
  50.1367230  28.6294060  21.5617630  54.3038150  26.7544550  18.3914640
  54.0033690  26.6309520  19.2918550  54.1975640  25.8953140  17.9830370
  50.1966440  29.2906130  23.4694300  49.7597430  29.4706930  24.3018450
  50.7644120  30.0480750  23.3276020  65.8328620  28.7923130  27.7571610
  65.2330610  28.8515690  27.0135530  65.9622520  27.8528110  27.8868460
  67.0730070  26.5340950  13.0941320  66.2423030  26.6017600  13.5648550
  67.2501900  27.4245070  12.7908180  66.5286530  23.2788430  15.5975520
  67.2905440  23.8485080  15.7035210  66.5440900  22.7115630  16.3683830
  50.0290870  21.8026360  19.8283180  49.3739710  21.5338000  19.1842880
  50.8668820  21.6930840  19.3785160  67.5346500  24.1338530  20.4417450
  67.9055330  23.3505850  20.0353420  68.1748430  24.8227630  20.2634750
  64.5180260  25.5175110  25.8547770  63.7040100  25.9472270  26.1173560
  64.9254460  26.1293520  25.2416820  66.5805700  23.5722800  12.7548040
  66.8554540  24.4801680  12.6267260  66.3916440  23.5085330  13.6910030
  62.9781310  16.5967650  14.0501670  63.3966190  16.4098630  13.2098330
  62.6717370  15.7446700  14.3604600  66.4771040  21.5091790  17.7477470
  66.1014640  20.7419720  17.3158760  65.7474160  21.8914490  18.2352400
  51.0666800  22.1878930  24.3686520  51.4339840  22.1006330  25.2482540
  50.4977620  21.4245480  24.2693380  65.8670660  20.6563310  27.3816990
  65.6356750  20.4276060  26.4814940  66.1275210  21.5762860  27.3361880
  50.6182800  19.0988020  28.2744940  49.7238850  19.0654780  28.6138650
  51.1580350  19.2974810  29.0396190  64.3058730  15.8819740  30.1596690
  65.1828910  15.8903140  30.5430690  64.3179570  15.1450580  29.5489040
  49.2428950  19.0125290  15.7708510  48.3393030  19.2755490  15.5960170
  49.7269570  19.2836460  14.9908470  65.7522000  19.7349280  21.0484710
  66.2759480  19.2411930  20.4174880  66.3381420  19.8699640  21.7932280
  65.9311720  19.8189150  24.5704260  64.9814430  19.7852690  24.6849250
  66.1124730  20.7289260  24.3354030  51.7856160  18.0690830  13.6802890
  52.4947860  17.6474050  13.1950170  51.0696100  18.1366060  13.0486240
  51.4330320  14.1230160  12.7205540  52.1558450  14.6639100  13.0386760
  51.7054840  13.8493580  11.8447080  65.2421970  18.9922630  16.9877120
  65.7381090  18.7593500  17.7726000  65.0438040  18.1534470  16.5714760
  51.1222510  13.3736350  22.6228160  51.7698700  12.8233730  22.1823320
  51.5424350  13.6279500  23.4443970  66.6709130  17.6283580  19.5214800
  66.5608410  17.4739620  20.4597070  67.4316720  17.1004520  19.2790210
  65.0174850  13.5677710  25.9797800  65.6547070  14.1811850  26.3456990
  65.1649740  13.6038370  25.0347030  67.5599400  15.4591500  12.7620940
  68.4848710  15.3272680  12.5539230  67.5375190  15.5384320  13.7157390
  67.6337890  16.2302160  15.3877650  66.8389390  16.1647280  15.9170560
  67.8381170  17.1652800  15.3763000  64.5756310  30.2693710  19.3816040
  65.1715380  29.9478280  18.7050460  64.8334460  29.7965530  20.1729310
  50.8754510  13.5292020  25.3653480  50.5269330  13.9855840  26.1311660
  50.5442210  12.6349150  25.4475910  52.4818880  26.7011620  29.5306670
  52.4388510  26.3304530  30.4121130  52.6129890  27.6389190  29.6708490
  56.1824910  28.2571210  25.1316390  55.9416270  28.5245770  24.2446910
  57.1227550  28.4276940  25.1867250  58.3879330  14.7203900  28.8872900
  58.3268220  15.3125730  29.6368310  59.3279710  14.6129860  28.7423160
  61.0253890  14.3773960  28.5265190  61.6394300  14.6953250  27.8646270
  61.5703450  13.8922550  29.1461050  67.4429070  30.2765590  25.9327030
  66.9487350  30.6734460  25.2154160  66.8342360  29.6514800  26.3264310
  51.5475150  13.0568220  28.6404250  52.0958140  12.8756270  27.8770360
  51.6130460  12.2662330  29.1760560  52.3206910  29.6473870  26.6504450
  51.7267230  29.5158570  27.3894490  52.3130750  28.8112010  26.1846550
  61.7661930  12.9406100  24.8534480  60.8921770  13.2741210  24.6507410
  61.6572680  12.4679280  25.6786350  62.6733910  15.1476970  26.2376200
  62.3447270  14.3328730  25.8577930  63.6216210  15.1046780  26.1141890
  65.1268520  30.9189010  23.2113770  64.6671490  31.6704820  22.8371790
  64.4980980  30.1995480  23.1528570  51.9519140  27.0132250  25.6012490
  51.2253200  26.3937540  25.5338440  52.0128290  27.4072860  24.7310570
  55.5564240  29.2277250  22.3861900  56.0729260  28.6164610  21.8610160
  56.2061620  29.7306030  22.8772910  58.2959740  30.1185740  23.2130880
  58.5837550  29.8640040  22.3363890  58.8082960  29.5663100  23.8036450
  59.5136750  13.8575940  23.7927390  58.7308540  14.3321440  24.0724150
  59.2199680  12.9530770  23.6840570  64.0657820  14.5599040  21.8376480
  64.5065910  14.5044140  20.9898080  63.7965410  15.4757050  21.9086660
  65.9296390  14.1914280  19.8485300  65.8684790  13.2475500  19.7016320
  66.7088420  14.2994370  20.3938760  50.2349140  30.3306640  18.8109250
  50.0671180  29.6977320  19.5091140  49.3683650  30.5366040  18.4603440
  50.8577160  14.1623420  16.3141110  51.6156520  14.2752300  15.7405140
  50.3954330  14.9992620  16.2684540  57.3990970  16.2762690  19.3043420
  56.5865480  15.9019580  18.9639300  57.9032610  15.5207770  19.6064610
  61.9015950  12.9405140  20.5426490  62.5045320  13.5125350  21.0175010
  61.1608940  13.5044580  20.3200390  65.0450550  13.3426700  15.8166770
  65.2401180  14.2410150  16.0834200  64.2580420  13.1113780  16.3099720
  51.8411840  29.0239870  16.2559390  51.3159460  29.4047900  15.5521350
  51.7656420  29.6490640  16.9769100  53.2302310  14.6887470  14.8543080
  53.7595070  13.9017270  14.7251030  53.8630630  15.3678660  15.0878610
  55.4240150  14.4262610  17.9088470  54.7942890  13.7249920  18.0758600
  54.8845290  15.1866740  17.6921630  58.3632100  31.0401840  30.5799080
  59.2899410  30.8046110  30.6235040  58.3482530  31.8673840  30.0985110
  66.5977160  30.5827410  17.5773330  66.7729350  29.8965150  16.9334250
  65.8998730  31.1074460  17.1850000  55.5495710  13.7046590  30.3440960
  55.2679980  14.2080190  29.5801780  55.9315410  12.9068340  29.9783090
  54.4404810  30.9722250  15.1308640  55.1723630  30.6881530  14.5832530
  54.6998480  30.7335530  16.0208020  53.6019600  27.0886980  15.1354970
  52.9728480  27.5572080  15.6840800  53.7167430  26.2436200  15.5701160
  62.1511170  13.1200170  30.9221430  62.0376620  13.4394780  31.8172950
  62.9680910  13.5212680  30.6258710  64.9309660  30.2671700  30.4040120
  65.7234980  29.7720930  30.1966080  65.2242810  30.9461840  31.0115730
  59.1887360  22.9171660   3.1665440  58.4129460  22.4372100   3.4564010
  59.8400290  22.2377310   2.9921600  53.2053190  23.2291470   4.0441200
  52.3738070  22.9740180   4.4437710  53.8134170  23.3002240   4.7799120
  63.2094790  27.3231850   1.9464570  62.7476320  26.5519090   2.2751740
  64.0220340  27.3497920   2.4517020  53.1854450  27.2631560   4.2399220
  53.4882490  26.3729300   4.0609440  53.9298040  27.8201780   4.0121470
  49.5778150  20.7899010   3.7123290  50.1494260  20.0221210   3.7126930
  49.5779690  21.0887770   2.8029900  58.6296350  25.5928850   3.1735600
  58.5604630  24.6518790   3.0124730  59.3916210  25.6830260   3.7458170
  50.8203020  16.1983370   5.4992220  50.6405860  15.3009120   5.7794980
  50.4183100  16.7455240   6.1739170  59.6601520  18.3999230   3.4004530
  60.0366340  17.5271110   3.2878200  59.5621030  18.7357930   2.5094970
  51.4389690  18.6943870   4.1074560  52.1199800  18.9582240   4.7261960
  51.1237740  17.8544740   4.4412570  55.6314260  19.7411230   3.1947150
  56.1392480  20.2392200   3.8352170  56.1627500  18.9646430   3.0186510
  67.7325190  17.9116420   6.8976500  67.0277360  18.2998130   6.3791610
  67.9983110  18.6066710   7.4997430  53.9150360  14.3809790   7.4610570
  53.9168800  14.8982180   6.6556470  53.0854670  13.9039970   7.4380500
  55.1653210  24.0204970   5.6384070  54.8322590  24.6473890   6.2805140
  55.3419890  24.5466850   4.8585740  63.6787120  17.8350050   3.1060410
  62.9742690  18.1234940   3.6863520  64.0399280  18.6450160   2.7459970
  53.5965690  16.0919750   5.4681020  53.9382500  16.9361800   5.1734890
  52.6581500  16.2403490   5.5846360  54.3772310  25.9885770   7.4533250
  54.9946310  26.6636850   7.1717700  53.5165430  26.3973750   7.3620750
  65.2949900  27.4525180   5.3687890  64.6113420  28.1224290   5.3604560
  65.8344190  27.6505830   4.6032750  66.7474040  17.2804840   3.4969620
  65.7998950  17.3143820   3.6285050  67.0724030  18.0943790   3.8818980
  62.8308640  29.2969310   4.0833070  62.8435800  28.8931600   3.2155330
  62.2783860  30.0716600   3.9794500  62.2294080  24.1999150   5.4115680
  62.6462870  23.9859260   4.5769140  62.9533900  24.4571940   5.9824300
  66.1756180  22.5986370   5.5031920  65.3474810  22.6679460   5.0282050
  66.7706660  23.1840680   5.0347750  63.1398190  19.3855690   6.4486790
  62.7269370  20.2109400   6.7026780  62.4074140  18.8000730   6.2563150
  55.7412680  25.8583150   3.4744670  55.4440970  25.2528620   2.7952450
  56.6912500  25.8960460   3.3634030  53.9859600  18.9458800   5.0904500
  54.5374190  19.0554140   4.3157750  54.5003110  19.3196400   5.8059730
  63.8298290  29.4315020   7.1367770  63.3528850  30.2387210   6.9440380
  63.1460080  28.7793350   7.2893980  54.8331110  25.5964840  10.1252470
  53.9359640  25.8204810  10.3725870  54.8583980  25.7199780   9.1763870
  53.6602330  22.4678160   8.7009840  53.5210100  23.3400960   9.0697240
  52.7783690  22.1250970   8.5557780  55.4582680  28.4099860  10.9094990
  55.4298110  28.8142810  10.0423420  55.2947650  27.4810220  10.7466590
  67.4097500  29.1926960  12.2059160  67.8857220  29.6709850  12.8848240
  68.0304660  29.1244450  11.4804660  49.6120980  24.2375710   4.6180750
  49.6901400  24.3724480   3.6736470  50.2262660  23.5291600   4.8108870
  66.8130750  26.3839810   9.3659170  66.9393810  26.1451690   8.4476350
  66.8552130  25.5524350   9.8381250  60.6747490  30.0867810   7.9353980
  61.1892160  29.9975820   8.7376410  59.8316570  30.4327510   8.2281890
  66.6654760  18.4372270  10.3308910  66.0499030  18.9451940   9.8024370
  66.3451180  17.5370600  10.2734850  49.6680500  25.2789880   7.1575210
  49.8311540  24.8095240   6.3394580  50.1332950  24.7713440   7.8224050
  54.4399270  14.4095640   2.1935780  53.9967420  15.1905180   1.8620300
  54.9984260  14.7325530   2.9006720  58.7269080  17.2764160   7.7971100
  58.2648450  17.4847180   8.6091040  58.3247190  16.4623510   7.4941770
  63.7273590  18.4973110   8.9267760  62.8767180  18.1978860   9.2476830
  63.5675380  18.7415120   8.0151580  60.8223300  19.9974860  11.0266550
  61.1476710  19.1638610  10.6868780  61.6103630  20.5203380  11.1744880
  56.4775170  14.9542970   4.0525380  56.7747500  15.8605800   3.9717400
  57.0260730  14.4661750   3.4384950  56.6712700  20.4314790  10.5877300
  56.5756300  19.4909520  10.4377700  57.5144680  20.6529860  10.1925370
  51.8023240  16.8428460   8.7411080  51.4086630  17.6903670   8.9483860
  51.1141640  16.2054830   8.9319720  58.3768290  16.9263430  11.8107820
  57.6866610  16.7335630  12.4453910  59.1200590  17.2098070  12.3432120
  49.1040290  14.7656920   2.7741160  48.8153340  15.3359780   3.4866140
  49.8486050  14.2861370   3.1372390  60.6531260  20.7661870   4.6461740
  59.9212380  21.2748680   4.9951840  60.2555600  19.9491850   4.3450520
  57.0908650  17.4416070   3.0514230  57.0944710  17.0006020   2.2018770
  57.9859770  17.7633400   3.1586050  52.9411030  17.3242560   2.0108440
  52.6011080  17.8017790   2.7675490  52.1788350  16.8707680   1.6509540
  61.1157170  16.2195550   4.0584680  61.1329910  16.6704200   4.9026530
  60.8672750  15.3201190   4.2718120  64.5427920  13.6327730   9.8971060
  64.8673690  12.9017390  10.4229040  64.5784430  13.3141370   8.9952050
  51.2419480  24.6541310   9.3171020  50.8574270  24.0134980   9.9153980
  51.5531670  25.3577430   9.8865750  57.3916620  21.5017850   4.7979640
  57.7586750  21.0276420   5.5440980  57.2021680  22.3759420   5.1387980
  55.1815990  20.5426490   7.1163850  54.8773060  21.4218470   7.3414210
  56.1362450  20.6026280   7.1521290  64.4685760  23.7452840   3.5057090
  65.1884880  24.2408130   3.1153200  64.2667580  23.0670730   2.8610960
  59.8504560  23.8161900   9.3926090  59.7841870  22.8957570   9.1383680
  59.2209700  23.9137340  10.1070730  51.2379720  21.3829230   8.2635210
  50.8794660  22.0483080   8.8508550  50.9434280  20.5512780   8.6347830
  54.4392840  21.8413470  11.1474760  54.1392980  21.9870650  10.2502580
  55.2104080  21.2818760  11.0548150  59.7821290  26.6382470   9.1429890
  59.7965830  25.7063430   8.9248800  59.0746390  26.7242230   9.7819660
  65.9932500  23.2789810   8.4898470  65.2680690  23.8718590   8.2927860
  66.5207960  23.2713350   7.6911840  59.2155190  28.2800040   6.2370390
  59.8597410  28.4859420   6.9143810  59.5784630  27.5188440   5.7841240
  60.4887270  26.2832390   4.9547840  61.1309500  25.5825550   5.0680010
  61.0136620  27.0630830   4.7744730  62.2624890  27.0827290   8.1583900
  62.5981130  27.6693980   8.8361820  61.3425230  26.9520000   8.3881690
  49.8128290  14.8722470   8.9407310  49.0986810  15.0719390   9.5459920
  50.2323330  14.0962040   9.3122110  50.1000880  28.8602730   9.9273840
  50.2092000  27.9197470   9.7869230  49.4481440  29.1257480   9.2787570
  58.0913470  27.1318620  11.3271960  57.7710340  26.4127860  11.8717650
  57.4171830  27.8073690  11.4008020  61.3067070  17.3644780   6.6908760
  61.6747890  16.5439990   7.0188330  60.4465270  17.4246670   7.1064410
  58.2669060  20.0184370   6.9146730  58.7654310  20.4930190   7.5798580
  58.4092010  19.0947890   7.1216760  65.4735920  16.2352330   7.7575120
  64.9709520  16.9757730   8.0968930  66.2892580  16.6236330   7.4411910
  65.7683510  28.6494360   2.8790740  65.8930930  29.4725530   3.3514550
  66.6349070  28.4385090   2.5314890  53.2401040  30.7425570   2.5507870
  53.9763520  30.1941030   2.8216440  53.6241960  31.6081580   2.4113860
  52.2459320  29.9271640  11.7393450  53.0472050  30.2483690  12.1528850
  51.7311140  29.5667220  12.4613360  61.0823950  26.0351510  11.6868860
  60.4762110  26.0583110  10.9464610  60.7778060  25.3034550  12.2236110
  62.5124320  29.7631800  10.2978270  63.4646070  29.6789820  10.2478510
  62.3652540  30.4273510  10.9712060  49.9657130  22.4145100  10.6829500
  50.4696150  21.8352380  11.2545730  49.2264550  22.6985330  11.2205870
  57.0195070  23.8216090  10.2165020  56.2540740  24.3901090  10.1319690
  57.2011030  23.5292300   9.3233250  64.1618420  25.5521420  10.7740040
  64.9027890  25.8897180  10.2707500  63.3991100  25.7213480  10.2209810
  51.9980210  20.5574690  11.5779570  52.0385550  20.2588560  12.4864800
  52.8525710  20.9582300  11.4187090  53.9386020  19.1366790   9.5454060
  53.4082480  18.6457740   8.9177400  54.6074090  19.5650990   9.0111990
  62.8364080  23.6036250   9.3095250  63.2505100  23.7581330  10.1585670
  61.9015080  23.7291470   9.4721030  63.3086250  20.9432410  11.3134400
  63.8907020  20.1884730  11.2254880  63.4848020  21.4739850  10.5365880
  54.4258320  16.1029160   9.6251350  54.3315190  15.4849910   8.9002220
  53.8455710  16.8295450   9.3981260  57.1919760  14.6602400   6.6578740
  56.7437060  14.6826660   5.8124290  56.5584960  14.2621420   7.2549040
  57.5979310  23.5556730   7.2791180  58.0167420  24.3989460   7.1067420
  56.6787940  23.6928770   7.0497960  59.9343210  21.2872910   8.6629020
  60.0539420  20.6914050   9.4023860  60.7937210  21.3242600   8.2430320
  62.2731110  21.8410100   7.2391530  61.7466330  22.3652720   6.6356670
  62.6162450  22.4737490   7.8701260  55.4486730  29.8609740   8.3948910
  54.9107820  30.5855800   8.0757610  55.7020690  29.3840080   7.6046250
  56.7011980  17.8294260   9.9204840  57.2911670  17.5210110  10.6082660
  55.8832220  17.3574010  10.0764740  61.5205410  17.4460070  10.1537860
  60.8320930  16.7841610  10.0887850  62.2411430  16.9998340  10.5986320
  58.3048940  31.0960950   8.6535560  58.2307640  31.9996090   8.9607930
  57.4027780  30.7772850   8.6257630  49.7076230  28.4235540   1.9569180
  50.0379240  27.5556600   1.7247820  50.1367230  28.6294060   2.7874140
  50.1966440  29.2906130   4.6950810  49.7597430  29.4706930   5.5274960
  50.7644120  30.0480750   4.5532530  65.8328620  28.7923130   8.9828120
  65.2330610  28.8515690   8.2392040  65.9622520  27.8528110   9.1124970
  64.5180260  25.5175110   7.0804280  63.7040100  25.9472270   7.3430070
  64.9254460  26.1293520   6.4673330  51.0666800  22.1878930   5.5943030
  51.4339840  22.1006330   6.4739050  50.4977620  21.4245480   5.4949890
  65.8670660  20.6563310   8.6073500  65.6356750  20.4276060   7.7071450
  66.1275210  21.5762860   8.5618390  50.6182800  19.0988020   9.5001450
  49.7238850  19.0654780   9.8395160  51.1580350  19.2974810  10.2652700
  64.3058730  15.8819740  11.3853200  65.1828910  15.8903140  11.7687200
  64.3179570  15.1450580  10.7745550  65.7522000  19.7349280   2.2741220
  66.2759480  19.2411930   1.6431390  66.3381420  19.8699640   3.0188790
  65.9311720  19.8189150   5.7960770  64.9814430  19.7852690   5.9105760
  66.1124730  20.7289260   5.5610540  51.1222510  13.3736350   3.8484670
  51.7698700  12.8233730   3.4079830  51.5424350  13.6279500   4.6700480
  65.0174850  13.5677710   7.2054310  65.6547070  14.1811850   7.5713500
  65.1649740  13.6038370   6.2603540  50.8754510  13.5292020   6.5909990
  50.5269330  13.9855840   7.3568170  50.5442210  12.6349150   6.6732420
  52.4818880  26.7011620  10.7563180  52.4388510  26.3304530  11.6377640
  52.6129890  27.6389190  10.8965000  56.1824910  28.2571210   6.3572900
  55.9416270  28.5245770   5.4703420  57.1227550  28.4276940   6.4123760
  58.3879330  14.7203900  10.1129410  58.3268220  15.3125730  10.8624820
  59.3279710  14.6129860   9.9679670  61.0253890  14.3773960   9.7521700
  61.6394300  14.6953250   9.0902780  61.5703450  13.8922550  10.3717560
  67.4429070  30.2765590   7.1583540  66.9487350  30.6734460   6.4410670
  66.8342360  29.6514800   7.5520820  51.5475150  13.0568220   9.8660760
  52.0958140  12.8756270   9.1026870  51.6130460  12.2662330  10.4017070
  52.3206910  29.6473870   7.8760960  51.7267230  29.5158570   8.6151000
  52.3130750  28.8112010   7.4103060  61.7661930  12.9406100   6.0790990
  60.8921770  13.2741210   5.8763920  61.6572680  12.4679280   6.9042860
  62.6733910  15.1476970   7.4632710  62.3447270  14.3328730   7.0834440
  63.6216210  15.1046780   7.3398400  65.1268520  30.9189010   4.4370280
  64.6671490  31.6704820   4.0628300  64.4980980  30.1995480   4.3785080
  51.9519140  27.0132250   6.8269000  51.2253200  26.3937540   6.7594950
  52.0128290  27.4072860   5.9567080  55.5564240  29.2277250   3.6118410
  56.0729260  28.6164610   3.0866670  56.2061620  29.7306030   4.1029420
  58.2959740  30.1185740   4.4387390  58.5837550  29.8640040   3.5620400
  58.8082960  29.5663100   5.0292960  59.5136750  13.8575940   5.0183900
  58.7308540  14.3321440   5.2980660  59.2199680  12.9530770   4.9097080
  64.0657820  14.5599040   3.0632990  64.5065910  14.5044140   2.2154590
  63.7965410  15.4757050   3.1343170  61.9015950  12.9405140   1.7683000
  62.5045320  13.5125350   2.2431520  61.1608940  13.5044580   1.5456900
  58.3632100  31.0401840  11.8055590  59.2899410  30.8046110  11.8491550
  58.3482530  31.8673840  11.3241620  55.5495710  13.7046590  11.5697470
  55.2679980  14.2080190  10.8058290  55.9315410  12.9068340  11.2039600
  62.1511170  13.1200170  12.1477940  62.0376620  13.4394780  13.0429460
  62.9680910  13.5212680  11.8515220  64.9309660  30.2671700  11.6296630
  65.7234980  29.7720930  11.4222590  65.2242810  30.9461840  12.2372240
  59.1887360   4.1428170 153.3613360  58.4129460   3.6628610 153.6511930
  59.8400290   3.4633820 153.1869520  63.2094790   8.5488360 152.1412490
  62.7476320   7.7775600 152.4699660  64.0220340   8.5754430 152.6464940
  53.1854450   8.4888070 154.4347140  53.4882490   7.5985810 154.2557360
  53.9298040   9.0458290 154.2069390  59.4358100  10.8346370 151.7616480
  58.8169540  11.2903870 151.1910920  60.2909880  10.9897830 151.3606180
  58.6296350   6.8185360 153.3683520  58.5604630   5.8775300 153.2072650
  59.3916210   6.9086770 153.9406090  60.3021450   5.7185610 149.1548390
  59.6838720   6.1835060 148.5911110  60.8144700   6.4113090 149.5717900
  49.6704650   6.4042140 146.5288020  49.2932630   6.8929240 145.7972920
  49.9277720   7.0767420 147.1594550  62.8308640  10.5225820 154.2780990
  62.8435800  10.1188110 153.4103250  62.2783860  11.2973110 154.1742420
  64.1254060   7.2442040 149.3671160  64.0150390   6.3016370 149.4920580
  64.1222310   7.6057680 150.2533920  59.6674340   2.8707360 148.7233650
  58.7403620   2.8044740 148.9522120  59.8199160   3.8087490 148.6088890
  63.6971630   4.4327660 149.2268900  63.0784050   4.0947210 148.5795200
  63.6796080   3.7887420 149.9348090  55.2730980   3.3972100 151.5053380
  54.8687980   2.6849350 151.0099280  55.3594100   3.0525340 152.3941420
  55.7412680   7.0839660 153.6692590  55.4440970   6.4785130 152.9900370
  56.6912500   7.1216970 153.5581950  61.8736330   3.6714470 146.2341650
  62.3129610   2.8336900 146.0879470  62.5864750   4.3043870 146.3205790
  59.9831710   8.6110540 150.2022890  60.4227620   9.3534870 149.7878280
  59.9218600   8.8537110 151.1261850  50.8568610   7.1632410 151.2234850
  50.4496690   7.3047000 150.3688450  51.7481620   6.8792570 151.0206060
  62.6501890  11.5979660 147.5585900  62.4903030  11.3082600 148.4567730
  62.4848600  10.8219790 147.0231130  55.1290270  11.3778190 149.3357520
  54.9532750  10.4613730 149.1225320  54.2746010  11.7365480 149.5755320
  62.3528020   9.1067220 146.1183900  61.6593180   9.1044510 145.4586180
  63.0950880   8.6826540 145.6878070  61.9177950  10.7329930 150.1932390
  62.3734900   9.9519310 150.5071010  62.2570470  11.4436750 150.7373570
  53.7097780   5.9743990 147.9078620  52.9360040   5.4341610 147.7477340
  54.4392410   5.4550600 147.5696380  64.4685760   4.9709350 153.7005010
  65.1884880   5.4664640 153.3101120  64.2667580   4.2927240 153.0558880
  53.7535180   5.6424370 151.5457430  54.2713850   4.8392630 151.4914320
  53.3019200   5.5803510 152.3874260  58.6404680   6.9090650 146.8184730
  58.9820380   7.6532880 146.3228050  57.8117390   7.2221770 147.1809560
  64.9158360   2.0478800 145.6076420  64.8322080   2.4793020 144.7572860
  65.6352550   2.5077150 146.0403240  65.9445610   8.9021060 148.3358550
  65.3021770   8.2476680 148.6102270  65.5576270   9.3076150 147.5599220
  61.5232090   6.2306490 152.1830240  61.8755910   5.6334620 151.5231610
  60.6394420   5.9050720 152.3538490  57.6095370   6.9904180 149.5900650
  58.2966500   7.5373390 149.9708240  56.8227790   7.5344910 149.6250260
  49.7487770   2.6077000 145.0817730  50.6182620   2.8901800 145.3653650
  49.2578090   3.4212870 144.9666540  56.9122580   3.9950210 149.2026010
  57.3685360   4.8055460 149.4286200  56.5610790   3.6773350 150.0344500
  64.3342990   7.7937520 144.8734900  64.1080570   7.0767960 145.4659540
  63.9439190   7.5449960 144.0356650  50.1159020  11.8204380 145.6479360
  50.4756660  12.4193720 144.9936630  49.9751360  12.3664270 146.4214390
  63.9159240   5.7109460 146.5349060  63.6280940   6.1722150 147.3226940
  64.7111410   5.2507230 146.8033280  56.1327640   9.2035580 146.4653030
  56.1237740   9.9365270 145.8497540  55.2126000   8.9567160 146.5579990
  51.7334280   4.4250470 147.2099790  51.1262230   5.1649370 147.2195090
  52.2083630   4.5149830 146.3837990  59.1187240   9.2663820 145.1278220
  59.2199220   9.0627810 144.1980200  58.2188980   9.0122100 145.3326000
  57.7605350  11.7850140 149.8225890  58.0146850  11.7471530 148.9005260
  56.8117830  11.6583470 149.8154140  63.7657930   2.7042020 151.3984400
  62.8248070   2.7192250 151.5732090  64.0802000   1.9177980 151.8444700
  53.7439570   4.3861620 144.9588360  54.5102840   4.2742980 145.5213790
  53.8214260   3.6899590 144.3065130  65.7683510   9.8750870 153.0738660
  65.8930930  10.6982040 153.5462470  66.6349070   9.6641600 152.7262810
  53.2401040  11.9682080 152.7455790  53.9763520  11.4197540 153.0164360
  53.6241960  12.8338090 152.6061780  50.1246520   8.0355650 148.6197300
  49.1986300   8.2776790 148.6102710  50.5902950   8.8629910 148.4982050
  56.3503350  11.1412390 144.5681360  57.1431960  11.4301220 144.1163150
  55.8307700  10.7104560 143.8893840  65.4033520  10.3682520 145.9918100
  65.1175030   9.9547660 145.1772280  65.2053070  11.2970230 145.8718620
  56.8680750   6.3615800 144.4323710  56.7631390   5.7468150 145.1585090
  56.7004970   5.8381690 143.6486720  60.1083480   5.4235830 145.0365700
  59.5593580   5.8705130 145.6808440  60.7302740   4.9185080 145.5603370
  55.7758600   4.3826750 146.9331000  56.1975020   4.2166620 147.7762390
  55.9009440   3.5726980 146.4386140  58.2886240   3.4064360 144.1808100
  58.8091900   2.6913380 143.8149250  58.9354640   4.0450230 144.4808610
  58.8534270  11.4875970 146.4709840  59.7485060  11.8260940 146.4928600
  58.8851900  10.7655380 145.8434120  52.4930430   6.8603020 144.6996840
  52.9305300   7.4032690 145.3554420  52.9778160   6.0349970 144.7093180
  49.7076230   9.6492050 152.1517100  50.0379240   8.7813110 151.9195740
  50.1367230   9.8550570 152.9822060  54.3038150   7.9801060 149.8119070
  54.0033690   7.8566030 150.7122980  54.1975640   7.1209650 149.4034800
  67.0730070   7.7597460 144.5145750  66.2423030   7.8274110 144.9852980
  67.2501900   8.6501580 144.2112610  66.5286530   4.5044940 147.0179950
  67.2905440   5.0741590 147.1239640  66.5440900   3.9372140 147.7888260
  50.0290870   3.0282870 151.2487610  49.3739710   2.7594510 150.6047310
  50.8668820   2.9187350 150.7989590  67.5346500   5.3595040 151.8621880
  67.9055330   4.5762360 151.4557850  68.1748430   6.0484140 151.6839180
  66.5805700   4.7979310 144.1752470  66.8554540   5.7058190 144.0471690
  66.3916440   4.7341840 145.1114460  66.4771040   2.7348300 149.1681900
  66.1014640   1.9676230 148.7363190  65.7474160   3.1171000 149.6556830
  64.5756310  11.4950220 150.8020470  65.1715380  11.1734790 150.1254890
  64.8334460  11.0222040 151.5933740  55.5564240  10.4533760 153.8066330
  56.0729260   9.8421120 153.2814590  56.2061620  10.9562540 154.2977340
  50.2349140  11.5563150 150.2313680  50.0671180  10.9233830 150.9295570
  49.3683650  11.7622550 149.8807870  51.8411840  10.2496380 147.6763820
  51.3159460  10.6304410 146.9725780  51.7656420  10.8747150 148.3973530
  66.5977160  11.8083920 148.9977760  66.7729350  11.1221660 148.3538680
  65.8998730  12.3330970 148.6054430  54.4404810  12.1978760 146.5513070
  55.1723630  11.9138040 146.0036960  54.6998480  11.9592040 147.4412450
  53.6019600   8.3143490 146.5559400  52.9728480   8.7828590 147.1045230
  53.7167430   7.4692710 146.9905590  59.1887360   4.1428170 134.5869870
  58.4129460   3.6628610 134.8768440  59.8400290   3.4633820 134.4126030
  53.2053190   4.4547980 135.4645630  52.3738070   4.1996690 135.8642140
  53.8134170   4.5258750 136.2003550  63.2094790   8.5488360 133.3669000
  62.7476320   7.7775600 133.6956170  64.0220340   8.5754430 133.8721450
  53.1854450   8.4888070 135.6603650  53.4882490   7.5985810 135.4813870
  53.9298040   9.0458290 135.4325900  59.4358100  10.8346370 132.9872990
  58.8169540  11.2903870 132.4167430  60.2909880  10.9897830 132.5862690
  58.6296350   6.8185360 134.5940030  58.5604630   5.8775300 134.4329160
  59.3916210   6.9086770 135.1662600  60.3021450   5.7185610 130.3804900
  59.6838720   6.1835060 129.8167620  60.8144700   6.4113090 130.7974410
  55.1653210   5.2461480 137.0588500  54.8322590   5.8730400 137.7009570
  55.3419890   5.7723360 136.2790170  54.3772310   7.2142280 138.8737680
  54.9946310   7.8893360 138.5922130  53.5165430   7.6230260 138.7825180
  49.6704650   6.4042140 127.7544530  49.2932630   6.8929240 127.0229430
  49.9277720   7.0767420 128.3851060  65.2949900   8.6781690 136.7892320
  64.6113420   9.3480800 136.7808990  65.8344190   8.8762340 136.0237180
  62.8308640  10.5225820 135.5037500  62.8435800  10.1188110 134.6359760
  62.2783860  11.2973110 135.3998930  64.1254060   7.2442040 130.5927670
  64.0150390   6.3016370 130.7177090  64.1222310   7.6057680 131.4790430
  62.2294080   5.4255660 136.8320110  62.6462870   5.2115770 135.9973570
  62.9533900   5.6828450 137.4028730  59.6674340   2.8707360 129.9490160
  58.7403620   2.8044740 130.1778630  59.8199160   3.8087490 129.8345400
  66.1756180   3.8242880 136.9236350  65.3474810   3.8935970 136.4486480
  66.7706660   4.4097190 136.4552180  63.6971630   4.4327660 130.4525410
  63.0784050   4.0947210 129.8051710  63.6796080   3.7887420 131.1604600
  55.2730980   3.3972100 132.7309890  54.8687980   2.6849350 132.2355790
  55.3594100   3.0525340 133.6197930  55.7412680   7.0839660 134.8949100
  55.4440970   6.4785130 134.2156880  56.6912500   7.1216970 134.7838460
  63.8298290  10.6571530 138.5572200  63.3528850  11.4643720 138.3644810
  63.1460080  10.0049860 138.7098410  54.8331110   6.8221350 141.5456900
  53.9359640   7.0461320 141.7930300  54.8583980   6.9456290 140.5968300
  61.8736330   3.6714470 127.4598160  62.3129610   2.8336900 127.3135980
  62.5864750   4.3043870 127.5462300  53.6602330   3.6934670 140.1214270
  53.5210100   4.5657470 140.4901670  52.7783690   3.3507480 139.9762210
  59.9831710   8.6110540 131.4279400  60.4227620   9.3534870 131.0134790
  59.9218600   8.8537110 132.3518360  55.4582680   9.6356370 142.3299420
  55.4298110  10.0399320 141.4627850  55.2947650   8.7066730 142.1671020
  67.4097500  10.4183470 143.6263590  67.8857220  10.8966360 144.3052670
  68.0304660  10.3500960 142.9009090  49.6120980   5.4632220 136.0385180
  49.6901400   5.5980990 135.0940900  50.2262660   4.7548110 136.2313300
  50.8568610   7.1632410 132.4491360  50.4496690   7.3047000 131.5944960
  51.7481620   6.8792570 132.2462570  66.8130750   7.6096320 140.7863600
  66.9393810   7.3708200 139.8680780  66.8552130   6.7780860 141.2585680
  60.6747490  11.3124320 139.3558410  61.1892160  11.2232330 140.1580840
  59.8316570  11.6584020 139.6486320  62.6501890  11.5979660 128.7842410
  62.4903030  11.3082600 129.6824240  62.4848600  10.8219790 128.2487640
  55.1290270  11.3778190 130.5614030  54.9532750  10.4613730 130.3481830
  54.2746010  11.7365480 130.8011830  62.3528020   9.1067220 127.3440410
  61.6593180   9.1044510 126.6842690  63.0950880   8.6826540 126.9134580
  61.9177950  10.7329930 131.4188900  62.3734900   9.9519310 131.7327520
  62.2570470  11.4436750 131.9630080  49.6680500   6.5046390 138.5779640
  49.8311540   6.0351750 137.7599010  50.1332950   5.9969950 139.2428480
  51.2419480   5.8797820 140.7375450  50.8574270   5.2391490 141.3358410
  51.5531670   6.5833940 141.3070180  57.3916620   2.7274360 136.2184070
  57.7586750   2.2532930 136.9645410  57.2021680   3.6015930 136.5592410
  55.1815990   1.7683000 138.5368280  54.8773060   2.6474980 138.7618640
  56.1362450   1.8282790 138.5725720  53.7097780   5.9743990 129.1335130
  52.9360040   5.4341610 128.9733850  54.4392410   5.4550600 128.7952890
  64.4685760   4.9709350 134.9261520  65.1884880   5.4664640 134.5357630
  64.2667580   4.2927240 134.2815390  59.8504560   5.0418410 140.8130520
  59.7841870   4.1214080 140.5588110  59.2209700   5.1393850 141.5275160
  53.7535180   5.6424370 132.7713940  54.2713850   4.8392630 132.7170830
  53.3019200   5.5803510 133.6130770  58.6404680   6.9090650 128.0441240
  58.9820380   7.6532880 127.5484560  57.8117390   7.2221770 128.4066070
  51.2379720   2.6085740 139.6839640  50.8794660   3.2739590 140.2712980
  50.9434280   1.7769290 140.0552260  54.4392840   3.0669980 142.5679190
  54.1392980   3.2127160 141.6707010  55.2104080   2.5075270 142.4752580
  59.7821290   7.8638980 140.5634320  59.7965830   6.9319940 140.3453230
  59.0746390   7.9498740 141.2024090  64.9158360   2.0478800 126.8332930
  64.8322080   2.4793020 125.9829370  65.6352550   2.5077150 127.2659750
  65.9932500   4.5046320 139.9102900  65.2680690   5.0975100 139.7132290
  66.5207960   4.4969860 139.1116270  65.9445610   8.9021060 129.5615060
  65.3021770   8.2476680 129.8358780  65.5576270   9.3076150 128.7855730
  61.5232090   6.2306490 133.4086750  61.8755910   5.6334620 132.7488120
  60.6394420   5.9050720 133.5795000  57.6095370   6.9904180 130.8157160
  58.2966500   7.5373390 131.1964750  56.8227790   7.5344910 130.8506770
  49.7487770   2.6077000 126.3074240  50.6182620   2.8901800 126.5910160
  49.2578090   3.4212870 126.1923050  56.9122580   3.9950210 130.4282520
  57.3685360   4.8055460 130.6542710  56.5610790   3.6773350 131.2601010
  59.2155190   9.5056550 137.6574820  59.8597410   9.7115930 138.3348240
  59.5784630   8.7444950 137.2045670  60.4887270   7.5088900 136.3752270
  61.1309500   6.8082060 136.4884440  61.0136620   8.2887340 136.1949160
  64.3342990   7.7937520 126.0991410  64.1080570   7.0767960 126.6916050
  63.9439190   7.5449960 125.2613160  62.2624890   8.3083800 139.5788330
  62.5981130   8.8950490 140.2566250  61.3425230   8.1776510 139.8086120
  50.1159020  11.8204380 126.8735870  50.4756660  12.4193720 126.2193140
  49.9751360  12.3664270 127.6470900  63.9159240   5.7109460 127.7605570
  63.6280940   6.1722150 128.5483450  64.7111410   5.2507230 128.0289790
  50.1000880  10.0859240 141.3478270  50.2092000   9.1453980 141.2073660
  49.4481440  10.3513990 140.6992000  58.0913470   8.3575130 142.7476390
  57.7710340   7.6384370 143.2922080  57.4171830   9.0330200 142.8212450
  56.1327640   9.2035580 127.6909540  56.1237740   9.9365270 127.0754050
  55.2126000   8.9567160 127.7836500  51.7334280   4.4250470 128.4356300
  51.1262230   5.1649370 128.4451600  52.2083630   4.5149830 127.6094500
  59.1187240   9.2663820 126.3534730  59.2199220   9.0627810 125.4236710
  58.2188980   9.0122100 126.5582510  57.7605350  11.7850140 131.0482400
  58.0146850  11.7471530 130.1261770  56.8117830  11.6583470 131.0410650
  63.7657930   2.7042020 132.6240910  62.8248070   2.7192250 132.7988600
  64.0802000   1.9177980 133.0701210  53.7439570   4.3861620 126.1844870
  54.5102840   4.2742980 126.7470300  53.8214260   3.6899590 125.5321640
  65.7683510   9.8750870 134.2995170  65.8930930  10.6982040 134.7718980
  66.6349070   9.6641600 133.9519320  53.2401040  11.9682080 133.9712300
  53.9763520  11.4197540 134.2420870  53.6241960  12.8338090 133.8318290
  50.1246520   8.0355650 129.8453810  49.1986300   8.2776790 129.8359220
  50.5902950   8.8629910 129.7238560  52.2459320  11.1528150 143.1597880
  53.0472050  11.4740200 143.5733280  51.7311140  10.7923730 143.8817790
  56.3503350  11.1412390 125.7937870  57.1431960  11.4301220 125.3419660
  55.8307700  10.7104560 125.1150350  61.0823950   7.2608020 143.1073290
  60.4762110   7.2839620 142.3669040  60.7778060   6.5291060 143.6440540
  62.5124320  10.9888310 141.7182700  63.4646070  10.9046330 141.6682940
  62.3652540  11.6530020 142.3916490  65.4033520  10.3682520 127.2174610
  65.1175030   9.9547660 126.4028790  65.2053070  11.2970230 127.0975130
  49.9657130   3.6401610 142.1033930  50.4696150   3.0608890 142.6750160
  49.2264550   3.9241840 142.6410300  56.8680750   6.3615800 125.6580220
  56.7631390   5.7468150 126.3841600  56.7004970   5.8381690 124.8743230
  57.0195070   5.0472600 141.6369450  56.2540740   5.6157600 141.5524120
  57.2011030   4.7548810 140.7437680  60.1083480   5.4235830 126.2622210
  59.5593580   5.8705130 126.9064950  60.7302740   4.9185080 126.7859880
  64.1618420   6.7777930 142.1944470  64.9027890   7.1153690 141.6911930
  63.3991100   6.9469990 141.6414240  55.7758600   4.3826750 128.1587510
  56.1975020   4.2166620 129.0018900  55.9009440   3.5726980 127.6642650
  58.2886240   3.4064360 125.4064610  58.8091900   2.6913380 125.0405760
  58.9354640   4.0450230 125.7065120  62.8364080   4.8292760 140.7299680
  63.2505100   4.9837840 141.5790100  61.9015080   4.9547980 140.8925460
  57.5979310   4.7813240 138.6995610  58.0167420   5.6245970 138.5271850
  56.6787940   4.9185280 138.4702390  59.9343210   2.5129420 140.0833450
  60.0539420   1.9170560 140.8228290  60.7937210   2.5499110 139.6634750
  62.2731110   3.0666610 138.6595960  61.7466330   3.5909230 138.0561100
  62.6162450   3.6994000 139.2905690  55.4486730  11.0866250 139.8153340
  54.9107820  11.8112310 139.4962040  55.7020690  10.6096590 139.0250680
  58.3048940  12.3217460 140.0739990  58.2307640  13.2252600 140.3812360
  57.4027780  12.0029360 140.0462060  58.8534270  11.4875970 127.6966350
  59.7485060  11.8260940 127.7185110  58.8851900  10.7655380 127.0690630
  52.4930430   6.8603020 125.9253350  52.9305300   7.4032690 126.5810930
  52.9778160   6.0349970 125.9349690  49.7076230   9.6492050 133.3773610
  50.0379240   8.7813110 133.1452250  50.1367230   9.8550570 134.2078570
  54.3038150   7.9801060 131.0375580  54.0033690   7.8566030 131.9379490
  54.1975640   7.1209650 130.6291310  50.1966440  10.5162640 136.1155240
  49.7597430  10.6963440 136.9479390  50.7644120  11.2737260 135.9736960
  65.8328620  10.0179640 140.4032550  65.2330610  10.0772200 139.6596470
  65.9622520   9.0784620 140.5329400  67.0730070   7.7597460 125.7402260
  66.2423030   7.8274110 126.2109490  67.2501900   8.6501580 125.4369120
  66.5286530   4.5044940 128.2436460  67.2905440   5.0741590 128.3496150
  66.5440900   3.9372140 129.0144770  50.0290870   3.0282870 132.4744120
  49.3739710   2.7594510 131.8303820  50.8668820   2.9187350 132.0246100
  67.5346500   5.3595040 133.0878390  67.9055330   4.5762360 132.6814360
  68.1748430   6.0484140 132.9095690  64.5180260   6.7431620 138.5008710
  63.7040100   7.1728780 138.7634500  64.9254460   7.3550030 137.8877760
  66.5805700   4.7979310 125.4008980  66.8554540   5.7058190 125.2728200
  66.3916440   4.7341840 126.3370970  66.4771040   2.7348300 130.3938410
  66.1014640   1.9676230 129.9619700  65.7474160   3.1171000 130.8813340
  51.0666800   3.4135440 137.0147460  51.4339840   3.3262840 137.8943480
  50.4977620   2.6501990 136.9154320  65.8670660   1.8819820 140.0277930
  65.6356750   1.6532570 139.1275880  66.1275210   2.8019370 139.9822820
  64.5756310  11.4950220 132.0276980  65.1715380  11.1734790 131.3511400
  64.8334460  11.0222040 132.8190250  52.4818880   7.9268130 142.1767610
  52.4388510   7.5561040 143.0582070  52.6129890   8.8645700 142.3169430
  56.1824910   9.4827720 137.7777330  55.9416270   9.7502280 136.8907850
  57.1227550   9.6533450 137.8328190  67.4429070  11.5022100 138.5787970
  66.9487350  11.8990970 137.8615100  66.8342360  10.8771310 138.9725250
  52.3206910  10.8730380 139.2965390  51.7267230  10.7415080 140.0355430
  52.3130750  10.0368520 138.8307490  65.1268520  12.1445520 135.8574710
  64.6671490  12.8961330 135.4832730  64.4980980  11.4251990 135.7989510
  51.9519140   8.2388760 138.2473430  51.2253200   7.6194050 138.1799380
  52.0128290   8.6329370 137.3771510  55.5564240  10.4533760 135.0322840
  56.0729260   9.8421120 134.5071100  56.2061620  10.9562540 135.5233850
  58.2959740  11.3442250 135.8591820  58.5837550  11.0896550 134.9824830
  58.8082960  10.7919610 136.4497390  50.2349140  11.5563150 131.4570190
  50.0671180  10.9233830 132.1552080  49.3683650  11.7622550 131.1064380
  51.8411840  10.2496380 128.9020330  51.3159460  10.6304410 128.1982290
  51.7656420  10.8747150 129.6230040  58.3632100  12.2658350 143.2260020
  59.2899410  12.0302620 143.2695980  58.3482530  13.0930350 142.7446050
  66.5977160  11.8083920 130.2234270  66.7729350  11.1221660 129.5795190
  65.8998730  12.3330970 129.8310940  54.4404810  12.1978760 127.7769580
  55.1723630  11.9138040 127.2293470  54.6998480  11.9592040 128.6668960
  53.6019600   8.3143490 127.7815910  52.9728480   8.7828590 128.3301740
  53.7167430   7.4692710 128.2162100  64.9309660  11.4928210 143.0501060
  65.7234980  10.9977440 142.8427020  65.2242810  12.1718350 143.6576670
  59.1887360   4.1428170 115.8126380  58.4129460   3.6628610 116.1024950
  59.8400290   3.4633820 115.6382540  53.2053190   4.4547980 116.6902140
  52.3738070   4.1996690 117.0898650  53.8134170   4.5258750 117.4260060
  63.2094790   8.5488360 114.5925510  62.7476320   7.7775600 114.9212680
  64.0220340   8.5754430 115.0977960  53.1854450   8.4888070 116.8860160
  53.4882490   7.5985810 116.7070380  53.9298040   9.0458290 116.6582410
  59.4358100  10.8346370 114.2129500  58.8169540  11.2903870 113.6423940
  60.2909880  10.9897830 113.8119200  58.6296350   6.8185360 115.8196540
  58.5604630   5.8775300 115.6585670  59.3916210   6.9086770 116.3919110
  60.3021450   5.7185610 111.6061410  59.6838720   6.1835060 111.0424130
  60.8144700   6.4113090 112.0230920  55.1653210   5.2461480 118.2845010
  54.8322590   5.8730400 118.9266080  55.3419890   5.7723360 117.5046680
  54.3772310   7.2142280 120.0994190  54.9946310   7.8893360 119.8178640
  53.5165430   7.6230260 120.0081690  49.6704650   6.4042140 108.9801040
  49.2932630   6.8929240 108.2485940  49.9277720   7.0767420 109.6107570
  65.2949900   8.6781690 118.0148830  64.6113420   9.3480800 118.0065500
  65.8344190   8.8762340 117.2493690  62.8308640  10.5225820 116.7294010
  62.8435800  10.1188110 115.8616270  62.2783860  11.2973110 116.6255440
  64.1254060   7.2442040 111.8184180  64.0150390   6.3016370 111.9433600
  64.1222310   7.6057680 112.7046940  62.2294080   5.4255660 118.0576620
  62.6462870   5.2115770 117.2230080  62.9533900   5.6828450 118.6285240
  59.6674340   2.8707360 111.1746670  58.7403620   2.8044740 111.4035140
  59.8199160   3.8087490 111.0601910  66.1756180   3.8242880 118.1492860
  65.3474810   3.8935970 117.6742990  66.7706660   4.4097190 117.6808690
  63.6971630   4.4327660 111.6781920  63.0784050   4.0947210 111.0308220
  63.6796080   3.7887420 112.3861110  55.2730980   3.3972100 113.9566400
  54.8687980   2.6849350 113.4612300  55.3594100   3.0525340 114.8454440
  55.7412680   7.0839660 116.1205610  55.4440970   6.4785130 115.4413390
  56.6912500   7.1216970 116.0094970  63.8298290  10.6571530 119.7828710
  63.3528850  11.4643720 119.5901320  63.1460080  10.0049860 119.9354920
  54.8331110   6.8221350 122.7713410  53.9359640   7.0461320 123.0186810
  54.8583980   6.9456290 121.8224810  61.8736330   3.6714470 108.6854670
  62.3129610   2.8336900 108.5392490  62.5864750   4.3043870 108.7718810
  53.6602330   3.6934670 121.3470780  53.5210100   4.5657470 121.7158180
  52.7783690   3.3507480 121.2018720  59.9831710   8.6110540 112.6535910
  60.4227620   9.3534870 112.2391300  59.9218600   8.8537110 113.5774870
  55.4582680   9.6356370 123.5555930  55.4298110  10.0399320 122.6884360
  55.2947650   8.7066730 123.3927530  67.4097500  10.4183470 124.8520100
  67.8857220  10.8966360 125.5309180  68.0304660  10.3500960 124.1265600
  49.6120980   5.4632220 117.2641690  49.6901400   5.5980990 116.3197410
  50.2262660   4.7548110 117.4569810  50.8568610   7.1632410 113.6747870
  50.4496690   7.3047000 112.8201470  51.7481620   6.8792570 113.4719080
  66.8130750   7.6096320 122.0120110  66.9393810   7.3708200 121.0937290
  66.8552130   6.7780860 122.4842190  60.6747490  11.3124320 120.5814920
  61.1892160  11.2232330 121.3837350  59.8316570  11.6584020 120.8742830
  62.6501890  11.5979660 110.0098920  62.4903030  11.3082600 110.9080750
  62.4848600  10.8219790 109.4744150  55.1290270  11.3778190 111.7870540
  54.9532750  10.4613730 111.5738340  54.2746010  11.7365480 112.0268340
  62.3528020   9.1067220 108.5696920  61.6593180   9.1044510 107.9099200
  63.0950880   8.6826540 108.1391090  61.9177950  10.7329930 112.6445410
  62.3734900   9.9519310 112.9584030  62.2570470  11.4436750 113.1886590
  49.6680500   6.5046390 119.8036150  49.8311540   6.0351750 118.9855520
  50.1332950   5.9969950 120.4684990  51.2419480   5.8797820 121.9631960
  50.8574270   5.2391490 122.5614920  51.5531670   6.5833940 122.5326690
  57.3916620   2.7274360 117.4440580  57.7586750   2.2532930 118.1901920
  57.2021680   3.6015930 117.7848920  55.1815990   1.7683000 119.7624790
  54.8773060   2.6474980 119.9875150  56.1362450   1.8282790 119.7982230
  53.7097780   5.9743990 110.3591640  52.9360040   5.4341610 110.1990360
  54.4392410   5.4550600 110.0209400  64.4685760   4.9709350 116.1518030
  65.1884880   5.4664640 115.7614140  64.2667580   4.2927240 115.5071900
  59.8504560   5.0418410 122.0387030  59.7841870   4.1214080 121.7844620
  59.2209700   5.1393850 122.7531670  53.7535180   5.6424370 113.9970450
  54.2713850   4.8392630 113.9427340  53.3019200   5.5803510 114.8387280
  58.6404680   6.9090650 109.2697750  58.9820380   7.6532880 108.7741070
  57.8117390   7.2221770 109.6322580  51.2379720   2.6085740 120.9096150
  50.8794660   3.2739590 121.4969490  50.9434280   1.7769290 121.2808770
  54.4392840   3.0669980 123.7935700  54.1392980   3.2127160 122.8963520
  55.2104080   2.5075270 123.7009090  59.7821290   7.8638980 121.7890830
  59.7965830   6.9319940 121.5709740  59.0746390   7.9498740 122.4280600
  64.9158360   2.0478800 108.0589440  64.8322080   2.4793020 107.2085880
  65.6352550   2.5077150 108.4916260  65.9932500   4.5046320 121.1359410
  65.2680690   5.0975100 120.9388800  66.5207960   4.4969860 120.3372780
  65.9445610   8.9021060 110.7871570  65.3021770   8.2476680 111.0615290
  65.5576270   9.3076150 110.0112240  61.5232090   6.2306490 114.6343260
  61.8755910   5.6334620 113.9744630  60.6394420   5.9050720 114.8051510
  57.6095370   6.9904180 112.0413670  58.2966500   7.5373390 112.4221260
  56.8227790   7.5344910 112.0763280  49.7487770   2.6077000 107.5330750
  50.6182620   2.8901800 107.8166670  49.2578090   3.4212870 107.4179560
  56.9122580   3.9950210 111.6539030  57.3685360   4.8055460 111.8799220
  56.5610790   3.6773350 112.4857520  59.2155190   9.5056550 118.8831330
  59.8597410   9.7115930 119.5604750  59.5784630   8.7444950 118.4302180
  60.4887270   7.5088900 117.6008780  61.1309500   6.8082060 117.7140950
  61.0136620   8.2887340 117.4205670  64.3342990   7.7937520 107.3247920
  64.1080570   7.0767960 107.9172560  63.9439190   7.5449960 106.4869670
  62.2624890   8.3083800 120.8044840  62.5981130   8.8950490 121.4822760
  61.3425230   8.1776510 121.0342630  50.1159020  11.8204380 108.0992380
  50.4756660  12.4193720 107.4449650  49.9751360  12.3664270 108.8727410
  63.9159240   5.7109460 108.9862080  63.6280940   6.1722150 109.7739960
  64.7111410   5.2507230 109.2546300  50.1000880  10.0859240 122.5734780
  50.2092000   9.1453980 122.4330170  49.4481440  10.3513990 121.9248510
  58.0913470   8.3575130 123.9732900  57.7710340   7.6384370 124.5178590
  57.4171830   9.0330200 124.0468960  56.1327640   9.2035580 108.9166050
  56.1237740   9.9365270 108.3010560  55.2126000   8.9567160 109.0093010
  51.7334280   4.4250470 109.6612810  51.1262230   5.1649370 109.6708110
  52.2083630   4.5149830 108.8351010  59.1187240   9.2663820 107.5791240
  59.2199220   9.0627810 106.6493220  58.2188980   9.0122100 107.7839020
  57.7605350  11.7850140 112.2738910  58.0146850  11.7471530 111.3518280
  56.8117830  11.6583470 112.2667160  63.7657930   2.7042020 113.8497420
  62.8248070   2.7192250 114.0245110  64.0802000   1.9177980 114.2957720
  53.7439570   4.3861620 107.4101380  54.5102840   4.2742980 107.9726810
  53.8214260   3.6899590 106.7578150  65.7683510   9.8750870 115.5251680
  65.8930930  10.6982040 115.9975490  66.6349070   9.6641600 115.1775830
  53.2401040  11.9682080 115.1968810  53.9763520  11.4197540 115.4677380
  53.6241960  12.8338090 115.0574800  50.1246520   8.0355650 111.0710320
  49.1986300   8.2776790 111.0615730  50.5902950   8.8629910 110.9495070
  52.2459320  11.1528150 124.3854390  53.0472050  11.4740200 124.7989790
  51.7311140  10.7923730 125.1074300  56.3503350  11.1412390 107.0194380
  57.1431960  11.4301220 106.5676170  55.8307700  10.7104560 106.3406860
  61.0823950   7.2608020 124.3329800  60.4762110   7.2839620 123.5925550
  60.7778060   6.5291060 124.8697050  62.5124320  10.9888310 122.9439210
  63.4646070  10.9046330 122.8939450  62.3652540  11.6530020 123.6173000
  65.4033520  10.3682520 108.4431120  65.1175030   9.9547660 107.6285300
  65.2053070  11.2970230 108.3231640  49.9657130   3.6401610 123.3290440
  50.4696150   3.0608890 123.9006670  49.2264550   3.9241840 123.8666810
  56.8680750   6.3615800 106.8836730  56.7631390   5.7468150 107.6098110
  56.7004970   5.8381690 106.0999740  57.0195070   5.0472600 122.8625960
  56.2540740   5.6157600 122.7780630  57.2011030   4.7548810 121.9694190
  60.1083480   5.4235830 107.4878720  59.5593580   5.8705130 108.1321460
  60.7302740   4.9185080 108.0116390  64.1618420   6.7777930 123.4200980
  64.9027890   7.1153690 122.9168440  63.3991100   6.9469990 122.8670750
  55.7758600   4.3826750 109.3844020  56.1975020   4.2166620 110.2275410
  55.9009440   3.5726980 108.8899160  58.2886240   3.4064360 106.6321120
  58.8091900   2.6913380 106.2662270  58.9354640   4.0450230 106.9321630
  62.8364080   4.8292760 121.9556190  63.2505100   4.9837840 122.8046610
  61.9015080   4.9547980 122.1181970  57.5979310   4.7813240 119.9252120
  58.0167420   5.6245970 119.7528360  56.6787940   4.9185280 119.6958900
  59.9343210   2.5129420 121.3089960  60.0539420   1.9170560 122.0484800
  60.7937210   2.5499110 120.8891260  62.2731110   3.0666610 119.8852470
  61.7466330   3.5909230 119.2817610  62.6162450   3.6994000 120.5162200
  55.4486730  11.0866250 121.0409850  54.9107820  11.8112310 120.7218550
  55.7020690  10.6096590 120.2507190  58.3048940  12.3217460 121.2996500
  58.2307640  13.2252600 121.6068870  57.4027780  12.0029360 121.2718570
  58.8534270  11.4875970 108.9222860  59.7485060  11.8260940 108.9441620
  58.8851900  10.7655380 108.2947140  52.4930430   6.8603020 107.1509860
  52.9305300   7.4032690 107.8067440  52.9778160   6.0349970 107.1606200
  49.7076230   9.6492050 114.6030120  50.0379240   8.7813110 114.3708760
  50.1367230   9.8550570 115.4335080  54.3038150   7.9801060 112.2632090
  54.0033690   7.8566030 113.1636000  54.1975640   7.1209650 111.8547820
  50.1966440  10.5162640 117.3411750  49.7597430  10.6963440 118.1735900
  50.7644120  11.2737260 117.1993470  65.8328620  10.0179640 121.6289060
  65.2330610  10.0772200 120.8852980  65.9622520   9.0784620 121.7585910
  67.0730070   7.7597460 106.9658770  66.2423030   7.8274110 107.4366000
  67.2501900   8.6501580 106.6625630  66.5286530   4.5044940 109.4692970
  67.2905440   5.0741590 109.5752660  66.5440900   3.9372140 110.2401280
  50.0290870   3.0282870 113.7000630  49.3739710   2.7594510 113.0560330
  50.8668820   2.9187350 113.2502610  67.5346500   5.3595040 114.3134900
  67.9055330   4.5762360 113.9070870  68.1748430   6.0484140 114.1352200
  64.5180260   6.7431620 119.7265220  63.7040100   7.1728780 119.9891010
  64.9254460   7.3550030 119.1134270  66.5805700   4.7979310 106.6265490
  66.8554540   5.7058190 106.4984710  66.3916440   4.7341840 107.5627480
  66.4771040   2.7348300 111.6194920  66.1014640   1.9676230 111.1876210
  65.7474160   3.1171000 112.1069850  51.0666800   3.4135440 118.2403970
  51.4339840   3.3262840 119.1199990  50.4977620   2.6501990 118.1410830
  65.8670660   1.8819820 121.2534440  65.6356750   1.6532570 120.3532390
  66.1275210   2.8019370 121.2079330  64.5756310  11.4950220 113.2533490
  65.1715380  11.1734790 112.5767910  64.8334460  11.0222040 114.0446760
  52.4818880   7.9268130 123.4024120  52.4388510   7.5561040 124.2838580
  52.6129890   8.8645700 123.5425940  56.1824910   9.4827720 119.0033840
  55.9416270   9.7502280 118.1164360  57.1227550   9.6533450 119.0584700
  67.4429070  11.5022100 119.8044480  66.9487350  11.8990970 119.0871610
  66.8342360  10.8771310 120.1981760  52.3206910  10.8730380 120.5221900
  51.7267230  10.7415080 121.2611940  52.3130750  10.0368520 120.0564000
  65.1268520  12.1445520 117.0831220  64.6671490  12.8961330 116.7089240
  64.4980980  11.4251990 117.0246020  51.9519140   8.2388760 119.4729940
  51.2253200   7.6194050 119.4055890  52.0128290   8.6329370 118.6028020
  55.5564240  10.4533760 116.2579350  56.0729260   9.8421120 115.7327610
  56.2061620  10.9562540 116.7490360  58.2959740  11.3442250 117.0848330
  58.5837550  11.0896550 116.2081340  58.8082960  10.7919610 117.6753900
  50.2349140  11.5563150 112.6826700  50.0671180  10.9233830 113.3808590
  49.3683650  11.7622550 112.3320890  51.8411840  10.2496380 110.1276840
  51.3159460  10.6304410 109.4238800  51.7656420  10.8747150 110.8486550
  58.3632100  12.2658350 124.4516530  59.2899410  12.0302620 124.4952490
  58.3482530  13.0930350 123.9702560  66.5977160  11.8083920 111.4490780
  66.7729350  11.1221660 110.8051700  65.8998730  12.3330970 111.0567450
  54.4404810  12.1978760 109.0026090  55.1723630  11.9138040 108.4549980
  54.6998480  11.9592040 109.8925470  53.6019600   8.3143490 109.0072420
  52.9728480   8.7828590 109.5558250  53.7167430   7.4692710 109.4418610
  64.9309660  11.4928210 124.2757570  65.7234980  10.9977440 124.0683530
  65.2242810  12.1718350 124.8833180  59.1887360   4.1428170  97.0382890
  58.4129460   3.6628610  97.3281460  59.8400290   3.4633820  96.8639050
  53.2053190   4.4547980  97.9158650  52.3738070   4.1996690  98.3155160
  53.8134170   4.5258750  98.6516570  63.2094790   8.5488360  95.8182020
  62.7476320   7.7775600  96.1469190  64.0220340   8.5754430  96.3234470
  53.1854450   8.4888070  98.1116670  53.4882490   7.5985810  97.9326890
  53.9298040   9.0458290  97.8838920  59.4358100  10.8346370  95.4386010
  58.8169540  11.2903870  94.8680450  60.2909880  10.9897830  95.0375710
  58.6296350   6.8185360  97.0453050  58.5604630   5.8775300  96.8842180
  59.3916210   6.9086770  97.6175620  60.3021450   5.7185610  92.8317920
  59.6838720   6.1835060  92.2680640  60.8144700   6.4113090  93.2487430
  55.1653210   5.2461480  99.5101520  54.8322590   5.8730400 100.1522590
  55.3419890   5.7723360  98.7303190  54.3772310   7.2142280 101.3250700
  54.9946310   7.8893360 101.0435150  53.5165430   7.6230260 101.2338200
  49.6704650   6.4042140  90.2057550  49.2932630   6.8929240  89.4742450
  49.9277720   7.0767420  90.8364080  65.2949900   8.6781690  99.2405340
  64.6113420   9.3480800  99.2322010  65.8344190   8.8762340  98.4750200
  62.8308640  10.5225820  97.9550520  62.8435800  10.1188110  97.0872780
  62.2783860  11.2973110  97.8511950  64.1254060   7.2442040  93.0440690
  64.0150390   6.3016370  93.1690110  64.1222310   7.6057680  93.9303450
  62.2294080   5.4255660  99.2833130  62.6462870   5.2115770  98.4486590
  62.9533900   5.6828450  99.8541750  59.6674340   2.8707360  92.4003180
  58.7403620   2.8044740  92.6291650  59.8199160   3.8087490  92.2858420
  66.1756180   3.8242880  99.3749370  65.3474810   3.8935970  98.8999500
  66.7706660   4.4097190  98.9065200  63.6971630   4.4327660  92.9038430
  63.0784050   4.0947210  92.2564730  63.6796080   3.7887420  93.6117620
  55.2730980   3.3972100  95.1822910  54.8687980   2.6849350  94.6868810
  55.3594100   3.0525340  96.0710950  55.7412680   7.0839660  97.3462120
  55.4440970   6.4785130  96.6669900  56.6912500   7.1216970  97.2351480
  63.8298290  10.6571530 101.0085220  63.3528850  11.4643720 100.8157830
  63.1460080  10.0049860 101.1611430  54.8331110   6.8221350 103.9969920
  53.9359640   7.0461320 104.2443320  54.8583980   6.9456290 103.0481320
  61.8736330   3.6714470  89.9111180  62.3129610   2.8336900  89.7649000
  62.5864750   4.3043870  89.9975320  53.6602330   3.6934670 102.5727290
  53.5210100   4.5657470 102.9414690  52.7783690   3.3507480 102.4275230
  59.9831710   8.6110540  93.8792420  60.4227620   9.3534870  93.4647810
  59.9218600   8.8537110  94.8031380  55.4582680   9.6356370 104.7812440
  55.4298110  10.0399320 103.9140870  55.2947650   8.7066730 104.6184040
  67.4097500  10.4183470 106.0776610  67.8857220  10.8966360 106.7565690
  68.0304660  10.3500960 105.3522110  49.6120980   5.4632220  98.4898200
  49.6901400   5.5980990  97.5453920  50.2262660   4.7548110  98.6826320
  50.8568610   7.1632410  94.9004380  50.4496690   7.3047000  94.0457980
  51.7481620   6.8792570  94.6975590  66.8130750   7.6096320 103.2376620
  66.9393810   7.3708200 102.3193800  66.8552130   6.7780860 103.7098700
  60.6747490  11.3124320 101.8071430  61.1892160  11.2232330 102.6093860
  59.8316570  11.6584020 102.0999340  62.6501890  11.5979660  91.2355430
  62.4903030  11.3082600  92.1337260  62.4848600  10.8219790  90.7000660
  55.1290270  11.3778190  93.0127050  54.9532750  10.4613730  92.7994850
  54.2746010  11.7365480  93.2524850  62.3528020   9.1067220  89.7953430
  61.6593180   9.1044510  89.1355710  63.0950880   8.6826540  89.3647600
  61.9177950  10.7329930  93.8701920  62.3734900   9.9519310  94.1840540
  62.2570470  11.4436750  94.4143100  49.6680500   6.5046390 101.0292660
  49.8311540   6.0351750 100.2112030  50.1332950   5.9969950 101.6941500
  51.2419480   5.8797820 103.1888470  50.8574270   5.2391490 103.7871430
  51.5531670   6.5833940 103.7583200  57.3916620   2.7274360  98.6697090
  57.7586750   2.2532930  99.4158430  57.2021680   3.6015930  99.0105430
  55.1815990   1.7683000 100.9881300  54.8773060   2.6474980 101.2131660
  56.1362450   1.8282790 101.0238740  53.7097780   5.9743990  91.5848150
  52.9360040   5.4341610  91.4246870  54.4392410   5.4550600  91.2465910
  64.4685760   4.9709350  97.3774540  65.1884880   5.4664640  96.9870650
  64.2667580   4.2927240  96.7328410  59.8504560   5.0418410 103.2643540
  59.7841870   4.1214080 103.0101130  59.2209700   5.1393850 103.9788180
  53.7535180   5.6424370  95.2226960  54.2713850   4.8392630  95.1683850
  53.3019200   5.5803510  96.0643790  58.6404680   6.9090650  90.4954260
  58.9820380   7.6532880  89.9997580  57.8117390   7.2221770  90.8579090
  51.2379720   2.6085740 102.1352660  50.8794660   3.2739590 102.7226000
  50.9434280   1.7769290 102.5065280  54.4392840   3.0669980 105.0192210
  54.1392980   3.2127160 104.1220030  55.2104080   2.5075270 104.9265600
  59.7821290   7.8638980 103.0147340  59.7965830   6.9319940 102.7966250
  59.0746390   7.9498740 103.6537110  64.9158360   2.0478800  89.2845950
  64.8322080   2.4793020  88.4342390  65.6352550   2.5077150  89.7172770
  65.9932500   4.5046320 102.3615920  65.2680690   5.0975100 102.1645310
  66.5207960   4.4969860 101.5629290  65.9445610   8.9021060  92.0128080
  65.3021770   8.2476680  92.2871800  65.5576270   9.3076150  91.2368750
  61.5232090   6.2306490  95.8599770  61.8755910   5.6334620  95.2001140
  60.6394420   5.9050720  96.0308020  57.6095370   6.9904180  93.2670180
  58.2966500   7.5373390  93.6477770  56.8227790   7.5344910  93.3019790
  49.7487770   2.6077000  88.7587260  50.6182620   2.8901800  89.0423180
  49.2578090   3.4212870  88.6436070  56.9122580   3.9950210  92.8795540
  57.3685360   4.8055460  93.1055730  56.5610790   3.6773350  93.7114030
  59.2155190   9.5056550 100.1087840  59.8597410   9.7115930 100.7861260
  59.5784630   8.7444950  99.6558690  60.4887270   7.5088900  98.8265290
  61.1309500   6.8082060  98.9397460  61.0136620   8.2887340  98.6462180
  64.3342990   7.7937520  88.5504430  64.1080570   7.0767960  89.1429070
  63.9439190   7.5449960  87.7126180  62.2624890   8.3083800 102.0301350
  62.5981130   8.8950490 102.7079270  61.3425230   8.1776510 102.2599140
  50.1159020  11.8204380  89.3248890  50.4756660  12.4193720  88.6706160
  49.9751360  12.3664270  90.0983920  63.9159240   5.7109460  90.2118590
  63.6280940   6.1722150  90.9996470  64.7111410   5.2507230  90.4802810
  50.1000880  10.0859240 103.7991290  50.2092000   9.1453980 103.6586680
  49.4481440  10.3513990 103.1505020  58.0913470   8.3575130 105.1989410
  57.7710340   7.6384370 105.7435100  57.4171830   9.0330200 105.2725470
  56.1327640   9.2035580  90.1422560  56.1237740   9.9365270  89.5267070
  55.2126000   8.9567160  90.2349520  51.7334280   4.4250470  90.8869320
  51.1262230   5.1649370  90.8964620  52.2083630   4.5149830  90.0607520
  59.1187240   9.2663820  88.8047750  59.2199220   9.0627810  87.8749730
  58.2188980   9.0122100  89.0095530  57.7605350  11.7850140  93.4995420
  58.0146850  11.7471530  92.5774790  56.8117830  11.6583470  93.4923670
  63.7657930   2.7042020  95.0753930  62.8248070   2.7192250  95.2501620
  64.0802000   1.9177980  95.5214230  53.7439570   4.3861620  88.6357890
  54.5102840   4.2742980  89.1983320  53.8214260   3.6899590  87.9834660
  65.7683510   9.8750870  96.7508190  65.8930930  10.6982040  97.2232000
  66.6349070   9.6641600  96.4032340  53.2401040  11.9682080  96.4225320
  53.9763520  11.4197540  96.6933890  53.6241960  12.8338090  96.2831310
  50.1246520   8.0355650  92.2966830  49.1986300   8.2776790  92.2872240
  50.5902950   8.8629910  92.1751580  52.2459320  11.1528150 105.6110900
  53.0472050  11.4740200 106.0246300  51.7311140  10.7923730 106.3330810
  56.3503350  11.1412390  88.2450890  57.1431960  11.4301220  87.7932680
  55.8307700  10.7104560  87.5663370  61.0823950   7.2608020 105.5586310
  60.4762110   7.2839620 104.8182060  60.7778060   6.5291060 106.0953560
  62.5124320  10.9888310 104.1695720  63.4646070  10.9046330 104.1195960
  62.3652540  11.6530020 104.8429510  65.4033520  10.3682520  89.6687630
  65.1175030   9.9547660  88.8541810  65.2053070  11.2970230  89.5488150
  49.9657130   3.6401610 104.5546950  50.4696150   3.0608890 105.1263180
  49.2264550   3.9241840 105.0923320  56.8680750   6.3615800  88.1093240
  56.7631390   5.7468150  88.8354620  56.7004970   5.8381690  87.3256250
  57.0195070   5.0472600 104.0882470  56.2540740   5.6157600 104.0037140
  57.2011030   4.7548810 103.1950700  60.1083480   5.4235830  88.7135230
  59.5593580   5.8705130  89.3577970  60.7302740   4.9185080  89.2372900
  64.1618420   6.7777930 104.6457490  64.9027890   7.1153690 104.1424950
  63.3991100   6.9469990 104.0927260  55.7758600   4.3826750  90.6100530
  56.1975020   4.2166620  91.4531920  55.9009440   3.5726980  90.1155670
  58.2886240   3.4064360  87.8577630  58.8091900   2.6913380  87.4918780
  58.9354640   4.0450230  88.1578140  62.8364080   4.8292760 103.1812700
  63.2505100   4.9837840 104.0303120  61.9015080   4.9547980 103.3438480
  57.5979310   4.7813240 101.1508630  58.0167420   5.6245970 100.9784870
  56.6787940   4.9185280 100.9215410  59.9343210   2.5129420 102.5346470
  60.0539420   1.9170560 103.2741310  60.7937210   2.5499110 102.1147770
  62.2731110   3.0666610 101.1108980  61.7466330   3.5909230 100.5074120
  62.6162450   3.6994000 101.7418710  55.4486730  11.0866250 102.2666360
  54.9107820  11.8112310 101.9475060  55.7020690  10.6096590 101.4763700
  58.3048940  12.3217460 102.5253010  58.2307640  13.2252600 102.8325380
  57.4027780  12.0029360 102.4975080  58.8534270  11.4875970  90.1479370
  59.7485060  11.8260940  90.1698130  58.8851900  10.7655380  89.5203650
  52.4930430   6.8603020  88.3766370  52.9305300   7.4032690  89.0323950
  52.9778160   6.0349970  88.3862710  49.7076230   9.6492050  95.8286630
  50.0379240   8.7813110  95.5965270  50.1367230   9.8550570  96.6591590
  54.3038150   7.9801060  93.4888600  54.0033690   7.8566030  94.3892510
  54.1975640   7.1209650  93.0804330  50.1966440  10.5162640  98.5668260
  49.7597430  10.6963440  99.3992410  50.7644120  11.2737260  98.4249980
  65.8328620  10.0179640 102.8545570  65.2330610  10.0772200 102.1109490
  65.9622520   9.0784620 102.9842420  67.0730070   7.7597460  88.1915280
  66.2423030   7.8274110  88.6622510  67.2501900   8.6501580  87.8882140
  66.5286530   4.5044940  90.6949480  67.2905440   5.0741590  90.8009170
  66.5440900   3.9372140  91.4657790  50.0290870   3.0282870  94.9257140
  49.3739710   2.7594510  94.2816840  50.8668820   2.9187350  94.4759120
  67.5346500   5.3595040  95.5391410  67.9055330   4.5762360  95.1327380
  68.1748430   6.0484140  95.3608710  64.5180260   6.7431620 100.9521730
  63.7040100   7.1728780 101.2147520  64.9254460   7.3550030 100.3390780
  66.5805700   4.7979310  87.8522000  66.8554540   5.7058190  87.7241220
  66.3916440   4.7341840  88.7883990  66.4771040   2.7348300  92.8451430
  66.1014640   1.9676230  92.4132720  65.7474160   3.1171000  93.3326360
  51.0666800   3.4135440  99.4660480  51.4339840   3.3262840 100.3456500
  50.4977620   2.6501990  99.3667340  65.8670660   1.8819820 102.4790950
  65.6356750   1.6532570 101.5788900  66.1275210   2.8019370 102.4335840
  64.5756310  11.4950220  94.4790000  65.1715380  11.1734790  93.8024420
  64.8334460  11.0222040  95.2703270  52.4818880   7.9268130 104.6280630
  52.4388510   7.5561040 105.5095090  52.6129890   8.8645700 104.7682450
  56.1824910   9.4827720 100.2290350  55.9416270   9.7502280  99.3420870
  57.1227550   9.6533450 100.2841210  67.4429070  11.5022100 101.0300990
  66.9487350  11.8990970 100.3128120  66.8342360  10.8771310 101.4238270
  52.3206910  10.8730380 101.7478410  51.7267230  10.7415080 102.4868450
  52.3130750  10.0368520 101.2820510  65.1268520  12.1445520  98.3087730
  64.6671490  12.8961330  97.9345750  64.4980980  11.4251990  98.2502530
  51.9519140   8.2388760 100.6986450  51.2253200   7.6194050 100.6312400
  52.0128290   8.6329370  99.8284530  55.5564240  10.4533760  97.4835860
  56.0729260   9.8421120  96.9584120  56.2061620  10.9562540  97.9746870
  58.2959740  11.3442250  98.3104840  58.5837550  11.0896550  97.4337850
  58.8082960  10.7919610  98.9010410  50.2349140  11.5563150  93.9083210
  50.0671180  10.9233830  94.6065100  49.3683650  11.7622550  93.5577400
  51.8411840  10.2496380  91.3533350  51.3159460  10.6304410  90.6495310
  51.7656420  10.8747150  92.0743060  58.3632100  12.2658350 105.6773040
  59.2899410  12.0302620 105.7209000  58.3482530  13.0930350 105.1959070
  66.5977160  11.8083920  92.6747290  66.7729350  11.1221660  92.0308210
  65.8998730  12.3330970  92.2823960  54.4404810  12.1978760  90.2282600
  55.1723630  11.9138040  89.6806490  54.6998480  11.9592040  91.1181980
  53.6019600   8.3143490  90.2328930  52.9728480   8.7828590  90.7814760
  53.7167430   7.4692710  90.6675120  64.9309660  11.4928210 105.5014080
  65.7234980  10.9977440 105.2940040  65.2242810  12.1718350 106.1089690
  59.1887360   4.1428170  78.2639400  58.4129460   3.6628610  78.5537970
  59.8400290   3.4633820  78.0895560  53.2053190   4.4547980  79.1415160
  52.3738070   4.1996690  79.5411670  53.8134170   4.5258750  79.8773080
  63.2094790   8.5488360  77.0438530  62.7476320   7.7775600  77.3725700
  64.0220340   8.5754430  77.5490980  53.1854450   8.4888070  79.3373180
  53.4882490   7.5985810  79.1583400  53.9298040   9.0458290  79.1095430
  59.4358100  10.8346370  76.6642520  58.8169540  11.2903870  76.0936960
  60.2909880  10.9897830  76.2632220  58.6296350   6.8185360  78.2709560
  58.5604630   5.8775300  78.1098690  59.3916210   6.9086770  78.8432130
  60.3021450   5.7185610  74.0574430  59.6838720   6.1835060  73.4937150
  60.8144700   6.4113090  74.4743940  55.1653210   5.2461480  80.7358030
  54.8322590   5.8730400  81.3779100  55.3419890   5.7723360  79.9559700
  54.3772310   7.2142280  82.5507210  54.9946310   7.8893360  82.2691660
  53.5165430   7.6230260  82.4594710  49.6704650   6.4042140  71.4314060
  49.2932630   6.8929240  70.6998960  49.9277720   7.0767420  72.0620590
  65.2949900   8.6781690  80.4661850  64.6113420   9.3480800  80.4578520
  65.8344190   8.8762340  79.7006710  62.8308640  10.5225820  79.1807030
  62.8435800  10.1188110  78.3129290  62.2783860  11.2973110  79.0768460
  64.1254060   7.2442040  74.2697200  64.0150390   6.3016370  74.3946620
  64.1222310   7.6057680  75.1559960  62.2294080   5.4255660  80.5089640
  62.6462870   5.2115770  79.6743100  62.9533900   5.6828450  81.0798260
  59.6674340   2.8707360  73.6259690  58.7403620   2.8044740  73.8548160
  59.8199160   3.8087490  73.5114930  66.1756180   3.8242880  80.6005880
  65.3474810   3.8935970  80.1256010  66.7706660   4.4097190  80.1321710
  63.6971630   4.4327660  74.1294940  63.0784050   4.0947210  73.4821240
  63.6796080   3.7887420  74.8374130  55.2730980   3.3972100  76.4079420
  54.8687980   2.6849350  75.9125320  55.3594100   3.0525340  77.2967460
  55.7412680   7.0839660  78.5718630  55.4440970   6.4785130  77.8926410
  56.6912500   7.1216970  78.4607990  63.8298290  10.6571530  82.2341730
  63.3528850  11.4643720  82.0414340  63.1460080  10.0049860  82.3867940
  54.8331110   6.8221350  85.2226430  53.9359640   7.0461320  85.4699830
  54.8583980   6.9456290  84.2737830  61.8736330   3.6714470  71.1367690
  62.3129610   2.8336900  70.9905510  62.5864750   4.3043870  71.2231830
  53.6602330   3.6934670  83.7983800  53.5210100   4.5657470  84.1671200
  52.7783690   3.3507480  83.6531740  59.9831710   8.6110540  75.1048930
  60.4227620   9.3534870  74.6904320  59.9218600   8.8537110  76.0287890
  55.4582680   9.6356370  86.0068950  55.4298110  10.0399320  85.1397380
  55.2947650   8.7066730  85.8440550  67.4097500  10.4183470  87.3033120
  67.8857220  10.8966360  87.9822200  68.0304660  10.3500960  86.5778620
  49.6120980   5.4632220  79.7154710  49.6901400   5.5980990  78.7710430
  50.2262660   4.7548110  79.9082830  50.8568610   7.1632410  76.1260890
  50.4496690   7.3047000  75.2714490  51.7481620   6.8792570  75.9232100
  66.8130750   7.6096320  84.4633130  66.9393810   7.3708200  83.5450310
  66.8552130   6.7780860  84.9355210  60.6747490  11.3124320  83.0327940
  61.1892160  11.2232330  83.8350370  59.8316570  11.6584020  83.3255850
  62.6501890  11.5979660  72.4611940  62.4903030  11.3082600  73.3593770
  62.4848600  10.8219790  71.9257170  55.1290270  11.3778190  74.2383560
  54.9532750  10.4613730  74.0251360  54.2746010  11.7365480  74.4781360
  62.3528020   9.1067220  71.0209940  61.6593180   9.1044510  70.3612220
  63.0950880   8.6826540  70.5904110  61.9177950  10.7329930  75.0958430
  62.3734900   9.9519310  75.4097050  62.2570470  11.4436750  75.6399610
  49.6680500   6.5046390  82.2549170  49.8311540   6.0351750  81.4368540
  50.1332950   5.9969950  82.9198010  51.2419480   5.8797820  84.4144980
  50.8574270   5.2391490  85.0127940  51.5531670   6.5833940  84.9839710
  57.3916620   2.7274360  79.8953600  57.7586750   2.2532930  80.6414940
  57.2021680   3.6015930  80.2361940  55.1815990   1.7683000  82.2137810
  54.8773060   2.6474980  82.4388170  56.1362450   1.8282790  82.2495250
  53.7097780   5.9743990  72.8104660  52.9360040   5.4341610  72.6503380
  54.4392410   5.4550600  72.4722420  64.4685760   4.9709350  78.6031050
  65.1884880   5.4664640  78.2127160  64.2667580   4.2927240  77.9584920
  59.8504560   5.0418410  84.4900050  59.7841870   4.1214080  84.2357640
  59.2209700   5.1393850  85.2044690  53.7535180   5.6424370  76.4483470
  54.2713850   4.8392630  76.3940360  53.3019200   5.5803510  77.2900300
  58.6404680   6.9090650  71.7210770  58.9820380   7.6532880  71.2254090
  57.8117390   7.2221770  72.0835600  51.2379720   2.6085740  83.3609170
  50.8794660   3.2739590  83.9482510  50.9434280   1.7769290  83.7321790
  54.4392840   3.0669980  86.2448720  54.1392980   3.2127160  85.3476540
  55.2104080   2.5075270  86.1522110  59.7821290   7.8638980  84.2403850
  59.7965830   6.9319940  84.0222760  59.0746390   7.9498740  84.8793620
  64.9158360   2.0478800  70.5102460  64.8322080   2.4793020  69.6598900
  65.6352550   2.5077150  70.9429280  65.9932500   4.5046320  83.5872430
  65.2680690   5.0975100  83.3901820  66.5207960   4.4969860  82.7885800
  65.9445610   8.9021060  73.2384590  65.3021770   8.2476680  73.5128310
  65.5576270   9.3076150  72.4625260  61.5232090   6.2306490  77.0856280
  61.8755910   5.6334620  76.4257650  60.6394420   5.9050720  77.2564530
  57.6095370   6.9904180  74.4926690  58.2966500   7.5373390  74.8734280
  56.8227790   7.5344910  74.5276300  49.7487770   2.6077000  69.9843770
  50.6182620   2.8901800  70.2679690  49.2578090   3.4212870  69.8692580
  56.9122580   3.9950210  74.1052050  57.3685360   4.8055460  74.3312240
  56.5610790   3.6773350  74.9370540  59.2155190   9.5056550  81.3344350
  59.8597410   9.7115930  82.0117770  59.5784630   8.7444950  80.8815200
  60.4887270   7.5088900  80.0521800  61.1309500   6.8082060  80.1653970
  61.0136620   8.2887340  79.8718690  64.3342990   7.7937520  69.7760940
  64.1080570   7.0767960  70.3685580  63.9439190   7.5449960  68.9382690
  62.2624890   8.3083800  83.2557860  62.5981130   8.8950490  83.9335780
  61.3425230   8.1776510  83.4855650  50.1159020  11.8204380  70.5505400
  50.4756660  12.4193720  69.8962670  49.9751360  12.3664270  71.3240430
  63.9159240   5.7109460  71.4375100  63.6280940   6.1722150  72.2252980
  64.7111410   5.2507230  71.7059320  50.1000880  10.0859240  85.0247800
  50.2092000   9.1453980  84.8843190  49.4481440  10.3513990  84.3761530
  58.0913470   8.3575130  86.4245920  57.7710340   7.6384370  86.9691610
  57.4171830   9.0330200  86.4981980  56.1327640   9.2035580  71.3679070
  56.1237740   9.9365270  70.7523580  55.2126000   8.9567160  71.4606030
  51.7334280   4.4250470  72.1125830  51.1262230   5.1649370  72.1221130
  52.2083630   4.5149830  71.2864030  59.1187240   9.2663820  70.0304260
  59.2199220   9.0627810  69.1006240  58.2188980   9.0122100  70.2352040
  57.7605350  11.7850140  74.7251930  58.0146850  11.7471530  73.8031300
  56.8117830  11.6583470  74.7180180  63.7657930   2.7042020  76.3010440
  62.8248070   2.7192250  76.4758130  64.0802000   1.9177980  76.7470740
  53.7439570   4.3861620  69.8614400  54.5102840   4.2742980  70.4239830
  53.8214260   3.6899590  69.2091170  65.7683510   9.8750870  77.9764700
  65.8930930  10.6982040  78.4488510  66.6349070   9.6641600  77.6288850
  53.2401040  11.9682080  77.6481830  53.9763520  11.4197540  77.9190400
  53.6241960  12.8338090  77.5087820  50.1246520   8.0355650  73.5223340
  49.1986300   8.2776790  73.5128750  50.5902950   8.8629910  73.4008090
  52.2459320  11.1528150  86.8367410  53.0472050  11.4740200  87.2502810
  51.7311140  10.7923730  87.5587320  56.3503350  11.1412390  69.4707400
  57.1431960  11.4301220  69.0189190  55.8307700  10.7104560  68.7919880
  61.0823950   7.2608020  86.7842820  60.4762110   7.2839620  86.0438570
  60.7778060   6.5291060  87.3210070  62.5124320  10.9888310  85.3952230
  63.4646070  10.9046330  85.3452470  62.3652540  11.6530020  86.0686020
  65.4033520  10.3682520  70.8944140  65.1175030   9.9547660  70.0798320
  65.2053070  11.2970230  70.7744660  49.9657130   3.6401610  85.7803460
  50.4696150   3.0608890  86.3519690  49.2264550   3.9241840  86.3179830
  56.8680750   6.3615800  69.3349750  56.7631390   5.7468150  70.0611130
  56.7004970   5.8381690  68.5512760  57.0195070   5.0472600  85.3138980
  56.2540740   5.6157600  85.2293650  57.2011030   4.7548810  84.4207210
  60.1083480   5.4235830  69.9391740  59.5593580   5.8705130  70.5834480
  60.7302740   4.9185080  70.4629410  64.1618420   6.7777930  85.8714000
  64.9027890   7.1153690  85.3681460  63.3991100   6.9469990  85.3183770
  55.7758600   4.3826750  71.8357040  56.1975020   4.2166620  72.6788430
  55.9009440   3.5726980  71.3412180  58.2886240   3.4064360  69.0834140
  58.8091900   2.6913380  68.7175290  58.9354640   4.0450230  69.3834650
  62.8364080   4.8292760  84.4069210  63.2505100   4.9837840  85.2559630
  61.9015080   4.9547980  84.5694990  57.5979310   4.7813240  82.3765140
  58.0167420   5.6245970  82.2041380  56.6787940   4.9185280  82.1471920
  59.9343210   2.5129420  83.7602980  60.0539420   1.9170560  84.4997820
  60.7937210   2.5499110  83.3404280  62.2731110   3.0666610  82.3365490
  61.7466330   3.5909230  81.7330630  62.6162450   3.6994000  82.9675220
  55.4486730  11.0866250  83.4922870  54.9107820  11.8112310  83.1731570
  55.7020690  10.6096590  82.7020210  58.3048940  12.3217460  83.7509520
  58.2307640  13.2252600  84.0581890  57.4027780  12.0029360  83.7231590
  58.8534270  11.4875970  71.3735880  59.7485060  11.8260940  71.3954640
  58.8851900  10.7655380  70.7460160  52.4930430   6.8603020  69.6022880
  52.9305300   7.4032690  70.2580460  52.9778160   6.0349970  69.6119220
  49.7076230   9.6492050  77.0543140  50.0379240   8.7813110  76.8221780
  50.1367230   9.8550570  77.8848100  54.3038150   7.9801060  74.7145110
  54.0033690   7.8566030  75.6149020  54.1975640   7.1209650  74.3060840
  50.1966440  10.5162640  79.7924770  49.7597430  10.6963440  80.6248920
  50.7644120  11.2737260  79.6506490  65.8328620  10.0179640  84.0802080
  65.2330610  10.0772200  83.3366000  65.9622520   9.0784620  84.2098930
  67.0730070   7.7597460  69.4171790  66.2423030   7.8274110  69.8879020
  67.2501900   8.6501580  69.1138650  66.5286530   4.5044940  71.9205990
  67.2905440   5.0741590  72.0265680  66.5440900   3.9372140  72.6914300
  50.0290870   3.0282870  76.1513650  49.3739710   2.7594510  75.5073350
  50.8668820   2.9187350  75.7015630  67.5346500   5.3595040  76.7647920
  67.9055330   4.5762360  76.3583890  68.1748430   6.0484140  76.5865220
  64.5180260   6.7431620  82.1778240  63.7040100   7.1728780  82.4404030
  64.9254460   7.3550030  81.5647290  66.5805700   4.7979310  69.0778510
  66.8554540   5.7058190  68.9497730  66.3916440   4.7341840  70.0140500
  66.4771040   2.7348300  74.0707940  66.1014640   1.9676230  73.6389230
  65.7474160   3.1171000  74.5582870  51.0666800   3.4135440  80.6916990
  51.4339840   3.3262840  81.5713010  50.4977620   2.6501990  80.5923850
  65.8670660   1.8819820  83.7047460  65.6356750   1.6532570  82.8045410
  66.1275210   2.8019370  83.6592350  64.5756310  11.4950220  75.7046510
  65.1715380  11.1734790  75.0280930  64.8334460  11.0222040  76.4959780
  52.4818880   7.9268130  85.8537140  52.4388510   7.5561040  86.7351600
  52.6129890   8.8645700  85.9938960  56.1824910   9.4827720  81.4546860
  55.9416270   9.7502280  80.5677380  57.1227550   9.6533450  81.5097720
  67.4429070  11.5022100  82.2557500  66.9487350  11.8990970  81.5384630
  66.8342360  10.8771310  82.6494780  52.3206910  10.8730380  82.9734920
  51.7267230  10.7415080  83.7124960  52.3130750  10.0368520  82.5077020
  65.1268520  12.1445520  79.5344240  64.6671490  12.8961330  79.1602260
  64.4980980  11.4251990  79.4759040  51.9519140   8.2388760  81.9242960
  51.2253200   7.6194050  81.8568910  52.0128290   8.6329370  81.0541040
  55.5564240  10.4533760  78.7092370  56.0729260   9.8421120  78.1840630
  56.2061620  10.9562540  79.2003380  58.2959740  11.3442250  79.5361350
  58.5837550  11.0896550  78.6594360  58.8082960  10.7919610  80.1266920
  50.2349140  11.5563150  75.1339720  50.0671180  10.9233830  75.8321610
  49.3683650  11.7622550  74.7833910  51.8411840  10.2496380  72.5789860
  51.3159460  10.6304410  71.8751820  51.7656420  10.8747150  73.2999570
  58.3632100  12.2658350  86.9029550  59.2899410  12.0302620  86.9465510
  58.3482530  13.0930350  86.4215580  66.5977160  11.8083920  73.9003800
  66.7729350  11.1221660  73.2564720  65.8998730  12.3330970  73.5080470
  54.4404810  12.1978760  71.4539110  55.1723630  11.9138040  70.9063000
  54.6998480  11.9592040  72.3438490  53.6019600   8.3143490  71.4585440
  52.9728480   8.7828590  72.0071270  53.7167430   7.4692710  71.8931630
  64.9309660  11.4928210  86.7270590  65.7234980  10.9977440  86.5196550
  65.2242810  12.1718350  87.3346200  59.1887360   4.1428170  59.4895910
  58.4129460   3.6628610  59.7794480  59.8400290   3.4633820  59.3152070
  53.2053190   4.4547980  60.3671670  52.3738070   4.1996690  60.7668180
  53.8134170   4.5258750  61.1029590  63.2094790   8.5488360  58.2695040
  62.7476320   7.7775600  58.5982210  64.0220340   8.5754430  58.7747490
  53.1854450   8.4888070  60.5629690  53.4882490   7.5985810  60.3839910
  53.9298040   9.0458290  60.3351940  59.4358100  10.8346370  57.8899030
  58.8169540  11.2903870  57.3193470  60.2909880  10.9897830  57.4888730
  58.6296350   6.8185360  59.4966070  58.5604630   5.8775300  59.3355200
  59.3916210   6.9086770  60.0688640  60.3021450   5.7185610  55.2830940
  59.6838720   6.1835060  54.7193660  60.8144700   6.4113090  55.7000450
  55.1653210   5.2461480  61.9614540  54.8322590   5.8730400  62.6035610
  55.3419890   5.7723360  61.1816210  54.3772310   7.2142280  63.7763720
  54.9946310   7.8893360  63.4948170  53.5165430   7.6230260  63.6851220
  49.6704650   6.4042140  52.6570570  49.2932630   6.8929240  51.9255470
  49.9277720   7.0767420  53.2877100  65.2949900   8.6781690  61.6918360
  64.6113420   9.3480800  61.6835030  65.8344190   8.8762340  60.9263220
  62.8308640  10.5225820  60.4063540  62.8435800  10.1188110  59.5385800
  62.2783860  11.2973110  60.3024970  64.1254060   7.2442040  55.4953710
  64.0150390   6.3016370  55.6203130  64.1222310   7.6057680  56.3816470
  62.2294080   5.4255660  61.7346150  62.6462870   5.2115770  60.8999610
  62.9533900   5.6828450  62.3054770  59.6674340   2.8707360  54.8516200
  58.7403620   2.8044740  55.0804670  59.8199160   3.8087490  54.7371440
  66.1756180   3.8242880  61.8262390  65.3474810   3.8935970  61.3512520
  66.7706660   4.4097190  61.3578220  63.6971630   4.4327660  55.3551450
  63.0784050   4.0947210  54.7077750  63.6796080   3.7887420  56.0630640
  55.2730980   3.3972100  57.6335930  54.8687980   2.6849350  57.1381830
  55.3594100   3.0525340  58.5223970  55.7412680   7.0839660  59.7975140
  55.4440970   6.4785130  59.1182920  56.6912500   7.1216970  59.6864500
  63.8298290  10.6571530  63.4598240  63.3528850  11.4643720  63.2670850
  63.1460080  10.0049860  63.6124450  54.8331110   6.8221350  66.4482940
  53.9359640   7.0461320  66.6956340  54.8583980   6.9456290  65.4994340
  61.8736330   3.6714470  52.3624200  62.3129610   2.8336900  52.2162020
  62.5864750   4.3043870  52.4488340  53.6602330   3.6934670  65.0240310
  53.5210100   4.5657470  65.3927710  52.7783690   3.3507480  64.8788250
  59.9831710   8.6110540  56.3305440  60.4227620   9.3534870  55.9160830
  59.9218600   8.8537110  57.2544400  55.4582680   9.6356370  67.2325460
  55.4298110  10.0399320  66.3653890  55.2947650   8.7066730  67.0697060
  67.4097500  10.4183470  68.5289630  67.8857220  10.8966360  69.2078710
  68.0304660  10.3500960  67.8035130  49.6120980   5.4632220  60.9411220
  49.6901400   5.5980990  59.9966940  50.2262660   4.7548110  61.1339340
  50.8568610   7.1632410  57.3517400  50.4496690   7.3047000  56.4971000
  51.7481620   6.8792570  57.1488610  66.8130750   7.6096320  65.6889640
  66.9393810   7.3708200  64.7706820  66.8552130   6.7780860  66.1611720
  60.6747490  11.3124320  64.2584450  61.1892160  11.2232330  65.0606880
  59.8316570  11.6584020  64.5512360  62.6501890  11.5979660  53.6868450
  62.4903030  11.3082600  54.5850280  62.4848600  10.8219790  53.1513680
  55.1290270  11.3778190  55.4640070  54.9532750  10.4613730  55.2507870
  54.2746010  11.7365480  55.7037870  62.3528020   9.1067220  52.2466450
  61.6593180   9.1044510  51.5868730  63.0950880   8.6826540  51.8160620
  61.9177950  10.7329930  56.3214940  62.3734900   9.9519310  56.6353560
  62.2570470  11.4436750  56.8656120  49.6680500   6.5046390  63.4805680
  49.8311540   6.0351750  62.6625050  50.1332950   5.9969950  64.1454520
  51.2419480   5.8797820  65.6401490  50.8574270   5.2391490  66.2384450
  51.5531670   6.5833940  66.2096220  57.3916620   2.7274360  61.1210110
  57.7586750   2.2532930  61.8671450  57.2021680   3.6015930  61.4618450
  55.1815990   1.7683000  63.4394320  54.8773060   2.6474980  63.6644680
  56.1362450   1.8282790  63.4751760  53.7097780   5.9743990  54.0361170
  52.9360040   5.4341610  53.8759890  54.4392410   5.4550600  53.6978930
  64.4685760   4.9709350  59.8287560  65.1884880   5.4664640  59.4383670
  64.2667580   4.2927240  59.1841430  59.8504560   5.0418410  65.7156560
  59.7841870   4.1214080  65.4614150  59.2209700   5.1393850  66.4301200
  53.7535180   5.6424370  57.6739980  54.2713850   4.8392630  57.6196870
  53.3019200   5.5803510  58.5156810  58.6404680   6.9090650  52.9467280
  58.9820380   7.6532880  52.4510600  57.8117390   7.2221770  53.3092110
  51.2379720   2.6085740  64.5865680  50.8794660   3.2739590  65.1739020
  50.9434280   1.7769290  64.9578300  54.4392840   3.0669980  67.4705230
  54.1392980   3.2127160  66.5733050  55.2104080   2.5075270  67.3778620
  59.7821290   7.8638980  65.4660360  59.7965830   6.9319940  65.2479270
  59.0746390   7.9498740  66.1050130  64.9158360   2.0478800  51.7358970
  64.8322080   2.4793020  50.8855410  65.6352550   2.5077150  52.1685790
  65.9932500   4.5046320  64.8128940  65.2680690   5.0975100  64.6158330
  66.5207960   4.4969860  64.0142310  65.9445610   8.9021060  54.4641100
  65.3021770   8.2476680  54.7384820  65.5576270   9.3076150  53.6881770
  61.5232090   6.2306490  58.3112790  61.8755910   5.6334620  57.6514160
  60.6394420   5.9050720  58.4821040  57.6095370   6.9904180  55.7183200
  58.2966500   7.5373390  56.0990790  56.8227790   7.5344910  55.7532810
  49.7487770   2.6077000  51.2100280  50.6182620   2.8901800  51.4936200
  49.2578090   3.4212870  51.0949090  56.9122580   3.9950210  55.3308560
  57.3685360   4.8055460  55.5568750  56.5610790   3.6773350  56.1627050
  59.2155190   9.5056550  62.5600860  59.8597410   9.7115930  63.2374280
  59.5784630   8.7444950  62.1071710  60.4887270   7.5088900  61.2778310
  61.1309500   6.8082060  61.3910480  61.0136620   8.2887340  61.0975200
  64.3342990   7.7937520  51.0017450  64.1080570   7.0767960  51.5942090
  63.9439190   7.5449960  50.1639200  62.2624890   8.3083800  64.4814370
  62.5981130   8.8950490  65.1592290  61.3425230   8.1776510  64.7112160
  50.1159020  11.8204380  51.7761910  50.4756660  12.4193720  51.1219180
  49.9751360  12.3664270  52.5496940  63.9159240   5.7109460  52.6631610
  63.6280940   6.1722150  53.4509490  64.7111410   5.2507230  52.9315830
  50.1000880  10.0859240  66.2504310  50.2092000   9.1453980  66.1099700
  49.4481440  10.3513990  65.6018040  58.0913470   8.3575130  67.6502430
  57.7710340   7.6384370  68.1948120  57.4171830   9.0330200  67.7238490
  56.1327640   9.2035580  52.5935580  56.1237740   9.9365270  51.9780090
  55.2126000   8.9567160  52.6862540  51.7334280   4.4250470  53.3382340
  51.1262230   5.1649370  53.3477640  52.2083630   4.5149830  52.5120540
  59.1187240   9.2663820  51.2560770  59.2199220   9.0627810  50.3262750
  58.2188980   9.0122100  51.4608550  57.7605350  11.7850140  55.9508440
  58.0146850  11.7471530  55.0287810  56.8117830  11.6583470  55.9436690
  63.7657930   2.7042020  57.5266950  62.8248070   2.7192250  57.7014640
  64.0802000   1.9177980  57.9727250  53.7439570   4.3861620  51.0870910
  54.5102840   4.2742980  51.6496340  53.8214260   3.6899590  50.4347680
  65.7683510   9.8750870  59.2021210  65.8930930  10.6982040  59.6745020
  66.6349070   9.6641600  58.8545360  53.2401040  11.9682080  58.8738340
  53.9763520  11.4197540  59.1446910  53.6241960  12.8338090  58.7344330
  50.1246520   8.0355650  54.7479850  49.1986300   8.2776790  54.7385260
  50.5902950   8.8629910  54.6264600  52.2459320  11.1528150  68.0623920
  53.0472050  11.4740200  68.4759320  51.7311140  10.7923730  68.7843830
  56.3503350  11.1412390  50.6963910  57.1431960  11.4301220  50.2445700
  55.8307700  10.7104560  50.0176390  61.0823950   7.2608020  68.0099330
  60.4762110   7.2839620  67.2695080  60.7778060   6.5291060  68.5466580
  62.5124320  10.9888310  66.6208740  63.4646070  10.9046330  66.5708980
  62.3652540  11.6530020  67.2942530  65.4033520  10.3682520  52.1200650
  65.1175030   9.9547660  51.3054830  65.2053070  11.2970230  52.0001170
  49.9657130   3.6401610  67.0059970  50.4696150   3.0608890  67.5776200
  49.2264550   3.9241840  67.5436340  56.8680750   6.3615800  50.5606260
  56.7631390   5.7468150  51.2867640  56.7004970   5.8381690  49.7769270
  57.0195070   5.0472600  66.5395490  56.2540740   5.6157600  66.4550160
  57.2011030   4.7548810  65.6463720  60.1083480   5.4235830  51.1648250
  59.5593580   5.8705130  51.8090990  60.7302740   4.9185080  51.6885920
  64.1618420   6.7777930  67.0970510  64.9027890   7.1153690  66.5937970
  63.3991100   6.9469990  66.5440280  55.7758600   4.3826750  53.0613550
  56.1975020   4.2166620  53.9044940  55.9009440   3.5726980  52.5668690
  58.2886240   3.4064360  50.3090650  58.8091900   2.6913380  49.9431800
  58.9354640   4.0450230  50.6091160  62.8364080   4.8292760  65.6325720
  63.2505100   4.9837840  66.4816140  61.9015080   4.9547980  65.7951500
  57.5979310   4.7813240  63.6021650  58.0167420   5.6245970  63.4297890
  56.6787940   4.9185280  63.3728430  59.9343210   2.5129420  64.9859490
  60.0539420   1.9170560  65.7254330  60.7937210   2.5499110  64.5660790
  62.2731110   3.0666610  63.5622000  61.7466330   3.5909230  62.9587140
  62.6162450   3.6994000  64.1931730  55.4486730  11.0866250  64.7179380
  54.9107820  11.8112310  64.3988080  55.7020690  10.6096590  63.9276720
  58.3048940  12.3217460  64.9766030  58.2307640  13.2252600  65.2838400
  57.4027780  12.0029360  64.9488100  58.8534270  11.4875970  52.5992390
  59.7485060  11.8260940  52.6211150  58.8851900  10.7655380  51.9716670
  52.4930430   6.8603020  50.8279390  52.9305300   7.4032690  51.4836970
  52.9778160   6.0349970  50.8375730  49.7076230   9.6492050  58.2799650
  50.0379240   8.7813110  58.0478290  50.1367230   9.8550570  59.1104610
  54.3038150   7.9801060  55.9401620  54.0033690   7.8566030  56.8405530
  54.1975640   7.1209650  55.5317350  50.1966440  10.5162640  61.0181280
  49.7597430  10.6963440  61.8505430  50.7644120  11.2737260  60.8763000
  65.8328620  10.0179640  65.3058590  65.2330610  10.0772200  64.5622510
  65.9622520   9.0784620  65.4355440  67.0730070   7.7597460  50.6428300
  66.2423030   7.8274110  51.1135530  67.2501900   8.6501580  50.3395160
  66.5286530   4.5044940  53.1462500  67.2905440   5.0741590  53.2522190
  66.5440900   3.9372140  53.9170810  50.0290870   3.0282870  57.3770160
  49.3739710   2.7594510  56.7329860  50.8668820   2.9187350  56.9272140
  67.5346500   5.3595040  57.9904430  67.9055330   4.5762360  57.5840400
  68.1748430   6.0484140  57.8121730  64.5180260   6.7431620  63.4034750
  63.7040100   7.1728780  63.6660540  64.9254460   7.3550030  62.7903800
  66.5805700   4.7979310  50.3035020  66.8554540   5.7058190  50.1754240
  66.3916440   4.7341840  51.2397010  66.4771040   2.7348300  55.2964450
  66.1014640   1.9676230  54.8645740  65.7474160   3.1171000  55.7839380
  51.0666800   3.4135440  61.9173500  51.4339840   3.3262840  62.7969520
  50.4977620   2.6501990  61.8180360  65.8670660   1.8819820  64.9303970
  65.6356750   1.6532570  64.0301920  66.1275210   2.8019370  64.8848860
  64.5756310  11.4950220  56.9303020  65.1715380  11.1734790  56.2537440
  64.8334460  11.0222040  57.7216290  52.4818880   7.9268130  67.0793650
  52.4388510   7.5561040  67.9608110  52.6129890   8.8645700  67.2195470
  56.1824910   9.4827720  62.6803370  55.9416270   9.7502280  61.7933890
  57.1227550   9.6533450  62.7354230  67.4429070  11.5022100  63.4814010
  66.9487350  11.8990970  62.7641140  66.8342360  10.8771310  63.8751290
  52.3206910  10.8730380  64.1991430  51.7267230  10.7415080  64.9381470
  52.3130750  10.0368520  63.7333530  65.1268520  12.1445520  60.7600750
  64.6671490  12.8961330  60.3858770  64.4980980  11.4251990  60.7015550
  51.9519140   8.2388760  63.1499470  51.2253200   7.6194050  63.0825420
  52.0128290   8.6329370  62.2797550  55.5564240  10.4533760  59.9348880
  56.0729260   9.8421120  59.4097140  56.2061620  10.9562540  60.4259890
  58.2959740  11.3442250  60.7617860  58.5837550  11.0896550  59.8850870
  58.8082960  10.7919610  61.3523430  50.2349140  11.5563150  56.3596230
  50.0671180  10.9233830  57.0578120  49.3683650  11.7622550  56.0090420
  51.8411840  10.2496380  53.8046370  51.3159460  10.6304410  53.1008330
  51.7656420  10.8747150  54.5256080  58.3632100  12.2658350  68.1286060
  59.2899410  12.0302620  68.1722020  58.3482530  13.0930350  67.6472090
  66.5977160  11.8083920  55.1260310  66.7729350  11.1221660  54.4821230
  65.8998730  12.3330970  54.7336980  54.4404810  12.1978760  52.6795620
  55.1723630  11.9138040  52.1319510  54.6998480  11.9592040  53.5695000
  53.6019600   8.3143490  52.6841950  52.9728480   8.7828590  53.2327780
  53.7167430   7.4692710  53.1188140  64.9309660  11.4928210  67.9527100
  65.7234980  10.9977440  67.7453060  65.2242810  12.1718350  68.5602710
  59.1887360   4.1428170  40.7152420  58.4129460   3.6628610  41.0050990
  59.8400290   3.4633820  40.5408580  53.2053190   4.4547980  41.5928180
  52.3738070   4.1996690  41.9924690  53.8134170   4.5258750  42.3286100
  63.2094790   8.5488360  39.4951550  62.7476320   7.7775600  39.8238720
  64.0220340   8.5754430  40.0004000  53.1854450   8.4888070  41.7886200
  53.4882490   7.5985810  41.6096420  53.9298040   9.0458290  41.5608450
  59.4358100  10.8346370  39.1155540  58.8169540  11.2903870  38.5449980
  60.2909880  10.9897830  38.7145240  58.6296350   6.8185360  40.7222580
  58.5604630   5.8775300  40.5611710  59.3916210   6.9086770  41.2945150
  60.3021450   5.7185610  36.5087450  59.6838720   6.1835060  35.9450170
  60.8144700   6.4113090  36.9256960  55.1653210   5.2461480  43.1871050
  54.8322590   5.8730400  43.8292120  55.3419890   5.7723360  42.4072720
  54.3772310   7.2142280  45.0020230  54.9946310   7.8893360  44.7204680
  53.5165430   7.6230260  44.9107730  49.6704650   6.4042140  33.8827080
  49.2932630   6.8929240  33.1511980  49.9277720   7.0767420  34.5133610
  65.2949900   8.6781690  42.9174870  64.6113420   9.3480800  42.9091540
  65.8344190   8.8762340  42.1519730  62.8308640  10.5225820  41.6320050
  62.8435800  10.1188110  40.7642310  62.2783860  11.2973110  41.5281480
  64.1254060   7.2442040  36.7210220  64.0150390   6.3016370  36.8459640
  64.1222310   7.6057680  37.6072980  62.2294080   5.4255660  42.9602660
  62.6462870   5.2115770  42.1256120  62.9533900   5.6828450  43.5311280
  59.6674340   2.8707360  36.0772710  58.7403620   2.8044740  36.3061180
  59.8199160   3.8087490  35.9627950  66.1756180   3.8242880  43.0518900
  65.3474810   3.8935970  42.5769030  66.7706660   4.4097190  42.5834730
  63.6971630   4.4327660  36.5807960  63.0784050   4.0947210  35.9334260
  63.6796080   3.7887420  37.2887150  55.2730980   3.3972100  38.8592440
  54.8687980   2.6849350  38.3638340  55.3594100   3.0525340  39.7480480
  55.7412680   7.0839660  41.0231650  55.4440970   6.4785130  40.3439430
  56.6912500   7.1216970  40.9121010  63.8298290  10.6571530  44.6854750
  63.3528850  11.4643720  44.4927360  63.1460080  10.0049860  44.8380960
  54.8331110   6.8221350  47.6739450  53.9359640   7.0461320  47.9212850
  54.8583980   6.9456290  46.7250850  61.8736330   3.6714470  33.5880710
  62.3129610   2.8336900  33.4418530  62.5864750   4.3043870  33.6744850
  53.6602330   3.6934670  46.2496820  53.5210100   4.5657470  46.6184220
  52.7783690   3.3507480  46.1044760  59.9831710   8.6110540  37.5561950
  60.4227620   9.3534870  37.1417340  59.9218600   8.8537110  38.4800910
  55.4582680   9.6356370  48.4581970  55.4298110  10.0399320  47.5910400
  55.2947650   8.7066730  48.2953570  67.4097500  10.4183470  49.7546140
  67.8857220  10.8966360  50.4335220  68.0304660  10.3500960  49.0291640
  49.6120980   5.4632220  42.1667730  49.6901400   5.5980990  41.2223450
  50.2262660   4.7548110  42.3595850  50.8568610   7.1632410  38.5773910
  50.4496690   7.3047000  37.7227510  51.7481620   6.8792570  38.3745120
  66.8130750   7.6096320  46.9146150  66.9393810   7.3708200  45.9963330
  66.8552130   6.7780860  47.3868230  60.6747490  11.3124320  45.4840960
  61.1892160  11.2232330  46.2863390  59.8316570  11.6584020  45.7768870
  62.6501890  11.5979660  34.9124960  62.4903030  11.3082600  35.8106790
  62.4848600  10.8219790  34.3770190  55.1290270  11.3778190  36.6896580
  54.9532750  10.4613730  36.4764380  54.2746010  11.7365480  36.9294380
  62.3528020   9.1067220  33.4722960  61.6593180   9.1044510  32.8125240
  63.0950880   8.6826540  33.0417130  61.9177950  10.7329930  37.5471450
  62.3734900   9.9519310  37.8610070  62.2570470  11.4436750  38.0912630
  49.6680500   6.5046390  44.7062190  49.8311540   6.0351750  43.8881560
  50.1332950   5.9969950  45.3711030  51.2419480   5.8797820  46.8658000
  50.8574270   5.2391490  47.4640960  51.5531670   6.5833940  47.4352730
  57.3916620   2.7274360  42.3466620  57.7586750   2.2532930  43.0927960
  57.2021680   3.6015930  42.6874960  55.1815990   1.7683000  44.6650830
  54.8773060   2.6474980  44.8901190  56.1362450   1.8282790  44.7008270
  53.7097780   5.9743990  35.2617680  52.9360040   5.4341610  35.1016400
  54.4392410   5.4550600  34.9235440  64.4685760   4.9709350  41.0544070
  65.1884880   5.4664640  40.6640180  64.2667580   4.2927240  40.4097940
  59.8504560   5.0418410  46.9413070  59.7841870   4.1214080  46.6870660
  59.2209700   5.1393850  47.6557710  53.7535180   5.6424370  38.8996490
  54.2713850   4.8392630  38.8453380  53.3019200   5.5803510  39.7413320
  58.6404680   6.9090650  34.1723790  58.9820380   7.6532880  33.6767110
  57.8117390   7.2221770  34.5348620  51.2379720   2.6085740  45.8122190
  50.8794660   3.2739590  46.3995530  50.9434280   1.7769290  46.1834810
  54.4392840   3.0669980  48.6961740  54.1392980   3.2127160  47.7989560
  55.2104080   2.5075270  48.6035130  59.7821290   7.8638980  46.6916870
  59.7965830   6.9319940  46.4735780  59.0746390   7.9498740  47.3306640
  64.9158360   2.0478800  32.9615480  64.8322080   2.4793020  32.1111920
  65.6352550   2.5077150  33.3942300  65.9932500   4.5046320  46.0385450
  65.2680690   5.0975100  45.8414840  66.5207960   4.4969860  45.2398820
  65.9445610   8.9021060  35.6897610  65.3021770   8.2476680  35.9641330
  65.5576270   9.3076150  34.9138280  61.5232090   6.2306490  39.5369300
  61.8755910   5.6334620  38.8770670  60.6394420   5.9050720  39.7077550
  57.6095370   6.9904180  36.9439710  58.2966500   7.5373390  37.3247300
  56.8227790   7.5344910  36.9789320  49.7487770   2.6077000  32.4356790
  50.6182620   2.8901800  32.7192710  49.2578090   3.4212870  32.3205600
  56.9122580   3.9950210  36.5565070  57.3685360   4.8055460  36.7825260
  56.5610790   3.6773350  37.3883560  59.2155190   9.5056550  43.7857370
  59.8597410   9.7115930  44.4630790  59.5784630   8.7444950  43.3328220
  60.4887270   7.5088900  42.5034820  61.1309500   6.8082060  42.6166990
  61.0136620   8.2887340  42.3231710  64.3342990   7.7937520  32.2273960
  64.1080570   7.0767960  32.8198600  63.9439190   7.5449960  31.3895710
  62.2624890   8.3083800  45.7070880  62.5981130   8.8950490  46.3848800
  61.3425230   8.1776510  45.9368670  50.1159020  11.8204380  33.0018420
  50.4756660  12.4193720  32.3475690  49.9751360  12.3664270  33.7753450
  63.9159240   5.7109460  33.8888120  63.6280940   6.1722150  34.6766000
  64.7111410   5.2507230  34.1572340  50.1000880  10.0859240  47.4760820
  50.2092000   9.1453980  47.3356210  49.4481440  10.3513990  46.8274550
  58.0913470   8.3575130  48.8758940  57.7710340   7.6384370  49.4204630
  57.4171830   9.0330200  48.9495000  56.1327640   9.2035580  33.8192090
  56.1237740   9.9365270  33.2036600  55.2126000   8.9567160  33.9119050
  51.7334280   4.4250470  34.5638850  51.1262230   5.1649370  34.5734150
  52.2083630   4.5149830  33.7377050  59.1187240   9.2663820  32.4817280
  59.2199220   9.0627810  31.5519260  58.2188980   9.0122100  32.6865060
  57.7605350  11.7850140  37.1764950  58.0146850  11.7471530  36.2544320
  56.8117830  11.6583470  37.1693200  63.7657930   2.7042020  38.7523460
  62.8248070   2.7192250  38.9271150  64.0802000   1.9177980  39.1983760
  53.7439570   4.3861620  32.3127420  54.5102840   4.2742980  32.8752850
  53.8214260   3.6899590  31.6604190  65.7683510   9.8750870  40.4277720
  65.8930930  10.6982040  40.9001530  66.6349070   9.6641600  40.0801870
  53.2401040  11.9682080  40.0994850  53.9763520  11.4197540  40.3703420
  53.6241960  12.8338090  39.9600840  50.1246520   8.0355650  35.9736360
  49.1986300   8.2776790  35.9641770  50.5902950   8.8629910  35.8521110
  52.2459320  11.1528150  49.2880430  53.0472050  11.4740200  49.7015830
  51.7311140  10.7923730  50.0100340  56.3503350  11.1412390  31.9220420
  57.1431960  11.4301220  31.4702210  55.8307700  10.7104560  31.2432900
  61.0823950   7.2608020  49.2355840  60.4762110   7.2839620  48.4951590
  60.7778060   6.5291060  49.7723090  62.5124320  10.9888310  47.8465250
  63.4646070  10.9046330  47.7965490  62.3652540  11.6530020  48.5199040
  65.4033520  10.3682520  33.3457160  65.1175030   9.9547660  32.5311340
  65.2053070  11.2970230  33.2257680  49.9657130   3.6401610  48.2316480
  50.4696150   3.0608890  48.8032710  49.2264550   3.9241840  48.7692850
  56.8680750   6.3615800  31.7862770  56.7631390   5.7468150  32.5124150
  56.7004970   5.8381690  31.0025780  57.0195070   5.0472600  47.7652000
  56.2540740   5.6157600  47.6806670  57.2011030   4.7548810  46.8720230
  60.1083480   5.4235830  32.3904760  59.5593580   5.8705130  33.0347500
  60.7302740   4.9185080  32.9142430  64.1618420   6.7777930  48.3227020
  64.9027890   7.1153690  47.8194480  63.3991100   6.9469990  47.7696790
  55.7758600   4.3826750  34.2870060  56.1975020   4.2166620  35.1301450
  55.9009440   3.5726980  33.7925200  58.2886240   3.4064360  31.5347160
  58.8091900   2.6913380  31.1688310  58.9354640   4.0450230  31.8347670
  62.8364080   4.8292760  46.8582230  63.2505100   4.9837840  47.7072650
  61.9015080   4.9547980  47.0208010  57.5979310   4.7813240  44.8278160
  58.0167420   5.6245970  44.6554400  56.6787940   4.9185280  44.5984940
  59.9343210   2.5129420  46.2116000  60.0539420   1.9170560  46.9510840
  60.7937210   2.5499110  45.7917300  62.2731110   3.0666610  44.7878510
  61.7466330   3.5909230  44.1843650  62.6162450   3.6994000  45.4188240
  55.4486730  11.0866250  45.9435890  54.9107820  11.8112310  45.6244590
  55.7020690  10.6096590  45.1533230  58.3048940  12.3217460  46.2022540
  58.2307640  13.2252600  46.5094910  57.4027780  12.0029360  46.1744610
  58.8534270  11.4875970  33.8248900  59.7485060  11.8260940  33.8467660
  58.8851900  10.7655380  33.1973180  52.4930430   6.8603020  32.0535900
  52.9305300   7.4032690  32.7093480  52.9778160   6.0349970  32.0632240
  49.7076230   9.6492050  39.5056160  50.0379240   8.7813110  39.2734800
  50.1367230   9.8550570  40.3361120  54.3038150   7.9801060  37.1658130
  54.0033690   7.8566030  38.0662040  54.1975640   7.1209650  36.7573860
  50.1966440  10.5162640  42.2437790  49.7597430  10.6963440  43.0761940
  50.7644120  11.2737260  42.1019510  65.8328620  10.0179640  46.5315100
  65.2330610  10.0772200  45.7879020  65.9622520   9.0784620  46.6611950
  67.0730070   7.7597460  31.8684810  66.2423030   7.8274110  32.3392040
  67.2501900   8.6501580  31.5651670  66.5286530   4.5044940  34.3719010
  67.2905440   5.0741590  34.4778700  66.5440900   3.9372140  35.1427320
  50.0290870   3.0282870  38.6026670  49.3739710   2.7594510  37.9586370
  50.8668820   2.9187350  38.1528650  67.5346500   5.3595040  39.2160940
  67.9055330   4.5762360  38.8096910  68.1748430   6.0484140  39.0378240
  64.5180260   6.7431620  44.6291260  63.7040100   7.1728780  44.8917050
  64.9254460   7.3550030  44.0160310  66.5805700   4.7979310  31.5291530
  66.8554540   5.7058190  31.4010750  66.3916440   4.7341840  32.4653520
  66.4771040   2.7348300  36.5220960  66.1014640   1.9676230  36.0902250
  65.7474160   3.1171000  37.0095890  51.0666800   3.4135440  43.1430010
  51.4339840   3.3262840  44.0226030  50.4977620   2.6501990  43.0436870
  65.8670660   1.8819820  46.1560480  65.6356750   1.6532570  45.2558430
  66.1275210   2.8019370  46.1105370  64.5756310  11.4950220  38.1559530
  65.1715380  11.1734790  37.4793950  64.8334460  11.0222040  38.9472800
  52.4818880   7.9268130  48.3050160  52.4388510   7.5561040  49.1864620
  52.6129890   8.8645700  48.4451980  56.1824910   9.4827720  43.9059880
  55.9416270   9.7502280  43.0190400  57.1227550   9.6533450  43.9610740
  67.4429070  11.5022100  44.7070520  66.9487350  11.8990970  43.9897650
  66.8342360  10.8771310  45.1007800  52.3206910  10.8730380  45.4247940
  51.7267230  10.7415080  46.1637980  52.3130750  10.0368520  44.9590040
  65.1268520  12.1445520  41.9857260  64.6671490  12.8961330  41.6115280
  64.4980980  11.4251990  41.9272060  51.9519140   8.2388760  44.3755980
  51.2253200   7.6194050  44.3081930  52.0128290   8.6329370  43.5054060
  55.5564240  10.4533760  41.1605390  56.0729260   9.8421120  40.6353650
  56.2061620  10.9562540  41.6516400  58.2959740  11.3442250  41.9874370
  58.5837550  11.0896550  41.1107380  58.8082960  10.7919610  42.5779940
  50.2349140  11.5563150  37.5852740  50.0671180  10.9233830  38.2834630
  49.3683650  11.7622550  37.2346930  51.8411840  10.2496380  35.0302880
  51.3159460  10.6304410  34.3264840  51.7656420  10.8747150  35.7512590
  58.3632100  12.2658350  49.3542570  59.2899410  12.0302620  49.3978530
  58.3482530  13.0930350  48.8728600  66.5977160  11.8083920  36.3516820
  66.7729350  11.1221660  35.7077740  65.8998730  12.3330970  35.9593490
  54.4404810  12.1978760  33.9052130  55.1723630  11.9138040  33.3576020
  54.6998480  11.9592040  34.7951510  53.6019600   8.3143490  33.9098460
  52.9728480   8.7828590  34.4584290  53.7167430   7.4692710  34.3444650
  64.9309660  11.4928210  49.1783610  65.7234980  10.9977440  48.9709570
  65.2242810  12.1718350  49.7859220  59.1887360   4.1428170  21.9408930
  58.4129460   3.6628610  22.2307500  59.8400290   3.4633820  21.7665090
  53.2053190   4.4547980  22.8184690  52.3738070   4.1996690  23.2181200
  53.8134170   4.5258750  23.5542610  63.2094790   8.5488360  20.7208060
  62.7476320   7.7775600  21.0495230  64.0220340   8.5754430  21.2260510
  53.1854450   8.4888070  23.0142710  53.4882490   7.5985810  22.8352930
  53.9298040   9.0458290  22.7864960  59.4358100  10.8346370  20.3412050
  58.8169540  11.2903870  19.7706490  60.2909880  10.9897830  19.9401750
  58.6296350   6.8185360  21.9479090  58.5604630   5.8775300  21.7868220
  59.3916210   6.9086770  22.5201660  60.3021450   5.7185610  17.7343960
  59.6838720   6.1835060  17.1706680  60.8144700   6.4113090  18.1513470
  55.1653210   5.2461480  24.4127560  54.8322590   5.8730400  25.0548630
  55.3419890   5.7723360  23.6329230  54.3772310   7.2142280  26.2276740
  54.9946310   7.8893360  25.9461190  53.5165430   7.6230260  26.1364240
  49.6704650   6.4042140  15.1083590  49.2932630   6.8929240  14.3768490
  49.9277720   7.0767420  15.7390120  65.2949900   8.6781690  24.1431380
  64.6113420   9.3480800  24.1348050  65.8344190   8.8762340  23.3776240
  62.8308640  10.5225820  22.8576560  62.8435800  10.1188110  21.9898820
  62.2783860  11.2973110  22.7537990  64.1254060   7.2442040  17.9466730
  64.0150390   6.3016370  18.0716150  64.1222310   7.6057680  18.8329490
  62.2294080   5.4255660  24.1859170  62.6462870   5.2115770  23.3512630
  62.9533900   5.6828450  24.7567790  59.6674340   2.8707360  17.3029220
  58.7403620   2.8044740  17.5317690  59.8199160   3.8087490  17.1884460
  66.1756180   3.8242880  24.2775410  65.3474810   3.8935970  23.8025540
  66.7706660   4.4097190  23.8091240  63.6971630   4.4327660  17.8064470
  63.0784050   4.0947210  17.1590770  63.6796080   3.7887420  18.5143660
  55.2730980   3.3972100  20.0848950  54.8687980   2.6849350  19.5894850
  55.3594100   3.0525340  20.9736990  55.7412680   7.0839660  22.2488160
  55.4440970   6.4785130  21.5695940  56.6912500   7.1216970  22.1377520
  63.8298290  10.6571530  25.9111260  63.3528850  11.4643720  25.7183870
  63.1460080  10.0049860  26.0637470  54.8331110   6.8221350  28.8995960
  53.9359640   7.0461320  29.1469360  54.8583980   6.9456290  27.9507360
  61.8736330   3.6714470  14.8137220  62.3129610   2.8336900  14.6675040
  62.5864750   4.3043870  14.9001360  53.6602330   3.6934670  27.4753330
  53.5210100   4.5657470  27.8440730  52.7783690   3.3507480  27.3301270
  59.9831710   8.6110540  18.7818460  60.4227620   9.3534870  18.3673850
  59.9218600   8.8537110  19.7057420  55.4582680   9.6356370  29.6838480
  55.4298110  10.0399320  28.8166910  55.2947650   8.7066730  29.5210080
  67.4097500  10.4183470  30.9802650  67.8857220  10.8966360  31.6591730
  68.0304660  10.3500960  30.2548150  49.6120980   5.4632220  23.3924240
  49.6901400   5.5980990  22.4479960  50.2262660   4.7548110  23.5852360
  50.8568610   7.1632410  19.8030420  50.4496690   7.3047000  18.9484020
  51.7481620   6.8792570  19.6001630  66.8130750   7.6096320  28.1402660
  66.9393810   7.3708200  27.2219840  66.8552130   6.7780860  28.6124740
  60.6747490  11.3124320  26.7097470  61.1892160  11.2232330  27.5119900
  59.8316570  11.6584020  27.0025380  62.6501890  11.5979660  16.1381470
  62.4903030  11.3082600  17.0363300  62.4848600  10.8219790  15.6026700
  55.1290270  11.3778190  17.9153090  54.9532750  10.4613730  17.7020890
  54.2746010  11.7365480  18.1550890  62.3528020   9.1067220  14.6979470
  61.6593180   9.1044510  14.0381750  63.0950880   8.6826540  14.2673640
  61.9177950  10.7329930  18.7727960  62.3734900   9.9519310  19.0866580
  62.2570470  11.4436750  19.3169140  49.6680500   6.5046390  25.9318700
  49.8311540   6.0351750  25.1138070  50.1332950   5.9969950  26.5967540
  51.2419480   5.8797820  28.0914510  50.8574270   5.2391490  28.6897470
  51.5531670   6.5833940  28.6609240  57.3916620   2.7274360  23.5723130
  57.7586750   2.2532930  24.3184470  57.2021680   3.6015930  23.9131470
  55.1815990   1.7683000  25.8907340  54.8773060   2.6474980  26.1157700
  56.1362450   1.8282790  25.9264780  53.7097780   5.9743990  16.4874190
  52.9360040   5.4341610  16.3272910  54.4392410   5.4550600  16.1491950
  64.4685760   4.9709350  22.2800580  65.1884880   5.4664640  21.8896690
  64.2667580   4.2927240  21.6354450  59.8504560   5.0418410  28.1669580
  59.7841870   4.1214080  27.9127170  59.2209700   5.1393850  28.8814220
  53.7535180   5.6424370  20.1253000  54.2713850   4.8392630  20.0709890
  53.3019200   5.5803510  20.9669830  58.6404680   6.9090650  15.3980300
  58.9820380   7.6532880  14.9023620  57.8117390   7.2221770  15.7605130
  51.2379720   2.6085740  27.0378700  50.8794660   3.2739590  27.6252040
  50.9434280   1.7769290  27.4091320  54.4392840   3.0669980  29.9218250
  54.1392980   3.2127160  29.0246070  55.2104080   2.5075270  29.8291640
  59.7821290   7.8638980  27.9173380  59.7965830   6.9319940  27.6992290
  59.0746390   7.9498740  28.5563150  64.9158360   2.0478800  14.1871990
  64.8322080   2.4793020  13.3368430  65.6352550   2.5077150  14.6198810
  65.9932500   4.5046320  27.2641960  65.2680690   5.0975100  27.0671350
  66.5207960   4.4969860  26.4655330  65.9445610   8.9021060  16.9154120
  65.3021770   8.2476680  17.1897840  65.5576270   9.3076150  16.1394790
  61.5232090   6.2306490  20.7625810  61.8755910   5.6334620  20.1027180
  60.6394420   5.9050720  20.9334060  57.6095370   6.9904180  18.1696220
  58.2966500   7.5373390  18.5503810  56.8227790   7.5344910  18.2045830
  49.7487770   2.6077000  13.6613300  50.6182620   2.8901800  13.9449220
  49.2578090   3.4212870  13.5462110  56.9122580   3.9950210  17.7821580
  57.3685360   4.8055460  18.0081770  56.5610790   3.6773350  18.6140070
  59.2155190   9.5056550  25.0113880  59.8597410   9.7115930  25.6887300
  59.5784630   8.7444950  24.5584730  60.4887270   7.5088900  23.7291330
  61.1309500   6.8082060  23.8423500  61.0136620   8.2887340  23.5488220
  64.3342990   7.7937520  13.4530470  64.1080570   7.0767960  14.0455110
  63.9439190   7.5449960  12.6152220  62.2624890   8.3083800  26.9327390
  62.5981130   8.8950490  27.6105310  61.3425230   8.1776510  27.1625180
  50.1159020  11.8204380  14.2274930  50.4756660  12.4193720  13.5732200
  49.9751360  12.3664270  15.0009960  63.9159240   5.7109460  15.1144630
  63.6280940   6.1722150  15.9022510  64.7111410   5.2507230  15.3828850
  50.1000880  10.0859240  28.7017330  50.2092000   9.1453980  28.5612720
  49.4481440  10.3513990  28.0531060  58.0913470   8.3575130  30.1015450
  57.7710340   7.6384370  30.6461140  57.4171830   9.0330200  30.1751510
  56.1327640   9.2035580  15.0448600  56.1237740   9.9365270  14.4293110
  55.2126000   8.9567160  15.1375560  51.7334280   4.4250470  15.7895360
  51.1262230   5.1649370  15.7990660  52.2083630   4.5149830  14.9633560
  59.1187240   9.2663820  13.7073790  59.2199220   9.0627810  12.7775770
  58.2188980   9.0122100  13.9121570  57.7605350  11.7850140  18.4021460
  58.0146850  11.7471530  17.4800830  56.8117830  11.6583470  18.3949710
  63.7657930   2.7042020  19.9779970  62.8248070   2.7192250  20.1527660
  64.0802000   1.9177980  20.4240270  53.7439570   4.3861620  13.5383930
  54.5102840   4.2742980  14.1009360  53.8214260   3.6899590  12.8860700
  65.7683510   9.8750870  21.6534230  65.8930930  10.6982040  22.1258040
  66.6349070   9.6641600  21.3058380  53.2401040  11.9682080  21.3251360
  53.9763520  11.4197540  21.5959930  53.6241960  12.8338090  21.1857350
  50.1246520   8.0355650  17.1992870  49.1986300   8.2776790  17.1898280
  50.5902950   8.8629910  17.0777620  52.2459320  11.1528150  30.5136940
  53.0472050  11.4740200  30.9272340  51.7311140  10.7923730  31.2356850
  56.3503350  11.1412390  13.1476930  57.1431960  11.4301220  12.6958720
  55.8307700  10.7104560  12.4689410  61.0823950   7.2608020  30.4612350
  60.4762110   7.2839620  29.7208100  60.7778060   6.5291060  30.9979600
  62.5124320  10.9888310  29.0721760  63.4646070  10.9046330  29.0222000
  62.3652540  11.6530020  29.7455550  65.4033520  10.3682520  14.5713670
  65.1175030   9.9547660  13.7567850  65.2053070  11.2970230  14.4514190
  49.9657130   3.6401610  29.4572990  50.4696150   3.0608890  30.0289220
  49.2264550   3.9241840  29.9949360  56.8680750   6.3615800  13.0119280
  56.7631390   5.7468150  13.7380660  56.7004970   5.8381690  12.2282290
  57.0195070   5.0472600  28.9908510  56.2540740   5.6157600  28.9063180
  57.2011030   4.7548810  28.0976740  60.1083480   5.4235830  13.6161270
  59.5593580   5.8705130  14.2604010  60.7302740   4.9185080  14.1398940
  64.1618420   6.7777930  29.5483530  64.9027890   7.1153690  29.0450990
  63.3991100   6.9469990  28.9953300  55.7758600   4.3826750  15.5126570
  56.1975020   4.2166620  16.3557960  55.9009440   3.5726980  15.0181710
  58.2886240   3.4064360  12.7603670  58.8091900   2.6913380  12.3944820
  58.9354640   4.0450230  13.0604180  62.8364080   4.8292760  28.0838740
  63.2505100   4.9837840  28.9329160  61.9015080   4.9547980  28.2464520
  57.5979310   4.7813240  26.0534670  58.0167420   5.6245970  25.8810910
  56.6787940   4.9185280  25.8241450  59.9343210   2.5129420  27.4372510
  60.0539420   1.9170560  28.1767350  60.7937210   2.5499110  27.0173810
  62.2731110   3.0666610  26.0135020  61.7466330   3.5909230  25.4100160
  62.6162450   3.6994000  26.6444750  55.4486730  11.0866250  27.1692400
  54.9107820  11.8112310  26.8501100  55.7020690  10.6096590  26.3789740
  58.3048940  12.3217460  27.4279050  58.2307640  13.2252600  27.7351420
  57.4027780  12.0029360  27.4001120  58.8534270  11.4875970  15.0505410
  59.7485060  11.8260940  15.0724170  58.8851900  10.7655380  14.4229690
  52.4930430   6.8603020  13.2792410  52.9305300   7.4032690  13.9349990
  52.9778160   6.0349970  13.2888750  49.7076230   9.6492050  20.7312670
  50.0379240   8.7813110  20.4991310  50.1367230   9.8550570  21.5617630
  54.3038150   7.9801060  18.3914640  54.0033690   7.8566030  19.2918550
  54.1975640   7.1209650  17.9830370  50.1966440  10.5162640  23.4694300
  49.7597430  10.6963440  24.3018450  50.7644120  11.2737260  23.3276020
  65.8328620  10.0179640  27.7571610  65.2330610  10.0772200  27.0135530
  65.9622520   9.0784620  27.8868460  67.0730070   7.7597460  13.0941320
  66.2423030   7.8274110  13.5648550  67.2501900   8.6501580  12.7908180
  66.5286530   4.5044940  15.5975520  67.2905440   5.0741590  15.7035210
  66.5440900   3.9372140  16.3683830  50.0290870   3.0282870  19.8283180
  49.3739710   2.7594510  19.1842880  50.8668820   2.9187350  19.3785160
  67.5346500   5.3595040  20.4417450  67.9055330   4.5762360  20.0353420
  68.1748430   6.0484140  20.2634750  64.5180260   6.7431620  25.8547770
  63.7040100   7.1728780  26.1173560  64.9254460   7.3550030  25.2416820
  66.5805700   4.7979310  12.7548040  66.8554540   5.7058190  12.6267260
  66.3916440   4.7341840  13.6910030  66.4771040   2.7348300  17.7477470
  66.1014640   1.9676230  17.3158760  65.7474160   3.1171000  18.2352400
  51.0666800   3.4135440  24.3686520  51.4339840   3.3262840  25.2482540
  50.4977620   2.6501990  24.2693380  65.8670660   1.8819820  27.3816990
  65.6356750   1.6532570  26.4814940  66.1275210   2.8019370  27.3361880
  64.5756310  11.4950220  19.3816040  65.1715380  11.1734790  18.7050460
  64.8334460  11.0222040  20.1729310  52.4818880   7.9268130  29.5306670
  52.4388510   7.5561040  30.4121130  52.6129890   8.8645700  29.6708490
  56.1824910   9.4827720  25.1316390  55.9416270   9.7502280  24.2446910
  57.1227550   9.6533450  25.1867250  67.4429070  11.5022100  25.9327030
  66.9487350  11.8990970  25.2154160  66.8342360  10.8771310  26.3264310
  52.3206910  10.8730380  26.6504450  51.7267230  10.7415080  27.3894490
  52.3130750  10.0368520  26.1846550  65.1268520  12.1445520  23.2113770
  64.6671490  12.8961330  22.8371790  64.4980980  11.4251990  23.1528570
  51.9519140   8.2388760  25.6012490  51.2253200   7.6194050  25.5338440
  52.0128290   8.6329370  24.7310570  55.5564240  10.4533760  22.3861900
  56.0729260   9.8421120  21.8610160  56.2061620  10.9562540  22.8772910
  58.2959740  11.3442250  23.2130880  58.5837550  11.0896550  22.3363890
  58.8082960  10.7919610  23.8036450  50.2349140  11.5563150  18.8109250
  50.0671180  10.9233830  19.5091140  49.3683650  11.7622550  18.4603440
  51.8411840  10.2496380  16.2559390  51.3159460  10.6304410  15.5521350
  51.7656420  10.8747150  16.9769100  58.3632100  12.2658350  30.5799080
  59.2899410  12.0302620  30.6235040  58.3482530  13.0930350  30.0985110
  66.5977160  11.8083920  17.5773330  66.7729350  11.1221660  16.9334250
  65.8998730  12.3330970  17.1850000  54.4404810  12.1978760  15.1308640
  55.1723630  11.9138040  14.5832530  54.6998480  11.9592040  16.0208020
  53.6019600   8.3143490  15.1354970  52.9728480   8.7828590  15.6840800
  53.7167430   7.4692710  15.5701160  64.9309660  11.4928210  30.4040120
  65.7234980  10.9977440  30.1966080  65.2242810  12.1718350  31.0115730
  59.1887360   4.1428170   3.1665440  58.4129460   3.6628610   3.4564010
  59.8400290   3.4633820   2.9921600  53.2053190   4.4547980   4.0441200
  52.3738070   4.1996690   4.4437710  53.8134170   4.5258750   4.7799120
  63.2094790   8.5488360   1.9464570  62.7476320   7.7775600   2.2751740
  64.0220340   8.5754430   2.4517020  53.1854450   8.4888070   4.2399220
  53.4882490   7.5985810   4.0609440  53.9298040   9.0458290   4.0121470
  58.6296350   6.8185360   3.1735600  58.5604630   5.8775300   3.0124730
  59.3916210   6.9086770   3.7458170  55.1653210   5.2461480   5.6384070
  54.8322590   5.8730400   6.2805140  55.3419890   5.7723360   4.8585740
  54.3772310   7.2142280   7.4533250  54.9946310   7.8893360   7.1717700
  53.5165430   7.6230260   7.3620750  65.2949900   8.6781690   5.3687890
  64.6113420   9.3480800   5.3604560  65.8344190   8.8762340   4.6032750
  62.8308640  10.5225820   4.0833070  62.8435800  10.1188110   3.2155330
  62.2783860  11.2973110   3.9794500  62.2294080   5.4255660   5.4115680
  62.6462870   5.2115770   4.5769140  62.9533900   5.6828450   5.9824300
  66.1756180   3.8242880   5.5031920  65.3474810   3.8935970   5.0282050
  66.7706660   4.4097190   5.0347750  55.7412680   7.0839660   3.4744670
  55.4440970   6.4785130   2.7952450  56.6912500   7.1216970   3.3634030
  63.8298290  10.6571530   7.1367770  63.3528850  11.4643720   6.9440380
  63.1460080  10.0049860   7.2893980  54.8331110   6.8221350  10.1252470
  53.9359640   7.0461320  10.3725870  54.8583980   6.9456290   9.1763870
  53.6602330   3.6934670   8.7009840  53.5210100   4.5657470   9.0697240
  52.7783690   3.3507480   8.5557780  55.4582680   9.6356370  10.9094990
  55.4298110  10.0399320  10.0423420  55.2947650   8.7066730  10.7466590
  67.4097500  10.4183470  12.2059160  67.8857220  10.8966360  12.8848240
  68.0304660  10.3500960  11.4804660  49.6120980   5.4632220   4.6180750
  49.6901400   5.5980990   3.6736470  50.2262660   4.7548110   4.8108870
  66.8130750   7.6096320   9.3659170  66.9393810   7.3708200   8.4476350
  66.8552130   6.7780860   9.8381250  60.6747490  11.3124320   7.9353980
  61.1892160  11.2232330   8.7376410  59.8316570  11.6584020   8.2281890
  49.6680500   6.5046390   7.1575210  49.8311540   6.0351750   6.3394580
  50.1332950   5.9969950   7.8224050  51.2419480   5.8797820   9.3171020
  50.8574270   5.2391490   9.9153980  51.5531670   6.5833940   9.8865750
  57.3916620   2.7274360   4.7979640  57.7586750   2.2532930   5.5440980
  57.2021680   3.6015930   5.1387980  55.1815990   1.7683000   7.1163850
  54.8773060   2.6474980   7.3414210  56.1362450   1.8282790   7.1521290
  64.4685760   4.9709350   3.5057090  65.1884880   5.4664640   3.1153200
  64.2667580   4.2927240   2.8610960  59.8504560   5.0418410   9.3926090
  59.7841870   4.1214080   9.1383680  59.2209700   5.1393850  10.1070730
  51.2379720   2.6085740   8.2635210  50.8794660   3.2739590   8.8508550
  50.9434280   1.7769290   8.6347830  54.4392840   3.0669980  11.1474760
  54.1392980   3.2127160  10.2502580  55.2104080   2.5075270  11.0548150
  59.7821290   7.8638980   9.1429890  59.7965830   6.9319940   8.9248800
  59.0746390   7.9498740   9.7819660  65.9932500   4.5046320   8.4898470
  65.2680690   5.0975100   8.2927860  66.5207960   4.4969860   7.6911840
  59.2155190   9.5056550   6.2370390  59.8597410   9.7115930   6.9143810
  59.5784630   8.7444950   5.7841240  60.4887270   7.5088900   4.9547840
  61.1309500   6.8082060   5.0680010  61.0136620   8.2887340   4.7744730
  62.2624890   8.3083800   8.1583900  62.5981130   8.8950490   8.8361820
  61.3425230   8.1776510   8.3881690  50.1000880  10.0859240   9.9273840
  50.2092000   9.1453980   9.7869230  49.4481440  10.3513990   9.2787570
  58.0913470   8.3575130  11.3271960  57.7710340   7.6384370  11.8717650
  57.4171830   9.0330200  11.4008020  65.7683510   9.8750870   2.8790740
  65.8930930  10.6982040   3.3514550  66.6349070   9.6641600   2.5314890
  53.2401040  11.9682080   2.5507870  53.9763520  11.4197540   2.8216440
  53.6241960  12.8338090   2.4113860  52.2459320  11.1528150  11.7393450
  53.0472050  11.4740200  12.1528850  51.7311140  10.7923730  12.4613360
  61.0823950   7.2608020  11.6868860  60.4762110   7.2839620  10.9464610
  60.7778060   6.5291060  12.2236110  62.5124320  10.9888310  10.2978270
  63.4646070  10.9046330  10.2478510  62.3652540  11.6530020  10.9712060
  49.9657130   3.6401610  10.6829500  50.4696150   3.0608890  11.2545730
  49.2264550   3.9241840  11.2205870  57.0195070   5.0472600  10.2165020
  56.2540740   5.6157600  10.1319690  57.2011030   4.7548810   9.3233250
  64.1618420   6.7777930  10.7740040  64.9027890   7.1153690  10.2707500
  63.3991100   6.9469990  10.2209810  62.8364080   4.8292760   9.3095250
  63.2505100   4.9837840  10.1585670  61.9015080   4.9547980   9.4721030
  57.5979310   4.7813240   7.2791180  58.0167420   5.6245970   7.1067420
  56.6787940   4.9185280   7.0497960  59.9343210   2.5129420   8.6629020
  60.0539420   1.9170560   9.4023860  60.7937210   2.5499110   8.2430320
  62.2731110   3.0666610   7.2391530  61.7466330   3.5909230   6.6356670
  62.6162450   3.6994000   7.8701260  55.4486730  11.0866250   8.3948910
  54.9107820  11.8112310   8.0757610  55.7020690  10.6096590   7.6046250
  58.3048940  12.3217460   8.6535560  58.2307640  13.2252600   8.9607930
  57.4027780  12.0029360   8.6257630  49.7076230   9.6492050   1.9569180
  50.0379240   8.7813110   1.7247820  50.1367230   9.8550570   2.7874140
  50.1966440  10.5162640   4.6950810  49.7597430  10.6963440   5.5274960
  50.7644120  11.2737260   4.5532530  65.8328620  10.0179640   8.9828120
  65.2330610  10.0772200   8.2392040  65.9622520   9.0784620   9.1124970
  64.5180260   6.7431620   7.0804280  63.7040100   7.1728780   7.3430070
  64.9254460   7.3550030   6.4673330  51.0666800   3.4135440   5.5943030
  51.4339840   3.3262840   6.4739050  50.4977620   2.6501990   5.4949890
  65.8670660   1.8819820   8.6073500  65.6356750   1.6532570   7.7071450
  66.1275210   2.8019370   8.5618390  52.4818880   7.9268130  10.7563180
  52.4388510   7.5561040  11.6377640  52.6129890   8.8645700  10.8965000
  56.1824910   9.4827720   6.3572900  55.9416270   9.7502280   5.4703420
  57.1227550   9.6533450   6.4123760  67.4429070  11.5022100   7.1583540
  66.9487350  11.8990970   6.4410670  66.8342360  10.8771310   7.5520820
  52.3206910  10.8730380   7.8760960  51.7267230  10.7415080   8.6151000
  52.3130750  10.0368520   7.4103060  65.1268520  12.1445520   4.4370280
  64.6671490  12.8961330   4.0628300  64.4980980  11.4251990   4.3785080
  51.9519140   8.2388760   6.8269000  51.2253200   7.6194050   6.7594950
  52.0128290   8.6329370   5.9567080  55.5564240  10.4533760   3.6118410
  56.0729260   9.8421120   3.0866670  56.2061620  10.9562540   4.1029420
  58.2959740  11.3442250   4.4387390  58.5837550  11.0896550   3.5620400
  58.8082960  10.7919610   5.0292960  58.3632100  12.2658350  11.8055590
  59.2899410  12.0302620  11.8491550  58.3482530  13.0930350  11.3241620
  64.9309660  11.4928210  11.6296630  65.7234980  10.9977440  11.4222590
  65.2242810  12.1718350  12.2372240  42.2825830 152.5597070 151.4804090
  42.2019880 151.6451680 151.2095800  41.8690250 153.0564140 150.7743800
  40.4143870 154.3376090 153.3613360  39.6385970 153.8576530 153.6511930
  41.0656800 153.6581740 153.1869520  32.8401650 149.6097790 148.0231510
  31.9518350 149.9513760 147.9211390  33.1242840 149.4098110 147.1312340
  30.8034660 152.2103440 153.9071210  31.3750770 151.4425640 153.9074850
  30.8036200 152.5092200 152.9977820  40.8858030 149.8203660 153.5952450
  41.2622850 148.9475540 153.4826120  40.7877540 150.1562360 152.7042890
  35.0163040 148.1929290 149.0569890  35.1229790 149.0933020 149.3638650
  34.1055400 148.1447260 148.7664540  44.6682150 147.3154100 150.5280790
  45.4891770 146.8250670 150.5706270  44.7016230 147.9051760 151.2812630
  36.8570770 151.1615660 153.3895070  37.3648990 151.6596630 154.0300090
  37.3884010 150.3850860 153.2134430  44.9043630 149.2554480 153.3008330
  44.1999200 149.5439370 153.8811440  45.2655790 150.0654590 152.9407890
  47.9730550 148.7009270 153.6917540  47.0255460 148.7348250 153.8232970
  48.2980540 149.5148220 154.0766900  38.5050090 145.0006450 151.9873530
  38.8125070 144.4453340 151.2709030  37.5750790 145.1350910 151.8046520
  40.8930850 153.0655280 148.7233650  39.9660130 152.9992660 148.9522120
  41.0455670 154.0035410 148.6088890  40.8799930 149.3372280 145.7200810
  39.9403600 149.4986240 145.8053270  41.1983190 150.0557960 145.1736800
  44.9228140 154.6275580 149.2268900  44.3040560 154.2895130 148.5795200
  44.9052590 153.9835340 149.9348090  36.4987490 153.5920020 151.5053380
  36.0944490 152.8797270 151.0099280  36.5850610 153.2473260 152.3941420
  43.0992840 153.8662390 146.2341650  43.5386120 153.0284820 146.0879470
  43.8121260 154.4991790 146.3205790  46.6809980 145.1205200 144.5482690
  46.3682640 145.2132030 145.4481760  47.4422450 145.6986230 144.4980120
  33.1992120 152.4865000 149.0060030  33.0789720 153.2127090 148.3941300
  32.8893010 151.7167910 148.5287940  35.6655780 145.8300070 152.3883700
  35.2223930 146.6109610 152.0568220  36.2240770 146.1529960 153.0954640
  38.7814600 145.4510770 147.2689530  38.1568780 145.4470640 147.9942840
  38.6944720 144.5841730 146.8725500  37.7031680 146.3747400 154.2473300
  38.0004010 147.2810230 154.1665320  38.2517240 145.8866180 153.6332870
  35.4570000 150.9533640 150.1164950  35.2310920 150.7370810 151.0211570
  34.6762530 151.3862100 149.7710920  42.6867760 150.9597010 148.7155600
  42.0876650 151.6832810 148.5319220  43.2347370 150.8973790 147.9332050
  41.2932630 149.5960550 150.7458880  41.6862200 149.9132750 149.9327570
  41.6549480 148.7172430 150.8603400  30.3296800 146.1861350 152.9689080
  30.0409850 146.7564210 153.6814060  31.0742560 145.7065800 153.3320310
  30.5167030 150.1281470 144.1791800  30.4341700 151.0712230 144.3206790
  30.1650090 149.9856380 143.3004150  38.3165160 148.8620500 153.2462150
  38.3201220 148.4210450 152.3966690  39.2116280 149.1837830 153.3533970
  34.1667540 148.7446990 152.2056360  33.8267590 149.2222220 152.9623410
  33.4044860 148.2912110 151.8457460  38.3785310 149.8632580 146.2368910
  38.4998130 149.8219060 147.1854730  37.9933820 150.7256730 146.0815640
  37.3906810 152.1733720 145.6352210  36.8223710 151.7251970 145.0088120
  38.0995810 152.5326500 145.1017360  31.4813620 147.6665970 151.1221030
  31.1960540 147.3021640 151.9599650  31.4192480 146.9346430 150.5084170
  41.1552210 146.5595230 147.8434400  40.3416820 146.0608400 147.7679710
  40.9614160 147.3993480 147.4270750  43.8700600 150.9314880 146.1396560
  44.7580220 151.2432110 145.9647900  43.8405690 150.0587130 145.7477140
  46.1414870 152.2426720 145.6076420  46.0578590 152.6740940 144.7572860
  46.8609060 152.7025070 146.0403240  30.9744280 152.8024920 145.0817730
  31.8439130 153.0849720 145.3653650  30.4834600 153.6160790 144.9666540
  34.0390870 144.5335780 149.6748530  33.9105500 144.5253680 150.6233450
  33.2152890 144.8718870 149.3239540  45.8985610 147.7406150 147.6944240
  45.2698770 147.8451820 146.9802470  45.4037530 147.9602930 148.4838120
  37.8669640 150.0192100 149.1102120  37.1585790 150.4878440 149.5515730
  38.1514120 149.3614110 149.7447310  41.8985070 146.7442760 150.5497910
  41.7752850 146.7628890 149.6007420  42.8469630 146.7921700 150.6696310
  36.0704660 148.3277180 146.4852830  36.9195190 148.7647330 146.4193020
  35.7035930 148.6397440 147.3124890  44.9914440 152.8989940 151.3984400
  44.0504580 152.9140170 151.5732090  45.3058510 152.1125900 151.8444700
  34.9696080 154.5809540 144.9588360  35.7359350 154.4690900 145.5213790
  35.0470770 153.8847510 144.3065130  33.6642840 152.0134610 145.6421250
  33.7446430 151.0662120 145.7538650  34.5562590 152.3441490 145.7481910
  37.0015110 154.5774670 146.9331000  37.4231530 154.4114540 147.7762390
  37.1265950 153.7674900 146.4386140  39.5142750 153.6012280 144.1808100
  40.0348410 152.8861300 143.8149250  40.1611150 154.2398150 144.4808610
  35.8974010 150.6507900 143.8789160  35.6963070 149.7875260 144.2402500
  35.7266060 150.5641260 142.9410760  43.3762320 145.4616130 146.4076040
  43.6564610 144.6184030 146.7635460  42.6028050 145.6939240 146.9214790
  34.6956810 147.7508520 143.8667040  34.9982710 147.7575950 142.9586190
  35.4351400 147.4006380 144.3634700  37.9141740 146.6943140 144.8523240
  37.5663740 146.0167130 144.2725690  38.1154510 146.2332650 145.6666630
  31.2547380 153.2230790 151.2487610  30.5996220 152.9542430 150.6047310
  32.0925330 153.1135270 150.7989590  44.2037820 148.0172080 145.4706100
  44.6222700 147.8303060 144.6302760  43.8973880 147.1651130 145.7809030
  47.7027550 152.9296220 149.1681900  47.3271150 152.1624150 148.7363190
  46.9730670 153.3118920 149.6556830  30.4685460 150.4329720 147.1912940
  29.5649540 150.6959920 147.0164600  30.9526080 150.7040890 146.4112900
  46.9778510 151.1553710 152.4689140  47.5015990 150.6616360 151.8379310
  47.5637930 151.2904070 153.2136710  33.0112670 149.4895260 145.1007320
  33.7204370 149.0678480 144.6154600  32.2952610 149.5570490 144.4690670
  32.6586830 145.5434590 144.1409970  33.3814960 146.0843530 144.4591190
  32.9311350 145.2698010 143.2651510  46.4678480 150.4127060 148.4081550
  46.9637600 150.1797930 149.1930430  46.2694550 149.5738900 147.9919190
  47.8965640 149.0488010 150.9419230  47.7864920 148.8944050 151.8801500
  48.6573230 148.5208950 150.6994640  48.7855910 146.8795930 144.1825370
  49.7105220 146.7477110 143.9743660  48.7631700 146.9588750 145.1361820
  48.8594400 147.6506590 146.8082080  48.0645900 147.5851710 147.3374990
  49.0637680 148.5857230 146.7967430  45.2914330 145.9803470 153.2580910
  45.7322420 145.9248570 152.4102510  45.0221920 146.8961480 153.3291090
  47.1552900 145.6118710 151.2689730  47.0941300 144.6679930 151.1220750
  47.9344930 145.7198800 151.8143190  32.0833670 145.5827850 147.7345540
  32.8413030 145.6956730 147.1609570  31.6210840 146.4197050 147.6888970
  38.6247480 147.6967120 150.7247850  37.8121990 147.3224010 150.3843730
  39.1289120 146.9412200 151.0269040  43.1272460 144.3609570 151.9630920
  43.7301830 144.9329780 152.4379440  42.3865450 144.9249010 151.7404820
  46.2707060 144.7631130 147.2371200  46.4657690 145.6614580 147.5038630
  45.4836930 144.5318210 147.7304150  34.4558820 146.1091900 146.2747510
  34.9851580 145.3221700 146.1455460  35.0887140 146.7883090 146.5083040
  36.6496660 145.8467040 149.3292900  36.0199400 145.1454350 149.4963030
  36.1101800 146.6071170 149.1126060  42.2825830 152.5597070 132.7060600
  42.2019880 151.6451680 132.4352310  41.8690250 153.0564140 132.0000310
  40.4143870 154.3376090 134.5869870  39.6385970 153.8576530 134.8768440
  41.0656800 153.6581740 134.4126030  34.4309700 154.6495900 135.4645630
  33.5994580 154.3944610 135.8642140  35.0390680 154.7206670 136.2003550
  32.8401650 149.6097790 129.2488020  31.9518350 149.9513760 129.1467900
  33.1242840 149.4098110 128.3568850  30.8034660 152.2103440 135.1327720
  31.3750770 151.4425640 135.1331360  30.8036200 152.5092200 134.2234330
  32.0459530 147.6187800 136.9196650  31.8662370 146.7213550 137.1999410
  31.6439610 148.1659670 137.5943600  40.8858030 149.8203660 134.8208960
  41.2622850 148.9475540 134.7082630  40.7877540 150.1562360 133.9299400
  35.0163040 148.1929290 130.2826400  35.1229790 149.0933020 130.5895160
  34.1055400 148.1447260 129.9921050  44.6682150 147.3154100 131.7537300
  45.4891770 146.8250670 131.7962780  44.7016230 147.9051760 132.5069140
  32.6646200 150.1148300 135.5278990  33.3456310 150.3786670 136.1466390
  32.3494250 149.2749170 135.8617000  36.8570770 151.1615660 134.6151580
  37.3648990 151.6596630 135.2556600  37.3884010 150.3850860 134.4390940
  48.9581700 149.3320850 138.3180930  48.2533870 149.7202560 137.7996040
  49.2239620 150.0271140 138.9201860  35.1406870 145.8014220 138.8815000
  35.1425310 146.3186610 138.0760900  34.3111180 145.3244400 138.8584930
  44.9043630 149.2554480 134.5264840  44.1999200 149.5439370 135.1067950
  45.2655790 150.0654590 134.1664400  34.8222200 147.5124180 136.8885450
  35.1639010 148.3566230 136.5939320  33.8838010 147.6607920 137.0050790
  47.9730550 148.7009270 134.9174050  47.0255460 148.7348250 135.0489480
  48.2980540 149.5148220 135.3023410  38.5050090 145.0006450 133.2130040
  38.8125070 144.4453340 132.4965540  37.5750790 145.1350910 133.0303030
  40.8930850 153.0655280 129.9490160  39.9660130 152.9992660 130.1778630
  41.0455670 154.0035410 129.8345400  40.8799930 149.3372280 126.9457320
  39.9403600 149.4986240 127.0309780  41.1983190 150.0557960 126.3993310
  47.4012690 154.0190800 136.9236350  46.5731320 154.0883890 136.4486480
  47.9963170 154.6045110 136.4552180  44.9228140 154.6275580 130.4525410
  44.3040560 154.2895130 129.8051710  44.9052590 153.9835340 131.1604600
  44.3654700 150.8060120 137.8691220  43.9525880 151.6313830 138.1231210
  43.6330650 150.2205160 137.6767580  36.4987490 153.5920020 132.7309890
  36.0944490 152.8797270 132.2355790  36.5850610 153.2473260 133.6197930
  35.2116110 150.3663230 136.5108930  35.7630700 150.4758570 135.7362180
  35.7259620 150.7400830 137.2264160  43.0992840 153.8662390 127.4598160
  43.5386120 153.0284820 127.3135980  43.8121260 154.4991790 127.5462300
  34.8858840 153.8882590 140.1214270  34.7466610 154.7605390 140.4901670
  34.0040200 153.5455400 139.9762210  46.6809980 145.1205200 125.7739200
  46.3682640 145.2132030 126.6738270  47.4422450 145.6986230 125.7236630
  33.1992120 152.4865000 130.2316540  33.0789720 153.2127090 129.6197810
  32.8893010 151.7167910 129.7544450  47.8911270 149.8576700 141.7513340
  47.2755540 150.3656370 141.2228800  47.5707690 148.9575030 141.6939280
  35.6655780 145.8300070 133.6140210  35.2223930 146.6109610 133.2824730
  36.2240770 146.1529960 134.3211150  39.9525590 148.6968590 139.2175530
  39.4904960 148.9051610 140.0295470  39.5503700 147.8827940 138.9146200
  44.9530100 149.9177540 140.3472190  44.1023690 149.6183290 140.6681260
  44.7931890 150.1619550 139.4356010  42.0479810 151.4179290 142.4470980
  42.3733220 150.5843040 142.1073210  42.8360140 151.9407810 142.5949310
  38.7814600 145.4510770 128.4946040  38.1568780 145.4470640 129.2199350
  38.6944720 144.5841730 128.0982010  37.7031680 146.3747400 135.4729810
  38.0004010 147.2810230 135.3921830  38.2517240 145.8866180 134.8589380
  35.4570000 150.9533640 131.3421460  35.2310920 150.7370810 132.2468080
  34.6762530 151.3862100 130.9967430  42.6867760 150.9597010 129.9412110
  42.0876650 151.6832810 129.7575730  43.2347370 150.8973790 129.1588560
  37.8969210 151.8519220 142.0081730  37.8012810 150.9113950 141.8582130
  38.7401190 152.0734290 141.6129800  41.2932630 149.5960550 131.9715390
  41.6862200 149.9132750 131.1584080  41.6549480 148.7172430 132.0859910
  33.0279750 148.2632890 140.1615510  32.6343140 149.1108100 140.3688290
  32.3398150 147.6259260 140.3524150  39.6024800 148.3467860 143.2312250
  38.9123120 148.1540060 143.8658340  40.3457100 148.6302500 143.7636550
  30.3296800 146.1861350 134.1945590  30.0409850 146.7564210 134.9070570
  31.0742560 145.7065800 134.5576820  30.5167030 150.1281470 125.4048310
  30.4341700 151.0712230 125.5463300  30.1650090 149.9856380 124.5260660
  41.8787770 152.1866300 136.0666170  41.1468890 152.6953110 136.4156270
  41.4812110 151.3696280 135.7654950  38.3165160 148.8620500 134.4718660
  38.3201220 148.4210450 133.6223200  39.2116280 149.1837830 134.5790480
  34.1667540 148.7446990 133.4312870  33.8267590 149.2222220 134.1879920
  33.4044860 148.2912110 133.0713970  38.3785310 149.8632580 127.4625420
  38.4998130 149.8219060 128.4111240  37.9933820 150.7256730 127.3072150
  42.3413680 147.6399980 135.4789110  42.3586420 148.0908630 136.3230960
  42.0929260 146.7405620 135.6922550  37.3906810 152.1733720 126.8608720
  36.8223710 151.7251970 126.2344630  38.0995810 152.5326500 126.3273870
  45.7684430 145.0532160 141.3175490  46.0930200 144.3221820 141.8433470
  45.8040940 144.7345800 140.4156480  38.6173130 152.9222280 136.2184070
  38.9843260 152.4480850 136.9645410  38.4278190 153.7963850 136.5592410
  31.4813620 147.6665970 132.3477540  31.1960540 147.3021640 133.1856160
  31.4192480 146.9346430 131.7340680  36.4072500 151.9630920 138.5368280
  36.1029570 152.8422900 138.7618640  37.3618960 152.0230710 138.5725720
  41.1552210 146.5595230 129.0690910  40.3416820 146.0608400 128.9936220
  40.9614160 147.3993480 128.6527260  43.8700600 150.9314880 127.3653070
  44.7580220 151.2432110 127.1904410  43.8405690 150.0587130 126.9733650
  32.4636230 152.8033660 139.6839640  32.1051170 153.4687510 140.2712980
  32.1690790 151.9717210 140.0552260  35.6649350 153.2617900 142.5679190
  35.3649490 153.4075080 141.6707010  36.4360590 152.7023190 142.4752580
  46.1414870 152.2426720 126.8332930  46.0578590 152.6740940 125.9829370
  46.8609060 152.7025070 127.2659750  30.9744280 152.8024920 126.3074240
  31.8439130 153.0849720 126.5910160  30.4834600 153.6160790 126.1923050
  34.0390870 144.5335780 130.9005040  33.9105500 144.5253680 131.8489960
  33.2152890 144.8718870 130.5496050  31.0384800 146.2926900 140.3611740
  30.3243320 146.4923820 140.9664350  31.4579840 145.5166470 140.7326540
  42.5323580 148.7849210 138.1113190  42.9004400 147.9644420 138.4392760
  41.6721780 148.8451100 138.5268840  45.8985610 147.7406150 128.9200750
  45.2698770 147.8451820 128.2058980  45.4037530 147.9602930 129.7094630
  37.8669640 150.0192100 130.3358630  37.1585790 150.4878440 130.7772240
  38.1514120 149.3614110 130.9703820  39.4925570 151.4388800 138.3351160
  39.9910820 151.9134620 139.0003010  39.6348520 150.5152320 138.5421190
  41.8985070 146.7442760 131.7754420  41.7752850 146.7628890 130.8263930
  42.8469630 146.7921700 131.8952820  36.0704660 148.3277180 127.7109340
  36.9195190 148.7647330 127.6449530  35.7035930 148.6397440 128.5381400
  46.6992430 147.6556760 139.1779550  46.1966030 148.3962160 139.5173360
  47.5149090 148.0440760 138.8616340  44.9914440 152.8989940 132.6240910
  44.0504580 152.9140170 132.7988600  45.3058510 152.1125900 133.0701210
  34.9696080 154.5809540 126.1844870  35.7359350 154.4690900 126.7470300
  35.0470770 153.8847510 125.5321640  33.6642840 152.0134610 126.8677760
  33.7446430 151.0662120 126.9795160  34.5562590 152.3441490 126.9738420
  31.1913640 153.8349530 142.1033930  31.6952660 153.2556810 142.6750160
  30.4521060 154.1189760 142.6410300  33.2236720 151.9779120 142.9984000
  33.2642060 151.6792990 143.9069230  34.0782220 152.3786730 142.8391520
  37.0015110 154.5774670 128.1587510  37.4231530 154.4114540 129.0018900
  37.1265950 153.7674900 127.6642650  35.1642530 150.5571220 140.9658490
  34.6338990 150.0662170 140.3381830  35.8330600 150.9855420 140.4316420
  39.5142750 153.6012280 125.4064610  40.0348410 152.8861300 125.0405760
  40.1611150 154.2398150 125.7065120  44.5342760 152.3636840 142.7338830
  45.1163530 151.6089160 142.6459310  44.7104530 152.8944280 141.9570310
  35.6514830 147.5233590 141.0455780  35.5571700 146.9054340 140.3206650
  35.0712220 148.2499880 140.8185690  38.4176270 146.0806830 138.0783170
  37.9693570 146.1031090 137.2328720  37.7841470 145.6825850 138.6753470
  41.1599720 152.7077340 140.0833450  41.2795930 152.1118480 140.8228290
  42.0193720 152.7447030 139.6634750  43.4987620 153.2614530 138.6595960
  42.9722840 153.7857150 138.0561100  43.8418960 153.8941920 139.2905690
  35.8974010 150.6507900 125.1045670  35.6963070 149.7875260 125.4659010
  35.7266060 150.5641260 124.1667270  37.9268490 149.2498690 141.3409270
  38.5168180 148.9414540 142.0287090  37.1088730 148.7778440 141.4969170
  42.7461920 148.8664500 141.5742290  42.0577440 148.2046040 141.5092280
  43.4667940 148.4202770 142.0190750  43.3762320 145.4616130 127.6332550
  43.6564610 144.6184030 127.9891970  42.6028050 145.6939240 128.1471300
  34.6956810 147.7508520 125.0923550  34.9982710 147.7575950 124.1842700
  35.4351400 147.4006380 125.5891210  37.9141740 146.6943140 126.0779750
  37.5663740 146.0167130 125.4982200  38.1154510 146.2332650 126.8923140
  31.2547380 153.2230790 132.4744120  30.5996220 152.9542430 131.8303820
  32.0925330 153.1135270 132.0246100  44.2037820 148.0172080 126.6962610
  44.6222700 147.8303060 125.8559270  43.8973880 147.1651130 127.0065540
  47.7027550 152.9296220 130.3938410  47.3271150 152.1624150 129.9619700
  46.9730670 153.3118920 130.8813340  32.2923310 153.6083360 137.0147460
  32.6596350 153.5210760 137.8943480  31.7234130 152.8449910 136.9154320
  47.0927170 152.0767740 140.0277930  46.8613260 151.8480490 139.1275880
  47.3531720 152.9967290 139.9822820  31.8439310 150.5192450 140.9205880
  30.9495360 150.4859210 141.2599590  32.3836860 150.7179240 141.6857130
  45.5315240 147.3024170 142.8057630  46.4085420 147.3107570 143.1891630
  45.5436080 146.5655010 142.1949980  30.4685460 150.4329720 128.4169450
  29.5649540 150.6959920 128.2421110  30.9526080 150.7040890 127.6369410
  46.9778510 151.1553710 133.6945650  47.5015990 150.6616360 133.0635820
  47.5637930 151.2904070 134.4393220  47.1568230 151.2393580 137.2165200
  46.2070940 151.2057120 137.3310190  47.3381240 152.1493690 136.9814970
  33.0112670 149.4895260 126.3263830  33.7204370 149.0678480 125.8411110
  32.2952610 149.5570490 125.6947180  32.6586830 145.5434590 125.3666480
  33.3814960 146.0843530 125.6847700  32.9311350 145.2698010 124.4908020
  46.4678480 150.4127060 129.6338060  46.9637600 150.1797930 130.4186940
  46.2694550 149.5738900 129.2175700  32.3479020 144.7940780 135.2689100
  32.9955210 144.2438160 134.8284260  32.7680860 145.0483930 136.0904910
  47.8965640 149.0488010 132.1675740  47.7864920 148.8944050 133.1058010
  48.6573230 148.5208950 131.9251150  46.2431360 144.9882140 138.6258740
  46.8803580 145.6016280 138.9917930  46.3906250 145.0242800 137.6807970
  48.7855910 146.8795930 125.4081880  49.7105220 146.7477110 125.2000170
  48.7631700 146.9588750 126.3618330  48.8594400 147.6506590 128.0338590
  48.0645900 147.5851710 128.5631500  49.0637680 148.5857230 128.0223940
  32.1011020 144.9496450 138.0114420  31.7525840 145.4060270 138.7772600
  31.7698720 144.0553580 138.0936850  39.6135840 146.1408330 141.5333840
  39.5524730 146.7330160 142.2829250  40.5536220 146.0334290 141.3884100
  42.2510400 145.7978390 141.1726130  42.8650810 146.1157680 140.5107210
  42.7959960 145.3126980 141.7921990  32.7731660 144.4772650 141.2865190
  33.3214650 144.2960700 140.5231300  32.8386970 143.6866760 141.8221500
  42.9918440 144.3610530 137.4995420  42.1178280 144.6945640 137.2968350
  42.8829190 143.8883710 138.3247290  43.8990420 146.5681400 138.8837140
  43.5703780 145.7533160 138.5038870  44.8472720 146.5251210 138.7602830
  40.7393260 145.2780370 136.4388330  39.9565050 145.7525870 136.7185090
  40.4456190 144.3735200 136.3301510  45.2914330 145.9803470 134.4837420
  45.7322420 145.9248570 133.6359020  45.0221920 146.8961480 134.5547600
  47.1552900 145.6118710 132.4946240  47.0941300 144.6679930 132.3477260
  47.9344930 145.7198800 133.0399700  32.0833670 145.5827850 128.9602050
  32.8413030 145.6956730 128.3866080  31.6210840 146.4197050 128.9145480
  38.6247480 147.6967120 131.9504360  37.8121990 147.3224010 131.6100240
  39.1289120 146.9412200 132.2525550  43.1272460 144.3609570 133.1887430
  43.7301830 144.9329780 133.6635950  42.3865450 144.9249010 132.9661330
  46.2707060 144.7631130 128.4627710  46.4657690 145.6614580 128.7295140
  45.4836930 144.5318210 128.9560660  34.4558820 146.1091900 127.5004020
  34.9851580 145.3221700 127.3711970  35.0887140 146.7883090 127.7339550
  36.6496660 145.8467040 130.5549410  36.0199400 145.1454350 130.7219540
  36.1101800 146.6071170 130.3382570  36.7752220 145.1251020 142.9901900
  36.4936490 145.6284620 142.2262720  37.1571920 144.3272770 142.6244030
  43.3767680 144.5404600 143.5682370  43.2633130 144.8599210 144.4633890
  44.1937420 144.9417110 143.2719650  42.2825830 152.5597070 113.9317110
  42.2019880 151.6451680 113.6608820  41.8690250 153.0564140 113.2256820
  40.4143870 154.3376090 115.8126380  39.6385970 153.8576530 116.1024950
  41.0656800 153.6581740 115.6382540  34.4309700 154.6495900 116.6902140
  33.5994580 154.3944610 117.0898650  35.0390680 154.7206670 117.4260060
  32.8401650 149.6097790 110.4744530  31.9518350 149.9513760 110.3724410
  33.1242840 149.4098110 109.5825360  30.8034660 152.2103440 116.3584230
  31.3750770 151.4425640 116.3587870  30.8036200 152.5092200 115.4490840
  32.0459530 147.6187800 118.1453160  31.8662370 146.7213550 118.4255920
  31.6439610 148.1659670 118.8200110  40.8858030 149.8203660 116.0465470
  41.2622850 148.9475540 115.9339140  40.7877540 150.1562360 115.1555910
  35.0163040 148.1929290 111.5082910  35.1229790 149.0933020 111.8151670
  34.1055400 148.1447260 111.2177560  44.6682150 147.3154100 112.9793810
  45.4891770 146.8250670 113.0219290  44.7016230 147.9051760 113.7325650
  32.6646200 150.1148300 116.7535500  33.3456310 150.3786670 117.3722900
  32.3494250 149.2749170 117.0873510  36.8570770 151.1615660 115.8408090
  37.3648990 151.6596630 116.4813110  37.3884010 150.3850860 115.6647450
  48.9581700 149.3320850 119.5437440  48.2533870 149.7202560 119.0252550
  49.2239620 150.0271140 120.1458370  35.1406870 145.8014220 120.1071510
  35.1425310 146.3186610 119.3017410  34.3111180 145.3244400 120.0841440
  44.9043630 149.2554480 115.7521350  44.1999200 149.5439370 116.3324460
  45.2655790 150.0654590 115.3920910  34.8222200 147.5124180 118.1141960
  35.1639010 148.3566230 117.8195830  33.8838010 147.6607920 118.2307300
  47.9730550 148.7009270 116.1430560  47.0255460 148.7348250 116.2745990
  48.2980540 149.5148220 116.5279920  38.5050090 145.0006450 114.4386550
  38.8125070 144.4453340 113.7222050  37.5750790 145.1350910 114.2559540
  40.8930850 153.0655280 111.1746670  39.9660130 152.9992660 111.4035140
  41.0455670 154.0035410 111.0601910  40.8799930 149.3372280 108.1713830
  39.9403600 149.4986240 108.2566290  41.1983190 150.0557960 107.6249820
  47.4012690 154.0190800 118.1492860  46.5731320 154.0883890 117.6742990
  47.9963170 154.6045110 117.6808690  44.9228140 154.6275580 111.6781920
  44.3040560 154.2895130 111.0308220  44.9052590 153.9835340 112.3861110
  44.3654700 150.8060120 119.0947730  43.9525880 151.6313830 119.3487720
  43.6330650 150.2205160 118.9024090  36.4987490 153.5920020 113.9566400
  36.0944490 152.8797270 113.4612300  36.5850610 153.2473260 114.8454440
  35.2116110 150.3663230 117.7365440  35.7630700 150.4758570 116.9618690
  35.7259620 150.7400830 118.4520670  43.0992840 153.8662390 108.6854670
  43.5386120 153.0284820 108.5392490  43.8121260 154.4991790 108.7718810
  34.8858840 153.8882590 121.3470780  34.7466610 154.7605390 121.7158180
  34.0040200 153.5455400 121.2018720  46.6809980 145.1205200 106.9995710
  46.3682640 145.2132030 107.8994780  47.4422450 145.6986230 106.9493140
  33.1992120 152.4865000 111.4573050  33.0789720 153.2127090 110.8454320
  32.8893010 151.7167910 110.9800960  47.8911270 149.8576700 122.9769850
  47.2755540 150.3656370 122.4485310  47.5707690 148.9575030 122.9195790
  35.6655780 145.8300070 114.8396720  35.2223930 146.6109610 114.5081240
  36.2240770 146.1529960 115.5467660  39.9525590 148.6968590 120.4432040
  39.4904960 148.9051610 121.2551980  39.5503700 147.8827940 120.1402710
  44.9530100 149.9177540 121.5728700  44.1023690 149.6183290 121.8937770
  44.7931890 150.1619550 120.6612520  42.0479810 151.4179290 123.6727490
  42.3733220 150.5843040 123.3329720  42.8360140 151.9407810 123.8205820
  38.7814600 145.4510770 109.7202550  38.1568780 145.4470640 110.4455860
  38.6944720 144.5841730 109.3238520  37.7031680 146.3747400 116.6986320
  38.0004010 147.2810230 116.6178340  38.2517240 145.8866180 116.0845890
  35.4570000 150.9533640 112.5677970  35.2310920 150.7370810 113.4724590
  34.6762530 151.3862100 112.2223940  42.6867760 150.9597010 111.1668620
  42.0876650 151.6832810 110.9832240  43.2347370 150.8973790 110.3845070
  37.8969210 151.8519220 123.2338240  37.8012810 150.9113950 123.0838640
  38.7401190 152.0734290 122.8386310  41.2932630 149.5960550 113.1971900
  41.6862200 149.9132750 112.3840590  41.6549480 148.7172430 113.3116420
  33.0279750 148.2632890 121.3872020  32.6343140 149.1108100 121.5944800
  32.3398150 147.6259260 121.5780660  39.6024800 148.3467860 124.4568760
  38.9123120 148.1540060 125.0914850  40.3457100 148.6302500 124.9893060
  30.3296800 146.1861350 115.4202100  30.0409850 146.7564210 116.1327080
  31.0742560 145.7065800 115.7833330  30.5167030 150.1281470 106.6304820
  30.4341700 151.0712230 106.7719810  30.1650090 149.9856380 105.7517170
  41.8787770 152.1866300 117.2922680  41.1468890 152.6953110 117.6412780
  41.4812110 151.3696280 116.9911460  38.3165160 148.8620500 115.6975170
  38.3201220 148.4210450 114.8479710  39.2116280 149.1837830 115.8046990
  34.1667540 148.7446990 114.6569380  33.8267590 149.2222220 115.4136430
  33.4044860 148.2912110 114.2970480  38.3785310 149.8632580 108.6881930
  38.4998130 149.8219060 109.6367750  37.9933820 150.7256730 108.5328660
  42.3413680 147.6399980 116.7045620  42.3586420 148.0908630 117.5487470
  42.0929260 146.7405620 116.9179060  37.3906810 152.1733720 108.0865230
  36.8223710 151.7251970 107.4601140  38.0995810 152.5326500 107.5530380
  45.7684430 145.0532160 122.5432000  46.0930200 144.3221820 123.0689980
  45.8040940 144.7345800 121.6412990  38.6173130 152.9222280 117.4440580
  38.9843260 152.4480850 118.1901920  38.4278190 153.7963850 117.7848920
  31.4813620 147.6665970 113.5734050  31.1960540 147.3021640 114.4112670
  31.4192480 146.9346430 112.9597190  36.4072500 151.9630920 119.7624790
  36.1029570 152.8422900 119.9875150  37.3618960 152.0230710 119.7982230
  41.1552210 146.5595230 110.2947420  40.3416820 146.0608400 110.2192730
  40.9614160 147.3993480 109.8783770  43.8700600 150.9314880 108.5909580
  44.7580220 151.2432110 108.4160920  43.8405690 150.0587130 108.1990160
  32.4636230 152.8033660 120.9096150  32.1051170 153.4687510 121.4969490
  32.1690790 151.9717210 121.2808770  35.6649350 153.2617900 123.7935700
  35.3649490 153.4075080 122.8963520  36.4360590 152.7023190 123.7009090
  46.1414870 152.2426720 108.0589440  46.0578590 152.6740940 107.2085880
  46.8609060 152.7025070 108.4916260  30.9744280 152.8024920 107.5330750
  31.8439130 153.0849720 107.8166670  30.4834600 153.6160790 107.4179560
  34.0390870 144.5335780 112.1261550  33.9105500 144.5253680 113.0746470
  33.2152890 144.8718870 111.7752560  31.0384800 146.2926900 121.5868250
  30.3243320 146.4923820 122.1920860  31.4579840 145.5166470 121.9583050
  42.5323580 148.7849210 119.3369700  42.9004400 147.9644420 119.6649270
  41.6721780 148.8451100 119.7525350  45.8985610 147.7406150 110.1457260
  45.2698770 147.8451820 109.4315490  45.4037530 147.9602930 110.9351140
  37.8669640 150.0192100 111.5615140  37.1585790 150.4878440 112.0028750
  38.1514120 149.3614110 112.1960330  39.4925570 151.4388800 119.5607670
  39.9910820 151.9134620 120.2259520  39.6348520 150.5152320 119.7677700
  41.8985070 146.7442760 113.0010930  41.7752850 146.7628890 112.0520440
  42.8469630 146.7921700 113.1209330  36.0704660 148.3277180 108.9365850
  36.9195190 148.7647330 108.8706040  35.7035930 148.6397440 109.7637910
  46.6992430 147.6556760 120.4036060  46.1966030 148.3962160 120.7429870
  47.5149090 148.0440760 120.0872850  44.9914440 152.8989940 113.8497420
  44.0504580 152.9140170 114.0245110  45.3058510 152.1125900 114.2957720
  34.9696080 154.5809540 107.4101380  35.7359350 154.4690900 107.9726810
  35.0470770 153.8847510 106.7578150  33.6642840 152.0134610 108.0934270
  33.7446430 151.0662120 108.2051670  34.5562590 152.3441490 108.1994930
  31.1913640 153.8349530 123.3290440  31.6952660 153.2556810 123.9006670
  30.4521060 154.1189760 123.8666810  33.2236720 151.9779120 124.2240510
  33.2642060 151.6792990 125.1325740  34.0782220 152.3786730 124.0648030
  37.0015110 154.5774670 109.3844020  37.4231530 154.4114540 110.2275410
  37.1265950 153.7674900 108.8899160  35.1642530 150.5571220 122.1915000
  34.6338990 150.0662170 121.5638340  35.8330600 150.9855420 121.6572930
  39.5142750 153.6012280 106.6321120  40.0348410 152.8861300 106.2662270
  40.1611150 154.2398150 106.9321630  44.5342760 152.3636840 123.9595340
  45.1163530 151.6089160 123.8715820  44.7104530 152.8944280 123.1826820
  35.6514830 147.5233590 122.2712290  35.5571700 146.9054340 121.5463160
  35.0712220 148.2499880 122.0442200  38.4176270 146.0806830 119.3039680
  37.9693570 146.1031090 118.4585230  37.7841470 145.6825850 119.9009980
  41.1599720 152.7077340 121.3089960  41.2795930 152.1118480 122.0484800
  42.0193720 152.7447030 120.8891260  43.4987620 153.2614530 119.8852470
  42.9722840 153.7857150 119.2817610  43.8418960 153.8941920 120.5162200
  35.8974010 150.6507900 106.3302180  35.6963070 149.7875260 106.6915520
  35.7266060 150.5641260 105.3923780  37.9268490 149.2498690 122.5665780
  38.5168180 148.9414540 123.2543600  37.1088730 148.7778440 122.7225680
  42.7461920 148.8664500 122.7998800  42.0577440 148.2046040 122.7348790
  43.4667940 148.4202770 123.2447260  43.3762320 145.4616130 108.8589060
  43.6564610 144.6184030 109.2148480  42.6028050 145.6939240 109.3727810
  34.6956810 147.7508520 106.3180060  34.9982710 147.7575950 105.4099210
  35.4351400 147.4006380 106.8147720  37.9141740 146.6943140 107.3036260
  37.5663740 146.0167130 106.7238710  38.1154510 146.2332650 108.1179650
  31.2547380 153.2230790 113.7000630  30.5996220 152.9542430 113.0560330
  32.0925330 153.1135270 113.2502610  44.2037820 148.0172080 107.9219120
  44.6222700 147.8303060 107.0815780  43.8973880 147.1651130 108.2322050
  47.7027550 152.9296220 111.6194920  47.3271150 152.1624150 111.1876210
  46.9730670 153.3118920 112.1069850  32.2923310 153.6083360 118.2403970
  32.6596350 153.5210760 119.1199990  31.7234130 152.8449910 118.1410830
  47.0927170 152.0767740 121.2534440  46.8613260 151.8480490 120.3532390
  47.3531720 152.9967290 121.2079330  31.8439310 150.5192450 122.1462390
  30.9495360 150.4859210 122.4856100  32.3836860 150.7179240 122.9113640
  45.5315240 147.3024170 124.0314140  46.4085420 147.3107570 124.4148140
  45.5436080 146.5655010 123.4206490  30.4685460 150.4329720 109.6425960
  29.5649540 150.6959920 109.4677620  30.9526080 150.7040890 108.8625920
  46.9778510 151.1553710 114.9202160  47.5015990 150.6616360 114.2892330
  47.5637930 151.2904070 115.6649730  47.1568230 151.2393580 118.4421710
  46.2070940 151.2057120 118.5566700  47.3381240 152.1493690 118.2071480
  33.0112670 149.4895260 107.5520340  33.7204370 149.0678480 107.0667620
  32.2952610 149.5570490 106.9203690  32.6586830 145.5434590 106.5922990
  33.3814960 146.0843530 106.9104210  32.9311350 145.2698010 105.7164530
  46.4678480 150.4127060 110.8594570  46.9637600 150.1797930 111.6443450
  46.2694550 149.5738900 110.4432210  32.3479020 144.7940780 116.4945610
  32.9955210 144.2438160 116.0540770  32.7680860 145.0483930 117.3161420
  47.8965640 149.0488010 113.3932250  47.7864920 148.8944050 114.3314520
  48.6573230 148.5208950 113.1507660  46.2431360 144.9882140 119.8515250
  46.8803580 145.6016280 120.2174440  46.3906250 145.0242800 118.9064480
  48.7855910 146.8795930 106.6338390  49.7105220 146.7477110 106.4256680
  48.7631700 146.9588750 107.5874840  48.8594400 147.6506590 109.2595100
  48.0645900 147.5851710 109.7888010  49.0637680 148.5857230 109.2480450
  32.1011020 144.9496450 119.2370930  31.7525840 145.4060270 120.0029110
  31.7698720 144.0553580 119.3193360  39.6135840 146.1408330 122.7590350
  39.5524730 146.7330160 123.5085760  40.5536220 146.0334290 122.6140610
  42.2510400 145.7978390 122.3982640  42.8650810 146.1157680 121.7363720
  42.7959960 145.3126980 123.0178500  32.7731660 144.4772650 122.5121700
  33.3214650 144.2960700 121.7487810  32.8386970 143.6866760 123.0478010
  42.9918440 144.3610530 118.7251930  42.1178280 144.6945640 118.5224860
  42.8829190 143.8883710 119.5503800  43.8990420 146.5681400 120.1093650
  43.5703780 145.7533160 119.7295380  44.8472720 146.5251210 119.9859340
  40.7393260 145.2780370 117.6644840  39.9565050 145.7525870 117.9441600
  40.4456190 144.3735200 117.5558020  45.2914330 145.9803470 115.7093930
  45.7322420 145.9248570 114.8615530  45.0221920 146.8961480 115.7804110
  47.1552900 145.6118710 113.7202750  47.0941300 144.6679930 113.5733770
  47.9344930 145.7198800 114.2656210  32.0833670 145.5827850 110.1858560
  32.8413030 145.6956730 109.6122590  31.6210840 146.4197050 110.1401990
  38.6247480 147.6967120 113.1760870  37.8121990 147.3224010 112.8356750
  39.1289120 146.9412200 113.4782060  43.1272460 144.3609570 114.4143940
  43.7301830 144.9329780 114.8892460  42.3865450 144.9249010 114.1917840
  46.2707060 144.7631130 109.6884220  46.4657690 145.6614580 109.9551650
  45.4836930 144.5318210 110.1817170  34.4558820 146.1091900 108.7260530
  34.9851580 145.3221700 108.5968480  35.0887140 146.7883090 108.9596060
  36.6496660 145.8467040 111.7805920  36.0199400 145.1454350 111.9476050
  36.1101800 146.6071170 111.5639080  36.7752220 145.1251020 124.2158410
  36.4936490 145.6284620 123.4519230  37.1571920 144.3272770 123.8500540
  43.3767680 144.5404600 124.7938880  43.2633130 144.8599210 125.6890400
  44.1937420 144.9417110 124.4976160  42.2825830 152.5597070  95.1573620
  42.2019880 151.6451680  94.8865330  41.8690250 153.0564140  94.4513330
  40.4143870 154.3376090  97.0382890  39.6385970 153.8576530  97.3281460
  41.0656800 153.6581740  96.8639050  34.4309700 154.6495900  97.9158650
  33.5994580 154.3944610  98.3155160  35.0390680 154.7206670  98.6516570
  32.8401650 149.6097790  91.7001040  31.9518350 149.9513760  91.5980920
  33.1242840 149.4098110  90.8081870  30.8034660 152.2103440  97.5840740
  31.3750770 151.4425640  97.5844380  30.8036200 152.5092200  96.6747350
  32.0459530 147.6187800  99.3709670  31.8662370 146.7213550  99.6512430
  31.6439610 148.1659670 100.0456620  40.8858030 149.8203660  97.2721980
  41.2622850 148.9475540  97.1595650  40.7877540 150.1562360  96.3812420
  35.0163040 148.1929290  92.7339420  35.1229790 149.0933020  93.0408180
  34.1055400 148.1447260  92.4434070  44.6682150 147.3154100  94.2050320
  45.4891770 146.8250670  94.2475800  44.7016230 147.9051760  94.9582160
  32.6646200 150.1148300  97.9792010  33.3456310 150.3786670  98.5979410
  32.3494250 149.2749170  98.3130020  36.8570770 151.1615660  97.0664600
  37.3648990 151.6596630  97.7069620  37.3884010 150.3850860  96.8903960
  48.9581700 149.3320850 100.7693950  48.2533870 149.7202560 100.2509060
  49.2239620 150.0271140 101.3714880  35.1406870 145.8014220 101.3328020
  35.1425310 146.3186610 100.5273920  34.3111180 145.3244400 101.3097950
  44.9043630 149.2554480  96.9777860  44.1999200 149.5439370  97.5580970
  45.2655790 150.0654590  96.6177420  34.8222200 147.5124180  99.3398470
  35.1639010 148.3566230  99.0452340  33.8838010 147.6607920  99.4563810
  47.9730550 148.7009270  97.3687070  47.0255460 148.7348250  97.5002500
  48.2980540 149.5148220  97.7536430  38.5050090 145.0006450  95.6643060
  38.8125070 144.4453340  94.9478560  37.5750790 145.1350910  95.4816050
  40.8930850 153.0655280  92.4003180  39.9660130 152.9992660  92.6291650
  41.0455670 154.0035410  92.2858420  40.8799930 149.3372280  89.3970340
  39.9403600 149.4986240  89.4822800  41.1983190 150.0557960  88.8506330
  47.4012690 154.0190800  99.3749370  46.5731320 154.0883890  98.8999500
  47.9963170 154.6045110  98.9065200  44.9228140 154.6275580  92.9038430
  44.3040560 154.2895130  92.2564730  44.9052590 153.9835340  93.6117620
  44.3654700 150.8060120 100.3204240  43.9525880 151.6313830 100.5744230
  43.6330650 150.2205160 100.1280600  36.4987490 153.5920020  95.1822910
  36.0944490 152.8797270  94.6868810  36.5850610 153.2473260  96.0710950
  35.2116110 150.3663230  98.9621950  35.7630700 150.4758570  98.1875200
  35.7259620 150.7400830  99.6777180  43.0992840 153.8662390  89.9111180
  43.5386120 153.0284820  89.7649000  43.8121260 154.4991790  89.9975320
  34.8858840 153.8882590 102.5727290  34.7466610 154.7605390 102.9414690
  34.0040200 153.5455400 102.4275230  46.6809980 145.1205200  88.2252220
  46.3682640 145.2132030  89.1251290  47.4422450 145.6986230  88.1749650
  33.1992120 152.4865000  92.6829560  33.0789720 153.2127090  92.0710830
  32.8893010 151.7167910  92.2057470  47.8911270 149.8576700 104.2026360
  47.2755540 150.3656370 103.6741820  47.5707690 148.9575030 104.1452300
  35.6655780 145.8300070  96.0653230  35.2223930 146.6109610  95.7337750
  36.2240770 146.1529960  96.7724170  39.9525590 148.6968590 101.6688550
  39.4904960 148.9051610 102.4808490  39.5503700 147.8827940 101.3659220
  44.9530100 149.9177540 102.7985210  44.1023690 149.6183290 103.1194280
  44.7931890 150.1619550 101.8869030  42.0479810 151.4179290 104.8984000
  42.3733220 150.5843040 104.5586230  42.8360140 151.9407810 105.0462330
  38.7814600 145.4510770  90.9459060  38.1568780 145.4470640  91.6712370
  38.6944720 144.5841730  90.5495030  37.7031680 146.3747400  97.9242830
  38.0004010 147.2810230  97.8434850  38.2517240 145.8866180  97.3102400
  35.4570000 150.9533640  93.7934480  35.2310920 150.7370810  94.6981100
  34.6762530 151.3862100  93.4480450  42.6867760 150.9597010  92.3925130
  42.0876650 151.6832810  92.2088750  43.2347370 150.8973790  91.6101580
  37.8969210 151.8519220 104.4594750  37.8012810 150.9113950 104.3095150
  38.7401190 152.0734290 104.0642820  41.2932630 149.5960550  94.4228410
  41.6862200 149.9132750  93.6097100  41.6549480 148.7172430  94.5372930
  33.0279750 148.2632890 102.6128530  32.6343140 149.1108100 102.8201310
  32.3398150 147.6259260 102.8037170  39.6024800 148.3467860 105.6825270
  38.9123120 148.1540060 106.3171360  40.3457100 148.6302500 106.2149570
  30.3296800 146.1861350  96.6458610  30.0409850 146.7564210  97.3583590
  31.0742560 145.7065800  97.0089840  30.5167030 150.1281470  87.8561330
  30.4341700 151.0712230  87.9976320  30.1650090 149.9856380  86.9773680
  41.8787770 152.1866300  98.5179190  41.1468890 152.6953110  98.8669290
  41.4812110 151.3696280  98.2167970  38.3165160 148.8620500  96.9231680
  38.3201220 148.4210450  96.0736220  39.2116280 149.1837830  97.0303500
  34.1667540 148.7446990  95.8825890  33.8267590 149.2222220  96.6392940
  33.4044860 148.2912110  95.5226990  38.3785310 149.8632580  89.9138440
  38.4998130 149.8219060  90.8624260  37.9933820 150.7256730  89.7585170
  42.3413680 147.6399980  97.9302130  42.3586420 148.0908630  98.7743980
  42.0929260 146.7405620  98.1435570  37.3906810 152.1733720  89.3121740
  36.8223710 151.7251970  88.6857650  38.0995810 152.5326500  88.7786890
  45.7684430 145.0532160 103.7688510  46.0930200 144.3221820 104.2946490
  45.8040940 144.7345800 102.8669500  38.6173130 152.9222280  98.6697090
  38.9843260 152.4480850  99.4158430  38.4278190 153.7963850  99.0105430
  31.4813620 147.6665970  94.7990560  31.1960540 147.3021640  95.6369180
  31.4192480 146.9346430  94.1853700  36.4072500 151.9630920 100.9881300
  36.1029570 152.8422900 101.2131660  37.3618960 152.0230710 101.0238740
  41.1552210 146.5595230  91.5203930  40.3416820 146.0608400  91.4449240
  40.9614160 147.3993480  91.1040280  43.8700600 150.9314880  89.8166090
  44.7580220 151.2432110  89.6417430  43.8405690 150.0587130  89.4246670
  32.4636230 152.8033660 102.1352660  32.1051170 153.4687510 102.7226000
  32.1690790 151.9717210 102.5065280  35.6649350 153.2617900 105.0192210
  35.3649490 153.4075080 104.1220030  36.4360590 152.7023190 104.9265600
  46.1414870 152.2426720  89.2845950  46.0578590 152.6740940  88.4342390
  46.8609060 152.7025070  89.7172770  30.9744280 152.8024920  88.7587260
  31.8439130 153.0849720  89.0423180  30.4834600 153.6160790  88.6436070
  34.0390870 144.5335780  93.3518060  33.9105500 144.5253680  94.3002980
  33.2152890 144.8718870  93.0009070  31.0384800 146.2926900 102.8124760
  30.3243320 146.4923820 103.4177370  31.4579840 145.5166470 103.1839560
  42.5323580 148.7849210 100.5626210  42.9004400 147.9644420 100.8905780
  41.6721780 148.8451100 100.9781860  45.8985610 147.7406150  91.3713770
  45.2698770 147.8451820  90.6572000  45.4037530 147.9602930  92.1607650
  37.8669640 150.0192100  92.7871650  37.1585790 150.4878440  93.2285260
  38.1514120 149.3614110  93.4216840  39.4925570 151.4388800 100.7864180
  39.9910820 151.9134620 101.4516030  39.6348520 150.5152320 100.9934210
  41.8985070 146.7442760  94.2267440  41.7752850 146.7628890  93.2776950
  42.8469630 146.7921700  94.3465840  36.0704660 148.3277180  90.1622360
  36.9195190 148.7647330  90.0962550  35.7035930 148.6397440  90.9894420
  46.6992430 147.6556760 101.6292570  46.1966030 148.3962160 101.9686380
  47.5149090 148.0440760 101.3129360  44.9914440 152.8989940  95.0753930
  44.0504580 152.9140170  95.2501620  45.3058510 152.1125900  95.5214230
  34.9696080 154.5809540  88.6357890  35.7359350 154.4690900  89.1983320
  35.0470770 153.8847510  87.9834660  33.6642840 152.0134610  89.3190780
  33.7446430 151.0662120  89.4308180  34.5562590 152.3441490  89.4251440
  31.1913640 153.8349530 104.5546950  31.6952660 153.2556810 105.1263180
  30.4521060 154.1189760 105.0923320  33.2236720 151.9779120 105.4497020
  33.2642060 151.6792990 106.3582250  34.0782220 152.3786730 105.2904540
  37.0015110 154.5774670  90.6100530  37.4231530 154.4114540  91.4531920
  37.1265950 153.7674900  90.1155670  35.1642530 150.5571220 103.4171510
  34.6338990 150.0662170 102.7894850  35.8330600 150.9855420 102.8829440
  39.5142750 153.6012280  87.8577630  40.0348410 152.8861300  87.4918780
  40.1611150 154.2398150  88.1578140  44.5342760 152.3636840 105.1851850
  45.1163530 151.6089160 105.0972330  44.7104530 152.8944280 104.4083330
  35.6514830 147.5233590 103.4968800  35.5571700 146.9054340 102.7719670
  35.0712220 148.2499880 103.2698710  38.4176270 146.0806830 100.5296190
  37.9693570 146.1031090  99.6841740  37.7841470 145.6825850 101.1266490
  41.1599720 152.7077340 102.5346470  41.2795930 152.1118480 103.2741310
  42.0193720 152.7447030 102.1147770  43.4987620 153.2614530 101.1108980
  42.9722840 153.7857150 100.5074120  43.8418960 153.8941920 101.7418710
  35.8974010 150.6507900  87.5558690  35.6963070 149.7875260  87.9172030
  35.7266060 150.5641260  86.6180290  37.9268490 149.2498690 103.7922290
  38.5168180 148.9414540 104.4800110  37.1088730 148.7778440 103.9482190
  42.7461920 148.8664500 104.0255310  42.0577440 148.2046040 103.9605300
  43.4667940 148.4202770 104.4703770  43.3762320 145.4616130  90.0845570
  43.6564610 144.6184030  90.4404990  42.6028050 145.6939240  90.5984320
  34.6956810 147.7508520  87.5436570  34.9982710 147.7575950  86.6355720
  35.4351400 147.4006380  88.0404230  37.9141740 146.6943140  88.5292770
  37.5663740 146.0167130  87.9495220  38.1154510 146.2332650  89.3436160
  31.2547380 153.2230790  94.9257140  30.5996220 152.9542430  94.2816840
  32.0925330 153.1135270  94.4759120  44.2037820 148.0172080  89.1475630
  44.6222700 147.8303060  88.3072290  43.8973880 147.1651130  89.4578560
  47.7027550 152.9296220  92.8451430  47.3271150 152.1624150  92.4132720
  46.9730670 153.3118920  93.3326360  32.2923310 153.6083360  99.4660480
  32.6596350 153.5210760 100.3456500  31.7234130 152.8449910  99.3667340
  47.0927170 152.0767740 102.4790950  46.8613260 151.8480490 101.5788900
  47.3531720 152.9967290 102.4335840  31.8439310 150.5192450 103.3718900
  30.9495360 150.4859210 103.7112610  32.3836860 150.7179240 104.1370150
  45.5315240 147.3024170 105.2570650  46.4085420 147.3107570 105.6404650
  45.5436080 146.5655010 104.6463000  30.4685460 150.4329720  90.8682470
  29.5649540 150.6959920  90.6934130  30.9526080 150.7040890  90.0882430
  46.9778510 151.1553710  96.1458670  47.5015990 150.6616360  95.5148840
  47.5637930 151.2904070  96.8906240  47.1568230 151.2393580  99.6678220
  46.2070940 151.2057120  99.7823210  47.3381240 152.1493690  99.4327990
  33.0112670 149.4895260  88.7776850  33.7204370 149.0678480  88.2924130
  32.2952610 149.5570490  88.1460200  32.6586830 145.5434590  87.8179500
  33.3814960 146.0843530  88.1360720  32.9311350 145.2698010  86.9421040
  46.4678480 150.4127060  92.0851080  46.9637600 150.1797930  92.8699960
  46.2694550 149.5738900  91.6688720  32.3479020 144.7940780  97.7202120
  32.9955210 144.2438160  97.2797280  32.7680860 145.0483930  98.5417930
  47.8965640 149.0488010  94.6188760  47.7864920 148.8944050  95.5571030
  48.6573230 148.5208950  94.3764170  46.2431360 144.9882140 101.0771760
  46.8803580 145.6016280 101.4430950  46.3906250 145.0242800 100.1320990
  48.7855910 146.8795930  87.8594900  49.7105220 146.7477110  87.6513190
  48.7631700 146.9588750  88.8131350  48.8594400 147.6506590  90.4851610
  48.0645900 147.5851710  91.0144520  49.0637680 148.5857230  90.4736960
  32.1011020 144.9496450 100.4627440  31.7525840 145.4060270 101.2285620
  31.7698720 144.0553580 100.5449870  39.6135840 146.1408330 103.9846860
  39.5524730 146.7330160 104.7342270  40.5536220 146.0334290 103.8397120
  42.2510400 145.7978390 103.6239150  42.8650810 146.1157680 102.9620230
  42.7959960 145.3126980 104.2435010  32.7731660 144.4772650 103.7378210
  33.3214650 144.2960700 102.9744320  32.8386970 143.6866760 104.2734520
  42.9918440 144.3610530  99.9508440  42.1178280 144.6945640  99.7481370
  42.8829190 143.8883710 100.7760310  43.8990420 146.5681400 101.3350160
  43.5703780 145.7533160 100.9551890  44.8472720 146.5251210 101.2115850
  40.7393260 145.2780370  98.8901350  39.9565050 145.7525870  99.1698110
  40.4456190 144.3735200  98.7814530  45.2914330 145.9803470  96.9350440
  45.7322420 145.9248570  96.0872040  45.0221920 146.8961480  97.0060620
  47.1552900 145.6118710  94.9459260  47.0941300 144.6679930  94.7990280
  47.9344930 145.7198800  95.4912720  32.0833670 145.5827850  91.4115070
  32.8413030 145.6956730  90.8379100  31.6210840 146.4197050  91.3658500
  38.6247480 147.6967120  94.4017380  37.8121990 147.3224010  94.0613260
  39.1289120 146.9412200  94.7038570  43.1272460 144.3609570  95.6400450
  43.7301830 144.9329780  96.1148970  42.3865450 144.9249010  95.4174350
  46.2707060 144.7631130  90.9140730  46.4657690 145.6614580  91.1808160
  45.4836930 144.5318210  91.4073680  34.4558820 146.1091900  89.9517040
  34.9851580 145.3221700  89.8224990  35.0887140 146.7883090  90.1852570
  36.6496660 145.8467040  93.0062430  36.0199400 145.1454350  93.1732560
  36.1101800 146.6071170  92.7895590  36.7752220 145.1251020 105.4414920
  36.4936490 145.6284620 104.6775740  37.1571920 144.3272770 105.0757050
  43.3767680 144.5404600 106.0195390  43.2633130 144.8599210 106.9146910
  44.1937420 144.9417110 105.7232670  42.2825830 152.5597070  76.3830130
  42.2019880 151.6451680  76.1121840  41.8690250 153.0564140  75.6769840
  40.4143870 154.3376090  78.2639400  39.6385970 153.8576530  78.5537970
  41.0656800 153.6581740  78.0895560  34.4309700 154.6495900  79.1415160
  33.5994580 154.3944610  79.5411670  35.0390680 154.7206670  79.8773080
  32.8401650 149.6097790  72.9257550  31.9518350 149.9513760  72.8237430
  33.1242840 149.4098110  72.0338380  30.8034660 152.2103440  78.8097250
  31.3750770 151.4425640  78.8100890  30.8036200 152.5092200  77.9003860
  32.0459530 147.6187800  80.5966180  31.8662370 146.7213550  80.8768940
  31.6439610 148.1659670  81.2713130  40.8858030 149.8203660  78.4978490
  41.2622850 148.9475540  78.3852160  40.7877540 150.1562360  77.6068930
  35.0163040 148.1929290  73.9595930  35.1229790 149.0933020  74.2664690
  34.1055400 148.1447260  73.6690580  44.6682150 147.3154100  75.4306830
  45.4891770 146.8250670  75.4732310  44.7016230 147.9051760  76.1838670
  32.6646200 150.1148300  79.2048520  33.3456310 150.3786670  79.8235920
  32.3494250 149.2749170  79.5386530  36.8570770 151.1615660  78.2921110
  37.3648990 151.6596630  78.9326130  37.3884010 150.3850860  78.1160470
  48.9581700 149.3320850  81.9950460  48.2533870 149.7202560  81.4765570
  49.2239620 150.0271140  82.5971390  35.1406870 145.8014220  82.5584530
  35.1425310 146.3186610  81.7530430  34.3111180 145.3244400  82.5354460
  44.9043630 149.2554480  78.2034370  44.1999200 149.5439370  78.7837480
  45.2655790 150.0654590  77.8433930  34.8222200 147.5124180  80.5654980
  35.1639010 148.3566230  80.2708850  33.8838010 147.6607920  80.6820320
  47.9730550 148.7009270  78.5943580  47.0255460 148.7348250  78.7259010
  48.2980540 149.5148220  78.9792940  38.5050090 145.0006450  76.8899570
  38.8125070 144.4453340  76.1735070  37.5750790 145.1350910  76.7072560
  40.8930850 153.0655280  73.6259690  39.9660130 152.9992660  73.8548160
  41.0455670 154.0035410  73.5114930  40.8799930 149.3372280  70.6226850
  39.9403600 149.4986240  70.7079310  41.1983190 150.0557960  70.0762840
  47.4012690 154.0190800  80.6005880  46.5731320 154.0883890  80.1256010
  47.9963170 154.6045110  80.1321710  44.9228140 154.6275580  74.1294940
  44.3040560 154.2895130  73.4821240  44.9052590 153.9835340  74.8374130
  44.3654700 150.8060120  81.5460750  43.9525880 151.6313830  81.8000740
  43.6330650 150.2205160  81.3537110  36.4987490 153.5920020  76.4079420
  36.0944490 152.8797270  75.9125320  36.5850610 153.2473260  77.2967460
  35.2116110 150.3663230  80.1878460  35.7630700 150.4758570  79.4131710
  35.7259620 150.7400830  80.9033690  43.0992840 153.8662390  71.1367690
  43.5386120 153.0284820  70.9905510  43.8121260 154.4991790  71.2231830
  34.8858840 153.8882590  83.7983800  34.7466610 154.7605390  84.1671200
  34.0040200 153.5455400  83.6531740  46.6809980 145.1205200  69.4508730
  46.3682640 145.2132030  70.3507800  47.4422450 145.6986230  69.4006160
  33.1992120 152.4865000  73.9086070  33.0789720 153.2127090  73.2967340
  32.8893010 151.7167910  73.4313980  47.8911270 149.8576700  85.4282870
  47.2755540 150.3656370  84.8998330  47.5707690 148.9575030  85.3708810
  35.6655780 145.8300070  77.2909740  35.2223930 146.6109610  76.9594260
  36.2240770 146.1529960  77.9980680  39.9525590 148.6968590  82.8945060
  39.4904960 148.9051610  83.7065000  39.5503700 147.8827940  82.5915730
  44.9530100 149.9177540  84.0241720  44.1023690 149.6183290  84.3450790
  44.7931890 150.1619550  83.1125540  42.0479810 151.4179290  86.1240510
  42.3733220 150.5843040  85.7842740  42.8360140 151.9407810  86.2718840
  38.7814600 145.4510770  72.1715570  38.1568780 145.4470640  72.8968880
  38.6944720 144.5841730  71.7751540  37.7031680 146.3747400  79.1499340
  38.0004010 147.2810230  79.0691360  38.2517240 145.8866180  78.5358910
  35.4570000 150.9533640  75.0190990  35.2310920 150.7370810  75.9237610
  34.6762530 151.3862100  74.6736960  42.6867760 150.9597010  73.6181640
  42.0876650 151.6832810  73.4345260  43.2347370 150.8973790  72.8358090
  37.8969210 151.8519220  85.6851260  37.8012810 150.9113950  85.5351660
  38.7401190 152.0734290  85.2899330  41.2932630 149.5960550  75.6484920
  41.6862200 149.9132750  74.8353610  41.6549480 148.7172430  75.7629440
  33.0279750 148.2632890  83.8385040  32.6343140 149.1108100  84.0457820
  32.3398150 147.6259260  84.0293680  39.6024800 148.3467860  86.9081780
  38.9123120 148.1540060  87.5427870  40.3457100 148.6302500  87.4406080
  30.3296800 146.1861350  77.8715120  30.0409850 146.7564210  78.5840100
  31.0742560 145.7065800  78.2346350  30.5167030 150.1281470  69.0817840
  30.4341700 151.0712230  69.2232830  30.1650090 149.9856380  68.2030190
  41.8787770 152.1866300  79.7435700  41.1468890 152.6953110  80.0925800
  41.4812110 151.3696280  79.4424480  38.3165160 148.8620500  78.1488190
  38.3201220 148.4210450  77.2992730  39.2116280 149.1837830  78.2560010
  34.1667540 148.7446990  77.1082400  33.8267590 149.2222220  77.8649450
  33.4044860 148.2912110  76.7483500  38.3785310 149.8632580  71.1394950
  38.4998130 149.8219060  72.0880770  37.9933820 150.7256730  70.9841680
  42.3413680 147.6399980  79.1558640  42.3586420 148.0908630  80.0000490
  42.0929260 146.7405620  79.3692080  37.3906810 152.1733720  70.5378250
  36.8223710 151.7251970  69.9114160  38.0995810 152.5326500  70.0043400
  45.7684430 145.0532160  84.9945020  46.0930200 144.3221820  85.5203000
  45.8040940 144.7345800  84.0926010  38.6173130 152.9222280  79.8953600
  38.9843260 152.4480850  80.6414940  38.4278190 153.7963850  80.2361940
  31.4813620 147.6665970  76.0247070  31.1960540 147.3021640  76.8625690
  31.4192480 146.9346430  75.4110210  36.4072500 151.9630920  82.2137810
  36.1029570 152.8422900  82.4388170  37.3618960 152.0230710  82.2495250
  41.1552210 146.5595230  72.7460440  40.3416820 146.0608400  72.6705750
  40.9614160 147.3993480  72.3296790  43.8700600 150.9314880  71.0422600
  44.7580220 151.2432110  70.8673940  43.8405690 150.0587130  70.6503180
  32.4636230 152.8033660  83.3609170  32.1051170 153.4687510  83.9482510
  32.1690790 151.9717210  83.7321790  35.6649350 153.2617900  86.2448720
  35.3649490 153.4075080  85.3476540  36.4360590 152.7023190  86.1522110
  46.1414870 152.2426720  70.5102460  46.0578590 152.6740940  69.6598900
  46.8609060 152.7025070  70.9429280  30.9744280 152.8024920  69.9843770
  31.8439130 153.0849720  70.2679690  30.4834600 153.6160790  69.8692580
  34.0390870 144.5335780  74.5774570  33.9105500 144.5253680  75.5259490
  33.2152890 144.8718870  74.2265580  31.0384800 146.2926900  84.0381270
  30.3243320 146.4923820  84.6433880  31.4579840 145.5166470  84.4096070
  42.5323580 148.7849210  81.7882720  42.9004400 147.9644420  82.1162290
  41.6721780 148.8451100  82.2038370  45.8985610 147.7406150  72.5970280
  45.2698770 147.8451820  71.8828510  45.4037530 147.9602930  73.3864160
  37.8669640 150.0192100  74.0128160  37.1585790 150.4878440  74.4541770
  38.1514120 149.3614110  74.6473350  39.4925570 151.4388800  82.0120690
  39.9910820 151.9134620  82.6772540  39.6348520 150.5152320  82.2190720
  41.8985070 146.7442760  75.4523950  41.7752850 146.7628890  74.5033460
  42.8469630 146.7921700  75.5722350  36.0704660 148.3277180  71.3878870
  36.9195190 148.7647330  71.3219060  35.7035930 148.6397440  72.2150930
  46.6992430 147.6556760  82.8549080  46.1966030 148.3962160  83.1942890
  47.5149090 148.0440760  82.5385870  44.9914440 152.8989940  76.3010440
  44.0504580 152.9140170  76.4758130  45.3058510 152.1125900  76.7470740
  34.9696080 154.5809540  69.8614400  35.7359350 154.4690900  70.4239830
  35.0470770 153.8847510  69.2091170  33.6642840 152.0134610  70.5447290
  33.7446430 151.0662120  70.6564690  34.5562590 152.3441490  70.6507950
  31.1913640 153.8349530  85.7803460  31.6952660 153.2556810  86.3519690
  30.4521060 154.1189760  86.3179830  33.2236720 151.9779120  86.6753530
  33.2642060 151.6792990  87.5838760  34.0782220 152.3786730  86.5161050
  37.0015110 154.5774670  71.8357040  37.4231530 154.4114540  72.6788430
  37.1265950 153.7674900  71.3412180  35.1642530 150.5571220  84.6428020
  34.6338990 150.0662170  84.0151360  35.8330600 150.9855420  84.1085950
  39.5142750 153.6012280  69.0834140  40.0348410 152.8861300  68.7175290
  40.1611150 154.2398150  69.3834650  44.5342760 152.3636840  86.4108360
  45.1163530 151.6089160  86.3228840  44.7104530 152.8944280  85.6339840
  35.6514830 147.5233590  84.7225310  35.5571700 146.9054340  83.9976180
  35.0712220 148.2499880  84.4955220  38.4176270 146.0806830  81.7552700
  37.9693570 146.1031090  80.9098250  37.7841470 145.6825850  82.3523000
  41.1599720 152.7077340  83.7602980  41.2795930 152.1118480  84.4997820
  42.0193720 152.7447030  83.3404280  43.4987620 153.2614530  82.3365490
  42.9722840 153.7857150  81.7330630  43.8418960 153.8941920  82.9675220
  35.8974010 150.6507900  68.7815200  35.6963070 149.7875260  69.1428540
  35.7266060 150.5641260  67.8436800  37.9268490 149.2498690  85.0178800
  38.5168180 148.9414540  85.7056620  37.1088730 148.7778440  85.1738700
  42.7461920 148.8664500  85.2511820  42.0577440 148.2046040  85.1861810
  43.4667940 148.4202770  85.6960280  43.3762320 145.4616130  71.3102080
  43.6564610 144.6184030  71.6661500  42.6028050 145.6939240  71.8240830
  34.6956810 147.7508520  68.7693080  34.9982710 147.7575950  67.8612230
  35.4351400 147.4006380  69.2660740  37.9141740 146.6943140  69.7549280
  37.5663740 146.0167130  69.1751730  38.1154510 146.2332650  70.5692670
  31.2547380 153.2230790  76.1513650  30.5996220 152.9542430  75.5073350
  32.0925330 153.1135270  75.7015630  44.2037820 148.0172080  70.3732140
  44.6222700 147.8303060  69.5328800  43.8973880 147.1651130  70.6835070
  47.7027550 152.9296220  74.0707940  47.3271150 152.1624150  73.6389230
  46.9730670 153.3118920  74.5582870  32.2923310 153.6083360  80.6916990
  32.6596350 153.5210760  81.5713010  31.7234130 152.8449910  80.5923850
  47.0927170 152.0767740  83.7047460  46.8613260 151.8480490  82.8045410
  47.3531720 152.9967290  83.6592350  31.8439310 150.5192450  84.5975410
  30.9495360 150.4859210  84.9369120  32.3836860 150.7179240  85.3626660
  45.5315240 147.3024170  86.4827160  46.4085420 147.3107570  86.8661160
  45.5436080 146.5655010  85.8719510  30.4685460 150.4329720  72.0938980
  29.5649540 150.6959920  71.9190640  30.9526080 150.7040890  71.3138940
  46.9778510 151.1553710  77.3715180  47.5015990 150.6616360  76.7405350
  47.5637930 151.2904070  78.1162750  47.1568230 151.2393580  80.8934730
  46.2070940 151.2057120  81.0079720  47.3381240 152.1493690  80.6584500
  33.0112670 149.4895260  70.0033360  33.7204370 149.0678480  69.5180640
  32.2952610 149.5570490  69.3716710  32.6586830 145.5434590  69.0436010
  33.3814960 146.0843530  69.3617230  32.9311350 145.2698010  68.1677550
  46.4678480 150.4127060  73.3107590  46.9637600 150.1797930  74.0956470
  46.2694550 149.5738900  72.8945230  32.3479020 144.7940780  78.9458630
  32.9955210 144.2438160  78.5053790  32.7680860 145.0483930  79.7674440
  47.8965640 149.0488010  75.8445270  47.7864920 148.8944050  76.7827540
  48.6573230 148.5208950  75.6020680  46.2431360 144.9882140  82.3028270
  46.8803580 145.6016280  82.6687460  46.3906250 145.0242800  81.3577500
  48.7855910 146.8795930  69.0851410  49.7105220 146.7477110  68.8769700
  48.7631700 146.9588750  70.0387860  48.8594400 147.6506590  71.7108120
  48.0645900 147.5851710  72.2401030  49.0637680 148.5857230  71.6993470
  32.1011020 144.9496450  81.6883950  31.7525840 145.4060270  82.4542130
  31.7698720 144.0553580  81.7706380  39.6135840 146.1408330  85.2103370
  39.5524730 146.7330160  85.9598780  40.5536220 146.0334290  85.0653630
  42.2510400 145.7978390  84.8495660  42.8650810 146.1157680  84.1876740
  42.7959960 145.3126980  85.4691520  32.7731660 144.4772650  84.9634720
  33.3214650 144.2960700  84.2000830  32.8386970 143.6866760  85.4991030
  42.9918440 144.3610530  81.1764950  42.1178280 144.6945640  80.9737880
  42.8829190 143.8883710  82.0016820  43.8990420 146.5681400  82.5606670
  43.5703780 145.7533160  82.1808400  44.8472720 146.5251210  82.4372360
  40.7393260 145.2780370  80.1157860  39.9565050 145.7525870  80.3954620
  40.4456190 144.3735200  80.0071040  45.2914330 145.9803470  78.1606950
  45.7322420 145.9248570  77.3128550  45.0221920 146.8961480  78.2317130
  47.1552900 145.6118710  76.1715770  47.0941300 144.6679930  76.0246790
  47.9344930 145.7198800  76.7169230  32.0833670 145.5827850  72.6371580
  32.8413030 145.6956730  72.0635610  31.6210840 146.4197050  72.5915010
  38.6247480 147.6967120  75.6273890  37.8121990 147.3224010  75.2869770
  39.1289120 146.9412200  75.9295080  43.1272460 144.3609570  76.8656960
  43.7301830 144.9329780  77.3405480  42.3865450 144.9249010  76.6430860
  46.2707060 144.7631130  72.1397240  46.4657690 145.6614580  72.4064670
  45.4836930 144.5318210  72.6330190  34.4558820 146.1091900  71.1773550
  34.9851580 145.3221700  71.0481500  35.0887140 146.7883090  71.4109080
  36.6496660 145.8467040  74.2318940  36.0199400 145.1454350  74.3989070
  36.1101800 146.6071170  74.0152100  36.7752220 145.1251020  86.6671430
  36.4936490 145.6284620  85.9032250  37.1571920 144.3272770  86.3013560
  43.3767680 144.5404600  87.2451900  43.2633130 144.8599210  88.1403420
  44.1937420 144.9417110  86.9489180  42.2825830 152.5597070  57.6086640
  42.2019880 151.6451680  57.3378350  41.8690250 153.0564140  56.9026350
  40.4143870 154.3376090  59.4895910  39.6385970 153.8576530  59.7794480
  41.0656800 153.6581740  59.3152070  34.4309700 154.6495900  60.3671670
  33.5994580 154.3944610  60.7668180  35.0390680 154.7206670  61.1029590
  32.8401650 149.6097790  54.1514060  31.9518350 149.9513760  54.0493940
  33.1242840 149.4098110  53.2594890  30.8034660 152.2103440  60.0353760
  31.3750770 151.4425640  60.0357400  30.8036200 152.5092200  59.1260370
  32.0459530 147.6187800  61.8222690  31.8662370 146.7213550  62.1025450
  31.6439610 148.1659670  62.4969640  40.8858030 149.8203660  59.7235000
  41.2622850 148.9475540  59.6108670  40.7877540 150.1562360  58.8325440
  35.0163040 148.1929290  55.1852440  35.1229790 149.0933020  55.4921200
  34.1055400 148.1447260  54.8947090  44.6682150 147.3154100  56.6563340
  45.4891770 146.8250670  56.6988820  44.7016230 147.9051760  57.4095180
  32.6646200 150.1148300  60.4305030  33.3456310 150.3786670  61.0492430
  32.3494250 149.2749170  60.7643040  36.8570770 151.1615660  59.5177620
  37.3648990 151.6596630  60.1582640  37.3884010 150.3850860  59.3416980
  48.9581700 149.3320850  63.2206970  48.2533870 149.7202560  62.7022080
  49.2239620 150.0271140  63.8227900  35.1406870 145.8014220  63.7841040
  35.1425310 146.3186610  62.9786940  34.3111180 145.3244400  63.7610970
  44.9043630 149.2554480  59.4290880  44.1999200 149.5439370  60.0093990
  45.2655790 150.0654590  59.0690440  34.8222200 147.5124180  61.7911490
  35.1639010 148.3566230  61.4965360  33.8838010 147.6607920  61.9076830
  47.9730550 148.7009270  59.8200090  47.0255460 148.7348250  59.9515520
  48.2980540 149.5148220  60.2049450  38.5050090 145.0006450  58.1156080
  38.8125070 144.4453340  57.3991580  37.5750790 145.1350910  57.9329070
  40.8930850 153.0655280  54.8516200  39.9660130 152.9992660  55.0804670
  41.0455670 154.0035410  54.7371440  40.8799930 149.3372280  51.8483360
  39.9403600 149.4986240  51.9335820  41.1983190 150.0557960  51.3019350
  47.4012690 154.0190800  61.8262390  46.5731320 154.0883890  61.3512520
  47.9963170 154.6045110  61.3578220  44.9228140 154.6275580  55.3551450
  44.3040560 154.2895130  54.7077750  44.9052590 153.9835340  56.0630640
  44.3654700 150.8060120  62.7717260  43.9525880 151.6313830  63.0257250
  43.6330650 150.2205160  62.5793620  36.4987490 153.5920020  57.6335930
  36.0944490 152.8797270  57.1381830  36.5850610 153.2473260  58.5223970
  35.2116110 150.3663230  61.4134970  35.7630700 150.4758570  60.6388220
  35.7259620 150.7400830  62.1290200  43.0992840 153.8662390  52.3624200
  43.5386120 153.0284820  52.2162020  43.8121260 154.4991790  52.4488340
  34.8858840 153.8882590  65.0240310  34.7466610 154.7605390  65.3927710
  34.0040200 153.5455400  64.8788250  46.6809980 145.1205200  50.6765240
  46.3682640 145.2132030  51.5764310  47.4422450 145.6986230  50.6262670
  33.1992120 152.4865000  55.1342580  33.0789720 153.2127090  54.5223850
  32.8893010 151.7167910  54.6570490  47.8911270 149.8576700  66.6539380
  47.2755540 150.3656370  66.1254840  47.5707690 148.9575030  66.5965320
  35.6655780 145.8300070  58.5166250  35.2223930 146.6109610  58.1850770
  36.2240770 146.1529960  59.2237190  39.9525590 148.6968590  64.1201570
  39.4904960 148.9051610  64.9321510  39.5503700 147.8827940  63.8172240
  44.9530100 149.9177540  65.2498230  44.1023690 149.6183290  65.5707300
  44.7931890 150.1619550  64.3382050  42.0479810 151.4179290  67.3497020
  42.3733220 150.5843040  67.0099250  42.8360140 151.9407810  67.4975350
  38.7814600 145.4510770  53.3972080  38.1568780 145.4470640  54.1225390
  38.6944720 144.5841730  53.0008050  37.7031680 146.3747400  60.3755850
  38.0004010 147.2810230  60.2947870  38.2517240 145.8866180  59.7615420
  35.4570000 150.9533640  56.2447500  35.2310920 150.7370810  57.1494120
  34.6762530 151.3862100  55.8993470  42.6867760 150.9597010  54.8438150
  42.0876650 151.6832810  54.6601770  43.2347370 150.8973790  54.0614600
  37.8969210 151.8519220  66.9107770  37.8012810 150.9113950  66.7608170
  38.7401190 152.0734290  66.5155840  41.2932630 149.5960550  56.8741430
  41.6862200 149.9132750  56.0610120  41.6549480 148.7172430  56.9885950
  33.0279750 148.2632890  65.0641550  32.6343140 149.1108100  65.2714330
  32.3398150 147.6259260  65.2550190  39.6024800 148.3467860  68.1338290
  38.9123120 148.1540060  68.7684380  40.3457100 148.6302500  68.6662590
  30.3296800 146.1861350  59.0971630  30.0409850 146.7564210  59.8096610
  31.0742560 145.7065800  59.4602860  30.5167030 150.1281470  50.3074350
  30.4341700 151.0712230  50.4489340  30.1650090 149.9856380  49.4286700
  41.8787770 152.1866300  60.9692210  41.1468890 152.6953110  61.3182310
  41.4812110 151.3696280  60.6680990  38.3165160 148.8620500  59.3744700
  38.3201220 148.4210450  58.5249240  39.2116280 149.1837830  59.4816520
  34.1667540 148.7446990  58.3338910  33.8267590 149.2222220  59.0905960
  33.4044860 148.2912110  57.9740010  38.3785310 149.8632580  52.3651460
  38.4998130 149.8219060  53.3137280  37.9933820 150.7256730  52.2098190
  42.3413680 147.6399980  60.3815150  42.3586420 148.0908630  61.2257000
  42.0929260 146.7405620  60.5948590  37.3906810 152.1733720  51.7634760
  36.8223710 151.7251970  51.1370670  38.0995810 152.5326500  51.2299910
  45.7684430 145.0532160  66.2201530  46.0930200 144.3221820  66.7459510
  45.8040940 144.7345800  65.3182520  38.6173130 152.9222280  61.1210110
  38.9843260 152.4480850  61.8671450  38.4278190 153.7963850  61.4618450
  31.4813620 147.6665970  57.2503580  31.1960540 147.3021640  58.0882200
  31.4192480 146.9346430  56.6366720  36.4072500 151.9630920  63.4394320
  36.1029570 152.8422900  63.6644680  37.3618960 152.0230710  63.4751760
  41.1552210 146.5595230  53.9716950  40.3416820 146.0608400  53.8962260
  40.9614160 147.3993480  53.5553300  43.8700600 150.9314880  52.2679110
  44.7580220 151.2432110  52.0930450  43.8405690 150.0587130  51.8759690
  32.4636230 152.8033660  64.5865680  32.1051170 153.4687510  65.1739020
  32.1690790 151.9717210  64.9578300  35.6649350 153.2617900  67.4705230
  35.3649490 153.4075080  66.5733050  36.4360590 152.7023190  67.3778620
  46.1414870 152.2426720  51.7358970  46.0578590 152.6740940  50.8855410
  46.8609060 152.7025070  52.1685790  30.9744280 152.8024920  51.2100280
  31.8439130 153.0849720  51.4936200  30.4834600 153.6160790  51.0949090
  34.0390870 144.5335780  55.8031080  33.9105500 144.5253680  56.7516000
  33.2152890 144.8718870  55.4522090  31.0384800 146.2926900  65.2637780
  30.3243320 146.4923820  65.8690390  31.4579840 145.5166470  65.6352580
  42.5323580 148.7849210  63.0139230  42.9004400 147.9644420  63.3418800
  41.6721780 148.8451100  63.4294880  45.8985610 147.7406150  53.8226790
  45.2698770 147.8451820  53.1085020  45.4037530 147.9602930  54.6120670
  37.8669640 150.0192100  55.2384670  37.1585790 150.4878440  55.6798280
  38.1514120 149.3614110  55.8729860  39.4925570 151.4388800  63.2377200
  39.9910820 151.9134620  63.9029050  39.6348520 150.5152320  63.4447230
  41.8985070 146.7442760  56.6780460  41.7752850 146.7628890  55.7289970
  42.8469630 146.7921700  56.7978860  36.0704660 148.3277180  52.6135380
  36.9195190 148.7647330  52.5475570  35.7035930 148.6397440  53.4407440
  46.6992430 147.6556760  64.0805590  46.1966030 148.3962160  64.4199400
  47.5149090 148.0440760  63.7642380  44.9914440 152.8989940  57.5266950
  44.0504580 152.9140170  57.7014640  45.3058510 152.1125900  57.9727250
  34.9696080 154.5809540  51.0870910  35.7359350 154.4690900  51.6496340
  35.0470770 153.8847510  50.4347680  33.6642840 152.0134610  51.7703800
  33.7446430 151.0662120  51.8821200  34.5562590 152.3441490  51.8764460
  31.1913640 153.8349530  67.0059970  31.6952660 153.2556810  67.5776200
  30.4521060 154.1189760  67.5436340  33.2236720 151.9779120  67.9010040
  33.2642060 151.6792990  68.8095270  34.0782220 152.3786730  67.7417560
  37.0015110 154.5774670  53.0613550  37.4231530 154.4114540  53.9044940
  37.1265950 153.7674900  52.5668690  35.1642530 150.5571220  65.8684530
  34.6338990 150.0662170  65.2407870  35.8330600 150.9855420  65.3342460
  39.5142750 153.6012280  50.3090650  40.0348410 152.8861300  49.9431800
  40.1611150 154.2398150  50.6091160  44.5342760 152.3636840  67.6364870
  45.1163530 151.6089160  67.5485350  44.7104530 152.8944280  66.8596350
  35.6514830 147.5233590  65.9481820  35.5571700 146.9054340  65.2232690
  35.0712220 148.2499880  65.7211730  38.4176270 146.0806830  62.9809210
  37.9693570 146.1031090  62.1354760  37.7841470 145.6825850  63.5779510
  41.1599720 152.7077340  64.9859490  41.2795930 152.1118480  65.7254330
  42.0193720 152.7447030  64.5660790  43.4987620 153.2614530  63.5622000
  42.9722840 153.7857150  62.9587140  43.8418960 153.8941920  64.1931730
  35.8974010 150.6507900  50.0071710  35.6963070 149.7875260  50.3685050
  35.7266060 150.5641260  49.0693310  37.9268490 149.2498690  66.2435310
  38.5168180 148.9414540  66.9313130  37.1088730 148.7778440  66.3995210
  42.7461920 148.8664500  66.4768330  42.0577440 148.2046040  66.4118320
  43.4667940 148.4202770  66.9216790  43.3762320 145.4616130  52.5358590
  43.6564610 144.6184030  52.8918010  42.6028050 145.6939240  53.0497340
  34.6956810 147.7508520  49.9949590  34.9982710 147.7575950  49.0868740
  35.4351400 147.4006380  50.4917250  37.9141740 146.6943140  50.9805790
  37.5663740 146.0167130  50.4008240  38.1154510 146.2332650  51.7949180
  31.2547380 153.2230790  57.3770160  30.5996220 152.9542430  56.7329860
  32.0925330 153.1135270  56.9272140  44.2037820 148.0172080  51.5988650
  44.6222700 147.8303060  50.7585310  43.8973880 147.1651130  51.9091580
  47.7027550 152.9296220  55.2964450  47.3271150 152.1624150  54.8645740
  46.9730670 153.3118920  55.7839380  32.2923310 153.6083360  61.9173500
  32.6596350 153.5210760  62.7969520  31.7234130 152.8449910  61.8180360
  47.0927170 152.0767740  64.9303970  46.8613260 151.8480490  64.0301920
  47.3531720 152.9967290  64.8848860  31.8439310 150.5192450  65.8231920
  30.9495360 150.4859210  66.1625630  32.3836860 150.7179240  66.5883170
  45.5315240 147.3024170  67.7083670  46.4085420 147.3107570  68.0917670
  45.5436080 146.5655010  67.0976020  30.4685460 150.4329720  53.3195490
  29.5649540 150.6959920  53.1447150  30.9526080 150.7040890  52.5395450
  46.9778510 151.1553710  58.5971690  47.5015990 150.6616360  57.9661860
  47.5637930 151.2904070  59.3419260  47.1568230 151.2393580  62.1191240
  46.2070940 151.2057120  62.2336230  47.3381240 152.1493690  61.8841010
  33.0112670 149.4895260  51.2289870  33.7204370 149.0678480  50.7437150
  32.2952610 149.5570490  50.5973220  32.6586830 145.5434590  50.2692520
  33.3814960 146.0843530  50.5873740  32.9311350 145.2698010  49.3934060
  46.4678480 150.4127060  54.5364100  46.9637600 150.1797930  55.3212980
  46.2694550 149.5738900  54.1201740  32.3479020 144.7940780  60.1715140
  32.9955210 144.2438160  59.7310300  32.7680860 145.0483930  60.9930950
  47.8965640 149.0488010  57.0701780  47.7864920 148.8944050  58.0084050
  48.6573230 148.5208950  56.8277190  46.2431360 144.9882140  63.5284780
  46.8803580 145.6016280  63.8943970  46.3906250 145.0242800  62.5834010
  48.7855910 146.8795930  50.3107920  49.7105220 146.7477110  50.1026210
  48.7631700 146.9588750  51.2644370  48.8594400 147.6506590  52.9364630
  48.0645900 147.5851710  53.4657540  49.0637680 148.5857230  52.9249980
  32.1011020 144.9496450  62.9140460  31.7525840 145.4060270  63.6798640
  31.7698720 144.0553580  62.9962890  39.6135840 146.1408330  66.4359880
  39.5524730 146.7330160  67.1855290  40.5536220 146.0334290  66.2910140
  42.2510400 145.7978390  66.0752170  42.8650810 146.1157680  65.4133250
  42.7959960 145.3126980  66.6948030  32.7731660 144.4772650  66.1891230
  33.3214650 144.2960700  65.4257340  32.8386970 143.6866760  66.7247540
  42.9918440 144.3610530  62.4021460  42.1178280 144.6945640  62.1994390
  42.8829190 143.8883710  63.2273330  43.8990420 146.5681400  63.7863180
  43.5703780 145.7533160  63.4064910  44.8472720 146.5251210  63.6628870
  40.7393260 145.2780370  61.3414370  39.9565050 145.7525870  61.6211130
  40.4456190 144.3735200  61.2327550  45.2914330 145.9803470  59.3863460
  45.7322420 145.9248570  58.5385060  45.0221920 146.8961480  59.4573640
  47.1552900 145.6118710  57.3972280  47.0941300 144.6679930  57.2503300
  47.9344930 145.7198800  57.9425740  32.0833670 145.5827850  53.8628090
  32.8413030 145.6956730  53.2892120  31.6210840 146.4197050  53.8171520
  38.6247480 147.6967120  56.8530400  37.8121990 147.3224010  56.5126280
  39.1289120 146.9412200  57.1551590  43.1272460 144.3609570  58.0913470
  43.7301830 144.9329780  58.5661990  42.3865450 144.9249010  57.8687370
  46.2707060 144.7631130  53.3653750  46.4657690 145.6614580  53.6321180
  45.4836930 144.5318210  53.8586700  34.4558820 146.1091900  52.4030060
  34.9851580 145.3221700  52.2738010  35.0887140 146.7883090  52.6365590
  36.6496660 145.8467040  55.4575450  36.0199400 145.1454350  55.6245580
  36.1101800 146.6071170  55.2408610  36.7752220 145.1251020  67.8927940
  36.4936490 145.6284620  67.1288760  37.1571920 144.3272770  67.5270070
  43.3767680 144.5404600  68.4708410  43.2633130 144.8599210  69.3659930
  44.1937420 144.9417110  68.1745690  42.2825830 152.5597070  38.8343150
  42.2019880 151.6451680  38.5634860  41.8690250 153.0564140  38.1282860
  40.4143870 154.3376090  40.7152420  39.6385970 153.8576530  41.0050990
  41.0656800 153.6581740  40.5408580  34.4309700 154.6495900  41.5928180
  33.5994580 154.3944610  41.9924690  35.0390680 154.7206670  42.3286100
  32.8401650 149.6097790  35.3770570  31.9518350 149.9513760  35.2750450
  33.1242840 149.4098110  34.4851400  30.8034660 152.2103440  41.2610270
  31.3750770 151.4425640  41.2613910  30.8036200 152.5092200  40.3516880
  32.0459530 147.6187800  43.0479200  31.8662370 146.7213550  43.3281960
  31.6439610 148.1659670  43.7226150  40.8858030 149.8203660  40.9491510
  41.2622850 148.9475540  40.8365180  40.7877540 150.1562360  40.0581950
  35.0163040 148.1929290  36.4108950  35.1229790 149.0933020  36.7177710
  34.1055400 148.1447260  36.1203600  44.6682150 147.3154100  37.8819850
  45.4891770 146.8250670  37.9245330  44.7016230 147.9051760  38.6351690
  32.6646200 150.1148300  41.6561540  33.3456310 150.3786670  42.2748940
  32.3494250 149.2749170  41.9899550  36.8570770 151.1615660  40.7434130
  37.3648990 151.6596630  41.3839150  37.3884010 150.3850860  40.5673490
  48.9581700 149.3320850  44.4463480  48.2533870 149.7202560  43.9278590
  49.2239620 150.0271140  45.0484410  35.1406870 145.8014220  45.0097550
  35.1425310 146.3186610  44.2043450  34.3111180 145.3244400  44.9867480
  44.9043630 149.2554480  40.6547390  44.1999200 149.5439370  41.2350500
  45.2655790 150.0654590  40.2946950  34.8222200 147.5124180  43.0168000
  35.1639010 148.3566230  42.7221870  33.8838010 147.6607920  43.1333340
  47.9730550 148.7009270  41.0456600  47.0255460 148.7348250  41.1772030
  48.2980540 149.5148220  41.4305960  38.5050090 145.0006450  39.3412590
  38.8125070 144.4453340  38.6248090  37.5750790 145.1350910  39.1585580
  40.8930850 153.0655280  36.0772710  39.9660130 152.9992660  36.3061180
  41.0455670 154.0035410  35.9627950  40.8799930 149.3372280  33.0739870
  39.9403600 149.4986240  33.1592330  41.1983190 150.0557960  32.5275860
  47.4012690 154.0190800  43.0518900  46.5731320 154.0883890  42.5769030
  47.9963170 154.6045110  42.5834730  44.9228140 154.6275580  36.5807960
  44.3040560 154.2895130  35.9334260  44.9052590 153.9835340  37.2887150
  44.3654700 150.8060120  43.9973770  43.9525880 151.6313830  44.2513760
  43.6330650 150.2205160  43.8050130  36.4987490 153.5920020  38.8592440
  36.0944490 152.8797270  38.3638340  36.5850610 153.2473260  39.7480480
  35.2116110 150.3663230  42.6391480  35.7630700 150.4758570  41.8644730
  35.7259620 150.7400830  43.3546710  43.0992840 153.8662390  33.5880710
  43.5386120 153.0284820  33.4418530  43.8121260 154.4991790  33.6744850
  34.8858840 153.8882590  46.2496820  34.7466610 154.7605390  46.6184220
  34.0040200 153.5455400  46.1044760  46.6809980 145.1205200  31.9021750
  46.3682640 145.2132030  32.8020820  47.4422450 145.6986230  31.8519180
  33.1992120 152.4865000  36.3599090  33.0789720 153.2127090  35.7480360
  32.8893010 151.7167910  35.8827000  47.8911270 149.8576700  47.8795890
  47.2755540 150.3656370  47.3511350  47.5707690 148.9575030  47.8221830
  35.6655780 145.8300070  39.7422760  35.2223930 146.6109610  39.4107280
  36.2240770 146.1529960  40.4493700  39.9525590 148.6968590  45.3458080
  39.4904960 148.9051610  46.1578020  39.5503700 147.8827940  45.0428750
  44.9530100 149.9177540  46.4754740  44.1023690 149.6183290  46.7963810
  44.7931890 150.1619550  45.5638560  42.0479810 151.4179290  48.5753530
  42.3733220 150.5843040  48.2355760  42.8360140 151.9407810  48.7231860
  38.7814600 145.4510770  34.6228590  38.1568780 145.4470640  35.3481900
  38.6944720 144.5841730  34.2264560  37.7031680 146.3747400  41.6012360
  38.0004010 147.2810230  41.5204380  38.2517240 145.8866180  40.9871930
  35.4570000 150.9533640  37.4704010  35.2310920 150.7370810  38.3750630
  34.6762530 151.3862100  37.1249980  42.6867760 150.9597010  36.0694660
  42.0876650 151.6832810  35.8858280  43.2347370 150.8973790  35.2871110
  37.8969210 151.8519220  48.1364280  37.8012810 150.9113950  47.9864680
  38.7401190 152.0734290  47.7412350  41.2932630 149.5960550  38.0997940
  41.6862200 149.9132750  37.2866630  41.6549480 148.7172430  38.2142460
  33.0279750 148.2632890  46.2898060  32.6343140 149.1108100  46.4970840
  32.3398150 147.6259260  46.4806700  39.6024800 148.3467860  49.3594800
  38.9123120 148.1540060  49.9940890  40.3457100 148.6302500  49.8919100
  30.3296800 146.1861350  40.3228140  30.0409850 146.7564210  41.0353120
  31.0742560 145.7065800  40.6859370  30.5167030 150.1281470  31.5330860
  30.4341700 151.0712230  31.6745850  30.1650090 149.9856380  30.6543210
  41.8787770 152.1866300  42.1948720  41.1468890 152.6953110  42.5438820
  41.4812110 151.3696280  41.8937500  38.3165160 148.8620500  40.6001210
  38.3201220 148.4210450  39.7505750  39.2116280 149.1837830  40.7073030
  34.1667540 148.7446990  39.5595420  33.8267590 149.2222220  40.3162470
  33.4044860 148.2912110  39.1996520  38.3785310 149.8632580  33.5907970
  38.4998130 149.8219060  34.5393790  37.9933820 150.7256730  33.4354700
  42.3413680 147.6399980  41.6071660  42.3586420 148.0908630  42.4513510
  42.0929260 146.7405620  41.8205100  37.3906810 152.1733720  32.9891270
  36.8223710 151.7251970  32.3627180  38.0995810 152.5326500  32.4556420
  45.7684430 145.0532160  47.4458040  46.0930200 144.3221820  47.9716020
  45.8040940 144.7345800  46.5439030  38.6173130 152.9222280  42.3466620
  38.9843260 152.4480850  43.0927960  38.4278190 153.7963850  42.6874960
  31.4813620 147.6665970  38.4760090  31.1960540 147.3021640  39.3138710
  31.4192480 146.9346430  37.8623230  36.4072500 151.9630920  44.6650830
  36.1029570 152.8422900  44.8901190  37.3618960 152.0230710  44.7008270
  41.1552210 146.5595230  35.1973460  40.3416820 146.0608400  35.1218770
  40.9614160 147.3993480  34.7809810  43.8700600 150.9314880  33.4935620
  44.7580220 151.2432110  33.3186960  43.8405690 150.0587130  33.1016200
  32.4636230 152.8033660  45.8122190  32.1051170 153.4687510  46.3995530
  32.1690790 151.9717210  46.1834810  35.6649350 153.2617900  48.6961740
  35.3649490 153.4075080  47.7989560  36.4360590 152.7023190  48.6035130
  46.1414870 152.2426720  32.9615480  46.0578590 152.6740940  32.1111920
  46.8609060 152.7025070  33.3942300  30.9744280 152.8024920  32.4356790
  31.8439130 153.0849720  32.7192710  30.4834600 153.6160790  32.3205600
  34.0390870 144.5335780  37.0287590  33.9105500 144.5253680  37.9772510
  33.2152890 144.8718870  36.6778600  31.0384800 146.2926900  46.4894290
  30.3243320 146.4923820  47.0946900  31.4579840 145.5166470  46.8609090
  42.5323580 148.7849210  44.2395740  42.9004400 147.9644420  44.5675310
  41.6721780 148.8451100  44.6551390  45.8985610 147.7406150  35.0483300
  45.2698770 147.8451820  34.3341530  45.4037530 147.9602930  35.8377180
  37.8669640 150.0192100  36.4641180  37.1585790 150.4878440  36.9054790
  38.1514120 149.3614110  37.0986370  39.4925570 151.4388800  44.4633710
  39.9910820 151.9134620  45.1285560  39.6348520 150.5152320  44.6703740
  41.8985070 146.7442760  37.9036970  41.7752850 146.7628890  36.9546480
  42.8469630 146.7921700  38.0235370  36.0704660 148.3277180  33.8391890
  36.9195190 148.7647330  33.7732080  35.7035930 148.6397440  34.6663950
  46.6992430 147.6556760  45.3062100  46.1966030 148.3962160  45.6455910
  47.5149090 148.0440760  44.9898890  44.9914440 152.8989940  38.7523460
  44.0504580 152.9140170  38.9271150  45.3058510 152.1125900  39.1983760
  34.9696080 154.5809540  32.3127420  35.7359350 154.4690900  32.8752850
  35.0470770 153.8847510  31.6604190  33.6642840 152.0134610  32.9960310
  33.7446430 151.0662120  33.1077710  34.5562590 152.3441490  33.1020970
  31.1913640 153.8349530  48.2316480  31.6952660 153.2556810  48.8032710
  30.4521060 154.1189760  48.7692850  33.2236720 151.9779120  49.1266550
  33.2642060 151.6792990  50.0351780  34.0782220 152.3786730  48.9674070
  37.0015110 154.5774670  34.2870060  37.4231530 154.4114540  35.1301450
  37.1265950 153.7674900  33.7925200  35.1642530 150.5571220  47.0941040
  34.6338990 150.0662170  46.4664380  35.8330600 150.9855420  46.5598970
  39.5142750 153.6012280  31.5347160  40.0348410 152.8861300  31.1688310
  40.1611150 154.2398150  31.8347670  44.5342760 152.3636840  48.8621380
  45.1163530 151.6089160  48.7741860  44.7104530 152.8944280  48.0852860
  35.6514830 147.5233590  47.1738330  35.5571700 146.9054340  46.4489200
  35.0712220 148.2499880  46.9468240  38.4176270 146.0806830  44.2065720
  37.9693570 146.1031090  43.3611270  37.7841470 145.6825850  44.8036020
  41.1599720 152.7077340  46.2116000  41.2795930 152.1118480  46.9510840
  42.0193720 152.7447030  45.7917300  43.4987620 153.2614530  44.7878510
  42.9722840 153.7857150  44.1843650  43.8418960 153.8941920  45.4188240
  35.8974010 150.6507900  31.2328220  35.6963070 149.7875260  31.5941560
  35.7266060 150.5641260  30.2949820  37.9268490 149.2498690  47.4691820
  38.5168180 148.9414540  48.1569640  37.1088730 148.7778440  47.6251720
  42.7461920 148.8664500  47.7024840  42.0577440 148.2046040  47.6374830
  43.4667940 148.4202770  48.1473300  43.3762320 145.4616130  33.7615100
  43.6564610 144.6184030  34.1174520  42.6028050 145.6939240  34.2753850
  34.6956810 147.7508520  31.2206100  34.9982710 147.7575950  30.3125250
  35.4351400 147.4006380  31.7173760  37.9141740 146.6943140  32.2062300
  37.5663740 146.0167130  31.6264750  38.1154510 146.2332650  33.0205690
  31.2547380 153.2230790  38.6026670  30.5996220 152.9542430  37.9586370
  32.0925330 153.1135270  38.1528650  44.2037820 148.0172080  32.8245160
  44.6222700 147.8303060  31.9841820  43.8973880 147.1651130  33.1348090
  47.7027550 152.9296220  36.5220960  47.3271150 152.1624150  36.0902250
  46.9730670 153.3118920  37.0095890  32.2923310 153.6083360  43.1430010
  32.6596350 153.5210760  44.0226030  31.7234130 152.8449910  43.0436870
  47.0927170 152.0767740  46.1560480  46.8613260 151.8480490  45.2558430
  47.3531720 152.9967290  46.1105370  31.8439310 150.5192450  47.0488430
  30.9495360 150.4859210  47.3882140  32.3836860 150.7179240  47.8139680
  45.5315240 147.3024170  48.9340180  46.4085420 147.3107570  49.3174180
  45.5436080 146.5655010  48.3232530  30.4685460 150.4329720  34.5452000
  29.5649540 150.6959920  34.3703660  30.9526080 150.7040890  33.7651960
  46.9778510 151.1553710  39.8228200  47.5015990 150.6616360  39.1918370
  47.5637930 151.2904070  40.5675770  47.1568230 151.2393580  43.3447750
  46.2070940 151.2057120  43.4592740  47.3381240 152.1493690  43.1097520
  33.0112670 149.4895260  32.4546380  33.7204370 149.0678480  31.9693660
  32.2952610 149.5570490  31.8229730  32.6586830 145.5434590  31.4949030
  33.3814960 146.0843530  31.8130250  32.9311350 145.2698010  30.6190570
  46.4678480 150.4127060  35.7620610  46.9637600 150.1797930  36.5469490
  46.2694550 149.5738900  35.3458250  32.3479020 144.7940780  41.3971650
  32.9955210 144.2438160  40.9566810  32.7680860 145.0483930  42.2187460
  47.8965640 149.0488010  38.2958290  47.7864920 148.8944050  39.2340560
  48.6573230 148.5208950  38.0533700  46.2431360 144.9882140  44.7541290
  46.8803580 145.6016280  45.1200480  46.3906250 145.0242800  43.8090520
  48.7855910 146.8795930  31.5364430  49.7105220 146.7477110  31.3282720
  48.7631700 146.9588750  32.4900880  48.8594400 147.6506590  34.1621140
  48.0645900 147.5851710  34.6914050  49.0637680 148.5857230  34.1506490
  32.1011020 144.9496450  44.1396970  31.7525840 145.4060270  44.9055150
  31.7698720 144.0553580  44.2219400  39.6135840 146.1408330  47.6616390
  39.5524730 146.7330160  48.4111800  40.5536220 146.0334290  47.5166650
  42.2510400 145.7978390  47.3008680  42.8650810 146.1157680  46.6389760
  42.7959960 145.3126980  47.9204540  32.7731660 144.4772650  47.4147740
  33.3214650 144.2960700  46.6513850  32.8386970 143.6866760  47.9504050
  42.9918440 144.3610530  43.6277970  42.1178280 144.6945640  43.4250900
  42.8829190 143.8883710  44.4529840  43.8990420 146.5681400  45.0119690
  43.5703780 145.7533160  44.6321420  44.8472720 146.5251210  44.8885380
  40.7393260 145.2780370  42.5670880  39.9565050 145.7525870  42.8467640
  40.4456190 144.3735200  42.4584060  45.2914330 145.9803470  40.6119970
  45.7322420 145.9248570  39.7641570  45.0221920 146.8961480  40.6830150
  47.1552900 145.6118710  38.6228790  47.0941300 144.6679930  38.4759810
  47.9344930 145.7198800  39.1682250  32.0833670 145.5827850  35.0884600
  32.8413030 145.6956730  34.5148630  31.6210840 146.4197050  35.0428030
  38.6247480 147.6967120  38.0786910  37.8121990 147.3224010  37.7382790
  39.1289120 146.9412200  38.3808100  43.1272460 144.3609570  39.3169980
  43.7301830 144.9329780  39.7918500  42.3865450 144.9249010  39.0943880
  46.2707060 144.7631130  34.5910260  46.4657690 145.6614580  34.8577690
  45.4836930 144.5318210  35.0843210  34.4558820 146.1091900  33.6286570
  34.9851580 145.3221700  33.4994520  35.0887140 146.7883090  33.8622100
  36.6496660 145.8467040  36.6831960  36.0199400 145.1454350  36.8502090
  36.1101800 146.6071170  36.4665120  36.7752220 145.1251020  49.1184450
  36.4936490 145.6284620  48.3545270  37.1571920 144.3272770  48.7526580
  43.3767680 144.5404600  49.6964920  43.2633130 144.8599210  50.5916440
  44.1937420 144.9417110  49.4002200  42.2825830 152.5597070  20.0599660
  42.2019880 151.6451680  19.7891370  41.8690250 153.0564140  19.3539370
  40.4143870 154.3376090  21.9408930  39.6385970 153.8576530  22.2307500
  41.0656800 153.6581740  21.7665090  34.4309700 154.6495900  22.8184690
  33.5994580 154.3944610  23.2181200  35.0390680 154.7206670  23.5542610
  32.8401650 149.6097790  16.6027080  31.9518350 149.9513760  16.5006960
  33.1242840 149.4098110  15.7107910  30.8034660 152.2103440  22.4866780
  31.3750770 151.4425640  22.4870420  30.8036200 152.5092200  21.5773390
  32.0459530 147.6187800  24.2735710  31.8662370 146.7213550  24.5538470
  31.6439610 148.1659670  24.9482660  40.8858030 149.8203660  22.1748020
  41.2622850 148.9475540  22.0621690  40.7877540 150.1562360  21.2838460
  35.0163040 148.1929290  17.6365460  35.1229790 149.0933020  17.9434220
  34.1055400 148.1447260  17.3460110  44.6682150 147.3154100  19.1076360
  45.4891770 146.8250670  19.1501840  44.7016230 147.9051760  19.8608200
  32.6646200 150.1148300  22.8818050  33.3456310 150.3786670  23.5005450
  32.3494250 149.2749170  23.2156060  36.8570770 151.1615660  21.9690640
  37.3648990 151.6596630  22.6095660  37.3884010 150.3850860  21.7930000
  48.9581700 149.3320850  25.6719990  48.2533870 149.7202560  25.1535100
  49.2239620 150.0271140  26.2740920  35.1406870 145.8014220  26.2354060
  35.1425310 146.3186610  25.4299960  34.3111180 145.3244400  26.2123990
  44.9043630 149.2554480  21.8803900  44.1999200 149.5439370  22.4607010
  45.2655790 150.0654590  21.5203460  34.8222200 147.5124180  24.2424510
  35.1639010 148.3566230  23.9478380  33.8838010 147.6607920  24.3589850
  47.9730550 148.7009270  22.2713110  47.0255460 148.7348250  22.4028540
  48.2980540 149.5148220  22.6562470  38.5050090 145.0006450  20.5669100
  38.8125070 144.4453340  19.8504600  37.5750790 145.1350910  20.3842090
  40.8930850 153.0655280  17.3029220  39.9660130 152.9992660  17.5317690
  41.0455670 154.0035410  17.1884460  40.8799930 149.3372280  14.2996380
  39.9403600 149.4986240  14.3848840  41.1983190 150.0557960  13.7532370
  47.4012690 154.0190800  24.2775410  46.5731320 154.0883890  23.8025540
  47.9963170 154.6045110  23.8091240  44.9228140 154.6275580  17.8064470
  44.3040560 154.2895130  17.1590770  44.9052590 153.9835340  18.5143660
  44.3654700 150.8060120  25.2230280  43.9525880 151.6313830  25.4770270
  43.6330650 150.2205160  25.0306640  36.4987490 153.5920020  20.0848950
  36.0944490 152.8797270  19.5894850  36.5850610 153.2473260  20.9736990
  35.2116110 150.3663230  23.8647990  35.7630700 150.4758570  23.0901240
  35.7259620 150.7400830  24.5803220  43.0992840 153.8662390  14.8137220
  43.5386120 153.0284820  14.6675040  43.8121260 154.4991790  14.9001360
  34.8858840 153.8882590  27.4753330  34.7466610 154.7605390  27.8440730
  34.0040200 153.5455400  27.3301270  46.6809980 145.1205200  13.1278260
  46.3682640 145.2132030  14.0277330  47.4422450 145.6986230  13.0775690
  33.1992120 152.4865000  17.5855600  33.0789720 153.2127090  16.9736870
  32.8893010 151.7167910  17.1083510  47.8911270 149.8576700  29.1052400
  47.2755540 150.3656370  28.5767860  47.5707690 148.9575030  29.0478340
  35.6655780 145.8300070  20.9679270  35.2223930 146.6109610  20.6363790
  36.2240770 146.1529960  21.6750210  39.9525590 148.6968590  26.5714590
  39.4904960 148.9051610  27.3834530  39.5503700 147.8827940  26.2685260
  44.9530100 149.9177540  27.7011250  44.1023690 149.6183290  28.0220320
  44.7931890 150.1619550  26.7895070  42.0479810 151.4179290  29.8010040
  42.3733220 150.5843040  29.4612270  42.8360140 151.9407810  29.9488370
  38.7814600 145.4510770  15.8485100  38.1568780 145.4470640  16.5738410
  38.6944720 144.5841730  15.4521070  37.7031680 146.3747400  22.8268870
  38.0004010 147.2810230  22.7460890  38.2517240 145.8866180  22.2128440
  35.4570000 150.9533640  18.6960520  35.2310920 150.7370810  19.6007140
  34.6762530 151.3862100  18.3506490  42.6867760 150.9597010  17.2951170
  42.0876650 151.6832810  17.1114790  43.2347370 150.8973790  16.5127620
  37.8969210 151.8519220  29.3620790  37.8012810 150.9113950  29.2121190
  38.7401190 152.0734290  28.9668860  41.2932630 149.5960550  19.3254450
  41.6862200 149.9132750  18.5123140  41.6549480 148.7172430  19.4398970
  33.0279750 148.2632890  27.5154570  32.6343140 149.1108100  27.7227350
  32.3398150 147.6259260  27.7063210  39.6024800 148.3467860  30.5851310
  38.9123120 148.1540060  31.2197400  40.3457100 148.6302500  31.1175610
  30.3296800 146.1861350  21.5484650  30.0409850 146.7564210  22.2609630
  31.0742560 145.7065800  21.9115880  30.5167030 150.1281470  12.7587370
  30.4341700 151.0712230  12.9002360  30.1650090 149.9856380  11.8799720
  41.8787770 152.1866300  23.4205230  41.1468890 152.6953110  23.7695330
  41.4812110 151.3696280  23.1194010  38.3165160 148.8620500  21.8257720
  38.3201220 148.4210450  20.9762260  39.2116280 149.1837830  21.9329540
  34.1667540 148.7446990  20.7851930  33.8267590 149.2222220  21.5418980
  33.4044860 148.2912110  20.4253030  38.3785310 149.8632580  14.8164480
  38.4998130 149.8219060  15.7650300  37.9933820 150.7256730  14.6611210
  42.3413680 147.6399980  22.8328170  42.3586420 148.0908630  23.6770020
  42.0929260 146.7405620  23.0461610  37.3906810 152.1733720  14.2147780
  36.8223710 151.7251970  13.5883690  38.0995810 152.5326500  13.6812930
  45.7684430 145.0532160  28.6714550  46.0930200 144.3221820  29.1972530
  45.8040940 144.7345800  27.7695540  38.6173130 152.9222280  23.5723130
  38.9843260 152.4480850  24.3184470  38.4278190 153.7963850  23.9131470
  31.4813620 147.6665970  19.7016600  31.1960540 147.3021640  20.5395220
  31.4192480 146.9346430  19.0879740  36.4072500 151.9630920  25.8907340
  36.1029570 152.8422900  26.1157700  37.3618960 152.0230710  25.9264780
  41.1552210 146.5595230  16.4229970  40.3416820 146.0608400  16.3475280
  40.9614160 147.3993480  16.0066320  43.8700600 150.9314880  14.7192130
  44.7580220 151.2432110  14.5443470  43.8405690 150.0587130  14.3272710
  32.4636230 152.8033660  27.0378700  32.1051170 153.4687510  27.6252040
  32.1690790 151.9717210  27.4091320  35.6649350 153.2617900  29.9218250
  35.3649490 153.4075080  29.0246070  36.4360590 152.7023190  29.8291640
  46.1414870 152.2426720  14.1871990  46.0578590 152.6740940  13.3368430
  46.8609060 152.7025070  14.6198810  30.9744280 152.8024920  13.6613300
  31.8439130 153.0849720  13.9449220  30.4834600 153.6160790  13.5462110
  34.0390870 144.5335780  18.2544100  33.9105500 144.5253680  19.2029020
  33.2152890 144.8718870  17.9035110  31.0384800 146.2926900  27.7150800
  30.3243320 146.4923820  28.3203410  31.4579840 145.5166470  28.0865600
  42.5323580 148.7849210  25.4652250  42.9004400 147.9644420  25.7931820
  41.6721780 148.8451100  25.8807900  45.8985610 147.7406150  16.2739810
  45.2698770 147.8451820  15.5598040  45.4037530 147.9602930  17.0633690
  37.8669640 150.0192100  17.6897690  37.1585790 150.4878440  18.1311300
  38.1514120 149.3614110  18.3242880  39.4925570 151.4388800  25.6890220
  39.9910820 151.9134620  26.3542070  39.6348520 150.5152320  25.8960250
  41.8985070 146.7442760  19.1293480  41.7752850 146.7628890  18.1802990
  42.8469630 146.7921700  19.2491880  36.0704660 148.3277180  15.0648400
  36.9195190 148.7647330  14.9988590  35.7035930 148.6397440  15.8920460
  46.6992430 147.6556760  26.5318610  46.1966030 148.3962160  26.8712420
  47.5149090 148.0440760  26.2155400  44.9914440 152.8989940  19.9779970
  44.0504580 152.9140170  20.1527660  45.3058510 152.1125900  20.4240270
  34.9696080 154.5809540  13.5383930  35.7359350 154.4690900  14.1009360
  35.0470770 153.8847510  12.8860700  33.6642840 152.0134610  14.2216820
  33.7446430 151.0662120  14.3334220  34.5562590 152.3441490  14.3277480
  31.1913640 153.8349530  29.4572990  31.6952660 153.2556810  30.0289220
  30.4521060 154.1189760  29.9949360  33.2236720 151.9779120  30.3523060
  33.2642060 151.6792990  31.2608290  34.0782220 152.3786730  30.1930580
  37.0015110 154.5774670  15.5126570  37.4231530 154.4114540  16.3557960
  37.1265950 153.7674900  15.0181710  35.1642530 150.5571220  28.3197550
  34.6338990 150.0662170  27.6920890  35.8330600 150.9855420  27.7855480
  39.5142750 153.6012280  12.7603670  40.0348410 152.8861300  12.3944820
  40.1611150 154.2398150  13.0604180  44.5342760 152.3636840  30.0877890
  45.1163530 151.6089160  29.9998370  44.7104530 152.8944280  29.3109370
  35.6514830 147.5233590  28.3994840  35.5571700 146.9054340  27.6745710
  35.0712220 148.2499880  28.1724750  38.4176270 146.0806830  25.4322230
  37.9693570 146.1031090  24.5867780  37.7841470 145.6825850  26.0292530
  41.1599720 152.7077340  27.4372510  41.2795930 152.1118480  28.1767350
  42.0193720 152.7447030  27.0173810  43.4987620 153.2614530  26.0135020
  42.9722840 153.7857150  25.4100160  43.8418960 153.8941920  26.6444750
  35.8974010 150.6507900  12.4584730  35.6963070 149.7875260  12.8198070
  35.7266060 150.5641260  11.5206330  37.9268490 149.2498690  28.6948330
  38.5168180 148.9414540  29.3826150  37.1088730 148.7778440  28.8508230
  42.7461920 148.8664500  28.9281350  42.0577440 148.2046040  28.8631340
  43.4667940 148.4202770  29.3729810  43.3762320 145.4616130  14.9871610
  43.6564610 144.6184030  15.3431030  42.6028050 145.6939240  15.5010360
  34.6956810 147.7508520  12.4462610  34.9982710 147.7575950  11.5381760
  35.4351400 147.4006380  12.9430270  37.9141740 146.6943140  13.4318810
  37.5663740 146.0167130  12.8521260  38.1154510 146.2332650  14.2462200
  31.2547380 153.2230790  19.8283180  30.5996220 152.9542430  19.1842880
  32.0925330 153.1135270  19.3785160  44.2037820 148.0172080  14.0501670
  44.6222700 147.8303060  13.2098330  43.8973880 147.1651130  14.3604600
  47.7027550 152.9296220  17.7477470  47.3271150 152.1624150  17.3158760
  46.9730670 153.3118920  18.2352400  32.2923310 153.6083360  24.3686520
  32.6596350 153.5210760  25.2482540  31.7234130 152.8449910  24.2693380
  47.0927170 152.0767740  27.3816990  46.8613260 151.8480490  26.4814940
  47.3531720 152.9967290  27.3361880  31.8439310 150.5192450  28.2744940
  30.9495360 150.4859210  28.6138650  32.3836860 150.7179240  29.0396190
  45.5315240 147.3024170  30.1596690  46.4085420 147.3107570  30.5430690
  45.5436080 146.5655010  29.5489040  30.4685460 150.4329720  15.7708510
  29.5649540 150.6959920  15.5960170  30.9526080 150.7040890  14.9908470
  46.9778510 151.1553710  21.0484710  47.5015990 150.6616360  20.4174880
  47.5637930 151.2904070  21.7932280  47.1568230 151.2393580  24.5704260
  46.2070940 151.2057120  24.6849250  47.3381240 152.1493690  24.3354030
  33.0112670 149.4895260  13.6802890  33.7204370 149.0678480  13.1950170
  32.2952610 149.5570490  13.0486240  32.6586830 145.5434590  12.7205540
  33.3814960 146.0843530  13.0386760  32.9311350 145.2698010  11.8447080
  46.4678480 150.4127060  16.9877120  46.9637600 150.1797930  17.7726000
  46.2694550 149.5738900  16.5714760  32.3479020 144.7940780  22.6228160
  32.9955210 144.2438160  22.1823320  32.7680860 145.0483930  23.4443970
  47.8965640 149.0488010  19.5214800  47.7864920 148.8944050  20.4597070
  48.6573230 148.5208950  19.2790210  46.2431360 144.9882140  25.9797800
  46.8803580 145.6016280  26.3456990  46.3906250 145.0242800  25.0347030
  48.7855910 146.8795930  12.7620940  49.7105220 146.7477110  12.5539230
  48.7631700 146.9588750  13.7157390  48.8594400 147.6506590  15.3877650
  48.0645900 147.5851710  15.9170560  49.0637680 148.5857230  15.3763000
  32.1011020 144.9496450  25.3653480  31.7525840 145.4060270  26.1311660
  31.7698720 144.0553580  25.4475910  39.6135840 146.1408330  28.8872900
  39.5524730 146.7330160  29.6368310  40.5536220 146.0334290  28.7423160
  42.2510400 145.7978390  28.5265190  42.8650810 146.1157680  27.8646270
  42.7959960 145.3126980  29.1461050  32.7731660 144.4772650  28.6404250
  33.3214650 144.2960700  27.8770360  32.8386970 143.6866760  29.1760560
  42.9918440 144.3610530  24.8534480  42.1178280 144.6945640  24.6507410
  42.8829190 143.8883710  25.6786350  43.8990420 146.5681400  26.2376200
  43.5703780 145.7533160  25.8577930  44.8472720 146.5251210  26.1141890
  40.7393260 145.2780370  23.7927390  39.9565050 145.7525870  24.0724150
  40.4456190 144.3735200  23.6840570  45.2914330 145.9803470  21.8376480
  45.7322420 145.9248570  20.9898080  45.0221920 146.8961480  21.9086660
  47.1552900 145.6118710  19.8485300  47.0941300 144.6679930  19.7016320
  47.9344930 145.7198800  20.3938760  32.0833670 145.5827850  16.3141110
  32.8413030 145.6956730  15.7405140  31.6210840 146.4197050  16.2684540
  38.6247480 147.6967120  19.3043420  37.8121990 147.3224010  18.9639300
  39.1289120 146.9412200  19.6064610  43.1272460 144.3609570  20.5426490
  43.7301830 144.9329780  21.0175010  42.3865450 144.9249010  20.3200390
  46.2707060 144.7631130  15.8166770  46.4657690 145.6614580  16.0834200
  45.4836930 144.5318210  16.3099720  34.4558820 146.1091900  14.8543080
  34.9851580 145.3221700  14.7251030  35.0887140 146.7883090  15.0878610
  36.6496660 145.8467040  17.9088470  36.0199400 145.1454350  18.0758600
  36.1101800 146.6071170  17.6921630  36.7752220 145.1251020  30.3440960
  36.4936490 145.6284620  29.5801780  37.1571920 144.3272770  29.9783090
  43.3767680 144.5404600  30.9221430  43.2633130 144.8599210  31.8172950
  44.1937420 144.9417110  30.6258710  40.4143870 154.3376090   3.1665440
  39.6385970 153.8576530   3.4564010  41.0656800 153.6581740   2.9921600
  34.4309700 154.6495900   4.0441200  33.5994580 154.3944610   4.4437710
  35.0390680 154.7206670   4.7799120  30.8034660 152.2103440   3.7123290
  31.3750770 151.4425640   3.7126930  30.8036200 152.5092200   2.8029900
  32.0459530 147.6187800   5.4992220  31.8662370 146.7213550   5.7794980
  31.6439610 148.1659670   6.1739170  40.8858030 149.8203660   3.4004530
  41.2622850 148.9475540   3.2878200  40.7877540 150.1562360   2.5094970
  32.6646200 150.1148300   4.1074560  33.3456310 150.3786670   4.7261960
  32.3494250 149.2749170   4.4412570  36.8570770 151.1615660   3.1947150
  37.3648990 151.6596630   3.8352170  37.3884010 150.3850860   3.0186510
  48.9581700 149.3320850   6.8976500  48.2533870 149.7202560   6.3791610
  49.2239620 150.0271140   7.4997430  35.1406870 145.8014220   7.4610570
  35.1425310 146.3186610   6.6556470  34.3111180 145.3244400   7.4380500
  44.9043630 149.2554480   3.1060410  44.1999200 149.5439370   3.6863520
  45.2655790 150.0654590   2.7459970  34.8222200 147.5124180   5.4681020
  35.1639010 148.3566230   5.1734890  33.8838010 147.6607920   5.5846360
  47.9730550 148.7009270   3.4969620  47.0255460 148.7348250   3.6285050
  48.2980540 149.5148220   3.8818980  47.4012690 154.0190800   5.5031920
  46.5731320 154.0883890   5.0282050  47.9963170 154.6045110   5.0347750
  44.3654700 150.8060120   6.4486790  43.9525880 151.6313830   6.7026780
  43.6330650 150.2205160   6.2563150  35.2116110 150.3663230   5.0904500
  35.7630700 150.4758570   4.3157750  35.7259620 150.7400830   5.8059730
  34.8858840 153.8882590   8.7009840  34.7466610 154.7605390   9.0697240
  34.0040200 153.5455400   8.5557780  47.8911270 149.8576700  10.3308910
  47.2755540 150.3656370   9.8024370  47.5707690 148.9575030  10.2734850
  35.6655780 145.8300070   2.1935780  35.2223930 146.6109610   1.8620300
  36.2240770 146.1529960   2.9006720  39.9525590 148.6968590   7.7971100
  39.4904960 148.9051610   8.6091040  39.5503700 147.8827940   7.4941770
  44.9530100 149.9177540   8.9267760  44.1023690 149.6183290   9.2476830
  44.7931890 150.1619550   8.0151580  42.0479810 151.4179290  11.0266550
  42.3733220 150.5843040  10.6868780  42.8360140 151.9407810  11.1744880
  37.7031680 146.3747400   4.0525380  38.0004010 147.2810230   3.9717400
  38.2517240 145.8866180   3.4384950  37.8969210 151.8519220  10.5877300
  37.8012810 150.9113950  10.4377700  38.7401190 152.0734290  10.1925370
  33.0279750 148.2632890   8.7411080  32.6343140 149.1108100   8.9483860
  32.3398150 147.6259260   8.9319720  39.6024800 148.3467860  11.8107820
  38.9123120 148.1540060  12.4453910  40.3457100 148.6302500  12.3432120
  30.3296800 146.1861350   2.7741160  30.0409850 146.7564210   3.4866140
  31.0742560 145.7065800   3.1372390  41.8787770 152.1866300   4.6461740
  41.1468890 152.6953110   4.9951840  41.4812110 151.3696280   4.3450520
  38.3165160 148.8620500   3.0514230  38.3201220 148.4210450   2.2018770
  39.2116280 149.1837830   3.1586050  34.1667540 148.7446990   2.0108440
  33.8267590 149.2222220   2.7675490  33.4044860 148.2912110   1.6509540
  42.3413680 147.6399980   4.0584680  42.3586420 148.0908630   4.9026530
  42.0929260 146.7405620   4.2718120  45.7684430 145.0532160   9.8971060
  46.0930200 144.3221820  10.4229040  45.8040940 144.7345800   8.9952050
  38.6173130 152.9222280   4.7979640  38.9843260 152.4480850   5.5440980
  38.4278190 153.7963850   5.1387980  36.4072500 151.9630920   7.1163850
  36.1029570 152.8422900   7.3414210  37.3618960 152.0230710   7.1521290
  32.4636230 152.8033660   8.2635210  32.1051170 153.4687510   8.8508550
  32.1690790 151.9717210   8.6347830  35.6649350 153.2617900  11.1474760
  35.3649490 153.4075080  10.2502580  36.4360590 152.7023190  11.0548150
  31.0384800 146.2926900   8.9407310  30.3243320 146.4923820   9.5459920
  31.4579840 145.5166470   9.3122110  42.5323580 148.7849210   6.6908760
  42.9004400 147.9644420   7.0188330  41.6721780 148.8451100   7.1064410
  39.4925570 151.4388800   6.9146730  39.9910820 151.9134620   7.5798580
  39.6348520 150.5152320   7.1216760  46.6992430 147.6556760   7.7575120
  46.1966030 148.3962160   8.0968930  47.5149090 148.0440760   7.4411910
  31.1913640 153.8349530  10.6829500  31.6952660 153.2556810  11.2545730
  30.4521060 154.1189760  11.2205870  33.2236720 151.9779120  11.5779570
  33.2642060 151.6792990  12.4864800  34.0782220 152.3786730  11.4187090
  35.1642530 150.5571220   9.5454060  34.6338990 150.0662170   8.9177400
  35.8330600 150.9855420   9.0111990  44.5342760 152.3636840  11.3134400
  45.1163530 151.6089160  11.2254880  44.7104530 152.8944280  10.5365880
  35.6514830 147.5233590   9.6251350  35.5571700 146.9054340   8.9002220
  35.0712220 148.2499880   9.3981260  38.4176270 146.0806830   6.6578740
  37.9693570 146.1031090   5.8124290  37.7841470 145.6825850   7.2549040
  41.1599720 152.7077340   8.6629020  41.2795930 152.1118480   9.4023860
  42.0193720 152.7447030   8.2430320  43.4987620 153.2614530   7.2391530
  42.9722840 153.7857150   6.6356670  43.8418960 153.8941920   7.8701260
  37.9268490 149.2498690   9.9204840  38.5168180 148.9414540  10.6082660
  37.1088730 148.7778440  10.0764740  42.7461920 148.8664500  10.1537860
  42.0577440 148.2046040  10.0887850  43.4667940 148.4202770  10.5986320
  32.2923310 153.6083360   5.5943030  32.6596350 153.5210760   6.4739050
  31.7234130 152.8449910   5.4949890  47.0927170 152.0767740   8.6073500
  46.8613260 151.8480490   7.7071450  47.3531720 152.9967290   8.5618390
  31.8439310 150.5192450   9.5001450  30.9495360 150.4859210   9.8395160
  32.3836860 150.7179240  10.2652700  45.5315240 147.3024170  11.3853200
  46.4085420 147.3107570  11.7687200  45.5436080 146.5655010  10.7745550
  46.9778510 151.1553710   2.2741220  47.5015990 150.6616360   1.6431390
  47.5637930 151.2904070   3.0188790  47.1568230 151.2393580   5.7960770
  46.2070940 151.2057120   5.9105760  47.3381240 152.1493690   5.5610540
  32.3479020 144.7940780   3.8484670  32.9955210 144.2438160   3.4079830
  32.7680860 145.0483930   4.6700480  46.2431360 144.9882140   7.2054310
  46.8803580 145.6016280   7.5713500  46.3906250 145.0242800   6.2603540
  32.1011020 144.9496450   6.5909990  31.7525840 145.4060270   7.3568170
  31.7698720 144.0553580   6.6732420  39.6135840 146.1408330  10.1129410
  39.5524730 146.7330160  10.8624820  40.5536220 146.0334290   9.9679670
  42.2510400 145.7978390   9.7521700  42.8650810 146.1157680   9.0902780
  42.7959960 145.3126980  10.3717560  32.7731660 144.4772650   9.8660760
  33.3214650 144.2960700   9.1026870  32.8386970 143.6866760  10.4017070
  42.9918440 144.3610530   6.0790990  42.1178280 144.6945640   5.8763920
  42.8829190 143.8883710   6.9042860  43.8990420 146.5681400   7.4632710
  43.5703780 145.7533160   7.0834440  44.8472720 146.5251210   7.3398400
  40.7393260 145.2780370   5.0183900  39.9565050 145.7525870   5.2980660
  40.4456190 144.3735200   4.9097080  45.2914330 145.9803470   3.0632990
  45.7322420 145.9248570   2.2154590  45.0221920 146.8961480   3.1343170
  43.1272460 144.3609570   1.7683000  43.7301830 144.9329780   2.2431520
  42.3865450 144.9249010   1.5456900  36.7752220 145.1251020  11.5697470
  36.4936490 145.6284620  10.8058290  37.1571920 144.3272770  11.2039600
  43.3767680 144.5404600  12.1477940  43.2633130 144.8599210  13.0429460
  44.1937420 144.9417110  11.8515220  42.2825830 133.7853580 151.4804090
  42.2019880 132.8708190 151.2095800  41.8690250 134.2820650 150.7743800
  40.4143870 135.5632600 153.3613360  39.6385970 135.0833040 153.6511930
  41.0656800 134.8838250 153.1869520  44.4351300 139.9692790 152.1412490
  43.9732830 139.1980030 152.4699660  45.2476850 139.9958860 152.6464940
  34.4110960 139.9092500 154.4347140  34.7139000 139.0190240 154.2557360
  35.1554550 140.4662720 154.2069390  32.8401650 130.8354300 148.0231510
  31.9518350 131.1770270 147.9211390  33.1242840 130.6354620 147.1312340
  30.8034660 133.4359950 153.9071210  31.3750770 132.6682150 153.9074850
  30.8036200 133.7348710 152.9977820  40.6614610 142.2550800 151.7616480
  40.0426050 142.7108300 151.1910920  41.5166390 142.4102260 151.3606180
  39.8552860 138.2389790 153.3683520  39.7861140 137.2979730 153.2072650
  40.6172720 138.3291200 153.9406090  40.8858030 131.0460170 153.5952450
  41.2622850 130.1732050 153.4826120  40.7877540 131.3818870 152.7042890
  35.0163040 129.4185800 149.0569890  35.1229790 130.3189530 149.3638650
  34.1055400 129.3703770 148.7664540  44.6682150 128.5410610 150.5280790
  45.4891770 128.0507180 150.5706270  44.7016230 129.1308270 151.2812630
  36.8570770 132.3872170 153.3895070  37.3648990 132.8853140 154.0300090
  37.3884010 131.6107370 153.2134430  41.5277960 137.1390040 149.1548390
  40.9095230 137.6039490 148.5911110  42.0401210 137.8317520 149.5717900
  44.9043630 130.4810990 153.3008330  44.1999200 130.7695880 153.8811440
  45.2655790 131.2911100 152.9407890  30.8961160 137.8246570 146.5288020
  30.5189140 138.3133670 145.7972920  31.1534230 138.4971850 147.1594550
  47.9730550 129.9265780 153.6917540  47.0255460 129.9604760 153.8232970
  48.2980540 130.7404730 154.0766900  38.5050090 126.2262960 151.9873530
  38.8125070 125.6709850 151.2709030  37.5750790 126.3607420 151.8046520
  44.0565150 141.9430250 154.2780990  44.0692310 141.5392540 153.4103250
  43.5040370 142.7177540 154.1742420  45.3510570 138.6646470 149.3671160
  45.2406900 137.7220800 149.4920580  45.3478820 139.0262110 150.2533920
  40.8930850 134.2911790 148.7233650  39.9660130 134.2249170 148.9522120
  41.0455670 135.2291920 148.6088890  40.8799930 130.5628790 145.7200810
  39.9403600 130.7242750 145.8053270  41.1983190 131.2814470 145.1736800
  44.9228140 135.8532090 149.2268900  44.3040560 135.5151640 148.5795200
  44.9052590 135.2091850 149.9348090  36.4987490 134.8176530 151.5053380
  36.0944490 134.1053780 151.0099280  36.5850610 134.4729770 152.3941420
  36.9669190 138.5044090 153.6692590  36.6697480 137.8989560 152.9900370
  37.9169010 138.5421400 153.5581950  43.0992840 135.0918900 146.2341650
  43.5386120 134.2541330 146.0879470  43.8121260 135.7248300 146.3205790
  41.2088220 140.0314970 150.2022890  41.6484130 140.7739300 149.7878280
  41.1475110 140.2741540 151.1261850  46.6809980 126.3461710 144.5482690
  46.3682640 126.4388540 145.4481760  47.4422450 126.9242740 144.4980120
  33.1992120 133.7121510 149.0060030  33.0789720 134.4383600 148.3941300
  32.8893010 132.9424420 148.5287940  32.0825120 138.5836840 151.2234850
  31.6753200 138.7251430 150.3688450  32.9738130 138.2997000 151.0206060
  43.8758400 143.0184090 147.5585900  43.7159540 142.7287030 148.4567730
  43.7105110 142.2424220 147.0231130  36.3546780 142.7982620 149.3357520
  36.1789260 141.8818160 149.1225320  35.5002520 143.1569910 149.5755320
  43.5784530 140.5271650 146.1183900  42.8849690 140.5248940 145.4586180
  44.3207390 140.1030970 145.6878070  43.1434460 142.1534360 150.1932390
  43.5991410 141.3723740 150.5071010  43.4826980 142.8641180 150.7373570
  35.6655780 127.0556580 152.3883700  35.2223930 127.8366120 152.0568220
  36.2240770 127.3786470 153.0954640  38.7814600 126.6767280 147.2689530
  38.1568780 126.6727150 147.9942840  38.6944720 125.8098240 146.8725500
  37.7031680 127.6003910 154.2473300  38.0004010 128.5066740 154.1665320
  38.2517240 127.1122690 153.6332870  35.4570000 132.1790150 150.1164950
  35.2310920 131.9627320 151.0211570  34.6762530 132.6118610 149.7710920
  42.6867760 132.1853520 148.7155600  42.0876650 132.9089320 148.5319220
  43.2347370 132.1230300 147.9332050  41.2932630 130.8217060 150.7458880
  41.6862200 131.1389260 149.9327570  41.6549480 129.9428940 150.8603400
  30.3296800 127.4117860 152.9689080  30.0409850 127.9820720 153.6814060
  31.0742560 126.9322310 153.3320310  30.5167030 131.3537980 144.1791800
  30.4341700 132.2968740 144.3206790  30.1650090 131.2112890 143.3004150
  38.3165160 130.0877010 153.2462150  38.3201220 129.6466960 152.3966690
  39.2116280 130.4094340 153.3533970  34.1667540 129.9703500 152.2056360
  33.8267590 130.4478730 152.9623410  33.4044860 129.5168620 151.8457460
  38.3785310 131.0889090 146.2368910  38.4998130 131.0475570 147.1854730
  37.9933820 131.9513240 146.0815640  37.3906810 133.3990230 145.6352210
  36.8223710 132.9508480 145.0088120  38.0995810 133.7583010 145.1017360
  31.4813620 128.8922480 151.1221030  31.1960540 128.5278150 151.9599650
  31.4192480 128.1602940 150.5084170  34.9354290 137.3948420 147.9078620
  34.1616550 136.8546040 147.7477340  35.6648920 136.8755030 147.5696380
  45.6942270 136.3913780 153.7005010  46.4141390 136.8869070 153.3101120
  45.4924090 135.7131670 153.0558880  41.1552210 127.7851740 147.8434400
  40.3416820 127.2864910 147.7679710  40.9614160 128.6249990 147.4270750
  43.8700600 132.1571390 146.1396560  44.7580220 132.4688620 145.9647900
  43.8405690 131.2843640 145.7477140  34.9791690 137.0628800 151.5457430
  35.4970360 136.2597060 151.4914320  34.5275710 137.0007940 152.3874260
  39.8661190 138.3295080 146.8184730  40.2076890 139.0737310 146.3228050
  39.0373900 138.6426200 147.1809560  46.1414870 133.4683230 145.6076420
  46.0578590 133.8997450 144.7572860  46.8609060 133.9281580 146.0403240
  47.1702120 140.3225490 148.3358550  46.5278280 139.6681110 148.6102270
  46.7832780 140.7280580 147.5599220  42.7488600 137.6510920 152.1830240
  43.1012420 137.0539050 151.5231610  41.8650930 137.3255150 152.3538490
  38.8351880 138.4108610 149.5900650  39.5223010 138.9577820 149.9708240
  38.0484300 138.9549340 149.6250260  30.9744280 134.0281430 145.0817730
  31.8439130 134.3106230 145.3653650  30.4834600 134.8417300 144.9666540
  38.1379090 135.4154640 149.2026010  38.5941870 136.2259890 149.4286200
  37.7867300 135.0977780 150.0344500  34.0390870 125.7592290 149.6748530
  33.9105500 125.7510190 150.6233450  33.2152890 126.0975380 149.3239540
  45.5599500 139.2141950 144.8734900  45.3337080 138.4972390 145.4659540
  45.1695700 138.9654390 144.0356650  31.3415530 143.2408810 145.6479360
  31.7013170 143.8398150 144.9936630  31.2007870 143.7868700 146.4214390
  45.1415750 137.1313890 146.5349060  44.8537450 137.5926580 147.3226940
  45.9367920 136.6711660 146.8033280  37.3584150 140.6240010 146.4653030
  37.3494250 141.3569700 145.8497540  36.4382510 140.3771590 146.5579990
  32.9590790 135.8454900 147.2099790  32.3518740 136.5853800 147.2195090
  33.4340140 135.9354260 146.3837990  45.8985610 128.9662660 147.6944240
  45.2698770 129.0708330 146.9802470  45.4037530 129.1859440 148.4838120
  40.3443750 140.6868250 145.1278220  40.4455730 140.4832240 144.1980200
  39.4445490 140.4326530 145.3326000  37.8669640 131.2448610 149.1102120
  37.1585790 131.7134950 149.5515730  38.1514120 130.5870620 149.7447310
  41.8985070 127.9699270 150.5497910  41.7752850 127.9885400 149.6007420
  42.8469630 128.0178210 150.6696310  38.9861860 143.2054570 149.8225890
  39.2403360 143.1675960 148.9005260  38.0374340 143.0787900 149.8154140
  36.0704660 129.5533690 146.4852830  36.9195190 129.9903840 146.4193020
  35.7035930 129.8653950 147.3124890  44.9914440 134.1246450 151.3984400
  44.0504580 134.1396680 151.5732090  45.3058510 133.3382410 151.8444700
  34.9696080 135.8066050 144.9588360  35.7359350 135.6947410 145.5213790
  35.0470770 135.1104020 144.3065130  33.6642840 133.2391120 145.6421250
  33.7446430 132.2918630 145.7538650  34.5562590 133.5698000 145.7481910
  46.9940020 141.2955300 153.0738660  47.1187440 142.1186470 153.5462470
  47.8605580 141.0846030 152.7262810  34.4657550 143.3886510 152.7455790
  35.2020030 142.8401970 153.0164360  34.8498470 144.2542520 152.6061780
  31.3503030 139.4560080 148.6197300  30.4242810 139.6981220 148.6102710
  31.8159460 140.2834340 148.4982050  37.5759860 142.5616820 144.5681360
  38.3688470 142.8505650 144.1163150  37.0564210 142.1308990 143.8893840
  46.6290030 141.7886950 145.9918100  46.3431540 141.3752090 145.1772280
  46.4309580 142.7174660 145.8718620  38.0937260 137.7820230 144.4323710
  37.9887900 137.1672580 145.1585090  37.9261480 137.2586120 143.6486720
  41.3339990 136.8440260 145.0365700  40.7850090 137.2909560 145.6808440
  41.9559250 136.3389510 145.5603370  37.0015110 135.8031180 146.9331000
  37.4231530 135.6371050 147.7762390  37.1265950 134.9931410 146.4386140
  39.5142750 134.8268790 144.1808100  40.0348410 134.1117810 143.8149250
  40.1611150 135.4654660 144.4808610  35.8974010 131.8764410 143.8789160
  35.6963070 131.0131770 144.2402500  35.7266060 131.7897770 142.9410760
  43.3762320 126.6872640 146.4076040  43.6564610 125.8440540 146.7635460
  42.6028050 126.9195750 146.9214790  34.6956810 128.9765030 143.8667040
  34.9982710 128.9832460 142.9586190  35.4351400 128.6262890 144.3634700
  37.9141740 127.9199650 144.8523240  37.5663740 127.2423640 144.2725690
  38.1154510 127.4589160 145.6666630  40.0790780 142.9080400 146.4709840
  40.9741570 143.2465370 146.4928600  40.1108410 142.1859810 145.8434120
  33.7186940 138.2807450 144.6996840  34.1561810 138.8237120 145.3554420
  34.2034670 137.4554400 144.7093180  30.9332740 141.0696480 152.1517100
  31.2635750 140.2017540 151.9195740  31.3623740 141.2755000 152.9822060
  35.5294660 139.4005490 149.8119070  35.2290200 139.2770460 150.7122980
  35.4232150 138.5414080 149.4034800  48.2986580 139.1801890 144.5145750
  47.4679540 139.2478540 144.9852980  48.4758410 140.0706010 144.2112610
  47.7543040 135.9249370 147.0179950  48.5161950 136.4946020 147.1239640
  47.7697410 135.3576570 147.7888260  31.2547380 134.4487300 151.2487610
  30.5996220 134.1798940 150.6047310  32.0925330 134.3391780 150.7989590
  48.7603010 136.7799470 151.8621880  49.1311840 135.9966790 151.4557850
  49.4004940 137.4688570 151.6839180  47.8062210 136.2183740 144.1752470
  48.0811050 137.1262620 144.0471690  47.6172950 136.1546270 145.1114460
  44.2037820 129.2428590 145.4706100  44.6222700 129.0559570 144.6302760
  43.8973880 128.3907640 145.7809030  47.7027550 134.1552730 149.1681900
  47.3271150 133.3880660 148.7363190  46.9730670 134.5375430 149.6556830
  30.4685460 131.6586230 147.1912940  29.5649540 131.9216430 147.0164600
  30.9526080 131.9297400 146.4112900  46.9778510 132.3810220 152.4689140
  47.5015990 131.8872870 151.8379310  47.5637930 132.5160580 153.2136710
  33.0112670 130.7151770 145.1007320  33.7204370 130.2934990 144.6154600
  32.2952610 130.7827000 144.4690670  32.6586830 126.7691100 144.1409970
  33.3814960 127.3100040 144.4591190  32.9311350 126.4954520 143.2651510
  46.4678480 131.6383570 148.4081550  46.9637600 131.4054440 149.1930430
  46.2694550 130.7995410 147.9919190  47.8965640 130.2744520 150.9419230
  47.7864920 130.1200560 151.8801500  48.6573230 129.7465460 150.6994640
  48.7855910 128.1052440 144.1825370  49.7105220 127.9733620 143.9743660
  48.7631700 128.1845260 145.1361820  48.8594400 128.8763100 146.8082080
  48.0645900 128.8108220 147.3374990  49.0637680 129.8113740 146.7967430
  45.8012820 142.9154650 150.8020470  46.3971890 142.5939220 150.1254890
  46.0590970 142.4426470 151.5933740  36.7820750 141.8738190 153.8066330
  37.2985770 141.2625550 153.2814590  37.4318130 142.3766970 154.2977340
  45.2914330 127.2059980 153.2580910  45.7322420 127.1505080 152.4102510
  45.0221920 128.1217990 153.3291090  47.1552900 126.8375220 151.2689730
  47.0941300 125.8936440 151.1220750  47.9344930 126.9455310 151.8143190
  31.4605650 142.9767580 150.2313680  31.2927690 142.3438260 150.9295570
  30.5940160 143.1826980 149.8807870  32.0833670 126.8084360 147.7345540
  32.8413030 126.9213240 147.1609570  31.6210840 127.6453560 147.6888970
  38.6247480 128.9223630 150.7247850  37.8121990 128.5480520 150.3843730
  39.1289120 128.1668710 151.0269040  43.1272460 125.5866080 151.9630920
  43.7301830 126.1586290 152.4379440  42.3865450 126.1505520 151.7404820
  46.2707060 125.9887640 147.2371200  46.4657690 126.8871090 147.5038630
  45.4836930 125.7574720 147.7304150  33.0668350 141.6700810 147.6763820
  32.5415970 142.0508840 146.9725780  32.9912930 142.2951580 148.3973530
  34.4558820 127.3348410 146.2747510  34.9851580 126.5478210 146.1455460
  35.0887140 128.0139600 146.5083040  36.6496660 127.0723550 149.3292900
  36.0199400 126.3710860 149.4963030  36.1101800 127.8327680 149.1126060
  47.8233670 143.2288350 148.9977760  47.9985860 142.5426090 148.3538680
  47.1255240 143.7535400 148.6054430  35.6661320 143.6183190 146.5513070
  36.3980140 143.3342470 146.0036960  35.9254990 143.3796470 147.4412450
  34.8276110 139.7347920 146.5559400  34.1984990 140.2033020 147.1045230
  34.9423940 138.8897140 146.9905590  42.2825830 133.7853580 132.7060600
  42.2019880 132.8708190 132.4352310  41.8690250 134.2820650 132.0000310
  40.4143870 135.5632600 134.5869870  39.6385970 135.0833040 134.8768440
  41.0656800 134.8838250 134.4126030  34.4309700 135.8752410 135.4645630
  33.5994580 135.6201120 135.8642140  35.0390680 135.9463180 136.2003550
  44.4351300 139.9692790 133.3669000  43.9732830 139.1980030 133.6956170
  45.2476850 139.9958860 133.8721450  34.4110960 139.9092500 135.6603650
  34.7139000 139.0190240 135.4813870  35.1554550 140.4662720 135.4325900
  32.8401650 130.8354300 129.2488020  31.9518350 131.1770270 129.1467900
  33.1242840 130.6354620 128.3568850  30.8034660 133.4359950 135.1327720
  31.3750770 132.6682150 135.1331360  30.8036200 133.7348710 134.2234330
  40.6614610 142.2550800 132.9872990  40.0426050 142.7108300 132.4167430
  41.5166390 142.4102260 132.5862690  39.8552860 138.2389790 134.5940030
  39.7861140 137.2979730 134.4329160  40.6172720 138.3291200 135.1662600
  32.0459530 128.8444310 136.9196650  31.8662370 127.9470060 137.1999410
  31.6439610 129.3916180 137.5943600  40.8858030 131.0460170 134.8208960
  41.2622850 130.1732050 134.7082630  40.7877540 131.3818870 133.9299400
  35.0163040 129.4185800 130.2826400  35.1229790 130.3189530 130.5895160
  34.1055400 129.3703770 129.9921050  44.6682150 128.5410610 131.7537300
  45.4891770 128.0507180 131.7962780  44.7016230 129.1308270 132.5069140
  32.6646200 131.3404810 135.5278990  33.3456310 131.6043180 136.1466390
  32.3494250 130.5005680 135.8617000  36.8570770 132.3872170 134.6151580
  37.3648990 132.8853140 135.2556600  37.3884010 131.6107370 134.4390940
  48.9581700 130.5577360 138.3180930  48.2533870 130.9459070 137.7996040
  49.2239620 131.2527650 138.9201860  35.1406870 127.0270730 138.8815000
  35.1425310 127.5443120 138.0760900  34.3111180 126.5500910 138.8584930
  41.5277960 137.1390040 130.3804900  40.9095230 137.6039490 129.8167620
  42.0401210 137.8317520 130.7974410  36.3909720 136.6665910 137.0588500
  36.0579100 137.2934830 137.7009570  36.5676400 137.1927790 136.2790170
  44.9043630 130.4810990 134.5264840  44.1999200 130.7695880 135.1067950
  45.2655790 131.2911100 134.1664400  34.8222200 128.7380690 136.8885450
  35.1639010 129.5822740 136.5939320  33.8838010 128.8864430 137.0050790
  35.6028820 138.6346710 138.8737680  36.2202820 139.3097790 138.5922130
  34.7421940 139.0434690 138.7825180  30.8961160 137.8246570 127.7544530
  30.5189140 138.3133670 127.0229430  31.1534230 138.4971850 128.3851060
  46.5206410 140.0986120 136.7892320  45.8369930 140.7685230 136.7808990
  47.0600700 140.2966770 136.0237180  47.9730550 129.9265780 134.9174050
  47.0255460 129.9604760 135.0489480  48.2980540 130.7404730 135.3023410
  38.5050090 126.2262960 133.2130040  38.8125070 125.6709850 132.4965540
  37.5750790 126.3607420 133.0303030  44.0565150 141.9430250 135.5037500
  44.0692310 141.5392540 134.6359760  43.5040370 142.7177540 135.3998930
  45.3510570 138.6646470 130.5927670  45.2406900 137.7220800 130.7177090
  45.3478820 139.0262110 131.4790430  43.4550590 136.8460090 136.8320110
  43.8719380 136.6320200 135.9973570  44.1790410 137.1032880 137.4028730
  40.8930850 134.2911790 129.9490160  39.9660130 134.2249170 130.1778630
  41.0455670 135.2291920 129.8345400  40.8799930 130.5628790 126.9457320
  39.9403600 130.7242750 127.0309780  41.1983190 131.2814470 126.3993310
  47.4012690 135.2447310 136.9236350  46.5731320 135.3140400 136.4486480
  47.9963170 135.8301620 136.4552180  44.9228140 135.8532090 130.4525410
  44.3040560 135.5151640 129.8051710  44.9052590 135.2091850 131.1604600
  44.3654700 132.0316630 137.8691220  43.9525880 132.8570340 138.1231210
  43.6330650 131.4461670 137.6767580  36.4987490 134.8176530 132.7309890
  36.0944490 134.1053780 132.2355790  36.5850610 134.4729770 133.6197930
  36.9669190 138.5044090 134.8949100  36.6697480 137.8989560 134.2156880
  37.9169010 138.5421400 134.7838460  35.2116110 131.5919740 136.5108930
  35.7630700 131.7015080 135.7362180  35.7259620 131.9657340 137.2264160
  45.0554800 142.0775960 138.5572200  44.5785360 142.8848150 138.3644810
  44.3716590 141.4254290 138.7098410  36.0587620 138.2425780 141.5456900
  35.1616150 138.4665750 141.7930300  36.0840490 138.3660720 140.5968300
  43.0992840 135.0918900 127.4598160  43.5386120 134.2541330 127.3135980
  43.8121260 135.7248300 127.5462300  34.8858840 135.1139100 140.1214270
  34.7466610 135.9861900 140.4901670  34.0040200 134.7711910 139.9762210
  41.2088220 140.0314970 131.4279400  41.6484130 140.7739300 131.0134790
  41.1475110 140.2741540 132.3518360  36.6839190 141.0560800 142.3299420
  36.6554620 141.4603750 141.4627850  36.5204160 140.1271160 142.1671020
  46.6809980 126.3461710 125.7739200  46.3682640 126.4388540 126.6738270
  47.4422450 126.9242740 125.7236630  33.1992120 133.7121510 130.2316540
  33.0789720 134.4383600 129.6197810  32.8893010 132.9424420 129.7544450
  48.6354010 141.8387900 143.6263590  49.1113730 142.3170790 144.3052670
  49.2561170 141.7705390 142.9009090  30.8377490 136.8836650 136.0385180
  30.9157910 137.0185420 135.0940900  31.4519170 136.1752540 136.2313300
  32.0825120 138.5836840 132.4491360  31.6753200 138.7251430 131.5944960
  32.9738130 138.2997000 132.2462570  48.0387260 139.0300750 140.7863600
  48.1650320 138.7912630 139.8680780  48.0808640 138.1985290 141.2585680
  41.9004000 142.7328750 139.3558410  42.4148670 142.6436760 140.1580840
  41.0573080 143.0788450 139.6486320  43.8758400 143.0184090 128.7842410
  43.7159540 142.7287030 129.6824240  43.7105110 142.2424220 128.2487640
  36.3546780 142.7982620 130.5614030  36.1789260 141.8818160 130.3481830
  35.5002520 143.1569910 130.8011830  43.5784530 140.5271650 127.3440410
  42.8849690 140.5248940 126.6842690  44.3207390 140.1030970 126.9134580
  43.1434460 142.1534360 131.4188900  43.5991410 141.3723740 131.7327520
  43.4826980 142.8641180 131.9630080  47.8911270 131.0833210 141.7513340
  47.2755540 131.5912880 141.2228800  47.5707690 130.1831540 141.6939280
  30.8937010 137.9250820 138.5779640  31.0568050 137.4556180 137.7599010
  31.3589460 137.4174380 139.2428480  35.6655780 127.0556580 133.6140210
  35.2223930 127.8366120 133.2824730  36.2240770 127.3786470 134.3211150
  39.9525590 129.9225100 139.2175530  39.4904960 130.1308120 140.0295470
  39.5503700 129.1084450 138.9146200  44.9530100 131.1434050 140.3472190
  44.1023690 130.8439800 140.6681260  44.7931890 131.3876060 139.4356010
  42.0479810 132.6435800 142.4470980  42.3733220 131.8099550 142.1073210
  42.8360140 133.1664320 142.5949310  38.7814600 126.6767280 128.4946040
  38.1568780 126.6727150 129.2199350  38.6944720 125.8098240 128.0982010
  37.7031680 127.6003910 135.4729810  38.0004010 128.5066740 135.3921830
  38.2517240 127.1122690 134.8589380  35.4570000 132.1790150 131.3421460
  35.2310920 131.9627320 132.2468080  34.6762530 132.6118610 130.9967430
  42.6867760 132.1853520 129.9412110  42.0876650 132.9089320 129.7575730
  43.2347370 132.1230300 129.1588560  37.8969210 133.0775730 142.0081730
  37.8012810 132.1370460 141.8582130  38.7401190 133.2990800 141.6129800
  41.2932630 130.8217060 131.9715390  41.6862200 131.1389260 131.1584080
  41.6549480 129.9428940 132.0859910  33.0279750 129.4889400 140.1615510
  32.6343140 130.3364610 140.3688290  32.3398150 128.8515770 140.3524150
  39.6024800 129.5724370 143.2312250  38.9123120 129.3796570 143.8658340
  40.3457100 129.8559010 143.7636550  30.3296800 127.4117860 134.1945590
  30.0409850 127.9820720 134.9070570  31.0742560 126.9322310 134.5576820
  30.5167030 131.3537980 125.4048310  30.4341700 132.2968740 125.5463300
  30.1650090 131.2112890 124.5260660  41.8787770 133.4122810 136.0666170
  41.1468890 133.9209620 136.4156270  41.4812110 132.5952790 135.7654950
  38.3165160 130.0877010 134.4718660  38.3201220 129.6466960 133.6223200
  39.2116280 130.4094340 134.5790480  34.1667540 129.9703500 133.4312870
  33.8267590 130.4478730 134.1879920  33.4044860 129.5168620 133.0713970
  38.3785310 131.0889090 127.4625420  38.4998130 131.0475570 128.4111240
  37.9933820 131.9513240 127.3072150  42.3413680 128.8656490 135.4789110
  42.3586420 129.3165140 136.3230960  42.0929260 127.9662130 135.6922550
  37.3906810 133.3990230 126.8608720  36.8223710 132.9508480 126.2344630
  38.0995810 133.7583010 126.3273870  45.7684430 126.2788670 141.3175490
  46.0930200 125.5478330 141.8433470  45.8040940 125.9602310 140.4156480
  32.4675990 137.3002250 140.7375450  32.0830780 136.6595920 141.3358410
  32.7788180 138.0038370 141.3070180  38.6173130 134.1478790 136.2184070
  38.9843260 133.6737360 136.9645410  38.4278190 135.0220360 136.5592410
  31.4813620 128.8922480 132.3477540  31.1960540 128.5278150 133.1856160
  31.4192480 128.1602940 131.7340680  36.4072500 133.1887430 138.5368280
  36.1029570 134.0679410 138.7618640  37.3618960 133.2487220 138.5725720
  34.9354290 137.3948420 129.1335130  34.1616550 136.8546040 128.9733850
  35.6648920 136.8755030 128.7952890  45.6942270 136.3913780 134.9261520
  46.4141390 136.8869070 134.5357630  45.4924090 135.7131670 134.2815390
  41.1552210 127.7851740 129.0690910  40.3416820 127.2864910 128.9936220
  40.9614160 128.6249990 128.6527260  41.0761070 136.4622840 140.8130520
  41.0098380 135.5418510 140.5588110  40.4466210 136.5598280 141.5275160
  43.8700600 132.1571390 127.3653070  44.7580220 132.4688620 127.1904410
  43.8405690 131.2843640 126.9733650  34.9791690 137.0628800 132.7713940
  35.4970360 136.2597060 132.7170830  34.5275710 137.0007940 133.6130770
  39.8661190 138.3295080 128.0441240  40.2076890 139.0737310 127.5484560
  39.0373900 138.6426200 128.4066070  32.4636230 134.0290170 139.6839640
  32.1051170 134.6944020 140.2712980  32.1690790 133.1973720 140.0552260
  35.6649350 134.4874410 142.5679190  35.3649490 134.6331590 141.6707010
  36.4360590 133.9279700 142.4752580  41.0077800 139.2843410 140.5634320
  41.0222340 138.3524370 140.3453230  40.3002900 139.3703170 141.2024090
  46.1414870 133.4683230 126.8332930  46.0578590 133.8997450 125.9829370
  46.8609060 133.9281580 127.2659750  47.2189010 135.9250750 139.9102900
  46.4937200 136.5179530 139.7132290  47.7464470 135.9174290 139.1116270
  47.1702120 140.3225490 129.5615060  46.5278280 139.6681110 129.8358780
  46.7832780 140.7280580 128.7855730  42.7488600 137.6510920 133.4086750
  43.1012420 137.0539050 132.7488120  41.8650930 137.3255150 133.5795000
  38.8351880 138.4108610 130.8157160  39.5223010 138.9577820 131.1964750
  38.0484300 138.9549340 130.8506770  30.9744280 134.0281430 126.3074240
  31.8439130 134.3106230 126.5910160  30.4834600 134.8417300 126.1923050
  38.1379090 135.4154640 130.4282520  38.5941870 136.2259890 130.6542710
  37.7867300 135.0977780 131.2601010  40.4411700 140.9260980 137.6574820
  41.0853920 141.1320360 138.3348240  40.8041140 140.1649380 137.2045670
  34.0390870 125.7592290 130.9005040  33.9105500 125.7510190 131.8489960
  33.2152890 126.0975380 130.5496050  41.7143780 138.9293330 136.3752270
  42.3566010 138.2286490 136.4884440  42.2393130 139.7091770 136.1949160
  45.5599500 139.2141950 126.0991410  45.3337080 138.4972390 126.6916050
  45.1695700 138.9654390 125.2613160  43.4881400 139.7288230 139.5788330
  43.8237640 140.3154920 140.2566250  42.5681740 139.5980940 139.8086120
  31.3415530 143.2408810 126.8735870  31.7013170 143.8398150 126.2193140
  31.2007870 143.7868700 127.6470900  31.0384800 127.5183410 140.3611740
  30.3243320 127.7180330 140.9664350  31.4579840 126.7422980 140.7326540
  45.1415750 137.1313890 127.7605570  44.8537450 137.5926580 128.5483450
  45.9367920 136.6711660 128.0289790  31.3257390 141.5063670 141.3478270
  31.4348510 140.5658410 141.2073660  30.6737950 141.7718420 140.6992000
  39.3169980 139.7779560 142.7476390  38.9966850 139.0588800 143.2922080
  38.6428340 140.4534630 142.8212450  37.3584150 140.6240010 127.6909540
  37.3494250 141.3569700 127.0754050  36.4382510 140.3771590 127.7836500
  32.9590790 135.8454900 128.4356300  32.3518740 136.5853800 128.4451600
  33.4340140 135.9354260 127.6094500  42.5323580 130.0105720 138.1113190
  42.9004400 129.1900930 138.4392760  41.6721780 130.0707610 138.5268840
  45.8985610 128.9662660 128.9200750  45.2698770 129.0708330 128.2058980
  45.4037530 129.1859440 129.7094630  40.3443750 140.6868250 126.3534730
  40.4455730 140.4832240 125.4236710  39.4445490 140.4326530 126.5582510
  37.8669640 131.2448610 130.3358630  37.1585790 131.7134950 130.7772240
  38.1514120 130.5870620 130.9703820  39.4925570 132.6645310 138.3351160
  39.9910820 133.1391130 139.0003010  39.6348520 131.7408830 138.5421190
  41.8985070 127.9699270 131.7754420  41.7752850 127.9885400 130.8263930
  42.8469630 128.0178210 131.8952820  38.9861860 143.2054570 131.0482400
  39.2403360 143.1675960 130.1261770  38.0374340 143.0787900 131.0410650
  36.0704660 129.5533690 127.7109340  36.9195190 129.9903840 127.6449530
  35.7035930 129.8653950 128.5381400  46.6992430 128.8813270 139.1779550
  46.1966030 129.6218670 139.5173360  47.5149090 129.2697270 138.8616340
  44.9914440 134.1246450 132.6240910  44.0504580 134.1396680 132.7988600
  45.3058510 133.3382410 133.0701210  34.9696080 135.8066050 126.1844870
  35.7359350 135.6947410 126.7470300  35.0470770 135.1104020 125.5321640
  33.6642840 133.2391120 126.8677760  33.7446430 132.2918630 126.9795160
  34.5562590 133.5698000 126.9738420  46.9940020 141.2955300 134.2995170
  47.1187440 142.1186470 134.7718980  47.8605580 141.0846030 133.9519320
  34.4657550 143.3886510 133.9712300  35.2020030 142.8401970 134.2420870
  34.8498470 144.2542520 133.8318290  31.3503030 139.4560080 129.8453810
  30.4242810 139.6981220 129.8359220  31.8159460 140.2834340 129.7238560
  33.4715830 142.5732580 143.1597880  34.2728560 142.8944630 143.5733280
  32.9567650 142.2128160 143.8817790  37.5759860 142.5616820 125.7937870
  38.3688470 142.8505650 125.3419660  37.0564210 142.1308990 125.1150350
  42.3080460 138.6812450 143.1073290  41.7018620 138.7044050 142.3669040
  42.0034570 137.9495490 143.6440540  43.7380830 142.4092740 141.7182700
  44.6902580 142.3250760 141.6682940  43.5909050 143.0734450 142.3916490
  46.6290030 141.7886950 127.2174610  46.3431540 141.3752090 126.4028790
  46.4309580 142.7174660 127.0975130  31.1913640 135.0606040 142.1033930
  31.6952660 134.4813320 142.6750160  30.4521060 135.3446270 142.6410300
  38.0937260 137.7820230 125.6580220  37.9887900 137.1672580 126.3841600
  37.9261480 137.2586120 124.8743230  38.2451580 136.4677030 141.6369450
  37.4797250 137.0362030 141.5524120  38.4267540 136.1753240 140.7437680
  41.3339990 136.8440260 126.2622210  40.7850090 137.2909560 126.9064950
  41.9559250 136.3389510 126.7859880  45.3874930 138.1982360 142.1944470
  46.1284400 138.5358120 141.6911930  44.6247610 138.3674420 141.6414240
  33.2236720 133.2035630 142.9984000  33.2642060 132.9049500 143.9069230
  34.0782220 133.6043240 142.8391520  37.0015110 135.8031180 128.1587510
  37.4231530 135.6371050 129.0018900  37.1265950 134.9931410 127.6642650
  35.1642530 131.7827730 140.9658490  34.6338990 131.2918680 140.3381830
  35.8330600 132.2111930 140.4316420  39.5142750 134.8268790 125.4064610
  40.0348410 134.1117810 125.0405760  40.1611150 135.4654660 125.7065120
  44.0620590 136.2497190 140.7299680  44.4761610 136.4042270 141.5790100
  43.1271590 136.3752410 140.8925460  44.5342760 133.5893350 142.7338830
  45.1163530 132.8345670 142.6459310  44.7104530 134.1200790 141.9570310
  35.6514830 128.7490100 141.0455780  35.5571700 128.1310850 140.3206650
  35.0712220 129.4756390 140.8185690  38.4176270 127.3063340 138.0783170
  37.9693570 127.3287600 137.2328720  37.7841470 126.9082360 138.6753470
  38.8235820 136.2017670 138.6995610  39.2423930 137.0450400 138.5271850
  37.9044450 136.3389710 138.4702390  41.1599720 133.9333850 140.0833450
  41.2795930 133.3374990 140.8228290  42.0193720 133.9703540 139.6634750
  43.4987620 134.4871040 138.6595960  42.9722840 135.0113660 138.0561100
  43.8418960 135.1198430 139.2905690  35.8974010 131.8764410 125.1045670
  35.6963070 131.0131770 125.4659010  35.7266060 131.7897770 124.1667270
  36.6743240 142.5070680 139.8153340  36.1364330 143.2316740 139.4962040
  36.9277200 142.0301020 139.0250680  37.9268490 130.4755200 141.3409270
  38.5168180 130.1671050 142.0287090  37.1088730 130.0034950 141.4969170
  42.7461920 130.0921010 141.5742290  42.0577440 129.4302550 141.5092280
  43.4667940 129.6459280 142.0190750  43.3762320 126.6872640 127.6332550
  43.6564610 125.8440540 127.9891970  42.6028050 126.9195750 128.1471300
  34.6956810 128.9765030 125.0923550  34.9982710 128.9832460 124.1842700
  35.4351400 128.6262890 125.5891210  39.5305450 143.7421890 140.0739990
  39.4564150 144.6457030 140.3812360  38.6284290 143.4233790 140.0462060
  37.9141740 127.9199650 126.0779750  37.5663740 127.2423640 125.4982200
  38.1154510 127.4589160 126.8923140  40.0790780 142.9080400 127.6966350
  40.9741570 143.2465370 127.7185110  40.1108410 142.1859810 127.0690630
  33.7186940 138.2807450 125.9253350  34.1561810 138.8237120 126.5810930
  34.2034670 137.4554400 125.9349690  30.9332740 141.0696480 133.3773610
  31.2635750 140.2017540 133.1452250  31.3623740 141.2755000 134.2078570
  35.5294660 139.4005490 131.0375580  35.2290200 139.2770460 131.9379490
  35.4232150 138.5414080 130.6291310  31.4222950 141.9367070 136.1155240
  30.9853940 142.1167870 136.9479390  31.9900630 142.6941690 135.9736960
  47.0585130 141.4384070 140.4032550  46.4587120 141.4976630 139.6596470
  47.1879030 140.4989050 140.5329400  48.2986580 139.1801890 125.7402260
  47.4679540 139.2478540 126.2109490  48.4758410 140.0706010 125.4369120
  47.7543040 135.9249370 128.2436460  48.5161950 136.4946020 128.3496150
  47.7697410 135.3576570 129.0144770  31.2547380 134.4487300 132.4744120
  30.5996220 134.1798940 131.8303820  32.0925330 134.3391780 132.0246100
  48.7603010 136.7799470 133.0878390  49.1311840 135.9966790 132.6814360
  49.4004940 137.4688570 132.9095690  45.7436770 138.1636050 138.5008710
  44.9296610 138.5933210 138.7634500  46.1510970 138.7754460 137.8877760
  47.8062210 136.2183740 125.4008980  48.0811050 137.1262620 125.2728200
  47.6172950 136.1546270 126.3370970  44.2037820 129.2428590 126.6962610
  44.6222700 129.0559570 125.8559270  43.8973880 128.3907640 127.0065540
  47.7027550 134.1552730 130.3938410  47.3271150 133.3880660 129.9619700
  46.9730670 134.5375430 130.8813340  32.2923310 134.8339870 137.0147460
  32.6596350 134.7467270 137.8943480  31.7234130 134.0706420 136.9154320
  47.0927170 133.3024250 140.0277930  46.8613260 133.0737000 139.1275880
  47.3531720 134.2223800 139.9822820  31.8439310 131.7448960 140.9205880
  30.9495360 131.7115720 141.2599590  32.3836860 131.9435750 141.6857130
  45.5315240 128.5280680 142.8057630  46.4085420 128.5364080 143.1891630
  45.5436080 127.7911520 142.1949980  30.4685460 131.6586230 128.4169450
  29.5649540 131.9216430 128.2421110  30.9526080 131.9297400 127.6369410
  46.9778510 132.3810220 133.6945650  47.5015990 131.8872870 133.0635820
  47.5637930 132.5160580 134.4393220  47.1568230 132.4650090 137.2165200
  46.2070940 132.4313630 137.3310190  47.3381240 133.3750200 136.9814970
  33.0112670 130.7151770 126.3263830  33.7204370 130.2934990 125.8411110
  32.2952610 130.7827000 125.6947180  32.6586830 126.7691100 125.3666480
  33.3814960 127.3100040 125.6847700  32.9311350 126.4954520 124.4908020
  46.4678480 131.6383570 129.6338060  46.9637600 131.4054440 130.4186940
  46.2694550 130.7995410 129.2175700  32.3479020 126.0197290 135.2689100
  32.9955210 125.4694670 134.8284260  32.7680860 126.2740440 136.0904910
  47.8965640 130.2744520 132.1675740  47.7864920 130.1200560 133.1058010
  48.6573230 129.7465460 131.9251150  46.2431360 126.2138650 138.6258740
  46.8803580 126.8272790 138.9917930  46.3906250 126.2499310 137.6807970
  48.7855910 128.1052440 125.4081880  49.7105220 127.9733620 125.2000170
  48.7631700 128.1845260 126.3618330  48.8594400 128.8763100 128.0338590
  48.0645900 128.8108220 128.5631500  49.0637680 129.8113740 128.0223940
  45.8012820 142.9154650 132.0276980  46.3971890 142.5939220 131.3511400
  46.0590970 142.4426470 132.8190250  32.1011020 126.1752960 138.0114420
  31.7525840 126.6316780 138.7772600  31.7698720 125.2810090 138.0936850
  33.7075390 139.3472560 142.1767610  33.6645020 138.9765470 143.0582070
  33.8386400 140.2850130 142.3169430  37.4081420 140.9032150 137.7777330
  37.1672780 141.1706710 136.8907850  38.3484060 141.0737880 137.8328190
  39.6135840 127.3664840 141.5333840  39.5524730 127.9586670 142.2829250
  40.5536220 127.2590800 141.3884100  42.2510400 127.0234900 141.1726130
  42.8650810 127.3414190 140.5107210  42.7959960 126.5383490 141.7921990
  48.6685580 142.9226530 138.5787970  48.1743860 143.3195400 137.8615100
  48.0598870 142.2975740 138.9725250  32.7731660 125.7029160 141.2865190
  33.3214650 125.5217210 140.5231300  32.8386970 124.9123270 141.8221500
  33.5463420 142.2934810 139.2965390  32.9523740 142.1619510 140.0355430
  33.5387260 141.4572950 138.8307490  42.9918440 125.5867040 137.4995420
  42.1178280 125.9202150 137.2968350  42.8829190 125.1140220 138.3247290
  43.8990420 127.7937910 138.8837140  43.5703780 126.9789670 138.5038870
  44.8472720 127.7507720 138.7602830  46.3525030 143.5649950 135.8574710
  45.8928000 144.3165760 135.4832730  45.7237490 142.8456420 135.7989510
  33.1775650 139.6593190 138.2473430  32.4509710 139.0398480 138.1799380
  33.2384800 140.0533800 137.3771510  36.7820750 141.8738190 135.0322840
  37.2985770 141.2625550 134.5071100  37.4318130 142.3766970 135.5233850
  39.5216250 142.7646680 135.8591820  39.8094060 142.5100980 134.9824830
  40.0339470 142.2124040 136.4497390  40.7393260 126.5036880 136.4388330
  39.9565050 126.9782380 136.7185090  40.4456190 125.5991710 136.3301510
  45.2914330 127.2059980 134.4837420  45.7322420 127.1505080 133.6359020
  45.0221920 128.1217990 134.5547600  47.1552900 126.8375220 132.4946240
  47.0941300 125.8936440 132.3477260  47.9344930 126.9455310 133.0399700
  31.4605650 142.9767580 131.4570190  31.2927690 142.3438260 132.1552080
  30.5940160 143.1826980 131.1064380  32.0833670 126.8084360 128.9602050
  32.8413030 126.9213240 128.3866080  31.6210840 127.6453560 128.9145480
  38.6247480 128.9223630 131.9504360  37.8121990 128.5480520 131.6100240
  39.1289120 128.1668710 132.2525550  43.1272460 125.5866080 133.1887430
  43.7301830 126.1586290 133.6635950  42.3865450 126.1505520 132.9661330
  46.2707060 125.9887640 128.4627710  46.4657690 126.8871090 128.7295140
  45.4836930 125.7574720 128.9560660  33.0668350 141.6700810 128.9020330
  32.5415970 142.0508840 128.1982290  32.9912930 142.2951580 129.6230040
  34.4558820 127.3348410 127.5004020  34.9851580 126.5478210 127.3711970
  35.0887140 128.0139600 127.7339550  36.6496660 127.0723550 130.5549410
  36.0199400 126.3710860 130.7219540  36.1101800 127.8327680 130.3382570
  39.5888610 143.6862780 143.2260020  40.5155920 143.4507050 143.2695980
  39.5739040 144.5134780 142.7446050  47.8233670 143.2288350 130.2234270
  47.9985860 142.5426090 129.5795190  47.1255240 143.7535400 129.8310940
  36.7752220 126.3507530 142.9901900  36.4936490 126.8541130 142.2262720
  37.1571920 125.5529280 142.6244030  35.6661320 143.6183190 127.7769580
  36.3980140 143.3342470 127.2293470  35.9254990 143.3796470 128.6668960
  34.8276110 139.7347920 127.7815910  34.1984990 140.2033020 128.3301740
  34.9423940 138.8897140 128.2162100  43.3767680 125.7661110 143.5682370
  43.2633130 126.0855720 144.4633890  44.1937420 126.1673620 143.2719650
  46.1566170 142.9132640 143.0501060  46.9491490 142.4181870 142.8427020
  46.4499320 143.5922780 143.6576670  42.2825830 133.7853580 113.9317110
  42.2019880 132.8708190 113.6608820  41.8690250 134.2820650 113.2256820
  40.4143870 135.5632600 115.8126380  39.6385970 135.0833040 116.1024950
  41.0656800 134.8838250 115.6382540  34.4309700 135.8752410 116.6902140
  33.5994580 135.6201120 117.0898650  35.0390680 135.9463180 117.4260060
  44.4351300 139.9692790 114.5925510  43.9732830 139.1980030 114.9212680
  45.2476850 139.9958860 115.0977960  34.4110960 139.9092500 116.8860160
  34.7139000 139.0190240 116.7070380  35.1554550 140.4662720 116.6582410
  32.8401650 130.8354300 110.4744530  31.9518350 131.1770270 110.3724410
  33.1242840 130.6354620 109.5825360  30.8034660 133.4359950 116.3584230
  31.3750770 132.6682150 116.3587870  30.8036200 133.7348710 115.4490840
  40.6614610 142.2550800 114.2129500  40.0426050 142.7108300 113.6423940
  41.5166390 142.4102260 113.8119200  39.8552860 138.2389790 115.8196540
  39.7861140 137.2979730 115.6585670  40.6172720 138.3291200 116.3919110
  32.0459530 128.8444310 118.1453160  31.8662370 127.9470060 118.4255920
  31.6439610 129.3916180 118.8200110  40.8858030 131.0460170 116.0465470
  41.2622850 130.1732050 115.9339140  40.7877540 131.3818870 115.1555910
  35.0163040 129.4185800 111.5082910  35.1229790 130.3189530 111.8151670
  34.1055400 129.3703770 111.2177560  44.6682150 128.5410610 112.9793810
  45.4891770 128.0507180 113.0219290  44.7016230 129.1308270 113.7325650
  32.6646200 131.3404810 116.7535500  33.3456310 131.6043180 117.3722900
  32.3494250 130.5005680 117.0873510  36.8570770 132.3872170 115.8408090
  37.3648990 132.8853140 116.4813110  37.3884010 131.6107370 115.6647450
  48.9581700 130.5577360 119.5437440  48.2533870 130.9459070 119.0252550
  49.2239620 131.2527650 120.1458370  35.1406870 127.0270730 120.1071510
  35.1425310 127.5443120 119.3017410  34.3111180 126.5500910 120.0841440
  41.5277960 137.1390040 111.6061410  40.9095230 137.6039490 111.0424130
  42.0401210 137.8317520 112.0230920  36.3909720 136.6665910 118.2845010
  36.0579100 137.2934830 118.9266080  36.5676400 137.1927790 117.5046680
  44.9043630 130.4810990 115.7521350  44.1999200 130.7695880 116.3324460
  45.2655790 131.2911100 115.3920910  34.8222200 128.7380690 118.1141960
  35.1639010 129.5822740 117.8195830  33.8838010 128.8864430 118.2307300
  35.6028820 138.6346710 120.0994190  36.2202820 139.3097790 119.8178640
  34.7421940 139.0434690 120.0081690  30.8961160 137.8246570 108.9801040
  30.5189140 138.3133670 108.2485940  31.1534230 138.4971850 109.6107570
  46.5206410 140.0986120 118.0148830  45.8369930 140.7685230 118.0065500
  47.0600700 140.2966770 117.2493690  47.9730550 129.9265780 116.1430560
  47.0255460 129.9604760 116.2745990  48.2980540 130.7404730 116.5279920
  38.5050090 126.2262960 114.4386550  38.8125070 125.6709850 113.7222050
  37.5750790 126.3607420 114.2559540  44.0565150 141.9430250 116.7294010
  44.0692310 141.5392540 115.8616270  43.5040370 142.7177540 116.6255440
  45.3510570 138.6646470 111.8184180  45.2406900 137.7220800 111.9433600
  45.3478820 139.0262110 112.7046940  43.4550590 136.8460090 118.0576620
  43.8719380 136.6320200 117.2230080  44.1790410 137.1032880 118.6285240
  40.8930850 134.2911790 111.1746670  39.9660130 134.2249170 111.4035140
  41.0455670 135.2291920 111.0601910  40.8799930 130.5628790 108.1713830
  39.9403600 130.7242750 108.2566290  41.1983190 131.2814470 107.6249820
  47.4012690 135.2447310 118.1492860  46.5731320 135.3140400 117.6742990
  47.9963170 135.8301620 117.6808690  44.9228140 135.8532090 111.6781920
  44.3040560 135.5151640 111.0308220  44.9052590 135.2091850 112.3861110
  44.3654700 132.0316630 119.0947730  43.9525880 132.8570340 119.3487720
  43.6330650 131.4461670 118.9024090  36.4987490 134.8176530 113.9566400
  36.0944490 134.1053780 113.4612300  36.5850610 134.4729770 114.8454440
  36.9669190 138.5044090 116.1205610  36.6697480 137.8989560 115.4413390
  37.9169010 138.5421400 116.0094970  35.2116110 131.5919740 117.7365440
  35.7630700 131.7015080 116.9618690  35.7259620 131.9657340 118.4520670
  45.0554800 142.0775960 119.7828710  44.5785360 142.8848150 119.5901320
  44.3716590 141.4254290 119.9354920  36.0587620 138.2425780 122.7713410
  35.1616150 138.4665750 123.0186810  36.0840490 138.3660720 121.8224810
  43.0992840 135.0918900 108.6854670  43.5386120 134.2541330 108.5392490
  43.8121260 135.7248300 108.7718810  34.8858840 135.1139100 121.3470780
  34.7466610 135.9861900 121.7158180  34.0040200 134.7711910 121.2018720
  41.2088220 140.0314970 112.6535910  41.6484130 140.7739300 112.2391300
  41.1475110 140.2741540 113.5774870  36.6839190 141.0560800 123.5555930
  36.6554620 141.4603750 122.6884360  36.5204160 140.1271160 123.3927530
  46.6809980 126.3461710 106.9995710  46.3682640 126.4388540 107.8994780
  47.4422450 126.9242740 106.9493140  33.1992120 133.7121510 111.4573050
  33.0789720 134.4383600 110.8454320  32.8893010 132.9424420 110.9800960
  48.6354010 141.8387900 124.8520100  49.1113730 142.3170790 125.5309180
  49.2561170 141.7705390 124.1265600  30.8377490 136.8836650 117.2641690
  30.9157910 137.0185420 116.3197410  31.4519170 136.1752540 117.4569810
  32.0825120 138.5836840 113.6747870  31.6753200 138.7251430 112.8201470
  32.9738130 138.2997000 113.4719080  48.0387260 139.0300750 122.0120110
  48.1650320 138.7912630 121.0937290  48.0808640 138.1985290 122.4842190
  41.9004000 142.7328750 120.5814920  42.4148670 142.6436760 121.3837350
  41.0573080 143.0788450 120.8742830  43.8758400 143.0184090 110.0098920
  43.7159540 142.7287030 110.9080750  43.7105110 142.2424220 109.4744150
  36.3546780 142.7982620 111.7870540  36.1789260 141.8818160 111.5738340
  35.5002520 143.1569910 112.0268340  43.5784530 140.5271650 108.5696920
  42.8849690 140.5248940 107.9099200  44.3207390 140.1030970 108.1391090
  43.1434460 142.1534360 112.6445410  43.5991410 141.3723740 112.9584030
  43.4826980 142.8641180 113.1886590  47.8911270 131.0833210 122.9769850
  47.2755540 131.5912880 122.4485310  47.5707690 130.1831540 122.9195790
  30.8937010 137.9250820 119.8036150  31.0568050 137.4556180 118.9855520
  31.3589460 137.4174380 120.4684990  35.6655780 127.0556580 114.8396720
  35.2223930 127.8366120 114.5081240  36.2240770 127.3786470 115.5467660
  39.9525590 129.9225100 120.4432040  39.4904960 130.1308120 121.2551980
  39.5503700 129.1084450 120.1402710  44.9530100 131.1434050 121.5728700
  44.1023690 130.8439800 121.8937770  44.7931890 131.3876060 120.6612520
  42.0479810 132.6435800 123.6727490  42.3733220 131.8099550 123.3329720
  42.8360140 133.1664320 123.8205820  38.7814600 126.6767280 109.7202550
  38.1568780 126.6727150 110.4455860  38.6944720 125.8098240 109.3238520
  37.7031680 127.6003910 116.6986320  38.0004010 128.5066740 116.6178340
  38.2517240 127.1122690 116.0845890  35.4570000 132.1790150 112.5677970
  35.2310920 131.9627320 113.4724590  34.6762530 132.6118610 112.2223940
  42.6867760 132.1853520 111.1668620  42.0876650 132.9089320 110.9832240
  43.2347370 132.1230300 110.3845070  37.8969210 133.0775730 123.2338240
  37.8012810 132.1370460 123.0838640  38.7401190 133.2990800 122.8386310
  41.2932630 130.8217060 113.1971900  41.6862200 131.1389260 112.3840590
  41.6549480 129.9428940 113.3116420  33.0279750 129.4889400 121.3872020
  32.6343140 130.3364610 121.5944800  32.3398150 128.8515770 121.5780660
  39.6024800 129.5724370 124.4568760  38.9123120 129.3796570 125.0914850
  40.3457100 129.8559010 124.9893060  30.3296800 127.4117860 115.4202100
  30.0409850 127.9820720 116.1327080  31.0742560 126.9322310 115.7833330
  30.5167030 131.3537980 106.6304820  30.4341700 132.2968740 106.7719810
  30.1650090 131.2112890 105.7517170  41.8787770 133.4122810 117.2922680
  41.1468890 133.9209620 117.6412780  41.4812110 132.5952790 116.9911460
  38.3165160 130.0877010 115.6975170  38.3201220 129.6466960 114.8479710
  39.2116280 130.4094340 115.8046990  34.1667540 129.9703500 114.6569380
  33.8267590 130.4478730 115.4136430  33.4044860 129.5168620 114.2970480
  38.3785310 131.0889090 108.6881930  38.4998130 131.0475570 109.6367750
  37.9933820 131.9513240 108.5328660  42.3413680 128.8656490 116.7045620
  42.3586420 129.3165140 117.5487470  42.0929260 127.9662130 116.9179060
  37.3906810 133.3990230 108.0865230  36.8223710 132.9508480 107.4601140
  38.0995810 133.7583010 107.5530380  45.7684430 126.2788670 122.5432000
  46.0930200 125.5478330 123.0689980  45.8040940 125.9602310 121.6412990
  32.4675990 137.3002250 121.9631960  32.0830780 136.6595920 122.5614920
  32.7788180 138.0038370 122.5326690  38.6173130 134.1478790 117.4440580
  38.9843260 133.6737360 118.1901920  38.4278190 135.0220360 117.7848920
  31.4813620 128.8922480 113.5734050  31.1960540 128.5278150 114.4112670
  31.4192480 128.1602940 112.9597190  36.4072500 133.1887430 119.7624790
  36.1029570 134.0679410 119.9875150  37.3618960 133.2487220 119.7982230
  34.9354290 137.3948420 110.3591640  34.1616550 136.8546040 110.1990360
  35.6648920 136.8755030 110.0209400  45.6942270 136.3913780 116.1518030
  46.4141390 136.8869070 115.7614140  45.4924090 135.7131670 115.5071900
  41.1552210 127.7851740 110.2947420  40.3416820 127.2864910 110.2192730
  40.9614160 128.6249990 109.8783770  41.0761070 136.4622840 122.0387030
  41.0098380 135.5418510 121.7844620  40.4466210 136.5598280 122.7531670
  43.8700600 132.1571390 108.5909580  44.7580220 132.4688620 108.4160920
  43.8405690 131.2843640 108.1990160  34.9791690 137.0628800 113.9970450
  35.4970360 136.2597060 113.9427340  34.5275710 137.0007940 114.8387280
  39.8661190 138.3295080 109.2697750  40.2076890 139.0737310 108.7741070
  39.0373900 138.6426200 109.6322580  32.4636230 134.0290170 120.9096150
  32.1051170 134.6944020 121.4969490  32.1690790 133.1973720 121.2808770
  35.6649350 134.4874410 123.7935700  35.3649490 134.6331590 122.8963520
  36.4360590 133.9279700 123.7009090  41.0077800 139.2843410 121.7890830
  41.0222340 138.3524370 121.5709740  40.3002900 139.3703170 122.4280600
  46.1414870 133.4683230 108.0589440  46.0578590 133.8997450 107.2085880
  46.8609060 133.9281580 108.4916260  47.2189010 135.9250750 121.1359410
  46.4937200 136.5179530 120.9388800  47.7464470 135.9174290 120.3372780
  47.1702120 140.3225490 110.7871570  46.5278280 139.6681110 111.0615290
  46.7832780 140.7280580 110.0112240  42.7488600 137.6510920 114.6343260
  43.1012420 137.0539050 113.9744630  41.8650930 137.3255150 114.8051510
  38.8351880 138.4108610 112.0413670  39.5223010 138.9577820 112.4221260
  38.0484300 138.9549340 112.0763280  30.9744280 134.0281430 107.5330750
  31.8439130 134.3106230 107.8166670  30.4834600 134.8417300 107.4179560
  38.1379090 135.4154640 111.6539030  38.5941870 136.2259890 111.8799220
  37.7867300 135.0977780 112.4857520  40.4411700 140.9260980 118.8831330
  41.0853920 141.1320360 119.5604750  40.8041140 140.1649380 118.4302180
  34.0390870 125.7592290 112.1261550  33.9105500 125.7510190 113.0746470
  33.2152890 126.0975380 111.7752560  41.7143780 138.9293330 117.6008780
  42.3566010 138.2286490 117.7140950  42.2393130 139.7091770 117.4205670
  45.5599500 139.2141950 107.3247920  45.3337080 138.4972390 107.9172560
  45.1695700 138.9654390 106.4869670  43.4881400 139.7288230 120.8044840
  43.8237640 140.3154920 121.4822760  42.5681740 139.5980940 121.0342630
  31.3415530 143.2408810 108.0992380  31.7013170 143.8398150 107.4449650
  31.2007870 143.7868700 108.8727410  31.0384800 127.5183410 121.5868250
  30.3243320 127.7180330 122.1920860  31.4579840 126.7422980 121.9583050
  45.1415750 137.1313890 108.9862080  44.8537450 137.5926580 109.7739960
  45.9367920 136.6711660 109.2546300  31.3257390 141.5063670 122.5734780
  31.4348510 140.5658410 122.4330170  30.6737950 141.7718420 121.9248510
  39.3169980 139.7779560 123.9732900  38.9966850 139.0588800 124.5178590
  38.6428340 140.4534630 124.0468960  37.3584150 140.6240010 108.9166050
  37.3494250 141.3569700 108.3010560  36.4382510 140.3771590 109.0093010
  32.9590790 135.8454900 109.6612810  32.3518740 136.5853800 109.6708110
  33.4340140 135.9354260 108.8351010  42.5323580 130.0105720 119.3369700
  42.9004400 129.1900930 119.6649270  41.6721780 130.0707610 119.7525350
  45.8985610 128.9662660 110.1457260  45.2698770 129.0708330 109.4315490
  45.4037530 129.1859440 110.9351140  40.3443750 140.6868250 107.5791240
  40.4455730 140.4832240 106.6493220  39.4445490 140.4326530 107.7839020
  37.8669640 131.2448610 111.5615140  37.1585790 131.7134950 112.0028750
  38.1514120 130.5870620 112.1960330  39.4925570 132.6645310 119.5607670
  39.9910820 133.1391130 120.2259520  39.6348520 131.7408830 119.7677700
  41.8985070 127.9699270 113.0010930  41.7752850 127.9885400 112.0520440
  42.8469630 128.0178210 113.1209330  38.9861860 143.2054570 112.2738910
  39.2403360 143.1675960 111.3518280  38.0374340 143.0787900 112.2667160
  36.0704660 129.5533690 108.9365850  36.9195190 129.9903840 108.8706040
  35.7035930 129.8653950 109.7637910  46.6992430 128.8813270 120.4036060
  46.1966030 129.6218670 120.7429870  47.5149090 129.2697270 120.0872850
  44.9914440 134.1246450 113.8497420  44.0504580 134.1396680 114.0245110
  45.3058510 133.3382410 114.2957720  34.9696080 135.8066050 107.4101380
  35.7359350 135.6947410 107.9726810  35.0470770 135.1104020 106.7578150
  33.6642840 133.2391120 108.0934270  33.7446430 132.2918630 108.2051670
  34.5562590 133.5698000 108.1994930  46.9940020 141.2955300 115.5251680
  47.1187440 142.1186470 115.9975490  47.8605580 141.0846030 115.1775830
  34.4657550 143.3886510 115.1968810  35.2020030 142.8401970 115.4677380
  34.8498470 144.2542520 115.0574800  31.3503030 139.4560080 111.0710320
  30.4242810 139.6981220 111.0615730  31.8159460 140.2834340 110.9495070
  33.4715830 142.5732580 124.3854390  34.2728560 142.8944630 124.7989790
  32.9567650 142.2128160 125.1074300  37.5759860 142.5616820 107.0194380
  38.3688470 142.8505650 106.5676170  37.0564210 142.1308990 106.3406860
  42.3080460 138.6812450 124.3329800  41.7018620 138.7044050 123.5925550
  42.0034570 137.9495490 124.8697050  43.7380830 142.4092740 122.9439210
  44.6902580 142.3250760 122.8939450  43.5909050 143.0734450 123.6173000
  46.6290030 141.7886950 108.4431120  46.3431540 141.3752090 107.6285300
  46.4309580 142.7174660 108.3231640  31.1913640 135.0606040 123.3290440
  31.6952660 134.4813320 123.9006670  30.4521060 135.3446270 123.8666810
  38.0937260 137.7820230 106.8836730  37.9887900 137.1672580 107.6098110
  37.9261480 137.2586120 106.0999740  38.2451580 136.4677030 122.8625960
  37.4797250 137.0362030 122.7780630  38.4267540 136.1753240 121.9694190
  41.3339990 136.8440260 107.4878720  40.7850090 137.2909560 108.1321460
  41.9559250 136.3389510 108.0116390  45.3874930 138.1982360 123.4200980
  46.1284400 138.5358120 122.9168440  44.6247610 138.3674420 122.8670750
  33.2236720 133.2035630 124.2240510  33.2642060 132.9049500 125.1325740
  34.0782220 133.6043240 124.0648030  37.0015110 135.8031180 109.3844020
  37.4231530 135.6371050 110.2275410  37.1265950 134.9931410 108.8899160
  35.1642530 131.7827730 122.1915000  34.6338990 131.2918680 121.5638340
  35.8330600 132.2111930 121.6572930  39.5142750 134.8268790 106.6321120
  40.0348410 134.1117810 106.2662270  40.1611150 135.4654660 106.9321630
  44.0620590 136.2497190 121.9556190  44.4761610 136.4042270 122.8046610
  43.1271590 136.3752410 122.1181970  44.5342760 133.5893350 123.9595340
  45.1163530 132.8345670 123.8715820  44.7104530 134.1200790 123.1826820
  35.6514830 128.7490100 122.2712290  35.5571700 128.1310850 121.5463160
  35.0712220 129.4756390 122.0442200  38.4176270 127.3063340 119.3039680
  37.9693570 127.3287600 118.4585230  37.7841470 126.9082360 119.9009980
  38.8235820 136.2017670 119.9252120  39.2423930 137.0450400 119.7528360
  37.9044450 136.3389710 119.6958900  41.1599720 133.9333850 121.3089960
  41.2795930 133.3374990 122.0484800  42.0193720 133.9703540 120.8891260
  43.4987620 134.4871040 119.8852470  42.9722840 135.0113660 119.2817610
  43.8418960 135.1198430 120.5162200  35.8974010 131.8764410 106.3302180
  35.6963070 131.0131770 106.6915520  35.7266060 131.7897770 105.3923780
  36.6743240 142.5070680 121.0409850  36.1364330 143.2316740 120.7218550
  36.9277200 142.0301020 120.2507190  37.9268490 130.4755200 122.5665780
  38.5168180 130.1671050 123.2543600  37.1088730 130.0034950 122.7225680
  42.7461920 130.0921010 122.7998800  42.0577440 129.4302550 122.7348790
  43.4667940 129.6459280 123.2447260  43.3762320 126.6872640 108.8589060
  43.6564610 125.8440540 109.2148480  42.6028050 126.9195750 109.3727810
  34.6956810 128.9765030 106.3180060  34.9982710 128.9832460 105.4099210
  35.4351400 128.6262890 106.8147720  39.5305450 143.7421890 121.2996500
  39.4564150 144.6457030 121.6068870  38.6284290 143.4233790 121.2718570
  37.9141740 127.9199650 107.3036260  37.5663740 127.2423640 106.7238710
  38.1154510 127.4589160 108.1179650  40.0790780 142.9080400 108.9222860
  40.9741570 143.2465370 108.9441620  40.1108410 142.1859810 108.2947140
  33.7186940 138.2807450 107.1509860  34.1561810 138.8237120 107.8067440
  34.2034670 137.4554400 107.1606200  30.9332740 141.0696480 114.6030120
  31.2635750 140.2017540 114.3708760  31.3623740 141.2755000 115.4335080
  35.5294660 139.4005490 112.2632090  35.2290200 139.2770460 113.1636000
  35.4232150 138.5414080 111.8547820  31.4222950 141.9367070 117.3411750
  30.9853940 142.1167870 118.1735900  31.9900630 142.6941690 117.1993470
  47.0585130 141.4384070 121.6289060  46.4587120 141.4976630 120.8852980
  47.1879030 140.4989050 121.7585910  48.2986580 139.1801890 106.9658770
  47.4679540 139.2478540 107.4366000  48.4758410 140.0706010 106.6625630
  47.7543040 135.9249370 109.4692970  48.5161950 136.4946020 109.5752660
  47.7697410 135.3576570 110.2401280  31.2547380 134.4487300 113.7000630
  30.5996220 134.1798940 113.0560330  32.0925330 134.3391780 113.2502610
  48.7603010 136.7799470 114.3134900  49.1311840 135.9966790 113.9070870
  49.4004940 137.4688570 114.1352200  45.7436770 138.1636050 119.7265220
  44.9296610 138.5933210 119.9891010  46.1510970 138.7754460 119.1134270
  47.8062210 136.2183740 106.6265490  48.0811050 137.1262620 106.4984710
  47.6172950 136.1546270 107.5627480  44.2037820 129.2428590 107.9219120
  44.6222700 129.0559570 107.0815780  43.8973880 128.3907640 108.2322050
  47.7027550 134.1552730 111.6194920  47.3271150 133.3880660 111.1876210
  46.9730670 134.5375430 112.1069850  32.2923310 134.8339870 118.2403970
  32.6596350 134.7467270 119.1199990  31.7234130 134.0706420 118.1410830
  47.0927170 133.3024250 121.2534440  46.8613260 133.0737000 120.3532390
  47.3531720 134.2223800 121.2079330  31.8439310 131.7448960 122.1462390
  30.9495360 131.7115720 122.4856100  32.3836860 131.9435750 122.9113640
  45.5315240 128.5280680 124.0314140  46.4085420 128.5364080 124.4148140
  45.5436080 127.7911520 123.4206490  30.4685460 131.6586230 109.6425960
  29.5649540 131.9216430 109.4677620  30.9526080 131.9297400 108.8625920
  46.9778510 132.3810220 114.9202160  47.5015990 131.8872870 114.2892330
  47.5637930 132.5160580 115.6649730  47.1568230 132.4650090 118.4421710
  46.2070940 132.4313630 118.5566700  47.3381240 133.3750200 118.2071480
  33.0112670 130.7151770 107.5520340  33.7204370 130.2934990 107.0667620
  32.2952610 130.7827000 106.9203690  32.6586830 126.7691100 106.5922990
  33.3814960 127.3100040 106.9104210  32.9311350 126.4954520 105.7164530
  46.4678480 131.6383570 110.8594570  46.9637600 131.4054440 111.6443450
  46.2694550 130.7995410 110.4432210  32.3479020 126.0197290 116.4945610
  32.9955210 125.4694670 116.0540770  32.7680860 126.2740440 117.3161420
  47.8965640 130.2744520 113.3932250  47.7864920 130.1200560 114.3314520
  48.6573230 129.7465460 113.1507660  46.2431360 126.2138650 119.8515250
  46.8803580 126.8272790 120.2174440  46.3906250 126.2499310 118.9064480
  48.7855910 128.1052440 106.6338390  49.7105220 127.9733620 106.4256680
  48.7631700 128.1845260 107.5874840  48.8594400 128.8763100 109.2595100
  48.0645900 128.8108220 109.7888010  49.0637680 129.8113740 109.2480450
  45.8012820 142.9154650 113.2533490  46.3971890 142.5939220 112.5767910
  46.0590970 142.4426470 114.0446760  32.1011020 126.1752960 119.2370930
  31.7525840 126.6316780 120.0029110  31.7698720 125.2810090 119.3193360
  33.7075390 139.3472560 123.4024120  33.6645020 138.9765470 124.2838580
  33.8386400 140.2850130 123.5425940  37.4081420 140.9032150 119.0033840
  37.1672780 141.1706710 118.1164360  38.3484060 141.0737880 119.0584700
  39.6135840 127.3664840 122.7590350  39.5524730 127.9586670 123.5085760
  40.5536220 127.2590800 122.6140610  42.2510400 127.0234900 122.3982640
  42.8650810 127.3414190 121.7363720  42.7959960 126.5383490 123.0178500
  48.6685580 142.9226530 119.8044480  48.1743860 143.3195400 119.0871610
  48.0598870 142.2975740 120.1981760  32.7731660 125.7029160 122.5121700
  33.3214650 125.5217210 121.7487810  32.8386970 124.9123270 123.0478010
  33.5463420 142.2934810 120.5221900  32.9523740 142.1619510 121.2611940
  33.5387260 141.4572950 120.0564000  42.9918440 125.5867040 118.7251930
  42.1178280 125.9202150 118.5224860  42.8829190 125.1140220 119.5503800
  43.8990420 127.7937910 120.1093650  43.5703780 126.9789670 119.7295380
  44.8472720 127.7507720 119.9859340  46.3525030 143.5649950 117.0831220
  45.8928000 144.3165760 116.7089240  45.7237490 142.8456420 117.0246020
  33.1775650 139.6593190 119.4729940  32.4509710 139.0398480 119.4055890
  33.2384800 140.0533800 118.6028020  36.7820750 141.8738190 116.2579350
  37.2985770 141.2625550 115.7327610  37.4318130 142.3766970 116.7490360
  39.5216250 142.7646680 117.0848330  39.8094060 142.5100980 116.2081340
  40.0339470 142.2124040 117.6753900  40.7393260 126.5036880 117.6644840
  39.9565050 126.9782380 117.9441600  40.4456190 125.5991710 117.5558020
  45.2914330 127.2059980 115.7093930  45.7322420 127.1505080 114.8615530
  45.0221920 128.1217990 115.7804110  47.1552900 126.8375220 113.7202750
  47.0941300 125.8936440 113.5733770  47.9344930 126.9455310 114.2656210
  31.4605650 142.9767580 112.6826700  31.2927690 142.3438260 113.3808590
  30.5940160 143.1826980 112.3320890  32.0833670 126.8084360 110.1858560
  32.8413030 126.9213240 109.6122590  31.6210840 127.6453560 110.1401990
  38.6247480 128.9223630 113.1760870  37.8121990 128.5480520 112.8356750
  39.1289120 128.1668710 113.4782060  43.1272460 125.5866080 114.4143940
  43.7301830 126.1586290 114.8892460  42.3865450 126.1505520 114.1917840
  46.2707060 125.9887640 109.6884220  46.4657690 126.8871090 109.9551650
  45.4836930 125.7574720 110.1817170  33.0668350 141.6700810 110.1276840
  32.5415970 142.0508840 109.4238800  32.9912930 142.2951580 110.8486550
  34.4558820 127.3348410 108.7260530  34.9851580 126.5478210 108.5968480
  35.0887140 128.0139600 108.9596060  36.6496660 127.0723550 111.7805920
  36.0199400 126.3710860 111.9476050  36.1101800 127.8327680 111.5639080
  39.5888610 143.6862780 124.4516530  40.5155920 143.4507050 124.4952490
  39.5739040 144.5134780 123.9702560  47.8233670 143.2288350 111.4490780
  47.9985860 142.5426090 110.8051700  47.1255240 143.7535400 111.0567450
  36.7752220 126.3507530 124.2158410  36.4936490 126.8541130 123.4519230
  37.1571920 125.5529280 123.8500540  35.6661320 143.6183190 109.0026090
  36.3980140 143.3342470 108.4549980  35.9254990 143.3796470 109.8925470
  34.8276110 139.7347920 109.0072420  34.1984990 140.2033020 109.5558250
  34.9423940 138.8897140 109.4418610  43.3767680 125.7661110 124.7938880
  43.2633130 126.0855720 125.6890400  44.1937420 126.1673620 124.4976160
  46.1566170 142.9132640 124.2757570  46.9491490 142.4181870 124.0683530
  46.4499320 143.5922780 124.8833180  42.2825830 133.7853580  95.1573620
  42.2019880 132.8708190  94.8865330  41.8690250 134.2820650  94.4513330
  40.4143870 135.5632600  97.0382890  39.6385970 135.0833040  97.3281460
  41.0656800 134.8838250  96.8639050  34.4309700 135.8752410  97.9158650
  33.5994580 135.6201120  98.3155160  35.0390680 135.9463180  98.6516570
  44.4351300 139.9692790  95.8182020  43.9732830 139.1980030  96.1469190
  45.2476850 139.9958860  96.3234470  34.4110960 139.9092500  98.1116670
  34.7139000 139.0190240  97.9326890  35.1554550 140.4662720  97.8838920
  32.8401650 130.8354300  91.7001040  31.9518350 131.1770270  91.5980920
  33.1242840 130.6354620  90.8081870  30.8034660 133.4359950  97.5840740
  31.3750770 132.6682150  97.5844380  30.8036200 133.7348710  96.6747350
  40.6614610 142.2550800  95.4386010  40.0426050 142.7108300  94.8680450
  41.5166390 142.4102260  95.0375710  39.8552860 138.2389790  97.0453050
  39.7861140 137.2979730  96.8842180  40.6172720 138.3291200  97.6175620
  32.0459530 128.8444310  99.3709670  31.8662370 127.9470060  99.6512430
  31.6439610 129.3916180 100.0456620  40.8858030 131.0460170  97.2721980
  41.2622850 130.1732050  97.1595650  40.7877540 131.3818870  96.3812420
  35.0163040 129.4185800  92.7339420  35.1229790 130.3189530  93.0408180
  34.1055400 129.3703770  92.4434070  44.6682150 128.5410610  94.2050320
  45.4891770 128.0507180  94.2475800  44.7016230 129.1308270  94.9582160
  32.6646200 131.3404810  97.9792010  33.3456310 131.6043180  98.5979410
  32.3494250 130.5005680  98.3130020  36.8570770 132.3872170  97.0664600
  37.3648990 132.8853140  97.7069620  37.3884010 131.6107370  96.8903960
  48.9581700 130.5577360 100.7693950  48.2533870 130.9459070 100.2509060
  49.2239620 131.2527650 101.3714880  35.1406870 127.0270730 101.3328020
  35.1425310 127.5443120 100.5273920  34.3111180 126.5500910 101.3097950
  41.5277960 137.1390040  92.8317920  40.9095230 137.6039490  92.2680640
  42.0401210 137.8317520  93.2487430  36.3909720 136.6665910  99.5101520
  36.0579100 137.2934830 100.1522590  36.5676400 137.1927790  98.7303190
  44.9043630 130.4810990  96.9777860  44.1999200 130.7695880  97.5580970
  45.2655790 131.2911100  96.6177420  34.8222200 128.7380690  99.3398470
  35.1639010 129.5822740  99.0452340  33.8838010 128.8864430  99.4563810
  35.6028820 138.6346710 101.3250700  36.2202820 139.3097790 101.0435150
  34.7421940 139.0434690 101.2338200  30.8961160 137.8246570  90.2057550
  30.5189140 138.3133670  89.4742450  31.1534230 138.4971850  90.8364080
  46.5206410 140.0986120  99.2405340  45.8369930 140.7685230  99.2322010
  47.0600700 140.2966770  98.4750200  47.9730550 129.9265780  97.3687070
  47.0255460 129.9604760  97.5002500  48.2980540 130.7404730  97.7536430
  38.5050090 126.2262960  95.6643060  38.8125070 125.6709850  94.9478560
  37.5750790 126.3607420  95.4816050  44.0565150 141.9430250  97.9550520
  44.0692310 141.5392540  97.0872780  43.5040370 142.7177540  97.8511950
  45.3510570 138.6646470  93.0440690  45.2406900 137.7220800  93.1690110
  45.3478820 139.0262110  93.9303450  43.4550590 136.8460090  99.2833130
  43.8719380 136.6320200  98.4486590  44.1790410 137.1032880  99.8541750
  40.8930850 134.2911790  92.4003180  39.9660130 134.2249170  92.6291650
  41.0455670 135.2291920  92.2858420  40.8799930 130.5628790  89.3970340
  39.9403600 130.7242750  89.4822800  41.1983190 131.2814470  88.8506330
  47.4012690 135.2447310  99.3749370  46.5731320 135.3140400  98.8999500
  47.9963170 135.8301620  98.9065200  44.9228140 135.8532090  92.9038430
  44.3040560 135.5151640  92.2564730  44.9052590 135.2091850  93.6117620
  44.3654700 132.0316630 100.3204240  43.9525880 132.8570340 100.5744230
  43.6330650 131.4461670 100.1280600  36.4987490 134.8176530  95.1822910
  36.0944490 134.1053780  94.6868810  36.5850610 134.4729770  96.0710950
  36.9669190 138.5044090  97.3462120  36.6697480 137.8989560  96.6669900
  37.9169010 138.5421400  97.2351480  35.2116110 131.5919740  98.9621950
  35.7630700 131.7015080  98.1875200  35.7259620 131.9657340  99.6777180
  45.0554800 142.0775960 101.0085220  44.5785360 142.8848150 100.8157830
  44.3716590 141.4254290 101.1611430  36.0587620 138.2425780 103.9969920
  35.1616150 138.4665750 104.2443320  36.0840490 138.3660720 103.0481320
  43.0992840 135.0918900  89.9111180  43.5386120 134.2541330  89.7649000
  43.8121260 135.7248300  89.9975320  34.8858840 135.1139100 102.5727290
  34.7466610 135.9861900 102.9414690  34.0040200 134.7711910 102.4275230
  41.2088220 140.0314970  93.8792420  41.6484130 140.7739300  93.4647810
  41.1475110 140.2741540  94.8031380  36.6839190 141.0560800 104.7812440
  36.6554620 141.4603750 103.9140870  36.5204160 140.1271160 104.6184040
  46.6809980 126.3461710  88.2252220  46.3682640 126.4388540  89.1251290
  47.4422450 126.9242740  88.1749650  33.1992120 133.7121510  92.6829560
  33.0789720 134.4383600  92.0710830  32.8893010 132.9424420  92.2057470
  48.6354010 141.8387900 106.0776610  49.1113730 142.3170790 106.7565690
  49.2561170 141.7705390 105.3522110  30.8377490 136.8836650  98.4898200
  30.9157910 137.0185420  97.5453920  31.4519170 136.1752540  98.6826320
  32.0825120 138.5836840  94.9004380  31.6753200 138.7251430  94.0457980
  32.9738130 138.2997000  94.6975590  48.0387260 139.0300750 103.2376620
  48.1650320 138.7912630 102.3193800  48.0808640 138.1985290 103.7098700
  41.9004000 142.7328750 101.8071430  42.4148670 142.6436760 102.6093860
  41.0573080 143.0788450 102.0999340  43.8758400 143.0184090  91.2355430
  43.7159540 142.7287030  92.1337260  43.7105110 142.2424220  90.7000660
  36.3546780 142.7982620  93.0127050  36.1789260 141.8818160  92.7994850
  35.5002520 143.1569910  93.2524850  43.5784530 140.5271650  89.7953430
  42.8849690 140.5248940  89.1355710  44.3207390 140.1030970  89.3647600
  43.1434460 142.1534360  93.8701920  43.5991410 141.3723740  94.1840540
  43.4826980 142.8641180  94.4143100  47.8911270 131.0833210 104.2026360
  47.2755540 131.5912880 103.6741820  47.5707690 130.1831540 104.1452300
  30.8937010 137.9250820 101.0292660  31.0568050 137.4556180 100.2112030
  31.3589460 137.4174380 101.6941500  35.6655780 127.0556580  96.0653230
  35.2223930 127.8366120  95.7337750  36.2240770 127.3786470  96.7724170
  39.9525590 129.9225100 101.6688550  39.4904960 130.1308120 102.4808490
  39.5503700 129.1084450 101.3659220  44.9530100 131.1434050 102.7985210
  44.1023690 130.8439800 103.1194280  44.7931890 131.3876060 101.8869030
  42.0479810 132.6435800 104.8984000  42.3733220 131.8099550 104.5586230
  42.8360140 133.1664320 105.0462330  37.7031680 127.6003910  97.9242830
  38.0004010 128.5066740  97.8434850  38.2517240 127.1122690  97.3102400
  35.4570000 132.1790150  93.7934480  35.2310920 131.9627320  94.6981100
  34.6762530 132.6118610  93.4480450  42.6867760 132.1853520  92.3925130
  42.0876650 132.9089320  92.2088750  43.2347370 132.1230300  91.6101580
  37.8969210 133.0775730 104.4594750  37.8012810 132.1370460 104.3095150
  38.7401190 133.2990800 104.0642820  41.2932630 130.8217060  94.4228410
  41.6862200 131.1389260  93.6097100  41.6549480 129.9428940  94.5372930
  33.0279750 129.4889400 102.6128530  32.6343140 130.3364610 102.8201310
  32.3398150 128.8515770 102.8037170  39.6024800 129.5724370 105.6825270
  38.9123120 129.3796570 106.3171360  40.3457100 129.8559010 106.2149570
  30.3296800 127.4117860  96.6458610  30.0409850 127.9820720  97.3583590
  31.0742560 126.9322310  97.0089840  30.5167030 131.3537980  87.8561330
  30.4341700 132.2968740  87.9976320  30.1650090 131.2112890  86.9773680
  41.8787770 133.4122810  98.5179190  41.1468890 133.9209620  98.8669290
  41.4812110 132.5952790  98.2167970  38.3165160 130.0877010  96.9231680
  38.3201220 129.6466960  96.0736220  39.2116280 130.4094340  97.0303500
  34.1667540 129.9703500  95.8825890  33.8267590 130.4478730  96.6392940
  33.4044860 129.5168620  95.5226990  38.3785310 131.0889090  89.9138440
  38.4998130 131.0475570  90.8624260  37.9933820 131.9513240  89.7585170
  42.3413680 128.8656490  97.9302130  42.3586420 129.3165140  98.7743980
  42.0929260 127.9662130  98.1435570  37.3906810 133.3990230  89.3121740
  36.8223710 132.9508480  88.6857650  38.0995810 133.7583010  88.7786890
  45.7684430 126.2788670 103.7688510  46.0930200 125.5478330 104.2946490
  45.8040940 125.9602310 102.8669500  32.4675990 137.3002250 103.1888470
  32.0830780 136.6595920 103.7871430  32.7788180 138.0038370 103.7583200
  38.6173130 134.1478790  98.6697090  38.9843260 133.6737360  99.4158430
  38.4278190 135.0220360  99.0105430  31.4813620 128.8922480  94.7990560
  31.1960540 128.5278150  95.6369180  31.4192480 128.1602940  94.1853700
  36.4072500 133.1887430 100.9881300  36.1029570 134.0679410 101.2131660
  37.3618960 133.2487220 101.0238740  34.9354290 137.3948420  91.5848150
  34.1616550 136.8546040  91.4246870  35.6648920 136.8755030  91.2465910
  45.6942270 136.3913780  97.3774540  46.4141390 136.8869070  96.9870650
  45.4924090 135.7131670  96.7328410  41.1552210 127.7851740  91.5203930
  40.3416820 127.2864910  91.4449240  40.9614160 128.6249990  91.1040280
  41.0761070 136.4622840 103.2643540  41.0098380 135.5418510 103.0101130
  40.4466210 136.5598280 103.9788180  43.8700600 132.1571390  89.8166090
  44.7580220 132.4688620  89.6417430  43.8405690 131.2843640  89.4246670
  34.9791690 137.0628800  95.2226960  35.4970360 136.2597060  95.1683850
  34.5275710 137.0007940  96.0643790  39.8661190 138.3295080  90.4954260
  40.2076890 139.0737310  89.9997580  39.0373900 138.6426200  90.8579090
  32.4636230 134.0290170 102.1352660  32.1051170 134.6944020 102.7226000
  32.1690790 133.1973720 102.5065280  35.6649350 134.4874410 105.0192210
  35.3649490 134.6331590 104.1220030  36.4360590 133.9279700 104.9265600
  41.0077800 139.2843410 103.0147340  41.0222340 138.3524370 102.7966250
  40.3002900 139.3703170 103.6537110  46.1414870 133.4683230  89.2845950
  46.0578590 133.8997450  88.4342390  46.8609060 133.9281580  89.7172770
  47.2189010 135.9250750 102.3615920  46.4937200 136.5179530 102.1645310
  47.7464470 135.9174290 101.5629290  47.1702120 140.3225490  92.0128080
  46.5278280 139.6681110  92.2871800  46.7832780 140.7280580  91.2368750
  42.7488600 137.6510920  95.8599770  43.1012420 137.0539050  95.2001140
  41.8650930 137.3255150  96.0308020  38.8351880 138.4108610  93.2670180
  39.5223010 138.9577820  93.6477770  38.0484300 138.9549340  93.3019790
  30.9744280 134.0281430  88.7587260  31.8439130 134.3106230  89.0423180
  30.4834600 134.8417300  88.6436070  38.1379090 135.4154640  92.8795540
  38.5941870 136.2259890  93.1055730  37.7867300 135.0977780  93.7114030
  40.4411700 140.9260980 100.1087840  41.0853920 141.1320360 100.7861260
  40.8041140 140.1649380  99.6558690  34.0390870 125.7592290  93.3518060
  33.9105500 125.7510190  94.3002980  33.2152890 126.0975380  93.0009070
  41.7143780 138.9293330  98.8265290  42.3566010 138.2286490  98.9397460
  42.2393130 139.7091770  98.6462180  45.5599500 139.2141950  88.5504430
  45.3337080 138.4972390  89.1429070  45.1695700 138.9654390  87.7126180
  43.4881400 139.7288230 102.0301350  43.8237640 140.3154920 102.7079270
  42.5681740 139.5980940 102.2599140  31.3415530 143.2408810  89.3248890
  31.7013170 143.8398150  88.6706160  31.2007870 143.7868700  90.0983920
  31.0384800 127.5183410 102.8124760  30.3243320 127.7180330 103.4177370
  31.4579840 126.7422980 103.1839560  45.1415750 137.1313890  90.2118590
  44.8537450 137.5926580  90.9996470  45.9367920 136.6711660  90.4802810
  31.3257390 141.5063670 103.7991290  31.4348510 140.5658410 103.6586680
  30.6737950 141.7718420 103.1505020  39.3169980 139.7779560 105.1989410
  38.9966850 139.0588800 105.7435100  38.6428340 140.4534630 105.2725470
  37.3584150 140.6240010  90.1422560  37.3494250 141.3569700  89.5267070
  36.4382510 140.3771590  90.2349520  32.9590790 135.8454900  90.8869320
  32.3518740 136.5853800  90.8964620  33.4340140 135.9354260  90.0607520
  42.5323580 130.0105720 100.5626210  42.9004400 129.1900930 100.8905780
  41.6721780 130.0707610 100.9781860  45.8985610 128.9662660  91.3713770
  45.2698770 129.0708330  90.6572000  45.4037530 129.1859440  92.1607650
  40.3443750 140.6868250  88.8047750  40.4455730 140.4832240  87.8749730
  39.4445490 140.4326530  89.0095530  37.8669640 131.2448610  92.7871650
  37.1585790 131.7134950  93.2285260  38.1514120 130.5870620  93.4216840
  39.4925570 132.6645310 100.7864180  39.9910820 133.1391130 101.4516030
  39.6348520 131.7408830 100.9934210  41.8985070 127.9699270  94.2267440
  41.7752850 127.9885400  93.2776950  42.8469630 128.0178210  94.3465840
  38.9861860 143.2054570  93.4995420  39.2403360 143.1675960  92.5774790
  38.0374340 143.0787900  93.4923670  36.0704660 129.5533690  90.1622360
  36.9195190 129.9903840  90.0962550  35.7035930 129.8653950  90.9894420
  46.6992430 128.8813270 101.6292570  46.1966030 129.6218670 101.9686380
  47.5149090 129.2697270 101.3129360  34.9696080 135.8066050  88.6357890
  35.7359350 135.6947410  89.1983320  35.0470770 135.1104020  87.9834660
  33.6642840 133.2391120  89.3190780  33.7446430 132.2918630  89.4308180
  34.5562590 133.5698000  89.4251440  46.9940020 141.2955300  96.7508190
  47.1187440 142.1186470  97.2232000  47.8605580 141.0846030  96.4032340
  34.4657550 143.3886510  96.4225320  35.2020030 142.8401970  96.6933890
  34.8498470 144.2542520  96.2831310  31.3503030 139.4560080  92.2966830
  30.4242810 139.6981220  92.2872240  31.8159460 140.2834340  92.1751580
  33.4715830 142.5732580 105.6110900  34.2728560 142.8944630 106.0246300
  32.9567650 142.2128160 106.3330810  37.5759860 142.5616820  88.2450890
  38.3688470 142.8505650  87.7932680  37.0564210 142.1308990  87.5663370
  42.3080460 138.6812450 105.5586310  41.7018620 138.7044050 104.8182060
  42.0034570 137.9495490 106.0953560  43.7380830 142.4092740 104.1695720
  44.6902580 142.3250760 104.1195960  43.5909050 143.0734450 104.8429510
  46.6290030 141.7886950  89.6687630  46.3431540 141.3752090  88.8541810
  46.4309580 142.7174660  89.5488150  31.1913640 135.0606040 104.5546950
  31.6952660 134.4813320 105.1263180  30.4521060 135.3446270 105.0923320
  38.0937260 137.7820230  88.1093240  37.9887900 137.1672580  88.8354620
  37.9261480 137.2586120  87.3256250  38.2451580 136.4677030 104.0882470
  37.4797250 137.0362030 104.0037140  38.4267540 136.1753240 103.1950700
  41.3339990 136.8440260  88.7135230  40.7850090 137.2909560  89.3577970
  41.9559250 136.3389510  89.2372900  45.3874930 138.1982360 104.6457490
  46.1284400 138.5358120 104.1424950  44.6247610 138.3674420 104.0927260
  33.2236720 133.2035630 105.4497020  33.2642060 132.9049500 106.3582250
  34.0782220 133.6043240 105.2904540  37.0015110 135.8031180  90.6100530
  37.4231530 135.6371050  91.4531920  37.1265950 134.9931410  90.1155670
  35.1642530 131.7827730 103.4171510  34.6338990 131.2918680 102.7894850
  35.8330600 132.2111930 102.8829440  39.5142750 134.8268790  87.8577630
  40.0348410 134.1117810  87.4918780  40.1611150 135.4654660  88.1578140
  44.0620590 136.2497190 103.1812700  44.4761610 136.4042270 104.0303120
  43.1271590 136.3752410 103.3438480  44.5342760 133.5893350 105.1851850
  45.1163530 132.8345670 105.0972330  44.7104530 134.1200790 104.4083330
  35.6514830 128.7490100 103.4968800  35.5571700 128.1310850 102.7719670
  35.0712220 129.4756390 103.2698710  38.4176270 127.3063340 100.5296190
  37.9693570 127.3287600  99.6841740  37.7841470 126.9082360 101.1266490
  38.8235820 136.2017670 101.1508630  39.2423930 137.0450400 100.9784870
  37.9044450 136.3389710 100.9215410  41.1599720 133.9333850 102.5346470
  41.2795930 133.3374990 103.2741310  42.0193720 133.9703540 102.1147770
  43.4987620 134.4871040 101.1108980  42.9722840 135.0113660 100.5074120
  43.8418960 135.1198430 101.7418710  35.8974010 131.8764410  87.5558690
  35.6963070 131.0131770  87.9172030  35.7266060 131.7897770  86.6180290
  36.6743240 142.5070680 102.2666360  36.1364330 143.2316740 101.9475060
  36.9277200 142.0301020 101.4763700  37.9268490 130.4755200 103.7922290
  38.5168180 130.1671050 104.4800110  37.1088730 130.0034950 103.9482190
  42.7461920 130.0921010 104.0255310  42.0577440 129.4302550 103.9605300
  43.4667940 129.6459280 104.4703770  43.3762320 126.6872640  90.0845570
  43.6564610 125.8440540  90.4404990  42.6028050 126.9195750  90.5984320
  39.5305450 143.7421890 102.5253010  39.4564150 144.6457030 102.8325380
  38.6284290 143.4233790 102.4975080  40.0790780 142.9080400  90.1479370
  40.9741570 143.2465370  90.1698130  40.1108410 142.1859810  89.5203650
  33.7186940 138.2807450  88.3766370  34.1561810 138.8237120  89.0323950
  34.2034670 137.4554400  88.3862710  30.9332740 141.0696480  95.8286630
  31.2635750 140.2017540  95.5965270  31.3623740 141.2755000  96.6591590
  35.5294660 139.4005490  93.4888600  35.2290200 139.2770460  94.3892510
  35.4232150 138.5414080  93.0804330  31.4222950 141.9367070  98.5668260
  30.9853940 142.1167870  99.3992410  31.9900630 142.6941690  98.4249980
  47.0585130 141.4384070 102.8545570  46.4587120 141.4976630 102.1109490
  47.1879030 140.4989050 102.9842420  48.2986580 139.1801890  88.1915280
  47.4679540 139.2478540  88.6622510  48.4758410 140.0706010  87.8882140
  47.7543040 135.9249370  90.6949480  48.5161950 136.4946020  90.8009170
  47.7697410 135.3576570  91.4657790  31.2547380 134.4487300  94.9257140
  30.5996220 134.1798940  94.2816840  32.0925330 134.3391780  94.4759120
  45.7436770 138.1636050 100.9521730  44.9296610 138.5933210 101.2147520
  46.1510970 138.7754460 100.3390780  47.8062210 136.2183740  87.8522000
  48.0811050 137.1262620  87.7241220  47.6172950 136.1546270  88.7883990
  44.2037820 129.2428590  89.1475630  44.6222700 129.0559570  88.3072290
  43.8973880 128.3907640  89.4578560  32.2923310 134.8339870  99.4660480
  32.6596350 134.7467270 100.3456500  31.7234130 134.0706420  99.3667340
  47.0927170 133.3024250 102.4790950  46.8613260 133.0737000 101.5788900
  47.3531720 134.2223800 102.4335840  31.8439310 131.7448960 103.3718900
  30.9495360 131.7115720 103.7112610  32.3836860 131.9435750 104.1370150
  45.5315240 128.5280680 105.2570650  46.4085420 128.5364080 105.6404650
  45.5436080 127.7911520 104.6463000  30.4685460 131.6586230  90.8682470
  29.5649540 131.9216430  90.6934130  30.9526080 131.9297400  90.0882430
  47.1568230 132.4650090  99.6678220  46.2070940 132.4313630  99.7823210
  47.3381240 133.3750200  99.4327990  33.0112670 130.7151770  88.7776850
  33.7204370 130.2934990  88.2924130  32.2952610 130.7827000  88.1460200
  32.6586830 126.7691100  87.8179500  33.3814960 127.3100040  88.1360720
  32.9311350 126.4954520  86.9421040  32.3479020 126.0197290  97.7202120
  32.9955210 125.4694670  97.2797280  32.7680860 126.2740440  98.5417930
  46.2431360 126.2138650 101.0771760  46.8803580 126.8272790 101.4430950
  46.3906250 126.2499310 100.1320990  48.7855910 128.1052440  87.8594900
  49.7105220 127.9733620  87.6513190  48.7631700 128.1845260  88.8131350
  48.8594400 128.8763100  90.4851610  48.0645900 128.8108220  91.0144520
  49.0637680 129.8113740  90.4736960  45.8012820 142.9154650  94.4790000
  46.3971890 142.5939220  93.8024420  46.0590970 142.4426470  95.2703270
  32.1011020 126.1752960 100.4627440  31.7525840 126.6316780 101.2285620
  31.7698720 125.2810090 100.5449870  33.7075390 139.3472560 104.6280630
  33.6645020 138.9765470 105.5095090  33.8386400 140.2850130 104.7682450
  37.4081420 140.9032150 100.2290350  37.1672780 141.1706710  99.3420870
  38.3484060 141.0737880 100.2841210  39.6135840 127.3664840 103.9846860
  39.5524730 127.9586670 104.7342270  40.5536220 127.2590800 103.8397120
  42.2510400 127.0234900 103.6239150  42.8650810 127.3414190 102.9620230
  42.7959960 126.5383490 104.2435010  48.6685580 142.9226530 101.0300990
  48.1743860 143.3195400 100.3128120  48.0598870 142.2975740 101.4238270
  32.7731660 125.7029160 103.7378210  33.3214650 125.5217210 102.9744320
  32.8386970 124.9123270 104.2734520  33.5463420 142.2934810 101.7478410
  32.9523740 142.1619510 102.4868450  33.5387260 141.4572950 101.2820510
  43.8990420 127.7937910 101.3350160  43.5703780 126.9789670 100.9551890
  44.8472720 127.7507720 101.2115850  46.3525030 143.5649950  98.3087730
  45.8928000 144.3165760  97.9345750  45.7237490 142.8456420  98.2502530
  33.1775650 139.6593190 100.6986450  32.4509710 139.0398480 100.6312400
  33.2384800 140.0533800  99.8284530  36.7820750 141.8738190  97.4835860
  37.2985770 141.2625550  96.9584120  37.4318130 142.3766970  97.9746870
  39.5216250 142.7646680  98.3104840  39.8094060 142.5100980  97.4337850
  40.0339470 142.2124040  98.9010410  40.7393260 126.5036880  98.8901350
  39.9565050 126.9782380  99.1698110  40.4456190 125.5991710  98.7814530
  45.2914330 127.2059980  96.9350440  45.7322420 127.1505080  96.0872040
  45.0221920 128.1217990  97.0060620  47.1552900 126.8375220  94.9459260
  47.0941300 125.8936440  94.7990280  47.9344930 126.9455310  95.4912720
  31.4605650 142.9767580  93.9083210  31.2927690 142.3438260  94.6065100
  30.5940160 143.1826980  93.5577400  32.0833670 126.8084360  91.4115070
  32.8413030 126.9213240  90.8379100  31.6210840 127.6453560  91.3658500
  38.6247480 128.9223630  94.4017380  37.8121990 128.5480520  94.0613260
  39.1289120 128.1668710  94.7038570  46.2707060 125.9887640  90.9140730
  46.4657690 126.8871090  91.1808160  45.4836930 125.7574720  91.4073680
  33.0668350 141.6700810  91.3533350  32.5415970 142.0508840  90.6495310
  32.9912930 142.2951580  92.0743060  36.6496660 127.0723550  93.0062430
  36.0199400 126.3710860  93.1732560  36.1101800 127.8327680  92.7895590
  39.5888610 143.6862780 105.6773040  40.5155920 143.4507050 105.7209000
  39.5739040 144.5134780 105.1959070  47.8233670 143.2288350  92.6747290
  47.9985860 142.5426090  92.0308210  47.1255240 143.7535400  92.2823960
  36.7752220 126.3507530 105.4414920  36.4936490 126.8541130 104.6775740
  37.1571920 125.5529280 105.0757050  35.6661320 143.6183190  90.2282600
  36.3980140 143.3342470  89.6806490  35.9254990 143.3796470  91.1181980
  34.8276110 139.7347920  90.2328930  34.1984990 140.2033020  90.7814760
  34.9423940 138.8897140  90.6675120  43.3767680 125.7661110 106.0195390
  43.2633130 126.0855720 106.9146910  44.1937420 126.1673620 105.7232670
  46.1566170 142.9132640 105.5014080  46.9491490 142.4181870 105.2940040
  46.4499320 143.5922780 106.1089690  42.2825830 133.7853580  76.3830130
  42.2019880 132.8708190  76.1121840  41.8690250 134.2820650  75.6769840
  40.4143870 135.5632600  78.2639400  39.6385970 135.0833040  78.5537970
  41.0656800 134.8838250  78.0895560  34.4309700 135.8752410  79.1415160
  33.5994580 135.6201120  79.5411670  35.0390680 135.9463180  79.8773080
  44.4351300 139.9692790  77.0438530  43.9732830 139.1980030  77.3725700
  45.2476850 139.9958860  77.5490980  34.4110960 139.9092500  79.3373180
  34.7139000 139.0190240  79.1583400  35.1554550 140.4662720  79.1095430
  32.8401650 130.8354300  72.9257550  31.9518350 131.1770270  72.8237430
  33.1242840 130.6354620  72.0338380  30.8034660 133.4359950  78.8097250
  31.3750770 132.6682150  78.8100890  30.8036200 133.7348710  77.9003860
  40.6614610 142.2550800  76.6642520  40.0426050 142.7108300  76.0936960
  41.5166390 142.4102260  76.2632220  39.8552860 138.2389790  78.2709560
  39.7861140 137.2979730  78.1098690  40.6172720 138.3291200  78.8432130
  32.0459530 128.8444310  80.5966180  31.8662370 127.9470060  80.8768940
  31.6439610 129.3916180  81.2713130  40.8858030 131.0460170  78.4978490
  41.2622850 130.1732050  78.3852160  40.7877540 131.3818870  77.6068930
  35.0163040 129.4185800  73.9595930  35.1229790 130.3189530  74.2664690
  34.1055400 129.3703770  73.6690580  32.6646200 131.3404810  79.2048520
  33.3456310 131.6043180  79.8235920  32.3494250 130.5005680  79.5386530
  36.8570770 132.3872170  78.2921110  37.3648990 132.8853140  78.9326130
  37.3884010 131.6107370  78.1160470  35.1406870 127.0270730  82.5584530
  35.1425310 127.5443120  81.7530430  34.3111180 126.5500910  82.5354460
  41.5277960 137.1390040  74.0574430  40.9095230 137.6039490  73.4937150
  42.0401210 137.8317520  74.4743940  36.3909720 136.6665910  80.7358030
  36.0579100 137.2934830  81.3779100  36.5676400 137.1927790  79.9559700
  44.9043630 130.4810990  78.2034370  44.1999200 130.7695880  78.7837480
  45.2655790 131.2911100  77.8433930  34.8222200 128.7380690  80.5654980
  35.1639010 129.5822740  80.2708850  33.8838010 128.8864430  80.6820320
  35.6028820 138.6346710  82.5507210  36.2202820 139.3097790  82.2691660
  34.7421940 139.0434690  82.4594710  30.8961160 137.8246570  71.4314060
  30.5189140 138.3133670  70.6998960  31.1534230 138.4971850  72.0620590
  46.5206410 140.0986120  80.4661850  45.8369930 140.7685230  80.4578520
  47.0600700 140.2966770  79.7006710  47.9730550 129.9265780  78.5943580
  47.0255460 129.9604760  78.7259010  48.2980540 130.7404730  78.9792940
  38.5050090 126.2262960  76.8899570  38.8125070 125.6709850  76.1735070
  37.5750790 126.3607420  76.7072560  44.0565150 141.9430250  79.1807030
  44.0692310 141.5392540  78.3129290  43.5040370 142.7177540  79.0768460
  45.3510570 138.6646470  74.2697200  45.2406900 137.7220800  74.3946620
  45.3478820 139.0262110  75.1559960  43.4550590 136.8460090  80.5089640
  43.8719380 136.6320200  79.6743100  44.1790410 137.1032880  81.0798260
  44.3654700 132.0316630  81.5460750  43.9525880 132.8570340  81.8000740
  43.6330650 131.4461670  81.3537110  36.4987490 134.8176530  76.4079420
  36.0944490 134.1053780  75.9125320  36.5850610 134.4729770  77.2967460
  36.9669190 138.5044090  78.5718630  36.6697480 137.8989560  77.8926410
  37.9169010 138.5421400  78.4607990  35.2116110 131.5919740  80.1878460
  35.7630700 131.7015080  79.4131710  35.7259620 131.9657340  80.9033690
  45.0554800 142.0775960  82.2341730  44.5785360 142.8848150  82.0414340
  44.3716590 141.4254290  82.3867940  36.0587620 138.2425780  85.2226430
  35.1616150 138.4665750  85.4699830  36.0840490 138.3660720  84.2737830
  34.8858840 135.1139100  83.7983800  34.7466610 135.9861900  84.1671200
  34.0040200 134.7711910  83.6531740  41.2088220 140.0314970  75.1048930
  41.6484130 140.7739300  74.6904320  41.1475110 140.2741540  76.0287890
  36.6839190 141.0560800  86.0068950  36.6554620 141.4603750  85.1397380
  36.5204160 140.1271160  85.8440550  33.1992120 133.7121510  73.9086070
  33.0789720 134.4383600  73.2967340  32.8893010 132.9424420  73.4313980
  48.6354010 141.8387900  87.3033120  49.1113730 142.3170790  87.9822200
  49.2561170 141.7705390  86.5778620  30.8377490 136.8836650  79.7154710
  30.9157910 137.0185420  78.7710430  31.4519170 136.1752540  79.9082830
  32.0825120 138.5836840  76.1260890  31.6753200 138.7251430  75.2714490
  32.9738130 138.2997000  75.9232100  48.0387260 139.0300750  84.4633130
  48.1650320 138.7912630  83.5450310  48.0808640 138.1985290  84.9355210
  41.9004000 142.7328750  83.0327940  42.4148670 142.6436760  83.8350370
  41.0573080 143.0788450  83.3255850  43.8758400 143.0184090  72.4611940
  43.7159540 142.7287030  73.3593770  43.7105110 142.2424220  71.9257170
  36.3546780 142.7982620  74.2383560  36.1789260 141.8818160  74.0251360
  35.5002520 143.1569910  74.4781360  43.5784530 140.5271650  71.0209940
  42.8849690 140.5248940  70.3612220  44.3207390 140.1030970  70.5904110
  43.1434460 142.1534360  75.0958430  43.5991410 141.3723740  75.4097050
  43.4826980 142.8641180  75.6399610  30.8937010 137.9250820  82.2549170
  31.0568050 137.4556180  81.4368540  31.3589460 137.4174380  82.9198010
  35.6655780 127.0556580  77.2909740  35.2223930 127.8366120  76.9594260
  36.2240770 127.3786470  77.9980680  39.9525590 129.9225100  82.8945060
  39.4904960 130.1308120  83.7065000  39.5503700 129.1084450  82.5915730
  44.9530100 131.1434050  84.0241720  44.1023690 130.8439800  84.3450790
  44.7931890 131.3876060  83.1125540  42.0479810 132.6435800  86.1240510
  42.3733220 131.8099550  85.7842740  42.8360140 133.1664320  86.2718840
  37.7031680 127.6003910  79.1499340  38.0004010 128.5066740  79.0691360
  38.2517240 127.1122690  78.5358910  35.4570000 132.1790150  75.0190990
  35.2310920 131.9627320  75.9237610  34.6762530 132.6118610  74.6736960
  37.8969210 133.0775730  85.6851260  37.8012810 132.1370460  85.5351660
  38.7401190 133.2990800  85.2899330  41.2932630 130.8217060  75.6484920
  41.6862200 131.1389260  74.8353610  41.6549480 129.9428940  75.7629440
  33.0279750 129.4889400  83.8385040  32.6343140 130.3364610  84.0457820
  32.3398150 128.8515770  84.0293680  39.6024800 129.5724370  86.9081780
  38.9123120 129.3796570  87.5427870  40.3457100 129.8559010  87.4406080
  30.3296800 127.4117860  77.8715120  30.0409850 127.9820720  78.5840100
  31.0742560 126.9322310  78.2346350  30.5167030 131.3537980  69.0817840
  30.4341700 132.2968740  69.2232830  30.1650090 131.2112890  68.2030190
  41.8787770 133.4122810  79.7435700  41.1468890 133.9209620  80.0925800
  41.4812110 132.5952790  79.4424480  38.3165160 130.0877010  78.1488190
  38.3201220 129.6466960  77.2992730  39.2116280 130.4094340  78.2560010
  34.1667540 129.9703500  77.1082400  33.8267590 130.4478730  77.8649450
  33.4044860 129.5168620  76.7483500  42.3413680 128.8656490  79.1558640
  42.3586420 129.3165140  80.0000490  42.0929260 127.9662130  79.3692080
  32.4675990 137.3002250  84.4144980  32.0830780 136.6595920  85.0127940
  32.7788180 138.0038370  84.9839710  38.6173130 134.1478790  79.8953600
  38.9843260 133.6737360  80.6414940  38.4278190 135.0220360  80.2361940
  31.4813620 128.8922480  76.0247070  31.1960540 128.5278150  76.8625690
  31.4192480 128.1602940  75.4110210  36.4072500 133.1887430  82.2137810
  36.1029570 134.0679410  82.4388170  37.3618960 133.2487220  82.2495250
  34.9354290 137.3948420  72.8104660  34.1616550 136.8546040  72.6503380
  35.6648920 136.8755030  72.4722420  41.0761070 136.4622840  84.4900050
  41.0098380 135.5418510  84.2357640  40.4466210 136.5598280  85.2044690
  34.9791690 137.0628800  76.4483470  35.4970360 136.2597060  76.3940360
  34.5275710 137.0007940  77.2900300  39.8661190 138.3295080  71.7210770
  40.2076890 139.0737310  71.2254090  39.0373900 138.6426200  72.0835600
  32.4636230 134.0290170  83.3609170  32.1051170 134.6944020  83.9482510
  32.1690790 133.1973720  83.7321790  35.6649350 134.4874410  86.2448720
  35.3649490 134.6331590  85.3476540  36.4360590 133.9279700  86.1522110
  41.0077800 139.2843410  84.2403850  41.0222340 138.3524370  84.0222760
  40.3002900 139.3703170  84.8793620  47.2189010 135.9250750  83.5872430
  46.4937200 136.5179530  83.3901820  47.7464470 135.9174290  82.7885800
  47.1702120 140.3225490  73.2384590  46.5278280 139.6681110  73.5128310
  46.7832780 140.7280580  72.4625260  42.7488600 137.6510920  77.0856280
  43.1012420 137.0539050  76.4257650  41.8650930 137.3255150  77.2564530
  38.8351880 138.4108610  74.4926690  39.5223010 138.9577820  74.8734280
  38.0484300 138.9549340  74.5276300  30.9744280 134.0281430  69.9843770
  31.8439130 134.3106230  70.2679690  30.4834600 134.8417300  69.8692580
  38.1379090 135.4154640  74.1052050  38.5941870 136.2259890  74.3312240
  37.7867300 135.0977780  74.9370540  40.4411700 140.9260980  81.3344350
  41.0853920 141.1320360  82.0117770  40.8041140 140.1649380  80.8815200
  34.0390870 125.7592290  74.5774570  33.9105500 125.7510190  75.5259490
  33.2152890 126.0975380  74.2265580  41.7143780 138.9293330  80.0521800
  42.3566010 138.2286490  80.1653970  42.2393130 139.7091770  79.8718690
  45.5599500 139.2141950  69.7760940  45.3337080 138.4972390  70.3685580
  45.1695700 138.9654390  68.9382690  43.4881400 139.7288230  83.2557860
  43.8237640 140.3154920  83.9335780  42.5681740 139.5980940  83.4855650
  31.3415530 143.2408810  70.5505400  31.7013170 143.8398150  69.8962670
  31.2007870 143.7868700  71.3240430  31.0384800 127.5183410  84.0381270
  30.3243320 127.7180330  84.6433880  31.4579840 126.7422980  84.4096070
  45.1415750 137.1313890  71.4375100  44.8537450 137.5926580  72.2252980
  45.9367920 136.6711660  71.7059320  31.3257390 141.5063670  85.0247800
  31.4348510 140.5658410  84.8843190  30.6737950 141.7718420  84.3761530
  39.3169980 139.7779560  86.4245920  38.9966850 139.0588800  86.9691610
  38.6428340 140.4534630  86.4981980  37.3584150 140.6240010  71.3679070
  37.3494250 141.3569700  70.7523580  36.4382510 140.3771590  71.4606030
  32.9590790 135.8454900  72.1125830  32.3518740 136.5853800  72.1221130
  33.4340140 135.9354260  71.2864030  42.5323580 130.0105720  81.7882720
  42.9004400 129.1900930  82.1162290  41.6721780 130.0707610  82.2038370
  40.3443750 140.6868250  70.0304260  40.4455730 140.4832240  69.1006240
  39.4445490 140.4326530  70.2352040  37.8669640 131.2448610  74.0128160
  37.1585790 131.7134950  74.4541770  38.1514120 130.5870620  74.6473350
  39.4925570 132.6645310  82.0120690  39.9910820 133.1391130  82.6772540
  39.6348520 131.7408830  82.2190720  41.8985070 127.9699270  75.4523950
  41.7752850 127.9885400  74.5033460  42.8469630 128.0178210  75.5722350
  38.9861860 143.2054570  74.7251930  39.2403360 143.1675960  73.8031300
  38.0374340 143.0787900  74.7180180  34.9696080 135.8066050  69.8614400
  35.7359350 135.6947410  70.4239830  35.0470770 135.1104020  69.2091170
  33.6642840 133.2391120  70.5447290  33.7446430 132.2918630  70.6564690
  34.5562590 133.5698000  70.6507950  46.9940020 141.2955300  77.9764700
  47.1187440 142.1186470  78.4488510  47.8605580 141.0846030  77.6288850
  34.4657550 143.3886510  77.6481830  35.2020030 142.8401970  77.9190400
  34.8498470 144.2542520  77.5087820  31.3503030 139.4560080  73.5223340
  30.4242810 139.6981220  73.5128750  31.8159460 140.2834340  73.4008090
  33.4715830 142.5732580  86.8367410  34.2728560 142.8944630  87.2502810
  32.9567650 142.2128160  87.5587320  37.5759860 142.5616820  69.4707400
  38.3688470 142.8505650  69.0189190  37.0564210 142.1308990  68.7919880
  42.3080460 138.6812450  86.7842820  41.7018620 138.7044050  86.0438570
  42.0034570 137.9495490  87.3210070  43.7380830 142.4092740  85.3952230
  44.6902580 142.3250760  85.3452470  43.5909050 143.0734450  86.0686020
  46.6290030 141.7886950  70.8944140  46.3431540 141.3752090  70.0798320
  46.4309580 142.7174660  70.7744660  31.1913640 135.0606040  85.7803460
  31.6952660 134.4813320  86.3519690  30.4521060 135.3446270  86.3179830
  38.0937260 137.7820230  69.3349750  37.9887900 137.1672580  70.0611130
  37.9261480 137.2586120  68.5512760  38.2451580 136.4677030  85.3138980
  37.4797250 137.0362030  85.2293650  38.4267540 136.1753240  84.4207210
  41.3339990 136.8440260  69.9391740  40.7850090 137.2909560  70.5834480
  41.9559250 136.3389510  70.4629410  45.3874930 138.1982360  85.8714000
  46.1284400 138.5358120  85.3681460  44.6247610 138.3674420  85.3183770
  33.2236720 133.2035630  86.6753530  33.2642060 132.9049500  87.5838760
  34.0782220 133.6043240  86.5161050  37.0015110 135.8031180  71.8357040
  37.4231530 135.6371050  72.6788430  37.1265950 134.9931410  71.3412180
  35.1642530 131.7827730  84.6428020  34.6338990 131.2918680  84.0151360
  35.8330600 132.2111930  84.1085950  44.0620590 136.2497190  84.4069210
  44.4761610 136.4042270  85.2559630  43.1271590 136.3752410  84.5694990
  44.5342760 133.5893350  86.4108360  45.1163530 132.8345670  86.3228840
  44.7104530 134.1200790  85.6339840  38.4176270 127.3063340  81.7552700
  37.9693570 127.3287600  80.9098250  37.7841470 126.9082360  82.3523000
  38.8235820 136.2017670  82.3765140  39.2423930 137.0450400  82.2041380
  37.9044450 136.3389710  82.1471920  41.1599720 133.9333850  83.7602980
  41.2795930 133.3374990  84.4997820  42.0193720 133.9703540  83.3404280
  43.4987620 134.4871040  82.3365490  42.9722840 135.0113660  81.7330630
  43.8418960 135.1198430  82.9675220  35.8974010 131.8764410  68.7815200
  35.6963070 131.0131770  69.1428540  35.7266060 131.7897770  67.8436800
  36.6743240 142.5070680  83.4922870  36.1364330 143.2316740  83.1731570
  36.9277200 142.0301020  82.7020210  37.9268490 130.4755200  85.0178800
  38.5168180 130.1671050  85.7056620  37.1088730 130.0034950  85.1738700
  42.7461920 130.0921010  85.2511820  42.0577440 129.4302550  85.1861810
  43.4667940 129.6459280  85.6960280  34.6956810 128.9765030  68.7693080
  34.9982710 128.9832460  67.8612230  35.4351400 128.6262890  69.2660740
  39.5305450 143.7421890  83.7509520  39.4564150 144.6457030  84.0581890
  38.6284290 143.4233790  83.7231590  40.0790780 142.9080400  71.3735880
  40.9741570 143.2465370  71.3954640  40.1108410 142.1859810  70.7460160
  33.7186940 138.2807450  69.6022880  34.1561810 138.8237120  70.2580460
  34.2034670 137.4554400  69.6119220  30.9332740 141.0696480  77.0543140
  31.2635750 140.2017540  76.8221780  31.3623740 141.2755000  77.8848100
  35.5294660 139.4005490  74.7145110  35.2290200 139.2770460  75.6149020
  35.4232150 138.5414080  74.3060840  31.4222950 141.9367070  79.7924770
  30.9853940 142.1167870  80.6248920  31.9900630 142.6941690  79.6506490
  47.0585130 141.4384070  84.0802080  46.4587120 141.4976630  83.3366000
  47.1879030 140.4989050  84.2098930  48.2986580 139.1801890  69.4171790
  47.4679540 139.2478540  69.8879020  48.4758410 140.0706010  69.1138650
  47.7543040 135.9249370  71.9205990  48.5161950 136.4946020  72.0265680
  47.7697410 135.3576570  72.6914300  31.2547380 134.4487300  76.1513650
  30.5996220 134.1798940  75.5073350  32.0925330 134.3391780  75.7015630
  45.7436770 138.1636050  82.1778240  44.9296610 138.5933210  82.4404030
  46.1510970 138.7754460  81.5647290  47.8062210 136.2183740  69.0778510
  48.0811050 137.1262620  68.9497730  47.6172950 136.1546270  70.0140500
  32.2923310 134.8339870  80.6916990  32.6596350 134.7467270  81.5713010
  31.7234130 134.0706420  80.5923850  47.0927170 133.3024250  83.7047460
  46.8613260 133.0737000  82.8045410  47.3531720 134.2223800  83.6592350
  31.8439310 131.7448960  84.5975410  30.9495360 131.7115720  84.9369120
  32.3836860 131.9435750  85.3626660  45.5315240 128.5280680  86.4827160
  46.4085420 128.5364080  86.8661160  45.5436080 127.7911520  85.8719510
  30.4685460 131.6586230  72.0938980  29.5649540 131.9216430  71.9190640
  30.9526080 131.9297400  71.3138940  47.1568230 132.4650090  80.8934730
  46.2070940 132.4313630  81.0079720  47.3381240 133.3750200  80.6584500
  33.0112670 130.7151770  70.0033360  33.7204370 130.2934990  69.5180640
  32.2952610 130.7827000  69.3716710  32.6586830 126.7691100  69.0436010
  33.3814960 127.3100040  69.3617230  32.9311350 126.4954520  68.1677550
  32.3479020 126.0197290  78.9458630  32.9955210 125.4694670  78.5053790
  32.7680860 126.2740440  79.7674440  45.8012820 142.9154650  75.7046510
  46.3971890 142.5939220  75.0280930  46.0590970 142.4426470  76.4959780
  32.1011020 126.1752960  81.6883950  31.7525840 126.6316780  82.4542130
  31.7698720 125.2810090  81.7706380  33.7075390 139.3472560  85.8537140
  33.6645020 138.9765470  86.7351600  33.8386400 140.2850130  85.9938960
  37.4081420 140.9032150  81.4546860  37.1672780 141.1706710  80.5677380
  38.3484060 141.0737880  81.5097720  42.2510400 127.0234900  84.8495660
  42.8650810 127.3414190  84.1876740  42.7959960 126.5383490  85.4691520
  48.6685580 142.9226530  82.2557500  48.1743860 143.3195400  81.5384630
  48.0598870 142.2975740  82.6494780  32.7731660 125.7029160  84.9634720
  33.3214650 125.5217210  84.2000830  32.8386970 124.9123270  85.4991030
  33.5463420 142.2934810  82.9734920  32.9523740 142.1619510  83.7124960
  33.5387260 141.4572950  82.5077020  46.3525030 143.5649950  79.5344240
  45.8928000 144.3165760  79.1602260  45.7237490 142.8456420  79.4759040
  33.1775650 139.6593190  81.9242960  32.4509710 139.0398480  81.8568910
  33.2384800 140.0533800  81.0541040  36.7820750 141.8738190  78.7092370
  37.2985770 141.2625550  78.1840630  37.4318130 142.3766970  79.2003380
  39.5216250 142.7646680  79.5361350  39.8094060 142.5100980  78.6594360
  40.0339470 142.2124040  80.1266920  40.7393260 126.5036880  80.1157860
  39.9565050 126.9782380  80.3954620  40.4456190 125.5991710  80.0071040
  47.1552900 126.8375220  76.1715770  47.0941300 125.8936440  76.0246790
  47.9344930 126.9455310  76.7169230  31.4605650 142.9767580  75.1339720
  31.2927690 142.3438260  75.8321610  30.5940160 143.1826980  74.7833910
  32.0833670 126.8084360  72.6371580  32.8413030 126.9213240  72.0635610
  31.6210840 127.6453560  72.5915010  43.1272460 125.5866080  76.8656960
  43.7301830 126.1586290  77.3405480  42.3865450 126.1505520  76.6430860
  33.0668350 141.6700810  72.5789860  32.5415970 142.0508840  71.8751820
  32.9912930 142.2951580  73.2999570  34.4558820 127.3348410  71.1773550
  34.9851580 126.5478210  71.0481500  35.0887140 128.0139600  71.4109080
  39.5888610 143.6862780  86.9029550  40.5155920 143.4507050  86.9465510
  39.5739040 144.5134780  86.4215580  47.8233670 143.2288350  73.9003800
  47.9985860 142.5426090  73.2564720  47.1255240 143.7535400  73.5080470
  35.6661320 143.6183190  71.4539110  36.3980140 143.3342470  70.9063000
  35.9254990 143.3796470  72.3438490  34.8276110 139.7347920  71.4585440
  34.1984990 140.2033020  72.0071270  34.9423940 138.8897140  71.8931630
  43.3767680 125.7661110  87.2451900  43.2633130 126.0855720  88.1403420
  44.1937420 126.1673620  86.9489180  46.1566170 142.9132640  86.7270590
  46.9491490 142.4181870  86.5196550  46.4499320 143.5922780  87.3346200
  42.2825830 133.7853580  57.6086640  42.2019880 132.8708190  57.3378350
  41.8690250 134.2820650  56.9026350  40.4143870 135.5632600  59.4895910
  39.6385970 135.0833040  59.7794480  41.0656800 134.8838250  59.3152070
  34.4309700 135.8752410  60.3671670  33.5994580 135.6201120  60.7668180
  35.0390680 135.9463180  61.1029590  44.4351300 139.9692790  58.2695040
  43.9732830 139.1980030  58.5982210  45.2476850 139.9958860  58.7747490
  34.4110960 139.9092500  60.5629690  34.7139000 139.0190240  60.3839910
  35.1554550 140.4662720  60.3351940  32.8401650 130.8354300  54.1514060
  31.9518350 131.1770270  54.0493940  33.1242840 130.6354620  53.2594890
  30.8034660 133.4359950  60.0353760  31.3750770 132.6682150  60.0357400
  30.8036200 133.7348710  59.1260370  40.6614610 142.2550800  57.8899030
  40.0426050 142.7108300  57.3193470  41.5166390 142.4102260  57.4888730
  39.8552860 138.2389790  59.4966070  39.7861140 137.2979730  59.3355200
  40.6172720 138.3291200  60.0688640  32.0459530 128.8444310  61.8222690
  31.8662370 127.9470060  62.1025450  31.6439610 129.3916180  62.4969640
  35.0163040 129.4185800  55.1852440  35.1229790 130.3189530  55.4921200
  34.1055400 129.3703770  54.8947090  32.6646200 131.3404810  60.4305030
  33.3456310 131.6043180  61.0492430  32.3494250 130.5005680  60.7643040
  36.8570770 132.3872170  59.5177620  37.3648990 132.8853140  60.1582640
  37.3884010 131.6107370  59.3416980  48.9581700 130.5577360  63.2206970
  48.2533870 130.9459070  62.7022080  49.2239620 131.2527650  63.8227900
  35.1406870 127.0270730  63.7841040  35.1425310 127.5443120  62.9786940
  34.3111180 126.5500910  63.7610970  41.5277960 137.1390040  55.2830940
  40.9095230 137.6039490  54.7193660  42.0401210 137.8317520  55.7000450
  36.3909720 136.6665910  61.9614540  36.0579100 137.2934830  62.6035610
  36.5676400 137.1927790  61.1816210  34.8222200 128.7380690  61.7911490
  35.1639010 129.5822740  61.4965360  33.8838010 128.8864430  61.9076830
  35.6028820 138.6346710  63.7763720  36.2202820 139.3097790  63.4948170
  34.7421940 139.0434690  63.6851220  30.8961160 137.8246570  52.6570570
  30.5189140 138.3133670  51.9255470  31.1534230 138.4971850  53.2877100
  46.5206410 140.0986120  61.6918360  45.8369930 140.7685230  61.6835030
  47.0600700 140.2966770  60.9263220  44.0565150 141.9430250  60.4063540
  44.0692310 141.5392540  59.5385800  43.5040370 142.7177540  60.3024970
  45.3510570 138.6646470  55.4953710  45.2406900 137.7220800  55.6203130
  45.3478820 139.0262110  56.3816470  43.4550590 136.8460090  61.7346150
  43.8719380 136.6320200  60.8999610  44.1790410 137.1032880  62.3054770
  40.8930850 134.2911790  54.8516200  39.9660130 134.2249170  55.0804670
  41.0455670 135.2291920  54.7371440  40.8799930 130.5628790  51.8483360
  39.9403600 130.7242750  51.9335820  41.1983190 131.2814470  51.3019350
  47.4012690 135.2447310  61.8262390  46.5731320 135.3140400  61.3512520
  47.9963170 135.8301620  61.3578220  44.9228140 135.8532090  55.3551450
  44.3040560 135.5151640  54.7077750  44.9052590 135.2091850  56.0630640
  44.3654700 132.0316630  62.7717260  43.9525880 132.8570340  63.0257250
  43.6330650 131.4461670  62.5793620  36.4987490 134.8176530  57.6335930
  36.0944490 134.1053780  57.1381830  36.5850610 134.4729770  58.5223970
  36.9669190 138.5044090  59.7975140  36.6697480 137.8989560  59.1182920
  37.9169010 138.5421400  59.6864500  35.2116110 131.5919740  61.4134970
  35.7630700 131.7015080  60.6388220  35.7259620 131.9657340  62.1290200
  45.0554800 142.0775960  63.4598240  44.5785360 142.8848150  63.2670850
  44.3716590 141.4254290  63.6124450  36.0587620 138.2425780  66.4482940
  35.1616150 138.4665750  66.6956340  36.0840490 138.3660720  65.4994340
  43.0992840 135.0918900  52.3624200  43.5386120 134.2541330  52.2162020
  43.8121260 135.7248300  52.4488340  34.8858840 135.1139100  65.0240310
  34.7466610 135.9861900  65.3927710  34.0040200 134.7711910  64.8788250
  41.2088220 140.0314970  56.3305440  41.6484130 140.7739300  55.9160830
  41.1475110 140.2741540  57.2544400  36.6839190 141.0560800  67.2325460
  36.6554620 141.4603750  66.3653890  36.5204160 140.1271160  67.0697060
  33.1992120 133.7121510  55.1342580  33.0789720 134.4383600  54.5223850
  32.8893010 132.9424420  54.6570490  48.6354010 141.8387900  68.5289630
  49.1113730 142.3170790  69.2078710  49.2561170 141.7705390  67.8035130
  30.8377490 136.8836650  60.9411220  30.9157910 137.0185420  59.9966940
  31.4519170 136.1752540  61.1339340  32.0825120 138.5836840  57.3517400
  31.6753200 138.7251430  56.4971000  32.9738130 138.2997000  57.1488610
  48.0387260 139.0300750  65.6889640  48.1650320 138.7912630  64.7706820
  48.0808640 138.1985290  66.1611720  41.9004000 142.7328750  64.2584450
  42.4148670 142.6436760  65.0606880  41.0573080 143.0788450  64.5512360
  43.8758400 143.0184090  53.6868450  43.7159540 142.7287030  54.5850280
  43.7105110 142.2424220  53.1513680  36.3546780 142.7982620  55.4640070
  36.1789260 141.8818160  55.2507870  35.5002520 143.1569910  55.7037870
  43.5784530 140.5271650  52.2466450  42.8849690 140.5248940  51.5868730
  44.3207390 140.1030970  51.8160620  43.1434460 142.1534360  56.3214940
  43.5991410 141.3723740  56.6353560  43.4826980 142.8641180  56.8656120
  47.8911270 131.0833210  66.6539380  47.2755540 131.5912880  66.1254840
  47.5707690 130.1831540  66.5965320  30.8937010 137.9250820  63.4805680
  31.0568050 137.4556180  62.6625050  31.3589460 137.4174380  64.1454520
  35.6655780 127.0556580  58.5166250  35.2223930 127.8366120  58.1850770
  36.2240770 127.3786470  59.2237190  39.9525590 129.9225100  64.1201570
  39.4904960 130.1308120  64.9321510  39.5503700 129.1084450  63.8172240
  44.9530100 131.1434050  65.2498230  44.1023690 130.8439800  65.5707300
  44.7931890 131.3876060  64.3382050  38.7814600 126.6767280  53.3972080
  38.1568780 126.6727150  54.1225390  38.6944720 125.8098240  53.0008050
  37.7031680 127.6003910  60.3755850  38.0004010 128.5066740  60.2947870
  38.2517240 127.1122690  59.7615420  35.4570000 132.1790150  56.2447500
  35.2310920 131.9627320  57.1494120  34.6762530 132.6118610  55.8993470
  42.6867760 132.1853520  54.8438150  42.0876650 132.9089320  54.6601770
  43.2347370 132.1230300  54.0614600  37.8969210 133.0775730  66.9107770
  37.8012810 132.1370460  66.7608170  38.7401190 133.2990800  66.5155840
  33.0279750 129.4889400  65.0641550  32.6343140 130.3364610  65.2714330
  32.3398150 128.8515770  65.2550190  30.3296800 127.4117860  59.0971630
  30.0409850 127.9820720  59.8096610  31.0742560 126.9322310  59.4602860
  30.5167030 131.3537980  50.3074350  30.4341700 132.2968740  50.4489340
  30.1650090 131.2112890  49.4286700  41.8787770 133.4122810  60.9692210
  41.1468890 133.9209620  61.3182310  41.4812110 132.5952790  60.6680990
  34.1667540 129.9703500  58.3338910  33.8267590 130.4478730  59.0905960
  33.4044860 129.5168620  57.9740010  38.3785310 131.0889090  52.3651460
  38.4998130 131.0475570  53.3137280  37.9933820 131.9513240  52.2098190
  37.3906810 133.3990230  51.7634760  36.8223710 132.9508480  51.1370670
  38.0995810 133.7583010  51.2299910  45.7684430 126.2788670  66.2201530
  46.0930200 125.5478330  66.7459510  45.8040940 125.9602310  65.3182520
  32.4675990 137.3002250  65.6401490  32.0830780 136.6595920  66.2384450
  32.7788180 138.0038370  66.2096220  38.6173130 134.1478790  61.1210110
  38.9843260 133.6737360  61.8671450  38.4278190 135.0220360  61.4618450
  31.4813620 128.8922480  57.2503580  31.1960540 128.5278150  58.0882200
  31.4192480 128.1602940  56.6366720  36.4072500 133.1887430  63.4394320
  36.1029570 134.0679410  63.6644680  37.3618960 133.2487220  63.4751760
  34.9354290 137.3948420  54.0361170  34.1616550 136.8546040  53.8759890
  35.6648920 136.8755030  53.6978930  45.6942270 136.3913780  59.8287560
  46.4141390 136.8869070  59.4383670  45.4924090 135.7131670  59.1841430
  41.0761070 136.4622840  65.7156560  41.0098380 135.5418510  65.4614150
  40.4466210 136.5598280  66.4301200  43.8700600 132.1571390  52.2679110
  44.7580220 132.4688620  52.0930450  43.8405690 131.2843640  51.8759690
  34.9791690 137.0628800  57.6739980  35.4970360 136.2597060  57.6196870
  34.5275710 137.0007940  58.5156810  39.8661190 138.3295080  52.9467280
  40.2076890 139.0737310  52.4510600  39.0373900 138.6426200  53.3092110
  32.4636230 134.0290170  64.5865680  32.1051170 134.6944020  65.1739020
  32.1690790 133.1973720  64.9578300  35.6649350 134.4874410  67.4705230
  35.3649490 134.6331590  66.5733050  36.4360590 133.9279700  67.3778620
  41.0077800 139.2843410  65.4660360  41.0222340 138.3524370  65.2479270
  40.3002900 139.3703170  66.1050130  46.1414870 133.4683230  51.7358970
  46.0578590 133.8997450  50.8855410  46.8609060 133.9281580  52.1685790
  47.2189010 135.9250750  64.8128940  46.4937200 136.5179530  64.6158330
  47.7464470 135.9174290  64.0142310  47.1702120 140.3225490  54.4641100
  46.5278280 139.6681110  54.7384820  46.7832780 140.7280580  53.6881770
  42.7488600 137.6510920  58.3112790  43.1012420 137.0539050  57.6514160
  41.8650930 137.3255150  58.4821040  38.8351880 138.4108610  55.7183200
  39.5223010 138.9577820  56.0990790  38.0484300 138.9549340  55.7532810
  30.9744280 134.0281430  51.2100280  31.8439130 134.3106230  51.4936200
  30.4834600 134.8417300  51.0949090  38.1379090 135.4154640  55.3308560
  38.5941870 136.2259890  55.5568750  37.7867300 135.0977780  56.1627050
  40.4411700 140.9260980  62.5600860  41.0853920 141.1320360  63.2374280
  40.8041140 140.1649380  62.1071710  34.0390870 125.7592290  55.8031080
  33.9105500 125.7510190  56.7516000  33.2152890 126.0975380  55.4522090
  41.7143780 138.9293330  61.2778310  42.3566010 138.2286490  61.3910480
  42.2393130 139.7091770  61.0975200  45.5599500 139.2141950  51.0017450
  45.3337080 138.4972390  51.5942090  45.1695700 138.9654390  50.1639200
  43.4881400 139.7288230  64.4814370  43.8237640 140.3154920  65.1592290
  42.5681740 139.5980940  64.7112160  31.3415530 143.2408810  51.7761910
  31.7013170 143.8398150  51.1219180  31.2007870 143.7868700  52.5496940
  31.0384800 127.5183410  65.2637780  30.3243320 127.7180330  65.8690390
  31.4579840 126.7422980  65.6352580  45.1415750 137.1313890  52.6631610
  44.8537450 137.5926580  53.4509490  45.9367920 136.6711660  52.9315830
  31.3257390 141.5063670  66.2504310  31.4348510 140.5658410  66.1099700
  30.6737950 141.7718420  65.6018040  39.3169980 139.7779560  67.6502430
  38.9966850 139.0588800  68.1948120  38.6428340 140.4534630  67.7238490
  37.3584150 140.6240010  52.5935580  37.3494250 141.3569700  51.9780090
  36.4382510 140.3771590  52.6862540  32.9590790 135.8454900  53.3382340
  32.3518740 136.5853800  53.3477640  33.4340140 135.9354260  52.5120540
  42.5323580 130.0105720  63.0139230  42.9004400 129.1900930  63.3418800
  41.6721780 130.0707610  63.4294880  40.3443750 140.6868250  51.2560770
  40.4455730 140.4832240  50.3262750  39.4445490 140.4326530  51.4608550
  37.8669640 131.2448610  55.2384670  37.1585790 131.7134950  55.6798280
  38.1514120 130.5870620  55.8729860  39.4925570 132.6645310  63.2377200
  39.9910820 133.1391130  63.9029050  39.6348520 131.7408830  63.4447230
  38.9861860 143.2054570  55.9508440  39.2403360 143.1675960  55.0287810
  38.0374340 143.0787900  55.9436690  36.0704660 129.5533690  52.6135380
  36.9195190 129.9903840  52.5475570  35.7035930 129.8653950  53.4407440
  46.6992430 128.8813270  64.0805590  46.1966030 129.6218670  64.4199400
  47.5149090 129.2697270  63.7642380  44.9914440 134.1246450  57.5266950
  44.0504580 134.1396680  57.7014640  45.3058510 133.3382410  57.9727250
  34.9696080 135.8066050  51.0870910  35.7359350 135.6947410  51.6496340
  35.0470770 135.1104020  50.4347680  33.6642840 133.2391120  51.7703800
  33.7446430 132.2918630  51.8821200  34.5562590 133.5698000  51.8764460
  46.9940020 141.2955300  59.2021210  47.1187440 142.1186470  59.6745020
  47.8605580 141.0846030  58.8545360  34.4657550 143.3886510  58.8738340
  35.2020030 142.8401970  59.1446910  34.8498470 144.2542520  58.7344330
  31.3503030 139.4560080  54.7479850  30.4242810 139.6981220  54.7385260
  31.8159460 140.2834340  54.6264600  33.4715830 142.5732580  68.0623920
  34.2728560 142.8944630  68.4759320  32.9567650 142.2128160  68.7843830
  37.5759860 142.5616820  50.6963910  38.3688470 142.8505650  50.2445700
  37.0564210 142.1308990  50.0176390  42.3080460 138.6812450  68.0099330
  41.7018620 138.7044050  67.2695080  42.0034570 137.9495490  68.5466580
  43.7380830 142.4092740  66.6208740  44.6902580 142.3250760  66.5708980
  43.5909050 143.0734450  67.2942530  46.6290030 141.7886950  52.1200650
  46.3431540 141.3752090  51.3054830  46.4309580 142.7174660  52.0001170
  31.1913640 135.0606040  67.0059970  31.6952660 134.4813320  67.5776200
  30.4521060 135.3446270  67.5436340  38.0937260 137.7820230  50.5606260
  37.9887900 137.1672580  51.2867640  37.9261480 137.2586120  49.7769270
  38.2451580 136.4677030  66.5395490  37.4797250 137.0362030  66.4550160
  38.4267540 136.1753240  65.6463720  41.3339990 136.8440260  51.1648250
  40.7850090 137.2909560  51.8090990  41.9559250 136.3389510  51.6885920
  45.3874930 138.1982360  67.0970510  46.1284400 138.5358120  66.5937970
  44.6247610 138.3674420  66.5440280  33.2236720 133.2035630  67.9010040
  33.2642060 132.9049500  68.8095270  34.0782220 133.6043240  67.7417560
  37.0015110 135.8031180  53.0613550  37.4231530 135.6371050  53.9044940
  37.1265950 134.9931410  52.5668690  35.1642530 131.7827730  65.8684530
  34.6338990 131.2918680  65.2407870  35.8330600 132.2111930  65.3342460
  39.5142750 134.8268790  50.3090650  40.0348410 134.1117810  49.9431800
  40.1611150 135.4654660  50.6091160  44.0620590 136.2497190  65.6325720
  44.4761610 136.4042270  66.4816140  43.1271590 136.3752410  65.7951500
  44.5342760 133.5893350  67.6364870  45.1163530 132.8345670  67.5485350
  44.7104530 134.1200790  66.8596350  35.6514830 128.7490100  65.9481820
  35.5571700 128.1310850  65.2232690  35.0712220 129.4756390  65.7211730
  38.4176270 127.3063340  62.9809210  37.9693570 127.3287600  62.1354760
  37.7841470 126.9082360  63.5779510  38.8235820 136.2017670  63.6021650
  39.2423930 137.0450400  63.4297890  37.9044450 136.3389710  63.3728430
  41.1599720 133.9333850  64.9859490  41.2795930 133.3374990  65.7254330
  42.0193720 133.9703540  64.5660790  43.4987620 134.4871040  63.5622000
  42.9722840 135.0113660  62.9587140  43.8418960 135.1198430  64.1931730
  35.8974010 131.8764410  50.0071710  35.6963070 131.0131770  50.3685050
  35.7266060 131.7897770  49.0693310  36.6743240 142.5070680  64.7179380
  36.1364330 143.2316740  64.3988080  36.9277200 142.0301020  63.9276720
  37.9268490 130.4755200  66.2435310  38.5168180 130.1671050  66.9313130
  37.1088730 130.0034950  66.3995210  42.7461920 130.0921010  66.4768330
  42.0577440 129.4302550  66.4118320  43.4667940 129.6459280  66.9216790
  34.6956810 128.9765030  49.9949590  34.9982710 128.9832460  49.0868740
  35.4351400 128.6262890  50.4917250  39.5305450 143.7421890  64.9766030
  39.4564150 144.6457030  65.2838400  38.6284290 143.4233790  64.9488100
  37.9141740 127.9199650  50.9805790  37.5663740 127.2423640  50.4008240
  38.1154510 127.4589160  51.7949180  40.0790780 142.9080400  52.5992390
  40.9741570 143.2465370  52.6211150  40.1108410 142.1859810  51.9716670
  33.7186940 138.2807450  50.8279390  34.1561810 138.8237120  51.4836970
  34.2034670 137.4554400  50.8375730  30.9332740 141.0696480  58.2799650
  31.2635750 140.2017540  58.0478290  31.3623740 141.2755000  59.1104610
  35.5294660 139.4005490  55.9401620  35.2290200 139.2770460  56.8405530
  35.4232150 138.5414080  55.5317350  31.4222950 141.9367070  61.0181280
  30.9853940 142.1167870  61.8505430  31.9900630 142.6941690  60.8763000
  47.0585130 141.4384070  65.3058590  46.4587120 141.4976630  64.5622510
  47.1879030 140.4989050  65.4355440  48.2986580 139.1801890  50.6428300
  47.4679540 139.2478540  51.1135530  48.4758410 140.0706010  50.3395160
  47.7543040 135.9249370  53.1462500  48.5161950 136.4946020  53.2522190
  47.7697410 135.3576570  53.9170810  31.2547380 134.4487300  57.3770160
  30.5996220 134.1798940  56.7329860  32.0925330 134.3391780  56.9272140
  48.7603010 136.7799470  57.9904430  49.1311840 135.9966790  57.5840400
  49.4004940 137.4688570  57.8121730  45.7436770 138.1636050  63.4034750
  44.9296610 138.5933210  63.6660540  46.1510970 138.7754460  62.7903800
  47.8062210 136.2183740  50.3035020  48.0811050 137.1262620  50.1754240
  47.6172950 136.1546270  51.2397010  47.7027550 134.1552730  55.2964450
  47.3271150 133.3880660  54.8645740  46.9730670 134.5375430  55.7839380
  32.2923310 134.8339870  61.9173500  32.6596350 134.7467270  62.7969520
  31.7234130 134.0706420  61.8180360  47.0927170 133.3024250  64.9303970
  46.8613260 133.0737000  64.0301920  47.3531720 134.2223800  64.8848860
  31.8439310 131.7448960  65.8231920  30.9495360 131.7115720  66.1625630
  32.3836860 131.9435750  66.5883170  30.4685460 131.6586230  53.3195490
  29.5649540 131.9216430  53.1447150  30.9526080 131.9297400  52.5395450
  47.1568230 132.4650090  62.1191240  46.2070940 132.4313630  62.2336230
  47.3381240 133.3750200  61.8841010  33.0112670 130.7151770  51.2289870
  33.7204370 130.2934990  50.7437150  32.2952610 130.7827000  50.5973220
  32.6586830 126.7691100  50.2692520  33.3814960 127.3100040  50.5873740
  32.9311350 126.4954520  49.3934060  32.3479020 126.0197290  60.1715140
  32.9955210 125.4694670  59.7310300  32.7680860 126.2740440  60.9930950
  46.2431360 126.2138650  63.5284780  46.8803580 126.8272790  63.8943970
  46.3906250 126.2499310  62.5834010  45.8012820 142.9154650  56.9303020
  46.3971890 142.5939220  56.2537440  46.0590970 142.4426470  57.7216290
  32.1011020 126.1752960  62.9140460  31.7525840 126.6316780  63.6798640
  31.7698720 125.2810090  62.9962890  33.7075390 139.3472560  67.0793650
  33.6645020 138.9765470  67.9608110  33.8386400 140.2850130  67.2195470
  37.4081420 140.9032150  62.6803370  37.1672780 141.1706710  61.7933890
  38.3484060 141.0737880  62.7354230  42.2510400 127.0234900  66.0752170
  42.8650810 127.3414190  65.4133250  42.7959960 126.5383490  66.6948030
  48.6685580 142.9226530  63.4814010  48.1743860 143.3195400  62.7641140
  48.0598870 142.2975740  63.8751290  32.7731660 125.7029160  66.1891230
  33.3214650 125.5217210  65.4257340  32.8386970 124.9123270  66.7247540
  33.5463420 142.2934810  64.1991430  32.9523740 142.1619510  64.9381470
  33.5387260 141.4572950  63.7333530  42.9918440 125.5867040  62.4021460
  42.1178280 125.9202150  62.1994390  42.8829190 125.1140220  63.2273330
  43.8990420 127.7937910  63.7863180  43.5703780 126.9789670  63.4064910
  44.8472720 127.7507720  63.6628870  46.3525030 143.5649950  60.7600750
  45.8928000 144.3165760  60.3858770  45.7237490 142.8456420  60.7015550
  33.1775650 139.6593190  63.1499470  32.4509710 139.0398480  63.0825420
  33.2384800 140.0533800  62.2797550  36.7820750 141.8738190  59.9348880
  37.2985770 141.2625550  59.4097140  37.4318130 142.3766970  60.4259890
  39.5216250 142.7646680  60.7617860  39.8094060 142.5100980  59.8850870
  40.0339470 142.2124040  61.3523430  31.4605650 142.9767580  56.3596230
  31.2927690 142.3438260  57.0578120  30.5940160 143.1826980  56.0090420
  32.0833670 126.8084360  53.8628090  32.8413030 126.9213240  53.2892120
  31.6210840 127.6453560  53.8171520  33.0668350 141.6700810  53.8046370
  32.5415970 142.0508840  53.1008330  32.9912930 142.2951580  54.5256080
  34.4558820 127.3348410  52.4030060  34.9851580 126.5478210  52.2738010
  35.0887140 128.0139600  52.6365590  36.6496660 127.0723550  55.4575450
  36.0199400 126.3710860  55.6245580  36.1101800 127.8327680  55.2408610
  39.5888610 143.6862780  68.1286060  40.5155920 143.4507050  68.1722020
  39.5739040 144.5134780  67.6472090  47.8233670 143.2288350  55.1260310
  47.9985860 142.5426090  54.4821230  47.1255240 143.7535400  54.7336980
  35.6661320 143.6183190  52.6795620  36.3980140 143.3342470  52.1319510
  35.9254990 143.3796470  53.5695000  34.8276110 139.7347920  52.6841950
  34.1984990 140.2033020  53.2327780  34.9423940 138.8897140  53.1188140
  43.3767680 125.7661110  68.4708410  43.2633130 126.0855720  69.3659930
  44.1937420 126.1673620  68.1745690  46.1566170 142.9132640  67.9527100
  46.9491490 142.4181870  67.7453060  46.4499320 143.5922780  68.5602710
  42.2825830 133.7853580  38.8343150  42.2019880 132.8708190  38.5634860
  41.8690250 134.2820650  38.1282860  40.4143870 135.5632600  40.7152420
  39.6385970 135.0833040  41.0050990  41.0656800 134.8838250  40.5408580
  34.4309700 135.8752410  41.5928180  33.5994580 135.6201120  41.9924690
  35.0390680 135.9463180  42.3286100  44.4351300 139.9692790  39.4951550
  43.9732830 139.1980030  39.8238720  45.2476850 139.9958860  40.0004000
  34.4110960 139.9092500  41.7886200  34.7139000 139.0190240  41.6096420
  35.1554550 140.4662720  41.5608450  32.8401650 130.8354300  35.3770570
  31.9518350 131.1770270  35.2750450  33.1242840 130.6354620  34.4851400
  30.8034660 133.4359950  41.2610270  31.3750770 132.6682150  41.2613910
  30.8036200 133.7348710  40.3516880  40.6614610 142.2550800  39.1155540
  40.0426050 142.7108300  38.5449980  41.5166390 142.4102260  38.7145240
  39.8552860 138.2389790  40.7222580  39.7861140 137.2979730  40.5611710
  40.6172720 138.3291200  41.2945150  32.0459530 128.8444310  43.0479200
  31.8662370 127.9470060  43.3281960  31.6439610 129.3916180  43.7226150
  40.8858030 131.0460170  40.9491510  41.2622850 130.1732050  40.8365180
  40.7877540 131.3818870  40.0581950  35.0163040 129.4185800  36.4108950
  35.1229790 130.3189530  36.7177710  34.1055400 129.3703770  36.1203600
  44.6682150 128.5410610  37.8819850  45.4891770 128.0507180  37.9245330
  44.7016230 129.1308270  38.6351690  32.6646200 131.3404810  41.6561540
  33.3456310 131.6043180  42.2748940  32.3494250 130.5005680  41.9899550
  36.8570770 132.3872170  40.7434130  37.3648990 132.8853140  41.3839150
  37.3884010 131.6107370  40.5673490  48.9581700 130.5577360  44.4463480
  48.2533870 130.9459070  43.9278590  49.2239620 131.2527650  45.0484410
  35.1406870 127.0270730  45.0097550  35.1425310 127.5443120  44.2043450
  34.3111180 126.5500910  44.9867480  41.5277960 137.1390040  36.5087450
  40.9095230 137.6039490  35.9450170  42.0401210 137.8317520  36.9256960
  36.3909720 136.6665910  43.1871050  36.0579100 137.2934830  43.8292120
  36.5676400 137.1927790  42.4072720  44.9043630 130.4810990  40.6547390
  44.1999200 130.7695880  41.2350500  45.2655790 131.2911100  40.2946950
  34.8222200 128.7380690  43.0168000  35.1639010 129.5822740  42.7221870
  33.8838010 128.8864430  43.1333340  35.6028820 138.6346710  45.0020230
  36.2202820 139.3097790  44.7204680  34.7421940 139.0434690  44.9107730
  30.8961160 137.8246570  33.8827080  30.5189140 138.3133670  33.1511980
  31.1534230 138.4971850  34.5133610  46.5206410 140.0986120  42.9174870
  45.8369930 140.7685230  42.9091540  47.0600700 140.2966770  42.1519730
  47.9730550 129.9265780  41.0456600  47.0255460 129.9604760  41.1772030
  48.2980540 130.7404730  41.4305960  38.5050090 126.2262960  39.3412590
  38.8125070 125.6709850  38.6248090  37.5750790 126.3607420  39.1585580
  44.0565150 141.9430250  41.6320050  44.0692310 141.5392540  40.7642310
  43.5040370 142.7177540  41.5281480  45.3510570 138.6646470  36.7210220
  45.2406900 137.7220800  36.8459640  45.3478820 139.0262110  37.6072980
  43.4550590 136.8460090  42.9602660  43.8719380 136.6320200  42.1256120
  44.1790410 137.1032880  43.5311280  40.8930850 134.2911790  36.0772710
  39.9660130 134.2249170  36.3061180  41.0455670 135.2291920  35.9627950
  40.8799930 130.5628790  33.0739870  39.9403600 130.7242750  33.1592330
  41.1983190 131.2814470  32.5275860  47.4012690 135.2447310  43.0518900
  46.5731320 135.3140400  42.5769030  47.9963170 135.8301620  42.5834730
  44.9228140 135.8532090  36.5807960  44.3040560 135.5151640  35.9334260
  44.9052590 135.2091850  37.2887150  44.3654700 132.0316630  43.9973770
  43.9525880 132.8570340  44.2513760  43.6330650 131.4461670  43.8050130
  36.4987490 134.8176530  38.8592440  36.0944490 134.1053780  38.3638340
  36.5850610 134.4729770  39.7480480  36.9669190 138.5044090  41.0231650
  36.6697480 137.8989560  40.3439430  37.9169010 138.5421400  40.9121010
  35.2116110 131.5919740  42.6391480  35.7630700 131.7015080  41.8644730
  35.7259620 131.9657340  43.3546710  45.0554800 142.0775960  44.6854750
  44.5785360 142.8848150  44.4927360  44.3716590 141.4254290  44.8380960
  36.0587620 138.2425780  47.6739450  35.1616150 138.4665750  47.9212850
  36.0840490 138.3660720  46.7250850  43.0992840 135.0918900  33.5880710
  43.5386120 134.2541330  33.4418530  43.8121260 135.7248300  33.6744850
  34.8858840 135.1139100  46.2496820  34.7466610 135.9861900  46.6184220
  34.0040200 134.7711910  46.1044760  41.2088220 140.0314970  37.5561950
  41.6484130 140.7739300  37.1417340  41.1475110 140.2741540  38.4800910
  36.6839190 141.0560800  48.4581970  36.6554620 141.4603750  47.5910400
  36.5204160 140.1271160  48.2953570  46.6809980 126.3461710  31.9021750
  46.3682640 126.4388540  32.8020820  47.4422450 126.9242740  31.8519180
  33.1992120 133.7121510  36.3599090  33.0789720 134.4383600  35.7480360
  32.8893010 132.9424420  35.8827000  48.6354010 141.8387900  49.7546140
  49.1113730 142.3170790  50.4335220  49.2561170 141.7705390  49.0291640
  30.8377490 136.8836650  42.1667730  30.9157910 137.0185420  41.2223450
  31.4519170 136.1752540  42.3595850  32.0825120 138.5836840  38.5773910
  31.6753200 138.7251430  37.7227510  32.9738130 138.2997000  38.3745120
  48.0387260 139.0300750  46.9146150  48.1650320 138.7912630  45.9963330
  48.0808640 138.1985290  47.3868230  41.9004000 142.7328750  45.4840960
  42.4148670 142.6436760  46.2863390  41.0573080 143.0788450  45.7768870
  43.8758400 143.0184090  34.9124960  43.7159540 142.7287030  35.8106790
  43.7105110 142.2424220  34.3770190  36.3546780 142.7982620  36.6896580
  36.1789260 141.8818160  36.4764380  35.5002520 143.1569910  36.9294380
  43.5784530 140.5271650  33.4722960  42.8849690 140.5248940  32.8125240
  44.3207390 140.1030970  33.0417130  43.1434460 142.1534360  37.5471450
  43.5991410 141.3723740  37.8610070  43.4826980 142.8641180  38.0912630
  47.8911270 131.0833210  47.8795890  47.2755540 131.5912880  47.3511350
  47.5707690 130.1831540  47.8221830  30.8937010 137.9250820  44.7062190
  31.0568050 137.4556180  43.8881560  31.3589460 137.4174380  45.3711030
  35.6655780 127.0556580  39.7422760  35.2223930 127.8366120  39.4107280
  36.2240770 127.3786470  40.4493700  39.9525590 129.9225100  45.3458080
  39.4904960 130.1308120  46.1578020  39.5503700 129.1084450  45.0428750
  44.9530100 131.1434050  46.4754740  44.1023690 130.8439800  46.7963810
  44.7931890 131.3876060  45.5638560  42.0479810 132.6435800  48.5753530
  42.3733220 131.8099550  48.2355760  42.8360140 133.1664320  48.7231860
  38.7814600 126.6767280  34.6228590  38.1568780 126.6727150  35.3481900
  38.6944720 125.8098240  34.2264560  37.7031680 127.6003910  41.6012360
  38.0004010 128.5066740  41.5204380  38.2517240 127.1122690  40.9871930
  35.4570000 132.1790150  37.4704010  35.2310920 131.9627320  38.3750630
  34.6762530 132.6118610  37.1249980  42.6867760 132.1853520  36.0694660
  42.0876650 132.9089320  35.8858280  43.2347370 132.1230300  35.2871110
  37.8969210 133.0775730  48.1364280  37.8012810 132.1370460  47.9864680
  38.7401190 133.2990800  47.7412350  41.2932630 130.8217060  38.0997940
  41.6862200 131.1389260  37.2866630  41.6549480 129.9428940  38.2142460
  33.0279750 129.4889400  46.2898060  32.6343140 130.3364610  46.4970840
  32.3398150 128.8515770  46.4806700  39.6024800 129.5724370  49.3594800
  38.9123120 129.3796570  49.9940890  40.3457100 129.8559010  49.8919100
  30.3296800 127.4117860  40.3228140  30.0409850 127.9820720  41.0353120
  31.0742560 126.9322310  40.6859370  30.5167030 131.3537980  31.5330860
  30.4341700 132.2968740  31.6745850  30.1650090 131.2112890  30.6543210
  41.8787770 133.4122810  42.1948720  41.1468890 133.9209620  42.5438820
  41.4812110 132.5952790  41.8937500  38.3165160 130.0877010  40.6001210
  38.3201220 129.6466960  39.7505750  39.2116280 130.4094340  40.7073030
  34.1667540 129.9703500  39.5595420  33.8267590 130.4478730  40.3162470
  33.4044860 129.5168620  39.1996520  38.3785310 131.0889090  33.5907970
  38.4998130 131.0475570  34.5393790  37.9933820 131.9513240  33.4354700
  42.3413680 128.8656490  41.6071660  42.3586420 129.3165140  42.4513510
  42.0929260 127.9662130  41.8205100  37.3906810 133.3990230  32.9891270
  36.8223710 132.9508480  32.3627180  38.0995810 133.7583010  32.4556420
  45.7684430 126.2788670  47.4458040  46.0930200 125.5478330  47.9716020
  45.8040940 125.9602310  46.5439030  32.4675990 137.3002250  46.8658000
  32.0830780 136.6595920  47.4640960  32.7788180 138.0038370  47.4352730
  38.6173130 134.1478790  42.3466620  38.9843260 133.6737360  43.0927960
  38.4278190 135.0220360  42.6874960  31.4813620 128.8922480  38.4760090
  31.1960540 128.5278150  39.3138710  31.4192480 128.1602940  37.8623230
  36.4072500 133.1887430  44.6650830  36.1029570 134.0679410  44.8901190
  37.3618960 133.2487220  44.7008270  34.9354290 137.3948420  35.2617680
  34.1616550 136.8546040  35.1016400  35.6648920 136.8755030  34.9235440
  45.6942270 136.3913780  41.0544070  46.4141390 136.8869070  40.6640180
  45.4924090 135.7131670  40.4097940  41.1552210 127.7851740  35.1973460
  40.3416820 127.2864910  35.1218770  40.9614160 128.6249990  34.7809810
  41.0761070 136.4622840  46.9413070  41.0098380 135.5418510  46.6870660
  40.4466210 136.5598280  47.6557710  43.8700600 132.1571390  33.4935620
  44.7580220 132.4688620  33.3186960  43.8405690 131.2843640  33.1016200
  34.9791690 137.0628800  38.8996490  35.4970360 136.2597060  38.8453380
  34.5275710 137.0007940  39.7413320  39.8661190 138.3295080  34.1723790
  40.2076890 139.0737310  33.6767110  39.0373900 138.6426200  34.5348620
  32.4636230 134.0290170  45.8122190  32.1051170 134.6944020  46.3995530
  32.1690790 133.1973720  46.1834810  35.6649350 134.4874410  48.6961740
  35.3649490 134.6331590  47.7989560  36.4360590 133.9279700  48.6035130
  41.0077800 139.2843410  46.6916870  41.0222340 138.3524370  46.4735780
  40.3002900 139.3703170  47.3306640  46.1414870 133.4683230  32.9615480
  46.0578590 133.8997450  32.1111920  46.8609060 133.9281580  33.3942300
  47.2189010 135.9250750  46.0385450  46.4937200 136.5179530  45.8414840
  47.7464470 135.9174290  45.2398820  47.1702120 140.3225490  35.6897610
  46.5278280 139.6681110  35.9641330  46.7832780 140.7280580  34.9138280
  42.7488600 137.6510920  39.5369300  43.1012420 137.0539050  38.8770670
  41.8650930 137.3255150  39.7077550  38.8351880 138.4108610  36.9439710
  39.5223010 138.9577820  37.3247300  38.0484300 138.9549340  36.9789320
  30.9744280 134.0281430  32.4356790  31.8439130 134.3106230  32.7192710
  30.4834600 134.8417300  32.3205600  38.1379090 135.4154640  36.5565070
  38.5941870 136.2259890  36.7825260  37.7867300 135.0977780  37.3883560
  40.4411700 140.9260980  43.7857370  41.0853920 141.1320360  44.4630790
  40.8041140 140.1649380  43.3328220  34.0390870 125.7592290  37.0287590
  33.9105500 125.7510190  37.9772510  33.2152890 126.0975380  36.6778600
  41.7143780 138.9293330  42.5034820  42.3566010 138.2286490  42.6166990
  42.2393130 139.7091770  42.3231710  45.5599500 139.2141950  32.2273960
  45.3337080 138.4972390  32.8198600  45.1695700 138.9654390  31.3895710
  43.4881400 139.7288230  45.7070880  43.8237640 140.3154920  46.3848800
  42.5681740 139.5980940  45.9368670  31.3415530 143.2408810  33.0018420
  31.7013170 143.8398150  32.3475690  31.2007870 143.7868700  33.7753450
  31.0384800 127.5183410  46.4894290  30.3243320 127.7180330  47.0946900
  31.4579840 126.7422980  46.8609090  45.1415750 137.1313890  33.8888120
  44.8537450 137.5926580  34.6766000  45.9367920 136.6711660  34.1572340
  31.3257390 141.5063670  47.4760820  31.4348510 140.5658410  47.3356210
  30.6737950 141.7718420  46.8274550  39.3169980 139.7779560  48.8758940
  38.9966850 139.0588800  49.4204630  38.6428340 140.4534630  48.9495000
  37.3584150 140.6240010  33.8192090  37.3494250 141.3569700  33.2036600
  36.4382510 140.3771590  33.9119050  32.9590790 135.8454900  34.5638850
  32.3518740 136.5853800  34.5734150  33.4340140 135.9354260  33.7377050
  42.5323580 130.0105720  44.2395740  42.9004400 129.1900930  44.5675310
  41.6721780 130.0707610  44.6551390  45.8985610 128.9662660  35.0483300
  45.2698770 129.0708330  34.3341530  45.4037530 129.1859440  35.8377180
  40.3443750 140.6868250  32.4817280  40.4455730 140.4832240  31.5519260
  39.4445490 140.4326530  32.6865060  37.8669640 131.2448610  36.4641180
  37.1585790 131.7134950  36.9054790  38.1514120 130.5870620  37.0986370
  39.4925570 132.6645310  44.4633710  39.9910820 133.1391130  45.1285560
  39.6348520 131.7408830  44.6703740  41.8985070 127.9699270  37.9036970
  41.7752850 127.9885400  36.9546480  42.8469630 128.0178210  38.0235370
  38.9861860 143.2054570  37.1764950  39.2403360 143.1675960  36.2544320
  38.0374340 143.0787900  37.1693200  36.0704660 129.5533690  33.8391890
  36.9195190 129.9903840  33.7732080  35.7035930 129.8653950  34.6663950
  46.6992430 128.8813270  45.3062100  46.1966030 129.6218670  45.6455910
  47.5149090 129.2697270  44.9898890  44.9914440 134.1246450  38.7523460
  44.0504580 134.1396680  38.9271150  45.3058510 133.3382410  39.1983760
  34.9696080 135.8066050  32.3127420  35.7359350 135.6947410  32.8752850
  35.0470770 135.1104020  31.6604190  33.6642840 133.2391120  32.9960310
  33.7446430 132.2918630  33.1077710  34.5562590 133.5698000  33.1020970
  46.9940020 141.2955300  40.4277720  47.1187440 142.1186470  40.9001530
  47.8605580 141.0846030  40.0801870  34.4657550 143.3886510  40.0994850
  35.2020030 142.8401970  40.3703420  34.8498470 144.2542520  39.9600840
  31.3503030 139.4560080  35.9736360  30.4242810 139.6981220  35.9641770
  31.8159460 140.2834340  35.8521110  33.4715830 142.5732580  49.2880430
  34.2728560 142.8944630  49.7015830  32.9567650 142.2128160  50.0100340
  37.5759860 142.5616820  31.9220420  38.3688470 142.8505650  31.4702210
  37.0564210 142.1308990  31.2432900  42.3080460 138.6812450  49.2355840
  41.7018620 138.7044050  48.4951590  42.0034570 137.9495490  49.7723090
  43.7380830 142.4092740  47.8465250  44.6902580 142.3250760  47.7965490
  43.5909050 143.0734450  48.5199040  46.6290030 141.7886950  33.3457160
  46.3431540 141.3752090  32.5311340  46.4309580 142.7174660  33.2257680
  31.1913640 135.0606040  48.2316480  31.6952660 134.4813320  48.8032710
  30.4521060 135.3446270  48.7692850  38.0937260 137.7820230  31.7862770
  37.9887900 137.1672580  32.5124150  37.9261480 137.2586120  31.0025780
  38.2451580 136.4677030  47.7652000  37.4797250 137.0362030  47.6806670
  38.4267540 136.1753240  46.8720230  41.3339990 136.8440260  32.3904760
  40.7850090 137.2909560  33.0347500  41.9559250 136.3389510  32.9142430
  45.3874930 138.1982360  48.3227020  46.1284400 138.5358120  47.8194480
  44.6247610 138.3674420  47.7696790  33.2236720 133.2035630  49.1266550
  33.2642060 132.9049500  50.0351780  34.0782220 133.6043240  48.9674070
  37.0015110 135.8031180  34.2870060  37.4231530 135.6371050  35.1301450
  37.1265950 134.9931410  33.7925200  35.1642530 131.7827730  47.0941040
  34.6338990 131.2918680  46.4664380  35.8330600 132.2111930  46.5598970
  39.5142750 134.8268790  31.5347160  40.0348410 134.1117810  31.1688310
  40.1611150 135.4654660  31.8347670  44.0620590 136.2497190  46.8582230
  44.4761610 136.4042270  47.7072650  43.1271590 136.3752410  47.0208010
  44.5342760 133.5893350  48.8621380  45.1163530 132.8345670  48.7741860
  44.7104530 134.1200790  48.0852860  35.6514830 128.7490100  47.1738330
  35.5571700 128.1310850  46.4489200  35.0712220 129.4756390  46.9468240
  38.4176270 127.3063340  44.2065720  37.9693570 127.3287600  43.3611270
  37.7841470 126.9082360  44.8036020  38.8235820 136.2017670  44.8278160
  39.2423930 137.0450400  44.6554400  37.9044450 136.3389710  44.5984940
  41.1599720 133.9333850  46.2116000  41.2795930 133.3374990  46.9510840
  42.0193720 133.9703540  45.7917300  43.4987620 134.4871040  44.7878510
  42.9722840 135.0113660  44.1843650  43.8418960 135.1198430  45.4188240
  35.8974010 131.8764410  31.2328220  35.6963070 131.0131770  31.5941560
  35.7266060 131.7897770  30.2949820  36.6743240 142.5070680  45.9435890
  36.1364330 143.2316740  45.6244590  36.9277200 142.0301020  45.1533230
  37.9268490 130.4755200  47.4691820  38.5168180 130.1671050  48.1569640
  37.1088730 130.0034950  47.6251720  42.7461920 130.0921010  47.7024840
  42.0577440 129.4302550  47.6374830  43.4667940 129.6459280  48.1473300
  43.3762320 126.6872640  33.7615100  43.6564610 125.8440540  34.1174520
  42.6028050 126.9195750  34.2753850  34.6956810 128.9765030  31.2206100
  34.9982710 128.9832460  30.3125250  35.4351400 128.6262890  31.7173760
  39.5305450 143.7421890  46.2022540  39.4564150 144.6457030  46.5094910
  38.6284290 143.4233790  46.1744610  37.9141740 127.9199650  32.2062300
  37.5663740 127.2423640  31.6264750  38.1154510 127.4589160  33.0205690
  40.0790780 142.9080400  33.8248900  40.9741570 143.2465370  33.8467660
  40.1108410 142.1859810  33.1973180  33.7186940 138.2807450  32.0535900
  34.1561810 138.8237120  32.7093480  34.2034670 137.4554400  32.0632240
  30.9332740 141.0696480  39.5056160  31.2635750 140.2017540  39.2734800
  31.3623740 141.2755000  40.3361120  35.5294660 139.4005490  37.1658130
  35.2290200 139.2770460  38.0662040  35.4232150 138.5414080  36.7573860
  31.4222950 141.9367070  42.2437790  30.9853940 142.1167870  43.0761940
  31.9900630 142.6941690  42.1019510  47.0585130 141.4384070  46.5315100
  46.4587120 141.4976630  45.7879020  47.1879030 140.4989050  46.6611950
  48.2986580 139.1801890  31.8684810  47.4679540 139.2478540  32.3392040
  48.4758410 140.0706010  31.5651670  47.7543040 135.9249370  34.3719010
  48.5161950 136.4946020  34.4778700  47.7697410 135.3576570  35.1427320
  31.2547380 134.4487300  38.6026670  30.5996220 134.1798940  37.9586370
  32.0925330 134.3391780  38.1528650  48.7603010 136.7799470  39.2160940
  49.1311840 135.9966790  38.8096910  49.4004940 137.4688570  39.0378240
  45.7436770 138.1636050  44.6291260  44.9296610 138.5933210  44.8917050
  46.1510970 138.7754460  44.0160310  47.8062210 136.2183740  31.5291530
  48.0811050 137.1262620  31.4010750  47.6172950 136.1546270  32.4653520
  44.2037820 129.2428590  32.8245160  44.6222700 129.0559570  31.9841820
  43.8973880 128.3907640  33.1348090  47.7027550 134.1552730  36.5220960
  47.3271150 133.3880660  36.0902250  46.9730670 134.5375430  37.0095890
  32.2923310 134.8339870  43.1430010  32.6596350 134.7467270  44.0226030
  31.7234130 134.0706420  43.0436870  47.0927170 133.3024250  46.1560480
  46.8613260 133.0737000  45.2558430  47.3531720 134.2223800  46.1105370
  31.8439310 131.7448960  47.0488430  30.9495360 131.7115720  47.3882140
  32.3836860 131.9435750  47.8139680  30.4685460 131.6586230  34.5452000
  29.5649540 131.9216430  34.3703660  30.9526080 131.9297400  33.7651960
  46.9778510 132.3810220  39.8228200  47.5015990 131.8872870  39.1918370
  47.5637930 132.5160580  40.5675770  47.1568230 132.4650090  43.3447750
  46.2070940 132.4313630  43.4592740  47.3381240 133.3750200  43.1097520
  33.0112670 130.7151770  32.4546380  33.7204370 130.2934990  31.9693660
  32.2952610 130.7827000  31.8229730  32.6586830 126.7691100  31.4949030
  33.3814960 127.3100040  31.8130250  32.9311350 126.4954520  30.6190570
  46.4678480 131.6383570  35.7620610  46.9637600 131.4054440  36.5469490
  46.2694550 130.7995410  35.3458250  32.3479020 126.0197290  41.3971650
  32.9955210 125.4694670  40.9566810  32.7680860 126.2740440  42.2187460
  47.8965640 130.2744520  38.2958290  47.7864920 130.1200560  39.2340560
  48.6573230 129.7465460  38.0533700  48.7855910 128.1052440  31.5364430
  49.7105220 127.9733620  31.3282720  48.7631700 128.1845260  32.4900880
  48.8594400 128.8763100  34.1621140  48.0645900 128.8108220  34.6914050
  49.0637680 129.8113740  34.1506490  45.8012820 142.9154650  38.1559530
  46.3971890 142.5939220  37.4793950  46.0590970 142.4426470  38.9472800
  32.1011020 126.1752960  44.1396970  31.7525840 126.6316780  44.9055150
  31.7698720 125.2810090  44.2219400  33.7075390 139.3472560  48.3050160
  33.6645020 138.9765470  49.1864620  33.8386400 140.2850130  48.4451980
  37.4081420 140.9032150  43.9059880  37.1672780 141.1706710  43.0190400
  38.3484060 141.0737880  43.9610740  39.6135840 127.3664840  47.6616390
  39.5524730 127.9586670  48.4111800  40.5536220 127.2590800  47.5166650
  42.2510400 127.0234900  47.3008680  42.8650810 127.3414190  46.6389760
  42.7959960 126.5383490  47.9204540  48.6685580 142.9226530  44.7070520
  48.1743860 143.3195400  43.9897650  48.0598870 142.2975740  45.1007800
  32.7731660 125.7029160  47.4147740  33.3214650 125.5217210  46.6513850
  32.8386970 124.9123270  47.9504050  33.5463420 142.2934810  45.4247940
  32.9523740 142.1619510  46.1637980  33.5387260 141.4572950  44.9590040
  42.9918440 125.5867040  43.6277970  42.1178280 125.9202150  43.4250900
  42.8829190 125.1140220  44.4529840  43.8990420 127.7937910  45.0119690
  43.5703780 126.9789670  44.6321420  44.8472720 127.7507720  44.8885380
  46.3525030 143.5649950  41.9857260  45.8928000 144.3165760  41.6115280
  45.7237490 142.8456420  41.9272060  33.1775650 139.6593190  44.3755980
  32.4509710 139.0398480  44.3081930  33.2384800 140.0533800  43.5054060
  36.7820750 141.8738190  41.1605390  37.2985770 141.2625550  40.6353650
  37.4318130 142.3766970  41.6516400  39.5216250 142.7646680  41.9874370
  39.8094060 142.5100980  41.1107380  40.0339470 142.2124040  42.5779940
  40.7393260 126.5036880  42.5670880  39.9565050 126.9782380  42.8467640
  40.4456190 125.5991710  42.4584060  45.2914330 127.2059980  40.6119970
  45.7322420 127.1505080  39.7641570  45.0221920 128.1217990  40.6830150
  47.1552900 126.8375220  38.6228790  47.0941300 125.8936440  38.4759810
  47.9344930 126.9455310  39.1682250  31.4605650 142.9767580  37.5852740
  31.2927690 142.3438260  38.2834630  30.5940160 143.1826980  37.2346930
  32.0833670 126.8084360  35.0884600  32.8413030 126.9213240  34.5148630
  31.6210840 127.6453560  35.0428030  38.6247480 128.9223630  38.0786910
  37.8121990 128.5480520  37.7382790  39.1289120 128.1668710  38.3808100
  43.1272460 125.5866080  39.3169980  43.7301830 126.1586290  39.7918500
  42.3865450 126.1505520  39.0943880  46.2707060 125.9887640  34.5910260
  46.4657690 126.8871090  34.8577690  45.4836930 125.7574720  35.0843210
  33.0668350 141.6700810  35.0302880  32.5415970 142.0508840  34.3264840
  32.9912930 142.2951580  35.7512590  34.4558820 127.3348410  33.6286570
  34.9851580 126.5478210  33.4994520  35.0887140 128.0139600  33.8622100
  36.6496660 127.0723550  36.6831960  36.0199400 126.3710860  36.8502090
  36.1101800 127.8327680  36.4665120  39.5888610 143.6862780  49.3542570
  40.5155920 143.4507050  49.3978530  39.5739040 144.5134780  48.8728600
  47.8233670 143.2288350  36.3516820  47.9985860 142.5426090  35.7077740
  47.1255240 143.7535400  35.9593490  36.7752220 126.3507530  49.1184450
  36.4936490 126.8541130  48.3545270  37.1571920 125.5529280  48.7526580
  35.6661320 143.6183190  33.9052130  36.3980140 143.3342470  33.3576020
  35.9254990 143.3796470  34.7951510  34.8276110 139.7347920  33.9098460
  34.1984990 140.2033020  34.4584290  34.9423940 138.8897140  34.3444650
  46.1566170 142.9132640  49.1783610  46.9491490 142.4181870  48.9709570
  46.4499320 143.5922780  49.7859220  42.2825830 133.7853580  20.0599660
  42.2019880 132.8708190  19.7891370  41.8690250 134.2820650  19.3539370
  40.4143870 135.5632600  21.9408930  39.6385970 135.0833040  22.2307500
  41.0656800 134.8838250  21.7665090  34.4309700 135.8752410  22.8184690
  33.5994580 135.6201120  23.2181200  35.0390680 135.9463180  23.5542610
  44.4351300 139.9692790  20.7208060  43.9732830 139.1980030  21.0495230
  45.2476850 139.9958860  21.2260510  34.4110960 139.9092500  23.0142710
  34.7139000 139.0190240  22.8352930  35.1554550 140.4662720  22.7864960
  32.8401650 130.8354300  16.6027080  31.9518350 131.1770270  16.5006960
  33.1242840 130.6354620  15.7107910  30.8034660 133.4359950  22.4866780
  31.3750770 132.6682150  22.4870420  30.8036200 133.7348710  21.5773390
  40.6614610 142.2550800  20.3412050  40.0426050 142.7108300  19.7706490
  41.5166390 142.4102260  19.9401750  39.8552860 138.2389790  21.9479090
  39.7861140 137.2979730  21.7868220  40.6172720 138.3291200  22.5201660
  32.0459530 128.8444310  24.2735710  31.8662370 127.9470060  24.5538470
  31.6439610 129.3916180  24.9482660  40.8858030 131.0460170  22.1748020
  41.2622850 130.1732050  22.0621690  40.7877540 131.3818870  21.2838460
  35.0163040 129.4185800  17.6365460  35.1229790 130.3189530  17.9434220
  34.1055400 129.3703770  17.3460110  44.6682150 128.5410610  19.1076360
  45.4891770 128.0507180  19.1501840  44.7016230 129.1308270  19.8608200
  32.6646200 131.3404810  22.8818050  33.3456310 131.6043180  23.5005450
  32.3494250 130.5005680  23.2156060  36.8570770 132.3872170  21.9690640
  37.3648990 132.8853140  22.6095660  37.3884010 131.6107370  21.7930000
  48.9581700 130.5577360  25.6719990  48.2533870 130.9459070  25.1535100
  49.2239620 131.2527650  26.2740920  35.1406870 127.0270730  26.2354060
  35.1425310 127.5443120  25.4299960  34.3111180 126.5500910  26.2123990
  41.5277960 137.1390040  17.7343960  40.9095230 137.6039490  17.1706680
  42.0401210 137.8317520  18.1513470  36.3909720 136.6665910  24.4127560
  36.0579100 137.2934830  25.0548630  36.5676400 137.1927790  23.6329230
  44.9043630 130.4810990  21.8803900  44.1999200 130.7695880  22.4607010
  45.2655790 131.2911100  21.5203460  34.8222200 128.7380690  24.2424510
  35.1639010 129.5822740  23.9478380  33.8838010 128.8864430  24.3589850
  35.6028820 138.6346710  26.2276740  36.2202820 139.3097790  25.9461190
  34.7421940 139.0434690  26.1364240  30.8961160 137.8246570  15.1083590
  30.5189140 138.3133670  14.3768490  31.1534230 138.4971850  15.7390120
  46.5206410 140.0986120  24.1431380  45.8369930 140.7685230  24.1348050
  47.0600700 140.2966770  23.3776240  47.9730550 129.9265780  22.2713110
  47.0255460 129.9604760  22.4028540  48.2980540 130.7404730  22.6562470
  38.5050090 126.2262960  20.5669100  38.8125070 125.6709850  19.8504600
  37.5750790 126.3607420  20.3842090  44.0565150 141.9430250  22.8576560
  44.0692310 141.5392540  21.9898820  43.5040370 142.7177540  22.7537990
  45.3510570 138.6646470  17.9466730  45.2406900 137.7220800  18.0716150
  45.3478820 139.0262110  18.8329490  43.4550590 136.8460090  24.1859170
  43.8719380 136.6320200  23.3512630  44.1790410 137.1032880  24.7567790
  40.8930850 134.2911790  17.3029220  39.9660130 134.2249170  17.5317690
  41.0455670 135.2291920  17.1884460  40.8799930 130.5628790  14.2996380
  39.9403600 130.7242750  14.3848840  41.1983190 131.2814470  13.7532370
  47.4012690 135.2447310  24.2775410  46.5731320 135.3140400  23.8025540
  47.9963170 135.8301620  23.8091240  44.9228140 135.8532090  17.8064470
  44.3040560 135.5151640  17.1590770  44.9052590 135.2091850  18.5143660
  44.3654700 132.0316630  25.2230280  43.9525880 132.8570340  25.4770270
  43.6330650 131.4461670  25.0306640  36.4987490 134.8176530  20.0848950
  36.0944490 134.1053780  19.5894850  36.5850610 134.4729770  20.9736990
  36.9669190 138.5044090  22.2488160  36.6697480 137.8989560  21.5695940
  37.9169010 138.5421400  22.1377520  35.2116110 131.5919740  23.8647990
  35.7630700 131.7015080  23.0901240  35.7259620 131.9657340  24.5803220
  45.0554800 142.0775960  25.9111260  44.5785360 142.8848150  25.7183870
  44.3716590 141.4254290  26.0637470  36.0587620 138.2425780  28.8995960
  35.1616150 138.4665750  29.1469360  36.0840490 138.3660720  27.9507360
  43.0992840 135.0918900  14.8137220  43.5386120 134.2541330  14.6675040
  43.8121260 135.7248300  14.9001360  34.8858840 135.1139100  27.4753330
  34.7466610 135.9861900  27.8440730  34.0040200 134.7711910  27.3301270
  41.2088220 140.0314970  18.7818460  41.6484130 140.7739300  18.3673850
  41.1475110 140.2741540  19.7057420  36.6839190 141.0560800  29.6838480
  36.6554620 141.4603750  28.8166910  36.5204160 140.1271160  29.5210080
  46.6809980 126.3461710  13.1278260  46.3682640 126.4388540  14.0277330
  47.4422450 126.9242740  13.0775690  33.1992120 133.7121510  17.5855600
  33.0789720 134.4383600  16.9736870  32.8893010 132.9424420  17.1083510
  48.6354010 141.8387900  30.9802650  49.1113730 142.3170790  31.6591730
  49.2561170 141.7705390  30.2548150  30.8377490 136.8836650  23.3924240
  30.9157910 137.0185420  22.4479960  31.4519170 136.1752540  23.5852360
  32.0825120 138.5836840  19.8030420  31.6753200 138.7251430  18.9484020
  32.9738130 138.2997000  19.6001630  48.0387260 139.0300750  28.1402660
  48.1650320 138.7912630  27.2219840  48.0808640 138.1985290  28.6124740
  41.9004000 142.7328750  26.7097470  42.4148670 142.6436760  27.5119900
  41.0573080 143.0788450  27.0025380  43.8758400 143.0184090  16.1381470
  43.7159540 142.7287030  17.0363300  43.7105110 142.2424220  15.6026700
  36.3546780 142.7982620  17.9153090  36.1789260 141.8818160  17.7020890
  35.5002520 143.1569910  18.1550890  43.5784530 140.5271650  14.6979470
  42.8849690 140.5248940  14.0381750  44.3207390 140.1030970  14.2673640
  43.1434460 142.1534360  18.7727960  43.5991410 141.3723740  19.0866580
  43.4826980 142.8641180  19.3169140  47.8911270 131.0833210  29.1052400
  47.2755540 131.5912880  28.5767860  47.5707690 130.1831540  29.0478340
  30.8937010 137.9250820  25.9318700  31.0568050 137.4556180  25.1138070
  31.3589460 137.4174380  26.5967540  35.6655780 127.0556580  20.9679270
  35.2223930 127.8366120  20.6363790  36.2240770 127.3786470  21.6750210
  39.9525590 129.9225100  26.5714590  39.4904960 130.1308120  27.3834530
  39.5503700 129.1084450  26.2685260  44.9530100 131.1434050  27.7011250
  44.1023690 130.8439800  28.0220320  44.7931890 131.3876060  26.7895070
  42.0479810 132.6435800  29.8010040  42.3733220 131.8099550  29.4612270
  42.8360140 133.1664320  29.9488370  38.7814600 126.6767280  15.8485100
  38.1568780 126.6727150  16.5738410  38.6944720 125.8098240  15.4521070
  37.7031680 127.6003910  22.8268870  38.0004010 128.5066740  22.7460890
  38.2517240 127.1122690  22.2128440  35.4570000 132.1790150  18.6960520
  35.2310920 131.9627320  19.6007140  34.6762530 132.6118610  18.3506490
  42.6867760 132.1853520  17.2951170  42.0876650 132.9089320  17.1114790
  43.2347370 132.1230300  16.5127620  37.8969210 133.0775730  29.3620790
  37.8012810 132.1370460  29.2121190  38.7401190 133.2990800  28.9668860
  41.2932630 130.8217060  19.3254450  41.6862200 131.1389260  18.5123140
  41.6549480 129.9428940  19.4398970  33.0279750 129.4889400  27.5154570
  32.6343140 130.3364610  27.7227350  32.3398150 128.8515770  27.7063210
  39.6024800 129.5724370  30.5851310  38.9123120 129.3796570  31.2197400
  40.3457100 129.8559010  31.1175610  30.3296800 127.4117860  21.5484650
  30.0409850 127.9820720  22.2609630  31.0742560 126.9322310  21.9115880
  30.5167030 131.3537980  12.7587370  30.4341700 132.2968740  12.9002360
  30.1650090 131.2112890  11.8799720  41.8787770 133.4122810  23.4205230
  41.1468890 133.9209620  23.7695330  41.4812110 132.5952790  23.1194010
  38.3165160 130.0877010  21.8257720  38.3201220 129.6466960  20.9762260
  39.2116280 130.4094340  21.9329540  34.1667540 129.9703500  20.7851930
  33.8267590 130.4478730  21.5418980  33.4044860 129.5168620  20.4253030
  38.3785310 131.0889090  14.8164480  38.4998130 131.0475570  15.7650300
  37.9933820 131.9513240  14.6611210  42.3413680 128.8656490  22.8328170
  42.3586420 129.3165140  23.6770020  42.0929260 127.9662130  23.0461610
  37.3906810 133.3990230  14.2147780  36.8223710 132.9508480  13.5883690
  38.0995810 133.7583010  13.6812930  45.7684430 126.2788670  28.6714550
  46.0930200 125.5478330  29.1972530  45.8040940 125.9602310  27.7695540
  32.4675990 137.3002250  28.0914510  32.0830780 136.6595920  28.6897470
  32.7788180 138.0038370  28.6609240  38.6173130 134.1478790  23.5723130
  38.9843260 133.6737360  24.3184470  38.4278190 135.0220360  23.9131470
  31.4813620 128.8922480  19.7016600  31.1960540 128.5278150  20.5395220
  31.4192480 128.1602940  19.0879740  36.4072500 133.1887430  25.8907340
  36.1029570 134.0679410  26.1157700  37.3618960 133.2487220  25.9264780
  34.9354290 137.3948420  16.4874190  34.1616550 136.8546040  16.3272910
  35.6648920 136.8755030  16.1491950  45.6942270 136.3913780  22.2800580
  46.4141390 136.8869070  21.8896690  45.4924090 135.7131670  21.6354450
  41.1552210 127.7851740  16.4229970  40.3416820 127.2864910  16.3475280
  40.9614160 128.6249990  16.0066320  41.0761070 136.4622840  28.1669580
  41.0098380 135.5418510  27.9127170  40.4466210 136.5598280  28.8814220
  43.8700600 132.1571390  14.7192130  44.7580220 132.4688620  14.5443470
  43.8405690 131.2843640  14.3272710  34.9791690 137.0628800  20.1253000
  35.4970360 136.2597060  20.0709890  34.5275710 137.0007940  20.9669830
  39.8661190 138.3295080  15.3980300  40.2076890 139.0737310  14.9023620
  39.0373900 138.6426200  15.7605130  32.4636230 134.0290170  27.0378700
  32.1051170 134.6944020  27.6252040  32.1690790 133.1973720  27.4091320
  35.6649350 134.4874410  29.9218250  35.3649490 134.6331590  29.0246070
  36.4360590 133.9279700  29.8291640  41.0077800 139.2843410  27.9173380
  41.0222340 138.3524370  27.6992290  40.3002900 139.3703170  28.5563150
  46.1414870 133.4683230  14.1871990  46.0578590 133.8997450  13.3368430
  46.8609060 133.9281580  14.6198810  47.2189010 135.9250750  27.2641960
  46.4937200 136.5179530  27.0671350  47.7464470 135.9174290  26.4655330
  47.1702120 140.3225490  16.9154120  46.5278280 139.6681110  17.1897840
  46.7832780 140.7280580  16.1394790  42.7488600 137.6510920  20.7625810
  43.1012420 137.0539050  20.1027180  41.8650930 137.3255150  20.9334060
  38.8351880 138.4108610  18.1696220  39.5223010 138.9577820  18.5503810
  38.0484300 138.9549340  18.2045830  30.9744280 134.0281430  13.6613300
  31.8439130 134.3106230  13.9449220  30.4834600 134.8417300  13.5462110
  38.1379090 135.4154640  17.7821580  38.5941870 136.2259890  18.0081770
  37.7867300 135.0977780  18.6140070  40.4411700 140.9260980  25.0113880
  41.0853920 141.1320360  25.6887300  40.8041140 140.1649380  24.5584730
  34.0390870 125.7592290  18.2544100  33.9105500 125.7510190  19.2029020
  33.2152890 126.0975380  17.9035110  41.7143780 138.9293330  23.7291330
  42.3566010 138.2286490  23.8423500  42.2393130 139.7091770  23.5488220
  45.5599500 139.2141950  13.4530470  45.3337080 138.4972390  14.0455110
  45.1695700 138.9654390  12.6152220  43.4881400 139.7288230  26.9327390
  43.8237640 140.3154920  27.6105310  42.5681740 139.5980940  27.1625180
  31.3415530 143.2408810  14.2274930  31.7013170 143.8398150  13.5732200
  31.2007870 143.7868700  15.0009960  31.0384800 127.5183410  27.7150800
  30.3243320 127.7180330  28.3203410  31.4579840 126.7422980  28.0865600
  45.1415750 137.1313890  15.1144630  44.8537450 137.5926580  15.9022510
  45.9367920 136.6711660  15.3828850  31.3257390 141.5063670  28.7017330
  31.4348510 140.5658410  28.5612720  30.6737950 141.7718420  28.0531060
  39.3169980 139.7779560  30.1015450  38.9966850 139.0588800  30.6461140
  38.6428340 140.4534630  30.1751510  37.3584150 140.6240010  15.0448600
  37.3494250 141.3569700  14.4293110  36.4382510 140.3771590  15.1375560
  32.9590790 135.8454900  15.7895360  32.3518740 136.5853800  15.7990660
  33.4340140 135.9354260  14.9633560  42.5323580 130.0105720  25.4652250
  42.9004400 129.1900930  25.7931820  41.6721780 130.0707610  25.8807900
  45.8985610 128.9662660  16.2739810  45.2698770 129.0708330  15.5598040
  45.4037530 129.1859440  17.0633690  40.3443750 140.6868250  13.7073790
  40.4455730 140.4832240  12.7775770  39.4445490 140.4326530  13.9121570
  37.8669640 131.2448610  17.6897690  37.1585790 131.7134950  18.1311300
  38.1514120 130.5870620  18.3242880  39.4925570 132.6645310  25.6890220
  39.9910820 133.1391130  26.3542070  39.6348520 131.7408830  25.8960250
  41.8985070 127.9699270  19.1293480  41.7752850 127.9885400  18.1802990
  42.8469630 128.0178210  19.2491880  38.9861860 143.2054570  18.4021460
  39.2403360 143.1675960  17.4800830  38.0374340 143.0787900  18.3949710
  36.0704660 129.5533690  15.0648400  36.9195190 129.9903840  14.9988590
  35.7035930 129.8653950  15.8920460  46.6992430 128.8813270  26.5318610
  46.1966030 129.6218670  26.8712420  47.5149090 129.2697270  26.2155400
  44.9914440 134.1246450  19.9779970  44.0504580 134.1396680  20.1527660
  45.3058510 133.3382410  20.4240270  34.9696080 135.8066050  13.5383930
  35.7359350 135.6947410  14.1009360  35.0470770 135.1104020  12.8860700
  33.6642840 133.2391120  14.2216820  33.7446430 132.2918630  14.3334220
  34.5562590 133.5698000  14.3277480  46.9940020 141.2955300  21.6534230
  47.1187440 142.1186470  22.1258040  47.8605580 141.0846030  21.3058380
  34.4657550 143.3886510  21.3251360  35.2020030 142.8401970  21.5959930
  34.8498470 144.2542520  21.1857350  31.3503030 139.4560080  17.1992870
  30.4242810 139.6981220  17.1898280  31.8159460 140.2834340  17.0777620
  33.4715830 142.5732580  30.5136940  34.2728560 142.8944630  30.9272340
  32.9567650 142.2128160  31.2356850  37.5759860 142.5616820  13.1476930
  38.3688470 142.8505650  12.6958720  37.0564210 142.1308990  12.4689410
  42.3080460 138.6812450  30.4612350  41.7018620 138.7044050  29.7208100
  42.0034570 137.9495490  30.9979600  43.7380830 142.4092740  29.0721760
  44.6902580 142.3250760  29.0222000  43.5909050 143.0734450  29.7455550
  46.6290030 141.7886950  14.5713670  46.3431540 141.3752090  13.7567850
  46.4309580 142.7174660  14.4514190  31.1913640 135.0606040  29.4572990
  31.6952660 134.4813320  30.0289220  30.4521060 135.3446270  29.9949360
  38.0937260 137.7820230  13.0119280  37.9887900 137.1672580  13.7380660
  37.9261480 137.2586120  12.2282290  38.2451580 136.4677030  28.9908510
  37.4797250 137.0362030  28.9063180  38.4267540 136.1753240  28.0976740
  41.3339990 136.8440260  13.6161270  40.7850090 137.2909560  14.2604010
  41.9559250 136.3389510  14.1398940  45.3874930 138.1982360  29.5483530
  46.1284400 138.5358120  29.0450990  44.6247610 138.3674420  28.9953300
  33.2236720 133.2035630  30.3523060  33.2642060 132.9049500  31.2608290
  34.0782220 133.6043240  30.1930580  37.0015110 135.8031180  15.5126570
  37.4231530 135.6371050  16.3557960  37.1265950 134.9931410  15.0181710
  35.1642530 131.7827730  28.3197550  34.6338990 131.2918680  27.6920890
  35.8330600 132.2111930  27.7855480  39.5142750 134.8268790  12.7603670
  40.0348410 134.1117810  12.3944820  40.1611150 135.4654660  13.0604180
  44.0620590 136.2497190  28.0838740  44.4761610 136.4042270  28.9329160
  43.1271590 136.3752410  28.2464520  44.5342760 133.5893350  30.0877890
  45.1163530 132.8345670  29.9998370  44.7104530 134.1200790  29.3109370
  35.6514830 128.7490100  28.3994840  35.5571700 128.1310850  27.6745710
  35.0712220 129.4756390  28.1724750  38.4176270 127.3063340  25.4322230
  37.9693570 127.3287600  24.5867780  37.7841470 126.9082360  26.0292530
  38.8235820 136.2017670  26.0534670  39.2423930 137.0450400  25.8810910
  37.9044450 136.3389710  25.8241450  41.1599720 133.9333850  27.4372510
  41.2795930 133.3374990  28.1767350  42.0193720 133.9703540  27.0173810
  43.4987620 134.4871040  26.0135020  42.9722840 135.0113660  25.4100160
  43.8418960 135.1198430  26.6444750  35.8974010 131.8764410  12.4584730
  35.6963070 131.0131770  12.8198070  35.7266060 131.7897770  11.5206330
  36.6743240 142.5070680  27.1692400  36.1364330 143.2316740  26.8501100
  36.9277200 142.0301020  26.3789740  37.9268490 130.4755200  28.6948330
  38.5168180 130.1671050  29.3826150  37.1088730 130.0034950  28.8508230
  42.7461920 130.0921010  28.9281350  42.0577440 129.4302550  28.8631340
  43.4667940 129.6459280  29.3729810  43.3762320 126.6872640  14.9871610
  43.6564610 125.8440540  15.3431030  42.6028050 126.9195750  15.5010360
  34.6956810 128.9765030  12.4462610  34.9982710 128.9832460  11.5381760
  35.4351400 128.6262890  12.9430270  39.5305450 143.7421890  27.4279050
  39.4564150 144.6457030  27.7351420  38.6284290 143.4233790  27.4001120
  37.9141740 127.9199650  13.4318810  37.5663740 127.2423640  12.8521260
  38.1154510 127.4589160  14.2462200  40.0790780 142.9080400  15.0505410
  40.9741570 143.2465370  15.0724170  40.1108410 142.1859810  14.4229690
  33.7186940 138.2807450  13.2792410  34.1561810 138.8237120  13.9349990
  34.2034670 137.4554400  13.2888750  30.9332740 141.0696480  20.7312670
  31.2635750 140.2017540  20.4991310  31.3623740 141.2755000  21.5617630
  35.5294660 139.4005490  18.3914640  35.2290200 139.2770460  19.2918550
  35.4232150 138.5414080  17.9830370  31.4222950 141.9367070  23.4694300
  30.9853940 142.1167870  24.3018450  31.9900630 142.6941690  23.3276020
  47.0585130 141.4384070  27.7571610  46.4587120 141.4976630  27.0135530
  47.1879030 140.4989050  27.8868460  48.2986580 139.1801890  13.0941320
  47.4679540 139.2478540  13.5648550  48.4758410 140.0706010  12.7908180
  47.7543040 135.9249370  15.5975520  48.5161950 136.4946020  15.7035210
  47.7697410 135.3576570  16.3683830  31.2547380 134.4487300  19.8283180
  30.5996220 134.1798940  19.1842880  32.0925330 134.3391780  19.3785160
  48.7603010 136.7799470  20.4417450  49.1311840 135.9966790  20.0353420
  49.4004940 137.4688570  20.2634750  45.7436770 138.1636050  25.8547770
  44.9296610 138.5933210  26.1173560  46.1510970 138.7754460  25.2416820
  47.8062210 136.2183740  12.7548040  48.0811050 137.1262620  12.6267260
  47.6172950 136.1546270  13.6910030  44.2037820 129.2428590  14.0501670
  44.6222700 129.0559570  13.2098330  43.8973880 128.3907640  14.3604600
  47.7027550 134.1552730  17.7477470  47.3271150 133.3880660  17.3158760
  46.9730670 134.5375430  18.2352400  32.2923310 134.8339870  24.3686520
  32.6596350 134.7467270  25.2482540  31.7234130 134.0706420  24.2693380
  47.0927170 133.3024250  27.3816990  46.8613260 133.0737000  26.4814940
  47.3531720 134.2223800  27.3361880  31.8439310 131.7448960  28.2744940
  30.9495360 131.7115720  28.6138650  32.3836860 131.9435750  29.0396190
  45.5315240 128.5280680  30.1596690  46.4085420 128.5364080  30.5430690
  45.5436080 127.7911520  29.5489040  30.4685460 131.6586230  15.7708510
  29.5649540 131.9216430  15.5960170  30.9526080 131.9297400  14.9908470
  46.9778510 132.3810220  21.0484710  47.5015990 131.8872870  20.4174880
  47.5637930 132.5160580  21.7932280  47.1568230 132.4650090  24.5704260
  46.2070940 132.4313630  24.6849250  47.3381240 133.3750200  24.3354030
  33.0112670 130.7151770  13.6802890  33.7204370 130.2934990  13.1950170
  32.2952610 130.7827000  13.0486240  32.6586830 126.7691100  12.7205540
  33.3814960 127.3100040  13.0386760  32.9311350 126.4954520  11.8447080
  46.4678480 131.6383570  16.9877120  46.9637600 131.4054440  17.7726000
  46.2694550 130.7995410  16.5714760  32.3479020 126.0197290  22.6228160
  32.9955210 125.4694670  22.1823320  32.7680860 126.2740440  23.4443970
  47.8965640 130.2744520  19.5214800  47.7864920 130.1200560  20.4597070
  48.6573230 129.7465460  19.2790210  46.2431360 126.2138650  25.9797800
  46.8803580 126.8272790  26.3456990  46.3906250 126.2499310  25.0347030
  48.7855910 128.1052440  12.7620940  49.7105220 127.9733620  12.5539230
  48.7631700 128.1845260  13.7157390  48.8594400 128.8763100  15.3877650
  48.0645900 128.8108220  15.9170560  49.0637680 129.8113740  15.3763000
  45.8012820 142.9154650  19.3816040  46.3971890 142.5939220  18.7050460
  46.0590970 142.4426470  20.1729310  32.1011020 126.1752960  25.3653480
  31.7525840 126.6316780  26.1311660  31.7698720 125.2810090  25.4475910
  33.7075390 139.3472560  29.5306670  33.6645020 138.9765470  30.4121130
  33.8386400 140.2850130  29.6708490  37.4081420 140.9032150  25.1316390
  37.1672780 141.1706710  24.2446910  38.3484060 141.0737880  25.1867250
  39.6135840 127.3664840  28.8872900  39.5524730 127.9586670  29.6368310
  40.5536220 127.2590800  28.7423160  42.2510400 127.0234900  28.5265190
  42.8650810 127.3414190  27.8646270  42.7959960 126.5383490  29.1461050
  48.6685580 142.9226530  25.9327030  48.1743860 143.3195400  25.2154160
  48.0598870 142.2975740  26.3264310  32.7731660 125.7029160  28.6404250
  33.3214650 125.5217210  27.8770360  32.8386970 124.9123270  29.1760560
  33.5463420 142.2934810  26.6504450  32.9523740 142.1619510  27.3894490
  33.5387260 141.4572950  26.1846550  42.9918440 125.5867040  24.8534480
  42.1178280 125.9202150  24.6507410  42.8829190 125.1140220  25.6786350
  43.8990420 127.7937910  26.2376200  43.5703780 126.9789670  25.8577930
  44.8472720 127.7507720  26.1141890  46.3525030 143.5649950  23.2113770
  45.8928000 144.3165760  22.8371790  45.7237490 142.8456420  23.1528570
  33.1775650 139.6593190  25.6012490  32.4509710 139.0398480  25.5338440
  33.2384800 140.0533800  24.7310570  36.7820750 141.8738190  22.3861900
  37.2985770 141.2625550  21.8610160  37.4318130 142.3766970  22.8772910
  39.5216250 142.7646680  23.2130880  39.8094060 142.5100980  22.3363890
  40.0339470 142.2124040  23.8036450  40.7393260 126.5036880  23.7927390
  39.9565050 126.9782380  24.0724150  40.4456190 125.5991710  23.6840570
  45.2914330 127.2059980  21.8376480  45.7322420 127.1505080  20.9898080
  45.0221920 128.1217990  21.9086660  47.1552900 126.8375220  19.8485300
  47.0941300 125.8936440  19.7016320  47.9344930 126.9455310  20.3938760
  31.4605650 142.9767580  18.8109250  31.2927690 142.3438260  19.5091140
  30.5940160 143.1826980  18.4603440  32.0833670 126.8084360  16.3141110
  32.8413030 126.9213240  15.7405140  31.6210840 127.6453560  16.2684540
  38.6247480 128.9223630  19.3043420  37.8121990 128.5480520  18.9639300
  39.1289120 128.1668710  19.6064610  43.1272460 125.5866080  20.5426490
  43.7301830 126.1586290  21.0175010  42.3865450 126.1505520  20.3200390
  46.2707060 125.9887640  15.8166770  46.4657690 126.8871090  16.0834200
  45.4836930 125.7574720  16.3099720  33.0668350 141.6700810  16.2559390
  32.5415970 142.0508840  15.5521350  32.9912930 142.2951580  16.9769100
  34.4558820 127.3348410  14.8543080  34.9851580 126.5478210  14.7251030
  35.0887140 128.0139600  15.0878610  36.6496660 127.0723550  17.9088470
  36.0199400 126.3710860  18.0758600  36.1101800 127.8327680  17.6921630
  39.5888610 143.6862780  30.5799080  40.5155920 143.4507050  30.6235040
  39.5739040 144.5134780  30.0985110  47.8233670 143.2288350  17.5773330
  47.9985860 142.5426090  16.9334250  47.1255240 143.7535400  17.1850000
  36.7752220 126.3507530  30.3440960  36.4936490 126.8541130  29.5801780
  37.1571920 125.5529280  29.9783090  35.6661320 143.6183190  15.1308640
  36.3980140 143.3342470  14.5832530  35.9254990 143.3796470  16.0208020
  34.8276110 139.7347920  15.1354970  34.1984990 140.2033020  15.6840800
  34.9423940 138.8897140  15.5701160  43.3767680 125.7661110  30.9221430
  43.2633130 126.0855720  31.8172950  44.1937420 126.1673620  30.6258710
  46.1566170 142.9132640  30.4040120  46.9491490 142.4181870  30.1966080
  46.4499320 143.5922780  31.0115730  40.4143870 135.5632600   3.1665440
  39.6385970 135.0833040   3.4564010  41.0656800 134.8838250   2.9921600
  34.4309700 135.8752410   4.0441200  33.5994580 135.6201120   4.4437710
  35.0390680 135.9463180   4.7799120  44.4351300 139.9692790   1.9464570
  43.9732830 139.1980030   2.2751740  45.2476850 139.9958860   2.4517020
  34.4110960 139.9092500   4.2399220  34.7139000 139.0190240   4.0609440
  35.1554550 140.4662720   4.0121470  30.8034660 133.4359950   3.7123290
  31.3750770 132.6682150   3.7126930  30.8036200 133.7348710   2.8029900
  39.8552860 138.2389790   3.1735600  39.7861140 137.2979730   3.0124730
  40.6172720 138.3291200   3.7458170  32.0459530 128.8444310   5.4992220
  31.8662370 127.9470060   5.7794980  31.6439610 129.3916180   6.1739170
  40.8858030 131.0460170   3.4004530  41.2622850 130.1732050   3.2878200
  40.7877540 131.3818870   2.5094970  32.6646200 131.3404810   4.1074560
  33.3456310 131.6043180   4.7261960  32.3494250 130.5005680   4.4412570
  36.8570770 132.3872170   3.1947150  37.3648990 132.8853140   3.8352170
  37.3884010 131.6107370   3.0186510  48.9581700 130.5577360   6.8976500
  48.2533870 130.9459070   6.3791610  49.2239620 131.2527650   7.4997430
  35.1406870 127.0270730   7.4610570  35.1425310 127.5443120   6.6556470
  34.3111180 126.5500910   7.4380500  36.3909720 136.6665910   5.6384070
  36.0579100 137.2934830   6.2805140  36.5676400 137.1927790   4.8585740
  44.9043630 130.4810990   3.1060410  44.1999200 130.7695880   3.6863520
  45.2655790 131.2911100   2.7459970  34.8222200 128.7380690   5.4681020
  35.1639010 129.5822740   5.1734890  33.8838010 128.8864430   5.5846360
  35.6028820 138.6346710   7.4533250  36.2202820 139.3097790   7.1717700
  34.7421940 139.0434690   7.3620750  46.5206410 140.0986120   5.3687890
  45.8369930 140.7685230   5.3604560  47.0600700 140.2966770   4.6032750
  47.9730550 129.9265780   3.4969620  47.0255460 129.9604760   3.6285050
  48.2980540 130.7404730   3.8818980  44.0565150 141.9430250   4.0833070
  44.0692310 141.5392540   3.2155330  43.5040370 142.7177540   3.9794500
  43.4550590 136.8460090   5.4115680  43.8719380 136.6320200   4.5769140
  44.1790410 137.1032880   5.9824300  47.4012690 135.2447310   5.5031920
  46.5731320 135.3140400   5.0282050  47.9963170 135.8301620   5.0347750
  44.3654700 132.0316630   6.4486790  43.9525880 132.8570340   6.7026780
  43.6330650 131.4461670   6.2563150  36.9669190 138.5044090   3.4744670
  36.6697480 137.8989560   2.7952450  37.9169010 138.5421400   3.3634030
  35.2116110 131.5919740   5.0904500  35.7630700 131.7015080   4.3157750
  35.7259620 131.9657340   5.8059730  45.0554800 142.0775960   7.1367770
  44.5785360 142.8848150   6.9440380  44.3716590 141.4254290   7.2893980
  36.0587620 138.2425780  10.1252470  35.1616150 138.4665750  10.3725870
  36.0840490 138.3660720   9.1763870  34.8858840 135.1139100   8.7009840
  34.7466610 135.9861900   9.0697240  34.0040200 134.7711910   8.5557780
  36.6839190 141.0560800  10.9094990  36.6554620 141.4603750  10.0423420
  36.5204160 140.1271160  10.7466590  48.6354010 141.8387900  12.2059160
  49.1113730 142.3170790  12.8848240  49.2561170 141.7705390  11.4804660
  30.8377490 136.8836650   4.6180750  30.9157910 137.0185420   3.6736470
  31.4519170 136.1752540   4.8108870  48.0387260 139.0300750   9.3659170
  48.1650320 138.7912630   8.4476350  48.0808640 138.1985290   9.8381250
  41.9004000 142.7328750   7.9353980  42.4148670 142.6436760   8.7376410
  41.0573080 143.0788450   8.2281890  47.8911270 131.0833210  10.3308910
  47.2755540 131.5912880   9.8024370  47.5707690 130.1831540  10.2734850
  30.8937010 137.9250820   7.1575210  31.0568050 137.4556180   6.3394580
  31.3589460 137.4174380   7.8224050  35.6655780 127.0556580   2.1935780
  35.2223930 127.8366120   1.8620300  36.2240770 127.3786470   2.9006720
  39.9525590 129.9225100   7.7971100  39.4904960 130.1308120   8.6091040
  39.5503700 129.1084450   7.4941770  44.9530100 131.1434050   8.9267760
  44.1023690 130.8439800   9.2476830  44.7931890 131.3876060   8.0151580
  42.0479810 132.6435800  11.0266550  42.3733220 131.8099550  10.6868780
  42.8360140 133.1664320  11.1744880  37.7031680 127.6003910   4.0525380
  38.0004010 128.5066740   3.9717400  38.2517240 127.1122690   3.4384950
  37.8969210 133.0775730  10.5877300  37.8012810 132.1370460  10.4377700
  38.7401190 133.2990800  10.1925370  33.0279750 129.4889400   8.7411080
  32.6343140 130.3364610   8.9483860  32.3398150 128.8515770   8.9319720
  39.6024800 129.5724370  11.8107820  38.9123120 129.3796570  12.4453910
  40.3457100 129.8559010  12.3432120  30.3296800 127.4117860   2.7741160
  30.0409850 127.9820720   3.4866140  31.0742560 126.9322310   3.1372390
  41.8787770 133.4122810   4.6461740  41.1468890 133.9209620   4.9951840
  41.4812110 132.5952790   4.3450520  38.3165160 130.0877010   3.0514230
  38.3201220 129.6466960   2.2018770  39.2116280 130.4094340   3.1586050
  34.1667540 129.9703500   2.0108440  33.8267590 130.4478730   2.7675490
  33.4044860 129.5168620   1.6509540  42.3413680 128.8656490   4.0584680
  42.3586420 129.3165140   4.9026530  42.0929260 127.9662130   4.2718120
  45.7684430 126.2788670   9.8971060  46.0930200 125.5478330  10.4229040
  45.8040940 125.9602310   8.9952050  32.4675990 137.3002250   9.3171020
  32.0830780 136.6595920   9.9153980  32.7788180 138.0038370   9.8865750
  38.6173130 134.1478790   4.7979640  38.9843260 133.6737360   5.5440980
  38.4278190 135.0220360   5.1387980  36.4072500 133.1887430   7.1163850
  36.1029570 134.0679410   7.3414210  37.3618960 133.2487220   7.1521290
  45.6942270 136.3913780   3.5057090  46.4141390 136.8869070   3.1153200
  45.4924090 135.7131670   2.8610960  41.0761070 136.4622840   9.3926090
  41.0098380 135.5418510   9.1383680  40.4466210 136.5598280  10.1070730
  32.4636230 134.0290170   8.2635210  32.1051170 134.6944020   8.8508550
  32.1690790 133.1973720   8.6347830  35.6649350 134.4874410  11.1474760
  35.3649490 134.6331590  10.2502580  36.4360590 133.9279700  11.0548150
  41.0077800 139.2843410   9.1429890  41.0222340 138.3524370   8.9248800
  40.3002900 139.3703170   9.7819660  47.2189010 135.9250750   8.4898470
  46.4937200 136.5179530   8.2927860  47.7464470 135.9174290   7.6911840
  40.4411700 140.9260980   6.2370390  41.0853920 141.1320360   6.9143810
  40.8041140 140.1649380   5.7841240  41.7143780 138.9293330   4.9547840
  42.3566010 138.2286490   5.0680010  42.2393130 139.7091770   4.7744730
  43.4881400 139.7288230   8.1583900  43.8237640 140.3154920   8.8361820
  42.5681740 139.5980940   8.3881690  31.0384800 127.5183410   8.9407310
  30.3243320 127.7180330   9.5459920  31.4579840 126.7422980   9.3122110
  31.3257390 141.5063670   9.9273840  31.4348510 140.5658410   9.7869230
  30.6737950 141.7718420   9.2787570  39.3169980 139.7779560  11.3271960
  38.9966850 139.0588800  11.8717650  38.6428340 140.4534630  11.4008020
  42.5323580 130.0105720   6.6908760  42.9004400 129.1900930   7.0188330
  41.6721780 130.0707610   7.1064410  39.4925570 132.6645310   6.9146730
  39.9910820 133.1391130   7.5798580  39.6348520 131.7408830   7.1216760
  46.6992430 128.8813270   7.7575120  46.1966030 129.6218670   8.0968930
  47.5149090 129.2697270   7.4411910  46.9940020 141.2955300   2.8790740
  47.1187440 142.1186470   3.3514550  47.8605580 141.0846030   2.5314890
  34.4657550 143.3886510   2.5507870  35.2020030 142.8401970   2.8216440
  34.8498470 144.2542520   2.4113860  33.4715830 142.5732580  11.7393450
  34.2728560 142.8944630  12.1528850  32.9567650 142.2128160  12.4613360
  42.3080460 138.6812450  11.6868860  41.7018620 138.7044050  10.9464610
  42.0034570 137.9495490  12.2236110  43.7380830 142.4092740  10.2978270
  44.6902580 142.3250760  10.2478510  43.5909050 143.0734450  10.9712060
  31.1913640 135.0606040  10.6829500  31.6952660 134.4813320  11.2545730
  30.4521060 135.3446270  11.2205870  38.2451580 136.4677030  10.2165020
  37.4797250 137.0362030  10.1319690  38.4267540 136.1753240   9.3233250
  45.3874930 138.1982360  10.7740040  46.1284400 138.5358120  10.2707500
  44.6247610 138.3674420  10.2209810  33.2236720 133.2035630  11.5779570
  33.2642060 132.9049500  12.4864800  34.0782220 133.6043240  11.4187090
  35.1642530 131.7827730   9.5454060  34.6338990 131.2918680   8.9177400
  35.8330600 132.2111930   9.0111990  44.0620590 136.2497190   9.3095250
  44.4761610 136.4042270  10.1585670  43.1271590 136.3752410   9.4721030
  44.5342760 133.5893350  11.3134400  45.1163530 132.8345670  11.2254880
  44.7104530 134.1200790  10.5365880  35.6514830 128.7490100   9.6251350
  35.5571700 128.1310850   8.9002220  35.0712220 129.4756390   9.3981260
  38.4176270 127.3063340   6.6578740  37.9693570 127.3287600   5.8124290
  37.7841470 126.9082360   7.2549040  38.8235820 136.2017670   7.2791180
  39.2423930 137.0450400   7.1067420  37.9044450 136.3389710   7.0497960
  41.1599720 133.9333850   8.6629020  41.2795930 133.3374990   9.4023860
  42.0193720 133.9703540   8.2430320  43.4987620 134.4871040   7.2391530
  42.9722840 135.0113660   6.6356670  43.8418960 135.1198430   7.8701260
  36.6743240 142.5070680   8.3948910  36.1364330 143.2316740   8.0757610
  36.9277200 142.0301020   7.6046250  37.9268490 130.4755200   9.9204840
  38.5168180 130.1671050  10.6082660  37.1088730 130.0034950  10.0764740
  42.7461920 130.0921010  10.1537860  42.0577440 129.4302550  10.0887850
  43.4667940 129.6459280  10.5986320  39.5305450 143.7421890   8.6535560
  39.4564150 144.6457030   8.9607930  38.6284290 143.4233790   8.6257630
  30.9332740 141.0696480   1.9569180  31.2635750 140.2017540   1.7247820
  31.3623740 141.2755000   2.7874140  31.4222950 141.9367070   4.6950810
  30.9853940 142.1167870   5.5274960  31.9900630 142.6941690   4.5532530
  47.0585130 141.4384070   8.9828120  46.4587120 141.4976630   8.2392040
  47.1879030 140.4989050   9.1124970  45.7436770 138.1636050   7.0804280
  44.9296610 138.5933210   7.3430070  46.1510970 138.7754460   6.4673330
  32.2923310 134.8339870   5.5943030  32.6596350 134.7467270   6.4739050
  31.7234130 134.0706420   5.4949890  47.0927170 133.3024250   8.6073500
  46.8613260 133.0737000   7.7071450  47.3531720 134.2223800   8.5618390
  31.8439310 131.7448960   9.5001450  30.9495360 131.7115720   9.8395160
  32.3836860 131.9435750  10.2652700  45.5315240 128.5280680  11.3853200
  46.4085420 128.5364080  11.7687200  45.5436080 127.7911520  10.7745550
  46.9778510 132.3810220   2.2741220  47.5015990 131.8872870   1.6431390
  47.5637930 132.5160580   3.0188790  47.1568230 132.4650090   5.7960770
  46.2070940 132.4313630   5.9105760  47.3381240 133.3750200   5.5610540
  32.3479020 126.0197290   3.8484670  32.9955210 125.4694670   3.4079830
  32.7680860 126.2740440   4.6700480  46.2431360 126.2138650   7.2054310
  46.8803580 126.8272790   7.5713500  46.3906250 126.2499310   6.2603540
  32.1011020 126.1752960   6.5909990  31.7525840 126.6316780   7.3568170
  31.7698720 125.2810090   6.6732420  33.7075390 139.3472560  10.7563180
  33.6645020 138.9765470  11.6377640  33.8386400 140.2850130  10.8965000
  37.4081420 140.9032150   6.3572900  37.1672780 141.1706710   5.4703420
  38.3484060 141.0737880   6.4123760  39.6135840 127.3664840  10.1129410
  39.5524730 127.9586670  10.8624820  40.5536220 127.2590800   9.9679670
  42.2510400 127.0234900   9.7521700  42.8650810 127.3414190   9.0902780
  42.7959960 126.5383490  10.3717560  48.6685580 142.9226530   7.1583540
  48.1743860 143.3195400   6.4410670  48.0598870 142.2975740   7.5520820
  32.7731660 125.7029160   9.8660760  33.3214650 125.5217210   9.1026870
  32.8386970 124.9123270  10.4017070  33.5463420 142.2934810   7.8760960
  32.9523740 142.1619510   8.6151000  33.5387260 141.4572950   7.4103060
  42.9918440 125.5867040   6.0790990  42.1178280 125.9202150   5.8763920
  42.8829190 125.1140220   6.9042860  43.8990420 127.7937910   7.4632710
  43.5703780 126.9789670   7.0834440  44.8472720 127.7507720   7.3398400
  46.3525030 143.5649950   4.4370280  45.8928000 144.3165760   4.0628300
  45.7237490 142.8456420   4.3785080  33.1775650 139.6593190   6.8269000
  32.4509710 139.0398480   6.7594950  33.2384800 140.0533800   5.9567080
  36.7820750 141.8738190   3.6118410  37.2985770 141.2625550   3.0866670
  37.4318130 142.3766970   4.1029420  39.5216250 142.7646680   4.4387390
  39.8094060 142.5100980   3.5620400  40.0339470 142.2124040   5.0292960
  40.7393260 126.5036880   5.0183900  39.9565050 126.9782380   5.2980660
  40.4456190 125.5991710   4.9097080  45.2914330 127.2059980   3.0632990
  45.7322420 127.1505080   2.2154590  45.0221920 128.1217990   3.1343170
  43.1272460 125.5866080   1.7683000  43.7301830 126.1586290   2.2431520
  42.3865450 126.1505520   1.5456900  39.5888610 143.6862780  11.8055590
  40.5155920 143.4507050  11.8491550  39.5739040 144.5134780  11.3241620
  36.7752220 126.3507530  11.5697470  36.4936490 126.8541130  10.8058290
  37.1571920 125.5529280  11.2039600  43.3767680 125.7661110  12.1477940
  43.2633130 126.0855720  13.0429460  44.1937420 126.1673620  11.8515220
  46.1566170 142.9132640  11.6296630  46.9491490 142.4181870  11.4222590
  46.4499320 143.5922780  12.2372240  42.2825830 115.0110090 151.4804090
  42.2019880 114.0964700 151.2095800  41.8690250 115.5077160 150.7743800
  40.4143870 116.7889110 153.3613360  39.6385970 116.3089550 153.6511930
  41.0656800 116.1094760 153.1869520  44.4351300 121.1949300 152.1412490
  43.9732830 120.4236540 152.4699660  45.2476850 121.2215370 152.6464940
  34.4110960 121.1349010 154.4347140  34.7139000 120.2446750 154.2557360
  35.1554550 121.6919230 154.2069390  32.8401650 112.0610810 148.0231510
  31.9518350 112.4026780 147.9211390  33.1242840 111.8611130 147.1312340
  30.8034660 114.6616460 153.9071210  31.3750770 113.8938660 153.9074850
  30.8036200 114.9605220 152.9977820  40.6614610 123.4807310 151.7616480
  40.0426050 123.9364810 151.1910920  41.5166390 123.6358770 151.3606180
  39.8552860 119.4646300 153.3683520  39.7861140 118.5236240 153.2072650
  40.6172720 119.5547710 153.9406090  40.8858030 112.2716680 153.5952450
  41.2622850 111.3988560 153.4826120  40.7877540 112.6075380 152.7042890
  35.0163040 110.6442310 149.0569890  35.1229790 111.5446040 149.3638650
  34.1055400 110.5960280 148.7664540  44.6682150 109.7667120 150.5280790
  45.4891770 109.2763690 150.5706270  44.7016230 110.3564780 151.2812630
  36.8570770 113.6128680 153.3895070  37.3648990 114.1109650 154.0300090
  37.3884010 112.8363880 153.2134430  41.5277960 118.3646550 149.1548390
  40.9095230 118.8296000 148.5911110  42.0401210 119.0574030 149.5717900
  44.9043630 111.7067500 153.3008330  44.1999200 111.9952390 153.8811440
  45.2655790 112.5167610 152.9407890  30.8961160 119.0503080 146.5288020
  30.5189140 119.5390180 145.7972920  31.1534230 119.7228360 147.1594550
  47.9730550 111.1522290 153.6917540  47.0255460 111.1861270 153.8232970
  48.2980540 111.9661240 154.0766900  38.5050090 107.4519470 151.9873530
  38.8125070 106.8966360 151.2709030  37.5750790 107.5863930 151.8046520
  44.0565150 123.1686760 154.2780990  44.0692310 122.7649050 153.4103250
  43.5040370 123.9434050 154.1742420  45.3510570 119.8902980 149.3671160
  45.2406900 118.9477310 149.4920580  45.3478820 120.2518620 150.2533920
  40.8930850 115.5168300 148.7233650  39.9660130 115.4505680 148.9522120
  41.0455670 116.4548430 148.6088890  40.8799930 111.7885300 145.7200810
  39.9403600 111.9499260 145.8053270  41.1983190 112.5070980 145.1736800
  44.9228140 117.0788600 149.2268900  44.3040560 116.7408150 148.5795200
  44.9052590 116.4348360 149.9348090  36.4987490 116.0433040 151.5053380
  36.0944490 115.3310290 151.0099280  36.5850610 115.6986280 152.3941420
  36.9669190 119.7300600 153.6692590  36.6697480 119.1246070 152.9900370
  37.9169010 119.7677910 153.5581950  43.0992840 116.3175410 146.2341650
  43.5386120 115.4797840 146.0879470  43.8121260 116.9504810 146.3205790
  41.2088220 121.2571480 150.2022890  41.6484130 121.9995810 149.7878280
  41.1475110 121.4998050 151.1261850  46.6809980 107.5718220 144.5482690
  46.3682640 107.6645050 145.4481760  47.4422450 108.1499250 144.4980120
  33.1992120 114.9378020 149.0060030  33.0789720 115.6640110 148.3941300
  32.8893010 114.1680930 148.5287940  32.0825120 119.8093350 151.2234850
  31.6753200 119.9507940 150.3688450  32.9738130 119.5253510 151.0206060
  43.8758400 124.2440600 147.5585900  43.7159540 123.9543540 148.4567730
  43.7105110 123.4680730 147.0231130  36.3546780 124.0239130 149.3357520
  36.1789260 123.1074670 149.1225320  35.5002520 124.3826420 149.5755320
  43.5784530 121.7528160 146.1183900  42.8849690 121.7505450 145.4586180
  44.3207390 121.3287480 145.6878070  43.1434460 123.3790870 150.1932390
  43.5991410 122.5980250 150.5071010  43.4826980 124.0897690 150.7373570
  35.6655780 108.2813090 152.3883700  35.2223930 109.0622630 152.0568220
  36.2240770 108.6042980 153.0954640  38.7814600 107.9023790 147.2689530
  38.1568780 107.8983660 147.9942840  38.6944720 107.0354750 146.8725500
  37.7031680 108.8260420 154.2473300  38.0004010 109.7323250 154.1665320
  38.2517240 108.3379200 153.6332870  35.4570000 113.4046660 150.1164950
  35.2310920 113.1883830 151.0211570  34.6762530 113.8375120 149.7710920
  42.6867760 113.4110030 148.7155600  42.0876650 114.1345830 148.5319220
  43.2347370 113.3486810 147.9332050  41.2932630 112.0473570 150.7458880
  41.6862200 112.3645770 149.9327570  41.6549480 111.1685450 150.8603400
  30.3296800 108.6374370 152.9689080  30.0409850 109.2077230 153.6814060
  31.0742560 108.1578820 153.3320310  30.5167030 112.5794490 144.1791800
  30.4341700 113.5225250 144.3206790  30.1650090 112.4369400 143.3004150
  38.3165160 111.3133520 153.2462150  38.3201220 110.8723470 152.3966690
  39.2116280 111.6350850 153.3533970  34.1667540 111.1960010 152.2056360
  33.8267590 111.6735240 152.9623410  33.4044860 110.7425130 151.8457460
  38.3785310 112.3145600 146.2368910  38.4998130 112.2732080 147.1854730
  37.9933820 113.1769750 146.0815640  37.3906810 114.6246740 145.6352210
  36.8223710 114.1764990 145.0088120  38.0995810 114.9839520 145.1017360
  31.4813620 110.1178990 151.1221030  31.1960540 109.7534660 151.9599650
  31.4192480 109.3859450 150.5084170  34.9354290 118.6204930 147.9078620
  34.1616550 118.0802550 147.7477340  35.6648920 118.1011540 147.5696380
  45.6942270 117.6170290 153.7005010  46.4141390 118.1125580 153.3101120
  45.4924090 116.9388180 153.0558880  41.1552210 109.0108250 147.8434400
  40.3416820 108.5121420 147.7679710  40.9614160 109.8506500 147.4270750
  43.8700600 113.3827900 146.1396560  44.7580220 113.6945130 145.9647900
  43.8405690 112.5100150 145.7477140  34.9791690 118.2885310 151.5457430
  35.4970360 117.4853570 151.4914320  34.5275710 118.2264450 152.3874260
  39.8661190 119.5551590 146.8184730  40.2076890 120.2993820 146.3228050
  39.0373900 119.8682710 147.1809560  46.1414870 114.6939740 145.6076420
  46.0578590 115.1253960 144.7572860  46.8609060 115.1538090 146.0403240
  47.1702120 121.5482000 148.3358550  46.5278280 120.8937620 148.6102270
  46.7832780 121.9537090 147.5599220  42.7488600 118.8767430 152.1830240
  43.1012420 118.2795560 151.5231610  41.8650930 118.5511660 152.3538490
  38.8351880 119.6365120 149.5900650  39.5223010 120.1834330 149.9708240
  38.0484300 120.1805850 149.6250260  30.9744280 115.2537940 145.0817730
  31.8439130 115.5362740 145.3653650  30.4834600 116.0673810 144.9666540
  38.1379090 116.6411150 149.2026010  38.5941870 117.4516400 149.4286200
  37.7867300 116.3234290 150.0344500  34.0390870 106.9848800 149.6748530
  33.9105500 106.9766700 150.6233450  33.2152890 107.3231890 149.3239540
  45.5599500 120.4398460 144.8734900  45.3337080 119.7228900 145.4659540
  45.1695700 120.1910900 144.0356650  31.3415530 124.4665320 145.6479360
  31.7013170 125.0654660 144.9936630  31.2007870 125.0125210 146.4214390
  45.1415750 118.3570400 146.5349060  44.8537450 118.8183090 147.3226940
  45.9367920 117.8968170 146.8033280  37.3584150 121.8496520 146.4653030
  37.3494250 122.5826210 145.8497540  36.4382510 121.6028100 146.5579990
  32.9590790 117.0711410 147.2099790  32.3518740 117.8110310 147.2195090
  33.4340140 117.1610770 146.3837990  45.8985610 110.1919170 147.6944240
  45.2698770 110.2964840 146.9802470  45.4037530 110.4115950 148.4838120
  40.3443750 121.9124760 145.1278220  40.4455730 121.7088750 144.1980200
  39.4445490 121.6583040 145.3326000  37.8669640 112.4705120 149.1102120
  37.1585790 112.9391460 149.5515730  38.1514120 111.8127130 149.7447310
  41.8985070 109.1955780 150.5497910  41.7752850 109.2141910 149.6007420
  42.8469630 109.2434720 150.6696310  38.9861860 124.4311080 149.8225890
  39.2403360 124.3932470 148.9005260  38.0374340 124.3044410 149.8154140
  36.0704660 110.7790200 146.4852830  36.9195190 111.2160350 146.4193020
  35.7035930 111.0910460 147.3124890  44.9914440 115.3502960 151.3984400
  44.0504580 115.3653190 151.5732090  45.3058510 114.5638920 151.8444700
  34.9696080 117.0322560 144.9588360  35.7359350 116.9203920 145.5213790
  35.0470770 116.3360530 144.3065130  33.6642840 114.4647630 145.6421250
  33.7446430 113.5175140 145.7538650  34.5562590 114.7954510 145.7481910
  46.9940020 122.5211810 153.0738660  47.1187440 123.3442980 153.5462470
  47.8605580 122.3102540 152.7262810  34.4657550 124.6143020 152.7455790
  35.2020030 124.0658480 153.0164360  34.8498470 125.4799030 152.6061780
  31.3503030 120.6816590 148.6197300  30.4242810 120.9237730 148.6102710
  31.8159460 121.5090850 148.4982050  37.5759860 123.7873330 144.5681360
  38.3688470 124.0762160 144.1163150  37.0564210 123.3565500 143.8893840
  46.6290030 123.0143460 145.9918100  46.3431540 122.6008600 145.1772280
  46.4309580 123.9431170 145.8718620  38.0937260 119.0076740 144.4323710
  37.9887900 118.3929090 145.1585090  37.9261480 118.4842630 143.6486720
  41.3339990 118.0696770 145.0365700  40.7850090 118.5166070 145.6808440
  41.9559250 117.5646020 145.5603370  37.0015110 117.0287690 146.9331000
  37.4231530 116.8627560 147.7762390  37.1265950 116.2187920 146.4386140
  39.5142750 116.0525300 144.1808100  40.0348410 115.3374320 143.8149250
  40.1611150 116.6911170 144.4808610  35.8974010 113.1020920 143.8789160
  35.6963070 112.2388280 144.2402500  35.7266060 113.0154280 142.9410760
  43.3762320 107.9129150 146.4076040  43.6564610 107.0697050 146.7635460
  42.6028050 108.1452260 146.9214790  34.6956810 110.2021540 143.8667040
  34.9982710 110.2088970 142.9586190  35.4351400 109.8519400 144.3634700
  37.9141740 109.1456160 144.8523240  37.5663740 108.4680150 144.2725690
  38.1154510 108.6845670 145.6666630  40.0790780 124.1336910 146.4709840
  40.9741570 124.4721880 146.4928600  40.1108410 123.4116320 145.8434120
  33.7186940 119.5063960 144.6996840  34.1561810 120.0493630 145.3554420
  34.2034670 118.6810910 144.7093180  30.9332740 122.2952990 152.1517100
  31.2635750 121.4274050 151.9195740  31.3623740 122.5011510 152.9822060
  35.5294660 120.6262000 149.8119070  35.2290200 120.5026970 150.7122980
  35.4232150 119.7670590 149.4034800  48.2986580 120.4058400 144.5145750
  47.4679540 120.4735050 144.9852980  48.4758410 121.2962520 144.2112610
  47.7543040 117.1505880 147.0179950  48.5161950 117.7202530 147.1239640
  47.7697410 116.5833080 147.7888260  31.2547380 115.6743810 151.2487610
  30.5996220 115.4055450 150.6047310  32.0925330 115.5648290 150.7989590
  48.7603010 118.0055980 151.8621880  49.1311840 117.2223300 151.4557850
  49.4004940 118.6945080 151.6839180  47.8062210 117.4440250 144.1752470
  48.0811050 118.3519130 144.0471690  47.6172950 117.3802780 145.1114460
  44.2037820 110.4685100 145.4706100  44.6222700 110.2816080 144.6302760
  43.8973880 109.6164150 145.7809030  47.7027550 115.3809240 149.1681900
  47.3271150 114.6137170 148.7363190  46.9730670 115.7631940 149.6556830
  30.4685460 112.8842740 147.1912940  29.5649540 113.1472940 147.0164600
  30.9526080 113.1553910 146.4112900  46.9778510 113.6066730 152.4689140
  47.5015990 113.1129380 151.8379310  47.5637930 113.7417090 153.2136710
  33.0112670 111.9408280 145.1007320  33.7204370 111.5191500 144.6154600
  32.2952610 112.0083510 144.4690670  32.6586830 107.9947610 144.1409970
  33.3814960 108.5356550 144.4591190  32.9311350 107.7211030 143.2651510
  46.4678480 112.8640080 148.4081550  46.9637600 112.6310950 149.1930430
  46.2694550 112.0251920 147.9919190  47.8965640 111.5001030 150.9419230
  47.7864920 111.3457070 151.8801500  48.6573230 110.9721970 150.6994640
  48.7855910 109.3308950 144.1825370  49.7105220 109.1990130 143.9743660
  48.7631700 109.4101770 145.1361820  48.8594400 110.1019610 146.8082080
  48.0645900 110.0364730 147.3374990  49.0637680 111.0370250 146.7967430
  45.8012820 124.1411160 150.8020470  46.3971890 123.8195730 150.1254890
  46.0590970 123.6682980 151.5933740  36.7820750 123.0994700 153.8066330
  37.2985770 122.4882060 153.2814590  37.4318130 123.6023480 154.2977340
  45.2914330 108.4316490 153.2580910  45.7322420 108.3761590 152.4102510
  45.0221920 109.3474500 153.3291090  47.1552900 108.0631730 151.2689730
  47.0941300 107.1192950 151.1220750  47.9344930 108.1711820 151.8143190
  31.4605650 124.2024090 150.2313680  31.2927690 123.5694770 150.9295570
  30.5940160 124.4083490 149.8807870  32.0833670 108.0340870 147.7345540
  32.8413030 108.1469750 147.1609570  31.6210840 108.8710070 147.6888970
  38.6247480 110.1480140 150.7247850  37.8121990 109.7737030 150.3843730
  39.1289120 109.3925220 151.0269040  43.1272460 106.8122590 151.9630920
  43.7301830 107.3842800 152.4379440  42.3865450 107.3762030 151.7404820
  46.2707060 107.2144150 147.2371200  46.4657690 108.1127600 147.5038630
  45.4836930 106.9831230 147.7304150  33.0668350 122.8957320 147.6763820
  32.5415970 123.2765350 146.9725780  32.9912930 123.5208090 148.3973530
  34.4558820 108.5604920 146.2747510  34.9851580 107.7734720 146.1455460
  35.0887140 109.2396110 146.5083040  36.6496660 108.2980060 149.3292900
  36.0199400 107.5967370 149.4963030  36.1101800 109.0584190 149.1126060
  47.8233670 124.4544860 148.9977760  47.9985860 123.7682600 148.3538680
  47.1255240 124.9791910 148.6054430  35.6661320 124.8439700 146.5513070
  36.3980140 124.5598980 146.0036960  35.9254990 124.6052980 147.4412450
  34.8276110 120.9604430 146.5559400  34.1984990 121.4289530 147.1045230
  34.9423940 120.1153650 146.9905590  42.2825830 115.0110090 132.7060600
  42.2019880 114.0964700 132.4352310  41.8690250 115.5077160 132.0000310
  40.4143870 116.7889110 134.5869870  39.6385970 116.3089550 134.8768440
  41.0656800 116.1094760 134.4126030  34.4309700 117.1008920 135.4645630
  33.5994580 116.8457630 135.8642140  35.0390680 117.1719690 136.2003550
  44.4351300 121.1949300 133.3669000  43.9732830 120.4236540 133.6956170
  45.2476850 121.2215370 133.8721450  34.4110960 121.1349010 135.6603650
  34.7139000 120.2446750 135.4813870  35.1554550 121.6919230 135.4325900
  32.8401650 112.0610810 129.2488020  31.9518350 112.4026780 129.1467900
  33.1242840 111.8611130 128.3568850  30.8034660 114.6616460 135.1327720
  31.3750770 113.8938660 135.1331360  30.8036200 114.9605220 134.2234330
  40.6614610 123.4807310 132.9872990  40.0426050 123.9364810 132.4167430
  41.5166390 123.6358770 132.5862690  39.8552860 119.4646300 134.5940030
  39.7861140 118.5236240 134.4329160  40.6172720 119.5547710 135.1662600
  32.0459530 110.0700820 136.9196650  31.8662370 109.1726570 137.1999410
  31.6439610 110.6172690 137.5943600  40.8858030 112.2716680 134.8208960
  41.2622850 111.3988560 134.7082630  40.7877540 112.6075380 133.9299400
  35.0163040 110.6442310 130.2826400  35.1229790 111.5446040 130.5895160
  34.1055400 110.5960280 129.9921050  44.6682150 109.7667120 131.7537300
  45.4891770 109.2763690 131.7962780  44.7016230 110.3564780 132.5069140
  32.6646200 112.5661320 135.5278990  33.3456310 112.8299690 136.1466390
  32.3494250 111.7262190 135.8617000  36.8570770 113.6128680 134.6151580
  37.3648990 114.1109650 135.2556600  37.3884010 112.8363880 134.4390940
  48.9581700 111.7833870 138.3180930  48.2533870 112.1715580 137.7996040
  49.2239620 112.4784160 138.9201860  35.1406870 108.2527240 138.8815000
  35.1425310 108.7699630 138.0760900  34.3111180 107.7757420 138.8584930
  41.5277960 118.3646550 130.3804900  40.9095230 118.8296000 129.8167620
  42.0401210 119.0574030 130.7974410  36.3909720 117.8922420 137.0588500
  36.0579100 118.5191340 137.7009570  36.5676400 118.4184300 136.2790170
  44.9043630 111.7067500 134.5264840  44.1999200 111.9952390 135.1067950
  45.2655790 112.5167610 134.1664400  34.8222200 109.9637200 136.8885450
  35.1639010 110.8079250 136.5939320  33.8838010 110.1120940 137.0050790
  35.6028820 119.8603220 138.8737680  36.2202820 120.5354300 138.5922130
  34.7421940 120.2691200 138.7825180  30.8961160 119.0503080 127.7544530
  30.5189140 119.5390180 127.0229430  31.1534230 119.7228360 128.3851060
  46.5206410 121.3242630 136.7892320  45.8369930 121.9941740 136.7808990
  47.0600700 121.5223280 136.0237180  47.9730550 111.1522290 134.9174050
  47.0255460 111.1861270 135.0489480  48.2980540 111.9661240 135.3023410
  38.5050090 107.4519470 133.2130040  38.8125070 106.8966360 132.4965540
  37.5750790 107.5863930 133.0303030  44.0565150 123.1686760 135.5037500
  44.0692310 122.7649050 134.6359760  43.5040370 123.9434050 135.3998930
  45.3510570 119.8902980 130.5927670  45.2406900 118.9477310 130.7177090
  45.3478820 120.2518620 131.4790430  43.4550590 118.0716600 136.8320110
  43.8719380 117.8576710 135.9973570  44.1790410 118.3289390 137.4028730
  40.8930850 115.5168300 129.9490160  39.9660130 115.4505680 130.1778630
  41.0455670 116.4548430 129.8345400  40.8799930 111.7885300 126.9457320
  39.9403600 111.9499260 127.0309780  41.1983190 112.5070980 126.3993310
  47.4012690 116.4703820 136.9236350  46.5731320 116.5396910 136.4486480
  47.9963170 117.0558130 136.4552180  44.9228140 117.0788600 130.4525410
  44.3040560 116.7408150 129.8051710  44.9052590 116.4348360 131.1604600
  44.3654700 113.2573140 137.8691220  43.9525880 114.0826850 138.1231210
  43.6330650 112.6718180 137.6767580  36.4987490 116.0433040 132.7309890
  36.0944490 115.3310290 132.2355790  36.5850610 115.6986280 133.6197930
  36.9669190 119.7300600 134.8949100  36.6697480 119.1246070 134.2156880
  37.9169010 119.7677910 134.7838460  35.2116110 112.8176250 136.5108930
  35.7630700 112.9271590 135.7362180  35.7259620 113.1913850 137.2264160
  45.0554800 123.3032470 138.5572200  44.5785360 124.1104660 138.3644810
  44.3716590 122.6510800 138.7098410  36.0587620 119.4682290 141.5456900
  35.1616150 119.6922260 141.7930300  36.0840490 119.5917230 140.5968300
  43.0992840 116.3175410 127.4598160  43.5386120 115.4797840 127.3135980
  43.8121260 116.9504810 127.5462300  34.8858840 116.3395610 140.1214270
  34.7466610 117.2118410 140.4901670  34.0040200 115.9968420 139.9762210
  41.2088220 121.2571480 131.4279400  41.6484130 121.9995810 131.0134790
  41.1475110 121.4998050 132.3518360  36.6839190 122.2817310 142.3299420
  36.6554620 122.6860260 141.4627850  36.5204160 121.3527670 142.1671020
  46.6809980 107.5718220 125.7739200  46.3682640 107.6645050 126.6738270
  47.4422450 108.1499250 125.7236630  33.1992120 114.9378020 130.2316540
  33.0789720 115.6640110 129.6197810  32.8893010 114.1680930 129.7544450
  48.6354010 123.0644410 143.6263590  49.1113730 123.5427300 144.3052670
  49.2561170 122.9961900 142.9009090  30.8377490 118.1093160 136.0385180
  30.9157910 118.2441930 135.0940900  31.4519170 117.4009050 136.2313300
  32.0825120 119.8093350 132.4491360  31.6753200 119.9507940 131.5944960
  32.9738130 119.5253510 132.2462570  48.0387260 120.2557260 140.7863600
  48.1650320 120.0169140 139.8680780  48.0808640 119.4241800 141.2585680
  41.9004000 123.9585260 139.3558410  42.4148670 123.8693270 140.1580840
  41.0573080 124.3044960 139.6486320  43.8758400 124.2440600 128.7842410
  43.7159540 123.9543540 129.6824240  43.7105110 123.4680730 128.2487640
  36.3546780 124.0239130 130.5614030  36.1789260 123.1074670 130.3481830
  35.5002520 124.3826420 130.8011830  43.5784530 121.7528160 127.3440410
  42.8849690 121.7505450 126.6842690  44.3207390 121.3287480 126.9134580
  43.1434460 123.3790870 131.4188900  43.5991410 122.5980250 131.7327520
  43.4826980 124.0897690 131.9630080  47.8911270 112.3089720 141.7513340
  47.2755540 112.8169390 141.2228800  47.5707690 111.4088050 141.6939280
  30.8937010 119.1507330 138.5779640  31.0568050 118.6812690 137.7599010
  31.3589460 118.6430890 139.2428480  35.6655780 108.2813090 133.6140210
  35.2223930 109.0622630 133.2824730  36.2240770 108.6042980 134.3211150
  39.9525590 111.1481610 139.2175530  39.4904960 111.3564630 140.0295470
  39.5503700 110.3340960 138.9146200  44.9530100 112.3690560 140.3472190
  44.1023690 112.0696310 140.6681260  44.7931890 112.6132570 139.4356010
  42.0479810 113.8692310 142.4470980  42.3733220 113.0356060 142.1073210
  42.8360140 114.3920830 142.5949310  38.7814600 107.9023790 128.4946040
  38.1568780 107.8983660 129.2199350  38.6944720 107.0354750 128.0982010
  37.7031680 108.8260420 135.4729810  38.0004010 109.7323250 135.3921830
  38.2517240 108.3379200 134.8589380  35.4570000 113.4046660 131.3421460
  35.2310920 113.1883830 132.2468080  34.6762530 113.8375120 130.9967430
  42.6867760 113.4110030 129.9412110  42.0876650 114.1345830 129.7575730
  43.2347370 113.3486810 129.1588560  37.8969210 114.3032240 142.0081730
  37.8012810 113.3626970 141.8582130  38.7401190 114.5247310 141.6129800
  41.2932630 112.0473570 131.9715390  41.6862200 112.3645770 131.1584080
  41.6549480 111.1685450 132.0859910  33.0279750 110.7145910 140.1615510
  32.6343140 111.5621120 140.3688290  32.3398150 110.0772280 140.3524150
  39.6024800 110.7980880 143.2312250  38.9123120 110.6053080 143.8658340
  40.3457100 111.0815520 143.7636550  30.3296800 108.6374370 134.1945590
  30.0409850 109.2077230 134.9070570  31.0742560 108.1578820 134.5576820
  30.5167030 112.5794490 125.4048310  30.4341700 113.5225250 125.5463300
  30.1650090 112.4369400 124.5260660  41.8787770 114.6379320 136.0666170
  41.1468890 115.1466130 136.4156270  41.4812110 113.8209300 135.7654950
  38.3165160 111.3133520 134.4718660  38.3201220 110.8723470 133.6223200
  39.2116280 111.6350850 134.5790480  34.1667540 111.1960010 133.4312870
  33.8267590 111.6735240 134.1879920  33.4044860 110.7425130 133.0713970
  38.3785310 112.3145600 127.4625420  38.4998130 112.2732080 128.4111240
  37.9933820 113.1769750 127.3072150  42.3413680 110.0913000 135.4789110
  42.3586420 110.5421650 136.3230960  42.0929260 109.1918640 135.6922550
  37.3906810 114.6246740 126.8608720  36.8223710 114.1764990 126.2344630
  38.0995810 114.9839520 126.3273870  45.7684430 107.5045180 141.3175490
  46.0930200 106.7734840 141.8433470  45.8040940 107.1858820 140.4156480
  32.4675990 118.5258760 140.7375450  32.0830780 117.8852430 141.3358410
  32.7788180 119.2294880 141.3070180  38.6173130 115.3735300 136.2184070
  38.9843260 114.8993870 136.9645410  38.4278190 116.2476870 136.5592410
  31.4813620 110.1178990 132.3477540  31.1960540 109.7534660 133.1856160
  31.4192480 109.3859450 131.7340680  36.4072500 114.4143940 138.5368280
  36.1029570 115.2935920 138.7618640  37.3618960 114.4743730 138.5725720
  34.9354290 118.6204930 129.1335130  34.1616550 118.0802550 128.9733850
  35.6648920 118.1011540 128.7952890  45.6942270 117.6170290 134.9261520
  46.4141390 118.1125580 134.5357630  45.4924090 116.9388180 134.2815390
  41.1552210 109.0108250 129.0690910  40.3416820 108.5121420 128.9936220
  40.9614160 109.8506500 128.6527260  41.0761070 117.6879350 140.8130520
  41.0098380 116.7675020 140.5588110  40.4466210 117.7854790 141.5275160
  43.8700600 113.3827900 127.3653070  44.7580220 113.6945130 127.1904410
  43.8405690 112.5100150 126.9733650  34.9791690 118.2885310 132.7713940
  35.4970360 117.4853570 132.7170830  34.5275710 118.2264450 133.6130770
  39.8661190 119.5551590 128.0441240  40.2076890 120.2993820 127.5484560
  39.0373900 119.8682710 128.4066070  32.4636230 115.2546680 139.6839640
  32.1051170 115.9200530 140.2712980  32.1690790 114.4230230 140.0552260
  35.6649350 115.7130920 142.5679190  35.3649490 115.8588100 141.6707010
  36.4360590 115.1536210 142.4752580  41.0077800 120.5099920 140.5634320
  41.0222340 119.5780880 140.3453230  40.3002900 120.5959680 141.2024090
  46.1414870 114.6939740 126.8332930  46.0578590 115.1253960 125.9829370
  46.8609060 115.1538090 127.2659750  47.2189010 117.1507260 139.9102900
  46.4937200 117.7436040 139.7132290  47.7464470 117.1430800 139.1116270
  47.1702120 121.5482000 129.5615060  46.5278280 120.8937620 129.8358780
  46.7832780 121.9537090 128.7855730  42.7488600 118.8767430 133.4086750
  43.1012420 118.2795560 132.7488120  41.8650930 118.5511660 133.5795000
  38.8351880 119.6365120 130.8157160  39.5223010 120.1834330 131.1964750
  38.0484300 120.1805850 130.8506770  30.9744280 115.2537940 126.3074240
  31.8439130 115.5362740 126.5910160  30.4834600 116.0673810 126.1923050
  38.1379090 116.6411150 130.4282520  38.5941870 117.4516400 130.6542710
  37.7867300 116.3234290 131.2601010  40.4411700 122.1517490 137.6574820
  41.0853920 122.3576870 138.3348240  40.8041140 121.3905890 137.2045670
  34.0390870 106.9848800 130.9005040  33.9105500 106.9766700 131.8489960
  33.2152890 107.3231890 130.5496050  41.7143780 120.1549840 136.3752270
  42.3566010 119.4543000 136.4884440  42.2393130 120.9348280 136.1949160
  45.5599500 120.4398460 126.0991410  45.3337080 119.7228900 126.6916050
  45.1695700 120.1910900 125.2613160  43.4881400 120.9544740 139.5788330
  43.8237640 121.5411430 140.2566250  42.5681740 120.8237450 139.8086120
  31.3415530 124.4665320 126.8735870  31.7013170 125.0654660 126.2193140
  31.2007870 125.0125210 127.6470900  31.0384800 108.7439920 140.3611740
  30.3243320 108.9436840 140.9664350  31.4579840 107.9679490 140.7326540
  45.1415750 118.3570400 127.7605570  44.8537450 118.8183090 128.5483450
  45.9367920 117.8968170 128.0289790  31.3257390 122.7320180 141.3478270
  31.4348510 121.7914920 141.2073660  30.6737950 122.9974930 140.6992000
  39.3169980 121.0036070 142.7476390  38.9966850 120.2845310 143.2922080
  38.6428340 121.6791140 142.8212450  37.3584150 121.8496520 127.6909540
  37.3494250 122.5826210 127.0754050  36.4382510 121.6028100 127.7836500
  32.9590790 117.0711410 128.4356300  32.3518740 117.8110310 128.4451600
  33.4340140 117.1610770 127.6094500  42.5323580 111.2362230 138.1113190
  42.9004400 110.4157440 138.4392760  41.6721780 111.2964120 138.5268840
  45.8985610 110.1919170 128.9200750  45.2698770 110.2964840 128.2058980
  45.4037530 110.4115950 129.7094630  40.3443750 121.9124760 126.3534730
  40.4455730 121.7088750 125.4236710  39.4445490 121.6583040 126.5582510
  37.8669640 112.4705120 130.3358630  37.1585790 112.9391460 130.7772240
  38.1514120 111.8127130 130.9703820  39.4925570 113.8901820 138.3351160
  39.9910820 114.3647640 139.0003010  39.6348520 112.9665340 138.5421190
  41.8985070 109.1955780 131.7754420  41.7752850 109.2141910 130.8263930
  42.8469630 109.2434720 131.8952820  38.9861860 124.4311080 131.0482400
  39.2403360 124.3932470 130.1261770  38.0374340 124.3044410 131.0410650
  36.0704660 110.7790200 127.7109340  36.9195190 111.2160350 127.6449530
  35.7035930 111.0910460 128.5381400  46.6992430 110.1069780 139.1779550
  46.1966030 110.8475180 139.5173360  47.5149090 110.4953780 138.8616340
  44.9914440 115.3502960 132.6240910  44.0504580 115.3653190 132.7988600
  45.3058510 114.5638920 133.0701210  34.9696080 117.0322560 126.1844870
  35.7359350 116.9203920 126.7470300  35.0470770 116.3360530 125.5321640
  33.6642840 114.4647630 126.8677760  33.7446430 113.5175140 126.9795160
  34.5562590 114.7954510 126.9738420  46.9940020 122.5211810 134.2995170
  47.1187440 123.3442980 134.7718980  47.8605580 122.3102540 133.9519320
  34.4657550 124.6143020 133.9712300  35.2020030 124.0658480 134.2420870
  34.8498470 125.4799030 133.8318290  31.3503030 120.6816590 129.8453810
  30.4242810 120.9237730 129.8359220  31.8159460 121.5090850 129.7238560
  33.4715830 123.7989090 143.1597880  34.2728560 124.1201140 143.5733280
  32.9567650 123.4384670 143.8817790  37.5759860 123.7873330 125.7937870
  38.3688470 124.0762160 125.3419660  37.0564210 123.3565500 125.1150350
  42.3080460 119.9068960 143.1073290  41.7018620 119.9300560 142.3669040
  42.0034570 119.1752000 143.6440540  43.7380830 123.6349250 141.7182700
  44.6902580 123.5507270 141.6682940  43.5909050 124.2990960 142.3916490
  46.6290030 123.0143460 127.2174610  46.3431540 122.6008600 126.4028790
  46.4309580 123.9431170 127.0975130  31.1913640 116.2862550 142.1033930
  31.6952660 115.7069830 142.6750160  30.4521060 116.5702780 142.6410300
  38.0937260 119.0076740 125.6580220  37.9887900 118.3929090 126.3841600
  37.9261480 118.4842630 124.8743230  38.2451580 117.6933540 141.6369450
  37.4797250 118.2618540 141.5524120  38.4267540 117.4009750 140.7437680
  41.3339990 118.0696770 126.2622210  40.7850090 118.5166070 126.9064950
  41.9559250 117.5646020 126.7859880  45.3874930 119.4238870 142.1944470
  46.1284400 119.7614630 141.6911930  44.6247610 119.5930930 141.6414240
  33.2236720 114.4292140 142.9984000  33.2642060 114.1306010 143.9069230
  34.0782220 114.8299750 142.8391520  37.0015110 117.0287690 128.1587510
  37.4231530 116.8627560 129.0018900  37.1265950 116.2187920 127.6642650
  35.1642530 113.0084240 140.9658490  34.6338990 112.5175190 140.3381830
  35.8330600 113.4368440 140.4316420  39.5142750 116.0525300 125.4064610
  40.0348410 115.3374320 125.0405760  40.1611150 116.6911170 125.7065120
  44.0620590 117.4753700 140.7299680  44.4761610 117.6298780 141.5790100
  43.1271590 117.6008920 140.8925460  44.5342760 114.8149860 142.7338830
  45.1163530 114.0602180 142.6459310  44.7104530 115.3457300 141.9570310
  35.6514830 109.9746610 141.0455780  35.5571700 109.3567360 140.3206650
  35.0712220 110.7012900 140.8185690  38.4176270 108.5319850 138.0783170
  37.9693570 108.5544110 137.2328720  37.7841470 108.1338870 138.6753470
  38.8235820 117.4274180 138.6995610  39.2423930 118.2706910 138.5271850
  37.9044450 117.5646220 138.4702390  41.1599720 115.1590360 140.0833450
  41.2795930 114.5631500 140.8228290  42.0193720 115.1960050 139.6634750
  43.4987620 115.7127550 138.6595960  42.9722840 116.2370170 138.0561100
  43.8418960 116.3454940 139.2905690  35.8974010 113.1020920 125.1045670
  35.6963070 112.2388280 125.4659010  35.7266060 113.0154280 124.1667270
  36.6743240 123.7327190 139.8153340  36.1364330 124.4573250 139.4962040
  36.9277200 123.2557530 139.0250680  37.9268490 111.7011710 141.3409270
  38.5168180 111.3927560 142.0287090  37.1088730 111.2291460 141.4969170
  42.7461920 111.3177520 141.5742290  42.0577440 110.6559060 141.5092280
  43.4667940 110.8715790 142.0190750  43.3762320 107.9129150 127.6332550
  43.6564610 107.0697050 127.9891970  42.6028050 108.1452260 128.1471300
  34.6956810 110.2021540 125.0923550  34.9982710 110.2088970 124.1842700
  35.4351400 109.8519400 125.5891210  39.5305450 124.9678400 140.0739990
  39.4564150 125.8713540 140.3812360  38.6284290 124.6490300 140.0462060
  37.9141740 109.1456160 126.0779750  37.5663740 108.4680150 125.4982200
  38.1154510 108.6845670 126.8923140  40.0790780 124.1336910 127.6966350
  40.9741570 124.4721880 127.7185110  40.1108410 123.4116320 127.0690630
  33.7186940 119.5063960 125.9253350  34.1561810 120.0493630 126.5810930
  34.2034670 118.6810910 125.9349690  30.9332740 122.2952990 133.3773610
  31.2635750 121.4274050 133.1452250  31.3623740 122.5011510 134.2078570
  35.5294660 120.6262000 131.0375580  35.2290200 120.5026970 131.9379490
  35.4232150 119.7670590 130.6291310  31.4222950 123.1623580 136.1155240
  30.9853940 123.3424380 136.9479390  31.9900630 123.9198200 135.9736960
  47.0585130 122.6640580 140.4032550  46.4587120 122.7233140 139.6596470
  47.1879030 121.7245560 140.5329400  48.2986580 120.4058400 125.7402260
  47.4679540 120.4735050 126.2109490  48.4758410 121.2962520 125.4369120
  47.7543040 117.1505880 128.2436460  48.5161950 117.7202530 128.3496150
  47.7697410 116.5833080 129.0144770  31.2547380 115.6743810 132.4744120
  30.5996220 115.4055450 131.8303820  32.0925330 115.5648290 132.0246100
  48.7603010 118.0055980 133.0878390  49.1311840 117.2223300 132.6814360
  49.4004940 118.6945080 132.9095690  45.7436770 119.3892560 138.5008710
  44.9296610 119.8189720 138.7634500  46.1510970 120.0010970 137.8877760
  47.8062210 117.4440250 125.4008980  48.0811050 118.3519130 125.2728200
  47.6172950 117.3802780 126.3370970  44.2037820 110.4685100 126.6962610
  44.6222700 110.2816080 125.8559270  43.8973880 109.6164150 127.0065540
  47.7027550 115.3809240 130.3938410  47.3271150 114.6137170 129.9619700
  46.9730670 115.7631940 130.8813340  32.2923310 116.0596380 137.0147460
  32.6596350 115.9723780 137.8943480  31.7234130 115.2962930 136.9154320
  47.0927170 114.5280760 140.0277930  46.8613260 114.2993510 139.1275880
  47.3531720 115.4480310 139.9822820  31.8439310 112.9705470 140.9205880
  30.9495360 112.9372230 141.2599590  32.3836860 113.1692260 141.6857130
  45.5315240 109.7537190 142.8057630  46.4085420 109.7620590 143.1891630
  45.5436080 109.0168030 142.1949980  30.4685460 112.8842740 128.4169450
  29.5649540 113.1472940 128.2421110  30.9526080 113.1553910 127.6369410
  46.9778510 113.6066730 133.6945650  47.5015990 113.1129380 133.0635820
  47.5637930 113.7417090 134.4393220  47.1568230 113.6906600 137.2165200
  46.2070940 113.6570140 137.3310190  47.3381240 114.6006710 136.9814970
  33.0112670 111.9408280 126.3263830  33.7204370 111.5191500 125.8411110
  32.2952610 112.0083510 125.6947180  32.6586830 107.9947610 125.3666480
  33.3814960 108.5356550 125.6847700  32.9311350 107.7211030 124.4908020
  46.4678480 112.8640080 129.6338060  46.9637600 112.6310950 130.4186940
  46.2694550 112.0251920 129.2175700  32.3479020 107.2453800 135.2689100
  32.9955210 106.6951180 134.8284260  32.7680860 107.4996950 136.0904910
  47.8965640 111.5001030 132.1675740  47.7864920 111.3457070 133.1058010
  48.6573230 110.9721970 131.9251150  46.2431360 107.4395160 138.6258740
  46.8803580 108.0529300 138.9917930  46.3906250 107.4755820 137.6807970
  48.7855910 109.3308950 125.4081880  49.7105220 109.1990130 125.2000170
  48.7631700 109.4101770 126.3618330  48.8594400 110.1019610 128.0338590
  48.0645900 110.0364730 128.5631500  49.0637680 111.0370250 128.0223940
  45.8012820 124.1411160 132.0276980  46.3971890 123.8195730 131.3511400
  46.0590970 123.6682980 132.8190250  32.1011020 107.4009470 138.0114420
  31.7525840 107.8573290 138.7772600  31.7698720 106.5066600 138.0936850
  33.7075390 120.5729070 142.1767610  33.6645020 120.2021980 143.0582070
  33.8386400 121.5106640 142.3169430  37.4081420 122.1288660 137.7777330
  37.1672780 122.3963220 136.8907850  38.3484060 122.2994390 137.8328190
  39.6135840 108.5921350 141.5333840  39.5524730 109.1843180 142.2829250
  40.5536220 108.4847310 141.3884100  42.2510400 108.2491410 141.1726130
  42.8650810 108.5670700 140.5107210  42.7959960 107.7640000 141.7921990
  48.6685580 124.1483040 138.5787970  48.1743860 124.5451910 137.8615100
  48.0598870 123.5232250 138.9725250  32.7731660 106.9285670 141.2865190
  33.3214650 106.7473720 140.5231300  32.8386970 106.1379780 141.8221500
  33.5463420 123.5191320 139.2965390  32.9523740 123.3876020 140.0355430
  33.5387260 122.6829460 138.8307490  42.9918440 106.8123550 137.4995420
  42.1178280 107.1458660 137.2968350  42.8829190 106.3396730 138.3247290
  43.8990420 109.0194420 138.8837140  43.5703780 108.2046180 138.5038870
  44.8472720 108.9764230 138.7602830  46.3525030 124.7906460 135.8574710
  45.8928000 125.5422270 135.4832730  45.7237490 124.0712930 135.7989510
  33.1775650 120.8849700 138.2473430  32.4509710 120.2654990 138.1799380
  33.2384800 121.2790310 137.3771510  36.7820750 123.0994700 135.0322840
  37.2985770 122.4882060 134.5071100  37.4318130 123.6023480 135.5233850
  39.5216250 123.9903190 135.8591820  39.8094060 123.7357490 134.9824830
  40.0339470 123.4380550 136.4497390  40.7393260 107.7293390 136.4388330
  39.9565050 108.2038890 136.7185090  40.4456190 106.8248220 136.3301510
  45.2914330 108.4316490 134.4837420  45.7322420 108.3761590 133.6359020
  45.0221920 109.3474500 134.5547600  47.1552900 108.0631730 132.4946240
  47.0941300 107.1192950 132.3477260  47.9344930 108.1711820 133.0399700
  31.4605650 124.2024090 131.4570190  31.2927690 123.5694770 132.1552080
  30.5940160 124.4083490 131.1064380  32.0833670 108.0340870 128.9602050
  32.8413030 108.1469750 128.3866080  31.6210840 108.8710070 128.9145480
  38.6247480 110.1480140 131.9504360  37.8121990 109.7737030 131.6100240
  39.1289120 109.3925220 132.2525550  43.1272460 106.8122590 133.1887430
  43.7301830 107.3842800 133.6635950  42.3865450 107.3762030 132.9661330
  46.2707060 107.2144150 128.4627710  46.4657690 108.1127600 128.7295140
  45.4836930 106.9831230 128.9560660  33.0668350 122.8957320 128.9020330
  32.5415970 123.2765350 128.1982290  32.9912930 123.5208090 129.6230040
  34.4558820 108.5604920 127.5004020  34.9851580 107.7734720 127.3711970
  35.0887140 109.2396110 127.7339550  36.6496660 108.2980060 130.5549410
  36.0199400 107.5967370 130.7219540  36.1101800 109.0584190 130.3382570
  39.5888610 124.9119290 143.2260020  40.5155920 124.6763560 143.2695980
  39.5739040 125.7391290 142.7446050  47.8233670 124.4544860 130.2234270
  47.9985860 123.7682600 129.5795190  47.1255240 124.9791910 129.8310940
  36.7752220 107.5764040 142.9901900  36.4936490 108.0797640 142.2262720
  37.1571920 106.7785790 142.6244030  35.6661320 124.8439700 127.7769580
  36.3980140 124.5598980 127.2293470  35.9254990 124.6052980 128.6668960
  34.8276110 120.9604430 127.7815910  34.1984990 121.4289530 128.3301740
  34.9423940 120.1153650 128.2162100  43.3767680 106.9917620 143.5682370
  43.2633130 107.3112230 144.4633890  44.1937420 107.3930130 143.2719650
  46.1566170 124.1389150 143.0501060  46.9491490 123.6438380 142.8427020
  46.4499320 124.8179290 143.6576670  42.2825830 115.0110090 113.9317110
  42.2019880 114.0964700 113.6608820  41.8690250 115.5077160 113.2256820
  40.4143870 116.7889110 115.8126380  39.6385970 116.3089550 116.1024950
  41.0656800 116.1094760 115.6382540  34.4309700 117.1008920 116.6902140
  33.5994580 116.8457630 117.0898650  35.0390680 117.1719690 117.4260060
  34.4110960 121.1349010 116.8860160  34.7139000 120.2446750 116.7070380
  35.1554550 121.6919230 116.6582410  32.8401650 112.0610810 110.4744530
  31.9518350 112.4026780 110.3724410  33.1242840 111.8611130 109.5825360
  30.8034660 114.6616460 116.3584230  31.3750770 113.8938660 116.3587870
  30.8036200 114.9605220 115.4490840  40.6614610 123.4807310 114.2129500
  40.0426050 123.9364810 113.6423940  41.5166390 123.6358770 113.8119200
  39.8552860 119.4646300 115.8196540  39.7861140 118.5236240 115.6585670
  40.6172720 119.5547710 116.3919110  32.0459530 110.0700820 118.1453160
  31.8662370 109.1726570 118.4255920  31.6439610 110.6172690 118.8200110
  40.8858030 112.2716680 116.0465470  41.2622850 111.3988560 115.9339140
  40.7877540 112.6075380 115.1555910  35.0163040 110.6442310 111.5082910
  35.1229790 111.5446040 111.8151670  34.1055400 110.5960280 111.2177560
  44.6682150 109.7667120 112.9793810  45.4891770 109.2763690 113.0219290
  44.7016230 110.3564780 113.7325650  32.6646200 112.5661320 116.7535500
  33.3456310 112.8299690 117.3722900  32.3494250 111.7262190 117.0873510
  36.8570770 113.6128680 115.8408090  37.3648990 114.1109650 116.4813110
  37.3884010 112.8363880 115.6647450  35.1406870 108.2527240 120.1071510
  35.1425310 108.7699630 119.3017410  34.3111180 107.7757420 120.0841440
  41.5277960 118.3646550 111.6061410  40.9095230 118.8296000 111.0424130
  42.0401210 119.0574030 112.0230920  36.3909720 117.8922420 118.2845010
  36.0579100 118.5191340 118.9266080  36.5676400 118.4184300 117.5046680
  44.9043630 111.7067500 115.7521350  44.1999200 111.9952390 116.3324460
  45.2655790 112.5167610 115.3920910  34.8222200 109.9637200 118.1141960
  35.1639010 110.8079250 117.8195830  33.8838010 110.1120940 118.2307300
  35.6028820 119.8603220 120.0994190  36.2202820 120.5354300 119.8178640
  34.7421940 120.2691200 120.0081690  30.8961160 119.0503080 108.9801040
  30.5189140 119.5390180 108.2485940  31.1534230 119.7228360 109.6107570
  44.0565150 123.1686760 116.7294010  44.0692310 122.7649050 115.8616270
  43.5040370 123.9434050 116.6255440  45.3510570 119.8902980 111.8184180
  45.2406900 118.9477310 111.9433600  45.3478820 120.2518620 112.7046940
  43.4550590 118.0716600 118.0576620  43.8719380 117.8576710 117.2230080
  44.1790410 118.3289390 118.6285240  40.8930850 115.5168300 111.1746670
  39.9660130 115.4505680 111.4035140  41.0455670 116.4548430 111.0601910
  44.9228140 117.0788600 111.6781920  44.3040560 116.7408150 111.0308220
  44.9052590 116.4348360 112.3861110  44.3654700 113.2573140 119.0947730
  43.9525880 114.0826850 119.3487720  43.6330650 112.6718180 118.9024090
  36.4987490 116.0433040 113.9566400  36.0944490 115.3310290 113.4612300
  36.5850610 115.6986280 114.8454440  36.9669190 119.7300600 116.1205610
  36.6697480 119.1246070 115.4413390  37.9169010 119.7677910 116.0094970
  35.2116110 112.8176250 117.7365440  35.7630700 112.9271590 116.9618690
  35.7259620 113.1913850 118.4520670  45.0554800 123.3032470 119.7828710
  44.5785360 124.1104660 119.5901320  44.3716590 122.6510800 119.9354920
  36.0587620 119.4682290 122.7713410  35.1616150 119.6922260 123.0186810
  36.0840490 119.5917230 121.8224810  43.0992840 116.3175410 108.6854670
  43.5386120 115.4797840 108.5392490  43.8121260 116.9504810 108.7718810
  34.8858840 116.3395610 121.3470780  34.7466610 117.2118410 121.7158180
  34.0040200 115.9968420 121.2018720  41.2088220 121.2571480 112.6535910
  41.6484130 121.9995810 112.2391300  41.1475110 121.4998050 113.5774870
  36.6839190 122.2817310 123.5555930  36.6554620 122.6860260 122.6884360
  36.5204160 121.3527670 123.3927530  46.6809980 107.5718220 106.9995710
  46.3682640 107.6645050 107.8994780  47.4422450 108.1499250 106.9493140
  33.1992120 114.9378020 111.4573050  33.0789720 115.6640110 110.8454320
  32.8893010 114.1680930 110.9800960  48.6354010 123.0644410 124.8520100
  49.1113730 123.5427300 125.5309180  49.2561170 122.9961900 124.1265600
  30.8377490 118.1093160 117.2641690  30.9157910 118.2441930 116.3197410
  31.4519170 117.4009050 117.4569810  32.0825120 119.8093350 113.6747870
  31.6753200 119.9507940 112.8201470  32.9738130 119.5253510 113.4719080
  41.9004000 123.9585260 120.5814920  42.4148670 123.8693270 121.3837350
  41.0573080 124.3044960 120.8742830  43.8758400 124.2440600 110.0098920
  43.7159540 123.9543540 110.9080750  43.7105110 123.4680730 109.4744150
  36.3546780 124.0239130 111.7870540  36.1789260 123.1074670 111.5738340
  35.5002520 124.3826420 112.0268340  43.5784530 121.7528160 108.5696920
  42.8849690 121.7505450 107.9099200  44.3207390 121.3287480 108.1391090
  43.1434460 123.3790870 112.6445410  43.5991410 122.5980250 112.9584030
  43.4826980 124.0897690 113.1886590  47.8911270 112.3089720 122.9769850
  47.2755540 112.8169390 122.4485310  47.5707690 111.4088050 122.9195790
  30.8937010 119.1507330 119.8036150  31.0568050 118.6812690 118.9855520
  31.3589460 118.6430890 120.4684990  39.9525590 111.1481610 120.4432040
  39.4904960 111.3564630 121.2551980  39.5503700 110.3340960 120.1402710
  44.9530100 112.3690560 121.5728700  44.1023690 112.0696310 121.8937770
  44.7931890 112.6132570 120.6612520  42.0479810 113.8692310 123.6727490
  42.3733220 113.0356060 123.3329720  42.8360140 114.3920830 123.8205820
  35.4570000 113.4046660 112.5677970  35.2310920 113.1883830 113.4724590
  34.6762530 113.8375120 112.2223940  42.6867760 113.4110030 111.1668620
  42.0876650 114.1345830 110.9832240  43.2347370 113.3486810 110.3845070
  37.8969210 114.3032240 123.2338240  37.8012810 113.3626970 123.0838640
  38.7401190 114.5247310 122.8386310  33.0279750 110.7145910 121.3872020
  32.6343140 111.5621120 121.5944800  32.3398150 110.0772280 121.5780660
  39.6024800 110.7980880 124.4568760  38.9123120 110.6053080 125.0914850
  40.3457100 111.0815520 124.9893060  30.3296800 108.6374370 115.4202100
  30.0409850 109.2077230 116.1327080  31.0742560 108.1578820 115.7833330
  30.5167030 112.5794490 106.6304820  30.4341700 113.5225250 106.7719810
  30.1650090 112.4369400 105.7517170  41.8787770 114.6379320 117.2922680
  41.1468890 115.1466130 117.6412780  41.4812110 113.8209300 116.9911460
  34.1667540 111.1960010 114.6569380  33.8267590 111.6735240 115.4136430
  33.4044860 110.7425130 114.2970480  45.7684430 107.5045180 122.5432000
  46.0930200 106.7734840 123.0689980  45.8040940 107.1858820 121.6412990
  32.4675990 118.5258760 121.9631960  32.0830780 117.8852430 122.5614920
  32.7788180 119.2294880 122.5326690  38.6173130 115.3735300 117.4440580
  38.9843260 114.8993870 118.1901920  38.4278190 116.2476870 117.7848920
  36.4072500 114.4143940 119.7624790  36.1029570 115.2935920 119.9875150
  37.3618960 114.4743730 119.7982230  34.9354290 118.6204930 110.3591640
  34.1616550 118.0802550 110.1990360  35.6648920 118.1011540 110.0209400
  41.0761070 117.6879350 122.0387030  41.0098380 116.7675020 121.7844620
  40.4466210 117.7854790 122.7531670  43.8700600 113.3827900 108.5909580
  44.7580220 113.6945130 108.4160920  43.8405690 112.5100150 108.1990160
  34.9791690 118.2885310 113.9970450  35.4970360 117.4853570 113.9427340
  34.5275710 118.2264450 114.8387280  32.4636230 115.2546680 120.9096150
  32.1051170 115.9200530 121.4969490  32.1690790 114.4230230 121.2808770
  35.6649350 115.7130920 123.7935700  35.3649490 115.8588100 122.8963520
  36.4360590 115.1536210 123.7009090  41.0077800 120.5099920 121.7890830
  41.0222340 119.5780880 121.5709740  40.3002900 120.5959680 122.4280600
  46.1414870 114.6939740 108.0589440  46.0578590 115.1253960 107.2085880
  46.8609060 115.1538090 108.4916260  42.7488600 118.8767430 114.6343260
  43.1012420 118.2795560 113.9744630  41.8650930 118.5511660 114.8051510
  38.8351880 119.6365120 112.0413670  39.5223010 120.1834330 112.4221260
  38.0484300 120.1805850 112.0763280  30.9744280 115.2537940 107.5330750
  31.8439130 115.5362740 107.8166670  30.4834600 116.0673810 107.4179560
  38.1379090 116.6411150 111.6539030  38.5941870 117.4516400 111.8799220
  37.7867300 116.3234290 112.4857520  40.4411700 122.1517490 118.8831330
  41.0853920 122.3576870 119.5604750  40.8041140 121.3905890 118.4302180
  41.7143780 120.1549840 117.6008780  42.3566010 119.4543000 117.7140950
  42.2393130 120.9348280 117.4205670  45.5599500 120.4398460 107.3247920
  45.3337080 119.7228900 107.9172560  45.1695700 120.1910900 106.4869670
  43.4881400 120.9544740 120.8044840  43.8237640 121.5411430 121.4822760
  42.5681740 120.8237450 121.0342630  31.3415530 124.4665320 108.0992380
  31.7013170 125.0654660 107.4449650  31.2007870 125.0125210 108.8727410
  31.0384800 108.7439920 121.5868250  30.3243320 108.9436840 122.1920860
  31.4579840 107.9679490 121.9583050  45.1415750 118.3570400 108.9862080
  44.8537450 118.8183090 109.7739960  45.9367920 117.8968170 109.2546300
  31.3257390 122.7320180 122.5734780  31.4348510 121.7914920 122.4330170
  30.6737950 122.9974930 121.9248510  39.3169980 121.0036070 123.9732900
  38.9966850 120.2845310 124.5178590  38.6428340 121.6791140 124.0468960
  32.9590790 117.0711410 109.6612810  32.3518740 117.8110310 109.6708110
  33.4340140 117.1610770 108.8351010  42.5323580 111.2362230 119.3369700
  42.9004400 110.4157440 119.6649270  41.6721780 111.2964120 119.7525350
  45.8985610 110.1919170 110.1457260  45.2698770 110.2964840 109.4315490
  45.4037530 110.4115950 110.9351140  39.4925570 113.8901820 119.5607670
  39.9910820 114.3647640 120.2259520  39.6348520 112.9665340 119.7677700
  38.9861860 124.4311080 112.2738910  39.2403360 124.3932470 111.3518280
  38.0374340 124.3044410 112.2667160  46.6992430 110.1069780 120.4036060
  46.1966030 110.8475180 120.7429870  47.5149090 110.4953780 120.0872850
  34.4657550 124.6143020 115.1968810  35.2020030 124.0658480 115.4677380
  34.8498470 125.4799030 115.0574800  31.3503030 120.6816590 111.0710320
  30.4242810 120.9237730 111.0615730  31.8159460 121.5090850 110.9495070
  33.4715830 123.7989090 124.3854390  34.2728560 124.1201140 124.7989790
  32.9567650 123.4384670 125.1074300  42.3080460 119.9068960 124.3329800
  41.7018620 119.9300560 123.5925550  42.0034570 119.1752000 124.8697050
  43.7380830 123.6349250 122.9439210  44.6902580 123.5507270 122.8939450
  43.5909050 124.2990960 123.6173000  46.6290030 123.0143460 108.4431120
  46.3431540 122.6008600 107.6285300  46.4309580 123.9431170 108.3231640
  31.1913640 116.2862550 123.3290440  31.6952660 115.7069830 123.9006670
  30.4521060 116.5702780 123.8666810  38.2451580 117.6933540 122.8625960
  37.4797250 118.2618540 122.7780630  38.4267540 117.4009750 121.9694190
  45.3874930 119.4238870 123.4200980  46.1284400 119.7614630 122.9168440
  44.6247610 119.5930930 122.8670750  33.2236720 114.4292140 124.2240510
  33.2642060 114.1306010 125.1325740  34.0782220 114.8299750 124.0648030
  37.0015110 117.0287690 109.3844020  37.4231530 116.8627560 110.2275410
  37.1265950 116.2187920 108.8899160  35.1642530 113.0084240 122.1915000
  34.6338990 112.5175190 121.5638340  35.8330600 113.4368440 121.6572930
  39.5142750 116.0525300 106.6321120  40.0348410 115.3374320 106.2662270
  40.1611150 116.6911170 106.9321630  44.0620590 117.4753700 121.9556190
  44.4761610 117.6298780 122.8046610  43.1271590 117.6008920 122.1181970
  44.5342760 114.8149860 123.9595340  45.1163530 114.0602180 123.8715820
  44.7104530 115.3457300 123.1826820  35.6514830 109.9746610 122.2712290
  35.5571700 109.3567360 121.5463160  35.0712220 110.7012900 122.0442200
  38.8235820 117.4274180 119.9252120  39.2423930 118.2706910 119.7528360
  37.9044450 117.5646220 119.6958900  41.1599720 115.1590360 121.3089960
  41.2795930 114.5631500 122.0484800  42.0193720 115.1960050 120.8891260
  43.4987620 115.7127550 119.8852470  42.9722840 116.2370170 119.2817610
  43.8418960 116.3454940 120.5162200  36.6743240 123.7327190 121.0409850
  36.1364330 124.4573250 120.7218550  36.9277200 123.2557530 120.2507190
  37.9268490 111.7011710 122.5665780  38.5168180 111.3927560 123.2543600
  37.1088730 111.2291460 122.7225680  42.7461920 111.3177520 122.7998800
  42.0577440 110.6559060 122.7348790  43.4667940 110.8715790 123.2447260
  43.3762320 107.9129150 108.8589060  43.6564610 107.0697050 109.2148480
  42.6028050 108.1452260 109.3727810  39.5305450 124.9678400 121.2996500
  39.4564150 125.8713540 121.6068870  38.6284290 124.6490300 121.2718570
  40.0790780 124.1336910 108.9222860  40.9741570 124.4721880 108.9441620
  40.1108410 123.4116320 108.2947140  33.7186940 119.5063960 107.1509860
  34.1561810 120.0493630 107.8067440  34.2034670 118.6810910 107.1606200
  30.9332740 122.2952990 114.6030120  31.2635750 121.4274050 114.3708760
  31.3623740 122.5011510 115.4335080  35.5294660 120.6262000 112.2632090
  35.2290200 120.5026970 113.1636000  35.4232150 119.7670590 111.8547820
  31.4222950 123.1623580 117.3411750  30.9853940 123.3424380 118.1735900
  31.9900630 123.9198200 117.1993470  47.0585130 122.6640580 121.6289060
  46.4587120 122.7233140 120.8852980  47.1879030 121.7245560 121.7585910
  31.2547380 115.6743810 113.7000630  30.5996220 115.4055450 113.0560330
  32.0925330 115.5648290 113.2502610  45.7436770 119.3892560 119.7265220
  44.9296610 119.8189720 119.9891010  46.1510970 120.0010970 119.1134270
  44.2037820 110.4685100 107.9219120  44.6222700 110.2816080 107.0815780
  43.8973880 109.6164150 108.2322050  32.2923310 116.0596380 118.2403970
  32.6596350 115.9723780 119.1199990  31.7234130 115.2962930 118.1410830
  47.0927170 114.5280760 121.2534440  46.8613260 114.2993510 120.3532390
  47.3531720 115.4480310 121.2079330  31.8439310 112.9705470 122.1462390
  30.9495360 112.9372230 122.4856100  32.3836860 113.1692260 122.9113640
  45.5315240 109.7537190 124.0314140  46.4085420 109.7620590 124.4148140
  45.5436080 109.0168030 123.4206490  30.4685460 112.8842740 109.6425960
  29.5649540 113.1472940 109.4677620  30.9526080 113.1553910 108.8625920
  47.1568230 113.6906600 118.4421710  46.2070940 113.6570140 118.5566700
  47.3381240 114.6006710 118.2071480  46.4678480 112.8640080 110.8594570
  46.9637600 112.6310950 111.6443450  46.2694550 112.0251920 110.4432210
  32.3479020 107.2453800 116.4945610  32.9955210 106.6951180 116.0540770
  32.7680860 107.4996950 117.3161420  46.2431360 107.4395160 119.8515250
  46.8803580 108.0529300 120.2174440  46.3906250 107.4755820 118.9064480
  45.8012820 124.1411160 113.2533490  46.3971890 123.8195730 112.5767910
  46.0590970 123.6682980 114.0446760  32.1011020 107.4009470 119.2370930
  31.7525840 107.8573290 120.0029110  31.7698720 106.5066600 119.3193360
  33.7075390 120.5729070 123.4024120  33.6645020 120.2021980 124.2838580
  33.8386400 121.5106640 123.5425940  37.4081420 122.1288660 119.0033840
  37.1672780 122.3963220 118.1164360  38.3484060 122.2994390 119.0584700
  48.6685580 124.1483040 119.8044480  48.1743860 124.5451910 119.0871610
  48.0598870 123.5232250 120.1981760  32.7731660 106.9285670 122.5121700
  33.3214650 106.7473720 121.7487810  32.8386970 106.1379780 123.0478010
  33.5463420 123.5191320 120.5221900  32.9523740 123.3876020 121.2611940
  33.5387260 122.6829460 120.0564000  46.3525030 124.7906460 117.0831220
  45.8928000 125.5422270 116.7089240  45.7237490 124.0712930 117.0246020
  33.1775650 120.8849700 119.4729940  32.4509710 120.2654990 119.4055890
  33.2384800 121.2790310 118.6028020  36.7820750 123.0994700 116.2579350
  37.2985770 122.4882060 115.7327610  37.4318130 123.6023480 116.7490360
  39.5216250 123.9903190 117.0848330  39.8094060 123.7357490 116.2081340
  40.0339470 123.4380550 117.6753900  45.2914330 108.4316490 115.7093930
  45.7322420 108.3761590 114.8615530  45.0221920 109.3474500 115.7804110
  47.1552900 108.0631730 113.7202750  47.0941300 107.1192950 113.5733770
  47.9344930 108.1711820 114.2656210  31.4605650 124.2024090 112.6826700
  31.2927690 123.5694770 113.3808590  30.5940160 124.4083490 112.3320890
  43.1272460 106.8122590 114.4143940  43.7301830 107.3842800 114.8892460
  42.3865450 107.3762030 114.1917840  46.2707060 107.2144150 109.6884220
  46.4657690 108.1127600 109.9551650  45.4836930 106.9831230 110.1817170
  33.0668350 122.8957320 110.1276840  32.5415970 123.2765350 109.4238800
  32.9912930 123.5208090 110.8486550  39.5888610 124.9119290 124.4516530
  40.5155920 124.6763560 124.4952490  39.5739040 125.7391290 123.9702560
  36.7752220 107.5764040 124.2158410  36.4936490 108.0797640 123.4519230
  37.1571920 106.7785790 123.8500540  35.6661320 124.8439700 109.0026090
  36.3980140 124.5598980 108.4549980  35.9254990 124.6052980 109.8925470
  34.8276110 120.9604430 109.0072420  34.1984990 121.4289530 109.5558250
  34.9423940 120.1153650 109.4418610  43.3767680 106.9917620 124.7938880
  43.2633130 107.3112230 125.6890400  44.1937420 107.3930130 124.4976160
  46.1566170 124.1389150 124.2757570  46.9491490 123.6438380 124.0683530
  46.4499320 124.8179290 124.8833180  32.8401650 112.0610810  91.7001040
  31.9518350 112.4026780  91.5980920  33.1242840 111.8611130  90.8081870
  30.8034660 114.6616460  97.5840740  31.3750770 113.8938660  97.5844380
  30.8036200 114.9605220  96.6747350  40.8858030 112.2716680  97.2721980
  41.2622850 111.3988560  97.1595650  40.7877540 112.6075380  96.3812420
  35.0163040 110.6442310  92.7339420  35.1229790 111.5446040  93.0408180
  34.1055400 110.5960280  92.4434070  44.6682150 109.7667120  94.2050320
  45.4891770 109.2763690  94.2475800  44.7016230 110.3564780  94.9582160
  32.6646200 112.5661320  97.9792010  33.3456310 112.8299690  98.5979410
  32.3494250 111.7262190  98.3130020  36.8570770 113.6128680  97.0664600
  37.3648990 114.1109650  97.7069620  37.3884010 112.8363880  96.8903960
  41.5277960 118.3646550  92.8317920  40.9095230 118.8296000  92.2680640
  42.0401210 119.0574030  93.2487430  44.9043630 111.7067500  96.9777860
  44.1999200 111.9952390  97.5580970  45.2655790 112.5167610  96.6177420
  34.8222200 109.9637200  99.3398470  35.1639010 110.8079250  99.0452340
  33.8838010 110.1120940  99.4563810  38.5050090 107.4519470  95.6643060
  38.8125070 106.8966360  94.9478560  37.5750790 107.5863930  95.4816050
  40.8799930 111.7885300  89.3970340  39.9403600 111.9499260  89.4822800
  41.1983190 112.5070980  88.8506330  44.3654700 113.2573140 100.3204240
  43.9525880 114.0826850 100.5744230  43.6330650 112.6718180 100.1280600
  35.2116110 112.8176250  98.9621950  35.7630700 112.9271590  98.1875200
  35.7259620 113.1913850  99.6777180  41.2088220 121.2571480  93.8792420
  41.6484130 121.9995810  93.4647810  41.1475110 121.4998050  94.8031380
  43.8758400 124.2440600  91.2355430  43.7159540 123.9543540  92.1337260
  43.7105110 123.4680730  90.7000660  36.3546780 124.0239130  93.0127050
  36.1789260 123.1074670  92.7994850  35.5002520 124.3826420  93.2524850
  43.5784530 121.7528160  89.7953430  42.8849690 121.7505450  89.1355710
  44.3207390 121.3287480  89.3647600  43.1434460 123.3790870  93.8701920
  43.5991410 122.5980250  94.1840540  43.4826980 124.0897690  94.4143100
  47.8911270 112.3089720 104.2026360  47.2755540 112.8169390 103.6741820
  47.5707690 111.4088050 104.1452300  39.9525590 111.1481610 101.6688550
  39.4904960 111.3564630 102.4808490  39.5503700 110.3340960 101.3659220
  44.9530100 112.3690560 102.7985210  44.1023690 112.0696310 103.1194280
  44.7931890 112.6132570 101.8869030  42.0479810 113.8692310 104.8984000
  42.3733220 113.0356060 104.5586230  42.8360140 114.3920830 105.0462330
  38.7814600 107.9023790  90.9459060  38.1568780 107.8983660  91.6712370
  38.6944720 107.0354750  90.5495030  37.7031680 108.8260420  97.9242830
  38.0004010 109.7323250  97.8434850  38.2517240 108.3379200  97.3102400
  33.0279750 110.7145910 102.6128530  32.6343140 111.5621120 102.8201310
  32.3398150 110.0772280 102.8037170  30.5167030 112.5794490  87.8561330
  30.4341700 113.5225250  87.9976320  30.1650090 112.4369400  86.9773680
  38.3165160 111.3133520  96.9231680  38.3201220 110.8723470  96.0736220
  39.2116280 111.6350850  97.0303500  34.1667540 111.1960010  95.8825890
  33.8267590 111.6735240  96.6392940  33.4044860 110.7425130  95.5226990
  38.3785310 112.3145600  89.9138440  38.4998130 112.2732080  90.8624260
  37.9933820 113.1769750  89.7585170  45.7684430 107.5045180 103.7688510
  46.0930200 106.7734840 104.2946490  45.8040940 107.1858820 102.8669500
  41.1552210 109.0108250  91.5203930  40.3416820 108.5121420  91.4449240
  40.9614160 109.8506500  91.1040280  41.0761070 117.6879350 103.2643540
  41.0098380 116.7675020 103.0101130  40.4466210 117.7854790 103.9788180
  43.8700600 113.3827900  89.8166090  44.7580220 113.6945130  89.6417430
  43.8405690 112.5100150  89.4246670  39.8661190 119.5551590  90.4954260
  40.2076890 120.2993820  89.9997580  39.0373900 119.8682710  90.8579090
  32.4636230 115.2546680 102.1352660  32.1051170 115.9200530 102.7226000
  32.1690790 114.4230230 102.5065280  46.1414870 114.6939740  89.2845950
  46.0578590 115.1253960  88.4342390  46.8609060 115.1538090  89.7172770
  47.1702120 121.5482000  92.0128080  46.5278280 120.8937620  92.2871800
  46.7832780 121.9537090  91.2368750  45.5599500 120.4398460  88.5504430
  45.3337080 119.7228900  89.1429070  45.1695700 120.1910900  87.7126180
  31.3415530 124.4665320  89.3248890  31.7013170 125.0654660  88.6706160
  31.2007870 125.0125210  90.0983920  31.0384800 108.7439920 102.8124760
  30.3243320 108.9436840 103.4177370  31.4579840 107.9679490 103.1839560
  31.3257390 122.7320180 103.7991290  31.4348510 121.7914920 103.6586680
  30.6737950 122.9974930 103.1505020  37.3584150 121.8496520  90.1422560
  37.3494250 122.5826210  89.5267070  36.4382510 121.6028100  90.2349520
  42.5323580 111.2362230 100.5626210  42.9004400 110.4157440 100.8905780
  41.6721780 111.2964120 100.9781860  40.3443750 121.9124760  88.8047750
  40.4455730 121.7088750  87.8749730  39.4445490 121.6583040  89.0095530
  37.8669640 112.4705120  92.7871650  37.1585790 112.9391460  93.2285260
  38.1514120 111.8127130  93.4216840  39.4925570 113.8901820 100.7864180
  39.9910820 114.3647640 101.4516030  39.6348520 112.9665340 100.9934210
  41.8985070 109.1955780  94.2267440  41.7752850 109.2141910  93.2776950
  42.8469630 109.2434720  94.3465840  38.9861860 124.4311080  93.4995420
  39.2403360 124.3932470  92.5774790  38.0374340 124.3044410  93.4923670
  36.0704660 110.7790200  90.1622360  36.9195190 111.2160350  90.0962550
  35.7035930 111.0910460  90.9894420  46.6992430 110.1069780 101.6292570
  46.1966030 110.8475180 101.9686380  47.5149090 110.4953780 101.3129360
  34.4657550 124.6143020  96.4225320  35.2020030 124.0658480  96.6933890
  34.8498470 125.4799030  96.2831310  33.4715830 123.7989090 105.6110900
  34.2728560 124.1201140 106.0246300  32.9567650 123.4384670 106.3330810
  43.7380830 123.6349250 104.1695720  44.6902580 123.5507270 104.1195960
  43.5909050 124.2990960 104.8429510  46.6290030 123.0143460  89.6687630
  46.3431540 122.6008600  88.8541810  46.4309580 123.9431170  89.5488150
  31.1913640 116.2862550 104.5546950  31.6952660 115.7069830 105.1263180
  30.4521060 116.5702780 105.0923320  41.3339990 118.0696770  88.7135230
  40.7850090 118.5166070  89.3577970  41.9559250 117.5646020  89.2372900
  38.4176270 108.5319850 100.5296190  37.9693570 108.5544110  99.6841740
  37.7841470 108.1338870 101.1266490  38.8235820 117.4274180 101.1508630
  39.2423930 118.2706910 100.9784870  37.9044450 117.5646220 100.9215410
  41.1599720 115.1590360 102.5346470  41.2795930 114.5631500 103.2741310
  42.0193720 115.1960050 102.1147770  36.6743240 123.7327190 102.2666360
  36.1364330 124.4573250 101.9475060  36.9277200 123.2557530 101.4763700
  42.7461920 111.3177520 104.0255310  42.0577440 110.6559060 103.9605300
  43.4667940 110.8715790 104.4703770  34.6956810 110.2021540  87.5436570
  34.9982710 110.2088970  86.6355720  35.4351400 109.8519400  88.0404230
  39.5305450 124.9678400 102.5253010  39.4564150 125.8713540 102.8325380
  38.6284290 124.6490300 102.4975080  37.9141740 109.1456160  88.5292770
  37.5663740 108.4680150  87.9495220  38.1154510 108.6845670  89.3436160
  40.0790780 124.1336910  90.1479370  40.9741570 124.4721880  90.1698130
  40.1108410 123.4116320  89.5203650  30.9332740 122.2952990  95.8286630
  31.2635750 121.4274050  95.5965270  31.3623740 122.5011510  96.6591590
  31.4222950 123.1623580  98.5668260  30.9853940 123.3424380  99.3992410
  31.9900630 123.9198200  98.4249980  47.0585130 122.6640580 102.8545570
  46.4587120 122.7233140 102.1109490  47.1879030 121.7245560 102.9842420
  48.2986580 120.4058400  88.1915280  47.4679540 120.4735050  88.6622510
  48.4758410 121.2962520  87.8882140  31.2547380 115.6743810  94.9257140
  30.5996220 115.4055450  94.2816840  32.0925330 115.5648290  94.4759120
  47.8062210 117.4440250  87.8522000  48.0811050 118.3519130  87.7241220
  47.6172950 117.3802780  88.7883990  45.5315240 109.7537190 105.2570650
  46.4085420 109.7620590 105.6404650  45.5436080 109.0168030 104.6463000
  30.4685460 112.8842740  90.8682470  29.5649540 113.1472940  90.6934130
  30.9526080 113.1553910  90.0882430  33.0112670 111.9408280  88.7776850
  33.7204370 111.5191500  88.2924130  32.2952610 112.0083510  88.1460200
  32.6586830 107.9947610  87.8179500  33.3814960 108.5356550  88.1360720
  32.9311350 107.7211030  86.9421040  46.4678480 112.8640080  92.0851080
  46.9637600 112.6310950  92.8699960  46.2694550 112.0251920  91.6688720
  47.8965640 111.5001030  94.6188760  47.7864920 111.3457070  95.5571030
  48.6573230 110.9721970  94.3764170  45.8012820 124.1411160  94.4790000
  46.3971890 123.8195730  93.8024420  46.0590970 123.6682980  95.2703270
  32.1011020 107.4009470 100.4627440  31.7525840 107.8573290 101.2285620
  31.7698720 106.5066600 100.5449870  33.7075390 120.5729070 104.6280630
  33.6645020 120.2021980 105.5095090  33.8386400 121.5106640 104.7682450
  48.6685580 124.1483040 101.0300990  48.1743860 124.5451910 100.3128120
  48.0598870 123.5232250 101.4238270  33.5463420 123.5191320 101.7478410
  32.9523740 123.3876020 102.4868450  33.5387260 122.6829460 101.2820510
  36.7820750 123.0994700  97.4835860  37.2985770 122.4882060  96.9584120
  37.4318130 123.6023480  97.9746870  31.4605650 124.2024090  93.9083210
  31.2927690 123.5694770  94.6065100  30.5940160 124.4083490  93.5577400
  38.6247480 110.1480140  94.4017380  37.8121990 109.7737030  94.0613260
  39.1289120 109.3925220  94.7038570  33.0668350 122.8957320  91.3533350
  32.5415970 123.2765350  90.6495310  32.9912930 123.5208090  92.0743060
  36.6496660 108.2980060  93.0062430  36.0199400 107.5967370  93.1732560
  36.1101800 109.0584190  92.7895590  39.5888610 124.9119290 105.6773040
  40.5155920 124.6763560 105.7209000  39.5739040 125.7391290 105.1959070
  34.8276110 120.9604430  90.2328930  34.1984990 121.4289530  90.7814760
  34.9423940 120.1153650  90.6675120  43.3767680 106.9917620 106.0195390
  43.2633130 107.3112230 106.9146910  44.1937420 107.3930130 105.7232670
  46.1566170 124.1389150 105.5014080  46.9491490 123.6438380 105.2940040
  46.4499320 124.8179290 106.1089690  40.4143870 116.7889110  78.2639400
  39.6385970 116.3089550  78.5537970  41.0656800 116.1094760  78.0895560
  44.4351300 121.1949300  77.0438530  43.9732830 120.4236540  77.3725700
  45.2476850 121.2215370  77.5490980  40.6614610 123.4807310  76.6642520
  40.0426050 123.9364810  76.0936960  41.5166390 123.6358770  76.2632220
  30.8961160 119.0503080  71.4314060  30.5189140 119.5390180  70.6998960
  31.1534230 119.7228360  72.0620590  45.3510570 119.8902980  74.2697200
  45.2406900 118.9477310  74.3946620  45.3478820 120.2518620  75.1559960
  47.4012690 116.4703820  80.6005880  46.5731320 116.5396910  80.1256010
  47.9963170 117.0558130  80.1321710  44.9228140 117.0788600  74.1294940
  44.3040560 116.7408150  73.4821240  44.9052590 116.4348360  74.8374130
  36.4987490 116.0433040  76.4079420  36.0944490 115.3310290  75.9125320
  36.5850610 115.6986280  77.2967460  36.0587620 119.4682290  85.2226430
  35.1616150 119.6922260  85.4699830  36.0840490 119.5917230  84.2737830
  41.2088220 121.2571480  75.1048930  41.6484130 121.9995810  74.6904320
  41.1475110 121.4998050  76.0287890  48.6354010 123.0644410  87.3033120
  49.1113730 123.5427300  87.9822200  49.2561170 122.9961900  86.5778620
  32.0825120 119.8093350  76.1260890  31.6753200 119.9507940  75.2714490
  32.9738130 119.5253510  75.9232100  48.0387260 120.2557260  84.4633130
  48.1650320 120.0169140  83.5450310  48.0808640 119.4241800  84.9355210
  43.8758400 124.2440600  72.4611940  43.7159540 123.9543540  73.3593770
  43.7105110 123.4680730  71.9257170  43.5784530 121.7528160  71.0209940
  42.8849690 121.7505450  70.3612220  44.3207390 121.3287480  70.5904110
  43.1434460 123.3790870  75.0958430  43.5991410 122.5980250  75.4097050
  43.4826980 124.0897690  75.6399610  38.7814600 107.9023790  72.1715570
  38.1568780 107.8983660  72.8968880  38.6944720 107.0354750  71.7751540
  42.3413680 110.0913000  79.1558640  42.3586420 110.5421650  80.0000490
  42.0929260 109.1918640  79.3692080  45.7684430 107.5045180  84.9945020
  46.0930200 106.7734840  85.5203000  45.8040940 107.1858820  84.0926010
  38.6173130 115.3735300  79.8953600  38.9843260 114.8993870  80.6414940
  38.4278190 116.2476870  80.2361940  36.4072500 114.4143940  82.2137810
  36.1029570 115.2935920  82.4388170  37.3618960 114.4743730  82.2495250
  34.9354290 118.6204930  72.8104660  34.1616550 118.0802550  72.6503380
  35.6648920 118.1011540  72.4722420  45.6942270 117.6170290  78.6031050
  46.4141390 118.1125580  78.2127160  45.4924090 116.9388180  77.9584920
  41.1552210 109.0108250  72.7460440  40.3416820 108.5121420  72.6705750
  40.9614160 109.8506500  72.3296790  34.9791690 118.2885310  76.4483470
  35.4970360 117.4853570  76.3940360  34.5275710 118.2264450  77.2900300
  47.2189010 117.1507260  83.5872430  46.4937200 117.7436040  83.3901820
  47.7464470 117.1430800  82.7885800  47.1702120 121.5482000  73.2384590
  46.5278280 120.8937620  73.5128310  46.7832780 121.9537090  72.4625260
  42.7488600 118.8767430  77.0856280  43.1012420 118.2795560  76.4257650
  41.8650930 118.5511660  77.2564530  38.8351880 119.6365120  74.4926690
  39.5223010 120.1834330  74.8734280  38.0484300 120.1805850  74.5276300
  34.0390870 106.9848800  74.5774570  33.9105500 106.9766700  75.5259490
  33.2152890 107.3231890  74.2265580  45.5599500 120.4398460  69.7760940
  45.3337080 119.7228900  70.3685580  45.1695700 120.1910900  68.9382690
  31.3415530 124.4665320  70.5505400  31.7013170 125.0654660  69.8962670
  31.2007870 125.0125210  71.3240430  45.1415750 118.3570400  71.4375100
  44.8537450 118.8183090  72.2252980  45.9367920 117.8968170  71.7059320
  31.3257390 122.7320180  85.0247800  31.4348510 121.7914920  84.8843190
  30.6737950 122.9974930  84.3761530  39.3169980 121.0036070  86.4245920
  38.9966850 120.2845310  86.9691610  38.6428340 121.6791140  86.4981980
  32.9590790 117.0711410  72.1125830  32.3518740 117.8110310  72.1221130
  33.4340140 117.1610770  71.2864030  40.3443750 121.9124760  70.0304260
  40.4455730 121.7088750  69.1006240  39.4445490 121.6583040  70.2352040
  41.8985070 109.1955780  75.4523950  41.7752850 109.2141910  74.5033460
  42.8469630 109.2434720  75.5722350  31.3503030 120.6816590  73.5223340
  30.4242810 120.9237730  73.5128750  31.8159460 121.5090850  73.4008090
  43.7380830 123.6349250  85.3952230  44.6902580 123.5507270  85.3452470
  43.5909050 124.2990960  86.0686020  31.1913640 116.2862550  85.7803460
  31.6952660 115.7069830  86.3519690  30.4521060 116.5702780  86.3179830
  33.2236720 114.4292140  86.6753530  33.2642060 114.1306010  87.5838760
  34.0782220 114.8299750  86.5161050  35.1642530 113.0084240  84.6428020
  34.6338990 112.5175190  84.0151360  35.8330600 113.4368440  84.1085950
  36.6743240 123.7327190  83.4922870  36.1364330 124.4573250  83.1731570
  36.9277200 123.2557530  82.7020210  39.5305450 124.9678400  83.7509520
  39.4564150 125.8713540  84.0581890  38.6284290 124.6490300  83.7231590
  33.7186940 119.5063960  69.6022880  34.1561810 120.0493630  70.2580460
  34.2034670 118.6810910  69.6119220  30.9332740 122.2952990  77.0543140
  31.2635750 121.4274050  76.8221780  31.3623740 122.5011510  77.8848100
  35.5294660 120.6262000  74.7145110  35.2290200 120.5026970  75.6149020
  35.4232150 119.7670590  74.3060840  31.4222950 123.1623580  79.7924770
  30.9853940 123.3424380  80.6248920  31.9900630 123.9198200  79.6506490
  48.2986580 120.4058400  69.4171790  47.4679540 120.4735050  69.8879020
  48.4758410 121.2962520  69.1138650  47.7543040 117.1505880  71.9205990
  48.5161950 117.7202530  72.0265680  47.7697410 116.5833080  72.6914300
  31.2547380 115.6743810  76.1513650  30.5996220 115.4055450  75.5073350
  32.0925330 115.5648290  75.7015630  48.7603010 118.0055980  76.7647920
  49.1311840 117.2223300  76.3583890  49.4004940 118.6945080  76.5865220
  47.8062210 117.4440250  69.0778510  48.0811050 118.3519130  68.9497730
  47.6172950 117.3802780  70.0140500  47.7027550 115.3809240  74.0707940
  47.3271150 114.6137170  73.6389230  46.9730670 115.7631940  74.5582870
  47.0927170 114.5280760  83.7047460  46.8613260 114.2993510  82.8045410
  47.3531720 115.4480310  83.6592350  31.8439310 112.9705470  84.5975410
  30.9495360 112.9372230  84.9369120  32.3836860 113.1692260  85.3626660
  45.5315240 109.7537190  86.4827160  46.4085420 109.7620590  86.8661160
  45.5436080 109.0168030  85.8719510  46.2431360 107.4395160  82.3028270
  46.8803580 108.0529300  82.6687460  46.3906250 107.4755820  81.3577500
  45.8012820 124.1411160  75.7046510  46.3971890 123.8195730  75.0280930
  46.0590970 123.6682980  76.4959780  33.7075390 120.5729070  85.8537140
  33.6645020 120.2021980  86.7351600  33.8386400 121.5106640  85.9938960
  33.5463420 123.5191320  82.9734920  32.9523740 123.3876020  83.7124960
  33.5387260 122.6829460  82.5077020  42.9918440 106.8123550  81.1764950
  42.1178280 107.1458660  80.9737880  42.8829190 106.3396730  82.0016820
  31.4605650 124.2024090  75.1339720  31.2927690 123.5694770  75.8321610
  30.5940160 124.4083490  74.7833910  43.1272460 106.8122590  76.8656960
  43.7301830 107.3842800  77.3405480  42.3865450 107.3762030  76.6430860
  33.0668350 122.8957320  72.5789860  32.5415970 123.2765350  71.8751820
  32.9912930 123.5208090  73.2999570  47.8233670 124.4544860  73.9003800
  47.9985860 123.7682600  73.2564720  47.1255240 124.9791910  73.5080470
  34.8276110 120.9604430  71.4585440  34.1984990 121.4289530  72.0071270
  34.9423940 120.1153650  71.8931630  46.1566170 124.1389150  86.7270590
  46.9491490 123.6438380  86.5196550  46.4499320 124.8179290  87.3346200
  42.2825830 115.0110090  57.6086640  42.2019880 114.0964700  57.3378350
  41.8690250 115.5077160  56.9026350  40.4143870 116.7889110  59.4895910
  39.6385970 116.3089550  59.7794480  41.0656800 116.1094760  59.3152070
  39.8552860 119.4646300  59.4966070  39.7861140 118.5236240  59.3355200
  40.6172720 119.5547710  60.0688640  30.8961160 119.0503080  52.6570570
  30.5189140 119.5390180  51.9255470  31.1534230 119.7228360  53.2877100
  38.5050090 107.4519470  58.1156080  38.8125070 106.8966360  57.3991580
  37.5750790 107.5863930  57.9329070  40.8930850 115.5168300  54.8516200
  39.9660130 115.4505680  55.0804670  41.0455670 116.4548430  54.7371440
  40.8799930 111.7885300  51.8483360  39.9403600 111.9499260  51.9335820
  41.1983190 112.5070980  51.3019350  47.4012690 116.4703820  61.8262390
  46.5731320 116.5396910  61.3512520  47.9963170 117.0558130  61.3578220
  44.9228140 117.0788600  55.3551450  44.3040560 116.7408150  54.7077750
  44.9052590 116.4348360  56.0630640  36.0587620 119.4682290  66.4482940
  35.1616150 119.6922260  66.6956340  36.0840490 119.5917230  65.4994340
  43.0992840 116.3175410  52.3624200  43.5386120 115.4797840  52.2162020
  43.8121260 116.9504810  52.4488340  34.8858840 116.3395610  65.0240310
  34.7466610 117.2118410  65.3927710  34.0040200 115.9968420  64.8788250
  36.6839190 122.2817310  67.2325460  36.6554620 122.6860260  66.3653890
  36.5204160 121.3527670  67.0697060  32.0825120 119.8093350  57.3517400
  31.6753200 119.9507940  56.4971000  32.9738130 119.5253510  57.1488610
  48.0387260 120.2557260  65.6889640  48.1650320 120.0169140  64.7706820
  48.0808640 119.4241800  66.1611720  41.9004000 123.9585260  64.2584450
  42.4148670 123.8693270  65.0606880  41.0573080 124.3044960  64.5512360
  39.9525590 111.1481610  64.1201570  39.4904960 111.3564630  64.9321510
  39.5503700 110.3340960  63.8172240  38.7814600 107.9023790  53.3972080
  38.1568780 107.8983660  54.1225390  38.6944720 107.0354750  53.0008050
  37.7031680 108.8260420  60.3755850  38.0004010 109.7323250  60.2947870
  38.2517240 108.3379200  59.7615420  42.6867760 113.4110030  54.8438150
  42.0876650 114.1345830  54.6601770  43.2347370 113.3486810  54.0614600
  37.8969210 114.3032240  66.9107770  37.8012810 113.3626970  66.7608170
  38.7401190 114.5247310  66.5155840  39.6024800 110.7980880  68.1338290
  38.9123120 110.6053080  68.7684380  40.3457100 111.0815520  68.6662590
  30.5167030 112.5794490  50.3074350  30.4341700 113.5225250  50.4489340
  30.1650090 112.4369400  49.4286700  38.3785310 112.3145600  52.3651460
  38.4998130 112.2732080  53.3137280  37.9933820 113.1769750  52.2098190
  37.3906810 114.6246740  51.7634760  36.8223710 114.1764990  51.1370670
  38.0995810 114.9839520  51.2299910  41.1552210 109.0108250  53.9716950
  40.3416820 108.5121420  53.8962260  40.9614160 109.8506500  53.5553300
  41.0761070 117.6879350  65.7156560  41.0098380 116.7675020  65.4614150
  40.4466210 117.7854790  66.4301200  43.8700600 113.3827900  52.2679110
  44.7580220 113.6945130  52.0930450  43.8405690 112.5100150  51.8759690
  35.6649350 115.7130920  67.4705230  35.3649490 115.8588100  66.5733050
  36.4360590 115.1536210  67.3778620  41.0077800 120.5099920  65.4660360
  41.0222340 119.5780880  65.2479270  40.3002900 120.5959680  66.1050130
  46.1414870 114.6939740  51.7358970  46.0578590 115.1253960  50.8855410
  46.8609060 115.1538090  52.1685790  47.2189010 117.1507260  64.8128940
  46.4937200 117.7436040  64.6158330  47.7464470 117.1430800  64.0142310
  30.9744280 115.2537940  51.2100280  31.8439130 115.5362740  51.4936200
  30.4834600 116.0673810  51.0949090  38.1379090 116.6411150  55.3308560
  38.5941870 117.4516400  55.5568750  37.7867300 116.3234290  56.1627050
  40.4411700 122.1517490  62.5600860  41.0853920 122.3576870  63.2374280
  40.8041140 121.3905890  62.1071710  45.5599500 120.4398460  51.0017450
  45.3337080 119.7228900  51.5942090  45.1695700 120.1910900  50.1639200
  31.3415530 124.4665320  51.7761910  31.7013170 125.0654660  51.1219180
  31.2007870 125.0125210  52.5496940  45.1415750 118.3570400  52.6631610
  44.8537450 118.8183090  53.4509490  45.9367920 117.8968170  52.9315830
  31.3257390 122.7320180  66.2504310  31.4348510 121.7914920  66.1099700
  30.6737950 122.9974930  65.6018040  32.9590790 117.0711410  53.3382340
  32.3518740 117.8110310  53.3477640  33.4340140 117.1610770  52.5120540
  45.8985610 110.1919170  53.8226790  45.2698770 110.2964840  53.1085020
  45.4037530 110.4115950  54.6120670  37.8669640 112.4705120  55.2384670
  37.1585790 112.9391460  55.6798280  38.1514120 111.8127130  55.8729860
  39.4925570 113.8901820  63.2377200  39.9910820 114.3647640  63.9029050
  39.6348520 112.9665340  63.4447230  36.0704660 110.7790200  52.6135380
  36.9195190 111.2160350  52.5475570  35.7035930 111.0910460  53.4407440
  34.9696080 117.0322560  51.0870910  35.7359350 116.9203920  51.6496340
  35.0470770 116.3360530  50.4347680  33.6642840 114.4647630  51.7703800
  33.7446430 113.5175140  51.8821200  34.5562590 114.7954510  51.8764460
  34.4657550 124.6143020  58.8738340  35.2020030 124.0658480  59.1446910
  34.8498470 125.4799030  58.7344330  31.3503030 120.6816590  54.7479850
  30.4242810 120.9237730  54.7385260  31.8159460 121.5090850  54.6264600
  33.4715830 123.7989090  68.0623920  34.2728560 124.1201140  68.4759320
  32.9567650 123.4384670  68.7843830  42.3080460 119.9068960  68.0099330
  41.7018620 119.9300560  67.2695080  42.0034570 119.1752000  68.5466580
  43.7380830 123.6349250  66.6208740  44.6902580 123.5507270  66.5708980
  43.5909050 124.2990960  67.2942530  41.3339990 118.0696770  51.1648250
  40.7850090 118.5166070  51.8090990  41.9559250 117.5646020  51.6885920
  45.3874930 119.4238870  67.0970510  46.1284400 119.7614630  66.5937970
  44.6247610 119.5930930  66.5440280  39.5142750 116.0525300  50.3090650
  40.0348410 115.3374320  49.9431800  40.1611150 116.6911170  50.6091160
  44.0620590 117.4753700  65.6325720  44.4761610 117.6298780  66.4816140
  43.1271590 117.6008920  65.7951500  38.4176270 108.5319850  62.9809210
  37.9693570 108.5544110  62.1354760  37.7841470 108.1338870  63.5779510
  41.1599720 115.1590360  64.9859490  41.2795930 114.5631500  65.7254330
  42.0193720 115.1960050  64.5660790  43.4987620 115.7127550  63.5622000
  42.9722840 116.2370170  62.9587140  43.8418960 116.3454940  64.1931730
  35.8974010 113.1020920  50.0071710  35.6963070 112.2388280  50.3685050
  35.7266060 113.0154280  49.0693310  36.6743240 123.7327190  64.7179380
  36.1364330 124.4573250  64.3988080  36.9277200 123.2557530  63.9276720
  43.3762320 107.9129150  52.5358590  43.6564610 107.0697050  52.8918010
  42.6028050 108.1452260  53.0497340  39.5305450 124.9678400  64.9766030
  39.4564150 125.8713540  65.2838400  38.6284290 124.6490300  64.9488100
  30.9332740 122.2952990  58.2799650  31.2635750 121.4274050  58.0478290
  31.3623740 122.5011510  59.1104610  31.4222950 123.1623580  61.0181280
  30.9853940 123.3424380  61.8505430  31.9900630 123.9198200  60.8763000
  47.0585130 122.6640580  65.3058590  46.4587120 122.7233140  64.5622510
  47.1879030 121.7245560  65.4355440  48.2986580 120.4058400  50.6428300
  47.4679540 120.4735050  51.1135530  48.4758410 121.2962520  50.3395160
  47.8062210 117.4440250  50.3035020  48.0811050 118.3519130  50.1754240
  47.6172950 117.3802780  51.2397010  44.2037820 110.4685100  51.5988650
  44.6222700 110.2816080  50.7585310  43.8973880 109.6164150  51.9091580
  46.4678480 112.8640080  54.5364100  46.9637600 112.6310950  55.3212980
  46.2694550 112.0251920  54.1201740  48.8594400 110.1019610  52.9364630
  48.0645900 110.0364730  53.4657540  49.0637680 111.0370250  52.9249980
  33.7075390 120.5729070  67.0793650  33.6645020 120.2021980  67.9608110
  33.8386400 121.5106640  67.2195470  37.4081420 122.1288660  62.6803370
  37.1672780 122.3963220  61.7933890  38.3484060 122.2994390  62.7354230
  39.6135840 108.5921350  66.4359880  39.5524730 109.1843180  67.1855290
  40.5536220 108.4847310  66.2910140  48.6685580 124.1483040  63.4814010
  48.1743860 124.5451910  62.7641140  48.0598870 123.5232250  63.8751290
  33.5463420 123.5191320  64.1991430  32.9523740 123.3876020  64.9381470
  33.5387260 122.6829460  63.7333530  36.7820750 123.0994700  59.9348880
  37.2985770 122.4882060  59.4097140  37.4318130 123.6023480  60.4259890
  40.7393260 107.7293390  61.3414370  39.9565050 108.2038890  61.6211130
  40.4456190 106.8248220  61.2327550  31.4605650 124.2024090  56.3596230
  31.2927690 123.5694770  57.0578120  30.5940160 124.4083490  56.0090420
  38.6247480 110.1480140  56.8530400  37.8121990 109.7737030  56.5126280
  39.1289120 109.3925220  57.1551590  46.2707060 107.2144150  53.3653750
  46.4657690 108.1127600  53.6321180  45.4836930 106.9831230  53.8586700
  46.1566170 124.1389150  67.9527100  46.9491490 123.6438380  67.7453060
  46.4499320 124.8179290  68.5602710  42.2825830 115.0110090  38.8343150
  42.2019880 114.0964700  38.5634860  41.8690250 115.5077160  38.1282860
  40.4143870 116.7889110  40.7152420  39.6385970 116.3089550  41.0050990
  41.0656800 116.1094760  40.5408580  34.4309700 117.1008920  41.5928180
  33.5994580 116.8457630  41.9924690  35.0390680 117.1719690  42.3286100
  44.4351300 121.1949300  39.4951550  43.9732830 120.4236540  39.8238720
  45.2476850 121.2215370  40.0004000  34.4110960 121.1349010  41.7886200
  34.7139000 120.2446750  41.6096420  35.1554550 121.6919230  41.5608450
  32.8401650 112.0610810  35.3770570  31.9518350 112.4026780  35.2750450
  33.1242840 111.8611130  34.4851400  30.8034660 114.6616460  41.2610270
  31.3750770 113.8938660  41.2613910  30.8036200 114.9605220  40.3516880
  40.6614610 123.4807310  39.1155540  40.0426050 123.9364810  38.5449980
  41.5166390 123.6358770  38.7145240  39.8552860 119.4646300  40.7222580
  39.7861140 118.5236240  40.5611710  40.6172720 119.5547710  41.2945150
  32.0459530 110.0700820  43.0479200  31.8662370 109.1726570  43.3281960
  31.6439610 110.6172690  43.7226150  35.0163040 110.6442310  36.4108950
  35.1229790 111.5446040  36.7177710  34.1055400 110.5960280  36.1203600
  32.6646200 112.5661320  41.6561540  33.3456310 112.8299690  42.2748940
  32.3494250 111.7262190  41.9899550  48.9581700 111.7833870  44.4463480
  48.2533870 112.1715580  43.9278590  49.2239620 112.4784160  45.0484410
  35.1406870 108.2527240  45.0097550  35.1425310 108.7699630  44.2043450
  34.3111180 107.7757420  44.9867480  41.5277960 118.3646550  36.5087450
  40.9095230 118.8296000  35.9450170  42.0401210 119.0574030  36.9256960
  36.3909720 117.8922420  43.1871050  36.0579100 118.5191340  43.8292120
  36.5676400 118.4184300  42.4072720  44.9043630 111.7067500  40.6547390
  44.1999200 111.9952390  41.2350500  45.2655790 112.5167610  40.2946950
  34.8222200 109.9637200  43.0168000  35.1639010 110.8079250  42.7221870
  33.8838010 110.1120940  43.1333340  35.6028820 119.8603220  45.0020230
  36.2202820 120.5354300  44.7204680  34.7421940 120.2691200  44.9107730
  30.8961160 119.0503080  33.8827080  30.5189140 119.5390180  33.1511980
  31.1534230 119.7228360  34.5133610  44.0565150 123.1686760  41.6320050
  44.0692310 122.7649050  40.7642310  43.5040370 123.9434050  41.5281480
  45.3510570 119.8902980  36.7210220  45.2406900 118.9477310  36.8459640
  45.3478820 120.2518620  37.6072980  43.4550590 118.0716600  42.9602660
  43.8719380 117.8576710  42.1256120  44.1790410 118.3289390  43.5311280
  40.8930850 115.5168300  36.0772710  39.9660130 115.4505680  36.3061180
  41.0455670 116.4548430  35.9627950  40.8799930 111.7885300  33.0739870
  39.9403600 111.9499260  33.1592330  41.1983190 112.5070980  32.5275860
  47.4012690 116.4703820  43.0518900  46.5731320 116.5396910  42.5769030
  47.9963170 117.0558130  42.5834730  44.9228140 117.0788600  36.5807960
  44.3040560 116.7408150  35.9334260  44.9052590 116.4348360  37.2887150
  44.3654700 113.2573140  43.9973770  43.9525880 114.0826850  44.2513760
  43.6330650 112.6718180  43.8050130  36.4987490 116.0433040  38.8592440
  36.0944490 115.3310290  38.3638340  36.5850610 115.6986280  39.7480480
  36.9669190 119.7300600  41.0231650  36.6697480 119.1246070  40.3439430
  37.9169010 119.7677910  40.9121010  45.0554800 123.3032470  44.6854750
  44.5785360 124.1104660  44.4927360  44.3716590 122.6510800  44.8380960
  36.0587620 119.4682290  47.6739450  35.1616150 119.6922260  47.9212850
  36.0840490 119.5917230  46.7250850  43.0992840 116.3175410  33.5880710
  43.5386120 115.4797840  33.4418530  43.8121260 116.9504810  33.6744850
  34.8858840 116.3395610  46.2496820  34.7466610 117.2118410  46.6184220
  34.0040200 115.9968420  46.1044760  41.2088220 121.2571480  37.5561950
  41.6484130 121.9995810  37.1417340  41.1475110 121.4998050  38.4800910
  36.6839190 122.2817310  48.4581970  36.6554620 122.6860260  47.5910400
  36.5204160 121.3527670  48.2953570  33.1992120 114.9378020  36.3599090
  33.0789720 115.6640110  35.7480360  32.8893010 114.1680930  35.8827000
  48.6354010 123.0644410  49.7546140  49.1113730 123.5427300  50.4335220
  49.2561170 122.9961900  49.0291640  30.8377490 118.1093160  42.1667730
  30.9157910 118.2441930  41.2223450  31.4519170 117.4009050  42.3595850
  32.0825120 119.8093350  38.5773910  31.6753200 119.9507940  37.7227510
  32.9738130 119.5253510  38.3745120  48.0387260 120.2557260  46.9146150
  48.1650320 120.0169140  45.9963330  48.0808640 119.4241800  47.3868230
  41.9004000 123.9585260  45.4840960  42.4148670 123.8693270  46.2863390
  41.0573080 124.3044960  45.7768870  43.8758400 124.2440600  34.9124960
  43.7159540 123.9543540  35.8106790  43.7105110 123.4680730  34.3770190
  36.3546780 124.0239130  36.6896580  36.1789260 123.1074670  36.4764380
  35.5002520 124.3826420  36.9294380  43.5784530 121.7528160  33.4722960
  42.8849690 121.7505450  32.8125240  44.3207390 121.3287480  33.0417130
  43.1434460 123.3790870  37.5471450  43.5991410 122.5980250  37.8610070
  43.4826980 124.0897690  38.0912630  47.8911270 112.3089720  47.8795890
  47.2755540 112.8169390  47.3511350  47.5707690 111.4088050  47.8221830
  30.8937010 119.1507330  44.7062190  31.0568050 118.6812690  43.8881560
  31.3589460 118.6430890  45.3711030  39.9525590 111.1481610  45.3458080
  39.4904960 111.3564630  46.1578020  39.5503700 110.3340960  45.0428750
  44.9530100 112.3690560  46.4754740  44.1023690 112.0696310  46.7963810
  44.7931890 112.6132570  45.5638560  42.0479810 113.8692310  48.5753530
  42.3733220 113.0356060  48.2355760  42.8360140 114.3920830  48.7231860
  42.6867760 113.4110030  36.0694660  42.0876650 114.1345830  35.8858280
  43.2347370 113.3486810  35.2871110  37.8969210 114.3032240  48.1364280
  37.8012810 113.3626970  47.9864680  38.7401190 114.5247310  47.7412350
  33.0279750 110.7145910  46.2898060  32.6343140 111.5621120  46.4970840
  32.3398150 110.0772280  46.4806700  39.6024800 110.7980880  49.3594800
  38.9123120 110.6053080  49.9940890  40.3457100 111.0815520  49.8919100
  30.3296800 108.6374370  40.3228140  30.0409850 109.2077230  41.0353120
  31.0742560 108.1578820  40.6859370  30.5167030 112.5794490  31.5330860
  30.4341700 113.5225250  31.6745850  30.1650090 112.4369400  30.6543210
  41.8787770 114.6379320  42.1948720  41.1468890 115.1466130  42.5438820
  41.4812110 113.8209300  41.8937500  38.3785310 112.3145600  33.5907970
  38.4998130 112.2732080  34.5393790  37.9933820 113.1769750  33.4354700
  37.3906810 114.6246740  32.9891270  36.8223710 114.1764990  32.3627180
  38.0995810 114.9839520  32.4556420  45.7684430 107.5045180  47.4458040
  46.0930200 106.7734840  47.9716020  45.8040940 107.1858820  46.5439030
  32.4675990 118.5258760  46.8658000  32.0830780 117.8852430  47.4640960
  32.7788180 119.2294880  47.4352730  38.6173130 115.3735300  42.3466620
  38.9843260 114.8993870  43.0927960  38.4278190 116.2476870  42.6874960
  31.4813620 110.1178990  38.4760090  31.1960540 109.7534660  39.3138710
  31.4192480 109.3859450  37.8623230  36.4072500 114.4143940  44.6650830
  36.1029570 115.2935920  44.8901190  37.3618960 114.4743730  44.7008270
  34.9354290 118.6204930  35.2617680  34.1616550 118.0802550  35.1016400
  35.6648920 118.1011540  34.9235440  45.6942270 117.6170290  41.0544070
  46.4141390 118.1125580  40.6640180  45.4924090 116.9388180  40.4097940
  41.0761070 117.6879350  46.9413070  41.0098380 116.7675020  46.6870660
  40.4466210 117.7854790  47.6557710  43.8700600 113.3827900  33.4935620
  44.7580220 113.6945130  33.3186960  43.8405690 112.5100150  33.1016200
  34.9791690 118.2885310  38.8996490  35.4970360 117.4853570  38.8453380
  34.5275710 118.2264450  39.7413320  39.8661190 119.5551590  34.1723790
  40.2076890 120.2993820  33.6767110  39.0373900 119.8682710  34.5348620
  32.4636230 115.2546680  45.8122190  32.1051170 115.9200530  46.3995530
  32.1690790 114.4230230  46.1834810  35.6649350 115.7130920  48.6961740
  35.3649490 115.8588100  47.7989560  36.4360590 115.1536210  48.6035130
  41.0077800 120.5099920  46.6916870  41.0222340 119.5780880  46.4735780
  40.3002900 120.5959680  47.3306640  46.1414870 114.6939740  32.9615480
  46.0578590 115.1253960  32.1111920  46.8609060 115.1538090  33.3942300
  47.2189010 117.1507260  46.0385450  46.4937200 117.7436040  45.8414840
  47.7464470 117.1430800  45.2398820  47.1702120 121.5482000  35.6897610
  46.5278280 120.8937620  35.9641330  46.7832780 121.9537090  34.9138280
  42.7488600 118.8767430  39.5369300  43.1012420 118.2795560  38.8770670
  41.8650930 118.5511660  39.7077550  38.8351880 119.6365120  36.9439710
  39.5223010 120.1834330  37.3247300  38.0484300 120.1805850  36.9789320
  30.9744280 115.2537940  32.4356790  31.8439130 115.5362740  32.7192710
  30.4834600 116.0673810  32.3205600  38.1379090 116.6411150  36.5565070
  38.5941870 117.4516400  36.7825260  37.7867300 116.3234290  37.3883560
  40.4411700 122.1517490  43.7857370  41.0853920 122.3576870  44.4630790
  40.8041140 121.3905890  43.3328220  34.0390870 106.9848800  37.0287590
  33.9105500 106.9766700  37.9772510  33.2152890 107.3231890  36.6778600
  41.7143780 120.1549840  42.5034820  42.3566010 119.4543000  42.6166990
  42.2393130 120.9348280  42.3231710  45.5599500 120.4398460  32.2273960
  45.3337080 119.7228900  32.8198600  45.1695700 120.1910900  31.3895710
  43.4881400 120.9544740  45.7070880  43.8237640 121.5411430  46.3848800
  42.5681740 120.8237450  45.9368670  31.3415530 124.4665320  33.0018420
  31.7013170 125.0654660  32.3475690  31.2007870 125.0125210  33.7753450
  31.0384800 108.7439920  46.4894290  30.3243320 108.9436840  47.0946900
  31.4579840 107.9679490  46.8609090  45.1415750 118.3570400  33.8888120
  44.8537450 118.8183090  34.6766000  45.9367920 117.8968170  34.1572340
  31.3257390 122.7320180  47.4760820  31.4348510 121.7914920  47.3356210
  30.6737950 122.9974930  46.8274550  39.3169980 121.0036070  48.8758940
  38.9966850 120.2845310  49.4204630  38.6428340 121.6791140  48.9495000
  37.3584150 121.8496520  33.8192090  37.3494250 122.5826210  33.2036600
  36.4382510 121.6028100  33.9119050  32.9590790 117.0711410  34.5638850
  32.3518740 117.8110310  34.5734150  33.4340140 117.1610770  33.7377050
  42.5323580 111.2362230  44.2395740  42.9004400 110.4157440  44.5675310
  41.6721780 111.2964120  44.6551390  40.3443750 121.9124760  32.4817280
  40.4455730 121.7088750  31.5519260  39.4445490 121.6583040  32.6865060
  39.4925570 113.8901820  44.4633710  39.9910820 114.3647640  45.1285560
  39.6348520 112.9665340  44.6703740  38.9861860 124.4311080  37.1764950
  39.2403360 124.3932470  36.2544320  38.0374340 124.3044410  37.1693200
  36.0704660 110.7790200  33.8391890  36.9195190 111.2160350  33.7732080
  35.7035930 111.0910460  34.6663950  46.6992430 110.1069780  45.3062100
  46.1966030 110.8475180  45.6455910  47.5149090 110.4953780  44.9898890
  44.9914440 115.3502960  38.7523460  44.0504580 115.3653190  38.9271150
  45.3058510 114.5638920  39.1983760  34.9696080 117.0322560  32.3127420
  35.7359350 116.9203920  32.8752850  35.0470770 116.3360530  31.6604190
  33.6642840 114.4647630  32.9960310  33.7446430 113.5175140  33.1077710
  34.5562590 114.7954510  33.1020970  34.4657550 124.6143020  40.0994850
  35.2020030 124.0658480  40.3703420  34.8498470 125.4799030  39.9600840
  31.3503030 120.6816590  35.9736360  30.4242810 120.9237730  35.9641770
  31.8159460 121.5090850  35.8521110  33.4715830 123.7989090  49.2880430
  34.2728560 124.1201140  49.7015830  32.9567650 123.4384670  50.0100340
  37.5759860 123.7873330  31.9220420  38.3688470 124.0762160  31.4702210
  37.0564210 123.3565500  31.2432900  42.3080460 119.9068960  49.2355840
  41.7018620 119.9300560  48.4951590  42.0034570 119.1752000  49.7723090
  43.7380830 123.6349250  47.8465250  44.6902580 123.5507270  47.7965490
  43.5909050 124.2990960  48.5199040  46.6290030 123.0143460  33.3457160
  46.3431540 122.6008600  32.5311340  46.4309580 123.9431170  33.2257680
  31.1913640 116.2862550  48.2316480  31.6952660 115.7069830  48.8032710
  30.4521060 116.5702780  48.7692850  38.0937260 119.0076740  31.7862770
  37.9887900 118.3929090  32.5124150  37.9261480 118.4842630  31.0025780
  38.2451580 117.6933540  47.7652000  37.4797250 118.2618540  47.6806670
  38.4267540 117.4009750  46.8720230  41.3339990 118.0696770  32.3904760
  40.7850090 118.5166070  33.0347500  41.9559250 117.5646020  32.9142430
  45.3874930 119.4238870  48.3227020  46.1284400 119.7614630  47.8194480
  44.6247610 119.5930930  47.7696790  33.2236720 114.4292140  49.1266550
  33.2642060 114.1306010  50.0351780  34.0782220 114.8299750  48.9674070
  37.0015110 117.0287690  34.2870060  37.4231530 116.8627560  35.1301450
  37.1265950 116.2187920  33.7925200  35.1642530 113.0084240  47.0941040
  34.6338990 112.5175190  46.4664380  35.8330600 113.4368440  46.5598970
  39.5142750 116.0525300  31.5347160  40.0348410 115.3374320  31.1688310
  40.1611150 116.6911170  31.8347670  44.0620590 117.4753700  46.8582230
  44.4761610 117.6298780  47.7072650  43.1271590 117.6008920  47.0208010
  44.5342760 114.8149860  48.8621380  45.1163530 114.0602180  48.7741860
  44.7104530 115.3457300  48.0852860  38.8235820 117.4274180  44.8278160
  39.2423930 118.2706910  44.6554400  37.9044450 117.5646220  44.5984940
  41.1599720 115.1590360  46.2116000  41.2795930 114.5631500  46.9510840
  42.0193720 115.1960050  45.7917300  43.4987620 115.7127550  44.7878510
  42.9722840 116.2370170  44.1843650  43.8418960 116.3454940  45.4188240
  35.8974010 113.1020920  31.2328220  35.6963070 112.2388280  31.5941560
  35.7266060 113.0154280  30.2949820  36.6743240 123.7327190  45.9435890
  36.1364330 124.4573250  45.6244590  36.9277200 123.2557530  45.1533230
  37.9268490 111.7011710  47.4691820  38.5168180 111.3927560  48.1569640
  37.1088730 111.2291460  47.6251720  42.7461920 111.3177520  47.7024840
  42.0577440 110.6559060  47.6374830  43.4667940 110.8715790  48.1473300
  34.6956810 110.2021540  31.2206100  34.9982710 110.2088970  30.3125250
  35.4351400 109.8519400  31.7173760  39.5305450 124.9678400  46.2022540
  39.4564150 125.8713540  46.5094910  38.6284290 124.6490300  46.1744610
  40.0790780 124.1336910  33.8248900  40.9741570 124.4721880  33.8467660
  40.1108410 123.4116320  33.1973180  33.7186940 119.5063960  32.0535900
  34.1561810 120.0493630  32.7093480  34.2034670 118.6810910  32.0632240
  30.9332740 122.2952990  39.5056160  31.2635750 121.4274050  39.2734800
  31.3623740 122.5011510  40.3361120  35.5294660 120.6262000  37.1658130
  35.2290200 120.5026970  38.0662040  35.4232150 119.7670590  36.7573860
  31.4222950 123.1623580  42.2437790  30.9853940 123.3424380  43.0761940
  31.9900630 123.9198200  42.1019510  47.0585130 122.6640580  46.5315100
  46.4587120 122.7233140  45.7879020  47.1879030 121.7245560  46.6611950
  48.2986580 120.4058400  31.8684810  47.4679540 120.4735050  32.3392040
  48.4758410 121.2962520  31.5651670  31.2547380 115.6743810  38.6026670
  30.5996220 115.4055450  37.9586370  32.0925330 115.5648290  38.1528650
  45.7436770 119.3892560  44.6291260  44.9296610 119.8189720  44.8917050
  46.1510970 120.0010970  44.0160310  47.8062210 117.4440250  31.5291530
  48.0811050 118.3519130  31.4010750  47.6172950 117.3802780  32.4653520
  32.2923310 116.0596380  43.1430010  32.6596350 115.9723780  44.0226030
  31.7234130 115.2962930  43.0436870  47.0927170 114.5280760  46.1560480
  46.8613260 114.2993510  45.2558430  47.3531720 115.4480310  46.1105370
  31.8439310 112.9705470  47.0488430  30.9495360 112.9372230  47.3882140
  32.3836860 113.1692260  47.8139680  45.5315240 109.7537190  48.9340180
  46.4085420 109.7620590  49.3174180  45.5436080 109.0168030  48.3232530
  30.4685460 112.8842740  34.5452000  29.5649540 113.1472940  34.3703660
  30.9526080 113.1553910  33.7651960  46.9778510 113.6066730  39.8228200
  47.5015990 113.1129380  39.1918370  47.5637930 113.7417090  40.5675770
  47.1568230 113.6906600  43.3447750  46.2070940 113.6570140  43.4592740
  47.3381240 114.6006710  43.1097520  33.0112670 111.9408280  32.4546380
  33.7204370 111.5191500  31.9693660  32.2952610 112.0083510  31.8229730
  32.6586830 107.9947610  31.4949030  33.3814960 108.5356550  31.8130250
  32.9311350 107.7211030  30.6190570  46.4678480 112.8640080  35.7620610
  46.9637600 112.6310950  36.5469490  46.2694550 112.0251920  35.3458250
  32.3479020 107.2453800  41.3971650  32.9955210 106.6951180  40.9566810
  32.7680860 107.4996950  42.2187460  45.8012820 124.1411160  38.1559530
  46.3971890 123.8195730  37.4793950  46.0590970 123.6682980  38.9472800
  32.1011020 107.4009470  44.1396970  31.7525840 107.8573290  44.9055150
  31.7698720 106.5066600  44.2219400  33.7075390 120.5729070  48.3050160
  33.6645020 120.2021980  49.1864620  33.8386400 121.5106640  48.4451980
  37.4081420 122.1288660  43.9059880  37.1672780 122.3963220  43.0190400
  38.3484060 122.2994390  43.9610740  39.6135840 108.5921350  47.6616390
  39.5524730 109.1843180  48.4111800  40.5536220 108.4847310  47.5166650
  33.5463420 123.5191320  45.4247940  32.9523740 123.3876020  46.1637980
  33.5387260 122.6829460  44.9590040  33.1775650 120.8849700  44.3755980
  32.4509710 120.2654990  44.3081930  33.2384800 121.2790310  43.5054060
  36.7820750 123.0994700  41.1605390  37.2985770 122.4882060  40.6353650
  37.4318130 123.6023480  41.6516400  39.5216250 123.9903190  41.9874370
  39.8094060 123.7357490  41.1107380  40.0339470 123.4380550  42.5779940
  31.4605650 124.2024090  37.5852740  31.2927690 123.5694770  38.2834630
  30.5940160 124.4083490  37.2346930  32.0833670 108.0340870  35.0884600
  32.8413030 108.1469750  34.5148630  31.6210840 108.8710070  35.0428030
  33.0668350 122.8957320  35.0302880  32.5415970 123.2765350  34.3264840
  32.9912930 123.5208090  35.7512590  34.4558820 108.5604920  33.6286570
  34.9851580 107.7734720  33.4994520  35.0887140 109.2396110  33.8622100
  39.5888610 124.9119290  49.3542570  40.5155920 124.6763560  49.3978530
  39.5739040 125.7391290  48.8728600  47.8233670 124.4544860  36.3516820
  47.9985860 123.7682600  35.7077740  47.1255240 124.9791910  35.9593490
  35.6661320 124.8439700  33.9052130  36.3980140 124.5598980  33.3576020
  35.9254990 124.6052980  34.7951510  34.8276110 120.9604430  33.9098460
  34.1984990 121.4289530  34.4584290  34.9423940 120.1153650  34.3444650
  43.3767680 106.9917620  49.6964920  43.2633130 107.3112230  50.5916440
  44.1937420 107.3930130  49.4002200  46.1566170 124.1389150  49.1783610
  46.9491490 123.6438380  48.9709570  46.4499320 124.8179290  49.7859220
  42.2825830 115.0110090  20.0599660  42.2019880 114.0964700  19.7891370
  41.8690250 115.5077160  19.3539370  40.4143870 116.7889110  21.9408930
  39.6385970 116.3089550  22.2307500  41.0656800 116.1094760  21.7665090
  34.4309700 117.1008920  22.8184690  33.5994580 116.8457630  23.2181200
  35.0390680 117.1719690  23.5542610  44.4351300 121.1949300  20.7208060
  43.9732830 120.4236540  21.0495230  45.2476850 121.2215370  21.2260510
  34.4110960 121.1349010  23.0142710  34.7139000 120.2446750  22.8352930
  35.1554550 121.6919230  22.7864960  32.8401650 112.0610810  16.6027080
  31.9518350 112.4026780  16.5006960  33.1242840 111.8611130  15.7107910
  30.8034660 114.6616460  22.4866780  31.3750770 113.8938660  22.4870420
  30.8036200 114.9605220  21.5773390  40.6614610 123.4807310  20.3412050
  40.0426050 123.9364810  19.7706490  41.5166390 123.6358770  19.9401750
  39.8552860 119.4646300  21.9479090  39.7861140 118.5236240  21.7868220
  40.6172720 119.5547710  22.5201660  32.0459530 110.0700820  24.2735710
  31.8662370 109.1726570  24.5538470  31.6439610 110.6172690  24.9482660
  40.8858030 112.2716680  22.1748020  41.2622850 111.3988560  22.0621690
  40.7877540 112.6075380  21.2838460  35.0163040 110.6442310  17.6365460
  35.1229790 111.5446040  17.9434220  34.1055400 110.5960280  17.3460110
  44.6682150 109.7667120  19.1076360  45.4891770 109.2763690  19.1501840
  44.7016230 110.3564780  19.8608200  32.6646200 112.5661320  22.8818050
  33.3456310 112.8299690  23.5005450  32.3494250 111.7262190  23.2156060
  36.8570770 113.6128680  21.9690640  37.3648990 114.1109650  22.6095660
  37.3884010 112.8363880  21.7930000  48.9581700 111.7833870  25.6719990
  48.2533870 112.1715580  25.1535100  49.2239620 112.4784160  26.2740920
  35.1406870 108.2527240  26.2354060  35.1425310 108.7699630  25.4299960
  34.3111180 107.7757420  26.2123990  41.5277960 118.3646550  17.7343960
  40.9095230 118.8296000  17.1706680  42.0401210 119.0574030  18.1513470
  36.3909720 117.8922420  24.4127560  36.0579100 118.5191340  25.0548630
  36.5676400 118.4184300  23.6329230  44.9043630 111.7067500  21.8803900
  44.1999200 111.9952390  22.4607010  45.2655790 112.5167610  21.5203460
  34.8222200 109.9637200  24.2424510  35.1639010 110.8079250  23.9478380
  33.8838010 110.1120940  24.3589850  35.6028820 119.8603220  26.2276740
  36.2202820 120.5354300  25.9461190  34.7421940 120.2691200  26.1364240
  30.8961160 119.0503080  15.1083590  30.5189140 119.5390180  14.3768490
  31.1534230 119.7228360  15.7390120  46.5206410 121.3242630  24.1431380
  45.8369930 121.9941740  24.1348050  47.0600700 121.5223280  23.3776240
  47.9730550 111.1522290  22.2713110  47.0255460 111.1861270  22.4028540
  48.2980540 111.9661240  22.6562470  38.5050090 107.4519470  20.5669100
  38.8125070 106.8966360  19.8504600  37.5750790 107.5863930  20.3842090
  44.0565150 123.1686760  22.8576560  44.0692310 122.7649050  21.9898820
  43.5040370 123.9434050  22.7537990  45.3510570 119.8902980  17.9466730
  45.2406900 118.9477310  18.0716150  45.3478820 120.2518620  18.8329490
  43.4550590 118.0716600  24.1859170  43.8719380 117.8576710  23.3512630
  44.1790410 118.3289390  24.7567790  40.8930850 115.5168300  17.3029220
  39.9660130 115.4505680  17.5317690  41.0455670 116.4548430  17.1884460
  40.8799930 111.7885300  14.2996380  39.9403600 111.9499260  14.3848840
  41.1983190 112.5070980  13.7532370  47.4012690 116.4703820  24.2775410
  46.5731320 116.5396910  23.8025540  47.9963170 117.0558130  23.8091240
  44.9228140 117.0788600  17.8064470  44.3040560 116.7408150  17.1590770
  44.9052590 116.4348360  18.5143660  44.3654700 113.2573140  25.2230280
  43.9525880 114.0826850  25.4770270  43.6330650 112.6718180  25.0306640
  36.4987490 116.0433040  20.0848950  36.0944490 115.3310290  19.5894850
  36.5850610 115.6986280  20.9736990  36.9669190 119.7300600  22.2488160
  36.6697480 119.1246070  21.5695940  37.9169010 119.7677910  22.1377520
  35.2116110 112.8176250  23.8647990  35.7630700 112.9271590  23.0901240
  35.7259620 113.1913850  24.5803220  45.0554800 123.3032470  25.9111260
  44.5785360 124.1104660  25.7183870  44.3716590 122.6510800  26.0637470
  36.0587620 119.4682290  28.8995960  35.1616150 119.6922260  29.1469360
  36.0840490 119.5917230  27.9507360  43.0992840 116.3175410  14.8137220
  43.5386120 115.4797840  14.6675040  43.8121260 116.9504810  14.9001360
  34.8858840 116.3395610  27.4753330  34.7466610 117.2118410  27.8440730
  34.0040200 115.9968420  27.3301270  41.2088220 121.2571480  18.7818460
  41.6484130 121.9995810  18.3673850  41.1475110 121.4998050  19.7057420
  36.6839190 122.2817310  29.6838480  36.6554620 122.6860260  28.8166910
  36.5204160 121.3527670  29.5210080  46.6809980 107.5718220  13.1278260
  46.3682640 107.6645050  14.0277330  47.4422450 108.1499250  13.0775690
  33.1992120 114.9378020  17.5855600  33.0789720 115.6640110  16.9736870
  32.8893010 114.1680930  17.1083510  48.6354010 123.0644410  30.9802650
  49.1113730 123.5427300  31.6591730  49.2561170 122.9961900  30.2548150
  30.8377490 118.1093160  23.3924240  30.9157910 118.2441930  22.4479960
  31.4519170 117.4009050  23.5852360  32.0825120 119.8093350  19.8030420
  31.6753200 119.9507940  18.9484020  32.9738130 119.5253510  19.6001630
  48.0387260 120.2557260  28.1402660  48.1650320 120.0169140  27.2219840
  48.0808640 119.4241800  28.6124740  41.9004000 123.9585260  26.7097470
  42.4148670 123.8693270  27.5119900  41.0573080 124.3044960  27.0025380
  43.8758400 124.2440600  16.1381470  43.7159540 123.9543540  17.0363300
  43.7105110 123.4680730  15.6026700  36.3546780 124.0239130  17.9153090
  36.1789260 123.1074670  17.7020890  35.5002520 124.3826420  18.1550890
  43.5784530 121.7528160  14.6979470  42.8849690 121.7505450  14.0381750
  44.3207390 121.3287480  14.2673640  43.1434460 123.3790870  18.7727960
  43.5991410 122.5980250  19.0866580  43.4826980 124.0897690  19.3169140
  47.8911270 112.3089720  29.1052400  47.2755540 112.8169390  28.5767860
  47.5707690 111.4088050  29.0478340  30.8937010 119.1507330  25.9318700
  31.0568050 118.6812690  25.1138070  31.3589460 118.6430890  26.5967540
  35.6655780 108.2813090  20.9679270  35.2223930 109.0622630  20.6363790
  36.2240770 108.6042980  21.6750210  39.9525590 111.1481610  26.5714590
  39.4904960 111.3564630  27.3834530  39.5503700 110.3340960  26.2685260
  44.9530100 112.3690560  27.7011250  44.1023690 112.0696310  28.0220320
  44.7931890 112.6132570  26.7895070  42.0479810 113.8692310  29.8010040
  42.3733220 113.0356060  29.4612270  42.8360140 114.3920830  29.9488370
  38.7814600 107.9023790  15.8485100  38.1568780 107.8983660  16.5738410
  38.6944720 107.0354750  15.4521070  37.7031680 108.8260420  22.8268870
  38.0004010 109.7323250  22.7460890  38.2517240 108.3379200  22.2128440
  35.4570000 113.4046660  18.6960520  35.2310920 113.1883830  19.6007140
  34.6762530 113.8375120  18.3506490  42.6867760 113.4110030  17.2951170
  42.0876650 114.1345830  17.1114790  43.2347370 113.3486810  16.5127620
  37.8969210 114.3032240  29.3620790  37.8012810 113.3626970  29.2121190
  38.7401190 114.5247310  28.9668860  41.2932630 112.0473570  19.3254450
  41.6862200 112.3645770  18.5123140  41.6549480 111.1685450  19.4398970
  33.0279750 110.7145910  27.5154570  32.6343140 111.5621120  27.7227350
  32.3398150 110.0772280  27.7063210  39.6024800 110.7980880  30.5851310
  38.9123120 110.6053080  31.2197400  40.3457100 111.0815520  31.1175610
  30.3296800 108.6374370  21.5484650  30.0409850 109.2077230  22.2609630
  31.0742560 108.1578820  21.9115880  30.5167030 112.5794490  12.7587370
  30.4341700 113.5225250  12.9002360  30.1650090 112.4369400  11.8799720
  41.8787770 114.6379320  23.4205230  41.1468890 115.1466130  23.7695330
  41.4812110 113.8209300  23.1194010  38.3165160 111.3133520  21.8257720
  38.3201220 110.8723470  20.9762260  39.2116280 111.6350850  21.9329540
  34.1667540 111.1960010  20.7851930  33.8267590 111.6735240  21.5418980
  33.4044860 110.7425130  20.4253030  38.3785310 112.3145600  14.8164480
  38.4998130 112.2732080  15.7650300  37.9933820 113.1769750  14.6611210
  42.3413680 110.0913000  22.8328170  42.3586420 110.5421650  23.6770020
  42.0929260 109.1918640  23.0461610  37.3906810 114.6246740  14.2147780
  36.8223710 114.1764990  13.5883690  38.0995810 114.9839520  13.6812930
  45.7684430 107.5045180  28.6714550  46.0930200 106.7734840  29.1972530
  45.8040940 107.1858820  27.7695540  32.4675990 118.5258760  28.0914510
  32.0830780 117.8852430  28.6897470  32.7788180 119.2294880  28.6609240
  38.6173130 115.3735300  23.5723130  38.9843260 114.8993870  24.3184470
  38.4278190 116.2476870  23.9131470  31.4813620 110.1178990  19.7016600
  31.1960540 109.7534660  20.5395220  31.4192480 109.3859450  19.0879740
  36.4072500 114.4143940  25.8907340  36.1029570 115.2935920  26.1157700
  37.3618960 114.4743730  25.9264780  34.9354290 118.6204930  16.4874190
  34.1616550 118.0802550  16.3272910  35.6648920 118.1011540  16.1491950
  45.6942270 117.6170290  22.2800580  46.4141390 118.1125580  21.8896690
  45.4924090 116.9388180  21.6354450  41.1552210 109.0108250  16.4229970
  40.3416820 108.5121420  16.3475280  40.9614160 109.8506500  16.0066320
  41.0761070 117.6879350  28.1669580  41.0098380 116.7675020  27.9127170
  40.4466210 117.7854790  28.8814220  43.8700600 113.3827900  14.7192130
  44.7580220 113.6945130  14.5443470  43.8405690 112.5100150  14.3272710
  34.9791690 118.2885310  20.1253000  35.4970360 117.4853570  20.0709890
  34.5275710 118.2264450  20.9669830  39.8661190 119.5551590  15.3980300
  40.2076890 120.2993820  14.9023620  39.0373900 119.8682710  15.7605130
  32.4636230 115.2546680  27.0378700  32.1051170 115.9200530  27.6252040
  32.1690790 114.4230230  27.4091320  35.6649350 115.7130920  29.9218250
  35.3649490 115.8588100  29.0246070  36.4360590 115.1536210  29.8291640
  41.0077800 120.5099920  27.9173380  41.0222340 119.5780880  27.6992290
  40.3002900 120.5959680  28.5563150  46.1414870 114.6939740  14.1871990
  46.0578590 115.1253960  13.3368430  46.8609060 115.1538090  14.6198810
  47.2189010 117.1507260  27.2641960  46.4937200 117.7436040  27.0671350
  47.7464470 117.1430800  26.4655330  47.1702120 121.5482000  16.9154120
  46.5278280 120.8937620  17.1897840  46.7832780 121.9537090  16.1394790
  42.7488600 118.8767430  20.7625810  43.1012420 118.2795560  20.1027180
  41.8650930 118.5511660  20.9334060  38.8351880 119.6365120  18.1696220
  39.5223010 120.1834330  18.5503810  38.0484300 120.1805850  18.2045830
  30.9744280 115.2537940  13.6613300  31.8439130 115.5362740  13.9449220
  30.4834600 116.0673810  13.5462110  38.1379090 116.6411150  17.7821580
  38.5941870 117.4516400  18.0081770  37.7867300 116.3234290  18.6140070
  40.4411700 122.1517490  25.0113880  41.0853920 122.3576870  25.6887300
  40.8041140 121.3905890  24.5584730  34.0390870 106.9848800  18.2544100
  33.9105500 106.9766700  19.2029020  33.2152890 107.3231890  17.9035110
  41.7143780 120.1549840  23.7291330  42.3566010 119.4543000  23.8423500
  42.2393130 120.9348280  23.5488220  45.5599500 120.4398460  13.4530470
  45.3337080 119.7228900  14.0455110  45.1695700 120.1910900  12.6152220
  43.4881400 120.9544740  26.9327390  43.8237640 121.5411430  27.6105310
  42.5681740 120.8237450  27.1625180  31.3415530 124.4665320  14.2274930
  31.7013170 125.0654660  13.5732200  31.2007870 125.0125210  15.0009960
  31.0384800 108.7439920  27.7150800  30.3243320 108.9436840  28.3203410
  31.4579840 107.9679490  28.0865600  45.1415750 118.3570400  15.1144630
  44.8537450 118.8183090  15.9022510  45.9367920 117.8968170  15.3828850
  31.3257390 122.7320180  28.7017330  31.4348510 121.7914920  28.5612720
  30.6737950 122.9974930  28.0531060  39.3169980 121.0036070  30.1015450
  38.9966850 120.2845310  30.6461140  38.6428340 121.6791140  30.1751510
  37.3584150 121.8496520  15.0448600  37.3494250 122.5826210  14.4293110
  36.4382510 121.6028100  15.1375560  32.9590790 117.0711410  15.7895360
  32.3518740 117.8110310  15.7990660  33.4340140 117.1610770  14.9633560
  42.5323580 111.2362230  25.4652250  42.9004400 110.4157440  25.7931820
  41.6721780 111.2964120  25.8807900  45.8985610 110.1919170  16.2739810
  45.2698770 110.2964840  15.5598040  45.4037530 110.4115950  17.0633690
  40.3443750 121.9124760  13.7073790  40.4455730 121.7088750  12.7775770
  39.4445490 121.6583040  13.9121570  37.8669640 112.4705120  17.6897690
  37.1585790 112.9391460  18.1311300  38.1514120 111.8127130  18.3242880
  39.4925570 113.8901820  25.6890220  39.9910820 114.3647640  26.3542070
  39.6348520 112.9665340  25.8960250  41.8985070 109.1955780  19.1293480
  41.7752850 109.2141910  18.1802990  42.8469630 109.2434720  19.2491880
  38.9861860 124.4311080  18.4021460  39.2403360 124.3932470  17.4800830
  38.0374340 124.3044410  18.3949710  36.0704660 110.7790200  15.0648400
  36.9195190 111.2160350  14.9988590  35.7035930 111.0910460  15.8920460
  46.6992430 110.1069780  26.5318610  46.1966030 110.8475180  26.8712420
  47.5149090 110.4953780  26.2155400  44.9914440 115.3502960  19.9779970
  44.0504580 115.3653190  20.1527660  45.3058510 114.5638920  20.4240270
  34.9696080 117.0322560  13.5383930  35.7359350 116.9203920  14.1009360
  35.0470770 116.3360530  12.8860700  33.6642840 114.4647630  14.2216820
  33.7446430 113.5175140  14.3334220  34.5562590 114.7954510  14.3277480
  46.9940020 122.5211810  21.6534230  47.1187440 123.3442980  22.1258040
  47.8605580 122.3102540  21.3058380  34.4657550 124.6143020  21.3251360
  35.2020030 124.0658480  21.5959930  34.8498470 125.4799030  21.1857350
  31.3503030 120.6816590  17.1992870  30.4242810 120.9237730  17.1898280
  31.8159460 121.5090850  17.0777620  33.4715830 123.7989090  30.5136940
  34.2728560 124.1201140  30.9272340  32.9567650 123.4384670  31.2356850
  37.5759860 123.7873330  13.1476930  38.3688470 124.0762160  12.6958720
  37.0564210 123.3565500  12.4689410  42.3080460 119.9068960  30.4612350
  41.7018620 119.9300560  29.7208100  42.0034570 119.1752000  30.9979600
  43.7380830 123.6349250  29.0721760  44.6902580 123.5507270  29.0222000
  43.5909050 124.2990960  29.7455550  46.6290030 123.0143460  14.5713670
  46.3431540 122.6008600  13.7567850  46.4309580 123.9431170  14.4514190
  31.1913640 116.2862550  29.4572990  31.6952660 115.7069830  30.0289220
  30.4521060 116.5702780  29.9949360  38.0937260 119.0076740  13.0119280
  37.9887900 118.3929090  13.7380660  37.9261480 118.4842630  12.2282290
  38.2451580 117.6933540  28.9908510  37.4797250 118.2618540  28.9063180
  38.4267540 117.4009750  28.0976740  41.3339990 118.0696770  13.6161270
  40.7850090 118.5166070  14.2604010  41.9559250 117.5646020  14.1398940
  45.3874930 119.4238870  29.5483530  46.1284400 119.7614630  29.0450990
  44.6247610 119.5930930  28.9953300  33.2236720 114.4292140  30.3523060
  33.2642060 114.1306010  31.2608290  34.0782220 114.8299750  30.1930580
  37.0015110 117.0287690  15.5126570  37.4231530 116.8627560  16.3557960
  37.1265950 116.2187920  15.0181710  35.1642530 113.0084240  28.3197550
  34.6338990 112.5175190  27.6920890  35.8330600 113.4368440  27.7855480
  39.5142750 116.0525300  12.7603670  40.0348410 115.3374320  12.3944820
  40.1611150 116.6911170  13.0604180  44.0620590 117.4753700  28.0838740
  44.4761610 117.6298780  28.9329160  43.1271590 117.6008920  28.2464520
  44.5342760 114.8149860  30.0877890  45.1163530 114.0602180  29.9998370
  44.7104530 115.3457300  29.3109370  35.6514830 109.9746610  28.3994840
  35.5571700 109.3567360  27.6745710  35.0712220 110.7012900  28.1724750
  38.4176270 108.5319850  25.4322230  37.9693570 108.5544110  24.5867780
  37.7841470 108.1338870  26.0292530  38.8235820 117.4274180  26.0534670
  39.2423930 118.2706910  25.8810910  37.9044450 117.5646220  25.8241450
  41.1599720 115.1590360  27.4372510  41.2795930 114.5631500  28.1767350
  42.0193720 115.1960050  27.0173810  43.4987620 115.7127550  26.0135020
  42.9722840 116.2370170  25.4100160  43.8418960 116.3454940  26.6444750
  35.8974010 113.1020920  12.4584730  35.6963070 112.2388280  12.8198070
  35.7266060 113.0154280  11.5206330  36.6743240 123.7327190  27.1692400
  36.1364330 124.4573250  26.8501100  36.9277200 123.2557530  26.3789740
  37.9268490 111.7011710  28.6948330  38.5168180 111.3927560  29.3826150
  37.1088730 111.2291460  28.8508230  42.7461920 111.3177520  28.9281350
  42.0577440 110.6559060  28.8631340  43.4667940 110.8715790  29.3729810
  43.3762320 107.9129150  14.9871610  43.6564610 107.0697050  15.3431030
  42.6028050 108.1452260  15.5010360  34.6956810 110.2021540  12.4462610
  34.9982710 110.2088970  11.5381760  35.4351400 109.8519400  12.9430270
  39.5305450 124.9678400  27.4279050  39.4564150 125.8713540  27.7351420
  38.6284290 124.6490300  27.4001120  37.9141740 109.1456160  13.4318810
  37.5663740 108.4680150  12.8521260  38.1154510 108.6845670  14.2462200
  40.0790780 124.1336910  15.0505410  40.9741570 124.4721880  15.0724170
  40.1108410 123.4116320  14.4229690  33.7186940 119.5063960  13.2792410
  34.1561810 120.0493630  13.9349990  34.2034670 118.6810910  13.2888750
  30.9332740 122.2952990  20.7312670  31.2635750 121.4274050  20.4991310
  31.3623740 122.5011510  21.5617630  35.5294660 120.6262000  18.3914640
  35.2290200 120.5026970  19.2918550  35.4232150 119.7670590  17.9830370
  31.4222950 123.1623580  23.4694300  30.9853940 123.3424380  24.3018450
  31.9900630 123.9198200  23.3276020  47.0585130 122.6640580  27.7571610
  46.4587120 122.7233140  27.0135530  47.1879030 121.7245560  27.8868460
  48.2986580 120.4058400  13.0941320  47.4679540 120.4735050  13.5648550
  48.4758410 121.2962520  12.7908180  47.7543040 117.1505880  15.5975520
  48.5161950 117.7202530  15.7035210  47.7697410 116.5833080  16.3683830
  31.2547380 115.6743810  19.8283180  30.5996220 115.4055450  19.1842880
  32.0925330 115.5648290  19.3785160  48.7603010 118.0055980  20.4417450
  49.1311840 117.2223300  20.0353420  49.4004940 118.6945080  20.2634750
  45.7436770 119.3892560  25.8547770  44.9296610 119.8189720  26.1173560
  46.1510970 120.0010970  25.2416820  47.8062210 117.4440250  12.7548040
  48.0811050 118.3519130  12.6267260  47.6172950 117.3802780  13.6910030
  44.2037820 110.4685100  14.0501670  44.6222700 110.2816080  13.2098330
  43.8973880 109.6164150  14.3604600  47.7027550 115.3809240  17.7477470
  47.3271150 114.6137170  17.3158760  46.9730670 115.7631940  18.2352400
  32.2923310 116.0596380  24.3686520  32.6596350 115.9723780  25.2482540
  31.7234130 115.2962930  24.2693380  47.0927170 114.5280760  27.3816990
  46.8613260 114.2993510  26.4814940  47.3531720 115.4480310  27.3361880
  31.8439310 112.9705470  28.2744940  30.9495360 112.9372230  28.6138650
  32.3836860 113.1692260  29.0396190  30.4685460 112.8842740  15.7708510
  29.5649540 113.1472940  15.5960170  30.9526080 113.1553910  14.9908470
  46.9778510 113.6066730  21.0484710  47.5015990 113.1129380  20.4174880
  47.5637930 113.7417090  21.7932280  47.1568230 113.6906600  24.5704260
  46.2070940 113.6570140  24.6849250  47.3381240 114.6006710  24.3354030
  33.0112670 111.9408280  13.6802890  33.7204370 111.5191500  13.1950170
  32.2952610 112.0083510  13.0486240  32.6586830 107.9947610  12.7205540
  33.3814960 108.5356550  13.0386760  32.9311350 107.7211030  11.8447080
  46.4678480 112.8640080  16.9877120  46.9637600 112.6310950  17.7726000
  46.2694550 112.0251920  16.5714760  32.3479020 107.2453800  22.6228160
  32.9955210 106.6951180  22.1823320  32.7680860 107.4996950  23.4443970
  47.8965640 111.5001030  19.5214800  47.7864920 111.3457070  20.4597070
  48.6573230 110.9721970  19.2790210  46.2431360 107.4395160  25.9797800
  46.8803580 108.0529300  26.3456990  46.3906250 107.4755820  25.0347030
  48.7855910 109.3308950  12.7620940  49.7105220 109.1990130  12.5539230
  48.7631700 109.4101770  13.7157390  48.8594400 110.1019610  15.3877650
  48.0645900 110.0364730  15.9170560  49.0637680 111.0370250  15.3763000
  45.8012820 124.1411160  19.3816040  46.3971890 123.8195730  18.7050460
  46.0590970 123.6682980  20.1729310  32.1011020 107.4009470  25.3653480
  31.7525840 107.8573290  26.1311660  31.7698720 106.5066600  25.4475910
  33.7075390 120.5729070  29.5306670  33.6645020 120.2021980  30.4121130
  33.8386400 121.5106640  29.6708490  37.4081420 122.1288660  25.1316390
  37.1672780 122.3963220  24.2446910  38.3484060 122.2994390  25.1867250
  39.6135840 108.5921350  28.8872900  39.5524730 109.1843180  29.6368310
  40.5536220 108.4847310  28.7423160  48.6685580 124.1483040  25.9327030
  48.1743860 124.5451910  25.2154160  48.0598870 123.5232250  26.3264310
  32.7731660 106.9285670  28.6404250  33.3214650 106.7473720  27.8770360
  32.8386970 106.1379780  29.1760560  33.5463420 123.5191320  26.6504450
  32.9523740 123.3876020  27.3894490  33.5387260 122.6829460  26.1846550
  42.9918440 106.8123550  24.8534480  42.1178280 107.1458660  24.6507410
  42.8829190 106.3396730  25.6786350  43.8990420 109.0194420  26.2376200
  43.5703780 108.2046180  25.8577930  44.8472720 108.9764230  26.1141890
  46.3525030 124.7906460  23.2113770  45.8928000 125.5422270  22.8371790
  45.7237490 124.0712930  23.1528570  33.1775650 120.8849700  25.6012490
  32.4509710 120.2654990  25.5338440  33.2384800 121.2790310  24.7310570
  36.7820750 123.0994700  22.3861900  37.2985770 122.4882060  21.8610160
  37.4318130 123.6023480  22.8772910  39.5216250 123.9903190  23.2130880
  39.8094060 123.7357490  22.3363890  40.0339470 123.4380550  23.8036450
  40.7393260 107.7293390  23.7927390  39.9565050 108.2038890  24.0724150
  40.4456190 106.8248220  23.6840570  45.2914330 108.4316490  21.8376480
  45.7322420 108.3761590  20.9898080  45.0221920 109.3474500  21.9086660
  47.1552900 108.0631730  19.8485300  47.0941300 107.1192950  19.7016320
  47.9344930 108.1711820  20.3938760  31.4605650 124.2024090  18.8109250
  31.2927690 123.5694770  19.5091140  30.5940160 124.4083490  18.4603440
  32.0833670 108.0340870  16.3141110  32.8413030 108.1469750  15.7405140
  31.6210840 108.8710070  16.2684540  38.6247480 110.1480140  19.3043420
  37.8121990 109.7737030  18.9639300  39.1289120 109.3925220  19.6064610
  43.1272460 106.8122590  20.5426490  43.7301830 107.3842800  21.0175010
  42.3865450 107.3762030  20.3200390  46.2707060 107.2144150  15.8166770
  46.4657690 108.1127600  16.0834200  45.4836930 106.9831230  16.3099720
  33.0668350 122.8957320  16.2559390  32.5415970 123.2765350  15.5521350
  32.9912930 123.5208090  16.9769100  34.4558820 108.5604920  14.8543080
  34.9851580 107.7734720  14.7251030  35.0887140 109.2396110  15.0878610
  36.6496660 108.2980060  17.9088470  36.0199400 107.5967370  18.0758600
  36.1101800 109.0584190  17.6921630  39.5888610 124.9119290  30.5799080
  40.5155920 124.6763560  30.6235040  39.5739040 125.7391290  30.0985110
  47.8233670 124.4544860  17.5773330  47.9985860 123.7682600  16.9334250
  47.1255240 124.9791910  17.1850000  36.7752220 107.5764040  30.3440960
  36.4936490 108.0797640  29.5801780  37.1571920 106.7785790  29.9783090
  35.6661320 124.8439700  15.1308640  36.3980140 124.5598980  14.5832530
  35.9254990 124.6052980  16.0208020  34.8276110 120.9604430  15.1354970
  34.1984990 121.4289530  15.6840800  34.9423940 120.1153650  15.5701160
  46.1566170 124.1389150  30.4040120  46.9491490 123.6438380  30.1966080
  46.4499320 124.8179290  31.0115730  40.4143870 116.7889110   3.1665440
  39.6385970 116.3089550   3.4564010  41.0656800 116.1094760   2.9921600
  34.4309700 117.1008920   4.0441200  33.5994580 116.8457630   4.4437710
  35.0390680 117.1719690   4.7799120  44.4351300 121.1949300   1.9464570
  43.9732830 120.4236540   2.2751740  45.2476850 121.2215370   2.4517020
  34.4110960 121.1349010   4.2399220  34.7139000 120.2446750   4.0609440
  35.1554550 121.6919230   4.0121470  30.8034660 114.6616460   3.7123290
  31.3750770 113.8938660   3.7126930  30.8036200 114.9605220   2.8029900
  39.8552860 119.4646300   3.1735600  39.7861140 118.5236240   3.0124730
  40.6172720 119.5547710   3.7458170  32.0459530 110.0700820   5.4992220
  31.8662370 109.1726570   5.7794980  31.6439610 110.6172690   6.1739170
  40.8858030 112.2716680   3.4004530  41.2622850 111.3988560   3.2878200
  40.7877540 112.6075380   2.5094970  32.6646200 112.5661320   4.1074560
  33.3456310 112.8299690   4.7261960  32.3494250 111.7262190   4.4412570
  36.8570770 113.6128680   3.1947150  37.3648990 114.1109650   3.8352170
  37.3884010 112.8363880   3.0186510  48.9581700 111.7833870   6.8976500
  48.2533870 112.1715580   6.3791610  49.2239620 112.4784160   7.4997430
  35.1406870 108.2527240   7.4610570  35.1425310 108.7699630   6.6556470
  34.3111180 107.7757420   7.4380500  36.3909720 117.8922420   5.6384070
  36.0579100 118.5191340   6.2805140  36.5676400 118.4184300   4.8585740
  44.9043630 111.7067500   3.1060410  44.1999200 111.9952390   3.6863520
  45.2655790 112.5167610   2.7459970  34.8222200 109.9637200   5.4681020
  35.1639010 110.8079250   5.1734890  33.8838010 110.1120940   5.5846360
  35.6028820 119.8603220   7.4533250  36.2202820 120.5354300   7.1717700
  34.7421940 120.2691200   7.3620750  46.5206410 121.3242630   5.3687890
  45.8369930 121.9941740   5.3604560  47.0600700 121.5223280   4.6032750
  47.9730550 111.1522290   3.4969620  47.0255460 111.1861270   3.6285050
  48.2980540 111.9661240   3.8818980  44.0565150 123.1686760   4.0833070
  44.0692310 122.7649050   3.2155330  43.5040370 123.9434050   3.9794500
  43.4550590 118.0716600   5.4115680  43.8719380 117.8576710   4.5769140
  44.1790410 118.3289390   5.9824300  47.4012690 116.4703820   5.5031920
  46.5731320 116.5396910   5.0282050  47.9963170 117.0558130   5.0347750
  44.3654700 113.2573140   6.4486790  43.9525880 114.0826850   6.7026780
  43.6330650 112.6718180   6.2563150  36.9669190 119.7300600   3.4744670
  36.6697480 119.1246070   2.7952450  37.9169010 119.7677910   3.3634030
  35.2116110 112.8176250   5.0904500  35.7630700 112.9271590   4.3157750
  35.7259620 113.1913850   5.8059730  45.0554800 123.3032470   7.1367770
  44.5785360 124.1104660   6.9440380  44.3716590 122.6510800   7.2893980
  36.0587620 119.4682290  10.1252470  35.1616150 119.6922260  10.3725870
  36.0840490 119.5917230   9.1763870  34.8858840 116.3395610   8.7009840
  34.7466610 117.2118410   9.0697240  34.0040200 115.9968420   8.5557780
  36.6839190 122.2817310  10.9094990  36.6554620 122.6860260  10.0423420
  36.5204160 121.3527670  10.7466590  48.6354010 123.0644410  12.2059160
  49.1113730 123.5427300  12.8848240  49.2561170 122.9961900  11.4804660
  30.8377490 118.1093160   4.6180750  30.9157910 118.2441930   3.6736470
  31.4519170 117.4009050   4.8108870  48.0387260 120.2557260   9.3659170
  48.1650320 120.0169140   8.4476350  48.0808640 119.4241800   9.8381250
  41.9004000 123.9585260   7.9353980  42.4148670 123.8693270   8.7376410
  41.0573080 124.3044960   8.2281890  47.8911270 112.3089720  10.3308910
  47.2755540 112.8169390   9.8024370  47.5707690 111.4088050  10.2734850
  30.8937010 119.1507330   7.1575210  31.0568050 118.6812690   6.3394580
  31.3589460 118.6430890   7.8224050  35.6655780 108.2813090   2.1935780
  35.2223930 109.0622630   1.8620300  36.2240770 108.6042980   2.9006720
  39.9525590 111.1481610   7.7971100  39.4904960 111.3564630   8.6091040
  39.5503700 110.3340960   7.4941770  44.9530100 112.3690560   8.9267760
  44.1023690 112.0696310   9.2476830  44.7931890 112.6132570   8.0151580
  42.0479810 113.8692310  11.0266550  42.3733220 113.0356060  10.6868780
  42.8360140 114.3920830  11.1744880  37.7031680 108.8260420   4.0525380
  38.0004010 109.7323250   3.9717400  38.2517240 108.3379200   3.4384950
  37.8969210 114.3032240  10.5877300  37.8012810 113.3626970  10.4377700
  38.7401190 114.5247310  10.1925370  33.0279750 110.7145910   8.7411080
  32.6343140 111.5621120   8.9483860  32.3398150 110.0772280   8.9319720
  39.6024800 110.7980880  11.8107820  38.9123120 110.6053080  12.4453910
  40.3457100 111.0815520  12.3432120  30.3296800 108.6374370   2.7741160
  30.0409850 109.2077230   3.4866140  31.0742560 108.1578820   3.1372390
  41.8787770 114.6379320   4.6461740  41.1468890 115.1466130   4.9951840
  41.4812110 113.8209300   4.3450520  38.3165160 111.3133520   3.0514230
  38.3201220 110.8723470   2.2018770  39.2116280 111.6350850   3.1586050
  34.1667540 111.1960010   2.0108440  33.8267590 111.6735240   2.7675490
  33.4044860 110.7425130   1.6509540  42.3413680 110.0913000   4.0584680
  42.3586420 110.5421650   4.9026530  42.0929260 109.1918640   4.2718120
  45.7684430 107.5045180   9.8971060  46.0930200 106.7734840  10.4229040
  45.8040940 107.1858820   8.9952050  32.4675990 118.5258760   9.3171020
  32.0830780 117.8852430   9.9153980  32.7788180 119.2294880   9.8865750
  38.6173130 115.3735300   4.7979640  38.9843260 114.8993870   5.5440980
  38.4278190 116.2476870   5.1387980  36.4072500 114.4143940   7.1163850
  36.1029570 115.2935920   7.3414210  37.3618960 114.4743730   7.1521290
  45.6942270 117.6170290   3.5057090  46.4141390 118.1125580   3.1153200
  45.4924090 116.9388180   2.8610960  41.0761070 117.6879350   9.3926090
  41.0098380 116.7675020   9.1383680  40.4466210 117.7854790  10.1070730
  32.4636230 115.2546680   8.2635210  32.1051170 115.9200530   8.8508550
  32.1690790 114.4230230   8.6347830  35.6649350 115.7130920  11.1474760
  35.3649490 115.8588100  10.2502580  36.4360590 115.1536210  11.0548150
  41.0077800 120.5099920   9.1429890  41.0222340 119.5780880   8.9248800
  40.3002900 120.5959680   9.7819660  47.2189010 117.1507260   8.4898470
  46.4937200 117.7436040   8.2927860  47.7464470 117.1430800   7.6911840
  40.4411700 122.1517490   6.2370390  41.0853920 122.3576870   6.9143810
  40.8041140 121.3905890   5.7841240  41.7143780 120.1549840   4.9547840
  42.3566010 119.4543000   5.0680010  42.2393130 120.9348280   4.7744730
  43.4881400 120.9544740   8.1583900  43.8237640 121.5411430   8.8361820
  42.5681740 120.8237450   8.3881690  31.0384800 108.7439920   8.9407310
  30.3243320 108.9436840   9.5459920  31.4579840 107.9679490   9.3122110
  31.3257390 122.7320180   9.9273840  31.4348510 121.7914920   9.7869230
  30.6737950 122.9974930   9.2787570  39.3169980 121.0036070  11.3271960
  38.9966850 120.2845310  11.8717650  38.6428340 121.6791140  11.4008020
  42.5323580 111.2362230   6.6908760  42.9004400 110.4157440   7.0188330
  41.6721780 111.2964120   7.1064410  39.4925570 113.8901820   6.9146730
  39.9910820 114.3647640   7.5798580  39.6348520 112.9665340   7.1216760
  46.6992430 110.1069780   7.7575120  46.1966030 110.8475180   8.0968930
  47.5149090 110.4953780   7.4411910  46.9940020 122.5211810   2.8790740
  47.1187440 123.3442980   3.3514550  47.8605580 122.3102540   2.5314890
  34.4657550 124.6143020   2.5507870  35.2020030 124.0658480   2.8216440
  34.8498470 125.4799030   2.4113860  33.4715830 123.7989090  11.7393450
  34.2728560 124.1201140  12.1528850  32.9567650 123.4384670  12.4613360
  42.3080460 119.9068960  11.6868860  41.7018620 119.9300560  10.9464610
  42.0034570 119.1752000  12.2236110  43.7380830 123.6349250  10.2978270
  44.6902580 123.5507270  10.2478510  43.5909050 124.2990960  10.9712060
  31.1913640 116.2862550  10.6829500  31.6952660 115.7069830  11.2545730
  30.4521060 116.5702780  11.2205870  38.2451580 117.6933540  10.2165020
  37.4797250 118.2618540  10.1319690  38.4267540 117.4009750   9.3233250
  45.3874930 119.4238870  10.7740040  46.1284400 119.7614630  10.2707500
  44.6247610 119.5930930  10.2209810  33.2236720 114.4292140  11.5779570
  33.2642060 114.1306010  12.4864800  34.0782220 114.8299750  11.4187090
  35.1642530 113.0084240   9.5454060  34.6338990 112.5175190   8.9177400
  35.8330600 113.4368440   9.0111990  44.0620590 117.4753700   9.3095250
  44.4761610 117.6298780  10.1585670  43.1271590 117.6008920   9.4721030
  44.5342760 114.8149860  11.3134400  45.1163530 114.0602180  11.2254880
  44.7104530 115.3457300  10.5365880  35.6514830 109.9746610   9.6251350
  35.5571700 109.3567360   8.9002220  35.0712220 110.7012900   9.3981260
  38.4176270 108.5319850   6.6578740  37.9693570 108.5544110   5.8124290
  37.7841470 108.1338870   7.2549040  38.8235820 117.4274180   7.2791180
  39.2423930 118.2706910   7.1067420  37.9044450 117.5646220   7.0497960
  41.1599720 115.1590360   8.6629020  41.2795930 114.5631500   9.4023860
  42.0193720 115.1960050   8.2430320  43.4987620 115.7127550   7.2391530
  42.9722840 116.2370170   6.6356670  43.8418960 116.3454940   7.8701260
  36.6743240 123.7327190   8.3948910  36.1364330 124.4573250   8.0757610
  36.9277200 123.2557530   7.6046250  37.9268490 111.7011710   9.9204840
  38.5168180 111.3927560  10.6082660  37.1088730 111.2291460  10.0764740
  42.7461920 111.3177520  10.1537860  42.0577440 110.6559060  10.0887850
  43.4667940 110.8715790  10.5986320  39.5305450 124.9678400   8.6535560
  39.4564150 125.8713540   8.9607930  38.6284290 124.6490300   8.6257630
  30.9332740 122.2952990   1.9569180  31.2635750 121.4274050   1.7247820
  31.3623740 122.5011510   2.7874140  31.4222950 123.1623580   4.6950810
  30.9853940 123.3424380   5.5274960  31.9900630 123.9198200   4.5532530
  47.0585130 122.6640580   8.9828120  46.4587120 122.7233140   8.2392040
  47.1879030 121.7245560   9.1124970  45.7436770 119.3892560   7.0804280
  44.9296610 119.8189720   7.3430070  46.1510970 120.0010970   6.4673330
  32.2923310 116.0596380   5.5943030  32.6596350 115.9723780   6.4739050
  31.7234130 115.2962930   5.4949890  47.0927170 114.5280760   8.6073500
  46.8613260 114.2993510   7.7071450  47.3531720 115.4480310   8.5618390
  31.8439310 112.9705470   9.5001450  30.9495360 112.9372230   9.8395160
  32.3836860 113.1692260  10.2652700  45.5315240 109.7537190  11.3853200
  46.4085420 109.7620590  11.7687200  45.5436080 109.0168030  10.7745550
  46.9778510 113.6066730   2.2741220  47.5015990 113.1129380   1.6431390
  47.5637930 113.7417090   3.0188790  47.1568230 113.6906600   5.7960770
  46.2070940 113.6570140   5.9105760  47.3381240 114.6006710   5.5610540
  32.3479020 107.2453800   3.8484670  32.9955210 106.6951180   3.4079830
  32.7680860 107.4996950   4.6700480  46.2431360 107.4395160   7.2054310
  46.8803580 108.0529300   7.5713500  46.3906250 107.4755820   6.2603540
  32.1011020 107.4009470   6.5909990  31.7525840 107.8573290   7.3568170
  31.7698720 106.5066600   6.6732420  33.7075390 120.5729070  10.7563180
  33.6645020 120.2021980  11.6377640  33.8386400 121.5106640  10.8965000
  37.4081420 122.1288660   6.3572900  37.1672780 122.3963220   5.4703420
  38.3484060 122.2994390   6.4123760  39.6135840 108.5921350  10.1129410
  39.5524730 109.1843180  10.8624820  40.5536220 108.4847310   9.9679670
  42.2510400 108.2491410   9.7521700  42.8650810 108.5670700   9.0902780
  42.7959960 107.7640000  10.3717560  48.6685580 124.1483040   7.1583540
  48.1743860 124.5451910   6.4410670  48.0598870 123.5232250   7.5520820
  32.7731660 106.9285670   9.8660760  33.3214650 106.7473720   9.1026870
  32.8386970 106.1379780  10.4017070  33.5463420 123.5191320   7.8760960
  32.9523740 123.3876020   8.6151000  33.5387260 122.6829460   7.4103060
  42.9918440 106.8123550   6.0790990  42.1178280 107.1458660   5.8763920
  42.8829190 106.3396730   6.9042860  43.8990420 109.0194420   7.4632710
  43.5703780 108.2046180   7.0834440  44.8472720 108.9764230   7.3398400
  46.3525030 124.7906460   4.4370280  45.8928000 125.5422270   4.0628300
  45.7237490 124.0712930   4.3785080  33.1775650 120.8849700   6.8269000
  32.4509710 120.2654990   6.7594950  33.2384800 121.2790310   5.9567080
  36.7820750 123.0994700   3.6118410  37.2985770 122.4882060   3.0866670
  37.4318130 123.6023480   4.1029420  39.5216250 123.9903190   4.4387390
  39.8094060 123.7357490   3.5620400  40.0339470 123.4380550   5.0292960
  40.7393260 107.7293390   5.0183900  39.9565050 108.2038890   5.2980660
  40.4456190 106.8248220   4.9097080  45.2914330 108.4316490   3.0632990
  45.7322420 108.3761590   2.2154590  45.0221920 109.3474500   3.1343170
  43.1272460 106.8122590   1.7683000  43.7301830 107.3842800   2.2431520
  42.3865450 107.3762030   1.5456900  39.5888610 124.9119290  11.8055590
  40.5155920 124.6763560  11.8491550  39.5739040 125.7391290  11.3241620
  36.7752220 107.5764040  11.5697470  36.4936490 108.0797640  10.8058290
  37.1571920 106.7785790  11.2039600  43.3767680 106.9917620  12.1477940
  43.2633130 107.3112230  13.0429460  44.1937420 107.3930130  11.8515220
  46.1566170 124.1389150  11.6296630  46.9491490 123.6438380  11.4222590
  46.4499320 124.8179290  12.2372240  42.2825830  96.2366600 151.4804090
  42.2019880  95.3221210 151.2095800  41.8690250  96.7333670 150.7743800
  40.4143870  98.0145620 153.3613360  39.6385970  97.5346060 153.6511930
  41.0656800  97.3351270 153.1869520  44.4351300 102.4205810 152.1412490
  43.9732830 101.6493050 152.4699660  45.2476850 102.4471880 152.6464940
  34.4110960 102.3605520 154.4347140  34.7139000 101.4703260 154.2557360
  35.1554550 102.9175740 154.2069390  32.8401650  93.2867320 148.0231510
  31.9518350  93.6283290 147.9211390  33.1242840  93.0867640 147.1312340
  30.8034660  95.8872970 153.9071210  31.3750770  95.1195170 153.9074850
  30.8036200  96.1861730 152.9977820  40.6614610 104.7063820 151.7616480
  40.0426050 105.1621320 151.1910920  41.5166390 104.8615280 151.3606180
  39.8552860 100.6902810 153.3683520  39.7861140  99.7492750 153.2072650
  40.6172720 100.7804220 153.9406090  40.8858030  93.4973190 153.5952450
  41.2622850  92.6245070 153.4826120  40.7877540  93.8331890 152.7042890
  35.0163040  91.8698820 149.0569890  35.1229790  92.7702550 149.3638650
  34.1055400  91.8216790 148.7664540  44.6682150  90.9923630 150.5280790
  45.4891770  90.5020200 150.5706270  44.7016230  91.5821290 151.2812630
  36.8570770  94.8385190 153.3895070  37.3648990  95.3366160 154.0300090
  37.3884010  94.0620390 153.2134430  41.5277960  99.5903060 149.1548390
  40.9095230 100.0552510 148.5911110  42.0401210 100.2830540 149.5717900
  44.9043630  92.9324010 153.3008330  44.1999200  93.2208900 153.8811440
  45.2655790  93.7424120 152.9407890  30.8961160 100.2759590 146.5288020
  30.5189140 100.7646690 145.7972920  31.1534230 100.9484870 147.1594550
  47.9730550  92.3778800 153.6917540  47.0255460  92.4117780 153.8232970
  48.2980540  93.1917750 154.0766900  38.5050090  88.6775980 151.9873530
  38.8125070  88.1222870 151.2709030  37.5750790  88.8120440 151.8046520
  44.0565150 104.3943270 154.2780990  44.0692310 103.9905560 153.4103250
  43.5040370 105.1690560 154.1742420  45.3510570 101.1159490 149.3671160
  45.2406900 100.1733820 149.4920580  45.3478820 101.4775130 150.2533920
  40.8930850  96.7424810 148.7233650  39.9660130  96.6762190 148.9522120
  41.0455670  97.6804940 148.6088890  40.8799930  93.0141810 145.7200810
  39.9403600  93.1755770 145.8053270  41.1983190  93.7327490 145.1736800
  44.9228140  98.3045110 149.2268900  44.3040560  97.9664660 148.5795200
  44.9052590  97.6604870 149.9348090  36.4987490  97.2689550 151.5053380
  36.0944490  96.5566800 151.0099280  36.5850610  96.9242790 152.3941420
  36.9669190 100.9557110 153.6692590  36.6697480 100.3502580 152.9900370
  37.9169010 100.9934420 153.5581950  43.0992840  97.5431920 146.2341650
  43.5386120  96.7054350 146.0879470  43.8121260  98.1761320 146.3205790
  41.2088220 102.4827990 150.2022890  41.6484130 103.2252320 149.7878280
  41.1475110 102.7254560 151.1261850  46.6809980  88.7974730 144.5482690
  46.3682640  88.8901560 145.4481760  47.4422450  89.3755760 144.4980120
  33.1992120  96.1634530 149.0060030  33.0789720  96.8896620 148.3941300
  32.8893010  95.3937440 148.5287940  32.0825120 101.0349860 151.2234850
  31.6753200 101.1764450 150.3688450  32.9738130 100.7510020 151.0206060
  43.8758400 105.4697110 147.5585900  43.7159540 105.1800050 148.4567730
  43.7105110 104.6937240 147.0231130  36.3546780 105.2495640 149.3357520
  36.1789260 104.3331180 149.1225320  35.5002520 105.6082930 149.5755320
  43.5784530 102.9784670 146.1183900  42.8849690 102.9761960 145.4586180
  44.3207390 102.5543990 145.6878070  43.1434460 104.6047380 150.1932390
  43.5991410 103.8236760 150.5071010  43.4826980 105.3154200 150.7373570
  35.6655780  89.5069600 152.3883700  35.2223930  90.2879140 152.0568220
  36.2240770  89.8299490 153.0954640  38.7814600  89.1280300 147.2689530
  38.1568780  89.1240170 147.9942840  38.6944720  88.2611260 146.8725500
  37.7031680  90.0516930 154.2473300  38.0004010  90.9579760 154.1665320
  38.2517240  89.5635710 153.6332870  35.4570000  94.6303170 150.1164950
  35.2310920  94.4140340 151.0211570  34.6762530  95.0631630 149.7710920
  42.6867760  94.6366540 148.7155600  42.0876650  95.3602340 148.5319220
  43.2347370  94.5743320 147.9332050  41.2932630  93.2730080 150.7458880
  41.6862200  93.5902280 149.9327570  41.6549480  92.3941960 150.8603400
  30.3296800  89.8630880 152.9689080  30.0409850  90.4333740 153.6814060
  31.0742560  89.3835330 153.3320310  30.5167030  93.8051000 144.1791800
  30.4341700  94.7481760 144.3206790  30.1650090  93.6625910 143.3004150
  38.3165160  92.5390030 153.2462150  38.3201220  92.0979980 152.3966690
  39.2116280  92.8607360 153.3533970  34.1667540  92.4216520 152.2056360
  33.8267590  92.8991750 152.9623410  33.4044860  91.9681640 151.8457460
  38.3785310  93.5402110 146.2368910  38.4998130  93.4988590 147.1854730
  37.9933820  94.4026260 146.0815640  37.3906810  95.8503250 145.6352210
  36.8223710  95.4021500 145.0088120  38.0995810  96.2096030 145.1017360
  31.4813620  91.3435500 151.1221030  31.1960540  90.9791170 151.9599650
  31.4192480  90.6115960 150.5084170  34.9354290  99.8461440 147.9078620
  34.1616550  99.3059060 147.7477340  35.6648920  99.3268050 147.5696380
  45.6942270  98.8426800 153.7005010  46.4141390  99.3382090 153.3101120
  45.4924090  98.1644690 153.0558880  41.1552210  90.2364760 147.8434400
  40.3416820  89.7377930 147.7679710  40.9614160  91.0763010 147.4270750
  43.8700600  94.6084410 146.1396560  44.7580220  94.9201640 145.9647900
  43.8405690  93.7356660 145.7477140  34.9791690  99.5141820 151.5457430
  35.4970360  98.7110080 151.4914320  34.5275710  99.4520960 152.3874260
  39.8661190 100.7808100 146.8184730  40.2076890 101.5250330 146.3228050
  39.0373900 101.0939220 147.1809560  46.1414870  95.9196250 145.6076420
  46.0578590  96.3510470 144.7572860  46.8609060  96.3794600 146.0403240
  47.1702120 102.7738510 148.3358550  46.5278280 102.1194130 148.6102270
  46.7832780 103.1793600 147.5599220  42.7488600 100.1023940 152.1830240
  43.1012420  99.5052070 151.5231610  41.8650930  99.7768170 152.3538490
  38.8351880 100.8621630 149.5900650  39.5223010 101.4090840 149.9708240
  38.0484300 101.4062360 149.6250260  30.9744280  96.4794450 145.0817730
  31.8439130  96.7619250 145.3653650  30.4834600  97.2930320 144.9666540
  38.1379090  97.8667660 149.2026010  38.5941870  98.6772910 149.4286200
  37.7867300  97.5490800 150.0344500  34.0390870  88.2105310 149.6748530
  33.9105500  88.2023210 150.6233450  33.2152890  88.5488400 149.3239540
  45.5599500 101.6654970 144.8734900  45.3337080 100.9485410 145.4659540
  45.1695700 101.4167410 144.0356650  31.3415530 105.6921830 145.6479360
  31.7013170 106.2911170 144.9936630  31.2007870 106.2381720 146.4214390
  45.1415750  99.5826910 146.5349060  44.8537450 100.0439600 147.3226940
  45.9367920  99.1224680 146.8033280  37.3584150 103.0753030 146.4653030
  37.3494250 103.8082720 145.8497540  36.4382510 102.8284610 146.5579990
  32.9590790  98.2967920 147.2099790  32.3518740  99.0366820 147.2195090
  33.4340140  98.3867280 146.3837990  45.8985610  91.4175680 147.6944240
  45.2698770  91.5221350 146.9802470  45.4037530  91.6372460 148.4838120
  40.3443750 103.1381270 145.1278220  40.4455730 102.9345260 144.1980200
  39.4445490 102.8839550 145.3326000  37.8669640  93.6961630 149.1102120
  37.1585790  94.1647970 149.5515730  38.1514120  93.0383640 149.7447310
  41.8985070  90.4212290 150.5497910  41.7752850  90.4398420 149.6007420
  42.8469630  90.4691230 150.6696310  38.9861860 105.6567590 149.8225890
  39.2403360 105.6188980 148.9005260  38.0374340 105.5300920 149.8154140
  36.0704660  92.0046710 146.4852830  36.9195190  92.4416860 146.4193020
  35.7035930  92.3166970 147.3124890  44.9914440  96.5759470 151.3984400
  44.0504580  96.5909700 151.5732090  45.3058510  95.7895430 151.8444700
  34.9696080  98.2579070 144.9588360  35.7359350  98.1460430 145.5213790
  35.0470770  97.5617040 144.3065130  33.6642840  95.6904140 145.6421250
  33.7446430  94.7431650 145.7538650  34.5562590  96.0211020 145.7481910
  46.9940020 103.7468320 153.0738660  47.1187440 104.5699490 153.5462470
  47.8605580 103.5359050 152.7262810  34.4657550 105.8399530 152.7455790
  35.2020030 105.2914990 153.0164360  34.8498470 106.7055540 152.6061780
  31.3503030 101.9073100 148.6197300  30.4242810 102.1494240 148.6102710
  31.8159460 102.7347360 148.4982050  37.5759860 105.0129840 144.5681360
  38.3688470 105.3018670 144.1163150  37.0564210 104.5822010 143.8893840
  46.6290030 104.2399970 145.9918100  46.3431540 103.8265110 145.1772280
  46.4309580 105.1687680 145.8718620  38.0937260 100.2333250 144.4323710
  37.9887900  99.6185600 145.1585090  37.9261480  99.7099140 143.6486720
  41.3339990  99.2953280 145.0365700  40.7850090  99.7422580 145.6808440
  41.9559250  98.7902530 145.5603370  37.0015110  98.2544200 146.9331000
  37.4231530  98.0884070 147.7762390  37.1265950  97.4444430 146.4386140
  39.5142750  97.2781810 144.1808100  40.0348410  96.5630830 143.8149250
  40.1611150  97.9167680 144.4808610  35.8974010  94.3277430 143.8789160
  35.6963070  93.4644790 144.2402500  35.7266060  94.2410790 142.9410760
  43.3762320  89.1385660 146.4076040  43.6564610  88.2953560 146.7635460
  42.6028050  89.3708770 146.9214790  34.6956810  91.4278050 143.8667040
  34.9982710  91.4345480 142.9586190  35.4351400  91.0775910 144.3634700
  37.9141740  90.3712670 144.8523240  37.5663740  89.6936660 144.2725690
  38.1154510  89.9102180 145.6666630  40.0790780 105.3593420 146.4709840
  40.9741570 105.6978390 146.4928600  40.1108410 104.6372830 145.8434120
  33.7186940 100.7320470 144.6996840  34.1561810 101.2750140 145.3554420
  34.2034670  99.9067420 144.7093180  30.9332740 103.5209500 152.1517100
  31.2635750 102.6530560 151.9195740  31.3623740 103.7268020 152.9822060
  35.5294660 101.8518510 149.8119070  35.2290200 101.7283480 150.7122980
  35.4232150 100.9927100 149.4034800  48.2986580 101.6314910 144.5145750
  47.4679540 101.6991560 144.9852980  48.4758410 102.5219030 144.2112610
  47.7543040  98.3762390 147.0179950  48.5161950  98.9459040 147.1239640
  47.7697410  97.8089590 147.7888260  31.2547380  96.9000320 151.2487610
  30.5996220  96.6311960 150.6047310  32.0925330  96.7904800 150.7989590
  48.7603010  99.2312490 151.8621880  49.1311840  98.4479810 151.4557850
  49.4004940  99.9201590 151.6839180  47.8062210  98.6696760 144.1752470
  48.0811050  99.5775640 144.0471690  47.6172950  98.6059290 145.1114460
  44.2037820  91.6941610 145.4706100  44.6222700  91.5072590 144.6302760
  43.8973880  90.8420660 145.7809030  47.7027550  96.6065750 149.1681900
  47.3271150  95.8393680 148.7363190  46.9730670  96.9888450 149.6556830
  30.4685460  94.1099250 147.1912940  29.5649540  94.3729450 147.0164600
  30.9526080  94.3810420 146.4112900  46.9778510  94.8323240 152.4689140
  47.5015990  94.3385890 151.8379310  47.5637930  94.9673600 153.2136710
  33.0112670  93.1664790 145.1007320  33.7204370  92.7448010 144.6154600
  32.2952610  93.2340020 144.4690670  32.6586830  89.2204120 144.1409970
  33.3814960  89.7613060 144.4591190  32.9311350  88.9467540 143.2651510
  46.4678480  94.0896590 148.4081550  46.9637600  93.8567460 149.1930430
  46.2694550  93.2508430 147.9919190  47.8965640  92.7257540 150.9419230
  47.7864920  92.5713580 151.8801500  48.6573230  92.1978480 150.6994640
  48.7855910  90.5565460 144.1825370  49.7105220  90.4246640 143.9743660
  48.7631700  90.6358280 145.1361820  48.8594400  91.3276120 146.8082080
  48.0645900  91.2621240 147.3374990  49.0637680  92.2626760 146.7967430
  45.8012820 105.3667670 150.8020470  46.3971890 105.0452240 150.1254890
  46.0590970 104.8939490 151.5933740  36.7820750 104.3251210 153.8066330
  37.2985770 103.7138570 153.2814590  37.4318130 104.8279990 154.2977340
  45.2914330  89.6573000 153.2580910  45.7322420  89.6018100 152.4102510
  45.0221920  90.5731010 153.3291090  47.1552900  89.2888240 151.2689730
  47.0941300  88.3449460 151.1220750  47.9344930  89.3968330 151.8143190
  31.4605650 105.4280600 150.2313680  31.2927690 104.7951280 150.9295570
  30.5940160 105.6340000 149.8807870  32.0833670  89.2597380 147.7345540
  32.8413030  89.3726260 147.1609570  31.6210840  90.0966580 147.6888970
  38.6247480  91.3736650 150.7247850  37.8121990  90.9993540 150.3843730
  39.1289120  90.6181730 151.0269040  43.1272460  88.0379100 151.9630920
  43.7301830  88.6099310 152.4379440  42.3865450  88.6018540 151.7404820
  46.2707060  88.4400660 147.2371200  46.4657690  89.3384110 147.5038630
  45.4836930  88.2087740 147.7304150  33.0668350 104.1213830 147.6763820
  32.5415970 104.5021860 146.9725780  32.9912930 104.7464600 148.3973530
  34.4558820  89.7861430 146.2747510  34.9851580  88.9991230 146.1455460
  35.0887140  90.4652620 146.5083040  36.6496660  89.5236570 149.3292900
  36.0199400  88.8223880 149.4963030  36.1101800  90.2840700 149.1126060
  47.8233670 105.6801370 148.9977760  47.9985860 104.9939110 148.3538680
  47.1255240 106.2048420 148.6054430  35.6661320 106.0696210 146.5513070
  36.3980140 105.7855490 146.0036960  35.9254990 105.8309490 147.4412450
  34.8276110 102.1860940 146.5559400  34.1984990 102.6546040 147.1045230
  34.9423940 101.3410160 146.9905590  42.2825830  96.2366600 132.7060600
  42.2019880  95.3221210 132.4352310  41.8690250  96.7333670 132.0000310
  40.4143870  98.0145620 134.5869870  39.6385970  97.5346060 134.8768440
  41.0656800  97.3351270 134.4126030  34.4309700  98.3265430 135.4645630
  33.5994580  98.0714140 135.8642140  35.0390680  98.3976200 136.2003550
  44.4351300 102.4205810 133.3669000  43.9732830 101.6493050 133.6956170
  45.2476850 102.4471880 133.8721450  34.4110960 102.3605520 135.6603650
  34.7139000 101.4703260 135.4813870  35.1554550 102.9175740 135.4325900
  32.8401650  93.2867320 129.2488020  31.9518350  93.6283290 129.1467900
  33.1242840  93.0867640 128.3568850  30.8034660  95.8872970 135.1327720
  31.3750770  95.1195170 135.1331360  30.8036200  96.1861730 134.2234330
  40.6614610 104.7063820 132.9872990  40.0426050 105.1621320 132.4167430
  41.5166390 104.8615280 132.5862690  39.8552860 100.6902810 134.5940030
  39.7861140  99.7492750 134.4329160  40.6172720 100.7804220 135.1662600
  32.0459530  91.2957330 136.9196650  31.8662370  90.3983080 137.1999410
  31.6439610  91.8429200 137.5943600  40.8858030  93.4973190 134.8208960
  41.2622850  92.6245070 134.7082630  40.7877540  93.8331890 133.9299400
  35.0163040  91.8698820 130.2826400  35.1229790  92.7702550 130.5895160
  34.1055400  91.8216790 129.9921050  32.6646200  93.7917830 135.5278990
  33.3456310  94.0556200 136.1466390  32.3494250  92.9518700 135.8617000
  36.8570770  94.8385190 134.6151580  37.3648990  95.3366160 135.2556600
  37.3884010  94.0620390 134.4390940  48.9581700  93.0090380 138.3180930
  48.2533870  93.3972090 137.7996040  49.2239620  93.7040670 138.9201860
  35.1406870  89.4783750 138.8815000  35.1425310  89.9956140 138.0760900
  34.3111180  89.0013930 138.8584930  41.5277960  99.5903060 130.3804900
  40.9095230 100.0552510 129.8167620  42.0401210 100.2830540 130.7974410
  36.3909720  99.1178930 137.0588500  36.0579100  99.7447850 137.7009570
  36.5676400  99.6440810 136.2790170  44.9043630  92.9324010 134.5264840
  44.1999200  93.2208900 135.1067950  45.2655790  93.7424120 134.1664400
  34.8222200  91.1893710 136.8885450  35.1639010  92.0335760 136.5939320
  33.8838010  91.3377450 137.0050790  35.6028820 101.0859730 138.8737680
  36.2202820 101.7610810 138.5922130  34.7421940 101.4947710 138.7825180
  30.8961160 100.2759590 127.7544530  30.5189140 100.7646690 127.0229430
  31.1534230 100.9484870 128.3851060  46.5206410 102.5499140 136.7892320
  45.8369930 103.2198250 136.7808990  47.0600700 102.7479790 136.0237180
  38.5050090  88.6775980 133.2130040  38.8125070  88.1222870 132.4965540
  37.5750790  88.8120440 133.0303030  44.0565150 104.3943270 135.5037500
  44.0692310 103.9905560 134.6359760  43.5040370 105.1690560 135.3998930
  45.3510570 101.1159490 130.5927670  45.2406900 100.1733820 130.7177090
  45.3478820 101.4775130 131.4790430  43.4550590  99.2973110 136.8320110
  43.8719380  99.0833220 135.9973570  44.1790410  99.5545900 137.4028730
  40.8930850  96.7424810 129.9490160  39.9660130  96.6762190 130.1778630
  41.0455670  97.6804940 129.8345400  40.8799930  93.0141810 126.9457320
  39.9403600  93.1755770 127.0309780  41.1983190  93.7327490 126.3993310
  47.4012690  97.6960330 136.9236350  46.5731320  97.7653420 136.4486480
  47.9963170  98.2814640 136.4552180  44.9228140  98.3045110 130.4525410
  44.3040560  97.9664660 129.8051710  44.9052590  97.6604870 131.1604600
  44.3654700  94.4829650 137.8691220  43.9525880  95.3083360 138.1231210
  43.6330650  93.8974690 137.6767580  36.4987490  97.2689550 132.7309890
  36.0944490  96.5566800 132.2355790  36.5850610  96.9242790 133.6197930
  36.9669190 100.9557110 134.8949100  36.6697480 100.3502580 134.2156880
  37.9169010 100.9934420 134.7838460  35.2116110  94.0432760 136.5108930
  35.7630700  94.1528100 135.7362180  35.7259620  94.4170360 137.2264160
  45.0554800 104.5288980 138.5572200  44.5785360 105.3361170 138.3644810
  44.3716590 103.8767310 138.7098410  36.0587620 100.6938800 141.5456900
  35.1616150 100.9178770 141.7930300  36.0840490 100.8173740 140.5968300
  43.0992840  97.5431920 127.4598160  43.5386120  96.7054350 127.3135980
  43.8121260  98.1761320 127.5462300  34.8858840  97.5652120 140.1214270
  34.7466610  98.4374920 140.4901670  34.0040200  97.2224930 139.9762210
  41.2088220 102.4827990 131.4279400  41.6484130 103.2252320 131.0134790
  41.1475110 102.7254560 132.3518360  36.6839190 103.5073820 142.3299420
  36.6554620 103.9116770 141.4627850  36.5204160 102.5784180 142.1671020
  46.6809980  88.7974730 125.7739200  46.3682640  88.8901560 126.6738270
  47.4422450  89.3755760 125.7236630  33.1992120  96.1634530 130.2316540
  33.0789720  96.8896620 129.6197810  32.8893010  95.3937440 129.7544450
  48.6354010 104.2900920 143.6263590  49.1113730 104.7683810 144.3052670
  49.2561170 104.2218410 142.9009090  30.8377490  99.3349670 136.0385180
  30.9157910  99.4698440 135.0940900  31.4519170  98.6265560 136.2313300
  32.0825120 101.0349860 132.4491360  31.6753200 101.1764450 131.5944960
  32.9738130 100.7510020 132.2462570  48.0387260 101.4813770 140.7863600
  48.1650320 101.2425650 139.8680780  48.0808640 100.6498310 141.2585680
  41.9004000 105.1841770 139.3558410  42.4148670 105.0949780 140.1580840
  41.0573080 105.5301470 139.6486320  43.8758400 105.4697110 128.7842410
  43.7159540 105.1800050 129.6824240  43.7105110 104.6937240 128.2487640
  36.3546780 105.2495640 130.5614030  36.1789260 104.3331180 130.3481830
  35.5002520 105.6082930 130.8011830  43.5784530 102.9784670 127.3440410
  42.8849690 102.9761960 126.6842690  44.3207390 102.5543990 126.9134580
  43.1434460 104.6047380 131.4188900  43.5991410 103.8236760 131.7327520
  43.4826980 105.3154200 131.9630080  47.8911270  93.5346230 141.7513340
  47.2755540  94.0425900 141.2228800  47.5707690  92.6344560 141.6939280
  30.8937010 100.3763840 138.5779640  31.0568050  99.9069200 137.7599010
  31.3589460  99.8687400 139.2428480  35.6655780  89.5069600 133.6140210
  35.2223930  90.2879140 133.2824730  36.2240770  89.8299490 134.3211150
  39.9525590  92.3738120 139.2175530  39.4904960  92.5821140 140.0295470
  39.5503700  91.5597470 138.9146200  44.9530100  93.5947070 140.3472190
  44.1023690  93.2952820 140.6681260  44.7931890  93.8389080 139.4356010
  42.0479810  95.0948820 142.4470980  42.3733220  94.2612570 142.1073210
  42.8360140  95.6177340 142.5949310  38.7814600  89.1280300 128.4946040
  38.1568780  89.1240170 129.2199350  38.6944720  88.2611260 128.0982010
  37.7031680  90.0516930 135.4729810  38.0004010  90.9579760 135.3921830
  38.2517240  89.5635710 134.8589380  35.4570000  94.6303170 131.3421460
  35.2310920  94.4140340 132.2468080  34.6762530  95.0631630 130.9967430
  42.6867760  94.6366540 129.9412110  42.0876650  95.3602340 129.7575730
  43.2347370  94.5743320 129.1588560  37.8969210  95.5288750 142.0081730
  37.8012810  94.5883480 141.8582130  38.7401190  95.7503820 141.6129800
  41.2932630  93.2730080 131.9715390  41.6862200  93.5902280 131.1584080
  41.6549480  92.3941960 132.0859910  33.0279750  91.9402420 140.1615510
  32.6343140  92.7877630 140.3688290  32.3398150  91.3028790 140.3524150
  39.6024800  92.0237390 143.2312250  38.9123120  91.8309590 143.8658340
  40.3457100  92.3072030 143.7636550  30.3296800  89.8630880 134.1945590
  30.0409850  90.4333740 134.9070570  31.0742560  89.3835330 134.5576820
  30.5167030  93.8051000 125.4048310  30.4341700  94.7481760 125.5463300
  30.1650090  93.6625910 124.5260660  41.8787770  95.8635830 136.0666170
  41.1468890  96.3722640 136.4156270  41.4812110  95.0465810 135.7654950
  38.3165160  92.5390030 134.4718660  38.3201220  92.0979980 133.6223200
  39.2116280  92.8607360 134.5790480  34.1667540  92.4216520 133.4312870
  33.8267590  92.8991750 134.1879920  33.4044860  91.9681640 133.0713970
  38.3785310  93.5402110 127.4625420  38.4998130  93.4988590 128.4111240
  37.9933820  94.4026260 127.3072150  42.3413680  91.3169510 135.4789110
  42.3586420  91.7678160 136.3230960  42.0929260  90.4175150 135.6922550
  37.3906810  95.8503250 126.8608720  36.8223710  95.4021500 126.2344630
  38.0995810  96.2096030 126.3273870  45.7684430  88.7301690 141.3175490
  46.0930200  87.9991350 141.8433470  45.8040940  88.4115330 140.4156480
  32.4675990  99.7515270 140.7375450  32.0830780  99.1108940 141.3358410
  32.7788180 100.4551390 141.3070180  38.6173130  96.5991810 136.2184070
  38.9843260  96.1250380 136.9645410  38.4278190  97.4733380 136.5592410
  31.4813620  91.3435500 132.3477540  31.1960540  90.9791170 133.1856160
  31.4192480  90.6115960 131.7340680  36.4072500  95.6400450 138.5368280
  36.1029570  96.5192430 138.7618640  37.3618960  95.7000240 138.5725720
  34.9354290  99.8461440 129.1335130  34.1616550  99.3059060 128.9733850
  35.6648920  99.3268050 128.7952890  45.6942270  98.8426800 134.9261520
  46.4141390  99.3382090 134.5357630  45.4924090  98.1644690 134.2815390
  41.1552210  90.2364760 129.0690910  40.3416820  89.7377930 128.9936220
  40.9614160  91.0763010 128.6527260  41.0761070  98.9135860 140.8130520
  41.0098380  97.9931530 140.5588110  40.4466210  99.0111300 141.5275160
  43.8700600  94.6084410 127.3653070  44.7580220  94.9201640 127.1904410
  43.8405690  93.7356660 126.9733650  34.9791690  99.5141820 132.7713940
  35.4970360  98.7110080 132.7170830  34.5275710  99.4520960 133.6130770
  39.8661190 100.7808100 128.0441240  40.2076890 101.5250330 127.5484560
  39.0373900 101.0939220 128.4066070  32.4636230  96.4803190 139.6839640
  32.1051170  97.1457040 140.2712980  32.1690790  95.6486740 140.0552260
  35.6649350  96.9387430 142.5679190  35.3649490  97.0844610 141.6707010
  36.4360590  96.3792720 142.4752580  41.0077800 101.7356430 140.5634320
  41.0222340 100.8037390 140.3453230  40.3002900 101.8216190 141.2024090
  46.1414870  95.9196250 126.8332930  46.0578590  96.3510470 125.9829370
  46.8609060  96.3794600 127.2659750  47.2189010  98.3763770 139.9102900
  46.4937200  98.9692550 139.7132290  47.7464470  98.3687310 139.1116270
  47.1702120 102.7738510 129.5615060  46.5278280 102.1194130 129.8358780
  46.7832780 103.1793600 128.7855730  42.7488600 100.1023940 133.4086750
  43.1012420  99.5052070 132.7488120  41.8650930  99.7768170 133.5795000
  38.8351880 100.8621630 130.8157160  39.5223010 101.4090840 131.1964750
  38.0484300 101.4062360 130.8506770  30.9744280  96.4794450 126.3074240
  31.8439130  96.7619250 126.5910160  30.4834600  97.2930320 126.1923050
  38.1379090  97.8667660 130.4282520  38.5941870  98.6772910 130.6542710
  37.7867300  97.5490800 131.2601010  40.4411700 103.3774000 137.6574820
  41.0853920 103.5833380 138.3348240  40.8041140 102.6162400 137.2045670
  34.0390870  88.2105310 130.9005040  33.9105500  88.2023210 131.8489960
  33.2152890  88.5488400 130.5496050  41.7143780 101.3806350 136.3752270
  42.3566010 100.6799510 136.4884440  42.2393130 102.1604790 136.1949160
  45.5599500 101.6654970 126.0991410  45.3337080 100.9485410 126.6916050
  45.1695700 101.4167410 125.2613160  43.4881400 102.1801250 139.5788330
  43.8237640 102.7667940 140.2566250  42.5681740 102.0493960 139.8086120
  31.3415530 105.6921830 126.8735870  31.7013170 106.2911170 126.2193140
  31.2007870 106.2381720 127.6470900  31.0384800  89.9696430 140.3611740
  30.3243320  90.1693350 140.9664350  31.4579840  89.1936000 140.7326540
  45.1415750  99.5826910 127.7605570  44.8537450 100.0439600 128.5483450
  45.9367920  99.1224680 128.0289790  31.3257390 103.9576690 141.3478270
  31.4348510 103.0171430 141.2073660  30.6737950 104.2231440 140.6992000
  39.3169980 102.2292580 142.7476390  38.9966850 101.5101820 143.2922080
  38.6428340 102.9047650 142.8212450  37.3584150 103.0753030 127.6909540
  37.3494250 103.8082720 127.0754050  36.4382510 102.8284610 127.7836500
  32.9590790  98.2967920 128.4356300  32.3518740  99.0366820 128.4451600
  33.4340140  98.3867280 127.6094500  42.5323580  92.4618740 138.1113190
  42.9004400  91.6413950 138.4392760  41.6721780  92.5220630 138.5268840
  45.8985610  91.4175680 128.9200750  45.2698770  91.5221350 128.2058980
  45.4037530  91.6372460 129.7094630  40.3443750 103.1381270 126.3534730
  40.4455730 102.9345260 125.4236710  39.4445490 102.8839550 126.5582510
  37.8669640  93.6961630 130.3358630  37.1585790  94.1647970 130.7772240
  38.1514120  93.0383640 130.9703820  39.4925570  95.1158330 138.3351160
  39.9910820  95.5904150 139.0003010  39.6348520  94.1921850 138.5421190
  41.8985070  90.4212290 131.7754420  41.7752850  90.4398420 130.8263930
  42.8469630  90.4691230 131.8952820  38.9861860 105.6567590 131.0482400
  39.2403360 105.6188980 130.1261770  38.0374340 105.5300920 131.0410650
  36.0704660  92.0046710 127.7109340  36.9195190  92.4416860 127.6449530
  35.7035930  92.3166970 128.5381400  46.6992430  91.3326290 139.1779550
  46.1966030  92.0731690 139.5173360  47.5149090  91.7210290 138.8616340
  44.9914440  96.5759470 132.6240910  44.0504580  96.5909700 132.7988600
  45.3058510  95.7895430 133.0701210  34.9696080  98.2579070 126.1844870
  35.7359350  98.1460430 126.7470300  35.0470770  97.5617040 125.5321640
  33.6642840  95.6904140 126.8677760  33.7446430  94.7431650 126.9795160
  34.5562590  96.0211020 126.9738420  46.9940020 103.7468320 134.2995170
  47.1187440 104.5699490 134.7718980  47.8605580 103.5359050 133.9519320
  34.4657550 105.8399530 133.9712300  35.2020030 105.2914990 134.2420870
  34.8498470 106.7055540 133.8318290  31.3503030 101.9073100 129.8453810
  30.4242810 102.1494240 129.8359220  31.8159460 102.7347360 129.7238560
  33.4715830 105.0245600 143.1597880  34.2728560 105.3457650 143.5733280
  32.9567650 104.6641180 143.8817790  37.5759860 105.0129840 125.7937870
  38.3688470 105.3018670 125.3419660  37.0564210 104.5822010 125.1150350
  42.3080460 101.1325470 143.1073290  41.7018620 101.1557070 142.3669040
  42.0034570 100.4008510 143.6440540  43.7380830 104.8605760 141.7182700
  44.6902580 104.7763780 141.6682940  43.5909050 105.5247470 142.3916490
  46.6290030 104.2399970 127.2174610  46.3431540 103.8265110 126.4028790
  46.4309580 105.1687680 127.0975130  31.1913640  97.5119060 142.1033930
  31.6952660  96.9326340 142.6750160  30.4521060  97.7959290 142.6410300
  38.0937260 100.2333250 125.6580220  37.9887900  99.6185600 126.3841600
  37.9261480  99.7099140 124.8743230  38.2451580  98.9190050 141.6369450
  37.4797250  99.4875050 141.5524120  38.4267540  98.6266260 140.7437680
  41.3339990  99.2953280 126.2622210  40.7850090  99.7422580 126.9064950
  41.9559250  98.7902530 126.7859880  45.3874930 100.6495380 142.1944470
  46.1284400 100.9871140 141.6911930  44.6247610 100.8187440 141.6414240
  33.2236720  95.6548650 142.9984000  33.2642060  95.3562520 143.9069230
  34.0782220  96.0556260 142.8391520  37.0015110  98.2544200 128.1587510
  37.4231530  98.0884070 129.0018900  37.1265950  97.4444430 127.6642650
  35.1642530  94.2340750 140.9658490  34.6338990  93.7431700 140.3381830
  35.8330600  94.6624950 140.4316420  39.5142750  97.2781810 125.4064610
  40.0348410  96.5630830 125.0405760  40.1611150  97.9167680 125.7065120
  44.0620590  98.7010210 140.7299680  44.4761610  98.8555290 141.5790100
  43.1271590  98.8265430 140.8925460  44.5342760  96.0406370 142.7338830
  45.1163530  95.2858690 142.6459310  44.7104530  96.5713810 141.9570310
  35.6514830  91.2003120 141.0455780  35.5571700  90.5823870 140.3206650
  35.0712220  91.9269410 140.8185690  38.4176270  89.7576360 138.0783170
  37.9693570  89.7800620 137.2328720  37.7841470  89.3595380 138.6753470
  38.8235820  98.6530690 138.6995610  39.2423930  99.4963420 138.5271850
  37.9044450  98.7902730 138.4702390  41.1599720  96.3846870 140.0833450
  41.2795930  95.7888010 140.8228290  42.0193720  96.4216560 139.6634750
  43.4987620  96.9384060 138.6595960  42.9722840  97.4626680 138.0561100
  43.8418960  97.5711450 139.2905690  35.8974010  94.3277430 125.1045670
  35.6963070  93.4644790 125.4659010  35.7266060  94.2410790 124.1667270
  36.6743240 104.9583700 139.8153340  36.1364330 105.6829760 139.4962040
  36.9277200 104.4814040 139.0250680  37.9268490  92.9268220 141.3409270
  38.5168180  92.6184070 142.0287090  37.1088730  92.4547970 141.4969170
  42.7461920  92.5434030 141.5742290  42.0577440  91.8815570 141.5092280
  43.4667940  92.0972300 142.0190750  43.3762320  89.1385660 127.6332550
  43.6564610  88.2953560 127.9891970  42.6028050  89.3708770 128.1471300
  34.6956810  91.4278050 125.0923550  34.9982710  91.4345480 124.1842700
  35.4351400  91.0775910 125.5891210  39.5305450 106.1934910 140.0739990
  39.4564150 107.0970050 140.3812360  38.6284290 105.8746810 140.0462060
  37.9141740  90.3712670 126.0779750  37.5663740  89.6936660 125.4982200
  38.1154510  89.9102180 126.8923140  40.0790780 105.3593420 127.6966350
  40.9741570 105.6978390 127.7185110  40.1108410 104.6372830 127.0690630
  33.7186940 100.7320470 125.9253350  34.1561810 101.2750140 126.5810930
  34.2034670  99.9067420 125.9349690  30.9332740 103.5209500 133.3773610
  31.2635750 102.6530560 133.1452250  31.3623740 103.7268020 134.2078570
  35.5294660 101.8518510 131.0375580  35.2290200 101.7283480 131.9379490
  35.4232150 100.9927100 130.6291310  31.4222950 104.3880090 136.1155240
  30.9853940 104.5680890 136.9479390  31.9900630 105.1454710 135.9736960
  47.0585130 103.8897090 140.4032550  46.4587120 103.9489650 139.6596470
  47.1879030 102.9502070 140.5329400  48.2986580 101.6314910 125.7402260
  47.4679540 101.6991560 126.2109490  48.4758410 102.5219030 125.4369120
  47.7543040  98.3762390 128.2436460  48.5161950  98.9459040 128.3496150
  47.7697410  97.8089590 129.0144770  31.2547380  96.9000320 132.4744120
  30.5996220  96.6311960 131.8303820  32.0925330  96.7904800 132.0246100
  48.7603010  99.2312490 133.0878390  49.1311840  98.4479810 132.6814360
  49.4004940  99.9201590 132.9095690  45.7436770 100.6149070 138.5008710
  44.9296610 101.0446230 138.7634500  46.1510970 101.2267480 137.8877760
  47.8062210  98.6696760 125.4008980  48.0811050  99.5775640 125.2728200
  47.6172950  98.6059290 126.3370970  44.2037820  91.6941610 126.6962610
  44.6222700  91.5072590 125.8559270  43.8973880  90.8420660 127.0065540
  47.7027550  96.6065750 130.3938410  47.3271150  95.8393680 129.9619700
  46.9730670  96.9888450 130.8813340  32.2923310  97.2852890 137.0147460
  32.6596350  97.1980290 137.8943480  31.7234130  96.5219440 136.9154320
  47.0927170  95.7537270 140.0277930  46.8613260  95.5250020 139.1275880
  47.3531720  96.6736820 139.9822820  31.8439310  94.1961980 140.9205880
  30.9495360  94.1628740 141.2599590  32.3836860  94.3948770 141.6857130
  45.5315240  90.9793700 142.8057630  46.4085420  90.9877100 143.1891630
  45.5436080  90.2424540 142.1949980  30.4685460  94.1099250 128.4169450
  29.5649540  94.3729450 128.2421110  30.9526080  94.3810420 127.6369410
  47.1568230  94.9163110 137.2165200  46.2070940  94.8826650 137.3310190
  47.3381240  95.8263220 136.9814970  33.0112670  93.1664790 126.3263830
  33.7204370  92.7448010 125.8411110  32.2952610  93.2340020 125.6947180
  32.6586830  89.2204120 125.3666480  33.3814960  89.7613060 125.6847700
  32.9311350  88.9467540 124.4908020  46.4678480  94.0896590 129.6338060
  46.9637600  93.8567460 130.4186940  46.2694550  93.2508430 129.2175700
  32.3479020  88.4710310 135.2689100  32.9955210  87.9207690 134.8284260
  32.7680860  88.7253460 136.0904910  46.2431360  88.6651670 138.6258740
  46.8803580  89.2785810 138.9917930  46.3906250  88.7012330 137.6807970
  48.8594400  91.3276120 128.0338590  48.0645900  91.2621240 128.5631500
  49.0637680  92.2626760 128.0223940  45.8012820 105.3667670 132.0276980
  46.3971890 105.0452240 131.3511400  46.0590970 104.8939490 132.8190250
  32.1011020  88.6265980 138.0114420  31.7525840  89.0829800 138.7772600
  31.7698720  87.7323110 138.0936850  33.7075390 101.7985580 142.1767610
  33.6645020 101.4278490 143.0582070  33.8386400 102.7363150 142.3169430
  37.4081420 103.3545170 137.7777330  37.1672780 103.6219730 136.8907850
  38.3484060 103.5250900 137.8328190  39.6135840  89.8177860 141.5333840
  39.5524730  90.4099690 142.2829250  40.5536220  89.7103820 141.3884100
  42.2510400  89.4747920 141.1726130  42.8650810  89.7927210 140.5107210
  42.7959960  88.9896510 141.7921990  48.6685580 105.3739550 138.5787970
  48.1743860 105.7708420 137.8615100  48.0598870 104.7488760 138.9725250
  32.7731660  88.1542180 141.2865190  33.3214650  87.9730230 140.5231300
  32.8386970  87.3636290 141.8221500  33.5463420 104.7447830 139.2965390
  32.9523740 104.6132530 140.0355430  33.5387260 103.9085970 138.8307490
  42.9918440  88.0380060 137.4995420  42.1178280  88.3715170 137.2968350
  42.8829190  87.5653240 138.3247290  43.8990420  90.2450930 138.8837140
  43.5703780  89.4302690 138.5038870  44.8472720  90.2020740 138.7602830
  46.3525030 106.0162970 135.8574710  45.8928000 106.7678780 135.4832730
  45.7237490 105.2969440 135.7989510  33.1775650 102.1106210 138.2473430
  32.4509710 101.4911500 138.1799380  33.2384800 102.5046820 137.3771510
  36.7820750 104.3251210 135.0322840  37.2985770 103.7138570 134.5071100
  37.4318130 104.8279990 135.5233850  39.5216250 105.2159700 135.8591820
  39.8094060 104.9614000 134.9824830  40.0339470 104.6637060 136.4497390
  40.7393260  88.9549900 136.4388330  39.9565050  89.4295400 136.7185090
  40.4456190  88.0504730 136.3301510  31.4605650 105.4280600 131.4570190
  31.2927690 104.7951280 132.1552080  30.5940160 105.6340000 131.1064380
  32.0833670  89.2597380 128.9602050  32.8413030  89.3726260 128.3866080
  31.6210840  90.0966580 128.9145480  38.6247480  91.3736650 131.9504360
  37.8121990  90.9993540 131.6100240  39.1289120  90.6181730 132.2525550
  43.1272460  88.0379100 133.1887430  43.7301830  88.6099310 133.6635950
  42.3865450  88.6018540 132.9661330  33.0668350 104.1213830 128.9020330
  32.5415970 104.5021860 128.1982290  32.9912930 104.7464600 129.6230040
  34.4558820  89.7861430 127.5004020  34.9851580  88.9991230 127.3711970
  35.0887140  90.4652620 127.7339550  36.6496660  89.5236570 130.5549410
  36.0199400  88.8223880 130.7219540  36.1101800  90.2840700 130.3382570
  39.5888610 106.1375800 143.2260020  40.5155920 105.9020070 143.2695980
  39.5739040 106.9647800 142.7446050  47.8233670 105.6801370 130.2234270
  47.9985860 104.9939110 129.5795190  47.1255240 106.2048420 129.8310940
  36.7752220  88.8020550 142.9901900  36.4936490  89.3054150 142.2262720
  37.1571920  88.0042300 142.6244030  35.6661320 106.0696210 127.7769580
  36.3980140 105.7855490 127.2293470  35.9254990 105.8309490 128.6668960
  34.8276110 102.1860940 127.7815910  34.1984990 102.6546040 128.3301740
  34.9423940 101.3410160 128.2162100  43.3767680  88.2174130 143.5682370
  43.2633130  88.5368740 144.4633890  44.1937420  88.6186640 143.2719650
  46.1566170 105.3645660 143.0501060  46.9491490 104.8694890 142.8427020
  46.4499320 106.0435800 143.6576670  34.4110960 102.3605520 116.8860160
  34.7139000 101.4703260 116.7070380  35.1554550 102.9175740 116.6582410
  32.8401650  93.2867320 110.4744530  31.9518350  93.6283290 110.3724410
  33.1242840  93.0867640 109.5825360  39.8552860 100.6902810 115.8196540
  39.7861140  99.7492750 115.6585670  40.6172720 100.7804220 116.3919110
  48.9581700  93.0090380 119.5437440  48.2533870  93.3972090 119.0252550
  49.2239620  93.7040670 120.1458370  41.5277960  99.5903060 111.6061410
  40.9095230 100.0552510 111.0424130  42.0401210 100.2830540 112.0230920
  38.5050090  88.6775980 114.4386550  38.8125070  88.1222870 113.7222050
  37.5750790  88.8120440 114.2559540  45.3510570 101.1159490 111.8184180
  45.2406900 100.1733820 111.9433600  45.3478820 101.4775130 112.7046940
  43.4550590  99.2973110 118.0576620  43.8719380  99.0833220 117.2230080
  44.1790410  99.5545900 118.6285240  36.9669190 100.9557110 116.1205610
  36.6697480 100.3502580 115.4413390  37.9169010 100.9934420 116.0094970
  36.6839190 103.5073820 123.5555930  36.6554620 103.9116770 122.6884360
  36.5204160 102.5784180 123.3927530  48.6354010 104.2900920 124.8520100
  49.1113730 104.7683810 125.5309180  49.2561170 104.2218410 124.1265600
  30.8377490  99.3349670 117.2641690  30.9157910  99.4698440 116.3197410
  31.4519170  98.6265560 117.4569810  48.0387260 101.4813770 122.0120110
  48.1650320 101.2425650 121.0937290  48.0808640 100.6498310 122.4842190
  43.8758400 105.4697110 110.0098920  43.7159540 105.1800050 110.9080750
  43.7105110 104.6937240 109.4744150  43.5784530 102.9784670 108.5696920
  42.8849690 102.9761960 107.9099200  44.3207390 102.5543990 108.1391090
  43.1434460 104.6047380 112.6445410  43.5991410 103.8236760 112.9584030
  43.4826980 105.3154200 113.1886590  47.8911270  93.5346230 122.9769850
  47.2755540  94.0425900 122.4485310  47.5707690  92.6344560 122.9195790
  30.8937010 100.3763840 119.8036150  31.0568050  99.9069200 118.9855520
  31.3589460  99.8687400 120.4684990  35.6655780  89.5069600 114.8396720
  35.2223930  90.2879140 114.5081240  36.2240770  89.8299490 115.5467660
  39.9525590  92.3738120 120.4432040  39.4904960  92.5821140 121.2551980
  39.5503700  91.5597470 120.1402710  44.9530100  93.5947070 121.5728700
  44.1023690  93.2952820 121.8937770  44.7931890  93.8389080 120.6612520
  42.0479810  95.0948820 123.6727490  42.3733220  94.2612570 123.3329720
  42.8360140  95.6177340 123.8205820  38.7814600  89.1280300 109.7202550
  38.1568780  89.1240170 110.4455860  38.6944720  88.2611260 109.3238520
  37.7031680  90.0516930 116.6986320  38.0004010  90.9579760 116.6178340
  38.2517240  89.5635710 116.0845890  37.8969210  95.5288750 123.2338240
  37.8012810  94.5883480 123.0838640  38.7401190  95.7503820 122.8386310
  39.6024800  92.0237390 124.4568760  38.9123120  91.8309590 125.0914850
  40.3457100  92.3072030 124.9893060  30.5167030  93.8051000 106.6304820
  30.4341700  94.7481760 106.7719810  30.1650090  93.6625910 105.7517170
  45.7684430  88.7301690 122.5432000  46.0930200  87.9991350 123.0689980
  45.8040940  88.4115330 121.6412990  31.4813620  91.3435500 113.5734050
  31.1960540  90.9791170 114.4112670  31.4192480  90.6115960 112.9597190
  41.0761070  98.9135860 122.0387030  41.0098380  97.9931530 121.7844620
  40.4466210  99.0111300 122.7531670  35.6649350  96.9387430 123.7935700
  35.3649490  97.0844610 122.8963520  36.4360590  96.3792720 123.7009090
  41.0077800 101.7356430 121.7890830  41.0222340 100.8037390 121.5709740
  40.3002900 101.8216190 122.4280600  47.2189010  98.3763770 121.1359410
  46.4937200  98.9692550 120.9388800  47.7464470  98.3687310 120.3372780
  47.1702120 102.7738510 110.7871570  46.5278280 102.1194130 111.0615290
  46.7832780 103.1793600 110.0112240  42.7488600 100.1023940 114.6343260
  43.1012420  99.5052070 113.9744630  41.8650930  99.7768170 114.8051510
  30.9744280  96.4794450 107.5330750  31.8439130  96.7619250 107.8166670
  30.4834600  97.2930320 107.4179560  34.0390870  88.2105310 112.1261550
  33.9105500  88.2023210 113.0746470  33.2152890  88.5488400 111.7752560
  45.5599500 101.6654970 107.3247920  45.3337080 100.9485410 107.9172560
  45.1695700 101.4167410 106.4869670  31.0384800  89.9696430 121.5868250
  30.3243320  90.1693350 122.1920860  31.4579840  89.1936000 121.9583050
  31.3257390 103.9576690 122.5734780  31.4348510 103.0171430 122.4330170
  30.6737950 104.2231440 121.9248510  39.3169980 102.2292580 123.9732900
  38.9966850 101.5101820 124.5178590  38.6428340 102.9047650 124.0468960
  36.0704660  92.0046710 108.9365850  36.9195190  92.4416860 108.8706040
  35.7035930  92.3166970 109.7637910  46.6992430  91.3326290 120.4036060
  46.1966030  92.0731690 120.7429870  47.5149090  91.7210290 120.0872850
  33.6642840  95.6904140 108.0934270  33.7446430  94.7431650 108.2051670
  34.5562590  96.0211020 108.1994930  33.4715830 105.0245600 124.3854390
  34.2728560 105.3457650 124.7989790  32.9567650 104.6641180 125.1074300
  42.3080460 101.1325470 124.3329800  41.7018620 101.1557070 123.5925550
  42.0034570 100.4008510 124.8697050  43.7380830 104.8605760 122.9439210
  44.6902580 104.7763780 122.8939450  43.5909050 105.5247470 123.6173000
  46.6290030 104.2399970 108.4431120  46.3431540 103.8265110 107.6285300
  46.4309580 105.1687680 108.3231640  31.1913640  97.5119060 123.3290440
  31.6952660  96.9326340 123.9006670  30.4521060  97.7959290 123.8666810
  38.2451580  98.9190050 122.8625960  37.4797250  99.4875050 122.7780630
  38.4267540  98.6266260 121.9694190  45.3874930 100.6495380 123.4200980
  46.1284400 100.9871140 122.9168440  44.6247610 100.8187440 122.8670750
  33.2236720  95.6548650 124.2240510  33.2642060  95.3562520 125.1325740
  34.0782220  96.0556260 124.0648030  44.0620590  98.7010210 121.9556190
  44.4761610  98.8555290 122.8046610  43.1271590  98.8265430 122.1181970
  44.5342760  96.0406370 123.9595340  45.1163530  95.2858690 123.8715820
  44.7104530  96.5713810 123.1826820  35.6514830  91.2003120 122.2712290
  35.5571700  90.5823870 121.5463160  35.0712220  91.9269410 122.0442200
  38.4176270  89.7576360 119.3039680  37.9693570  89.7800620 118.4585230
  37.7841470  89.3595380 119.9009980  41.1599720  96.3846870 121.3089960
  41.2795930  95.7888010 122.0484800  42.0193720  96.4216560 120.8891260
  43.4987620  96.9384060 119.8852470  42.9722840  97.4626680 119.2817610
  43.8418960  97.5711450 120.5162200  35.8974010  94.3277430 106.3302180
  35.6963070  93.4644790 106.6915520  35.7266060  94.2410790 105.3923780
  37.9268490  92.9268220 122.5665780  38.5168180  92.6184070 123.2543600
  37.1088730  92.4547970 122.7225680  42.7461920  92.5434030 122.7998800
  42.0577440  91.8815570 122.7348790  43.4667940  92.0972300 123.2447260
  30.9332740 103.5209500 114.6030120  31.2635750 102.6530560 114.3708760
  31.3623740 103.7268020 115.4335080  31.4222950 104.3880090 117.3411750
  30.9853940 104.5680890 118.1735900  31.9900630 105.1454710 117.1993470
  47.0585130 103.8897090 121.6289060  46.4587120 103.9489650 120.8852980
  47.1879030 102.9502070 121.7585910  47.7543040  98.3762390 109.4692970
  48.5161950  98.9459040 109.5752660  47.7697410  97.8089590 110.2401280
  31.2547380  96.9000320 113.7000630  30.5996220  96.6311960 113.0560330
  32.0925330  96.7904800 113.2502610  47.0927170  95.7537270 121.2534440
  46.8613260  95.5250020 120.3532390  47.3531720  96.6736820 121.2079330
  45.5315240  90.9793700 124.0314140  46.4085420  90.9877100 124.4148140
  45.5436080  90.2424540 123.4206490  30.4685460  94.1099250 109.6425960
  29.5649540  94.3729450 109.4677620  30.9526080  94.3810420 108.8625920
  47.1568230  94.9163110 118.4421710  46.2070940  94.8826650 118.5566700
  47.3381240  95.8263220 118.2071480  33.0112670  93.1664790 107.5520340
  33.7204370  92.7448010 107.0667620  32.2952610  93.2340020 106.9203690
  46.2431360  88.6651670 119.8515250  46.8803580  89.2785810 120.2174440
  46.3906250  88.7012330 118.9064480  33.7075390 101.7985580 123.4024120
  33.6645020 101.4278490 124.2838580  33.8386400 102.7363150 123.5425940
  37.4081420 103.3545170 119.0033840  37.1672780 103.6219730 118.1164360
  38.3484060 103.5250900 119.0584700  39.6135840  89.8177860 122.7590350
  39.5524730  90.4099690 123.5085760  40.5536220  89.7103820 122.6140610
  42.2510400  89.4747920 122.3982640  42.8650810  89.7927210 121.7363720
  42.7959960  88.9896510 123.0178500  32.7731660  88.1542180 122.5121700
  33.3214650  87.9730230 121.7487810  32.8386970  87.3636290 123.0478010
  33.5463420 104.7447830 120.5221900  32.9523740 104.6132530 121.2611940
  33.5387260 103.9085970 120.0564000  42.9918440  88.0380060 118.7251930
  42.1178280  88.3715170 118.5224860  42.8829190  87.5653240 119.5503800
  43.8990420  90.2450930 120.1093650  43.5703780  89.4302690 119.7295380
  44.8472720  90.2020740 119.9859340  33.1775650 102.1106210 119.4729940
  32.4509710 101.4911500 119.4055890  33.2384800 102.5046820 118.6028020
  38.6247480  91.3736650 113.1760870  37.8121990  90.9993540 112.8356750
  39.1289120  90.6181730 113.4782060  43.1272460  88.0379100 114.4143940
  43.7301830  88.6099310 114.8892460  42.3865450  88.6018540 114.1917840
  36.6496660  89.5236570 111.7805920  36.0199400  88.8223880 111.9476050
  36.1101800  90.2840700 111.5639080  39.5888610 106.1375800 124.4516530
  40.5155920 105.9020070 124.4952490  39.5739040 106.9647800 123.9702560
  47.8233670 105.6801370 111.4490780  47.9985860 104.9939110 110.8051700
  47.1255240 106.2048420 111.0567450  36.7752220  88.8020550 124.2158410
  36.4936490  89.3054150 123.4519230  37.1571920  88.0042300 123.8500540
  43.3767680  88.2174130 124.7938880  43.2633130  88.5368740 125.6890400
  44.1937420  88.6186640 124.4976160  46.1566170 105.3645660 124.2757570
  46.9491490 104.8694890 124.0683530  46.4499320 106.0435800 124.8833180
  42.2825830  96.2366600  95.1573620  42.2019880  95.3221210  94.8865330
  41.8690250  96.7333670  94.4513330  40.4143870  98.0145620  97.0382890
  39.6385970  97.5346060  97.3281460  41.0656800  97.3351270  96.8639050
  34.4309700  98.3265430  97.9158650  33.5994580  98.0714140  98.3155160
  35.0390680  98.3976200  98.6516570  44.4351300 102.4205810  95.8182020
  43.9732830 101.6493050  96.1469190  45.2476850 102.4471880  96.3234470
  32.8401650  93.2867320  91.7001040  31.9518350  93.6283290  91.5980920
  33.1242840  93.0867640  90.8081870  40.6614610 104.7063820  95.4386010
  40.0426050 105.1621320  94.8680450  41.5166390 104.8615280  95.0375710
  39.8552860 100.6902810  97.0453050  39.7861140  99.7492750  96.8842180
  40.6172720 100.7804220  97.6175620  40.8858030  93.4973190  97.2721980
  41.2622850  92.6245070  97.1595650  40.7877540  93.8331890  96.3812420
  32.6646200  93.7917830  97.9792010  33.3456310  94.0556200  98.5979410
  32.3494250  92.9518700  98.3130020  36.8570770  94.8385190  97.0664600
  37.3648990  95.3366160  97.7069620  37.3884010  94.0620390  96.8903960
  35.1406870  89.4783750 101.3328020  35.1425310  89.9956140 100.5273920
  34.3111180  89.0013930 101.3097950  41.5277960  99.5903060  92.8317920
  40.9095230 100.0552510  92.2680640  42.0401210 100.2830540  93.2487430
  34.8222200  91.1893710  99.3398470  35.1639010  92.0335760  99.0452340
  33.8838010  91.3377450  99.4563810  30.8961160 100.2759590  90.2057550
  30.5189140 100.7646690  89.4742450  31.1534230 100.9484870  90.8364080
  38.5050090  88.6775980  95.6643060  38.8125070  88.1222870  94.9478560
  37.5750790  88.8120440  95.4816050  45.3510570 101.1159490  93.0440690
  45.2406900 100.1733820  93.1690110  45.3478820 101.4775130  93.9303450
  40.8930850  96.7424810  92.4003180  39.9660130  96.6762190  92.6291650
  41.0455670  97.6804940  92.2858420  40.8799930  93.0141810  89.3970340
  39.9403600  93.1755770  89.4822800  41.1983190  93.7327490  88.8506330
  44.9228140  98.3045110  92.9038430  44.3040560  97.9664660  92.2564730
  44.9052590  97.6604870  93.6117620  36.4987490  97.2689550  95.1822910
  36.0944490  96.5566800  94.6868810  36.5850610  96.9242790  96.0710950
  36.9669190 100.9557110  97.3462120  36.6697480 100.3502580  96.6669900
  37.9169010 100.9934420  97.2351480  35.2116110  94.0432760  98.9621950
  35.7630700  94.1528100  98.1875200  35.7259620  94.4170360  99.6777180
  43.0992840  97.5431920  89.9111180  43.5386120  96.7054350  89.7649000
  43.8121260  98.1761320  89.9975320  41.2088220 102.4827990  93.8792420
  41.6484130 103.2252320  93.4647810  41.1475110 102.7254560  94.8031380
  46.6809980  88.7974730  88.2252220  46.3682640  88.8901560  89.1251290
  47.4422450  89.3755760  88.1749650  33.1992120  96.1634530  92.6829560
  33.0789720  96.8896620  92.0710830  32.8893010  95.3937440  92.2057470
  48.6354010 104.2900920 106.0776610  49.1113730 104.7683810 106.7565690
  49.2561170 104.2218410 105.3522110  43.1434460 104.6047380  93.8701920
  43.5991410 103.8236760  94.1840540  43.4826980 105.3154200  94.4143100
  30.8937010 100.3763840 101.0292660  31.0568050  99.9069200 100.2112030
  31.3589460  99.8687400 101.6941500  38.7814600  89.1280300  90.9459060
  38.1568780  89.1240170  91.6712370  38.6944720  88.2611260  90.5495030
  37.7031680  90.0516930  97.9242830  38.0004010  90.9579760  97.8434850
  38.2517240  89.5635710  97.3102400  35.4570000  94.6303170  93.7934480
  35.2310920  94.4140340  94.6981100  34.6762530  95.0631630  93.4480450
  42.6867760  94.6366540  92.3925130  42.0876650  95.3602340  92.2088750
  43.2347370  94.5743320  91.6101580  41.2932630  93.2730080  94.4228410
  41.6862200  93.5902280  93.6097100  41.6549480  92.3941960  94.5372930
  30.5167030  93.8051000  87.8561330  30.4341700  94.7481760  87.9976320
  30.1650090  93.6625910  86.9773680  41.8787770  95.8635830  98.5179190
  41.1468890  96.3722640  98.8669290  41.4812110  95.0465810  98.2167970
  38.3165160  92.5390030  96.9231680  38.3201220  92.0979980  96.0736220
  39.2116280  92.8607360  97.0303500  34.1667540  92.4216520  95.8825890
  33.8267590  92.8991750  96.6392940  33.4044860  91.9681640  95.5226990
  38.3785310  93.5402110  89.9138440  38.4998130  93.4988590  90.8624260
  37.9933820  94.4026260  89.7585170  37.3906810  95.8503250  89.3121740
  36.8223710  95.4021500  88.6857650  38.0995810  96.2096030  88.7786890
  38.6173130  96.5991810  98.6697090  38.9843260  96.1250380  99.4158430
  38.4278190  97.4733380  99.0105430  34.9354290  99.8461440  91.5848150
  34.1616550  99.3059060  91.4246870  35.6648920  99.3268050  91.2465910
  41.1552210  90.2364760  91.5203930  40.3416820  89.7377930  91.4449240
  40.9614160  91.0763010  91.1040280  41.0761070  98.9135860 103.2643540
  41.0098380  97.9931530 103.0101130  40.4466210  99.0111300 103.9788180
  43.8700600  94.6084410  89.8166090  44.7580220  94.9201640  89.6417430
  43.8405690  93.7356660  89.4246670  34.9791690  99.5141820  95.2226960
  35.4970360  98.7110080  95.1683850  34.5275710  99.4520960  96.0643790
  39.8661190 100.7808100  90.4954260  40.2076890 101.5250330  89.9997580
  39.0373900 101.0939220  90.8579090  32.4636230  96.4803190 102.1352660
  32.1051170  97.1457040 102.7226000  32.1690790  95.6486740 102.5065280
  41.0077800 101.7356430 103.0147340  41.0222340 100.8037390 102.7966250
  40.3002900 101.8216190 103.6537110  46.1414870  95.9196250  89.2845950
  46.0578590  96.3510470  88.4342390  46.8609060  96.3794600  89.7172770
  42.7488600 100.1023940  95.8599770  43.1012420  99.5052070  95.2001140
  41.8650930  99.7768170  96.0308020  38.8351880 100.8621630  93.2670180
  39.5223010 101.4090840  93.6477770  38.0484300 101.4062360  93.3019790
  30.9744280  96.4794450  88.7587260  31.8439130  96.7619250  89.0423180
  30.4834600  97.2930320  88.6436070  38.1379090  97.8667660  92.8795540
  38.5941870  98.6772910  93.1055730  37.7867300  97.5490800  93.7114030
  41.7143780 101.3806350  98.8265290  42.3566010 100.6799510  98.9397460
  42.2393130 102.1604790  98.6462180  45.1415750  99.5826910  90.2118590
  44.8537450 100.0439600  90.9996470  45.9367920  99.1224680  90.4802810
  31.3257390 103.9576690 103.7991290  31.4348510 103.0171430 103.6586680
  30.6737950 104.2231440 103.1505020  37.3584150 103.0753030  90.1422560
  37.3494250 103.8082720  89.5267070  36.4382510 102.8284610  90.2349520
  32.9590790  98.2967920  90.8869320  32.3518740  99.0366820  90.8964620
  33.4340140  98.3867280  90.0607520  37.8669640  93.6961630  92.7871650
  37.1585790  94.1647970  93.2285260  38.1514120  93.0383640  93.4216840
  39.4925570  95.1158330 100.7864180  39.9910820  95.5904150 101.4516030
  39.6348520  94.1921850 100.9934210  41.8985070  90.4212290  94.2267440
  41.7752850  90.4398420  93.2776950  42.8469630  90.4691230  94.3465840
  38.9861860 105.6567590  93.4995420  39.2403360 105.6188980  92.5774790
  38.0374340 105.5300920  93.4923670  36.0704660  92.0046710  90.1622360
  36.9195190  92.4416860  90.0962550  35.7035930  92.3166970  90.9894420
  44.9914440  96.5759470  95.0753930  44.0504580  96.5909700  95.2501620
  45.3058510  95.7895430  95.5214230  34.9696080  98.2579070  88.6357890
  35.7359350  98.1460430  89.1983320  35.0470770  97.5617040  87.9834660
  33.6642840  95.6904140  89.3190780  33.7446430  94.7431650  89.4308180
  34.5562590  96.0211020  89.4251440  37.5759860 105.0129840  88.2450890
  38.3688470 105.3018670  87.7932680  37.0564210 104.5822010  87.5663370
  42.3080460 101.1325470 105.5586310  41.7018620 101.1557070 104.8182060
  42.0034570 100.4008510 106.0953560  43.7380830 104.8605760 104.1695720
  44.6902580 104.7763780 104.1195960  43.5909050 105.5247470 104.8429510
  31.1913640  97.5119060 104.5546950  31.6952660  96.9326340 105.1263180
  30.4521060  97.7959290 105.0923320  38.0937260 100.2333250  88.1093240
  37.9887900  99.6185600  88.8354620  37.9261480  99.7099140  87.3256250
  41.3339990  99.2953280  88.7135230  40.7850090  99.7422580  89.3577970
  41.9559250  98.7902530  89.2372900  33.2236720  95.6548650 105.4497020
  33.2642060  95.3562520 106.3582250  34.0782220  96.0556260 105.2904540
  37.0015110  98.2544200  90.6100530  37.4231530  98.0884070  91.4531920
  37.1265950  97.4444430  90.1155670  35.1642530  94.2340750 103.4171510
  34.6338990  93.7431700 102.7894850  35.8330600  94.6624950 102.8829440
  39.5142750  97.2781810  87.8577630  40.0348410  96.5630830  87.4918780
  40.1611150  97.9167680  88.1578140  41.1599720  96.3846870 102.5346470
  41.2795930  95.7888010 103.2741310  42.0193720  96.4216560 102.1147770
  43.3762320  89.1385660  90.0845570  43.6564610  88.2953560  90.4404990
  42.6028050  89.3708770  90.5984320  39.5305450 106.1934910 102.5253010
  39.4564150 107.0970050 102.8325380  38.6284290 105.8746810 102.4975080
  37.9141740  90.3712670  88.5292770  37.5663740  89.6936660  87.9495220
  38.1154510  89.9102180  89.3436160  33.7186940 100.7320470  88.3766370
  34.1561810 101.2750140  89.0323950  34.2034670  99.9067420  88.3862710
  48.2986580 101.6314910  88.1915280  47.4679540 101.6991560  88.6622510
  48.4758410 102.5219030  87.8882140  31.2547380  96.9000320  94.9257140
  30.5996220  96.6311960  94.2816840  32.0925330  96.7904800  94.4759120
  47.8062210  98.6696760  87.8522000  48.0811050  99.5775640  87.7241220
  47.6172950  98.6059290  88.7883990  44.2037820  91.6941610  89.1475630
  44.6222700  91.5072590  88.3072290  43.8973880  90.8420660  89.4578560
  33.0112670  93.1664790  88.7776850  33.7204370  92.7448010  88.2924130
  32.2952610  93.2340020  88.1460200  37.4081420 103.3545170 100.2290350
  37.1672780 103.6219730  99.3420870  38.3484060 103.5250900 100.2841210
  33.5463420 104.7447830 101.7478410  32.9523740 104.6132530 102.4868450
  33.5387260 103.9085970 101.2820510  33.1775650 102.1106210 100.6986450
  32.4509710 101.4911500 100.6312400  33.2384800 102.5046820  99.8284530
  38.6247480  91.3736650  94.4017380  37.8121990  90.9993540  94.0613260
  39.1289120  90.6181730  94.7038570  34.4558820  89.7861430  89.9517040
  34.9851580  88.9991230  89.8224990  35.0887140  90.4652620  90.1852570
  46.1566170 105.3645660 105.5014080  46.9491490 104.8694890 105.2940040
  46.4499320 106.0435800 106.1089690  34.4309700  98.3265430  79.1415160
  33.5994580  98.0714140  79.5411670  35.0390680  98.3976200  79.8773080
  44.4351300 102.4205810  77.0438530  43.9732830 101.6493050  77.3725700
  45.2476850 102.4471880  77.5490980  32.0459530  91.2957330  80.5966180
  31.8662370  90.3983080  80.8768940  31.6439610  91.8429200  81.2713130
  30.8961160 100.2759590  71.4314060  30.5189140 100.7646690  70.6998960
  31.1534230 100.9484870  72.0620590  46.5206410 102.5499140  80.4661850
  45.8369930 103.2198250  80.4578520  47.0600700 102.7479790  79.7006710
  44.0565150 104.3943270  79.1807030  44.0692310 103.9905560  78.3129290
  43.5040370 105.1690560  79.0768460  43.4550590  99.2973110  80.5089640
  43.8719380  99.0833220  79.6743100  44.1790410  99.5545900  81.0798260
  45.0554800 104.5288980  82.2341730  44.5785360 105.3361170  82.0414340
  44.3716590 103.8767310  82.3867940  36.0587620 100.6938800  85.2226430
  35.1616150 100.9178770  85.4699830  36.0840490 100.8173740  84.2737830
  41.2088220 102.4827990  75.1048930  41.6484130 103.2252320  74.6904320
  41.1475110 102.7254560  76.0287890  36.6839190 103.5073820  86.0068950
  36.6554620 103.9116770  85.1397380  36.5204160 102.5784180  85.8440550
  48.6354010 104.2900920  87.3033120  49.1113730 104.7683810  87.9822200
  49.2561170 104.2218410  86.5778620  30.8377490  99.3349670  79.7154710
  30.9157910  99.4698440  78.7710430  31.4519170  98.6265560  79.9082830
  41.9004000 105.1841770  83.0327940  42.4148670 105.0949780  83.8350370
  41.0573080 105.5301470  83.3255850  36.3546780 105.2495640  74.2383560
  36.1789260 104.3331180  74.0251360  35.5002520 105.6082930  74.4781360
  43.1434460 104.6047380  75.0958430  43.5991410 103.8236760  75.4097050
  43.4826980 105.3154200  75.6399610  30.8937010 100.3763840  82.2549170
  31.0568050  99.9069200  81.4368540  31.3589460  99.8687400  82.9198010
  39.9525590  92.3738120  82.8945060  39.4904960  92.5821140  83.7065000
  39.5503700  91.5597470  82.5915730  42.0479810  95.0948820  86.1240510
  42.3733220  94.2612570  85.7842740  42.8360140  95.6177340  86.2718840
  37.7031680  90.0516930  79.1499340  38.0004010  90.9579760  79.0691360
  38.2517240  89.5635710  78.5358910  39.6024800  92.0237390  86.9081780
  38.9123120  91.8309590  87.5427870  40.3457100  92.3072030  87.4406080
  30.5167030  93.8051000  69.0817840  30.4341700  94.7481760  69.2232830
  30.1650090  93.6625910  68.2030190  38.3165160  92.5390030  78.1488190
  38.3201220  92.0979980  77.2992730  39.2116280  92.8607360  78.2560010
  38.3785310  93.5402110  71.1394950  38.4998130  93.4988590  72.0880770
  37.9933820  94.4026260  70.9841680  45.7684430  88.7301690  84.9945020
  46.0930200  87.9991350  85.5203000  45.8040940  88.4115330  84.0926010
  32.4675990  99.7515270  84.4144980  32.0830780  99.1108940  85.0127940
  32.7788180 100.4551390  84.9839710  38.6173130  96.5991810  79.8953600
  38.9843260  96.1250380  80.6414940  38.4278190  97.4733380  80.2361940
  45.6942270  98.8426800  78.6031050  46.4141390  99.3382090  78.2127160
  45.4924090  98.1644690  77.9584920  41.0761070  98.9135860  84.4900050
  41.0098380  97.9931530  84.2357640  40.4466210  99.0111300  85.2044690
  39.8661190 100.7808100  71.7210770  40.2076890 101.5250330  71.2254090
  39.0373900 101.0939220  72.0835600  41.0077800 101.7356430  84.2403850
  41.0222340 100.8037390  84.0222760  40.3002900 101.8216190  84.8793620
  43.4881400 102.1801250  83.2557860  43.8237640 102.7667940  83.9335780
  42.5681740 102.0493960  83.4855650  31.3415530 105.6921830  70.5505400
  31.7013170 106.2911170  69.8962670  31.2007870 106.2381720  71.3240430
  31.0384800  89.9696430  84.0381270  30.3243320  90.1693350  84.6433880
  31.4579840  89.1936000  84.4096070  39.3169980 102.2292580  86.4245920
  38.9966850 101.5101820  86.9691610  38.6428340 102.9047650  86.4981980
  37.3584150 103.0753030  71.3679070  37.3494250 103.8082720  70.7523580
  36.4382510 102.8284610  71.4606030  40.3443750 103.1381270  70.0304260
  40.4455730 102.9345260  69.1006240  39.4445490 102.8839550  70.2352040
  39.4925570  95.1158330  82.0120690  39.9910820  95.5904150  82.6772540
  39.6348520  94.1921850  82.2190720  38.9861860 105.6567590  74.7251930
  39.2403360 105.6188980  73.8031300  38.0374340 105.5300920  74.7180180
  36.0704660  92.0046710  71.3878870  36.9195190  92.4416860  71.3219060
  35.7035930  92.3166970  72.2150930  44.9914440  96.5759470  76.3010440
  44.0504580  96.5909700  76.4758130  45.3058510  95.7895430  76.7470740
  46.9940020 103.7468320  77.9764700  47.1187440 104.5699490  78.4488510
  47.8605580 103.5359050  77.6288850  34.4657550 105.8399530  77.6481830
  35.2020030 105.2914990  77.9190400  34.8498470 106.7055540  77.5087820
  31.3503030 101.9073100  73.5223340  30.4242810 102.1494240  73.5128750
  31.8159460 102.7347360  73.4008090  33.4715830 105.0245600  86.8367410
  34.2728560 105.3457650  87.2502810  32.9567650 104.6641180  87.5587320
  37.5759860 105.0129840  69.4707400  38.3688470 105.3018670  69.0189190
  37.0564210 104.5822010  68.7919880  42.3080460 101.1325470  86.7842820
  41.7018620 101.1557070  86.0438570  42.0034570 100.4008510  87.3210070
  43.7380830 104.8605760  85.3952230  44.6902580 104.7763780  85.3452470
  43.5909050 105.5247470  86.0686020  38.0937260 100.2333250  69.3349750
  37.9887900  99.6185600  70.0611130  37.9261480  99.7099140  68.5512760
  38.2451580  98.9190050  85.3138980  37.4797250  99.4875050  85.2293650
  38.4267540  98.6266260  84.4207210  39.5142750  97.2781810  69.0834140
  40.0348410  96.5630830  68.7175290  40.1611150  97.9167680  69.3834650
  44.5342760  96.0406370  86.4108360  45.1163530  95.2858690  86.3228840
  44.7104530  96.5713810  85.6339840  38.4176270  89.7576360  81.7552700
  37.9693570  89.7800620  80.9098250  37.7841470  89.3595380  82.3523000
  38.8235820  98.6530690  82.3765140  39.2423930  99.4963420  82.2041380
  37.9044450  98.7902730  82.1471920  41.1599720  96.3846870  83.7602980
  41.2795930  95.7888010  84.4997820  42.0193720  96.4216560  83.3404280
  35.8974010  94.3277430  68.7815200  35.6963070  93.4644790  69.1428540
  35.7266060  94.2410790  67.8436800  42.7461920  92.5434030  85.2511820
  42.0577440  91.8815570  85.1861810  43.4667940  92.0972300  85.6960280
  34.6956810  91.4278050  68.7693080  34.9982710  91.4345480  67.8612230
  35.4351400  91.0775910  69.2660740  37.9141740  90.3712670  69.7549280
  37.5663740  89.6936660  69.1751730  38.1154510  89.9102180  70.5692670
  40.0790780 105.3593420  71.3735880  40.9741570 105.6978390  71.3954640
  40.1108410 104.6372830  70.7460160  48.7603010  99.2312490  76.7647920
  49.1311840  98.4479810  76.3583890  49.4004940  99.9201590  76.5865220
  47.7027550  96.6065750  74.0707940  47.3271150  95.8393680  73.6389230
  46.9730670  96.9888450  74.5582870  45.5315240  90.9793700  86.4827160
  46.4085420  90.9877100  86.8661160  45.5436080  90.2424540  85.8719510
  32.6586830  89.2204120  69.0436010  33.3814960  89.7613060  69.3617230
  32.9311350  88.9467540  68.1677550  46.2431360  88.6651670  82.3028270
  46.8803580  89.2785810  82.6687460  46.3906250  88.7012330  81.3577500
  45.8012820 105.3667670  75.7046510  46.3971890 105.0452240  75.0280930
  46.0590970 104.8939490  76.4959780  32.1011020  88.6265980  81.6883950
  31.7525840  89.0829800  82.4542130  31.7698720  87.7323110  81.7706380
  33.7075390 101.7985580  85.8537140  33.6645020 101.4278490  86.7351600
  33.8386400 102.7363150  85.9938960  39.6135840  89.8177860  85.2103370
  39.5524730  90.4099690  85.9598780  40.5536220  89.7103820  85.0653630
  42.2510400  89.4747920  84.8495660  42.8650810  89.7927210  84.1876740
  42.7959960  88.9896510  85.4691520  48.6685580 105.3739550  82.2557500
  48.1743860 105.7708420  81.5384630  48.0598870 104.7488760  82.6494780
  32.7731660  88.1542180  84.9634720  33.3214650  87.9730230  84.2000830
  32.8386970  87.3636290  85.4991030  42.9918440  88.0380060  81.1764950
  42.1178280  88.3715170  80.9737880  42.8829190  87.5653240  82.0016820
  46.3525030 106.0162970  79.5344240  45.8928000 106.7678780  79.1602260
  45.7237490 105.2969440  79.4759040  40.7393260  88.9549900  80.1157860
  39.9565050  89.4295400  80.3954620  40.4456190  88.0504730  80.0071040
  31.4605650 105.4280600  75.1339720  31.2927690 104.7951280  75.8321610
  30.5940160 105.6340000  74.7833910  38.6247480  91.3736650  75.6273890
  37.8121990  90.9993540  75.2869770  39.1289120  90.6181730  75.9295080
  33.0668350 104.1213830  72.5789860  32.5415970 104.5021860  71.8751820
  32.9912930 104.7464600  73.2999570  34.4558820  89.7861430  71.1773550
  34.9851580  88.9991230  71.0481500  35.0887140  90.4652620  71.4109080
  39.5888610 106.1375800  86.9029550  40.5155920 105.9020070  86.9465510
  39.5739040 106.9647800  86.4215580  36.7752220  88.8020550  86.6671430
  36.4936490  89.3054150  85.9032250  37.1571920  88.0042300  86.3013560
  34.8276110 102.1860940  71.4585440  34.1984990 102.6546040  72.0071270
  34.9423940 101.3410160  71.8931630  43.3767680  88.2174130  87.2451900
  43.2633130  88.5368740  88.1403420  44.1937420  88.6186640  86.9489180
  46.1566170 105.3645660  86.7270590  46.9491490 104.8694890  86.5196550
  46.4499320 106.0435800  87.3346200  42.2825830  96.2366600  57.6086640
  42.2019880  95.3221210  57.3378350  41.8690250  96.7333670  56.9026350
  40.4143870  98.0145620  59.4895910  39.6385970  97.5346060  59.7794480
  41.0656800  97.3351270  59.3152070  34.4110960 102.3605520  60.5629690
  34.7139000 101.4703260  60.3839910  35.1554550 102.9175740  60.3351940
  40.6614610 104.7063820  57.8899030  40.0426050 105.1621320  57.3193470
  41.5166390 104.8615280  57.4888730  39.8552860 100.6902810  59.4966070
  39.7861140  99.7492750  59.3355200  40.6172720 100.7804220  60.0688640
  35.0163040  91.8698820  55.1852440  35.1229790  92.7702550  55.4921200
  34.1055400  91.8216790  54.8947090  44.6682150  90.9923630  56.6563340
  45.4891770  90.5020200  56.6988820  44.7016230  91.5821290  57.4095180
  35.1406870  89.4783750  63.7841040  35.1425310  89.9956140  62.9786940
  34.3111180  89.0013930  63.7610970  41.5277960  99.5903060  55.2830940
  40.9095230 100.0552510  54.7193660  42.0401210 100.2830540  55.7000450
  36.3909720  99.1178930  61.9614540  36.0579100  99.7447850  62.6035610
  36.5676400  99.6440810  61.1816210  34.8222200  91.1893710  61.7911490
  35.1639010  92.0335760  61.4965360  33.8838010  91.3377450  61.9076830
  35.6028820 101.0859730  63.7763720  36.2202820 101.7610810  63.4948170
  34.7421940 101.4947710  63.6851220  38.5050090  88.6775980  58.1156080
  38.8125070  88.1222870  57.3991580  37.5750790  88.8120440  57.9329070
  44.0565150 104.3943270  60.4063540  44.0692310 103.9905560  59.5385800
  43.5040370 105.1690560  60.3024970  45.3510570 101.1159490  55.4953710
  45.2406900 100.1733820  55.6203130  45.3478820 101.4775130  56.3816470
  40.8930850  96.7424810  54.8516200  39.9660130  96.6762190  55.0804670
  41.0455670  97.6804940  54.7371440  40.8799930  93.0141810  51.8483360
  39.9403600  93.1755770  51.9335820  41.1983190  93.7327490  51.3019350
  36.4987490  97.2689550  57.6335930  36.0944490  96.5566800  57.1381830
  36.5850610  96.9242790  58.5223970  36.9669190 100.9557110  59.7975140
  36.6697480 100.3502580  59.1182920  37.9169010 100.9934420  59.6864500
  35.2116110  94.0432760  61.4134970  35.7630700  94.1528100  60.6388220
  35.7259620  94.4170360  62.1290200  45.0554800 104.5288980  63.4598240
  44.5785360 105.3361170  63.2670850  44.3716590 103.8767310  63.6124450
  43.0992840  97.5431920  52.3624200  43.5386120  96.7054350  52.2162020
  43.8121260  98.1761320  52.4488340  41.2088220 102.4827990  56.3305440
  41.6484130 103.2252320  55.9160830  41.1475110 102.7254560  57.2544400
  36.6839190 103.5073820  67.2325460  36.6554620 103.9116770  66.3653890
  36.5204160 102.5784180  67.0697060  46.6809980  88.7974730  50.6765240
  46.3682640  88.8901560  51.5764310  47.4422450  89.3755760  50.6262670
  41.9004000 105.1841770  64.2584450  42.4148670 105.0949780  65.0606880
  41.0573080 105.5301470  64.5512360  43.8758400 105.4697110  53.6868450
  43.7159540 105.1800050  54.5850280  43.7105110 104.6937240  53.1513680
  43.5784530 102.9784670  52.2466450  42.8849690 102.9761960  51.5868730
  44.3207390 102.5543990  51.8160620  35.6655780  89.5069600  58.5166250
  35.2223930  90.2879140  58.1850770  36.2240770  89.8299490  59.2237190
  39.9525590  92.3738120  64.1201570  39.4904960  92.5821140  64.9321510
  39.5503700  91.5597470  63.8172240  38.7814600  89.1280300  53.3972080
  38.1568780  89.1240170  54.1225390  38.6944720  88.2611260  53.0008050
  37.7031680  90.0516930  60.3755850  38.0004010  90.9579760  60.2947870
  38.2517240  89.5635710  59.7615420  42.6867760  94.6366540  54.8438150
  42.0876650  95.3602340  54.6601770  43.2347370  94.5743320  54.0614600
  37.8969210  95.5288750  66.9107770  37.8012810  94.5883480  66.7608170
  38.7401190  95.7503820  66.5155840  41.2932630  93.2730080  56.8741430
  41.6862200  93.5902280  56.0610120  41.6549480  92.3941960  56.9885950
  33.0279750  91.9402420  65.0641550  32.6343140  92.7877630  65.2714330
  32.3398150  91.3028790  65.2550190  39.6024800  92.0237390  68.1338290
  38.9123120  91.8309590  68.7684380  40.3457100  92.3072030  68.6662590
  38.3165160  92.5390030  59.3744700  38.3201220  92.0979980  58.5249240
  39.2116280  92.8607360  59.4816520  38.3785310  93.5402110  52.3651460
  38.4998130  93.4988590  53.3137280  37.9933820  94.4026260  52.2098190
  38.6173130  96.5991810  61.1210110  38.9843260  96.1250380  61.8671450
  38.4278190  97.4733380  61.4618450  36.4072500  95.6400450  63.4394320
  36.1029570  96.5192430  63.6644680  37.3618960  95.7000240  63.4751760
  41.1552210  90.2364760  53.9716950  40.3416820  89.7377930  53.8962260
  40.9614160  91.0763010  53.5553300  43.8700600  94.6084410  52.2679110
  44.7580220  94.9201640  52.0930450  43.8405690  93.7356660  51.8759690
  39.8661190 100.7808100  52.9467280  40.2076890 101.5250330  52.4510600
  39.0373900 101.0939220  53.3092110  41.0077800 101.7356430  65.4660360
  41.0222340 100.8037390  65.2479270  40.3002900 101.8216190  66.1050130
  46.1414870  95.9196250  51.7358970  46.0578590  96.3510470  50.8855410
  46.8609060  96.3794600  52.1685790  42.7488600 100.1023940  58.3112790
  43.1012420  99.5052070  57.6514160  41.8650930  99.7768170  58.4821040
  38.8351880 100.8621630  55.7183200  39.5223010 101.4090840  56.0990790
  38.0484300 101.4062360  55.7532810  38.1379090  97.8667660  55.3308560
  38.5941870  98.6772910  55.5568750  37.7867300  97.5490800  56.1627050
  40.4411700 103.3774000  62.5600860  41.0853920 103.5833380  63.2374280
  40.8041140 102.6162400  62.1071710  34.0390870  88.2105310  55.8031080
  33.9105500  88.2023210  56.7516000  33.2152890  88.5488400  55.4522090
  41.7143780 101.3806350  61.2778310  42.3566010 100.6799510  61.3910480
  42.2393130 102.1604790  61.0975200  45.5599500 101.6654970  51.0017450
  45.3337080 100.9485410  51.5942090  45.1695700 101.4167410  50.1639200
  43.4881400 102.1801250  64.4814370  43.8237640 102.7667940  65.1592290
  42.5681740 102.0493960  64.7112160  31.0384800  89.9696430  65.2637780
  30.3243320  90.1693350  65.8690390  31.4579840  89.1936000  65.6352580
  45.1415750  99.5826910  52.6631610  44.8537450 100.0439600  53.4509490
  45.9367920  99.1224680  52.9315830  39.3169980 102.2292580  67.6502430
  38.9966850 101.5101820  68.1948120  38.6428340 102.9047650  67.7238490
  45.8985610  91.4175680  53.8226790  45.2698770  91.5221350  53.1085020
  45.4037530  91.6372460  54.6120670  40.3443750 103.1381270  51.2560770
  40.4455730 102.9345260  50.3262750  39.4445490 102.8839550  51.4608550
  37.8669640  93.6961630  55.2384670  37.1585790  94.1647970  55.6798280
  38.1514120  93.0383640  55.8729860  39.4925570  95.1158330  63.2377200
  39.9910820  95.5904150  63.9029050  39.6348520  94.1921850  63.4447230
  38.9861860 105.6567590  55.9508440  39.2403360 105.6188980  55.0287810
  38.0374340 105.5300920  55.9436690  34.4657550 105.8399530  58.8738340
  35.2020030 105.2914990  59.1446910  34.8498470 106.7055540  58.7344330
  33.4715830 105.0245600  68.0623920  34.2728560 105.3457650  68.4759320
  32.9567650 104.6641180  68.7843830  38.2451580  98.9190050  66.5395490
  37.4797250  99.4875050  66.4550160  38.4267540  98.6266260  65.6463720
  41.3339990  99.2953280  51.1648250  40.7850090  99.7422580  51.8090990
  41.9559250  98.7902530  51.6885920  35.1642530  94.2340750  65.8684530
  34.6338990  93.7431700  65.2407870  35.8330600  94.6624950  65.3342460
  35.6514830  91.2003120  65.9481820  35.5571700  90.5823870  65.2232690
  35.0712220  91.9269410  65.7211730  38.4176270  89.7576360  62.9809210
  37.9693570  89.7800620  62.1354760  37.7841470  89.3595380  63.5779510
  38.8235820  98.6530690  63.6021650  39.2423930  99.4963420  63.4297890
  37.9044450  98.7902730  63.3728430  36.6743240 104.9583700  64.7179380
  36.1364330 105.6829760  64.3988080  36.9277200 104.4814040  63.9276720
  37.9268490  92.9268220  66.2435310  38.5168180  92.6184070  66.9313130
  37.1088730  92.4547970  66.3995210  42.7461920  92.5434030  66.4768330
  42.0577440  91.8815570  66.4118320  43.4667940  92.0972300  66.9216790
  43.3762320  89.1385660  52.5358590  43.6564610  88.2953560  52.8918010
  42.6028050  89.3708770  53.0497340  39.5305450 106.1934910  64.9766030
  39.4564150 107.0970050  65.2838400  38.6284290 105.8746810  64.9488100
  40.0790780 105.3593420  52.5992390  40.9741570 105.6978390  52.6211150
  40.1108410 104.6372830  51.9716670  30.9332740 103.5209500  58.2799650
  31.2635750 102.6530560  58.0478290  31.3623740 103.7268020  59.1104610
  31.4222950 104.3880090  61.0181280  30.9853940 104.5680890  61.8505430
  31.9900630 105.1454710  60.8763000  47.7543040  98.3762390  53.1462500
  48.5161950  98.9459040  53.2522190  47.7697410  97.8089590  53.9170810
  47.8062210  98.6696760  50.3035020  48.0811050  99.5775640  50.1754240
  47.6172950  98.6059290  51.2397010  44.2037820  91.6941610  51.5988650
  44.6222700  91.5072590  50.7585310  43.8973880  90.8420660  51.9091580
  32.6586830  89.2204120  50.2692520  33.3814960  89.7613060  50.5873740
  32.9311350  88.9467540  49.3934060  37.4081420 103.3545170  62.6803370
  37.1672780 103.6219730  61.7933890  38.3484060 103.5250900  62.7354230
  39.6135840  89.8177860  66.4359880  39.5524730  90.4099690  67.1855290
  40.5536220  89.7103820  66.2910140  42.2510400  89.4747920  66.0752170
  42.8650810  89.7927210  65.4133250  42.7959960  88.9896510  66.6948030
  32.7731660  88.1542180  66.1891230  33.3214650  87.9730230  65.4257340
  32.8386970  87.3636290  66.7247540  33.5463420 104.7447830  64.1991430
  32.9523740 104.6132530  64.9381470  33.5387260 103.9085970  63.7333530
  42.9918440  88.0380060  62.4021460  42.1178280  88.3715170  62.1994390
  42.8829190  87.5653240  63.2273330  33.1775650 102.1106210  63.1499470
  32.4509710 101.4911500  63.0825420  33.2384800 102.5046820  62.2797550
  36.7820750 104.3251210  59.9348880  37.2985770 103.7138570  59.4097140
  37.4318130 104.8279990  60.4259890  39.5216250 105.2159700  60.7617860
  39.8094060 104.9614000  59.8850870  40.0339470 104.6637060  61.3523430
  40.7393260  88.9549900  61.3414370  39.9565050  89.4295400  61.6211130
  40.4456190  88.0504730  61.2327550  38.6247480  91.3736650  56.8530400
  37.8121990  90.9993540  56.5126280  39.1289120  90.6181730  57.1551590
  46.2707060  88.4400660  53.3653750  46.4657690  89.3384110  53.6321180
  45.4836930  88.2087740  53.8586700  36.6496660  89.5236570  55.4575450
  36.0199400  88.8223880  55.6245580  36.1101800  90.2840700  55.2408610
  39.5888610 106.1375800  68.1286060  40.5155920 105.9020070  68.1722020
  39.5739040 106.9647800  67.6472090  36.7752220  88.8020550  67.8927940
  36.4936490  89.3054150  67.1288760  37.1571920  88.0042300  67.5270070
  43.3767680  88.2174130  68.4708410  43.2633130  88.5368740  69.3659930
  44.1937420  88.6186640  68.1745690  40.4143870  98.0145620  40.7152420
  39.6385970  97.5346060  41.0050990  41.0656800  97.3351270  40.5408580
  44.4351300 102.4205810  39.4951550  43.9732830 101.6493050  39.8238720
  45.2476850 102.4471880  40.0004000  32.8401650  93.2867320  35.3770570
  31.9518350  93.6283290  35.2750450  33.1242840  93.0867640  34.4851400
  30.8034660  95.8872970  41.2610270  31.3750770  95.1195170  41.2613910
  30.8036200  96.1861730  40.3516880  40.8858030  93.4973190  40.9491510
  41.2622850  92.6245070  40.8365180  40.7877540  93.8331890  40.0581950
  32.6646200  93.7917830  41.6561540  33.3456310  94.0556200  42.2748940
  32.3494250  92.9518700  41.9899550  36.8570770  94.8385190  40.7434130
  37.3648990  95.3366160  41.3839150  37.3884010  94.0620390  40.5673490
  48.9581700  93.0090380  44.4463480  48.2533870  93.3972090  43.9278590
  49.2239620  93.7040670  45.0484410  30.8961160 100.2759590  33.8827080
  30.5189140 100.7646690  33.1511980  31.1534230 100.9484870  34.5133610
  38.5050090  88.6775980  39.3412590  38.8125070  88.1222870  38.6248090
  37.5750790  88.8120440  39.1585580  40.8930850  96.7424810  36.0772710
  39.9660130  96.6762190  36.3061180  41.0455670  97.6804940  35.9627950
  47.4012690  97.6960330  43.0518900  46.5731320  97.7653420  42.5769030
  47.9963170  98.2814640  42.5834730  36.4987490  97.2689550  38.8592440
  36.0944490  96.5566800  38.3638340  36.5850610  96.9242790  39.7480480
  35.2116110  94.0432760  42.6391480  35.7630700  94.1528100  41.8644730
  35.7259620  94.4170360  43.3546710  43.0992840  97.5431920  33.5880710
  43.5386120  96.7054350  33.4418530  43.8121260  98.1761320  33.6744850
  33.1992120  96.1634530  36.3599090  33.0789720  96.8896620  35.7480360
  32.8893010  95.3937440  35.8827000  32.0825120 101.0349860  38.5773910
  31.6753200 101.1764450  37.7227510  32.9738130 100.7510020  38.3745120
  48.0387260 101.4813770  46.9146150  48.1650320 101.2425650  45.9963330
  48.0808640 100.6498310  47.3868230  47.8911270  93.5346230  47.8795890
  47.2755540  94.0425900  47.3511350  47.5707690  92.6344560  47.8221830
  35.6655780  89.5069600  39.7422760  35.2223930  90.2879140  39.4107280
  36.2240770  89.8299490  40.4493700  42.0479810  95.0948820  48.5753530
  42.3733220  94.2612570  48.2355760  42.8360140  95.6177340  48.7231860
  37.7031680  90.0516930  41.6012360  38.0004010  90.9579760  41.5204380
  38.2517240  89.5635710  40.9871930  30.3296800  89.8630880  40.3228140
  30.0409850  90.4333740  41.0353120  31.0742560  89.3835330  40.6859370
  30.5167030  93.8051000  31.5330860  30.4341700  94.7481760  31.6745850
  30.1650090  93.6625910  30.6543210  41.8787770  95.8635830  42.1948720
  41.1468890  96.3722640  42.5438820  41.4812110  95.0465810  41.8937500
  38.3165160  92.5390030  40.6001210  38.3201220  92.0979980  39.7505750
  39.2116280  92.8607360  40.7073030  34.1667540  92.4216520  39.5595420
  33.8267590  92.8991750  40.3162470  33.4044860  91.9681640  39.1996520
  42.3413680  91.3169510  41.6071660  42.3586420  91.7678160  42.4513510
  42.0929260  90.4175150  41.8205100  45.7684430  88.7301690  47.4458040
  46.0930200  87.9991350  47.9716020  45.8040940  88.4115330  46.5439030
  38.6173130  96.5991810  42.3466620  38.9843260  96.1250380  43.0927960
  38.4278190  97.4733380  42.6874960  31.4813620  91.3435500  38.4760090
  31.1960540  90.9791170  39.3138710  31.4192480  90.6115960  37.8623230
  36.4072500  95.6400450  44.6650830  36.1029570  96.5192430  44.8901190
  37.3618960  95.7000240  44.7008270  34.9354290  99.8461440  35.2617680
  34.1616550  99.3059060  35.1016400  35.6648920  99.3268050  34.9235440
  45.6942270  98.8426800  41.0544070  46.4141390  99.3382090  40.6640180
  45.4924090  98.1644690  40.4097940  34.9791690  99.5141820  38.8996490
  35.4970360  98.7110080  38.8453380  34.5275710  99.4520960  39.7413320
  39.8661190 100.7808100  34.1723790  40.2076890 101.5250330  33.6767110
  39.0373900 101.0939220  34.5348620  32.4636230  96.4803190  45.8122190
  32.1051170  97.1457040  46.3995530  32.1690790  95.6486740  46.1834810
  46.1414870  95.9196250  32.9615480  46.0578590  96.3510470  32.1111920
  46.8609060  96.3794600  33.3942300  42.7488600 100.1023940  39.5369300
  43.1012420  99.5052070  38.8770670  41.8650930  99.7768170  39.7077550
  30.9744280  96.4794450  32.4356790  31.8439130  96.7619250  32.7192710
  30.4834600  97.2930320  32.3205600  38.1379090  97.8667660  36.5565070
  38.5941870  98.6772910  36.7825260  37.7867300  97.5490800  37.3883560
  34.0390870  88.2105310  37.0287590  33.9105500  88.2023210  37.9772510
  33.2152890  88.5488400  36.6778600  31.3415530 105.6921830  33.0018420
  31.7013170 106.2911170  32.3475690  31.2007870 106.2381720  33.7753450
  37.3584150 103.0753030  33.8192090  37.3494250 103.8082720  33.2036600
  36.4382510 102.8284610  33.9119050  32.9590790  98.2967920  34.5638850
  32.3518740  99.0366820  34.5734150  33.4340140  98.3867280  33.7377050
  42.5323580  92.4618740  44.2395740  42.9004400  91.6413950  44.5675310
  41.6721780  92.5220630  44.6551390  39.4925570  95.1158330  44.4633710
  39.9910820  95.5904150  45.1285560  39.6348520  94.1921850  44.6703740
  41.8985070  90.4212290  37.9036970  41.7752850  90.4398420  36.9546480
  42.8469630  90.4691230  38.0235370  46.6992430  91.3326290  45.3062100
  46.1966030  92.0731690  45.6455910  47.5149090  91.7210290  44.9898890
  34.9696080  98.2579070  32.3127420  35.7359350  98.1460430  32.8752850
  35.0470770  97.5617040  31.6604190  33.6642840  95.6904140  32.9960310
  33.7446430  94.7431650  33.1077710  34.5562590  96.0211020  33.1020970
  31.3503030 101.9073100  35.9736360  30.4242810 102.1494240  35.9641770
  31.8159460 102.7347360  35.8521110  43.7380830 104.8605760  47.8465250
  44.6902580 104.7763780  47.7965490  43.5909050 105.5247470  48.5199040
  31.1913640  97.5119060  48.2316480  31.6952660  96.9326340  48.8032710
  30.4521060  97.7959290  48.7692850  38.0937260 100.2333250  31.7862770
  37.9887900  99.6185600  32.5124150  37.9261480  99.7099140  31.0025780
  41.3339990  99.2953280  32.3904760  40.7850090  99.7422580  33.0347500
  41.9559250  98.7902530  32.9142430  37.0015110  98.2544200  34.2870060
  37.4231530  98.0884070  35.1301450  37.1265950  97.4444430  33.7925200
  39.5142750  97.2781810  31.5347160  40.0348410  96.5630830  31.1688310
  40.1611150  97.9167680  31.8347670  38.4176270  89.7576360  44.2065720
  37.9693570  89.7800620  43.3611270  37.7841470  89.3595380  44.8036020
  38.8235820  98.6530690  44.8278160  39.2423930  99.4963420  44.6554400
  37.9044450  98.7902730  44.5984940  35.8974010  94.3277430  31.2328220
  35.6963070  93.4644790  31.5941560  35.7266060  94.2410790  30.2949820
  42.7461920  92.5434030  47.7024840  42.0577440  91.8815570  47.6374830
  43.4667940  92.0972300  48.1473300  43.3762320  89.1385660  33.7615100
  43.6564610  88.2953560  34.1174520  42.6028050  89.3708770  34.2753850
  34.6956810  91.4278050  31.2206100  34.9982710  91.4345480  30.3125250
  35.4351400  91.0775910  31.7173760  33.7186940 100.7320470  32.0535900
  34.1561810 101.2750140  32.7093480  34.2034670  99.9067420  32.0632240
  30.9332740 103.5209500  39.5056160  31.2635750 102.6530560  39.2734800
  31.3623740 103.7268020  40.3361120  31.2547380  96.9000320  38.6026670
  30.5996220  96.6311960  37.9586370  32.0925330  96.7904800  38.1528650
  48.7603010  99.2312490  39.2160940  49.1311840  98.4479810  38.8096910
  49.4004940  99.9201590  39.0378240  32.2923310  97.2852890  43.1430010
  32.6596350  97.1980290  44.0226030  31.7234130  96.5219440  43.0436870
  31.8439310  94.1961980  47.0488430  30.9495360  94.1628740  47.3882140
  32.3836860  94.3948770  47.8139680  45.5315240  90.9793700  48.9340180
  46.4085420  90.9877100  49.3174180  45.5436080  90.2424540  48.3232530
  30.4685460  94.1099250  34.5452000  29.5649540  94.3729450  34.3703660
  30.9526080  94.3810420  33.7651960  47.1568230  94.9163110  43.3447750
  46.2070940  94.8826650  43.4592740  47.3381240  95.8263220  43.1097520
  33.0112670  93.1664790  32.4546380  33.7204370  92.7448010  31.9693660
  32.2952610  93.2340020  31.8229730  32.6586830  89.2204120  31.4949030
  33.3814960  89.7613060  31.8130250  32.9311350  88.9467540  30.6190570
  46.2431360  88.6651670  44.7541290  46.8803580  89.2785810  45.1200480
  46.3906250  88.7012330  43.8090520  42.2510400  89.4747920  47.3008680
  42.8650810  89.7927210  46.6389760  42.7959960  88.9896510  47.9204540
  43.8990420  90.2450930  45.0119690  43.5703780  89.4302690  44.6321420
  44.8472720  90.2020740  44.8885380  40.7393260  88.9549900  42.5670880
  39.9565050  89.4295400  42.8467640  40.4456190  88.0504730  42.4584060
  31.4605650 105.4280600  37.5852740  31.2927690 104.7951280  38.2834630
  30.5940160 105.6340000  37.2346930  32.0833670  89.2597380  35.0884600
  32.8413030  89.3726260  34.5148630  31.6210840  90.0966580  35.0428030
  43.1272460  88.0379100  39.3169980  43.7301830  88.6099310  39.7918500
  42.3865450  88.6018540  39.0943880  46.2707060  88.4400660  34.5910260
  46.4657690  89.3384110  34.8577690  45.4836930  88.2087740  35.0843210
  33.0668350 104.1213830  35.0302880  32.5415970 104.5021860  34.3264840
  32.9912930 104.7464600  35.7512590  39.5888610 106.1375800  49.3542570
  40.5155920 105.9020070  49.3978530  39.5739040 106.9647800  48.8728600
  35.6661320 106.0696210  33.9052130  36.3980140 105.7855490  33.3576020
  35.9254990 105.8309490  34.7951510  34.8276110 102.1860940  33.9098460
  34.1984990 102.6546040  34.4584290  34.9423940 101.3410160  34.3444650
  43.3767680  88.2174130  49.6964920  43.2633130  88.5368740  50.5916440
  44.1937420  88.6186640  49.4002200  42.2825830  96.2366600  20.0599660
  42.2019880  95.3221210  19.7891370  41.8690250  96.7333670  19.3539370
  40.4143870  98.0145620  21.9408930  39.6385970  97.5346060  22.2307500
  41.0656800  97.3351270  21.7665090  34.4309700  98.3265430  22.8184690
  33.5994580  98.0714140  23.2181200  35.0390680  98.3976200  23.5542610
  44.4351300 102.4205810  20.7208060  43.9732830 101.6493050  21.0495230
  45.2476850 102.4471880  21.2260510  34.4110960 102.3605520  23.0142710
  34.7139000 101.4703260  22.8352930  35.1554550 102.9175740  22.7864960
  32.8401650  93.2867320  16.6027080  31.9518350  93.6283290  16.5006960
  33.1242840  93.0867640  15.7107910  30.8034660  95.8872970  22.4866780
  31.3750770  95.1195170  22.4870420  30.8036200  96.1861730  21.5773390
  40.6614610 104.7063820  20.3412050  40.0426050 105.1621320  19.7706490
  41.5166390 104.8615280  19.9401750  39.8552860 100.6902810  21.9479090
  39.7861140  99.7492750  21.7868220  40.6172720 100.7804220  22.5201660
  32.0459530  91.2957330  24.2735710  31.8662370  90.3983080  24.5538470
  31.6439610  91.8429200  24.9482660  40.8858030  93.4973190  22.1748020
  41.2622850  92.6245070  22.0621690  40.7877540  93.8331890  21.2838460
  35.0163040  91.8698820  17.6365460  35.1229790  92.7702550  17.9434220
  34.1055400  91.8216790  17.3460110  44.6682150  90.9923630  19.1076360
  45.4891770  90.5020200  19.1501840  44.7016230  91.5821290  19.8608200
  32.6646200  93.7917830  22.8818050  33.3456310  94.0556200  23.5005450
  32.3494250  92.9518700  23.2156060  36.8570770  94.8385190  21.9690640
  37.3648990  95.3366160  22.6095660  37.3884010  94.0620390  21.7930000
  35.1406870  89.4783750  26.2354060  35.1425310  89.9956140  25.4299960
  34.3111180  89.0013930  26.2123990  41.5277960  99.5903060  17.7343960
  40.9095230 100.0552510  17.1706680  42.0401210 100.2830540  18.1513470
  36.3909720  99.1178930  24.4127560  36.0579100  99.7447850  25.0548630
  36.5676400  99.6440810  23.6329230  44.9043630  92.9324010  21.8803900
  44.1999200  93.2208900  22.4607010  45.2655790  93.7424120  21.5203460
  34.8222200  91.1893710  24.2424510  35.1639010  92.0335760  23.9478380
  33.8838010  91.3377450  24.3589850  35.6028820 101.0859730  26.2276740
  36.2202820 101.7610810  25.9461190  34.7421940 101.4947710  26.1364240
  30.8961160 100.2759590  15.1083590  30.5189140 100.7646690  14.3768490
  31.1534230 100.9484870  15.7390120  46.5206410 102.5499140  24.1431380
  45.8369930 103.2198250  24.1348050  47.0600700 102.7479790  23.3776240
  38.5050090  88.6775980  20.5669100  38.8125070  88.1222870  19.8504600
  37.5750790  88.8120440  20.3842090  44.0565150 104.3943270  22.8576560
  44.0692310 103.9905560  21.9898820  43.5040370 105.1690560  22.7537990
  45.3510570 101.1159490  17.9466730  45.2406900 100.1733820  18.0716150
  45.3478820 101.4775130  18.8329490  43.4550590  99.2973110  24.1859170
  43.8719380  99.0833220  23.3512630  44.1790410  99.5545900  24.7567790
  40.8930850  96.7424810  17.3029220  39.9660130  96.6762190  17.5317690
  41.0455670  97.6804940  17.1884460  40.8799930  93.0141810  14.2996380
  39.9403600  93.1755770  14.3848840  41.1983190  93.7327490  13.7532370
  44.9228140  98.3045110  17.8064470  44.3040560  97.9664660  17.1590770
  44.9052590  97.6604870  18.5143660  44.3654700  94.4829650  25.2230280
  43.9525880  95.3083360  25.4770270  43.6330650  93.8974690  25.0306640
  36.4987490  97.2689550  20.0848950  36.0944490  96.5566800  19.5894850
  36.5850610  96.9242790  20.9736990  36.9669190 100.9557110  22.2488160
  36.6697480 100.3502580  21.5695940  37.9169010 100.9934420  22.1377520
  35.2116110  94.0432760  23.8647990  35.7630700  94.1528100  23.0901240
  35.7259620  94.4170360  24.5803220  45.0554800 104.5288980  25.9111260
  44.5785360 105.3361170  25.7183870  44.3716590 103.8767310  26.0637470
  36.0587620 100.6938800  28.8995960  35.1616150 100.9178770  29.1469360
  36.0840490 100.8173740  27.9507360  43.0992840  97.5431920  14.8137220
  43.5386120  96.7054350  14.6675040  43.8121260  98.1761320  14.9001360
  34.8858840  97.5652120  27.4753330  34.7466610  98.4374920  27.8440730
  34.0040200  97.2224930  27.3301270  41.2088220 102.4827990  18.7818460
  41.6484130 103.2252320  18.3673850  41.1475110 102.7254560  19.7057420
  36.6839190 103.5073820  29.6838480  36.6554620 103.9116770  28.8166910
  36.5204160 102.5784180  29.5210080  46.6809980  88.7974730  13.1278260
  46.3682640  88.8901560  14.0277330  47.4422450  89.3755760  13.0775690
  33.1992120  96.1634530  17.5855600  33.0789720  96.8896620  16.9736870
  32.8893010  95.3937440  17.1083510  30.8377490  99.3349670  23.3924240
  30.9157910  99.4698440  22.4479960  31.4519170  98.6265560  23.5852360
  32.0825120 101.0349860  19.8030420  31.6753200 101.1764450  18.9484020
  32.9738130 100.7510020  19.6001630  41.9004000 105.1841770  26.7097470
  42.4148670 105.0949780  27.5119900  41.0573080 105.5301470  27.0025380
  43.8758400 105.4697110  16.1381470  43.7159540 105.1800050  17.0363300
  43.7105110 104.6937240  15.6026700  36.3546780 105.2495640  17.9153090
  36.1789260 104.3331180  17.7020890  35.5002520 105.6082930  18.1550890
  43.5784530 102.9784670  14.6979470  42.8849690 102.9761960  14.0381750
  44.3207390 102.5543990  14.2673640  43.1434460 104.6047380  18.7727960
  43.5991410 103.8236760  19.0866580  43.4826980 105.3154200  19.3169140
  30.8937010 100.3763840  25.9318700  31.0568050  99.9069200  25.1138070
  31.3589460  99.8687400  26.5967540  35.6655780  89.5069600  20.9679270
  35.2223930  90.2879140  20.6363790  36.2240770  89.8299490  21.6750210
  39.9525590  92.3738120  26.5714590  39.4904960  92.5821140  27.3834530
  39.5503700  91.5597470  26.2685260  42.0479810  95.0948820  29.8010040
  42.3733220  94.2612570  29.4612270  42.8360140  95.6177340  29.9488370
  38.7814600  89.1280300  15.8485100  38.1568780  89.1240170  16.5738410
  38.6944720  88.2611260  15.4521070  37.7031680  90.0516930  22.8268870
  38.0004010  90.9579760  22.7460890  38.2517240  89.5635710  22.2128440
  35.4570000  94.6303170  18.6960520  35.2310920  94.4140340  19.6007140
  34.6762530  95.0631630  18.3506490  42.6867760  94.6366540  17.2951170
  42.0876650  95.3602340  17.1114790  43.2347370  94.5743320  16.5127620
  37.8969210  95.5288750  29.3620790  37.8012810  94.5883480  29.2121190
  38.7401190  95.7503820  28.9668860  41.2932630  93.2730080  19.3254450
  41.6862200  93.5902280  18.5123140  41.6549480  92.3941960  19.4398970
  33.0279750  91.9402420  27.5154570  32.6343140  92.7877630  27.7227350
  32.3398150  91.3028790  27.7063210  30.3296800  89.8630880  21.5484650
  30.0409850  90.4333740  22.2609630  31.0742560  89.3835330  21.9115880
  30.5167030  93.8051000  12.7587370  30.4341700  94.7481760  12.9002360
  30.1650090  93.6625910  11.8799720  41.8787770  95.8635830  23.4205230
  41.1468890  96.3722640  23.7695330  41.4812110  95.0465810  23.1194010
  38.3165160  92.5390030  21.8257720  38.3201220  92.0979980  20.9762260
  39.2116280  92.8607360  21.9329540  34.1667540  92.4216520  20.7851930
  33.8267590  92.8991750  21.5418980  33.4044860  91.9681640  20.4253030
  38.3785310  93.5402110  14.8164480  38.4998130  93.4988590  15.7650300
  37.9933820  94.4026260  14.6611210  42.3413680  91.3169510  22.8328170
  42.3586420  91.7678160  23.6770020  42.0929260  90.4175150  23.0461610
  37.3906810  95.8503250  14.2147780  36.8223710  95.4021500  13.5883690
  38.0995810  96.2096030  13.6812930  45.7684430  88.7301690  28.6714550
  46.0930200  87.9991350  29.1972530  45.8040940  88.4115330  27.7695540
  32.4675990  99.7515270  28.0914510  32.0830780  99.1108940  28.6897470
  32.7788180 100.4551390  28.6609240  38.6173130  96.5991810  23.5723130
  38.9843260  96.1250380  24.3184470  38.4278190  97.4733380  23.9131470
  31.4813620  91.3435500  19.7016600  31.1960540  90.9791170  20.5395220
  31.4192480  90.6115960  19.0879740  36.4072500  95.6400450  25.8907340
  36.1029570  96.5192430  26.1157700  37.3618960  95.7000240  25.9264780
  34.9354290  99.8461440  16.4874190  34.1616550  99.3059060  16.3272910
  35.6648920  99.3268050  16.1491950  45.6942270  98.8426800  22.2800580
  46.4141390  99.3382090  21.8896690  45.4924090  98.1644690  21.6354450
  41.1552210  90.2364760  16.4229970  40.3416820  89.7377930  16.3475280
  40.9614160  91.0763010  16.0066320  41.0761070  98.9135860  28.1669580
  41.0098380  97.9931530  27.9127170  40.4466210  99.0111300  28.8814220
  43.8700600  94.6084410  14.7192130  44.7580220  94.9201640  14.5443470
  43.8405690  93.7356660  14.3272710  34.9791690  99.5141820  20.1253000
  35.4970360  98.7110080  20.0709890  34.5275710  99.4520960  20.9669830
  39.8661190 100.7808100  15.3980300  40.2076890 101.5250330  14.9023620
  39.0373900 101.0939220  15.7605130  32.4636230  96.4803190  27.0378700
  32.1051170  97.1457040  27.6252040  32.1690790  95.6486740  27.4091320
  35.6649350  96.9387430  29.9218250  35.3649490  97.0844610  29.0246070
  36.4360590  96.3792720  29.8291640  41.0077800 101.7356430  27.9173380
  41.0222340 100.8037390  27.6992290  40.3002900 101.8216190  28.5563150
  46.1414870  95.9196250  14.1871990  46.0578590  96.3510470  13.3368430
  46.8609060  96.3794600  14.6198810  47.1702120 102.7738510  16.9154120
  46.5278280 102.1194130  17.1897840  46.7832780 103.1793600  16.1394790
  42.7488600 100.1023940  20.7625810  43.1012420  99.5052070  20.1027180
  41.8650930  99.7768170  20.9334060  38.8351880 100.8621630  18.1696220
  39.5223010 101.4090840  18.5503810  38.0484300 101.4062360  18.2045830
  30.9744280  96.4794450  13.6613300  31.8439130  96.7619250  13.9449220
  30.4834600  97.2930320  13.5462110  38.1379090  97.8667660  17.7821580
  38.5941870  98.6772910  18.0081770  37.7867300  97.5490800  18.6140070
  40.4411700 103.3774000  25.0113880  41.0853920 103.5833380  25.6887300
  40.8041140 102.6162400  24.5584730  34.0390870  88.2105310  18.2544100
  33.9105500  88.2023210  19.2029020  33.2152890  88.5488400  17.9035110
  41.7143780 101.3806350  23.7291330  42.3566010 100.6799510  23.8423500
  42.2393130 102.1604790  23.5488220  45.5599500 101.6654970  13.4530470
  45.3337080 100.9485410  14.0455110  45.1695700 101.4167410  12.6152220
  43.4881400 102.1801250  26.9327390  43.8237640 102.7667940  27.6105310
  42.5681740 102.0493960  27.1625180  31.3415530 105.6921830  14.2274930
  31.7013170 106.2911170  13.5732200  31.2007870 106.2381720  15.0009960
  31.0384800  89.9696430  27.7150800  30.3243320  90.1693350  28.3203410
  31.4579840  89.1936000  28.0865600  45.1415750  99.5826910  15.1144630
  44.8537450 100.0439600  15.9022510  45.9367920  99.1224680  15.3828850
  31.3257390 103.9576690  28.7017330  31.4348510 103.0171430  28.5612720
  30.6737950 104.2231440  28.0531060  39.3169980 102.2292580  30.1015450
  38.9966850 101.5101820  30.6461140  38.6428340 102.9047650  30.1751510
  37.3584150 103.0753030  15.0448600  37.3494250 103.8082720  14.4293110
  36.4382510 102.8284610  15.1375560  32.9590790  98.2967920  15.7895360
  32.3518740  99.0366820  15.7990660  33.4340140  98.3867280  14.9633560
  42.5323580  92.4618740  25.4652250  42.9004400  91.6413950  25.7931820
  41.6721780  92.5220630  25.8807900  45.8985610  91.4175680  16.2739810
  45.2698770  91.5221350  15.5598040  45.4037530  91.6372460  17.0633690
  40.3443750 103.1381270  13.7073790  40.4455730 102.9345260  12.7775770
  39.4445490 102.8839550  13.9121570  37.8669640  93.6961630  17.6897690
  37.1585790  94.1647970  18.1311300  38.1514120  93.0383640  18.3242880
  39.4925570  95.1158330  25.6890220  39.9910820  95.5904150  26.3542070
  39.6348520  94.1921850  25.8960250  41.8985070  90.4212290  19.1293480
  41.7752850  90.4398420  18.1802990  42.8469630  90.4691230  19.2491880
  38.9861860 105.6567590  18.4021460  39.2403360 105.6188980  17.4800830
  38.0374340 105.5300920  18.3949710  36.0704660  92.0046710  15.0648400
  36.9195190  92.4416860  14.9988590  35.7035930  92.3166970  15.8920460
  44.9914440  96.5759470  19.9779970  44.0504580  96.5909700  20.1527660
  45.3058510  95.7895430  20.4240270  34.9696080  98.2579070  13.5383930
  35.7359350  98.1460430  14.1009360  35.0470770  97.5617040  12.8860700
  33.6642840  95.6904140  14.2216820  33.7446430  94.7431650  14.3334220
  34.5562590  96.0211020  14.3277480  46.9940020 103.7468320  21.6534230
  47.1187440 104.5699490  22.1258040  47.8605580 103.5359050  21.3058380
  34.4657550 105.8399530  21.3251360  35.2020030 105.2914990  21.5959930
  34.8498470 106.7055540  21.1857350  31.3503030 101.9073100  17.1992870
  30.4242810 102.1494240  17.1898280  31.8159460 102.7347360  17.0777620
  33.4715830 105.0245600  30.5136940  34.2728560 105.3457650  30.9272340
  32.9567650 104.6641180  31.2356850  37.5759860 105.0129840  13.1476930
  38.3688470 105.3018670  12.6958720  37.0564210 104.5822010  12.4689410
  42.3080460 101.1325470  30.4612350  41.7018620 101.1557070  29.7208100
  42.0034570 100.4008510  30.9979600  46.6290030 104.2399970  14.5713670
  46.3431540 103.8265110  13.7567850  46.4309580 105.1687680  14.4514190
  31.1913640  97.5119060  29.4572990  31.6952660  96.9326340  30.0289220
  30.4521060  97.7959290  29.9949360  38.0937260 100.2333250  13.0119280
  37.9887900  99.6185600  13.7380660  37.9261480  99.7099140  12.2282290
  38.2451580  98.9190050  28.9908510  37.4797250  99.4875050  28.9063180
  38.4267540  98.6266260  28.0976740  41.3339990  99.2953280  13.6161270
  40.7850090  99.7422580  14.2604010  41.9559250  98.7902530  14.1398940
  33.2236720  95.6548650  30.3523060  33.2642060  95.3562520  31.2608290
  34.0782220  96.0556260  30.1930580  37.0015110  98.2544200  15.5126570
  37.4231530  98.0884070  16.3557960  37.1265950  97.4444430  15.0181710
  35.1642530  94.2340750  28.3197550  34.6338990  93.7431700  27.6920890
  35.8330600  94.6624950  27.7855480  39.5142750  97.2781810  12.7603670
  40.0348410  96.5630830  12.3944820  40.1611150  97.9167680  13.0604180
  35.6514830  91.2003120  28.3994840  35.5571700  90.5823870  27.6745710
  35.0712220  91.9269410  28.1724750  38.4176270  89.7576360  25.4322230
  37.9693570  89.7800620  24.5867780  37.7841470  89.3595380  26.0292530
  38.8235820  98.6530690  26.0534670  39.2423930  99.4963420  25.8810910
  37.9044450  98.7902730  25.8241450  41.1599720  96.3846870  27.4372510
  41.2795930  95.7888010  28.1767350  42.0193720  96.4216560  27.0173810
  43.4987620  96.9384060  26.0135020  42.9722840  97.4626680  25.4100160
  43.8418960  97.5711450  26.6444750  35.8974010  94.3277430  12.4584730
  35.6963070  93.4644790  12.8198070  35.7266060  94.2410790  11.5206330
  36.6743240 104.9583700  27.1692400  36.1364330 105.6829760  26.8501100
  36.9277200 104.4814040  26.3789740  37.9268490  92.9268220  28.6948330
  38.5168180  92.6184070  29.3826150  37.1088730  92.4547970  28.8508230
  42.7461920  92.5434030  28.9281350  42.0577440  91.8815570  28.8631340
  43.4667940  92.0972300  29.3729810  43.3762320  89.1385660  14.9871610
  43.6564610  88.2953560  15.3431030  42.6028050  89.3708770  15.5010360
  34.6956810  91.4278050  12.4462610  34.9982710  91.4345480  11.5381760
  35.4351400  91.0775910  12.9430270  39.5305450 106.1934910  27.4279050
  39.4564150 107.0970050  27.7351420  38.6284290 105.8746810  27.4001120
  37.9141740  90.3712670  13.4318810  37.5663740  89.6936660  12.8521260
  38.1154510  89.9102180  14.2462200  40.0790780 105.3593420  15.0505410
  40.9741570 105.6978390  15.0724170  40.1108410 104.6372830  14.4229690
  33.7186940 100.7320470  13.2792410  34.1561810 101.2750140  13.9349990
  34.2034670  99.9067420  13.2888750  30.9332740 103.5209500  20.7312670
  31.2635750 102.6530560  20.4991310  31.3623740 103.7268020  21.5617630
  35.5294660 101.8518510  18.3914640  35.2290200 101.7283480  19.2918550
  35.4232150 100.9927100  17.9830370  31.4222950 104.3880090  23.4694300
  30.9853940 104.5680890  24.3018450  31.9900630 105.1454710  23.3276020
  47.0585130 103.8897090  27.7571610  46.4587120 103.9489650  27.0135530
  47.1879030 102.9502070  27.8868460  48.2986580 101.6314910  13.0941320
  47.4679540 101.6991560  13.5648550  48.4758410 102.5219030  12.7908180
  47.7543040  98.3762390  15.5975520  48.5161950  98.9459040  15.7035210
  47.7697410  97.8089590  16.3683830  31.2547380  96.9000320  19.8283180
  30.5996220  96.6311960  19.1842880  32.0925330  96.7904800  19.3785160
  48.7603010  99.2312490  20.4417450  49.1311840  98.4479810  20.0353420
  49.4004940  99.9201590  20.2634750  45.7436770 100.6149070  25.8547770
  44.9296610 101.0446230  26.1173560  46.1510970 101.2267480  25.2416820
  47.8062210  98.6696760  12.7548040  48.0811050  99.5775640  12.6267260
  47.6172950  98.6059290  13.6910030  44.2037820  91.6941610  14.0501670
  44.6222700  91.5072590  13.2098330  43.8973880  90.8420660  14.3604600
  47.7027550  96.6065750  17.7477470  47.3271150  95.8393680  17.3158760
  46.9730670  96.9888450  18.2352400  32.2923310  97.2852890  24.3686520
  32.6596350  97.1980290  25.2482540  31.7234130  96.5219440  24.2693380
  31.8439310  94.1961980  28.2744940  30.9495360  94.1628740  28.6138650
  32.3836860  94.3948770  29.0396190  30.4685460  94.1099250  15.7708510
  29.5649540  94.3729450  15.5960170  30.9526080  94.3810420  14.9908470
  46.9778510  94.8323240  21.0484710  47.5015990  94.3385890  20.4174880
  47.5637930  94.9673600  21.7932280  47.1568230  94.9163110  24.5704260
  46.2070940  94.8826650  24.6849250  47.3381240  95.8263220  24.3354030
  33.0112670  93.1664790  13.6802890  33.7204370  92.7448010  13.1950170
  32.2952610  93.2340020  13.0486240  32.6586830  89.2204120  12.7205540
  33.3814960  89.7613060  13.0386760  32.9311350  88.9467540  11.8447080
  46.4678480  94.0896590  16.9877120  46.9637600  93.8567460  17.7726000
  46.2694550  93.2508430  16.5714760  32.3479020  88.4710310  22.6228160
  32.9955210  87.9207690  22.1823320  32.7680860  88.7253460  23.4443970
  47.8965640  92.7257540  19.5214800  47.7864920  92.5713580  20.4597070
  48.6573230  92.1978480  19.2790210  46.2431360  88.6651670  25.9797800
  46.8803580  89.2785810  26.3456990  46.3906250  88.7012330  25.0347030
  48.7855910  90.5565460  12.7620940  49.7105220  90.4246640  12.5539230
  48.7631700  90.6358280  13.7157390  48.8594400  91.3276120  15.3877650
  48.0645900  91.2621240  15.9170560  49.0637680  92.2626760  15.3763000
  45.8012820 105.3667670  19.3816040  46.3971890 105.0452240  18.7050460
  46.0590970 104.8939490  20.1729310  32.1011020  88.6265980  25.3653480
  31.7525840  89.0829800  26.1311660  31.7698720  87.7323110  25.4475910
  33.7075390 101.7985580  29.5306670  33.6645020 101.4278490  30.4121130
  33.8386400 102.7363150  29.6708490  37.4081420 103.3545170  25.1316390
  37.1672780 103.6219730  24.2446910  38.3484060 103.5250900  25.1867250
  39.6135840  89.8177860  28.8872900  39.5524730  90.4099690  29.6368310
  40.5536220  89.7103820  28.7423160  42.2510400  89.4747920  28.5265190
  42.8650810  89.7927210  27.8646270  42.7959960  88.9896510  29.1461050
  48.6685580 105.3739550  25.9327030  48.1743860 105.7708420  25.2154160
  48.0598870 104.7488760  26.3264310  32.7731660  88.1542180  28.6404250
  33.3214650  87.9730230  27.8770360  32.8386970  87.3636290  29.1760560
  33.5463420 104.7447830  26.6504450  32.9523740 104.6132530  27.3894490
  33.5387260 103.9085970  26.1846550  42.9918440  88.0380060  24.8534480
  42.1178280  88.3715170  24.6507410  42.8829190  87.5653240  25.6786350
  43.8990420  90.2450930  26.2376200  43.5703780  89.4302690  25.8577930
  44.8472720  90.2020740  26.1141890  46.3525030 106.0162970  23.2113770
  45.8928000 106.7678780  22.8371790  45.7237490 105.2969440  23.1528570
  33.1775650 102.1106210  25.6012490  32.4509710 101.4911500  25.5338440
  33.2384800 102.5046820  24.7310570  36.7820750 104.3251210  22.3861900
  37.2985770 103.7138570  21.8610160  37.4318130 104.8279990  22.8772910
  39.5216250 105.2159700  23.2130880  39.8094060 104.9614000  22.3363890
  40.0339470 104.6637060  23.8036450  40.7393260  88.9549900  23.7927390
  39.9565050  89.4295400  24.0724150  40.4456190  88.0504730  23.6840570
  45.2914330  89.6573000  21.8376480  45.7322420  89.6018100  20.9898080
  45.0221920  90.5731010  21.9086660  47.1552900  89.2888240  19.8485300
  47.0941300  88.3449460  19.7016320  47.9344930  89.3968330  20.3938760
  31.4605650 105.4280600  18.8109250  31.2927690 104.7951280  19.5091140
  30.5940160 105.6340000  18.4603440  32.0833670  89.2597380  16.3141110
  32.8413030  89.3726260  15.7405140  31.6210840  90.0966580  16.2684540
  38.6247480  91.3736650  19.3043420  37.8121990  90.9993540  18.9639300
  39.1289120  90.6181730  19.6064610  43.1272460  88.0379100  20.5426490
  43.7301830  88.6099310  21.0175010  42.3865450  88.6018540  20.3200390
  46.2707060  88.4400660  15.8166770  46.4657690  89.3384110  16.0834200
  45.4836930  88.2087740  16.3099720  33.0668350 104.1213830  16.2559390
  32.5415970 104.5021860  15.5521350  32.9912930 104.7464600  16.9769100
  34.4558820  89.7861430  14.8543080  34.9851580  88.9991230  14.7251030
  35.0887140  90.4652620  15.0878610  36.6496660  89.5236570  17.9088470
  36.0199400  88.8223880  18.0758600  36.1101800  90.2840700  17.6921630
  47.8233670 105.6801370  17.5773330  47.9985860 104.9939110  16.9334250
  47.1255240 106.2048420  17.1850000  36.7752220  88.8020550  30.3440960
  36.4936490  89.3054150  29.5801780  37.1571920  88.0042300  29.9783090
  35.6661320 106.0696210  15.1308640  36.3980140 105.7855490  14.5832530
  35.9254990 105.8309490  16.0208020  34.8276110 102.1860940  15.1354970
  34.1984990 102.6546040  15.6840800  34.9423940 101.3410160  15.5701160
  43.3767680  88.2174130  30.9221430  43.2633130  88.5368740  31.8172950
  44.1937420  88.6186640  30.6258710  40.4143870  98.0145620   3.1665440
  39.6385970  97.5346060   3.4564010  41.0656800  97.3351270   2.9921600
  34.4309700  98.3265430   4.0441200  33.5994580  98.0714140   4.4437710
  35.0390680  98.3976200   4.7799120  44.4351300 102.4205810   1.9464570
  43.9732830 101.6493050   2.2751740  45.2476850 102.4471880   2.4517020
  34.4110960 102.3605520   4.2399220  34.7139000 101.4703260   4.0609440
  35.1554550 102.9175740   4.0121470  30.8034660  95.8872970   3.7123290
  31.3750770  95.1195170   3.7126930  30.8036200  96.1861730   2.8029900
  39.8552860 100.6902810   3.1735600  39.7861140  99.7492750   3.0124730
  40.6172720 100.7804220   3.7458170  32.0459530  91.2957330   5.4992220
  31.8662370  90.3983080   5.7794980  31.6439610  91.8429200   6.1739170
  40.8858030  93.4973190   3.4004530  41.2622850  92.6245070   3.2878200
  40.7877540  93.8331890   2.5094970  32.6646200  93.7917830   4.1074560
  33.3456310  94.0556200   4.7261960  32.3494250  92.9518700   4.4412570
  36.8570770  94.8385190   3.1947150  37.3648990  95.3366160   3.8352170
  37.3884010  94.0620390   3.0186510  48.9581700  93.0090380   6.8976500
  48.2533870  93.3972090   6.3791610  49.2239620  93.7040670   7.4997430
  35.1406870  89.4783750   7.4610570  35.1425310  89.9956140   6.6556470
  34.3111180  89.0013930   7.4380500  36.3909720  99.1178930   5.6384070
  36.0579100  99.7447850   6.2805140  36.5676400  99.6440810   4.8585740
  44.9043630  92.9324010   3.1060410  44.1999200  93.2208900   3.6863520
  45.2655790  93.7424120   2.7459970  34.8222200  91.1893710   5.4681020
  35.1639010  92.0335760   5.1734890  33.8838010  91.3377450   5.5846360
  35.6028820 101.0859730   7.4533250  36.2202820 101.7610810   7.1717700
  34.7421940 101.4947710   7.3620750  46.5206410 102.5499140   5.3687890
  45.8369930 103.2198250   5.3604560  47.0600700 102.7479790   4.6032750
  47.9730550  92.3778800   3.4969620  47.0255460  92.4117780   3.6285050
  48.2980540  93.1917750   3.8818980  44.0565150 104.3943270   4.0833070
  44.0692310 103.9905560   3.2155330  43.5040370 105.1690560   3.9794500
  43.4550590  99.2973110   5.4115680  43.8719380  99.0833220   4.5769140
  44.1790410  99.5545900   5.9824300  47.4012690  97.6960330   5.5031920
  46.5731320  97.7653420   5.0282050  47.9963170  98.2814640   5.0347750
  44.3654700  94.4829650   6.4486790  43.9525880  95.3083360   6.7026780
  43.6330650  93.8974690   6.2563150  36.9669190 100.9557110   3.4744670
  36.6697480 100.3502580   2.7952450  37.9169010 100.9934420   3.3634030
  35.2116110  94.0432760   5.0904500  35.7630700  94.1528100   4.3157750
  35.7259620  94.4170360   5.8059730  45.0554800 104.5288980   7.1367770
  44.5785360 105.3361170   6.9440380  44.3716590 103.8767310   7.2893980
  36.0587620 100.6938800  10.1252470  35.1616150 100.9178770  10.3725870
  36.0840490 100.8173740   9.1763870  34.8858840  97.5652120   8.7009840
  34.7466610  98.4374920   9.0697240  34.0040200  97.2224930   8.5557780
  36.6839190 103.5073820  10.9094990  36.6554620 103.9116770  10.0423420
  36.5204160 102.5784180  10.7466590  48.6354010 104.2900920  12.2059160
  49.1113730 104.7683810  12.8848240  49.2561170 104.2218410  11.4804660
  30.8377490  99.3349670   4.6180750  30.9157910  99.4698440   3.6736470
  31.4519170  98.6265560   4.8108870  48.0387260 101.4813770   9.3659170
  48.1650320 101.2425650   8.4476350  48.0808640 100.6498310   9.8381250
  41.9004000 105.1841770   7.9353980  42.4148670 105.0949780   8.7376410
  41.0573080 105.5301470   8.2281890  47.8911270  93.5346230  10.3308910
  47.2755540  94.0425900   9.8024370  47.5707690  92.6344560  10.2734850
  30.8937010 100.3763840   7.1575210  31.0568050  99.9069200   6.3394580
  31.3589460  99.8687400   7.8224050  35.6655780  89.5069600   2.1935780
  35.2223930  90.2879140   1.8620300  36.2240770  89.8299490   2.9006720
  39.9525590  92.3738120   7.7971100  39.4904960  92.5821140   8.6091040
  39.5503700  91.5597470   7.4941770  44.9530100  93.5947070   8.9267760
  44.1023690  93.2952820   9.2476830  44.7931890  93.8389080   8.0151580
  42.0479810  95.0948820  11.0266550  42.3733220  94.2612570  10.6868780
  42.8360140  95.6177340  11.1744880  37.7031680  90.0516930   4.0525380
  38.0004010  90.9579760   3.9717400  38.2517240  89.5635710   3.4384950
  37.8969210  95.5288750  10.5877300  37.8012810  94.5883480  10.4377700
  38.7401190  95.7503820  10.1925370  33.0279750  91.9402420   8.7411080
  32.6343140  92.7877630   8.9483860  32.3398150  91.3028790   8.9319720
  39.6024800  92.0237390  11.8107820  38.9123120  91.8309590  12.4453910
  40.3457100  92.3072030  12.3432120  30.3296800  89.8630880   2.7741160
  30.0409850  90.4333740   3.4866140  31.0742560  89.3835330   3.1372390
  41.8787770  95.8635830   4.6461740  41.1468890  96.3722640   4.9951840
  41.4812110  95.0465810   4.3450520  38.3165160  92.5390030   3.0514230
  38.3201220  92.0979980   2.2018770  39.2116280  92.8607360   3.1586050
  34.1667540  92.4216520   2.0108440  33.8267590  92.8991750   2.7675490
  33.4044860  91.9681640   1.6509540  42.3413680  91.3169510   4.0584680
  42.3586420  91.7678160   4.9026530  42.0929260  90.4175150   4.2718120
  45.7684430  88.7301690   9.8971060  46.0930200  87.9991350  10.4229040
  45.8040940  88.4115330   8.9952050  32.4675990  99.7515270   9.3171020
  32.0830780  99.1108940   9.9153980  32.7788180 100.4551390   9.8865750
  38.6173130  96.5991810   4.7979640  38.9843260  96.1250380   5.5440980
  38.4278190  97.4733380   5.1387980  36.4072500  95.6400450   7.1163850
  36.1029570  96.5192430   7.3414210  37.3618960  95.7000240   7.1521290
  45.6942270  98.8426800   3.5057090  46.4141390  99.3382090   3.1153200
  45.4924090  98.1644690   2.8610960  41.0761070  98.9135860   9.3926090
  41.0098380  97.9931530   9.1383680  40.4466210  99.0111300  10.1070730
  32.4636230  96.4803190   8.2635210  32.1051170  97.1457040   8.8508550
  32.1690790  95.6486740   8.6347830  35.6649350  96.9387430  11.1474760
  35.3649490  97.0844610  10.2502580  36.4360590  96.3792720  11.0548150
  41.0077800 101.7356430   9.1429890  41.0222340 100.8037390   8.9248800
  40.3002900 101.8216190   9.7819660  47.2189010  98.3763770   8.4898470
  46.4937200  98.9692550   8.2927860  47.7464470  98.3687310   7.6911840
  40.4411700 103.3774000   6.2370390  41.0853920 103.5833380   6.9143810
  40.8041140 102.6162400   5.7841240  41.7143780 101.3806350   4.9547840
  42.3566010 100.6799510   5.0680010  42.2393130 102.1604790   4.7744730
  43.4881400 102.1801250   8.1583900  43.8237640 102.7667940   8.8361820
  42.5681740 102.0493960   8.3881690  31.0384800  89.9696430   8.9407310
  30.3243320  90.1693350   9.5459920  31.4579840  89.1936000   9.3122110
  31.3257390 103.9576690   9.9273840  31.4348510 103.0171430   9.7869230
  30.6737950 104.2231440   9.2787570  39.3169980 102.2292580  11.3271960
  38.9966850 101.5101820  11.8717650  38.6428340 102.9047650  11.4008020
  42.5323580  92.4618740   6.6908760  42.9004400  91.6413950   7.0188330
  41.6721780  92.5220630   7.1064410  39.4925570  95.1158330   6.9146730
  39.9910820  95.5904150   7.5798580  39.6348520  94.1921850   7.1216760
  46.6992430  91.3326290   7.7575120  46.1966030  92.0731690   8.0968930
  47.5149090  91.7210290   7.4411910  46.9940020 103.7468320   2.8790740
  47.1187440 104.5699490   3.3514550  47.8605580 103.5359050   2.5314890
  34.4657550 105.8399530   2.5507870  35.2020030 105.2914990   2.8216440
  34.8498470 106.7055540   2.4113860  33.4715830 105.0245600  11.7393450
  34.2728560 105.3457650  12.1528850  32.9567650 104.6641180  12.4613360
  42.3080460 101.1325470  11.6868860  41.7018620 101.1557070  10.9464610
  42.0034570 100.4008510  12.2236110  43.7380830 104.8605760  10.2978270
  44.6902580 104.7763780  10.2478510  43.5909050 105.5247470  10.9712060
  31.1913640  97.5119060  10.6829500  31.6952660  96.9326340  11.2545730
  30.4521060  97.7959290  11.2205870  38.2451580  98.9190050  10.2165020
  37.4797250  99.4875050  10.1319690  38.4267540  98.6266260   9.3233250
  45.3874930 100.6495380  10.7740040  46.1284400 100.9871140  10.2707500
  44.6247610 100.8187440  10.2209810  33.2236720  95.6548650  11.5779570
  33.2642060  95.3562520  12.4864800  34.0782220  96.0556260  11.4187090
  35.1642530  94.2340750   9.5454060  34.6338990  93.7431700   8.9177400
  35.8330600  94.6624950   9.0111990  44.0620590  98.7010210   9.3095250
  44.4761610  98.8555290  10.1585670  43.1271590  98.8265430   9.4721030
  44.5342760  96.0406370  11.3134400  45.1163530  95.2858690  11.2254880
  44.7104530  96.5713810  10.5365880  35.6514830  91.2003120   9.6251350
  35.5571700  90.5823870   8.9002220  35.0712220  91.9269410   9.3981260
  38.4176270  89.7576360   6.6578740  37.9693570  89.7800620   5.8124290
  37.7841470  89.3595380   7.2549040  38.8235820  98.6530690   7.2791180
  39.2423930  99.4963420   7.1067420  37.9044450  98.7902730   7.0497960
  41.1599720  96.3846870   8.6629020  41.2795930  95.7888010   9.4023860
  42.0193720  96.4216560   8.2430320  43.4987620  96.9384060   7.2391530
  42.9722840  97.4626680   6.6356670  43.8418960  97.5711450   7.8701260
  36.6743240 104.9583700   8.3948910  36.1364330 105.6829760   8.0757610
  36.9277200 104.4814040   7.6046250  37.9268490  92.9268220   9.9204840
  38.5168180  92.6184070  10.6082660  37.1088730  92.4547970  10.0764740
  42.7461920  92.5434030  10.1537860  42.0577440  91.8815570  10.0887850
  43.4667940  92.0972300  10.5986320  39.5305450 106.1934910   8.6535560
  39.4564150 107.0970050   8.9607930  38.6284290 105.8746810   8.6257630
  30.9332740 103.5209500   1.9569180  31.2635750 102.6530560   1.7247820
  31.3623740 103.7268020   2.7874140  31.4222950 104.3880090   4.6950810
  30.9853940 104.5680890   5.5274960  31.9900630 105.1454710   4.5532530
  47.0585130 103.8897090   8.9828120  46.4587120 103.9489650   8.2392040
  47.1879030 102.9502070   9.1124970  45.7436770 100.6149070   7.0804280
  44.9296610 101.0446230   7.3430070  46.1510970 101.2267480   6.4673330
  32.2923310  97.2852890   5.5943030  32.6596350  97.1980290   6.4739050
  31.7234130  96.5219440   5.4949890  47.0927170  95.7537270   8.6073500
  46.8613260  95.5250020   7.7071450  47.3531720  96.6736820   8.5618390
  31.8439310  94.1961980   9.5001450  30.9495360  94.1628740   9.8395160
  32.3836860  94.3948770  10.2652700  45.5315240  90.9793700  11.3853200
  46.4085420  90.9877100  11.7687200  45.5436080  90.2424540  10.7745550
  46.9778510  94.8323240   2.2741220  47.5015990  94.3385890   1.6431390
  47.5637930  94.9673600   3.0188790  47.1568230  94.9163110   5.7960770
  46.2070940  94.8826650   5.9105760  47.3381240  95.8263220   5.5610540
  32.3479020  88.4710310   3.8484670  32.9955210  87.9207690   3.4079830
  32.7680860  88.7253460   4.6700480  46.2431360  88.6651670   7.2054310
  46.8803580  89.2785810   7.5713500  46.3906250  88.7012330   6.2603540
  32.1011020  88.6265980   6.5909990  31.7525840  89.0829800   7.3568170
  31.7698720  87.7323110   6.6732420  33.7075390 101.7985580  10.7563180
  33.6645020 101.4278490  11.6377640  33.8386400 102.7363150  10.8965000
  37.4081420 103.3545170   6.3572900  37.1672780 103.6219730   5.4703420
  38.3484060 103.5250900   6.4123760  39.6135840  89.8177860  10.1129410
  39.5524730  90.4099690  10.8624820  40.5536220  89.7103820   9.9679670
  42.2510400  89.4747920   9.7521700  42.8650810  89.7927210   9.0902780
  42.7959960  88.9896510  10.3717560  48.6685580 105.3739550   7.1583540
  48.1743860 105.7708420   6.4410670  48.0598870 104.7488760   7.5520820
  32.7731660  88.1542180   9.8660760  33.3214650  87.9730230   9.1026870
  32.8386970  87.3636290  10.4017070  33.5463420 104.7447830   7.8760960
  32.9523740 104.6132530   8.6151000  33.5387260 103.9085970   7.4103060
  42.9918440  88.0380060   6.0790990  42.1178280  88.3715170   5.8763920
  42.8829190  87.5653240   6.9042860  43.8990420  90.2450930   7.4632710
  43.5703780  89.4302690   7.0834440  44.8472720  90.2020740   7.3398400
  46.3525030 106.0162970   4.4370280  45.8928000 106.7678780   4.0628300
  45.7237490 105.2969440   4.3785080  33.1775650 102.1106210   6.8269000
  32.4509710 101.4911500   6.7594950  33.2384800 102.5046820   5.9567080
  36.7820750 104.3251210   3.6118410  37.2985770 103.7138570   3.0866670
  37.4318130 104.8279990   4.1029420  39.5216250 105.2159700   4.4387390
  39.8094060 104.9614000   3.5620400  40.0339470 104.6637060   5.0292960
  40.7393260  88.9549900   5.0183900  39.9565050  89.4295400   5.2980660
  40.4456190  88.0504730   4.9097080  45.2914330  89.6573000   3.0632990
  45.7322420  89.6018100   2.2154590  45.0221920  90.5731010   3.1343170
  43.1272460  88.0379100   1.7683000  43.7301830  88.6099310   2.2431520
  42.3865450  88.6018540   1.5456900  39.5888610 106.1375800  11.8055590
  40.5155920 105.9020070  11.8491550  39.5739040 106.9647800  11.3241620
  36.7752220  88.8020550  11.5697470  36.4936490  89.3054150  10.8058290
  37.1571920  88.0042300  11.2039600  43.3767680  88.2174130  12.1477940
  43.2633130  88.5368740  13.0429460  44.1937420  88.6186640  11.8515220
  46.1566170 105.3645660  11.6296630  46.9491490 104.8694890  11.4222590
  46.4499320 106.0435800  12.2372240  42.2825830  77.4623110 151.4804090
  42.2019880  76.5477720 151.2095800  41.8690250  77.9590180 150.7743800
  40.4143870  79.2402130 153.3613360  39.6385970  78.7602570 153.6511930
  41.0656800  78.5607780 153.1869520  44.4351300  83.6462320 152.1412490
  43.9732830  82.8749560 152.4699660  45.2476850  83.6728390 152.6464940
  34.4110960  83.5862030 154.4347140  34.7139000  82.6959770 154.2557360
  35.1554550  84.1432250 154.2069390  32.8401650  74.5123830 148.0231510
  31.9518350  74.8539800 147.9211390  33.1242840  74.3124150 147.1312340
  30.8034660  77.1129480 153.9071210  31.3750770  76.3451680 153.9074850
  30.8036200  77.4118240 152.9977820  40.6614610  85.9320330 151.7616480
  40.0426050  86.3877830 151.1910920  41.5166390  86.0871790 151.3606180
  39.8552860  81.9159320 153.3683520  39.7861140  80.9749260 153.2072650
  40.6172720  82.0060730 153.9406090  40.8858030  74.7229700 153.5952450
  41.2622850  73.8501580 153.4826120  40.7877540  75.0588400 152.7042890
  35.0163040  73.0955330 149.0569890  35.1229790  73.9959060 149.3638650
  34.1055400  73.0473300 148.7664540  44.6682150  72.2180140 150.5280790
  45.4891770  71.7276710 150.5706270  44.7016230  72.8077800 151.2812630
  36.8570770  76.0641700 153.3895070  37.3648990  76.5622670 154.0300090
  37.3884010  75.2876900 153.2134430  41.5277960  80.8159570 149.1548390
  40.9095230  81.2809020 148.5911110  42.0401210  81.5087050 149.5717900
  44.9043630  74.1580520 153.3008330  44.1999200  74.4465410 153.8811440
  45.2655790  74.9680630 152.9407890  30.8961160  81.5016100 146.5288020
  30.5189140  81.9903200 145.7972920  31.1534230  82.1741380 147.1594550
  47.9730550  73.6035310 153.6917540  47.0255460  73.6374290 153.8232970
  48.2980540  74.4174260 154.0766900  38.5050090  69.9032490 151.9873530
  38.8125070  69.3479380 151.2709030  37.5750790  70.0376950 151.8046520
  44.0565150  85.6199780 154.2780990  44.0692310  85.2162070 153.4103250
  43.5040370  86.3947070 154.1742420  45.3510570  82.3416000 149.3671160
  45.2406900  81.3990330 149.4920580  45.3478820  82.7031640 150.2533920
  40.8930850  77.9681320 148.7233650  39.9660130  77.9018700 148.9522120
  41.0455670  78.9061450 148.6088890  40.8799930  74.2398320 145.7200810
  39.9403600  74.4012280 145.8053270  41.1983190  74.9584000 145.1736800
  44.9228140  79.5301620 149.2268900  44.3040560  79.1921170 148.5795200
  44.9052590  78.8861380 149.9348090  36.4987490  78.4946060 151.5053380
  36.0944490  77.7823310 151.0099280  36.5850610  78.1499300 152.3941420
  36.9669190  82.1813620 153.6692590  36.6697480  81.5759090 152.9900370
  37.9169010  82.2190930 153.5581950  43.0992840  78.7688430 146.2341650
  43.5386120  77.9310860 146.0879470  43.8121260  79.4017830 146.3205790
  41.2088220  83.7084500 150.2022890  41.6484130  84.4508830 149.7878280
  41.1475110  83.9511070 151.1261850  46.6809980  70.0231240 144.5482690
  46.3682640  70.1158070 145.4481760  47.4422450  70.6012270 144.4980120
  33.1992120  77.3891040 149.0060030  33.0789720  78.1153130 148.3941300
  32.8893010  76.6193950 148.5287940  32.0825120  82.2606370 151.2234850
  31.6753200  82.4020960 150.3688450  32.9738130  81.9766530 151.0206060
  43.8758400  86.6953620 147.5585900  43.7159540  86.4056560 148.4567730
  43.7105110  85.9193750 147.0231130  36.3546780  86.4752150 149.3357520
  36.1789260  85.5587690 149.1225320  35.5002520  86.8339440 149.5755320
  43.5784530  84.2041180 146.1183900  42.8849690  84.2018470 145.4586180
  44.3207390  83.7800500 145.6878070  43.1434460  85.8303890 150.1932390
  43.5991410  85.0493270 150.5071010  43.4826980  86.5410710 150.7373570
  35.6655780  70.7326110 152.3883700  35.2223930  71.5135650 152.0568220
  36.2240770  71.0556000 153.0954640  38.7814600  70.3536810 147.2689530
  38.1568780  70.3496680 147.9942840  38.6944720  69.4867770 146.8725500
  37.7031680  71.2773440 154.2473300  38.0004010  72.1836270 154.1665320
  38.2517240  70.7892220 153.6332870  35.4570000  75.8559680 150.1164950
  35.2310920  75.6396850 151.0211570  34.6762530  76.2888140 149.7710920
  42.6867760  75.8623050 148.7155600  42.0876650  76.5858850 148.5319220
  43.2347370  75.7999830 147.9332050  41.2932630  74.4986590 150.7458880
  41.6862200  74.8158790 149.9327570  41.6549480  73.6198470 150.8603400
  30.3296800  71.0887390 152.9689080  30.0409850  71.6590250 153.6814060
  31.0742560  70.6091840 153.3320310  30.5167030  75.0307510 144.1791800
  30.4341700  75.9738270 144.3206790  30.1650090  74.8882420 143.3004150
  38.3165160  73.7646540 153.2462150  38.3201220  73.3236490 152.3966690
  39.2116280  74.0863870 153.3533970  34.1667540  73.6473030 152.2056360
  33.8267590  74.1248260 152.9623410  33.4044860  73.1938150 151.8457460
  38.3785310  74.7658620 146.2368910  38.4998130  74.7245100 147.1854730
  37.9933820  75.6282770 146.0815640  37.3906810  77.0759760 145.6352210
  36.8223710  76.6278010 145.0088120  38.0995810  77.4352540 145.1017360
  31.4813620  72.5692010 151.1221030  31.1960540  72.2047680 151.9599650
  31.4192480  71.8372470 150.5084170  34.9354290  81.0717950 147.9078620
  34.1616550  80.5315570 147.7477340  35.6648920  80.5524560 147.5696380
  45.6942270  80.0683310 153.7005010  46.4141390  80.5638600 153.3101120
  45.4924090  79.3901200 153.0558880  41.1552210  71.4621270 147.8434400
  40.3416820  70.9634440 147.7679710  40.9614160  72.3019520 147.4270750
  43.8700600  75.8340920 146.1396560  44.7580220  76.1458150 145.9647900
  43.8405690  74.9613170 145.7477140  34.9791690  80.7398330 151.5457430
  35.4970360  79.9366590 151.4914320  34.5275710  80.6777470 152.3874260
  39.8661190  82.0064610 146.8184730  40.2076890  82.7506840 146.3228050
  39.0373900  82.3195730 147.1809560  46.1414870  77.1452760 145.6076420
  46.0578590  77.5766980 144.7572860  46.8609060  77.6051110 146.0403240
  47.1702120  83.9995020 148.3358550  46.5278280  83.3450640 148.6102270
  46.7832780  84.4050110 147.5599220  42.7488600  81.3280450 152.1830240
  43.1012420  80.7308580 151.5231610  41.8650930  81.0024680 152.3538490
  38.8351880  82.0878140 149.5900650  39.5223010  82.6347350 149.9708240
  38.0484300  82.6318870 149.6250260  30.9744280  77.7050960 145.0817730
  31.8439130  77.9875760 145.3653650  30.4834600  78.5186830 144.9666540
  38.1379090  79.0924170 149.2026010  38.5941870  79.9029420 149.4286200
  37.7867300  78.7747310 150.0344500  34.0390870  69.4361820 149.6748530
  33.9105500  69.4279720 150.6233450  33.2152890  69.7744910 149.3239540
  45.5599500  82.8911480 144.8734900  45.3337080  82.1741920 145.4659540
  45.1695700  82.6423920 144.0356650  31.3415530  86.9178340 145.6479360
  31.7013170  87.5167680 144.9936630  31.2007870  87.4638230 146.4214390
  45.1415750  80.8083420 146.5349060  44.8537450  81.2696110 147.3226940
  45.9367920  80.3481190 146.8033280  37.3584150  84.3009540 146.4653030
  37.3494250  85.0339230 145.8497540  36.4382510  84.0541120 146.5579990
  32.9590790  79.5224430 147.2099790  32.3518740  80.2623330 147.2195090
  33.4340140  79.6123790 146.3837990  45.8985610  72.6432190 147.6944240
  45.2698770  72.7477860 146.9802470  45.4037530  72.8628970 148.4838120
  40.3443750  84.3637780 145.1278220  40.4455730  84.1601770 144.1980200
  39.4445490  84.1096060 145.3326000  37.8669640  74.9218140 149.1102120
  37.1585790  75.3904480 149.5515730  38.1514120  74.2640150 149.7447310
  41.8985070  71.6468800 150.5497910  41.7752850  71.6654930 149.6007420
  42.8469630  71.6947740 150.6696310  38.9861860  86.8824100 149.8225890
  39.2403360  86.8445490 148.9005260  38.0374340  86.7557430 149.8154140
  36.0704660  73.2303220 146.4852830  36.9195190  73.6673370 146.4193020
  35.7035930  73.5423480 147.3124890  44.9914440  77.8015980 151.3984400
  44.0504580  77.8166210 151.5732090  45.3058510  77.0151940 151.8444700
  34.9696080  79.4835580 144.9588360  35.7359350  79.3716940 145.5213790
  35.0470770  78.7873550 144.3065130  33.6642840  76.9160650 145.6421250
  33.7446430  75.9688160 145.7538650  34.5562590  77.2467530 145.7481910
  46.9940020  84.9724830 153.0738660  47.1187440  85.7956000 153.5462470
  47.8605580  84.7615560 152.7262810  34.4657550  87.0656040 152.7455790
  35.2020030  86.5171500 153.0164360  34.8498470  87.9312050 152.6061780
  31.3503030  83.1329610 148.6197300  30.4242810  83.3750750 148.6102710
  31.8159460  83.9603870 148.4982050  37.5759860  86.2386350 144.5681360
  38.3688470  86.5275180 144.1163150  37.0564210  85.8078520 143.8893840
  46.6290030  85.4656480 145.9918100  46.3431540  85.0521620 145.1772280
  46.4309580  86.3944190 145.8718620  38.0937260  81.4589760 144.4323710
  37.9887900  80.8442110 145.1585090  37.9261480  80.9355650 143.6486720
  41.3339990  80.5209790 145.0365700  40.7850090  80.9679090 145.6808440
  41.9559250  80.0159040 145.5603370  37.0015110  79.4800710 146.9331000
  37.4231530  79.3140580 147.7762390  37.1265950  78.6700940 146.4386140
  39.5142750  78.5038320 144.1808100  40.0348410  77.7887340 143.8149250
  40.1611150  79.1424190 144.4808610  35.8974010  75.5533940 143.8789160
  35.6963070  74.6901300 144.2402500  35.7266060  75.4667300 142.9410760
  43.3762320  70.3642170 146.4076040  43.6564610  69.5210070 146.7635460
  42.6028050  70.5965280 146.9214790  34.6956810  72.6534560 143.8667040
  34.9982710  72.6601990 142.9586190  35.4351400  72.3032420 144.3634700
  37.9141740  71.5969180 144.8523240  37.5663740  70.9193170 144.2725690
  38.1154510  71.1358690 145.6666630  40.0790780  86.5849930 146.4709840
  40.9741570  86.9234900 146.4928600  40.1108410  85.8629340 145.8434120
  33.7186940  81.9576980 144.6996840  34.1561810  82.5006650 145.3554420
  34.2034670  81.1323930 144.7093180  30.9332740  84.7466010 152.1517100
  31.2635750  83.8787070 151.9195740  31.3623740  84.9524530 152.9822060
  35.5294660  83.0775020 149.8119070  35.2290200  82.9539990 150.7122980
  35.4232150  82.2183610 149.4034800  48.2986580  82.8571420 144.5145750
  47.4679540  82.9248070 144.9852980  48.4758410  83.7475540 144.2112610
  47.7543040  79.6018900 147.0179950  48.5161950  80.1715550 147.1239640
  47.7697410  79.0346100 147.7888260  31.2547380  78.1256830 151.2487610
  30.5996220  77.8568470 150.6047310  32.0925330  78.0161310 150.7989590
  48.7603010  80.4569000 151.8621880  49.1311840  79.6736320 151.4557850
  49.4004940  81.1458100 151.6839180  47.8062210  79.8953270 144.1752470
  48.0811050  80.8032150 144.0471690  47.6172950  79.8315800 145.1114460
  44.2037820  72.9198120 145.4706100  44.6222700  72.7329100 144.6302760
  43.8973880  72.0677170 145.7809030  47.7027550  77.8322260 149.1681900
  47.3271150  77.0650190 148.7363190  46.9730670  78.2144960 149.6556830
  30.4685460  75.3355760 147.1912940  29.5649540  75.5985960 147.0164600
  30.9526080  75.6066930 146.4112900  46.9778510  76.0579750 152.4689140
  47.5015990  75.5642400 151.8379310  47.5637930  76.1930110 153.2136710
  33.0112670  74.3921300 145.1007320  33.7204370  73.9704520 144.6154600
  32.2952610  74.4596530 144.4690670  32.6586830  70.4460630 144.1409970
  33.3814960  70.9869570 144.4591190  32.9311350  70.1724050 143.2651510
  46.4678480  75.3153100 148.4081550  46.9637600  75.0823970 149.1930430
  46.2694550  74.4764940 147.9919190  47.8965640  73.9514050 150.9419230
  47.7864920  73.7970090 151.8801500  48.6573230  73.4234990 150.6994640
  48.7855910  71.7821970 144.1825370  49.7105220  71.6503150 143.9743660
  48.7631700  71.8614790 145.1361820  48.8594400  72.5532630 146.8082080
  48.0645900  72.4877750 147.3374990  49.0637680  73.4883270 146.7967430
  45.8012820  86.5924180 150.8020470  46.3971890  86.2708750 150.1254890
  46.0590970  86.1196000 151.5933740  36.7820750  85.5507720 153.8066330
  37.2985770  84.9395080 153.2814590  37.4318130  86.0536500 154.2977340
  45.2914330  70.8829510 153.2580910  45.7322420  70.8274610 152.4102510
  45.0221920  71.7987520 153.3291090  47.1552900  70.5144750 151.2689730
  47.0941300  69.5705970 151.1220750  47.9344930  70.6224840 151.8143190
  31.4605650  86.6537110 150.2313680  31.2927690  86.0207790 150.9295570
  30.5940160  86.8596510 149.8807870  32.0833670  70.4853890 147.7345540
  32.8413030  70.5982770 147.1609570  31.6210840  71.3223090 147.6888970
  38.6247480  72.5993160 150.7247850  37.8121990  72.2250050 150.3843730
  39.1289120  71.8438240 151.0269040  43.1272460  69.2635610 151.9630920
  43.7301830  69.8355820 152.4379440  42.3865450  69.8275050 151.7404820
  46.2707060  69.6657170 147.2371200  46.4657690  70.5640620 147.5038630
  45.4836930  69.4344250 147.7304150  33.0668350  85.3470340 147.6763820
  32.5415970  85.7278370 146.9725780  32.9912930  85.9721110 148.3973530
  34.4558820  71.0117940 146.2747510  34.9851580  70.2247740 146.1455460
  35.0887140  71.6909130 146.5083040  36.6496660  70.7493080 149.3292900
  36.0199400  70.0480390 149.4963030  36.1101800  71.5097210 149.1126060
  47.8233670  86.9057880 148.9977760  47.9985860  86.2195620 148.3538680
  47.1255240  87.4304930 148.6054430  35.6661320  87.2952720 146.5513070
  36.3980140  87.0112000 146.0036960  35.9254990  87.0566000 147.4412450
  34.8276110  83.4117450 146.5559400  34.1984990  83.8802550 147.1045230
  34.9423940  82.5666670 146.9905590  42.2825830  77.4623110 132.7060600
  42.2019880  76.5477720 132.4352310  41.8690250  77.9590180 132.0000310
  40.4143870  79.2402130 134.5869870  39.6385970  78.7602570 134.8768440
  41.0656800  78.5607780 134.4126030  34.4309700  79.5521940 135.4645630
  33.5994580  79.2970650 135.8642140  35.0390680  79.6232710 136.2003550
  34.4110960  83.5862030 135.6603650  34.7139000  82.6959770 135.4813870
  35.1554550  84.1432250 135.4325900  32.8401650  74.5123830 129.2488020
  31.9518350  74.8539800 129.1467900  33.1242840  74.3124150 128.3568850
  30.8034660  77.1129480 135.1327720  31.3750770  76.3451680 135.1331360
  30.8036200  77.4118240 134.2234330  40.6614610  85.9320330 132.9872990
  40.0426050  86.3877830 132.4167430  41.5166390  86.0871790 132.5862690
  39.8552860  81.9159320 134.5940030  39.7861140  80.9749260 134.4329160
  40.6172720  82.0060730 135.1662600  32.0459530  72.5213840 136.9196650
  31.8662370  71.6239590 137.1999410  31.6439610  73.0685710 137.5943600
  40.8858030  74.7229700 134.8208960  41.2622850  73.8501580 134.7082630
  40.7877540  75.0588400 133.9299400  35.0163040  73.0955330 130.2826400
  35.1229790  73.9959060 130.5895160  34.1055400  73.0473300 129.9921050
  44.6682150  72.2180140 131.7537300  45.4891770  71.7276710 131.7962780
  44.7016230  72.8077800 132.5069140  32.6646200  75.0174340 135.5278990
  33.3456310  75.2812710 136.1466390  32.3494250  74.1775210 135.8617000
  36.8570770  76.0641700 134.6151580  37.3648990  76.5622670 135.2556600
  37.3884010  75.2876900 134.4390940  48.9581700  74.2346890 138.3180930
  48.2533870  74.6228600 137.7996040  49.2239620  74.9297180 138.9201860
  35.1406870  70.7040260 138.8815000  35.1425310  71.2212650 138.0760900
  34.3111180  70.2270440 138.8584930  36.3909720  80.3435440 137.0588500
  36.0579100  80.9704360 137.7009570  36.5676400  80.8697320 136.2790170
  44.9043630  74.1580520 134.5264840  44.1999200  74.4465410 135.1067950
  45.2655790  74.9680630 134.1664400  34.8222200  72.4150220 136.8885450
  35.1639010  73.2592270 136.5939320  33.8838010  72.5633960 137.0050790
  35.6028820  82.3116240 138.8737680  36.2202820  82.9867320 138.5922130
  34.7421940  82.7204220 138.7825180  30.8961160  81.5016100 127.7544530
  30.5189140  81.9903200 127.0229430  31.1534230  82.1741380 128.3851060
  46.5206410  83.7755650 136.7892320  45.8369930  84.4454760 136.7808990
  47.0600700  83.9736300 136.0237180  38.5050090  69.9032490 133.2130040
  38.8125070  69.3479380 132.4965540  37.5750790  70.0376950 133.0303030
  44.0565150  85.6199780 135.5037500  44.0692310  85.2162070 134.6359760
  43.5040370  86.3947070 135.3998930  43.4550590  80.5229620 136.8320110
  43.8719380  80.3089730 135.9973570  44.1790410  80.7802410 137.4028730
  40.8930850  77.9681320 129.9490160  39.9660130  77.9018700 130.1778630
  41.0455670  78.9061450 129.8345400  47.4012690  78.9216840 136.9236350
  46.5731320  78.9909930 136.4486480  47.9963170  79.5071150 136.4552180
  44.3654700  75.7086160 137.8691220  43.9525880  76.5339870 138.1231210
  43.6330650  75.1231200 137.6767580  36.4987490  78.4946060 132.7309890
  36.0944490  77.7823310 132.2355790  36.5850610  78.1499300 133.6197930
  36.9669190  82.1813620 134.8949100  36.6697480  81.5759090 134.2156880
  37.9169010  82.2190930 134.7838460  35.2116110  75.2689270 136.5108930
  35.7630700  75.3784610 135.7362180  35.7259620  75.6426870 137.2264160
  45.0554800  85.7545490 138.5572200  44.5785360  86.5617680 138.3644810
  44.3716590  85.1023820 138.7098410  36.0587620  81.9195310 141.5456900
  35.1616150  82.1435280 141.7930300  36.0840490  82.0430250 140.5968300
  34.8858840  78.7908630 140.1214270  34.7466610  79.6631430 140.4901670
  34.0040200  78.4481440 139.9762210  36.6839190  84.7330330 142.3299420
  36.6554620  85.1373280 141.4627850  36.5204160  83.8040690 142.1671020
  33.1992120  77.3891040 130.2316540  33.0789720  78.1153130 129.6197810
  32.8893010  76.6193950 129.7544450  48.6354010  85.5157430 143.6263590
  49.1113730  85.9940320 144.3052670  49.2561170  85.4474920 142.9009090
  30.8377490  80.5606180 136.0385180  30.9157910  80.6954950 135.0940900
  31.4519170  79.8522070 136.2313300  32.0825120  82.2606370 132.4491360
  31.6753200  82.4020960 131.5944960  32.9738130  81.9766530 132.2462570
  48.0387260  82.7070280 140.7863600  48.1650320  82.4682160 139.8680780
  48.0808640  81.8754820 141.2585680  41.9004000  86.4098280 139.3558410
  42.4148670  86.3206290 140.1580840  41.0573080  86.7557980 139.6486320
  36.3546780  86.4752150 130.5614030  36.1789260  85.5587690 130.3481830
  35.5002520  86.8339440 130.8011830  43.1434460  85.8303890 131.4188900
  43.5991410  85.0493270 131.7327520  43.4826980  86.5410710 131.9630080
  47.8911270  74.7602740 141.7513340  47.2755540  75.2682410 141.2228800
  47.5707690  73.8601070 141.6939280  30.8937010  81.6020350 138.5779640
  31.0568050  81.1325710 137.7599010  31.3589460  81.0943910 139.2428480
  35.6655780  70.7326110 133.6140210  35.2223930  71.5135650 133.2824730
  36.2240770  71.0556000 134.3211150  39.9525590  73.5994630 139.2175530
  39.4904960  73.8077650 140.0295470  39.5503700  72.7853980 138.9146200
  44.9530100  74.8203580 140.3472190  44.1023690  74.5209330 140.6681260
  44.7931890  75.0645590 139.4356010  42.0479810  76.3205330 142.4470980
  42.3733220  75.4869080 142.1073210  42.8360140  76.8433850 142.5949310
  38.7814600  70.3536810 128.4946040  38.1568780  70.3496680 129.2199350
  38.6944720  69.4867770 128.0982010  37.7031680  71.2773440 135.4729810
  38.0004010  72.1836270 135.3921830  38.2517240  70.7892220 134.8589380
  35.4570000  75.8559680 131.3421460  35.2310920  75.6396850 132.2468080
  34.6762530  76.2888140 130.9967430  42.6867760  75.8623050 129.9412110
  42.0876650  76.5858850 129.7575730  43.2347370  75.7999830 129.1588560
  37.8969210  76.7545260 142.0081730  37.8012810  75.8139990 141.8582130
  38.7401190  76.9760330 141.6129800  41.2932630  74.4986590 131.9715390
  41.6862200  74.8158790 131.1584080  41.6549480  73.6198470 132.0859910
  33.0279750  73.1658930 140.1615510  32.6343140  74.0134140 140.3688290
  32.3398150  72.5285300 140.3524150  39.6024800  73.2493900 143.2312250
  38.9123120  73.0566100 143.8658340  40.3457100  73.5328540 143.7636550
  30.3296800  71.0887390 134.1945590  30.0409850  71.6590250 134.9070570
  31.0742560  70.6091840 134.5576820  41.8787770  77.0892340 136.0666170
  41.1468890  77.5979150 136.4156270  41.4812110  76.2722320 135.7654950
  38.3165160  73.7646540 134.4718660  38.3201220  73.3236490 133.6223200
  39.2116280  74.0863870 134.5790480  34.1667540  73.6473030 133.4312870
  33.8267590  74.1248260 134.1879920  33.4044860  73.1938150 133.0713970
  42.3413680  72.5426020 135.4789110  42.3586420  72.9934670 136.3230960
  42.0929260  71.6431660 135.6922550  37.3906810  77.0759760 126.8608720
  36.8223710  76.6278010 126.2344630  38.0995810  77.4352540 126.3273870
  45.7684430  69.9558200 141.3175490  46.0930200  69.2247860 141.8433470
  45.8040940  69.6371840 140.4156480  32.4675990  80.9771780 140.7375450
  32.0830780  80.3365450 141.3358410  32.7788180  81.6807900 141.3070180
  38.6173130  77.8248320 136.2184070  38.9843260  77.3506890 136.9645410
  38.4278190  78.6989890 136.5592410  31.4813620  72.5692010 132.3477540
  31.1960540  72.2047680 133.1856160  31.4192480  71.8372470 131.7340680
  36.4072500  76.8656960 138.5368280  36.1029570  77.7448940 138.7618640
  37.3618960  76.9256750 138.5725720  34.9354290  81.0717950 129.1335130
  34.1616550  80.5315570 128.9733850  35.6648920  80.5524560 128.7952890
  45.6942270  80.0683310 134.9261520  46.4141390  80.5638600 134.5357630
  45.4924090  79.3901200 134.2815390  41.1552210  71.4621270 129.0690910
  40.3416820  70.9634440 128.9936220  40.9614160  72.3019520 128.6527260
  41.0761070  80.1392370 140.8130520  41.0098380  79.2188040 140.5588110
  40.4466210  80.2367810 141.5275160  34.9791690  80.7398330 132.7713940
  35.4970360  79.9366590 132.7170830  34.5275710  80.6777470 133.6130770
  32.4636230  77.7059700 139.6839640  32.1051170  78.3713550 140.2712980
  32.1690790  76.8743250 140.0552260  35.6649350  78.1643940 142.5679190
  35.3649490  78.3101120 141.6707010  36.4360590  77.6049230 142.4752580
  41.0077800  82.9612940 140.5634320  41.0222340  82.0293900 140.3453230
  40.3002900  83.0472700 141.2024090  47.2189010  79.6020280 139.9102900
  46.4937200  80.1949060 139.7132290  47.7464470  79.5943820 139.1116270
  42.7488600  81.3280450 133.4086750  43.1012420  80.7308580 132.7488120
  41.8650930  81.0024680 133.5795000  30.9744280  77.7050960 126.3074240
  31.8439130  77.9875760 126.5910160  30.4834600  78.5186830 126.1923050
  38.1379090  79.0924170 130.4282520  38.5941870  79.9029420 130.6542710
  37.7867300  78.7747310 131.2601010  40.4411700  84.6030510 137.6574820
  41.0853920  84.8089890 138.3348240  40.8041140  83.8418910 137.2045670
  34.0390870  69.4361820 130.9005040  33.9105500  69.4279720 131.8489960
  33.2152890  69.7744910 130.5496050  41.7143780  82.6062860 136.3752270
  42.3566010  81.9056020 136.4884440  42.2393130  83.3861300 136.1949160
  43.4881400  83.4057760 139.5788330  43.8237640  83.9924450 140.2566250
  42.5681740  83.2750470 139.8086120  31.3415530  86.9178340 126.8735870
  31.7013170  87.5167680 126.2193140  31.2007870  87.4638230 127.6470900
  31.0384800  71.1952940 140.3611740  30.3243320  71.3949860 140.9664350
  31.4579840  70.4192510 140.7326540  31.3257390  85.1833200 141.3478270
  31.4348510  84.2427940 141.2073660  30.6737950  85.4487950 140.6992000
  39.3169980  83.4549090 142.7476390  38.9966850  82.7358330 143.2922080
  38.6428340  84.1304160 142.8212450  32.9590790  79.5224430 128.4356300
  32.3518740  80.2623330 128.4451600  33.4340140  79.6123790 127.6094500
  42.5323580  73.6875250 138.1113190  42.9004400  72.8670460 138.4392760
  41.6721780  73.7477140 138.5268840  45.8985610  72.6432190 128.9200750
  45.2698770  72.7477860 128.2058980  45.4037530  72.8628970 129.7094630
  37.8669640  74.9218140 130.3358630  37.1585790  75.3904480 130.7772240
  38.1514120  74.2640150 130.9703820  39.4925570  76.3414840 138.3351160
  39.9910820  76.8160660 139.0003010  39.6348520  75.4178360 138.5421190
  41.8985070  71.6468800 131.7754420  41.7752850  71.6654930 130.8263930
  42.8469630  71.6947740 131.8952820  36.0704660  73.2303220 127.7109340
  36.9195190  73.6673370 127.6449530  35.7035930  73.5423480 128.5381400
  46.6992430  72.5582800 139.1779550  46.1966030  73.2988200 139.5173360
  47.5149090  72.9466800 138.8616340  44.9914440  77.8015980 132.6240910
  44.0504580  77.8166210 132.7988600  45.3058510  77.0151940 133.0701210
  34.9696080  79.4835580 126.1844870  35.7359350  79.3716940 126.7470300
  35.0470770  78.7873550 125.5321640  46.9940020  84.9724830 134.2995170
  47.1187440  85.7956000 134.7718980  47.8605580  84.7615560 133.9519320
  34.4657550  87.0656040 133.9712300  35.2020030  86.5171500 134.2420870
  34.8498470  87.9312050 133.8318290  31.3503030  83.1329610 129.8453810
  30.4242810  83.3750750 129.8359220  31.8159460  83.9603870 129.7238560
  33.4715830  86.2502110 143.1597880  34.2728560  86.5714160 143.5733280
  32.9567650  85.8897690 143.8817790  42.3080460  82.3581980 143.1073290
  41.7018620  82.3813580 142.3669040  42.0034570  81.6265020 143.6440540
  43.7380830  86.0862270 141.7182700  44.6902580  86.0020290 141.6682940
  43.5909050  86.7503980 142.3916490  31.1913640  78.7375570 142.1033930
  31.6952660  78.1582850 142.6750160  30.4521060  79.0215800 142.6410300
  38.2451580  80.1446560 141.6369450  37.4797250  80.7131560 141.5524120
  38.4267540  79.8522770 140.7437680  45.3874930  81.8751890 142.1944470
  46.1284400  82.2127650 141.6911930  44.6247610  82.0443950 141.6414240
  33.2236720  76.8805160 142.9984000  33.2642060  76.5819030 143.9069230
  34.0782220  77.2812770 142.8391520  37.0015110  79.4800710 128.1587510
  37.4231530  79.3140580 129.0018900  37.1265950  78.6700940 127.6642650
  35.1642530  75.4597260 140.9658490  34.6338990  74.9688210 140.3381830
  35.8330600  75.8881460 140.4316420  44.0620590  79.9266720 140.7299680
  44.4761610  80.0811800 141.5790100  43.1271590  80.0521940 140.8925460
  44.5342760  77.2662880 142.7338830  45.1163530  76.5115200 142.6459310
  44.7104530  77.7970320 141.9570310  35.6514830  72.4259630 141.0455780
  35.5571700  71.8080380 140.3206650  35.0712220  73.1525920 140.8185690
  38.4176270  70.9832870 138.0783170  37.9693570  71.0057130 137.2328720
  37.7841470  70.5851890 138.6753470  38.8235820  79.8787200 138.6995610
  39.2423930  80.7219930 138.5271850  37.9044450  80.0159240 138.4702390
  41.1599720  77.6103380 140.0833450  41.2795930  77.0144520 140.8228290
  42.0193720  77.6473070 139.6634750  43.4987620  78.1640570 138.6595960
  42.9722840  78.6883190 138.0561100  43.8418960  78.7967960 139.2905690
  36.6743240  86.1840210 139.8153340  36.1364330  86.9086270 139.4962040
  36.9277200  85.7070550 139.0250680  37.9268490  74.1524730 141.3409270
  38.5168180  73.8440580 142.0287090  37.1088730  73.6804480 141.4969170
  42.7461920  73.7690540 141.5742290  42.0577440  73.1072080 141.5092280
  43.4667940  73.3228810 142.0190750  39.5305450  87.4191420 140.0739990
  39.4564150  88.3226560 140.3812360  38.6284290  87.1003320 140.0462060
  33.7186940  81.9576980 125.9253350  34.1561810  82.5006650 126.5810930
  34.2034670  81.1323930 125.9349690  30.9332740  84.7466010 133.3773610
  31.2635750  83.8787070 133.1452250  31.3623740  84.9524530 134.2078570
  35.5294660  83.0775020 131.0375580  35.2290200  82.9539990 131.9379490
  35.4232150  82.2183610 130.6291310  31.4222950  85.6136600 136.1155240
  30.9853940  85.7937400 136.9479390  31.9900630  86.3711220 135.9736960
  47.0585130  85.1153600 140.4032550  46.4587120  85.1746160 139.6596470
  47.1879030  84.1758580 140.5329400  31.2547380  78.1256830 132.4744120
  30.5996220  77.8568470 131.8303820  32.0925330  78.0161310 132.0246100
  45.7436770  81.8405580 138.5008710  44.9296610  82.2702740 138.7634500
  46.1510970  82.4523990 137.8877760  32.2923310  78.5109400 137.0147460
  32.6596350  78.4236800 137.8943480  31.7234130  77.7475950 136.9154320
  47.0927170  76.9793780 140.0277930  46.8613260  76.7506530 139.1275880
  47.3531720  77.8993330 139.9822820  31.8439310  75.4218490 140.9205880
  30.9495360  75.3885250 141.2599590  32.3836860  75.6205280 141.6857130
  45.5315240  72.2050210 142.8057630  46.4085420  72.2133610 143.1891630
  45.5436080  71.4681050 142.1949980  30.4685460  75.3355760 128.4169450
  29.5649540  75.5985960 128.2421110  30.9526080  75.6066930 127.6369410
  46.9778510  76.0579750 133.6945650  47.5015990  75.5642400 133.0635820
  47.5637930  76.1930110 134.4393220  47.1568230  76.1419620 137.2165200
  46.2070940  76.1083160 137.3310190  47.3381240  77.0519730 136.9814970
  32.6586830  70.4460630 125.3666480  33.3814960  70.9869570 125.6847700
  32.9311350  70.1724050 124.4908020  32.3479020  69.6966820 135.2689100
  32.9955210  69.1464200 134.8284260  32.7680860  69.9509970 136.0904910
  46.2431360  69.8908180 138.6258740  46.8803580  70.5042320 138.9917930
  46.3906250  69.9268840 137.6807970  32.1011020  69.8522490 138.0114420
  31.7525840  70.3086310 138.7772600  31.7698720  68.9579620 138.0936850
  33.7075390  83.0242090 142.1767610  33.6645020  82.6535000 143.0582070
  33.8386400  83.9619660 142.3169430  37.4081420  84.5801680 137.7777330
  37.1672780  84.8476240 136.8907850  38.3484060  84.7507410 137.8328190
  39.6135840  71.0434370 141.5333840  39.5524730  71.6356200 142.2829250
  40.5536220  70.9360330 141.3884100  42.2510400  70.7004430 141.1726130
  42.8650810  71.0183720 140.5107210  42.7959960  70.2153020 141.7921990
  48.6685580  86.5996060 138.5787970  48.1743860  86.9964930 137.8615100
  48.0598870  85.9745270 138.9725250  32.7731660  69.3798690 141.2865190
  33.3214650  69.1986740 140.5231300  32.8386970  68.5892800 141.8221500
  33.5463420  85.9704340 139.2965390  32.9523740  85.8389040 140.0355430
  33.5387260  85.1342480 138.8307490  42.9918440  69.2636570 137.4995420
  42.1178280  69.5971680 137.2968350  42.8829190  68.7909750 138.3247290
  43.8990420  71.4707440 138.8837140  43.5703780  70.6559200 138.5038870
  44.8472720  71.4277250 138.7602830  46.3525030  87.2419480 135.8574710
  45.8928000  87.9935290 135.4832730  45.7237490  86.5225950 135.7989510
  33.1775650  83.3362720 138.2473430  32.4509710  82.7168010 138.1799380
  33.2384800  83.7303330 137.3771510  36.7820750  85.5507720 135.0322840
  37.2985770  84.9395080 134.5071100  37.4318130  86.0536500 135.5233850
  39.5216250  86.4416210 135.8591820  39.8094060  86.1870510 134.9824830
  40.0339470  85.8893570 136.4497390  40.7393260  70.1806410 136.4388330
  39.9565050  70.6551910 136.7185090  40.4456190  69.2761240 136.3301510
  31.4605650  86.6537110 131.4570190  31.2927690  86.0207790 132.1552080
  30.5940160  86.8596510 131.1064380  32.0833670  70.4853890 128.9602050
  32.8413030  70.5982770 128.3866080  31.6210840  71.3223090 128.9145480
  38.6247480  72.5993160 131.9504360  37.8121990  72.2250050 131.6100240
  39.1289120  71.8438240 132.2525550  43.1272460  69.2635610 133.1887430
  43.7301830  69.8355820 133.6635950  42.3865450  69.8275050 132.9661330
  33.0668350  85.3470340 128.9020330  32.5415970  85.7278370 128.1982290
  32.9912930  85.9721110 129.6230040  34.4558820  71.0117940 127.5004020
  34.9851580  70.2247740 127.3711970  35.0887140  71.6909130 127.7339550
  36.6496660  70.7493080 130.5549410  36.0199400  70.0480390 130.7219540
  36.1101800  71.5097210 130.3382570  39.5888610  87.3632310 143.2260020
  40.5155920  87.1276580 143.2695980  39.5739040  88.1904310 142.7446050
  36.7752220  70.0277060 142.9901900  36.4936490  70.5310660 142.2262720
  37.1571920  69.2298810 142.6244030  35.6661320  87.2952720 127.7769580
  36.3980140  87.0112000 127.2293470  35.9254990  87.0566000 128.6668960
  34.8276110  83.4117450 127.7815910  34.1984990  83.8802550 128.3301740
  34.9423940  82.5666670 128.2162100  43.3767680  69.4430640 143.5682370
  43.2633130  69.7625250 144.4633890  44.1937420  69.8443150 143.2719650
  46.1566170  86.5902170 143.0501060  46.9491490  86.0951400 142.8427020
  46.4499320  87.2692310 143.6576670  40.4143870  79.2402130 115.8126380
  39.6385970  78.7602570 116.1024950  41.0656800  78.5607780 115.6382540
  34.4309700  79.5521940 116.6902140  33.5994580  79.2970650 117.0898650
  35.0390680  79.6232710 117.4260060  44.4351300  83.6462320 114.5925510
  43.9732830  82.8749560 114.9212680  45.2476850  83.6728390 115.0977960
  30.8034660  77.1129480 116.3584230  31.3750770  76.3451680 116.3587870
  30.8036200  77.4118240 115.4490840  32.0459530  72.5213840 118.1453160
  31.8662370  71.6239590 118.4255920  31.6439610  73.0685710 118.8200110
  32.6646200  75.0174340 116.7535500  33.3456310  75.2812710 117.3722900
  32.3494250  74.1775210 117.0873510  36.8570770  76.0641700 115.8408090
  37.3648990  76.5622670 116.4813110  37.3884010  75.2876900 115.6647450
  41.5277960  80.8159570 111.6061410  40.9095230  81.2809020 111.0424130
  42.0401210  81.5087050 112.0230920  36.3909720  80.3435440 118.2845010
  36.0579100  80.9704360 118.9266080  36.5676400  80.8697320 117.5046680
  30.8961160  81.5016100 108.9801040  30.5189140  81.9903200 108.2485940
  31.1534230  82.1741380 109.6107570  43.4550590  80.5229620 118.0576620
  43.8719380  80.3089730 117.2230080  44.1790410  80.7802410 118.6285240
  40.8930850  77.9681320 111.1746670  39.9660130  77.9018700 111.4035140
  41.0455670  78.9061450 111.0601910  40.8799930  74.2398320 108.1713830
  39.9403600  74.4012280 108.2566290  41.1983190  74.9584000 107.6249820
  44.9228140  79.5301620 111.6781920  44.3040560  79.1921170 111.0308220
  44.9052590  78.8861380 112.3861110  35.2116110  75.2689270 117.7365440
  35.7630700  75.3784610 116.9618690  35.7259620  75.6426870 118.4520670
  45.0554800  85.7545490 119.7828710  44.5785360  86.5617680 119.5901320
  44.3716590  85.1023820 119.9354920  43.0992840  78.7688430 108.6854670
  43.5386120  77.9310860 108.5392490  43.8121260  79.4017830 108.7718810
  43.1434460  85.8303890 112.6445410  43.5991410  85.0493270 112.9584030
  43.4826980  86.5410710 113.1886590  35.6655780  70.7326110 114.8396720
  35.2223930  71.5135650 114.5081240  36.2240770  71.0556000 115.5467660
  39.9525590  73.5994630 120.4432040  39.4904960  73.8077650 121.2551980
  39.5503700  72.7853980 120.1402710  37.7031680  71.2773440 116.6986320
  38.0004010  72.1836270 116.6178340  38.2517240  70.7892220 116.0845890
  30.3296800  71.0887390 115.4202100  30.0409850  71.6590250 116.1327080
  31.0742560  70.6091840 115.7833330  38.3785310  74.7658620 108.6881930
  38.4998130  74.7245100 109.6367750  37.9933820  75.6282770 108.5328660
  32.4675990  80.9771780 121.9631960  32.0830780  80.3365450 122.5614920
  32.7788180  81.6807900 122.5326690  38.6173130  77.8248320 117.4440580
  38.9843260  77.3506890 118.1901920  38.4278190  78.6989890 117.7848920
  45.6942270  80.0683310 116.1518030  46.4141390  80.5638600 115.7614140
  45.4924090  79.3901200 115.5071900  43.8700600  75.8340920 108.5909580
  44.7580220  76.1458150 108.4160920  43.8405690  74.9613170 108.1990160
  39.8661190  82.0064610 109.2697750  40.2076890  82.7506840 108.7741070
  39.0373900  82.3195730 109.6322580  46.1414870  77.1452760 108.0589440
  46.0578590  77.5766980 107.2085880  46.8609060  77.6051110 108.4916260
  42.7488600  81.3280450 114.6343260  43.1012420  80.7308580 113.9744630
  41.8650930  81.0024680 114.8051510  34.0390870  69.4361820 112.1261550
  33.9105500  69.4279720 113.0746470  33.2152890  69.7744910 111.7752560
  41.7143780  82.6062860 117.6008780  42.3566010  81.9056020 117.7140950
  42.2393130  83.3861300 117.4205670  31.0384800  71.1952940 121.5868250
  30.3243320  71.3949860 122.1920860  31.4579840  70.4192510 121.9583050
  31.3257390  85.1833200 122.5734780  31.4348510  84.2427940 122.4330170
  30.6737950  85.4487950 121.9248510  39.4925570  76.3414840 119.5607670
  39.9910820  76.8160660 120.2259520  39.6348520  75.4178360 119.7677700
  33.4715830  86.2502110 124.3854390  34.2728560  86.5714160 124.7989790
  32.9567650  85.8897690 125.1074300  37.5759860  86.2386350 107.0194380
  38.3688470  86.5275180 106.5676170  37.0564210  85.8078520 106.3406860
  43.7380830  86.0862270 122.9439210  44.6902580  86.0020290 122.8939450
  43.5909050  86.7503980 123.6173000  38.0937260  81.4589760 106.8836730
  37.9887900  80.8442110 107.6098110  37.9261480  80.9355650 106.0999740
  41.3339990  80.5209790 107.4878720  40.7850090  80.9679090 108.1321460
  41.9559250  80.0159040 108.0116390  39.5142750  78.5038320 106.6321120
  40.0348410  77.7887340 106.2662270  40.1611150  79.1424190 106.9321630
  37.9141740  71.5969180 107.3036260  37.5663740  70.9193170 106.7238710
  38.1154510  71.1358690 108.1179650  33.7186940  81.9576980 107.1509860
  34.1561810  82.5006650 107.8067440  34.2034670  81.1323930 107.1606200
  47.7543040  79.6018900 109.4692970  48.5161950  80.1715550 109.5752660
  47.7697410  79.0346100 110.2401280  47.8062210  79.8953270 106.6265490
  48.0811050  80.8032150 106.4984710  47.6172950  79.8315800 107.5627480
  32.2923310  78.5109400 118.2403970  32.6596350  78.4236800 119.1199990
  31.7234130  77.7475950 118.1410830  32.3479020  69.6966820 116.4945610
  32.9955210  69.1464200 116.0540770  32.7680860  69.9509970 117.3161420
  46.2431360  69.8908180 119.8515250  46.8803580  70.5042320 120.2174440
  46.3906250  69.9268840 118.9064480  48.8594400  72.5532630 109.2595100
  48.0645900  72.4877750 109.7888010  49.0637680  73.4883270 109.2480450
  32.1011020  69.8522490 119.2370930  31.7525840  70.3086310 120.0029110
  31.7698720  68.9579620 119.3193360  42.2510400  70.7004430 122.3982640
  42.8650810  71.0183720 121.7363720  42.7959960  70.2153020 123.0178500
  48.6685580  86.5996060 119.8044480  48.1743860  86.9964930 119.0871610
  48.0598870  85.9745270 120.1981760  33.5463420  85.9704340 120.5221900
  32.9523740  85.8389040 121.2611940  33.5387260  85.1342480 120.0564000
  42.9918440  69.2636570 118.7251930  42.1178280  69.5971680 118.5224860
  42.8829190  68.7909750 119.5503800  32.0833670  70.4853890 110.1858560
  32.8413030  70.5982770 109.6122590  31.6210840  71.3223090 110.1401990
  35.6661320  87.2952720 109.0026090  36.3980140  87.0112000 108.4549980
  35.9254990  87.0566000 109.8925470  35.1406870  70.7040260 101.3328020
  35.1425310  71.2212650 100.5273920  34.3111180  70.2270440 101.3097950
  30.8961160  81.5016100  90.2057550  30.5189140  81.9903200  89.4742450
  31.1534230  82.1741380  90.8364080  47.9730550  73.6035310  97.3687070
  47.0255460  73.6374290  97.5002500  48.2980540  74.4174260  97.7536430
  36.0587620  81.9195310 103.9969920  35.1616150  82.1435280 104.2443320
  36.0840490  82.0430250 103.0481320  34.8858840  78.7908630 102.5727290
  34.7466610  79.6631430 102.9414690  34.0040200  78.4481440 102.4275230
  36.6839190  84.7330330 104.7812440  36.6554620  85.1373280 103.9140870
  36.5204160  83.8040690 104.6184040  46.6809980  70.0231240  88.2252220
  46.3682640  70.1158070  89.1251290  47.4422450  70.6012270  88.1749650
  33.1992120  77.3891040  92.6829560  33.0789720  78.1153130  92.0710830
  32.8893010  76.6193950  92.2057470  42.0479810  76.3205330 104.8984000
  42.3733220  75.4869080 104.5586230  42.8360140  76.8433850 105.0462330
  37.8969210  76.7545260 104.4594750  37.8012810  75.8139990 104.3095150
  38.7401190  76.9760330 104.0642820  39.6024800  73.2493900 105.6825270
  38.9123120  73.0566100 106.3171360  40.3457100  73.5328540 106.2149570
  32.4675990  80.9771780 103.1888470  32.0830780  80.3365450 103.7871430
  32.7788180  81.6807900 103.7583200  34.9354290  81.0717950  91.5848150
  34.1616550  80.5315570  91.4246870  35.6648920  80.5524560  91.2465910
  41.0761070  80.1392370 103.2643540  41.0098380  79.2188040 103.0101130
  40.4466210  80.2367810 103.9788180  35.6649350  78.1643940 105.0192210
  35.3649490  78.3101120 104.1220030  36.4360590  77.6049230 104.9265600
  47.2189010  79.6020280 102.3615920  46.4937200  80.1949060 102.1645310
  47.7464470  79.5943820 101.5629290  30.9744280  77.7050960  88.7587260
  31.8439130  77.9875760  89.0423180  30.4834600  78.5186830  88.6436070
  31.3257390  85.1833200 103.7991290  31.4348510  84.2427940 103.6586680
  30.6737950  85.4487950 103.1505020  32.9590790  79.5224430  90.8869320
  32.3518740  80.2623330  90.8964620  33.4340140  79.6123790  90.0607520
  34.9696080  79.4835580  88.6357890  35.7359350  79.3716940  89.1983320
  35.0470770  78.7873550  87.9834660  33.6642840  76.9160650  89.3190780
  33.7446430  75.9688160  89.4308180  34.5562590  77.2467530  89.4251440
  31.3503030  83.1329610  92.2966830  30.4242810  83.3750750  92.2872240
  31.8159460  83.9603870  92.1751580  38.0937260  81.4589760  88.1093240
  37.9887900  80.8442110  88.8354620  37.9261480  80.9355650  87.3256250
  38.2451580  80.1446560 104.0882470  37.4797250  80.7131560 104.0037140
  38.4267540  79.8522770 103.1950700  44.0620590  79.9266720 103.1812700
  44.4761610  80.0811800 104.0303120  43.1271590  80.0521940 103.3438480
  35.6514830  72.4259630 103.4968800  35.5571700  71.8080380 102.7719670
  35.0712220  73.1525920 103.2698710  38.4176270  70.9832870 100.5296190
  37.9693570  71.0057130  99.6841740  37.7841470  70.5851890 101.1266490
  41.1599720  77.6103380 102.5346470  41.2795930  77.0144520 103.2741310
  42.0193720  77.6473070 102.1147770  43.4987620  78.1640570 101.1108980
  42.9722840  78.6883190 100.5074120  43.8418960  78.7967960 101.7418710
  36.6743240  86.1840210 102.2666360  36.1364330  86.9086270 101.9475060
  36.9277200  85.7070550 101.4763700  37.9268490  74.1524730 103.7922290
  38.5168180  73.8440580 104.4800110  37.1088730  73.6804480 103.9482190
  42.7461920  73.7690540 104.0255310  42.0577440  73.1072080 103.9605300
  43.4667940  73.3228810 104.4703770  33.7186940  81.9576980  88.3766370
  34.1561810  82.5006650  89.0323950  34.2034670  81.1323930  88.3862710
  48.2986580  82.8571420  88.1915280  47.4679540  82.9248070  88.6622510
  48.4758410  83.7475540  87.8882140  31.2547380  78.1256830  94.9257140
  30.5996220  77.8568470  94.2816840  32.0925330  78.0161310  94.4759120
  48.7603010  80.4569000  95.5391410  49.1311840  79.6736320  95.1327380
  49.4004940  81.1458100  95.3608710  45.7436770  81.8405580 100.9521730
  44.9296610  82.2702740 101.2147520  46.1510970  82.4523990 100.3390780
  47.7027550  77.8322260  92.8451430  47.3271150  77.0650190  92.4132720
  46.9730670  78.2144960  93.3326360  46.4678480  75.3153100  92.0851080
  46.9637600  75.0823970  92.8699960  46.2694550  74.4764940  91.6688720
  47.8965640  73.9514050  94.6188760  47.7864920  73.7970090  95.5571030
  48.6573230  73.4234990  94.3764170  48.7855910  71.7821970  87.8594900
  49.7105220  71.6503150  87.6513190  48.7631700  71.8614790  88.8131350
  48.8594400  72.5532630  90.4851610  48.0645900  72.4877750  91.0144520
  49.0637680  73.4883270  90.4736960  32.1011020  69.8522490 100.4627440
  31.7525840  70.3086310 101.2285620  31.7698720  68.9579620 100.5449870
  33.7075390  83.0242090 104.6280630  33.6645020  82.6535000 105.5095090
  33.8386400  83.9619660 104.7682450  39.6135840  71.0434370 103.9846860
  39.5524730  71.6356200 104.7342270  40.5536220  70.9360330 103.8397120
  33.5463420  85.9704340 101.7478410  32.9523740  85.8389040 102.4868450
  33.5387260  85.1342480 101.2820510  33.1775650  83.3362720 100.6986450
  32.4509710  82.7168010 100.6312400  33.2384800  83.7303330  99.8284530
  47.1552900  70.5144750  94.9459260  47.0941300  69.5705970  94.7990280
  47.9344930  70.6224840  95.4912720  46.2707060  69.6657170  90.9140730
  46.4657690  70.5640620  91.1808160  45.4836930  69.4344250  91.4073680
  35.6661320  87.2952720  90.2282600  36.3980140  87.0112000  89.6806490
  35.9254990  87.0566000  91.1181980  34.8276110  83.4117450  90.2328930
  34.1984990  83.8802550  90.7814760  34.9423940  82.5666670  90.6675120
  34.4110960  83.5862030  79.3373180  34.7139000  82.6959770  79.1583400
  35.1554550  84.1432250  79.1095430  48.9581700  74.2346890  81.9950460
  48.2533870  74.6228600  81.4765570  49.2239620  74.9297180  82.5971390
  44.9043630  74.1580520  78.2034370  44.1999200  74.4465410  78.7837480
  45.2655790  74.9680630  77.8433930  46.5206410  83.7755650  80.4661850
  45.8369930  84.4454760  80.4578520  47.0600700  83.9736300  79.7006710
  47.9730550  73.6035310  78.5943580  47.0255460  73.6374290  78.7259010
  48.2980540  74.4174260  78.9792940  44.0565150  85.6199780  79.1807030
  44.0692310  85.2162070  78.3129290  43.5040370  86.3947070  79.0768460
  40.8799930  74.2398320  70.6226850  39.9403600  74.4012280  70.7079310
  41.1983190  74.9584000  70.0762840  45.0554800  85.7545490  82.2341730
  44.5785360  86.5617680  82.0414340  44.3716590  85.1023820  82.3867940
  43.0992840  78.7688430  71.1367690  43.5386120  77.9310860  70.9905510
  43.8121260  79.4017830  71.2231830  34.8858840  78.7908630  83.7983800
  34.7466610  79.6631430  84.1671200  34.0040200  78.4481440  83.6531740
  48.6354010  85.5157430  87.3033120  49.1113730  85.9940320  87.9822200
  49.2561170  85.4474920  86.5778620  30.8377490  80.5606180  79.7154710
  30.9157910  80.6954950  78.7710430  31.4519170  79.8522070  79.9082830
  48.0387260  82.7070280  84.4633130  48.1650320  82.4682160  83.5450310
  48.0808640  81.8754820  84.9355210  43.5784530  84.2041180  71.0209940
  42.8849690  84.2018470  70.3612220  44.3207390  83.7800500  70.5904110
  42.6867760  75.8623050  73.6181640  42.0876650  76.5858850  73.4345260
  43.2347370  75.7999830  72.8358090  37.8969210  76.7545260  85.6851260
  37.8012810  75.8139990  85.5351660  38.7401190  76.9760330  85.2899330
  41.2932630  74.4986590  75.6484920  41.6862200  74.8158790  74.8353610
  41.6549480  73.6198470  75.7629440  33.0279750  73.1658930  83.8385040
  32.6343140  74.0134140  84.0457820  32.3398150  72.5285300  84.0293680
  30.3296800  71.0887390  77.8715120  30.0409850  71.6590250  78.5840100
  31.0742560  70.6091840  78.2346350  38.3785310  74.7658620  71.1394950
  38.4998130  74.7245100  72.0880770  37.9933820  75.6282770  70.9841680
  37.3906810  77.0759760  70.5378250  36.8223710  76.6278010  69.9114160
  38.0995810  77.4352540  70.0043400  45.7684430  69.9558200  84.9945020
  46.0930200  69.2247860  85.5203000  45.8040940  69.6371840  84.0926010
  36.4072500  76.8656960  82.2137810  36.1029570  77.7448940  82.4388170
  37.3618960  76.9256750  82.2495250  41.1552210  71.4621270  72.7460440
  40.3416820  70.9634440  72.6705750  40.9614160  72.3019520  72.3296790
  43.8700600  75.8340920  71.0422600  44.7580220  76.1458150  70.8673940
  43.8405690  74.9613170  70.6503180  35.6649350  78.1643940  86.2448720
  35.3649490  78.3101120  85.3476540  36.4360590  77.6049230  86.1522110
  46.1414870  77.1452760  70.5102460  46.0578590  77.5766980  69.6598900
  46.8609060  77.6051110  70.9429280  47.1702120  83.9995020  73.2384590
  46.5278280  83.3450640  73.5128310  46.7832780  84.4050110  72.4625260
  45.5599500  82.8911480  69.7760940  45.3337080  82.1741920  70.3685580
  45.1695700  82.6423920  68.9382690  45.1415750  80.8083420  71.4375100
  44.8537450  81.2696110  72.2252980  45.9367920  80.3481190  71.7059320
  31.3257390  85.1833200  85.0247800  31.4348510  84.2427940  84.8843190
  30.6737950  85.4487950  84.3761530  41.8985070  71.6468800  75.4523950
  41.7752850  71.6654930  74.5033460  42.8469630  71.6947740  75.5722350
  46.6992430  72.5582800  82.8549080  46.1966030  73.2988200  83.1942890
  47.5149090  72.9466800  82.5385870  34.9696080  79.4835580  69.8614400
  35.7359350  79.3716940  70.4239830  35.0470770  78.7873550  69.2091170
  46.9940020  84.9724830  77.9764700  47.1187440  85.7956000  78.4488510
  47.8605580  84.7615560  77.6288850  34.4657550  87.0656040  77.6481830
  35.2020030  86.5171500  77.9190400  34.8498470  87.9312050  77.5087820
  33.4715830  86.2502110  86.8367410  34.2728560  86.5714160  87.2502810
  32.9567650  85.8897690  87.5587320  37.5759860  86.2386350  69.4707400
  38.3688470  86.5275180  69.0189190  37.0564210  85.8078520  68.7919880
  42.3080460  82.3581980  86.7842820  41.7018620  82.3813580  86.0438570
  42.0034570  81.6265020  87.3210070  46.6290030  85.4656480  70.8944140
  46.3431540  85.0521620  70.0798320  46.4309580  86.3944190  70.7744660
  38.0937260  81.4589760  69.3349750  37.9887900  80.8442110  70.0611130
  37.9261480  80.9355650  68.5512760  41.3339990  80.5209790  69.9391740
  40.7850090  80.9679090  70.5834480  41.9559250  80.0159040  70.4629410
  33.2236720  76.8805160  86.6753530  33.2642060  76.5819030  87.5838760
  34.0782220  77.2812770  86.5161050  35.1642530  75.4597260  84.6428020
  34.6338990  74.9688210  84.0151360  35.8330600  75.8881460  84.1085950
  33.7186940  81.9576980  69.6022880  34.1561810  82.5006650  70.2580460
  34.2034670  81.1323930  69.6119220  35.5294660  83.0775020  74.7145110
  35.2290200  82.9539990  75.6149020  35.4232150  82.2183610  74.3060840
  31.4222950  85.6136600  79.7924770  30.9853940  85.7937400  80.6248920
  31.9900630  86.3711220  79.6506490  47.0585130  85.1153600  84.0802080
  46.4587120  85.1746160  83.3366000  47.1879030  84.1758580  84.2098930
  48.2986580  82.8571420  69.4171790  47.4679540  82.9248070  69.8879020
  48.4758410  83.7475540  69.1138650  47.7543040  79.6018900  71.9205990
  48.5161950  80.1715550  72.0265680  47.7697410  79.0346100  72.6914300
  47.8062210  79.8953270  69.0778510  48.0811050  80.8032150  68.9497730
  47.6172950  79.8315800  70.0140500  31.8439310  75.4218490  84.5975410
  30.9495360  75.3885250  84.9369120  32.3836860  75.6205280  85.3626660
  46.4678480  75.3153100  73.3107590  46.9637600  75.0823970  74.0956470
  46.2694550  74.4764940  72.8945230  47.8965640  73.9514050  75.8445270
  47.7864920  73.7970090  76.7827540  48.6573230  73.4234990  75.6020680
  46.2431360  69.8908180  82.3028270  46.8803580  70.5042320  82.6687460
  46.3906250  69.9268840  81.3577500  33.7075390  83.0242090  85.8537140
  33.6645020  82.6535000  86.7351600  33.8386400  83.9619660  85.9938960
  42.2510400  70.7004430  84.8495660  42.8650810  71.0183720  84.1876740
  42.7959960  70.2153020  85.4691520  48.6685580  86.5996060  82.2557500
  48.1743860  86.9964930  81.5384630  48.0598870  85.9745270  82.6494780
  33.5463420  85.9704340  82.9734920  32.9523740  85.8389040  83.7124960
  33.5387260  85.1342480  82.5077020  42.9918440  69.2636570  81.1764950
  42.1178280  69.5971680  80.9737880  42.8829190  68.7909750  82.0016820
  43.8990420  71.4707440  82.5606670  43.5703780  70.6559200  82.1808400
  44.8472720  71.4277250  82.4372360  46.3525030  87.2419480  79.5344240
  45.8928000  87.9935290  79.1602260  45.7237490  86.5225950  79.4759040
  33.1775650  83.3362720  81.9242960  32.4509710  82.7168010  81.8568910
  33.2384800  83.7303330  81.0541040  36.7820750  85.5507720  78.7092370
  37.2985770  84.9395080  78.1840630  37.4318130  86.0536500  79.2003380
  39.5216250  86.4416210  79.5361350  39.8094060  86.1870510  78.6594360
  40.0339470  85.8893570  80.1266920  45.2914330  70.8829510  78.1606950
  45.7322420  70.8274610  77.3128550  45.0221920  71.7987520  78.2317130
  43.1272460  69.2635610  76.8656960  43.7301830  69.8355820  77.3405480
  42.3865450  69.8275050  76.6430860  33.0668350  85.3470340  72.5789860
  32.5415970  85.7278370  71.8751820  32.9912930  85.9721110  73.2999570
  47.8233670  86.9057880  73.9003800  47.9985860  86.2195620  73.2564720
  47.1255240  87.4304930  73.5080470  35.6661320  87.2952720  71.4539110
  36.3980140  87.0112000  70.9063000  35.9254990  87.0566000  72.3438490
  34.8276110  83.4117450  71.4585440  34.1984990  83.8802550  72.0071270
  34.9423940  82.5666670  71.8931630  46.1566170  86.5902170  86.7270590
  46.9491490  86.0951400  86.5196550  46.4499320  87.2692310  87.3346200
  42.2825830  77.4623110  57.6086640  42.2019880  76.5477720  57.3378350
  41.8690250  77.9590180  56.9026350  34.4110960  83.5862030  60.5629690
  34.7139000  82.6959770  60.3839910  35.1554550  84.1432250  60.3351940
  30.8034660  77.1129480  60.0353760  31.3750770  76.3451680  60.0357400
  30.8036200  77.4118240  59.1260370  40.8858030  74.7229700  59.7235000
  41.2622850  73.8501580  59.6108670  40.7877540  75.0588400  58.8325440
  36.8570770  76.0641700  59.5177620  37.3648990  76.5622670  60.1582640
  37.3884010  75.2876900  59.3416980  48.9581700  74.2346890  63.2206970
  48.2533870  74.6228600  62.7022080  49.2239620  74.9297180  63.8227900
  46.5206410  83.7755650  61.6918360  45.8369930  84.4454760  61.6835030
  47.0600700  83.9736300  60.9263220  38.5050090  69.9032490  58.1156080
  38.8125070  69.3479380  57.3991580  37.5750790  70.0376950  57.9329070
  43.4550590  80.5229620  61.7346150  43.8719380  80.3089730  60.8999610
  44.1790410  80.7802410  62.3054770  40.8930850  77.9681320  54.8516200
  39.9660130  77.9018700  55.0804670  41.0455670  78.9061450  54.7371440
  47.4012690  78.9216840  61.8262390  46.5731320  78.9909930  61.3512520
  47.9963170  79.5071150  61.3578220  45.0554800  85.7545490  63.4598240
  44.5785360  86.5617680  63.2670850  44.3716590  85.1023820  63.6124450
  36.0587620  81.9195310  66.4482940  35.1616150  82.1435280  66.6956340
  36.0840490  82.0430250  65.4994340  36.6839190  84.7330330  67.2325460
  36.6554620  85.1373280  66.3653890  36.5204160  83.8040690  67.0697060
  48.0387260  82.7070280  65.6889640  48.1650320  82.4682160  64.7706820
  48.0808640  81.8754820  66.1611720  41.9004000  86.4098280  64.2584450
  42.4148670  86.3206290  65.0606880  41.0573080  86.7557980  64.5512360
  36.3546780  86.4752150  55.4640070  36.1789260  85.5587690  55.2507870
  35.5002520  86.8339440  55.7037870  47.8911270  74.7602740  66.6539380
  47.2755540  75.2682410  66.1254840  47.5707690  73.8601070  66.5965320
  38.7814600  70.3536810  53.3972080  38.1568780  70.3496680  54.1225390
  38.6944720  69.4867770  53.0008050  37.7031680  71.2773440  60.3755850
  38.0004010  72.1836270  60.2947870  38.2517240  70.7892220  59.7615420
  42.6867760  75.8623050  54.8438150  42.0876650  76.5858850  54.6601770
  43.2347370  75.7999830  54.0614600  41.2932630  74.4986590  56.8741430
  41.6862200  74.8158790  56.0610120  41.6549480  73.6198470  56.9885950
  42.3413680  72.5426020  60.3815150  42.3586420  72.9934670  61.2257000
  42.0929260  71.6431660  60.5948590  45.7684430  69.9558200  66.2201530
  46.0930200  69.2247860  66.7459510  45.8040940  69.6371840  65.3182520
  32.4675990  80.9771780  65.6401490  32.0830780  80.3365450  66.2384450
  32.7788180  81.6807900  66.2096220  45.6942270  80.0683310  59.8287560
  46.4141390  80.5638600  59.4383670  45.4924090  79.3901200  59.1841430
  41.1552210  71.4621270  53.9716950  40.3416820  70.9634440  53.8962260
  40.9614160  72.3019520  53.5553300  41.0761070  80.1392370  65.7156560
  41.0098380  79.2188040  65.4614150  40.4466210  80.2367810  66.4301200
  41.0077800  82.9612940  65.4660360  41.0222340  82.0293900  65.2479270
  40.3002900  83.0472700  66.1050130  46.1414870  77.1452760  51.7358970
  46.0578590  77.5766980  50.8855410  46.8609060  77.6051110  52.1685790
  47.2189010  79.6020280  64.8128940  46.4937200  80.1949060  64.6158330
  47.7464470  79.5943820  64.0142310  30.9744280  77.7050960  51.2100280
  31.8439130  77.9875760  51.4936200  30.4834600  78.5186830  51.0949090
  40.4411700  84.6030510  62.5600860  41.0853920  84.8089890  63.2374280
  40.8041140  83.8418910  62.1071710  41.7143780  82.6062860  61.2778310
  42.3566010  81.9056020  61.3910480  42.2393130  83.3861300  61.0975200
  43.4881400  83.4057760  64.4814370  43.8237640  83.9924450  65.1592290
  42.5681740  83.2750470  64.7112160  31.3257390  85.1833200  66.2504310
  31.4348510  84.2427940  66.1099700  30.6737950  85.4487950  65.6018040
  39.3169980  83.4549090  67.6502430  38.9966850  82.7358330  68.1948120
  38.6428340  84.1304160  67.7238490  41.8985070  71.6468800  56.6780460
  41.7752850  71.6654930  55.7289970  42.8469630  71.6947740  56.7978860
  36.0704660  73.2303220  52.6135380  36.9195190  73.6673370  52.5475570
  35.7035930  73.5423480  53.4407440  46.6992430  72.5582800  64.0805590
  46.1966030  73.2988200  64.4199400  47.5149090  72.9466800  63.7642380
  44.9914440  77.8015980  57.5266950  44.0504580  77.8166210  57.7014640
  45.3058510  77.0151940  57.9727250  33.4715830  86.2502110  68.0623920
  34.2728560  86.5714160  68.4759320  32.9567650  85.8897690  68.7843830
  42.3080460  82.3581980  68.0099330  41.7018620  82.3813580  67.2695080
  42.0034570  81.6265020  68.5466580  43.7380830  86.0862270  66.6208740
  44.6902580  86.0020290  66.5708980  43.5909050  86.7503980  67.2942530
  38.0937260  81.4589760  50.5606260  37.9887900  80.8442110  51.2867640
  37.9261480  80.9355650  49.7769270  45.3874930  81.8751890  67.0970510
  46.1284400  82.2127650  66.5937970  44.6247610  82.0443950  66.5440280
  44.0620590  79.9266720  65.6325720  44.4761610  80.0811800  66.4816140
  43.1271590  80.0521940  65.7951500  44.5342760  77.2662880  67.6364870
  45.1163530  76.5115200  67.5485350  44.7104530  77.7970320  66.8596350
  36.6743240  86.1840210  64.7179380  36.1364330  86.9086270  64.3988080
  36.9277200  85.7070550  63.9276720  34.6956810  72.6534560  49.9949590
  34.9982710  72.6601990  49.0868740  35.4351400  72.3032420  50.4917250
  39.5305450  87.4191420  64.9766030  39.4564150  88.3226560  65.2838400
  38.6284290  87.1003320  64.9488100  37.9141740  71.5969180  50.9805790
  37.5663740  70.9193170  50.4008240  38.1154510  71.1358690  51.7949180
  33.7186940  81.9576980  50.8279390  34.1561810  82.5006650  51.4836970
  34.2034670  81.1323930  50.8375730  47.0585130  85.1153600  65.3058590
  46.4587120  85.1746160  64.5622510  47.1879030  84.1758580  65.4355440
  48.7603010  80.4569000  57.9904430  49.1311840  79.6736320  57.5840400
  49.4004940  81.1458100  57.8121730  45.7436770  81.8405580  63.4034750
  44.9296610  82.2702740  63.6660540  46.1510970  82.4523990  62.7903800
  47.8062210  79.8953270  50.3035020  48.0811050  80.8032150  50.1754240
  47.6172950  79.8315800  51.2397010  47.7027550  77.8322260  55.2964450
  47.3271150  77.0650190  54.8645740  46.9730670  78.2144960  55.7839380
  47.0927170  76.9793780  64.9303970  46.8613260  76.7506530  64.0301920
  47.3531720  77.8993330  64.8848860  47.1568230  76.1419620  62.1191240
  46.2070940  76.1083160  62.2336230  47.3381240  77.0519730  61.8841010
  46.4678480  75.3153100  54.5364100  46.9637600  75.0823970  55.3212980
  46.2694550  74.4764940  54.1201740  46.2431360  69.8908180  63.5284780
  46.8803580  70.5042320  63.8943970  46.3906250  69.9268840  62.5834010
  33.7075390  83.0242090  67.0793650  33.6645020  82.6535000  67.9608110
  33.8386400  83.9619660  67.2195470  37.4081420  84.5801680  62.6803370
  37.1672780  84.8476240  61.7933890  38.3484060  84.7507410  62.7354230
  48.6685580  86.5996060  63.4814010  48.1743860  86.9964930  62.7641140
  48.0598870  85.9745270  63.8751290  33.5463420  85.9704340  64.1991430
  32.9523740  85.8389040  64.9381470  33.5387260  85.1342480  63.7333530
  42.9918440  69.2636570  62.4021460  42.1178280  69.5971680  62.1994390
  42.8829190  68.7909750  63.2273330  43.8990420  71.4707440  63.7863180
  43.5703780  70.6559200  63.4064910  44.8472720  71.4277250  63.6628870
  46.3525030  87.2419480  60.7600750  45.8928000  87.9935290  60.3858770
  45.7237490  86.5225950  60.7015550  36.7820750  85.5507720  59.9348880
  37.2985770  84.9395080  59.4097140  37.4318130  86.0536500  60.4259890
  39.5216250  86.4416210  60.7617860  39.8094060  86.1870510  59.8850870
  40.0339470  85.8893570  61.3523430  40.7393260  70.1806410  61.3414370
  39.9565050  70.6551910  61.6211130  40.4456190  69.2761240  61.2327550
  43.1272460  69.2635610  58.0913470  43.7301830  69.8355820  58.5661990
  42.3865450  69.8275050  57.8687370  39.5888610  87.3632310  68.1286060
  40.5155920  87.1276580  68.1722020  39.5739040  88.1904310  67.6472090
  35.6661320  87.2952720  52.6795620  36.3980140  87.0112000  52.1319510
  35.9254990  87.0566000  53.5695000  34.8276110  83.4117450  52.6841950
  34.1984990  83.8802550  53.2327780  34.9423940  82.5666670  53.1188140
  42.2825830  77.4623110  38.8343150  42.2019880  76.5477720  38.5634860
  41.8690250  77.9590180  38.1282860  32.8401650  74.5123830  35.3770570
  31.9518350  74.8539800  35.2750450  33.1242840  74.3124150  34.4851400
  40.6614610  85.9320330  39.1155540  40.0426050  86.3877830  38.5449980
  41.5166390  86.0871790  38.7145240  35.0163040  73.0955330  36.4108950
  35.1229790  73.9959060  36.7177710  34.1055400  73.0473300  36.1203600
  34.8222200  72.4150220  43.0168000  35.1639010  73.2592270  42.7221870
  33.8838010  72.5633960  43.1333340  38.5050090  69.9032490  39.3412590
  38.8125070  69.3479380  38.6248090  37.5750790  70.0376950  39.1585580
  40.8799930  74.2398320  33.0739870  39.9403600  74.4012280  33.1592330
  41.1983190  74.9584000  32.5275860  36.6839190  84.7330330  48.4581970
  36.6554620  85.1373280  47.5910400  36.5204160  83.8040690  48.2953570
  46.6809980  70.0231240  31.9021750  46.3682640  70.1158070  32.8020820
  47.4422450  70.6012270  31.8519180  48.6354010  85.5157430  49.7546140
  49.1113730  85.9940320  50.4335220  49.2561170  85.4474920  49.0291640
  48.0387260  82.7070280  46.9146150  48.1650320  82.4682160  45.9963330
  48.0808640  81.8754820  47.3868230  35.6655780  70.7326110  39.7422760
  35.2223930  71.5135650  39.4107280  36.2240770  71.0556000  40.4493700
  38.7814600  70.3536810  34.6228590  38.1568780  70.3496680  35.3481900
  38.6944720  69.4867770  34.2264560  37.7031680  71.2773440  41.6012360
  38.0004010  72.1836270  41.5204380  38.2517240  70.7892220  40.9871930
  42.6867760  75.8623050  36.0694660  42.0876650  76.5858850  35.8858280
  43.2347370  75.7999830  35.2871110  37.8969210  76.7545260  48.1364280
  37.8012810  75.8139990  47.9864680  38.7401190  76.9760330  47.7412350
  41.2932630  74.4986590  38.0997940  41.6862200  74.8158790  37.2866630
  41.6549480  73.6198470  38.2142460  30.3296800  71.0887390  40.3228140
  30.0409850  71.6590250  41.0353120  31.0742560  70.6091840  40.6859370
  30.5167030  75.0307510  31.5330860  30.4341700  75.9738270  31.6745850
  30.1650090  74.8882420  30.6543210  38.3165160  73.7646540  40.6001210
  38.3201220  73.3236490  39.7505750  39.2116280  74.0863870  40.7073030
  34.1667540  73.6473030  39.5595420  33.8267590  74.1248260  40.3162470
  33.4044860  73.1938150  39.1996520  38.3785310  74.7658620  33.5907970
  38.4998130  74.7245100  34.5393790  37.9933820  75.6282770  33.4354700
  31.4813620  72.5692010  38.4760090  31.1960540  72.2047680  39.3138710
  31.4192480  71.8372470  37.8623230  45.6942270  80.0683310  41.0544070
  46.4141390  80.5638600  40.6640180  45.4924090  79.3901200  40.4097940
  41.1552210  71.4621270  35.1973460  40.3416820  70.9634440  35.1218770
  40.9614160  72.3019520  34.7809810  43.8700600  75.8340920  33.4935620
  44.7580220  76.1458150  33.3186960  43.8405690  74.9613170  33.1016200
  46.1414870  77.1452760  32.9615480  46.0578590  77.5766980  32.1111920
  46.8609060  77.6051110  33.3942300  47.2189010  79.6020280  46.0385450
  46.4937200  80.1949060  45.8414840  47.7464470  79.5943820  45.2398820
  31.3415530  86.9178340  33.0018420  31.7013170  87.5167680  32.3475690
  31.2007870  87.4638230  33.7753450  31.3257390  85.1833200  47.4760820
  31.4348510  84.2427940  47.3356210  30.6737950  85.4487950  46.8274550
  45.8985610  72.6432190  35.0483300  45.2698770  72.7477860  34.3341530
  45.4037530  72.8628970  35.8377180  37.8669640  74.9218140  36.4641180
  37.1585790  75.3904480  36.9054790  38.1514120  74.2640150  37.0986370
  39.4925570  76.3414840  44.4633710  39.9910820  76.8160660  45.1285560
  39.6348520  75.4178360  44.6703740  41.8985070  71.6468800  37.9036970
  41.7752850  71.6654930  36.9546480  42.8469630  71.6947740  38.0235370
  38.9861860  86.8824100  37.1764950  39.2403360  86.8445490  36.2544320
  38.0374340  86.7557430  37.1693200  36.0704660  73.2303220  33.8391890
  36.9195190  73.6673370  33.7732080  35.7035930  73.5423480  34.6663950
  34.4657550  87.0656040  40.0994850  35.2020030  86.5171500  40.3703420
  34.8498470  87.9312050  39.9600840  33.4715830  86.2502110  49.2880430
  34.2728560  86.5714160  49.7015830  32.9567650  85.8897690  50.0100340
  43.7380830  86.0862270  47.8465250  44.6902580  86.0020290  47.7965490
  43.5909050  86.7503980  48.5199040  38.2451580  80.1446560  47.7652000
  37.4797250  80.7131560  47.6806670  38.4267540  79.8522770  46.8720230
  41.3339990  80.5209790  32.3904760  40.7850090  80.9679090  33.0347500
  41.9559250  80.0159040  32.9142430  45.3874930  81.8751890  48.3227020
  46.1284400  82.2127650  47.8194480  44.6247610  82.0443950  47.7696790
  39.5142750  78.5038320  31.5347160  40.0348410  77.7887340  31.1688310
  40.1611150  79.1424190  31.8347670  41.1599720  77.6103380  46.2116000
  41.2795930  77.0144520  46.9510840  42.0193720  77.6473070  45.7917300
  35.8974010  75.5533940  31.2328220  35.6963070  74.6901300  31.5941560
  35.7266060  75.4667300  30.2949820  36.6743240  86.1840210  45.9435890
  36.1364330  86.9086270  45.6244590  36.9277200  85.7070550  45.1533230
  37.9268490  74.1524730  47.4691820  38.5168180  73.8440580  48.1569640
  37.1088730  73.6804480  47.6251720  43.3762320  70.3642170  33.7615100
  43.6564610  69.5210070  34.1174520  42.6028050  70.5965280  34.2753850
  34.6956810  72.6534560  31.2206100  34.9982710  72.6601990  30.3125250
  35.4351400  72.3032420  31.7173760  39.5305450  87.4191420  46.2022540
  39.4564150  88.3226560  46.5094910  38.6284290  87.1003320  46.1744610
  37.9141740  71.5969180  32.2062300  37.5663740  70.9193170  31.6264750
  38.1154510  71.1358690  33.0205690  40.0790780  86.5849930  33.8248900
  40.9741570  86.9234900  33.8467660  40.1108410  85.8629340  33.1973180
  30.9332740  84.7466010  39.5056160  31.2635750  83.8787070  39.2734800
  31.3623740  84.9524530  40.3361120  31.4222950  85.6136600  42.2437790
  30.9853940  85.7937400  43.0761940  31.9900630  86.3711220  42.1019510
  47.0585130  85.1153600  46.5315100  46.4587120  85.1746160  45.7879020
  47.1879030  84.1758580  46.6611950  47.8062210  79.8953270  31.5291530
  48.0811050  80.8032150  31.4010750  47.6172950  79.8315800  32.4653520
  44.2037820  72.9198120  32.8245160  44.6222700  72.7329100  31.9841820
  43.8973880  72.0677170  33.1348090  30.4685460  75.3355760  34.5452000
  29.5649540  75.5985960  34.3703660  30.9526080  75.6066930  33.7651960
  33.0112670  74.3921300  32.4546380  33.7204370  73.9704520  31.9693660
  32.2952610  74.4596530  31.8229730  32.6586830  70.4460630  31.4949030
  33.3814960  70.9869570  31.8130250  32.9311350  70.1724050  30.6190570
  32.3479020  69.6966820  41.3971650  32.9955210  69.1464200  40.9566810
  32.7680860  69.9509970  42.2187460  48.7855910  71.7821970  31.5364430
  49.7105220  71.6503150  31.3282720  48.7631700  71.8614790  32.4900880
  48.6685580  86.5996060  44.7070520  48.1743860  86.9964930  43.9897650
  48.0598870  85.9745270  45.1007800  33.5463420  85.9704340  45.4247940
  32.9523740  85.8389040  46.1637980  33.5387260  85.1342480  44.9590040
  42.9918440  69.2636570  43.6277970  42.1178280  69.5971680  43.4250900
  42.8829190  68.7909750  44.4529840  33.1775650  83.3362720  44.3755980
  32.4509710  82.7168010  44.3081930  33.2384800  83.7303330  43.5054060
  39.5216250  86.4416210  41.9874370  39.8094060  86.1870510  41.1107380
  40.0339470  85.8893570  42.5779940  40.7393260  70.1806410  42.5670880
  39.9565050  70.6551910  42.8467640  40.4456190  69.2761240  42.4584060
  31.4605650  86.6537110  37.5852740  31.2927690  86.0207790  38.2834630
  30.5940160  86.8596510  37.2346930  32.0833670  70.4853890  35.0884600
  32.8413030  70.5982770  34.5148630  31.6210840  71.3223090  35.0428030
  38.6247480  72.5993160  38.0786910  37.8121990  72.2250050  37.7382790
  39.1289120  71.8438240  38.3808100  46.2707060  69.6657170  34.5910260
  46.4657690  70.5640620  34.8577690  45.4836930  69.4344250  35.0843210
  34.4558820  71.0117940  33.6286570  34.9851580  70.2247740  33.4994520
  35.0887140  71.6909130  33.8622100  36.6496660  70.7493080  36.6831960
  36.0199400  70.0480390  36.8502090  36.1101800  71.5097210  36.4665120
  46.1566170  86.5902170  49.1783610  46.9491490  86.0951400  48.9709570
  46.4499320  87.2692310  49.7859220  42.2825830  77.4623110  20.0599660
  42.2019880  76.5477720  19.7891370  41.8690250  77.9590180  19.3539370
  40.4143870  79.2402130  21.9408930  39.6385970  78.7602570  22.2307500
  41.0656800  78.5607780  21.7665090  34.4309700  79.5521940  22.8184690
  33.5994580  79.2970650  23.2181200  35.0390680  79.6232710  23.5542610
  44.4351300  83.6462320  20.7208060  43.9732830  82.8749560  21.0495230
  45.2476850  83.6728390  21.2260510  34.4110960  83.5862030  23.0142710
  34.7139000  82.6959770  22.8352930  35.1554550  84.1432250  22.7864960
  32.8401650  74.5123830  16.6027080  31.9518350  74.8539800  16.5006960
  33.1242840  74.3124150  15.7107910  30.8034660  77.1129480  22.4866780
  31.3750770  76.3451680  22.4870420  30.8036200  77.4118240  21.5773390
  40.6614610  85.9320330  20.3412050  40.0426050  86.3877830  19.7706490
  41.5166390  86.0871790  19.9401750  39.8552860  81.9159320  21.9479090
  39.7861140  80.9749260  21.7868220  40.6172720  82.0060730  22.5201660
  32.0459530  72.5213840  24.2735710  31.8662370  71.6239590  24.5538470
  31.6439610  73.0685710  24.9482660  40.8858030  74.7229700  22.1748020
  41.2622850  73.8501580  22.0621690  40.7877540  75.0588400  21.2838460
  35.0163040  73.0955330  17.6365460  35.1229790  73.9959060  17.9434220
  34.1055400  73.0473300  17.3460110  44.6682150  72.2180140  19.1076360
  45.4891770  71.7276710  19.1501840  44.7016230  72.8077800  19.8608200
  32.6646200  75.0174340  22.8818050  33.3456310  75.2812710  23.5005450
  32.3494250  74.1775210  23.2156060  36.8570770  76.0641700  21.9690640
  37.3648990  76.5622670  22.6095660  37.3884010  75.2876900  21.7930000
  35.1406870  70.7040260  26.2354060  35.1425310  71.2212650  25.4299960
  34.3111180  70.2270440  26.2123990  41.5277960  80.8159570  17.7343960
  40.9095230  81.2809020  17.1706680  42.0401210  81.5087050  18.1513470
  36.3909720  80.3435440  24.4127560  36.0579100  80.9704360  25.0548630
  36.5676400  80.8697320  23.6329230  44.9043630  74.1580520  21.8803900
  44.1999200  74.4465410  22.4607010  45.2655790  74.9680630  21.5203460
  34.8222200  72.4150220  24.2424510  35.1639010  73.2592270  23.9478380
  33.8838010  72.5633960  24.3589850  35.6028820  82.3116240  26.2276740
  36.2202820  82.9867320  25.9461190  34.7421940  82.7204220  26.1364240
  30.8961160  81.5016100  15.1083590  30.5189140  81.9903200  14.3768490
  31.1534230  82.1741380  15.7390120  47.9730550  73.6035310  22.2713110
  47.0255460  73.6374290  22.4028540  48.2980540  74.4174260  22.6562470
  38.5050090  69.9032490  20.5669100  38.8125070  69.3479380  19.8504600
  37.5750790  70.0376950  20.3842090  45.3510570  82.3416000  17.9466730
  45.2406900  81.3990330  18.0716150  45.3478820  82.7031640  18.8329490
  43.4550590  80.5229620  24.1859170  43.8719380  80.3089730  23.3512630
  44.1790410  80.7802410  24.7567790  40.8930850  77.9681320  17.3029220
  39.9660130  77.9018700  17.5317690  41.0455670  78.9061450  17.1884460
  40.8799930  74.2398320  14.2996380  39.9403600  74.4012280  14.3848840
  41.1983190  74.9584000  13.7532370  47.4012690  78.9216840  24.2775410
  46.5731320  78.9909930  23.8025540  47.9963170  79.5071150  23.8091240
  44.9228140  79.5301620  17.8064470  44.3040560  79.1921170  17.1590770
  44.9052590  78.8861380  18.5143660  44.3654700  75.7086160  25.2230280
  43.9525880  76.5339870  25.4770270  43.6330650  75.1231200  25.0306640
  36.4987490  78.4946060  20.0848950  36.0944490  77.7823310  19.5894850
  36.5850610  78.1499300  20.9736990  36.9669190  82.1813620  22.2488160
  36.6697480  81.5759090  21.5695940  37.9169010  82.2190930  22.1377520
  35.2116110  75.2689270  23.8647990  35.7630700  75.3784610  23.0901240
  35.7259620  75.6426870  24.5803220  36.0587620  81.9195310  28.8995960
  35.1616150  82.1435280  29.1469360  36.0840490  82.0430250  27.9507360
  43.0992840  78.7688430  14.8137220  43.5386120  77.9310860  14.6675040
  43.8121260  79.4017830  14.9001360  34.8858840  78.7908630  27.4753330
  34.7466610  79.6631430  27.8440730  34.0040200  78.4481440  27.3301270
  41.2088220  83.7084500  18.7818460  41.6484130  84.4508830  18.3673850
  41.1475110  83.9511070  19.7057420  36.6839190  84.7330330  29.6838480
  36.6554620  85.1373280  28.8166910  36.5204160  83.8040690  29.5210080
  46.6809980  70.0231240  13.1278260  46.3682640  70.1158070  14.0277330
  47.4422450  70.6012270  13.0775690  33.1992120  77.3891040  17.5855600
  33.0789720  78.1153130  16.9736870  32.8893010  76.6193950  17.1083510
  30.8377490  80.5606180  23.3924240  30.9157910  80.6954950  22.4479960
  31.4519170  79.8522070  23.5852360  32.0825120  82.2606370  19.8030420
  31.6753200  82.4020960  18.9484020  32.9738130  81.9766530  19.6001630
  43.8758400  86.6953620  16.1381470  43.7159540  86.4056560  17.0363300
  43.7105110  85.9193750  15.6026700  36.3546780  86.4752150  17.9153090
  36.1789260  85.5587690  17.7020890  35.5002520  86.8339440  18.1550890
  43.5784530  84.2041180  14.6979470  42.8849690  84.2018470  14.0381750
  44.3207390  83.7800500  14.2673640  43.1434460  85.8303890  18.7727960
  43.5991410  85.0493270  19.0866580  43.4826980  86.5410710  19.3169140
  47.8911270  74.7602740  29.1052400  47.2755540  75.2682410  28.5767860
  47.5707690  73.8601070  29.0478340  30.8937010  81.6020350  25.9318700
  31.0568050  81.1325710  25.1138070  31.3589460  81.0943910  26.5967540
  35.6655780  70.7326110  20.9679270  35.2223930  71.5135650  20.6363790
  36.2240770  71.0556000  21.6750210  39.9525590  73.5994630  26.5714590
  39.4904960  73.8077650  27.3834530  39.5503700  72.7853980  26.2685260
  44.9530100  74.8203580  27.7011250  44.1023690  74.5209330  28.0220320
  44.7931890  75.0645590  26.7895070  42.0479810  76.3205330  29.8010040
  42.3733220  75.4869080  29.4612270  42.8360140  76.8433850  29.9488370
  38.7814600  70.3536810  15.8485100  38.1568780  70.3496680  16.5738410
  38.6944720  69.4867770  15.4521070  37.7031680  71.2773440  22.8268870
  38.0004010  72.1836270  22.7460890  38.2517240  70.7892220  22.2128440
  35.4570000  75.8559680  18.6960520  35.2310920  75.6396850  19.6007140
  34.6762530  76.2888140  18.3506490  42.6867760  75.8623050  17.2951170
  42.0876650  76.5858850  17.1114790  43.2347370  75.7999830  16.5127620
  37.8969210  76.7545260  29.3620790  37.8012810  75.8139990  29.2121190
  38.7401190  76.9760330  28.9668860  41.2932630  74.4986590  19.3254450
  41.6862200  74.8158790  18.5123140  41.6549480  73.6198470  19.4398970
  33.0279750  73.1658930  27.5154570  32.6343140  74.0134140  27.7227350
  32.3398150  72.5285300  27.7063210  39.6024800  73.2493900  30.5851310
  38.9123120  73.0566100  31.2197400  40.3457100  73.5328540  31.1175610
  30.3296800  71.0887390  21.5484650  30.0409850  71.6590250  22.2609630
  31.0742560  70.6091840  21.9115880  30.5167030  75.0307510  12.7587370
  30.4341700  75.9738270  12.9002360  30.1650090  74.8882420  11.8799720
  41.8787770  77.0892340  23.4205230  41.1468890  77.5979150  23.7695330
  41.4812110  76.2722320  23.1194010  38.3165160  73.7646540  21.8257720
  38.3201220  73.3236490  20.9762260  39.2116280  74.0863870  21.9329540
  34.1667540  73.6473030  20.7851930  33.8267590  74.1248260  21.5418980
  33.4044860  73.1938150  20.4253030  38.3785310  74.7658620  14.8164480
  38.4998130  74.7245100  15.7650300  37.9933820  75.6282770  14.6611210
  42.3413680  72.5426020  22.8328170  42.3586420  72.9934670  23.6770020
  42.0929260  71.6431660  23.0461610  37.3906810  77.0759760  14.2147780
  36.8223710  76.6278010  13.5883690  38.0995810  77.4352540  13.6812930
  45.7684430  69.9558200  28.6714550  46.0930200  69.2247860  29.1972530
  45.8040940  69.6371840  27.7695540  32.4675990  80.9771780  28.0914510
  32.0830780  80.3365450  28.6897470  32.7788180  81.6807900  28.6609240
  38.6173130  77.8248320  23.5723130  38.9843260  77.3506890  24.3184470
  38.4278190  78.6989890  23.9131470  31.4813620  72.5692010  19.7016600
  31.1960540  72.2047680  20.5395220  31.4192480  71.8372470  19.0879740
  36.4072500  76.8656960  25.8907340  36.1029570  77.7448940  26.1157700
  37.3618960  76.9256750  25.9264780  34.9354290  81.0717950  16.4874190
  34.1616550  80.5315570  16.3272910  35.6648920  80.5524560  16.1491950
  45.6942270  80.0683310  22.2800580  46.4141390  80.5638600  21.8896690
  45.4924090  79.3901200  21.6354450  41.1552210  71.4621270  16.4229970
  40.3416820  70.9634440  16.3475280  40.9614160  72.3019520  16.0066320
  41.0761070  80.1392370  28.1669580  41.0098380  79.2188040  27.9127170
  40.4466210  80.2367810  28.8814220  43.8700600  75.8340920  14.7192130
  44.7580220  76.1458150  14.5443470  43.8405690  74.9613170  14.3272710
  34.9791690  80.7398330  20.1253000  35.4970360  79.9366590  20.0709890
  34.5275710  80.6777470  20.9669830  39.8661190  82.0064610  15.3980300
  40.2076890  82.7506840  14.9023620  39.0373900  82.3195730  15.7605130
  32.4636230  77.7059700  27.0378700  32.1051170  78.3713550  27.6252040
  32.1690790  76.8743250  27.4091320  35.6649350  78.1643940  29.9218250
  35.3649490  78.3101120  29.0246070  36.4360590  77.6049230  29.8291640
  41.0077800  82.9612940  27.9173380  41.0222340  82.0293900  27.6992290
  40.3002900  83.0472700  28.5563150  46.1414870  77.1452760  14.1871990
  46.0578590  77.5766980  13.3368430  46.8609060  77.6051110  14.6198810
  47.2189010  79.6020280  27.2641960  46.4937200  80.1949060  27.0671350
  47.7464470  79.5943820  26.4655330  47.1702120  83.9995020  16.9154120
  46.5278280  83.3450640  17.1897840  46.7832780  84.4050110  16.1394790
  42.7488600  81.3280450  20.7625810  43.1012420  80.7308580  20.1027180
  41.8650930  81.0024680  20.9334060  38.8351880  82.0878140  18.1696220
  39.5223010  82.6347350  18.5503810  38.0484300  82.6318870  18.2045830
  30.9744280  77.7050960  13.6613300  31.8439130  77.9875760  13.9449220
  30.4834600  78.5186830  13.5462110  38.1379090  79.0924170  17.7821580
  38.5941870  79.9029420  18.0081770  37.7867300  78.7747310  18.6140070
  40.4411700  84.6030510  25.0113880  41.0853920  84.8089890  25.6887300
  40.8041140  83.8418910  24.5584730  34.0390870  69.4361820  18.2544100
  33.9105500  69.4279720  19.2029020  33.2152890  69.7744910  17.9035110
  41.7143780  82.6062860  23.7291330  42.3566010  81.9056020  23.8423500
  42.2393130  83.3861300  23.5488220  45.5599500  82.8911480  13.4530470
  45.3337080  82.1741920  14.0455110  45.1695700  82.6423920  12.6152220
  31.3415530  86.9178340  14.2274930  31.7013170  87.5167680  13.5732200
  31.2007870  87.4638230  15.0009960  31.0384800  71.1952940  27.7150800
  30.3243320  71.3949860  28.3203410  31.4579840  70.4192510  28.0865600
  45.1415750  80.8083420  15.1144630  44.8537450  81.2696110  15.9022510
  45.9367920  80.3481190  15.3828850  31.3257390  85.1833200  28.7017330
  31.4348510  84.2427940  28.5612720  30.6737950  85.4487950  28.0531060
  39.3169980  83.4549090  30.1015450  38.9966850  82.7358330  30.6461140
  38.6428340  84.1304160  30.1751510  37.3584150  84.3009540  15.0448600
  37.3494250  85.0339230  14.4293110  36.4382510  84.0541120  15.1375560
  32.9590790  79.5224430  15.7895360  32.3518740  80.2623330  15.7990660
  33.4340140  79.6123790  14.9633560  42.5323580  73.6875250  25.4652250
  42.9004400  72.8670460  25.7931820  41.6721780  73.7477140  25.8807900
  45.8985610  72.6432190  16.2739810  45.2698770  72.7477860  15.5598040
  45.4037530  72.8628970  17.0633690  40.3443750  84.3637780  13.7073790
  40.4455730  84.1601770  12.7775770  39.4445490  84.1096060  13.9121570
  37.8669640  74.9218140  17.6897690  37.1585790  75.3904480  18.1311300
  38.1514120  74.2640150  18.3242880  39.4925570  76.3414840  25.6890220
  39.9910820  76.8160660  26.3542070  39.6348520  75.4178360  25.8960250
  41.8985070  71.6468800  19.1293480  41.7752850  71.6654930  18.1802990
  42.8469630  71.6947740  19.2491880  38.9861860  86.8824100  18.4021460
  39.2403360  86.8445490  17.4800830  38.0374340  86.7557430  18.3949710
  36.0704660  73.2303220  15.0648400  36.9195190  73.6673370  14.9988590
  35.7035930  73.5423480  15.8920460  46.6992430  72.5582800  26.5318610
  46.1966030  73.2988200  26.8712420  47.5149090  72.9466800  26.2155400
  44.9914440  77.8015980  19.9779970  44.0504580  77.8166210  20.1527660
  45.3058510  77.0151940  20.4240270  34.9696080  79.4835580  13.5383930
  35.7359350  79.3716940  14.1009360  35.0470770  78.7873550  12.8860700
  33.6642840  76.9160650  14.2216820  33.7446430  75.9688160  14.3334220
  34.5562590  77.2467530  14.3277480  46.9940020  84.9724830  21.6534230
  47.1187440  85.7956000  22.1258040  47.8605580  84.7615560  21.3058380
  34.4657550  87.0656040  21.3251360  35.2020030  86.5171500  21.5959930
  34.8498470  87.9312050  21.1857350  31.3503030  83.1329610  17.1992870
  30.4242810  83.3750750  17.1898280  31.8159460  83.9603870  17.0777620
  33.4715830  86.2502110  30.5136940  34.2728560  86.5714160  30.9272340
  32.9567650  85.8897690  31.2356850  37.5759860  86.2386350  13.1476930
  38.3688470  86.5275180  12.6958720  37.0564210  85.8078520  12.4689410
  42.3080460  82.3581980  30.4612350  41.7018620  82.3813580  29.7208100
  42.0034570  81.6265020  30.9979600  46.6290030  85.4656480  14.5713670
  46.3431540  85.0521620  13.7567850  46.4309580  86.3944190  14.4514190
  31.1913640  78.7375570  29.4572990  31.6952660  78.1582850  30.0289220
  30.4521060  79.0215800  29.9949360  38.0937260  81.4589760  13.0119280
  37.9887900  80.8442110  13.7380660  37.9261480  80.9355650  12.2282290
  38.2451580  80.1446560  28.9908510  37.4797250  80.7131560  28.9063180
  38.4267540  79.8522770  28.0976740  41.3339990  80.5209790  13.6161270
  40.7850090  80.9679090  14.2604010  41.9559250  80.0159040  14.1398940
  33.2236720  76.8805160  30.3523060  33.2642060  76.5819030  31.2608290
  34.0782220  77.2812770  30.1930580  37.0015110  79.4800710  15.5126570
  37.4231530  79.3140580  16.3557960  37.1265950  78.6700940  15.0181710
  35.1642530  75.4597260  28.3197550  34.6338990  74.9688210  27.6920890
  35.8330600  75.8881460  27.7855480  39.5142750  78.5038320  12.7603670
  40.0348410  77.7887340  12.3944820  40.1611150  79.1424190  13.0604180
  44.0620590  79.9266720  28.0838740  44.4761610  80.0811800  28.9329160
  43.1271590  80.0521940  28.2464520  44.5342760  77.2662880  30.0877890
  45.1163530  76.5115200  29.9998370  44.7104530  77.7970320  29.3109370
  35.6514830  72.4259630  28.3994840  35.5571700  71.8080380  27.6745710
  35.0712220  73.1525920  28.1724750  38.4176270  70.9832870  25.4322230
  37.9693570  71.0057130  24.5867780  37.7841470  70.5851890  26.0292530
  38.8235820  79.8787200  26.0534670  39.2423930  80.7219930  25.8810910
  37.9044450  80.0159240  25.8241450  41.1599720  77.6103380  27.4372510
  41.2795930  77.0144520  28.1767350  42.0193720  77.6473070  27.0173810
  43.4987620  78.1640570  26.0135020  42.9722840  78.6883190  25.4100160
  43.8418960  78.7967960  26.6444750  35.8974010  75.5533940  12.4584730
  35.6963070  74.6901300  12.8198070  35.7266060  75.4667300  11.5206330
  36.6743240  86.1840210  27.1692400  36.1364330  86.9086270  26.8501100
  36.9277200  85.7070550  26.3789740  37.9268490  74.1524730  28.6948330
  38.5168180  73.8440580  29.3826150  37.1088730  73.6804480  28.8508230
  42.7461920  73.7690540  28.9281350  42.0577440  73.1072080  28.8631340
  43.4667940  73.3228810  29.3729810  43.3762320  70.3642170  14.9871610
  43.6564610  69.5210070  15.3431030  42.6028050  70.5965280  15.5010360
  34.6956810  72.6534560  12.4462610  34.9982710  72.6601990  11.5381760
  35.4351400  72.3032420  12.9430270  39.5305450  87.4191420  27.4279050
  39.4564150  88.3226560  27.7351420  38.6284290  87.1003320  27.4001120
  37.9141740  71.5969180  13.4318810  37.5663740  70.9193170  12.8521260
  38.1154510  71.1358690  14.2462200  40.0790780  86.5849930  15.0505410
  40.9741570  86.9234900  15.0724170  40.1108410  85.8629340  14.4229690
  33.7186940  81.9576980  13.2792410  34.1561810  82.5006650  13.9349990
  34.2034670  81.1323930  13.2888750  30.9332740  84.7466010  20.7312670
  31.2635750  83.8787070  20.4991310  31.3623740  84.9524530  21.5617630
  35.5294660  83.0775020  18.3914640  35.2290200  82.9539990  19.2918550
  35.4232150  82.2183610  17.9830370  31.4222950  85.6136600  23.4694300
  30.9853940  85.7937400  24.3018450  31.9900630  86.3711220  23.3276020
  48.2986580  82.8571420  13.0941320  47.4679540  82.9248070  13.5648550
  48.4758410  83.7475540  12.7908180  47.7543040  79.6018900  15.5975520
  48.5161950  80.1715550  15.7035210  47.7697410  79.0346100  16.3683830
  31.2547380  78.1256830  19.8283180  30.5996220  77.8568470  19.1842880
  32.0925330  78.0161310  19.3785160  48.7603010  80.4569000  20.4417450
  49.1311840  79.6736320  20.0353420  49.4004940  81.1458100  20.2634750
  47.8062210  79.8953270  12.7548040  48.0811050  80.8032150  12.6267260
  47.6172950  79.8315800  13.6910030  44.2037820  72.9198120  14.0501670
  44.6222700  72.7329100  13.2098330  43.8973880  72.0677170  14.3604600
  47.7027550  77.8322260  17.7477470  47.3271150  77.0650190  17.3158760
  46.9730670  78.2144960  18.2352400  32.2923310  78.5109400  24.3686520
  32.6596350  78.4236800  25.2482540  31.7234130  77.7475950  24.2693380
  31.8439310  75.4218490  28.2744940  30.9495360  75.3885250  28.6138650
  32.3836860  75.6205280  29.0396190  45.5315240  72.2050210  30.1596690
  46.4085420  72.2133610  30.5430690  45.5436080  71.4681050  29.5489040
  30.4685460  75.3355760  15.7708510  29.5649540  75.5985960  15.5960170
  30.9526080  75.6066930  14.9908470  46.9778510  76.0579750  21.0484710
  47.5015990  75.5642400  20.4174880  47.5637930  76.1930110  21.7932280
  47.1568230  76.1419620  24.5704260  46.2070940  76.1083160  24.6849250
  47.3381240  77.0519730  24.3354030  33.0112670  74.3921300  13.6802890
  33.7204370  73.9704520  13.1950170  32.2952610  74.4596530  13.0486240
  32.6586830  70.4460630  12.7205540  33.3814960  70.9869570  13.0386760
  32.9311350  70.1724050  11.8447080  46.4678480  75.3153100  16.9877120
  46.9637600  75.0823970  17.7726000  46.2694550  74.4764940  16.5714760
  32.3479020  69.6966820  22.6228160  32.9955210  69.1464200  22.1823320
  32.7680860  69.9509970  23.4443970  47.8965640  73.9514050  19.5214800
  47.7864920  73.7970090  20.4597070  48.6573230  73.4234990  19.2790210
  46.2431360  69.8908180  25.9797800  46.8803580  70.5042320  26.3456990
  46.3906250  69.9268840  25.0347030  48.7855910  71.7821970  12.7620940
  49.7105220  71.6503150  12.5539230  48.7631700  71.8614790  13.7157390
  48.8594400  72.5532630  15.3877650  48.0645900  72.4877750  15.9170560
  49.0637680  73.4883270  15.3763000  45.8012820  86.5924180  19.3816040
  46.3971890  86.2708750  18.7050460  46.0590970  86.1196000  20.1729310
  32.1011020  69.8522490  25.3653480  31.7525840  70.3086310  26.1311660
  31.7698720  68.9579620  25.4475910  33.7075390  83.0242090  29.5306670
  33.6645020  82.6535000  30.4121130  33.8386400  83.9619660  29.6708490
  37.4081420  84.5801680  25.1316390  37.1672780  84.8476240  24.2446910
  38.3484060  84.7507410  25.1867250  39.6135840  71.0434370  28.8872900
  39.5524730  71.6356200  29.6368310  40.5536220  70.9360330  28.7423160
  42.2510400  70.7004430  28.5265190  42.8650810  71.0183720  27.8646270
  42.7959960  70.2153020  29.1461050  32.7731660  69.3798690  28.6404250
  33.3214650  69.1986740  27.8770360  32.8386970  68.5892800  29.1760560
  33.5463420  85.9704340  26.6504450  32.9523740  85.8389040  27.3894490
  33.5387260  85.1342480  26.1846550  42.9918440  69.2636570  24.8534480
  42.1178280  69.5971680  24.6507410  42.8829190  68.7909750  25.6786350
  43.8990420  71.4707440  26.2376200  43.5703780  70.6559200  25.8577930
  44.8472720  71.4277250  26.1141890  46.3525030  87.2419480  23.2113770
  45.8928000  87.9935290  22.8371790  45.7237490  86.5225950  23.1528570
  33.1775650  83.3362720  25.6012490  32.4509710  82.7168010  25.5338440
  33.2384800  83.7303330  24.7310570  36.7820750  85.5507720  22.3861900
  37.2985770  84.9395080  21.8610160  37.4318130  86.0536500  22.8772910
  39.5216250  86.4416210  23.2130880  39.8094060  86.1870510  22.3363890
  40.0339470  85.8893570  23.8036450  40.7393260  70.1806410  23.7927390
  39.9565050  70.6551910  24.0724150  40.4456190  69.2761240  23.6840570
  45.2914330  70.8829510  21.8376480  45.7322420  70.8274610  20.9898080
  45.0221920  71.7987520  21.9086660  47.1552900  70.5144750  19.8485300
  47.0941300  69.5705970  19.7016320  47.9344930  70.6224840  20.3938760
  31.4605650  86.6537110  18.8109250  31.2927690  86.0207790  19.5091140
  30.5940160  86.8596510  18.4603440  32.0833670  70.4853890  16.3141110
  32.8413030  70.5982770  15.7405140  31.6210840  71.3223090  16.2684540
  38.6247480  72.5993160  19.3043420  37.8121990  72.2250050  18.9639300
  39.1289120  71.8438240  19.6064610  43.1272460  69.2635610  20.5426490
  43.7301830  69.8355820  21.0175010  42.3865450  69.8275050  20.3200390
  46.2707060  69.6657170  15.8166770  46.4657690  70.5640620  16.0834200
  45.4836930  69.4344250  16.3099720  33.0668350  85.3470340  16.2559390
  32.5415970  85.7278370  15.5521350  32.9912930  85.9721110  16.9769100
  34.4558820  71.0117940  14.8543080  34.9851580  70.2247740  14.7251030
  35.0887140  71.6909130  15.0878610  36.6496660  70.7493080  17.9088470
  36.0199400  70.0480390  18.0758600  36.1101800  71.5097210  17.6921630
  39.5888610  87.3632310  30.5799080  40.5155920  87.1276580  30.6235040
  39.5739040  88.1904310  30.0985110  47.8233670  86.9057880  17.5773330
  47.9985860  86.2195620  16.9334250  47.1255240  87.4304930  17.1850000
  36.7752220  70.0277060  30.3440960  36.4936490  70.5310660  29.5801780
  37.1571920  69.2298810  29.9783090  35.6661320  87.2952720  15.1308640
  36.3980140  87.0112000  14.5832530  35.9254990  87.0566000  16.0208020
  34.8276110  83.4117450  15.1354970  34.1984990  83.8802550  15.6840800
  34.9423940  82.5666670  15.5701160  43.3767680  69.4430640  30.9221430
  43.2633130  69.7625250  31.8172950  44.1937420  69.8443150  30.6258710
  46.1566170  86.5902170  30.4040120  46.9491490  86.0951400  30.1966080
  46.4499320  87.2692310  31.0115730  40.4143870  79.2402130   3.1665440
  39.6385970  78.7602570   3.4564010  41.0656800  78.5607780   2.9921600
  34.4309700  79.5521940   4.0441200  33.5994580  79.2970650   4.4437710
  35.0390680  79.6232710   4.7799120  44.4351300  83.6462320   1.9464570
  43.9732830  82.8749560   2.2751740  45.2476850  83.6728390   2.4517020
  34.4110960  83.5862030   4.2399220  34.7139000  82.6959770   4.0609440
  35.1554550  84.1432250   4.0121470  30.8034660  77.1129480   3.7123290
  31.3750770  76.3451680   3.7126930  30.8036200  77.4118240   2.8029900
  39.8552860  81.9159320   3.1735600  39.7861140  80.9749260   3.0124730
  40.6172720  82.0060730   3.7458170  32.0459530  72.5213840   5.4992220
  31.8662370  71.6239590   5.7794980  31.6439610  73.0685710   6.1739170
  40.8858030  74.7229700   3.4004530  41.2622850  73.8501580   3.2878200
  40.7877540  75.0588400   2.5094970  32.6646200  75.0174340   4.1074560
  33.3456310  75.2812710   4.7261960  32.3494250  74.1775210   4.4412570
  36.8570770  76.0641700   3.1947150  37.3648990  76.5622670   3.8352170
  37.3884010  75.2876900   3.0186510  48.9581700  74.2346890   6.8976500
  48.2533870  74.6228600   6.3791610  49.2239620  74.9297180   7.4997430
  35.1406870  70.7040260   7.4610570  35.1425310  71.2212650   6.6556470
  34.3111180  70.2270440   7.4380500  36.3909720  80.3435440   5.6384070
  36.0579100  80.9704360   6.2805140  36.5676400  80.8697320   4.8585740
  44.9043630  74.1580520   3.1060410  44.1999200  74.4465410   3.6863520
  45.2655790  74.9680630   2.7459970  34.8222200  72.4150220   5.4681020
  35.1639010  73.2592270   5.1734890  33.8838010  72.5633960   5.5846360
  35.6028820  82.3116240   7.4533250  36.2202820  82.9867320   7.1717700
  34.7421940  82.7204220   7.3620750  46.5206410  83.7755650   5.3687890
  45.8369930  84.4454760   5.3604560  47.0600700  83.9736300   4.6032750
  47.9730550  73.6035310   3.4969620  47.0255460  73.6374290   3.6285050
  48.2980540  74.4174260   3.8818980  44.0565150  85.6199780   4.0833070
  44.0692310  85.2162070   3.2155330  43.5040370  86.3947070   3.9794500
  43.4550590  80.5229620   5.4115680  43.8719380  80.3089730   4.5769140
  44.1790410  80.7802410   5.9824300  47.4012690  78.9216840   5.5031920
  46.5731320  78.9909930   5.0282050  47.9963170  79.5071150   5.0347750
  44.3654700  75.7086160   6.4486790  43.9525880  76.5339870   6.7026780
  43.6330650  75.1231200   6.2563150  36.9669190  82.1813620   3.4744670
  36.6697480  81.5759090   2.7952450  37.9169010  82.2190930   3.3634030
  35.2116110  75.2689270   5.0904500  35.7630700  75.3784610   4.3157750
  35.7259620  75.6426870   5.8059730  45.0554800  85.7545490   7.1367770
  44.5785360  86.5617680   6.9440380  44.3716590  85.1023820   7.2893980
  36.0587620  81.9195310  10.1252470  35.1616150  82.1435280  10.3725870
  36.0840490  82.0430250   9.1763870  34.8858840  78.7908630   8.7009840
  34.7466610  79.6631430   9.0697240  34.0040200  78.4481440   8.5557780
  36.6839190  84.7330330  10.9094990  36.6554620  85.1373280  10.0423420
  36.5204160  83.8040690  10.7466590  48.6354010  85.5157430  12.2059160
  49.1113730  85.9940320  12.8848240  49.2561170  85.4474920  11.4804660
  30.8377490  80.5606180   4.6180750  30.9157910  80.6954950   3.6736470
  31.4519170  79.8522070   4.8108870  48.0387260  82.7070280   9.3659170
  48.1650320  82.4682160   8.4476350  48.0808640  81.8754820   9.8381250
  41.9004000  86.4098280   7.9353980  42.4148670  86.3206290   8.7376410
  41.0573080  86.7557980   8.2281890  47.8911270  74.7602740  10.3308910
  47.2755540  75.2682410   9.8024370  47.5707690  73.8601070  10.2734850
  30.8937010  81.6020350   7.1575210  31.0568050  81.1325710   6.3394580
  31.3589460  81.0943910   7.8224050  35.6655780  70.7326110   2.1935780
  35.2223930  71.5135650   1.8620300  36.2240770  71.0556000   2.9006720
  39.9525590  73.5994630   7.7971100  39.4904960  73.8077650   8.6091040
  39.5503700  72.7853980   7.4941770  44.9530100  74.8203580   8.9267760
  44.1023690  74.5209330   9.2476830  44.7931890  75.0645590   8.0151580
  42.0479810  76.3205330  11.0266550  42.3733220  75.4869080  10.6868780
  42.8360140  76.8433850  11.1744880  37.7031680  71.2773440   4.0525380
  38.0004010  72.1836270   3.9717400  38.2517240  70.7892220   3.4384950
  37.8969210  76.7545260  10.5877300  37.8012810  75.8139990  10.4377700
  38.7401190  76.9760330  10.1925370  33.0279750  73.1658930   8.7411080
  32.6343140  74.0134140   8.9483860  32.3398150  72.5285300   8.9319720
  39.6024800  73.2493900  11.8107820  38.9123120  73.0566100  12.4453910
  40.3457100  73.5328540  12.3432120  30.3296800  71.0887390   2.7741160
  30.0409850  71.6590250   3.4866140  31.0742560  70.6091840   3.1372390
  41.8787770  77.0892340   4.6461740  41.1468890  77.5979150   4.9951840
  41.4812110  76.2722320   4.3450520  38.3165160  73.7646540   3.0514230
  38.3201220  73.3236490   2.2018770  39.2116280  74.0863870   3.1586050
  34.1667540  73.6473030   2.0108440  33.8267590  74.1248260   2.7675490
  33.4044860  73.1938150   1.6509540  42.3413680  72.5426020   4.0584680
  42.3586420  72.9934670   4.9026530  42.0929260  71.6431660   4.2718120
  45.7684430  69.9558200   9.8971060  46.0930200  69.2247860  10.4229040
  45.8040940  69.6371840   8.9952050  32.4675990  80.9771780   9.3171020
  32.0830780  80.3365450   9.9153980  32.7788180  81.6807900   9.8865750
  38.6173130  77.8248320   4.7979640  38.9843260  77.3506890   5.5440980
  38.4278190  78.6989890   5.1387980  36.4072500  76.8656960   7.1163850
  36.1029570  77.7448940   7.3414210  37.3618960  76.9256750   7.1521290
  45.6942270  80.0683310   3.5057090  46.4141390  80.5638600   3.1153200
  45.4924090  79.3901200   2.8610960  41.0761070  80.1392370   9.3926090
  41.0098380  79.2188040   9.1383680  40.4466210  80.2367810  10.1070730
  32.4636230  77.7059700   8.2635210  32.1051170  78.3713550   8.8508550
  32.1690790  76.8743250   8.6347830  35.6649350  78.1643940  11.1474760
  35.3649490  78.3101120  10.2502580  36.4360590  77.6049230  11.0548150
  41.0077800  82.9612940   9.1429890  41.0222340  82.0293900   8.9248800
  40.3002900  83.0472700   9.7819660  47.2189010  79.6020280   8.4898470
  46.4937200  80.1949060   8.2927860  47.7464470  79.5943820   7.6911840
  40.4411700  84.6030510   6.2370390  41.0853920  84.8089890   6.9143810
  40.8041140  83.8418910   5.7841240  41.7143780  82.6062860   4.9547840
  42.3566010  81.9056020   5.0680010  42.2393130  83.3861300   4.7744730
  43.4881400  83.4057760   8.1583900  43.8237640  83.9924450   8.8361820
  42.5681740  83.2750470   8.3881690  31.0384800  71.1952940   8.9407310
  30.3243320  71.3949860   9.5459920  31.4579840  70.4192510   9.3122110
  31.3257390  85.1833200   9.9273840  31.4348510  84.2427940   9.7869230
  30.6737950  85.4487950   9.2787570  39.3169980  83.4549090  11.3271960
  38.9966850  82.7358330  11.8717650  38.6428340  84.1304160  11.4008020
  42.5323580  73.6875250   6.6908760  42.9004400  72.8670460   7.0188330
  41.6721780  73.7477140   7.1064410  39.4925570  76.3414840   6.9146730
  39.9910820  76.8160660   7.5798580  39.6348520  75.4178360   7.1216760
  46.6992430  72.5582800   7.7575120  46.1966030  73.2988200   8.0968930
  47.5149090  72.9466800   7.4411910  46.9940020  84.9724830   2.8790740
  47.1187440  85.7956000   3.3514550  47.8605580  84.7615560   2.5314890
  34.4657550  87.0656040   2.5507870  35.2020030  86.5171500   2.8216440
  34.8498470  87.9312050   2.4113860  33.4715830  86.2502110  11.7393450
  34.2728560  86.5714160  12.1528850  32.9567650  85.8897690  12.4613360
  42.3080460  82.3581980  11.6868860  41.7018620  82.3813580  10.9464610
  42.0034570  81.6265020  12.2236110  43.7380830  86.0862270  10.2978270
  44.6902580  86.0020290  10.2478510  43.5909050  86.7503980  10.9712060
  31.1913640  78.7375570  10.6829500  31.6952660  78.1582850  11.2545730
  30.4521060  79.0215800  11.2205870  38.2451580  80.1446560  10.2165020
  37.4797250  80.7131560  10.1319690  38.4267540  79.8522770   9.3233250
  45.3874930  81.8751890  10.7740040  46.1284400  82.2127650  10.2707500
  44.6247610  82.0443950  10.2209810  33.2236720  76.8805160  11.5779570
  33.2642060  76.5819030  12.4864800  34.0782220  77.2812770  11.4187090
  35.1642530  75.4597260   9.5454060  34.6338990  74.9688210   8.9177400
  35.8330600  75.8881460   9.0111990  44.0620590  79.9266720   9.3095250
  44.4761610  80.0811800  10.1585670  43.1271590  80.0521940   9.4721030
  44.5342760  77.2662880  11.3134400  45.1163530  76.5115200  11.2254880
  44.7104530  77.7970320  10.5365880  35.6514830  72.4259630   9.6251350
  35.5571700  71.8080380   8.9002220  35.0712220  73.1525920   9.3981260
  38.4176270  70.9832870   6.6578740  37.9693570  71.0057130   5.8124290
  37.7841470  70.5851890   7.2549040  38.8235820  79.8787200   7.2791180
  39.2423930  80.7219930   7.1067420  37.9044450  80.0159240   7.0497960
  41.1599720  77.6103380   8.6629020  41.2795930  77.0144520   9.4023860
  42.0193720  77.6473070   8.2430320  43.4987620  78.1640570   7.2391530
  42.9722840  78.6883190   6.6356670  43.8418960  78.7967960   7.8701260
  36.6743240  86.1840210   8.3948910  36.1364330  86.9086270   8.0757610
  36.9277200  85.7070550   7.6046250  37.9268490  74.1524730   9.9204840
  38.5168180  73.8440580  10.6082660  37.1088730  73.6804480  10.0764740
  42.7461920  73.7690540  10.1537860  42.0577440  73.1072080  10.0887850
  43.4667940  73.3228810  10.5986320  39.5305450  87.4191420   8.6535560
  39.4564150  88.3226560   8.9607930  38.6284290  87.1003320   8.6257630
  30.9332740  84.7466010   1.9569180  31.2635750  83.8787070   1.7247820
  31.3623740  84.9524530   2.7874140  31.4222950  85.6136600   4.6950810
  30.9853940  85.7937400   5.5274960  31.9900630  86.3711220   4.5532530
  47.0585130  85.1153600   8.9828120  46.4587120  85.1746160   8.2392040
  47.1879030  84.1758580   9.1124970  45.7436770  81.8405580   7.0804280
  44.9296610  82.2702740   7.3430070  46.1510970  82.4523990   6.4673330
  32.2923310  78.5109400   5.5943030  32.6596350  78.4236800   6.4739050
  31.7234130  77.7475950   5.4949890  47.0927170  76.9793780   8.6073500
  46.8613260  76.7506530   7.7071450  47.3531720  77.8993330   8.5618390
  31.8439310  75.4218490   9.5001450  30.9495360  75.3885250   9.8395160
  32.3836860  75.6205280  10.2652700  45.5315240  72.2050210  11.3853200
  46.4085420  72.2133610  11.7687200  45.5436080  71.4681050  10.7745550
  46.9778510  76.0579750   2.2741220  47.5015990  75.5642400   1.6431390
  47.5637930  76.1930110   3.0188790  47.1568230  76.1419620   5.7960770
  46.2070940  76.1083160   5.9105760  47.3381240  77.0519730   5.5610540
  32.3479020  69.6966820   3.8484670  32.9955210  69.1464200   3.4079830
  32.7680860  69.9509970   4.6700480  46.2431360  69.8908180   7.2054310
  46.8803580  70.5042320   7.5713500  46.3906250  69.9268840   6.2603540
  32.1011020  69.8522490   6.5909990  31.7525840  70.3086310   7.3568170
  31.7698720  68.9579620   6.6732420  33.7075390  83.0242090  10.7563180
  33.6645020  82.6535000  11.6377640  33.8386400  83.9619660  10.8965000
  37.4081420  84.5801680   6.3572900  37.1672780  84.8476240   5.4703420
  38.3484060  84.7507410   6.4123760  39.6135840  71.0434370  10.1129410
  39.5524730  71.6356200  10.8624820  40.5536220  70.9360330   9.9679670
  42.2510400  70.7004430   9.7521700  42.8650810  71.0183720   9.0902780
  42.7959960  70.2153020  10.3717560  48.6685580  86.5996060   7.1583540
  48.1743860  86.9964930   6.4410670  48.0598870  85.9745270   7.5520820
  32.7731660  69.3798690   9.8660760  33.3214650  69.1986740   9.1026870
  32.8386970  68.5892800  10.4017070  33.5463420  85.9704340   7.8760960
  32.9523740  85.8389040   8.6151000  33.5387260  85.1342480   7.4103060
  42.9918440  69.2636570   6.0790990  42.1178280  69.5971680   5.8763920
  42.8829190  68.7909750   6.9042860  43.8990420  71.4707440   7.4632710
  43.5703780  70.6559200   7.0834440  44.8472720  71.4277250   7.3398400
  46.3525030  87.2419480   4.4370280  45.8928000  87.9935290   4.0628300
  45.7237490  86.5225950   4.3785080  33.1775650  83.3362720   6.8269000
  32.4509710  82.7168010   6.7594950  33.2384800  83.7303330   5.9567080
  36.7820750  85.5507720   3.6118410  37.2985770  84.9395080   3.0866670
  37.4318130  86.0536500   4.1029420  39.5216250  86.4416210   4.4387390
  39.8094060  86.1870510   3.5620400  40.0339470  85.8893570   5.0292960
  40.7393260  70.1806410   5.0183900  39.9565050  70.6551910   5.2980660
  40.4456190  69.2761240   4.9097080  45.2914330  70.8829510   3.0632990
  45.7322420  70.8274610   2.2154590  45.0221920  71.7987520   3.1343170
  43.1272460  69.2635610   1.7683000  43.7301830  69.8355820   2.2431520
  42.3865450  69.8275050   1.5456900  39.5888610  87.3632310  11.8055590
  40.5155920  87.1276580  11.8491550  39.5739040  88.1904310  11.3241620
  36.7752220  70.0277060  11.5697470  36.4936490  70.5310660  10.8058290
  37.1571920  69.2298810  11.2039600  43.3767680  69.4430640  12.1477940
  43.2633130  69.7625250  13.0429460  44.1937420  69.8443150  11.8515220
  46.1566170  86.5902170  11.6296630  46.9491490  86.0951400  11.4222590
  46.4499320  87.2692310  12.2372240  42.2825830  58.6879620 151.4804090
  42.2019880  57.7734230 151.2095800  41.8690250  59.1846690 150.7743800
  40.4143870  60.4658640 153.3613360  39.6385970  59.9859080 153.6511930
  41.0656800  59.7864290 153.1869520  44.4351300  64.8718830 152.1412490
  43.9732830  64.1006070 152.4699660  45.2476850  64.8984900 152.6464940
  34.4110960  64.8118540 154.4347140  34.7139000  63.9216280 154.2557360
  35.1554550  65.3688760 154.2069390  32.8401650  55.7380340 148.0231510
  31.9518350  56.0796310 147.9211390  33.1242840  55.5380660 147.1312340
  30.8034660  58.3385990 153.9071210  31.3750770  57.5708190 153.9074850
  30.8036200  58.6374750 152.9977820  40.6614610  67.1576840 151.7616480
  40.0426050  67.6134340 151.1910920  41.5166390  67.3128300 151.3606180
  39.8552860  63.1415830 153.3683520  39.7861140  62.2005770 153.2072650
  40.6172720  63.2317240 153.9406090  40.8858030  55.9486210 153.5952450
  41.2622850  55.0758090 153.4826120  40.7877540  56.2844910 152.7042890
  35.0163040  54.3211840 149.0569890  35.1229790  55.2215570 149.3638650
  34.1055400  54.2729810 148.7664540  44.6682150  53.4436650 150.5280790
  45.4891770  52.9533220 150.5706270  44.7016230  54.0334310 151.2812630
  36.8570770  57.2898210 153.3895070  37.3648990  57.7879180 154.0300090
  37.3884010  56.5133410 153.2134430  41.5277960  62.0416080 149.1548390
  40.9095230  62.5065530 148.5911110  42.0401210  62.7343560 149.5717900
  44.9043630  55.3837030 153.3008330  44.1999200  55.6721920 153.8811440
  45.2655790  56.1937140 152.9407890  30.8961160  62.7272610 146.5288020
  30.5189140  63.2159710 145.7972920  31.1534230  63.3997890 147.1594550
  47.9730550  54.8291820 153.6917540  47.0255460  54.8630800 153.8232970
  48.2980540  55.6430770 154.0766900  38.5050090  51.1289000 151.9873530
  38.8125070  50.5735890 151.2709030  37.5750790  51.2633460 151.8046520
  44.0565150  66.8456290 154.2780990  44.0692310  66.4418580 153.4103250
  43.5040370  67.6203580 154.1742420  45.3510570  63.5672510 149.3671160
  45.2406900  62.6246840 149.4920580  45.3478820  63.9288150 150.2533920
  40.8930850  59.1937830 148.7233650  39.9660130  59.1275210 148.9522120
  41.0455670  60.1317960 148.6088890  40.8799930  55.4654830 145.7200810
  39.9403600  55.6268790 145.8053270  41.1983190  56.1840510 145.1736800
  44.9228140  60.7558130 149.2268900  44.3040560  60.4177680 148.5795200
  44.9052590  60.1117890 149.9348090  36.4987490  59.7202570 151.5053380
  36.0944490  59.0079820 151.0099280  36.5850610  59.3755810 152.3941420
  36.9669190  63.4070130 153.6692590  36.6697480  62.8015600 152.9900370
  37.9169010  63.4447440 153.5581950  43.0992840  59.9944940 146.2341650
  43.5386120  59.1567370 146.0879470  43.8121260  60.6274340 146.3205790
  41.2088220  64.9341010 150.2022890  41.6484130  65.6765340 149.7878280
  41.1475110  65.1767580 151.1261850  46.6809980  51.2487750 144.5482690
  46.3682640  51.3414580 145.4481760  47.4422450  51.8268780 144.4980120
  33.1992120  58.6147550 149.0060030  33.0789720  59.3409640 148.3941300
  32.8893010  57.8450460 148.5287940  32.0825120  63.4862880 151.2234850
  31.6753200  63.6277470 150.3688450  32.9738130  63.2023040 151.0206060
  43.8758400  67.9210130 147.5585900  43.7159540  67.6313070 148.4567730
  43.7105110  67.1450260 147.0231130  36.3546780  67.7008660 149.3357520
  36.1789260  66.7844200 149.1225320  35.5002520  68.0595950 149.5755320
  43.5784530  65.4297690 146.1183900  42.8849690  65.4274980 145.4586180
  44.3207390  65.0057010 145.6878070  43.1434460  67.0560400 150.1932390
  43.5991410  66.2749780 150.5071010  43.4826980  67.7667220 150.7373570
  35.6655780  51.9582620 152.3883700  35.2223930  52.7392160 152.0568220
  36.2240770  52.2812510 153.0954640  38.7814600  51.5793320 147.2689530
  38.1568780  51.5753190 147.9942840  38.6944720  50.7124280 146.8725500
  37.7031680  52.5029950 154.2473300  38.0004010  53.4092780 154.1665320
  38.2517240  52.0148730 153.6332870  35.4570000  57.0816190 150.1164950
  35.2310920  56.8653360 151.0211570  34.6762530  57.5144650 149.7710920
  42.6867760  57.0879560 148.7155600  42.0876650  57.8115360 148.5319220
  43.2347370  57.0256340 147.9332050  41.2932630  55.7243100 150.7458880
  41.6862200  56.0415300 149.9327570  41.6549480  54.8454980 150.8603400
  30.3296800  52.3143900 152.9689080  30.0409850  52.8846760 153.6814060
  31.0742560  51.8348350 153.3320310  30.5167030  56.2564020 144.1791800
  30.4341700  57.1994780 144.3206790  30.1650090  56.1138930 143.3004150
  38.3165160  54.9903050 153.2462150  38.3201220  54.5493000 152.3966690
  39.2116280  55.3120380 153.3533970  34.1667540  54.8729540 152.2056360
  33.8267590  55.3504770 152.9623410  33.4044860  54.4194660 151.8457460
  38.3785310  55.9915130 146.2368910  38.4998130  55.9501610 147.1854730
  37.9933820  56.8539280 146.0815640  37.3906810  58.3016270 145.6352210
  36.8223710  57.8534520 145.0088120  38.0995810  58.6609050 145.1017360
  31.4813620  53.7948520 151.1221030  31.1960540  53.4304190 151.9599650
  31.4192480  53.0628980 150.5084170  34.9354290  62.2974460 147.9078620
  34.1616550  61.7572080 147.7477340  35.6648920  61.7781070 147.5696380
  45.6942270  61.2939820 153.7005010  46.4141390  61.7895110 153.3101120
  45.4924090  60.6157710 153.0558880  41.1552210  52.6877780 147.8434400
  40.3416820  52.1890950 147.7679710  40.9614160  53.5276030 147.4270750
  43.8700600  57.0597430 146.1396560  44.7580220  57.3714660 145.9647900
  43.8405690  56.1869680 145.7477140  34.9791690  61.9654840 151.5457430
  35.4970360  61.1623100 151.4914320  34.5275710  61.9033980 152.3874260
  39.8661190  63.2321120 146.8184730  40.2076890  63.9763350 146.3228050
  39.0373900  63.5452240 147.1809560  46.1414870  58.3709270 145.6076420
  46.0578590  58.8023490 144.7572860  46.8609060  58.8307620 146.0403240
  47.1702120  65.2251530 148.3358550  46.5278280  64.5707150 148.6102270
  46.7832780  65.6306620 147.5599220  42.7488600  62.5536960 152.1830240
  43.1012420  61.9565090 151.5231610  41.8650930  62.2281190 152.3538490
  38.8351880  63.3134650 149.5900650  39.5223010  63.8603860 149.9708240
  38.0484300  63.8575380 149.6250260  30.9744280  58.9307470 145.0817730
  31.8439130  59.2132270 145.3653650  30.4834600  59.7443340 144.9666540
  38.1379090  60.3180680 149.2026010  38.5941870  61.1285930 149.4286200
  37.7867300  60.0003820 150.0344500  34.0390870  50.6618330 149.6748530
  33.9105500  50.6536230 150.6233450  33.2152890  51.0001420 149.3239540
  45.5599500  64.1167990 144.8734900  45.3337080  63.3998430 145.4659540
  45.1695700  63.8680430 144.0356650  31.3415530  68.1434850 145.6479360
  31.7013170  68.7424190 144.9936630  31.2007870  68.6894740 146.4214390
  45.1415750  62.0339930 146.5349060  44.8537450  62.4952620 147.3226940
  45.9367920  61.5737700 146.8033280  37.3584150  65.5266050 146.4653030
  37.3494250  66.2595740 145.8497540  36.4382510  65.2797630 146.5579990
  32.9590790  60.7480940 147.2099790  32.3518740  61.4879840 147.2195090
  33.4340140  60.8380300 146.3837990  45.8985610  53.8688700 147.6944240
  45.2698770  53.9734370 146.9802470  45.4037530  54.0885480 148.4838120
  40.3443750  65.5894290 145.1278220  40.4455730  65.3858280 144.1980200
  39.4445490  65.3352570 145.3326000  37.8669640  56.1474650 149.1102120
  37.1585790  56.6160990 149.5515730  38.1514120  55.4896660 149.7447310
  41.8985070  52.8725310 150.5497910  41.7752850  52.8911440 149.6007420
  42.8469630  52.9204250 150.6696310  38.9861860  68.1080610 149.8225890
  39.2403360  68.0702000 148.9005260  38.0374340  67.9813940 149.8154140
  36.0704660  54.4559730 146.4852830  36.9195190  54.8929880 146.4193020
  35.7035930  54.7679990 147.3124890  44.9914440  59.0272490 151.3984400
  44.0504580  59.0422720 151.5732090  45.3058510  58.2408450 151.8444700
  34.9696080  60.7092090 144.9588360  35.7359350  60.5973450 145.5213790
  35.0470770  60.0130060 144.3065130  33.6642840  58.1417160 145.6421250
  33.7446430  57.1944670 145.7538650  34.5562590  58.4724040 145.7481910
  46.9940020  66.1981340 153.0738660  47.1187440  67.0212510 153.5462470
  47.8605580  65.9872070 152.7262810  34.4657550  68.2912550 152.7455790
  35.2020030  67.7428010 153.0164360  34.8498470  69.1568560 152.6061780
  31.3503030  64.3586120 148.6197300  30.4242810  64.6007260 148.6102710
  31.8159460  65.1860380 148.4982050  37.5759860  67.4642860 144.5681360
  38.3688470  67.7531690 144.1163150  37.0564210  67.0335030 143.8893840
  46.6290030  66.6912990 145.9918100  46.3431540  66.2778130 145.1772280
  46.4309580  67.6200700 145.8718620  38.0937260  62.6846270 144.4323710
  37.9887900  62.0698620 145.1585090  37.9261480  62.1612160 143.6486720
  41.3339990  61.7466300 145.0365700  40.7850090  62.1935600 145.6808440
  41.9559250  61.2415550 145.5603370  37.0015110  60.7057220 146.9331000
  37.4231530  60.5397090 147.7762390  37.1265950  59.8957450 146.4386140
  39.5142750  59.7294830 144.1808100  40.0348410  59.0143850 143.8149250
  40.1611150  60.3680700 144.4808610  35.8974010  56.7790450 143.8789160
  35.6963070  55.9157810 144.2402500  35.7266060  56.6923810 142.9410760
  43.3762320  51.5898680 146.4076040  43.6564610  50.7466580 146.7635460
  42.6028050  51.8221790 146.9214790  34.6956810  53.8791070 143.8667040
  34.9982710  53.8858500 142.9586190  35.4351400  53.5288930 144.3634700
  37.9141740  52.8225690 144.8523240  37.5663740  52.1449680 144.2725690
  38.1154510  52.3615200 145.6666630  40.0790780  67.8106440 146.4709840
  40.9741570  68.1491410 146.4928600  40.1108410  67.0885850 145.8434120
  33.7186940  63.1833490 144.6996840  34.1561810  63.7263160 145.3554420
  34.2034670  62.3580440 144.7093180  30.9332740  65.9722520 152.1517100
  31.2635750  65.1043580 151.9195740  31.3623740  66.1781040 152.9822060
  35.5294660  64.3031530 149.8119070  35.2290200  64.1796500 150.7122980
  35.4232150  63.4440120 149.4034800  48.2986580  64.0827930 144.5145750
  47.4679540  64.1504580 144.9852980  48.4758410  64.9732050 144.2112610
  47.7543040  60.8275410 147.0179950  48.5161950  61.3972060 147.1239640
  47.7697410  60.2602610 147.7888260  31.2547380  59.3513340 151.2487610
  30.5996220  59.0824980 150.6047310  32.0925330  59.2417820 150.7989590
  48.7603010  61.6825510 151.8621880  49.1311840  60.8992830 151.4557850
  49.4004940  62.3714610 151.6839180  47.8062210  61.1209780 144.1752470
  48.0811050  62.0288660 144.0471690  47.6172950  61.0572310 145.1114460
  44.2037820  54.1454630 145.4706100  44.6222700  53.9585610 144.6302760
  43.8973880  53.2933680 145.7809030  47.7027550  59.0578770 149.1681900
  47.3271150  58.2906700 148.7363190  46.9730670  59.4401470 149.6556830
  30.4685460  56.5612270 147.1912940  29.5649540  56.8242470 147.0164600
  30.9526080  56.8323440 146.4112900  46.9778510  57.2836260 152.4689140
  47.5015990  56.7898910 151.8379310  47.5637930  57.4186620 153.2136710
  33.0112670  55.6177810 145.1007320  33.7204370  55.1961030 144.6154600
  32.2952610  55.6853040 144.4690670  32.6586830  51.6717140 144.1409970
  33.3814960  52.2126080 144.4591190  32.9311350  51.3980560 143.2651510
  46.4678480  56.5409610 148.4081550  46.9637600  56.3080480 149.1930430
  46.2694550  55.7021450 147.9919190  47.8965640  55.1770560 150.9419230
  47.7864920  55.0226600 151.8801500  48.6573230  54.6491500 150.6994640
  48.7855910  53.0078480 144.1825370  49.7105220  52.8759660 143.9743660
  48.7631700  53.0871300 145.1361820  48.8594400  53.7789140 146.8082080
  48.0645900  53.7134260 147.3374990  49.0637680  54.7139780 146.7967430
  45.8012820  67.8180690 150.8020470  46.3971890  67.4965260 150.1254890
  46.0590970  67.3452510 151.5933740  36.7820750  66.7764230 153.8066330
  37.2985770  66.1651590 153.2814590  37.4318130  67.2793010 154.2977340
  45.2914330  52.1086020 153.2580910  45.7322420  52.0531120 152.4102510
  45.0221920  53.0244030 153.3291090  47.1552900  51.7401260 151.2689730
  47.0941300  50.7962480 151.1220750  47.9344930  51.8481350 151.8143190
  31.4605650  67.8793620 150.2313680  31.2927690  67.2464300 150.9295570
  30.5940160  68.0853020 149.8807870  32.0833670  51.7110400 147.7345540
  32.8413030  51.8239280 147.1609570  31.6210840  52.5479600 147.6888970
  38.6247480  53.8249670 150.7247850  37.8121990  53.4506560 150.3843730
  39.1289120  53.0694750 151.0269040  43.1272460  50.4892120 151.9630920
  43.7301830  51.0612330 152.4379440  42.3865450  51.0531560 151.7404820
  46.2707060  50.8913680 147.2371200  46.4657690  51.7897130 147.5038630
  45.4836930  50.6600760 147.7304150  33.0668350  66.5726850 147.6763820
  32.5415970  66.9534880 146.9725780  32.9912930  67.1977620 148.3973530
  34.4558820  52.2374450 146.2747510  34.9851580  51.4504250 146.1455460
  35.0887140  52.9165640 146.5083040  36.6496660  51.9749590 149.3292900
  36.0199400  51.2736900 149.4963030  36.1101800  52.7353720 149.1126060
  47.8233670  68.1314390 148.9977760  47.9985860  67.4452130 148.3538680
  47.1255240  68.6561440 148.6054430  35.6661320  68.5209230 146.5513070
  36.3980140  68.2368510 146.0036960  35.9254990  68.2822510 147.4412450
  34.8276110  64.6373960 146.5559400  34.1984990  65.1059060 147.1045230
  34.9423940  63.7923180 146.9905590  42.2825830  58.6879620 132.7060600
  42.2019880  57.7734230 132.4352310  41.8690250  59.1846690 132.0000310
  40.4143870  60.4658640 134.5869870  39.6385970  59.9859080 134.8768440
  41.0656800  59.7864290 134.4126030  34.4309700  60.7778450 135.4645630
  33.5994580  60.5227160 135.8642140  35.0390680  60.8489220 136.2003550
  44.4351300  64.8718830 133.3669000  43.9732830  64.1006070 133.6956170
  45.2476850  64.8984900 133.8721450  34.4110960  64.8118540 135.6603650
  34.7139000  63.9216280 135.4813870  35.1554550  65.3688760 135.4325900
  32.8401650  55.7380340 129.2488020  31.9518350  56.0796310 129.1467900
  33.1242840  55.5380660 128.3568850  30.8034660  58.3385990 135.1327720
  31.3750770  57.5708190 135.1331360  30.8036200  58.6374750 134.2234330
  40.6614610  67.1576840 132.9872990  40.0426050  67.6134340 132.4167430
  41.5166390  67.3128300 132.5862690  39.8552860  63.1415830 134.5940030
  39.7861140  62.2005770 134.4329160  40.6172720  63.2317240 135.1662600
  32.0459530  53.7470350 136.9196650  31.8662370  52.8496100 137.1999410
  31.6439610  54.2942220 137.5943600  40.8858030  55.9486210 134.8208960
  41.2622850  55.0758090 134.7082630  40.7877540  56.2844910 133.9299400
  35.0163040  54.3211840 130.2826400  35.1229790  55.2215570 130.5895160
  34.1055400  54.2729810 129.9921050  44.6682150  53.4436650 131.7537300
  45.4891770  52.9533220 131.7962780  44.7016230  54.0334310 132.5069140
  32.6646200  56.2430850 135.5278990  33.3456310  56.5069220 136.1466390
  32.3494250  55.4031720 135.8617000  36.8570770  57.2898210 134.6151580
  37.3648990  57.7879180 135.2556600  37.3884010  56.5133410 134.4390940
  48.9581700  55.4603400 138.3180930  48.2533870  55.8485110 137.7996040
  49.2239620  56.1553690 138.9201860  35.1406870  51.9296770 138.8815000
  35.1425310  52.4469160 138.0760900  34.3111180  51.4526950 138.8584930
  41.5277960  62.0416080 130.3804900  40.9095230  62.5065530 129.8167620
  42.0401210  62.7343560 130.7974410  36.3909720  61.5691950 137.0588500
  36.0579100  62.1960870 137.7009570  36.5676400  62.0953830 136.2790170
  44.9043630  55.3837030 134.5264840  44.1999200  55.6721920 135.1067950
  45.2655790  56.1937140 134.1664400  34.8222200  53.6406730 136.8885450
  35.1639010  54.4848780 136.5939320  33.8838010  53.7890470 137.0050790
  35.6028820  63.5372750 138.8737680  36.2202820  64.2123830 138.5922130
  34.7421940  63.9460730 138.7825180  30.8961160  62.7272610 127.7544530
  30.5189140  63.2159710 127.0229430  31.1534230  63.3997890 128.3851060
  46.5206410  65.0012160 136.7892320  45.8369930  65.6711270 136.7808990
  47.0600700  65.1992810 136.0237180  47.9730550  54.8291820 134.9174050
  47.0255460  54.8630800 135.0489480  48.2980540  55.6430770 135.3023410
  38.5050090  51.1289000 133.2130040  38.8125070  50.5735890 132.4965540
  37.5750790  51.2633460 133.0303030  44.0565150  66.8456290 135.5037500
  44.0692310  66.4418580 134.6359760  43.5040370  67.6203580 135.3998930
  45.3510570  63.5672510 130.5927670  45.2406900  62.6246840 130.7177090
  45.3478820  63.9288150 131.4790430  43.4550590  61.7486130 136.8320110
  43.8719380  61.5346240 135.9973570  44.1790410  62.0058920 137.4028730
  40.8930850  59.1937830 129.9490160  39.9660130  59.1275210 130.1778630
  41.0455670  60.1317960 129.8345400  40.8799930  55.4654830 126.9457320
  39.9403600  55.6268790 127.0309780  41.1983190  56.1840510 126.3993310
  47.4012690  60.1473350 136.9236350  46.5731320  60.2166440 136.4486480
  47.9963170  60.7327660 136.4552180  44.9228140  60.7558130 130.4525410
  44.3040560  60.4177680 129.8051710  44.9052590  60.1117890 131.1604600
  44.3654700  56.9342670 137.8691220  43.9525880  57.7596380 138.1231210
  43.6330650  56.3487710 137.6767580  36.4987490  59.7202570 132.7309890
  36.0944490  59.0079820 132.2355790  36.5850610  59.3755810 133.6197930
  36.9669190  63.4070130 134.8949100  36.6697480  62.8015600 134.2156880
  37.9169010  63.4447440 134.7838460  35.2116110  56.4945780 136.5108930
  35.7630700  56.6041120 135.7362180  35.7259620  56.8683380 137.2264160
  45.0554800  66.9802000 138.5572200  44.5785360  67.7874190 138.3644810
  44.3716590  66.3280330 138.7098410  36.0587620  63.1451820 141.5456900
  35.1616150  63.3691790 141.7930300  36.0840490  63.2686760 140.5968300
  43.0992840  59.9944940 127.4598160  43.5386120  59.1567370 127.3135980
  43.8121260  60.6274340 127.5462300  34.8858840  60.0165140 140.1214270
  34.7466610  60.8887940 140.4901670  34.0040200  59.6737950 139.9762210
  41.2088220  64.9341010 131.4279400  41.6484130  65.6765340 131.0134790
  41.1475110  65.1767580 132.3518360  36.6839190  65.9586840 142.3299420
  36.6554620  66.3629790 141.4627850  36.5204160  65.0297200 142.1671020
  33.1992120  58.6147550 130.2316540  33.0789720  59.3409640 129.6197810
  32.8893010  57.8450460 129.7544450  48.6354010  66.7413940 143.6263590
  49.1113730  67.2196830 144.3052670  49.2561170  66.6731430 142.9009090
  30.8377490  61.7862690 136.0385180  30.9157910  61.9211460 135.0940900
  31.4519170  61.0778580 136.2313300  32.0825120  63.4862880 132.4491360
  31.6753200  63.6277470 131.5944960  32.9738130  63.2023040 132.2462570
  48.0387260  63.9326790 140.7863600  48.1650320  63.6938670 139.8680780
  48.0808640  63.1011330 141.2585680  41.9004000  67.6354790 139.3558410
  42.4148670  67.5462800 140.1580840  41.0573080  67.9814490 139.6486320
  43.8758400  67.9210130 128.7842410  43.7159540  67.6313070 129.6824240
  43.7105110  67.1450260 128.2487640  36.3546780  67.7008660 130.5614030
  36.1789260  66.7844200 130.3481830  35.5002520  68.0595950 130.8011830
  43.1434460  67.0560400 131.4188900  43.5991410  66.2749780 131.7327520
  43.4826980  67.7667220 131.9630080  47.8911270  55.9859250 141.7513340
  47.2755540  56.4938920 141.2228800  47.5707690  55.0857580 141.6939280
  30.8937010  62.8276860 138.5779640  31.0568050  62.3582220 137.7599010
  31.3589460  62.3200420 139.2428480  35.6655780  51.9582620 133.6140210
  35.2223930  52.7392160 133.2824730  36.2240770  52.2812510 134.3211150
  39.9525590  54.8251140 139.2175530  39.4904960  55.0334160 140.0295470
  39.5503700  54.0110490 138.9146200  44.9530100  56.0460090 140.3472190
  44.1023690  55.7465840 140.6681260  44.7931890  56.2902100 139.4356010
  42.0479810  57.5461840 142.4470980  42.3733220  56.7125590 142.1073210
  42.8360140  58.0690360 142.5949310  38.7814600  51.5793320 128.4946040
  38.1568780  51.5753190 129.2199350  38.6944720  50.7124280 128.0982010
  37.7031680  52.5029950 135.4729810  38.0004010  53.4092780 135.3921830
  38.2517240  52.0148730 134.8589380  35.4570000  57.0816190 131.3421460
  35.2310920  56.8653360 132.2468080  34.6762530  57.5144650 130.9967430
  42.6867760  57.0879560 129.9412110  42.0876650  57.8115360 129.7575730
  43.2347370  57.0256340 129.1588560  37.8969210  57.9801770 142.0081730
  37.8012810  57.0396500 141.8582130  38.7401190  58.2016840 141.6129800
  41.2932630  55.7243100 131.9715390  41.6862200  56.0415300 131.1584080
  41.6549480  54.8454980 132.0859910  33.0279750  54.3915440 140.1615510
  32.6343140  55.2390650 140.3688290  32.3398150  53.7541810 140.3524150
  39.6024800  54.4750410 143.2312250  38.9123120  54.2822610 143.8658340
  40.3457100  54.7585050 143.7636550  30.3296800  52.3143900 134.1945590
  30.0409850  52.8846760 134.9070570  31.0742560  51.8348350 134.5576820
  30.5167030  56.2564020 125.4048310  30.4341700  57.1994780 125.5463300
  30.1650090  56.1138930 124.5260660  41.8787770  58.3148850 136.0666170
  41.1468890  58.8235660 136.4156270  41.4812110  57.4978830 135.7654950
  38.3165160  54.9903050 134.4718660  38.3201220  54.5493000 133.6223200
  39.2116280  55.3120380 134.5790480  34.1667540  54.8729540 133.4312870
  33.8267590  55.3504770 134.1879920  33.4044860  54.4194660 133.0713970
  38.3785310  55.9915130 127.4625420  38.4998130  55.9501610 128.4111240
  37.9933820  56.8539280 127.3072150  42.3413680  53.7682530 135.4789110
  42.3586420  54.2191180 136.3230960  42.0929260  52.8688170 135.6922550
  37.3906810  58.3016270 126.8608720  36.8223710  57.8534520 126.2344630
  38.0995810  58.6609050 126.3273870  45.7684430  51.1814710 141.3175490
  46.0930200  50.4504370 141.8433470  45.8040940  50.8628350 140.4156480
  32.4675990  62.2028290 140.7375450  32.0830780  61.5621960 141.3358410
  32.7788180  62.9064410 141.3070180  38.6173130  59.0504830 136.2184070
  38.9843260  58.5763400 136.9645410  38.4278190  59.9246400 136.5592410
  31.4813620  53.7948520 132.3477540  31.1960540  53.4304190 133.1856160
  31.4192480  53.0628980 131.7340680  36.4072500  58.0913470 138.5368280
  36.1029570  58.9705450 138.7618640  37.3618960  58.1513260 138.5725720
  34.9354290  62.2974460 129.1335130  34.1616550  61.7572080 128.9733850
  35.6648920  61.7781070 128.7952890  45.6942270  61.2939820 134.9261520
  46.4141390  61.7895110 134.5357630  45.4924090  60.6157710 134.2815390
  41.1552210  52.6877780 129.0690910  40.3416820  52.1890950 128.9936220
  40.9614160  53.5276030 128.6527260  41.0761070  61.3648880 140.8130520
  41.0098380  60.4444550 140.5588110  40.4466210  61.4624320 141.5275160
  43.8700600  57.0597430 127.3653070  44.7580220  57.3714660 127.1904410
  43.8405690  56.1869680 126.9733650  34.9791690  61.9654840 132.7713940
  35.4970360  61.1623100 132.7170830  34.5275710  61.9033980 133.6130770
  39.8661190  63.2321120 128.0441240  40.2076890  63.9763350 127.5484560
  39.0373900  63.5452240 128.4066070  32.4636230  58.9316210 139.6839640
  32.1051170  59.5970060 140.2712980  32.1690790  58.0999760 140.0552260
  35.6649350  59.3900450 142.5679190  35.3649490  59.5357630 141.6707010
  36.4360590  58.8305740 142.4752580  41.0077800  64.1869450 140.5634320
  41.0222340  63.2550410 140.3453230  40.3002900  64.2729210 141.2024090
  46.1414870  58.3709270 126.8332930  46.0578590  58.8023490 125.9829370
  46.8609060  58.8307620 127.2659750  47.2189010  60.8276790 139.9102900
  46.4937200  61.4205570 139.7132290  47.7464470  60.8200330 139.1116270
  47.1702120  65.2251530 129.5615060  46.5278280  64.5707150 129.8358780
  46.7832780  65.6306620 128.7855730  42.7488600  62.5536960 133.4086750
  43.1012420  61.9565090 132.7488120  41.8650930  62.2281190 133.5795000
  38.8351880  63.3134650 130.8157160  39.5223010  63.8603860 131.1964750
  38.0484300  63.8575380 130.8506770  30.9744280  58.9307470 126.3074240
  31.8439130  59.2132270 126.5910160  30.4834600  59.7443340 126.1923050
  38.1379090  60.3180680 130.4282520  38.5941870  61.1285930 130.6542710
  37.7867300  60.0003820 131.2601010  40.4411700  65.8287020 137.6574820
  41.0853920  66.0346400 138.3348240  40.8041140  65.0675420 137.2045670
  34.0390870  50.6618330 130.9005040  33.9105500  50.6536230 131.8489960
  33.2152890  51.0001420 130.5496050  41.7143780  63.8319370 136.3752270
  42.3566010  63.1312530 136.4884440  42.2393130  64.6117810 136.1949160
  43.4881400  64.6314270 139.5788330  43.8237640  65.2180960 140.2566250
  42.5681740  64.5006980 139.8086120  31.3415530  68.1434850 126.8735870
  31.7013170  68.7424190 126.2193140  31.2007870  68.6894740 127.6470900
  31.0384800  52.4209450 140.3611740  30.3243320  52.6206370 140.9664350
  31.4579840  51.6449020 140.7326540  45.1415750  62.0339930 127.7605570
  44.8537450  62.4952620 128.5483450  45.9367920  61.5737700 128.0289790
  31.3257390  66.4089710 141.3478270  31.4348510  65.4684450 141.2073660
  30.6737950  66.6744460 140.6992000  39.3169980  64.6805600 142.7476390
  38.9966850  63.9614840 143.2922080  38.6428340  65.3560670 142.8212450
  37.3584150  65.5266050 127.6909540  37.3494250  66.2595740 127.0754050
  36.4382510  65.2797630 127.7836500  32.9590790  60.7480940 128.4356300
  32.3518740  61.4879840 128.4451600  33.4340140  60.8380300 127.6094500
  42.5323580  54.9131760 138.1113190  42.9004400  54.0926970 138.4392760
  41.6721780  54.9733650 138.5268840  40.3443750  65.5894290 126.3534730
  40.4455730  65.3858280 125.4236710  39.4445490  65.3352570 126.5582510
  37.8669640  56.1474650 130.3358630  37.1585790  56.6160990 130.7772240
  38.1514120  55.4896660 130.9703820  39.4925570  57.5671350 138.3351160
  39.9910820  58.0417170 139.0003010  39.6348520  56.6434870 138.5421190
  41.8985070  52.8725310 131.7754420  41.7752850  52.8911440 130.8263930
  42.8469630  52.9204250 131.8952820  38.9861860  68.1080610 131.0482400
  39.2403360  68.0702000 130.1261770  38.0374340  67.9813940 131.0410650
  36.0704660  54.4559730 127.7109340  36.9195190  54.8929880 127.6449530
  35.7035930  54.7679990 128.5381400  46.6992430  53.7839310 139.1779550
  46.1966030  54.5244710 139.5173360  47.5149090  54.1723310 138.8616340
  44.9914440  59.0272490 132.6240910  44.0504580  59.0422720 132.7988600
  45.3058510  58.2408450 133.0701210  34.9696080  60.7092090 126.1844870
  35.7359350  60.5973450 126.7470300  35.0470770  60.0130060 125.5321640
  33.6642840  58.1417160 126.8677760  33.7446430  57.1944670 126.9795160
  34.5562590  58.4724040 126.9738420  46.9940020  66.1981340 134.2995170
  47.1187440  67.0212510 134.7718980  47.8605580  65.9872070 133.9519320
  34.4657550  68.2912550 133.9712300  35.2020030  67.7428010 134.2420870
  34.8498470  69.1568560 133.8318290  31.3503030  64.3586120 129.8453810
  30.4242810  64.6007260 129.8359220  31.8159460  65.1860380 129.7238560
  33.4715830  67.4758620 143.1597880  34.2728560  67.7970670 143.5733280
  32.9567650  67.1154200 143.8817790  37.5759860  67.4642860 125.7937870
  38.3688470  67.7531690 125.3419660  37.0564210  67.0335030 125.1150350
  42.3080460  63.5838490 143.1073290  41.7018620  63.6070090 142.3669040
  42.0034570  62.8521530 143.6440540  43.7380830  67.3118780 141.7182700
  44.6902580  67.2276800 141.6682940  43.5909050  67.9760490 142.3916490
  46.6290030  66.6912990 127.2174610  46.3431540  66.2778130 126.4028790
  46.4309580  67.6200700 127.0975130  31.1913640  59.9632080 142.1033930
  31.6952660  59.3839360 142.6750160  30.4521060  60.2472310 142.6410300
  38.0937260  62.6846270 125.6580220  37.9887900  62.0698620 126.3841600
  37.9261480  62.1612160 124.8743230  38.2451580  61.3703070 141.6369450
  37.4797250  61.9388070 141.5524120  38.4267540  61.0779280 140.7437680
  45.3874930  63.1008400 142.1944470  46.1284400  63.4384160 141.6911930
  44.6247610  63.2700460 141.6414240  33.2236720  58.1061670 142.9984000
  33.2642060  57.8075540 143.9069230  34.0782220  58.5069280 142.8391520
  37.0015110  60.7057220 128.1587510  37.4231530  60.5397090 129.0018900
  37.1265950  59.8957450 127.6642650  35.1642530  56.6853770 140.9658490
  34.6338990  56.1944720 140.3381830  35.8330600  57.1137970 140.4316420
  39.5142750  59.7294830 125.4064610  40.0348410  59.0143850 125.0405760
  40.1611150  60.3680700 125.7065120  44.0620590  61.1523230 140.7299680
  44.4761610  61.3068310 141.5790100  43.1271590  61.2778450 140.8925460
  44.5342760  58.4919390 142.7338830  45.1163530  57.7371710 142.6459310
  44.7104530  59.0226830 141.9570310  35.6514830  53.6516140 141.0455780
  35.5571700  53.0336890 140.3206650  35.0712220  54.3782430 140.8185690
  38.4176270  52.2089380 138.0783170  37.9693570  52.2313640 137.2328720
  37.7841470  51.8108400 138.6753470  38.8235820  61.1043710 138.6995610
  39.2423930  61.9476440 138.5271850  37.9044450  61.2415750 138.4702390
  41.1599720  58.8359890 140.0833450  41.2795930  58.2401030 140.8228290
  42.0193720  58.8729580 139.6634750  43.4987620  59.3897080 138.6595960
  42.9722840  59.9139700 138.0561100  43.8418960  60.0224470 139.2905690
  35.8974010  56.7790450 125.1045670  35.6963070  55.9157810 125.4659010
  35.7266060  56.6923810 124.1667270  36.6743240  67.4096720 139.8153340
  36.1364330  68.1342780 139.4962040  36.9277200  66.9327060 139.0250680
  37.9268490  55.3781240 141.3409270  38.5168180  55.0697090 142.0287090
  37.1088730  54.9060990 141.4969170  42.7461920  54.9947050 141.5742290
  42.0577440  54.3328590 141.5092280  43.4667940  54.5485320 142.0190750
  34.6956810  53.8791070 125.0923550  34.9982710  53.8858500 124.1842700
  35.4351400  53.5288930 125.5891210  39.5305450  68.6447930 140.0739990
  39.4564150  69.5483070 140.3812360  38.6284290  68.3259830 140.0462060
  37.9141740  52.8225690 126.0779750  37.5663740  52.1449680 125.4982200
  38.1154510  52.3615200 126.8923140  40.0790780  67.8106440 127.6966350
  40.9741570  68.1491410 127.7185110  40.1108410  67.0885850 127.0690630
  33.7186940  63.1833490 125.9253350  34.1561810  63.7263160 126.5810930
  34.2034670  62.3580440 125.9349690  30.9332740  65.9722520 133.3773610
  31.2635750  65.1043580 133.1452250  31.3623740  66.1781040 134.2078570
  35.5294660  64.3031530 131.0375580  35.2290200  64.1796500 131.9379490
  35.4232150  63.4440120 130.6291310  31.4222950  66.8393110 136.1155240
  30.9853940  67.0193910 136.9479390  31.9900630  67.5967730 135.9736960
  47.0585130  66.3410110 140.4032550  46.4587120  66.4002670 139.6596470
  47.1879030  65.4015090 140.5329400  48.2986580  64.0827930 125.7402260
  47.4679540  64.1504580 126.2109490  48.4758410  64.9732050 125.4369120
  31.2547380  59.3513340 132.4744120  30.5996220  59.0824980 131.8303820
  32.0925330  59.2417820 132.0246100  48.7603010  61.6825510 133.0878390
  49.1311840  60.8992830 132.6814360  49.4004940  62.3714610 132.9095690
  45.7436770  63.0662090 138.5008710  44.9296610  63.4959250 138.7634500
  46.1510970  63.6780500 137.8877760  47.8062210  61.1209780 125.4008980
  48.0811050  62.0288660 125.2728200  47.6172950  61.0572310 126.3370970
  47.7027550  59.0578770 130.3938410  47.3271150  58.2906700 129.9619700
  46.9730670  59.4401470 130.8813340  32.2923310  59.7365910 137.0147460
  32.6596350  59.6493310 137.8943480  31.7234130  58.9732460 136.9154320
  47.0927170  58.2050290 140.0277930  46.8613260  57.9763040 139.1275880
  47.3531720  59.1249840 139.9822820  31.8439310  56.6475000 140.9205880
  30.9495360  56.6141760 141.2599590  32.3836860  56.8461790 141.6857130
  45.5315240  53.4306720 142.8057630  46.4085420  53.4390120 143.1891630
  45.5436080  52.6937560 142.1949980  30.4685460  56.5612270 128.4169450
  29.5649540  56.8242470 128.2421110  30.9526080  56.8323440 127.6369410
  46.9778510  57.2836260 133.6945650  47.5015990  56.7898910 133.0635820
  47.5637930  57.4186620 134.4393220  47.1568230  57.3676130 137.2165200
  46.2070940  57.3339670 137.3310190  47.3381240  58.2776240 136.9814970
  33.0112670  55.6177810 126.3263830  33.7204370  55.1961030 125.8411110
  32.2952610  55.6853040 125.6947180  32.6586830  51.6717140 125.3666480
  33.3814960  52.2126080 125.6847700  32.9311350  51.3980560 124.4908020
  32.3479020  50.9223330 135.2689100  32.9955210  50.3720710 134.8284260
  32.7680860  51.1766480 136.0904910  46.2431360  51.1164690 138.6258740
  46.8803580  51.7298830 138.9917930  46.3906250  51.1525350 137.6807970
  32.1011020  51.0779000 138.0114420  31.7525840  51.5342820 138.7772600
  31.7698720  50.1836130 138.0936850  33.7075390  64.2498600 142.1767610
  33.6645020  63.8791510 143.0582070  33.8386400  65.1876170 142.3169430
  37.4081420  65.8058190 137.7777330  37.1672780  66.0732750 136.8907850
  38.3484060  65.9763920 137.8328190  39.6135840  52.2690880 141.5333840
  39.5524730  52.8612710 142.2829250  40.5536220  52.1616840 141.3884100
  42.2510400  51.9260940 141.1726130  42.8650810  52.2440230 140.5107210
  42.7959960  51.4409530 141.7921990  48.6685580  67.8252570 138.5787970
  48.1743860  68.2221440 137.8615100  48.0598870  67.2001780 138.9725250
  32.7731660  50.6055200 141.2865190  33.3214650  50.4243250 140.5231300
  32.8386970  49.8149310 141.8221500  33.5463420  67.1960850 139.2965390
  32.9523740  67.0645550 140.0355430  33.5387260  66.3598990 138.8307490
  42.9918440  50.4893080 137.4995420  42.1178280  50.8228190 137.2968350
  42.8829190  50.0166260 138.3247290  43.8990420  52.6963950 138.8837140
  43.5703780  51.8815710 138.5038870  44.8472720  52.6533760 138.7602830
  33.1775650  64.5619230 138.2473430  32.4509710  63.9424520 138.1799380
  33.2384800  64.9559840 137.3771510  36.7820750  66.7764230 135.0322840
  37.2985770  66.1651590 134.5071100  37.4318130  67.2793010 135.5233850
  39.5216250  67.6672720 135.8591820  39.8094060  67.4127020 134.9824830
  40.0339470  67.1150080 136.4497390  40.7393260  51.4062920 136.4388330
  39.9565050  51.8808420 136.7185090  40.4456190  50.5017750 136.3301510
  45.2914330  52.1086020 134.4837420  45.7322420  52.0531120 133.6359020
  45.0221920  53.0244030 134.5547600  47.1552900  51.7401260 132.4946240
  47.0941300  50.7962480 132.3477260  47.9344930  51.8481350 133.0399700
  31.4605650  67.8793620 131.4570190  31.2927690  67.2464300 132.1552080
  30.5940160  68.0853020 131.1064380  32.0833670  51.7110400 128.9602050
  32.8413030  51.8239280 128.3866080  31.6210840  52.5479600 128.9145480
  38.6247480  53.8249670 131.9504360  37.8121990  53.4506560 131.6100240
  39.1289120  53.0694750 132.2525550  43.1272460  50.4892120 133.1887430
  43.7301830  51.0612330 133.6635950  42.3865450  51.0531560 132.9661330
  33.0668350  66.5726850 128.9020330  32.5415970  66.9534880 128.1982290
  32.9912930  67.1977620 129.6230040  34.4558820  52.2374450 127.5004020
  34.9851580  51.4504250 127.3711970  35.0887140  52.9165640 127.7339550
  36.6496660  51.9749590 130.5549410  36.0199400  51.2736900 130.7219540
  36.1101800  52.7353720 130.3382570  39.5888610  68.5888820 143.2260020
  40.5155920  68.3533090 143.2695980  39.5739040  69.4160820 142.7446050
  36.7752220  51.2533570 142.9901900  36.4936490  51.7567170 142.2262720
  37.1571920  50.4555320 142.6244030  35.6661320  68.5209230 127.7769580
  36.3980140  68.2368510 127.2293470  35.9254990  68.2822510 128.6668960
  34.8276110  64.6373960 127.7815910  34.1984990  65.1059060 128.3301740
  34.9423940  63.7923180 128.2162100  43.3767680  50.6687150 143.5682370
  43.2633130  50.9881760 144.4633890  44.1937420  51.0699660 143.2719650
  46.1566170  67.8158680 143.0501060  46.9491490  67.3207910 142.8427020
  46.4499320  68.4948820 143.6576670  42.2825830  58.6879620 113.9317110
  42.2019880  57.7734230 113.6608820  41.8690250  59.1846690 113.2256820
  44.4351300  64.8718830 114.5925510  43.9732830  64.1006070 114.9212680
  45.2476850  64.8984900 115.0977960  34.4110960  64.8118540 116.8860160
  34.7139000  63.9216280 116.7070380  35.1554550  65.3688760 116.6582410
  40.6614610  67.1576840 114.2129500  40.0426050  67.6134340 113.6423940
  41.5166390  67.3128300 113.8119200  32.0459530  53.7470350 118.1453160
  31.8662370  52.8496100 118.4255920  31.6439610  54.2942220 118.8200110
  40.8858030  55.9486210 116.0465470  41.2622850  55.0758090 115.9339140
  40.7877540  56.2844910 115.1555910  44.6682150  53.4436650 112.9793810
  45.4891770  52.9533220 113.0219290  44.7016230  54.0334310 113.7325650
  48.9581700  55.4603400 119.5437440  48.2533870  55.8485110 119.0252550
  49.2239620  56.1553690 120.1458370  44.9043630  55.3837030 115.7521350
  44.1999200  55.6721920 116.3324460  45.2655790  56.1937140 115.3920910
  34.8222200  53.6406730 118.1141960  35.1639010  54.4848780 117.8195830
  33.8838010  53.7890470 118.2307300  35.6028820  63.5372750 120.0994190
  36.2202820  64.2123830 119.8178640  34.7421940  63.9460730 120.0081690
  46.5206410  65.0012160 118.0148830  45.8369930  65.6711270 118.0065500
  47.0600700  65.1992810 117.2493690  47.9730550  54.8291820 116.1430560
  47.0255460  54.8630800 116.2745990  48.2980540  55.6430770 116.5279920
  44.0565150  66.8456290 116.7294010  44.0692310  66.4418580 115.8616270
  43.5040370  67.6203580 116.6255440  40.8799930  55.4654830 108.1713830
  39.9403600  55.6268790 108.2566290  41.1983190  56.1840510 107.6249820
  47.4012690  60.1473350 118.1492860  46.5731320  60.2166440 117.6742990
  47.9963170  60.7327660 117.6808690  44.3654700  56.9342670 119.0947730
  43.9525880  57.7596380 119.3487720  43.6330650  56.3487710 118.9024090
  45.0554800  66.9802000 119.7828710  44.5785360  67.7874190 119.5901320
  44.3716590  66.3280330 119.9354920  36.0587620  63.1451820 122.7713410
  35.1616150  63.3691790 123.0186810  36.0840490  63.2686760 121.8224810
  34.8858840  60.0165140 121.3470780  34.7466610  60.8887940 121.7158180
  34.0040200  59.6737950 121.2018720  46.6809980  51.2487750 106.9995710
  46.3682640  51.3414580 107.8994780  47.4422450  51.8268780 106.9493140
  48.6354010  66.7413940 124.8520100  49.1113730  67.2196830 125.5309180
  49.2561170  66.6731430 124.1265600  32.0825120  63.4862880 113.6747870
  31.6753200  63.6277470 112.8201470  32.9738130  63.2023040 113.4719080
  48.0387260  63.9326790 122.0120110  48.1650320  63.6938670 121.0937290
  48.0808640  63.1011330 122.4842190  41.9004000  67.6354790 120.5814920
  42.4148670  67.5462800 121.3837350  41.0573080  67.9814490 120.8742830
  36.3546780  67.7008660 111.7870540  36.1789260  66.7844200 111.5738340
  35.5002520  68.0595950 112.0268340  30.8937010  62.8276860 119.8036150
  31.0568050  62.3582220 118.9855520  31.3589460  62.3200420 120.4684990
  44.9530100  56.0460090 121.5728700  44.1023690  55.7465840 121.8937770
  44.7931890  56.2902100 120.6612520  42.0479810  57.5461840 123.6727490
  42.3733220  56.7125590 123.3329720  42.8360140  58.0690360 123.8205820
  38.7814600  51.5793320 109.7202550  38.1568780  51.5753190 110.4455860
  38.6944720  50.7124280 109.3238520  37.8969210  57.9801770 123.2338240
  37.8012810  57.0396500 123.0838640  38.7401190  58.2016840 122.8386310
  41.2932630  55.7243100 113.1971900  41.6862200  56.0415300 112.3840590
  41.6549480  54.8454980 113.3116420  33.0279750  54.3915440 121.3872020
  32.6343140  55.2390650 121.5944800  32.3398150  53.7541810 121.5780660
  39.6024800  54.4750410 124.4568760  38.9123120  54.2822610 125.0914850
  40.3457100  54.7585050 124.9893060  30.3296800  52.3143900 115.4202100
  30.0409850  52.8846760 116.1327080  31.0742560  51.8348350 115.7833330
  38.3165160  54.9903050 115.6975170  38.3201220  54.5493000 114.8479710
  39.2116280  55.3120380 115.8046990  42.3413680  53.7682530 116.7045620
  42.3586420  54.2191180 117.5487470  42.0929260  52.8688170 116.9179060
  45.7684430  51.1814710 122.5432000  46.0930200  50.4504370 123.0689980
  45.8040940  50.8628350 121.6412990  32.4675990  62.2028290 121.9631960
  32.0830780  61.5621960 122.5614920  32.7788180  62.9064410 122.5326690
  36.4072500  58.0913470 119.7624790  36.1029570  58.9705450 119.9875150
  37.3618960  58.1513260 119.7982230  34.9354290  62.2974460 110.3591640
  34.1616550  61.7572080 110.1990360  35.6648920  61.7781070 110.0209400
  45.6942270  61.2939820 116.1518030  46.4141390  61.7895110 115.7614140
  45.4924090  60.6157710 115.5071900  41.1552210  52.6877780 110.2947420
  40.3416820  52.1890950 110.2192730  40.9614160  53.5276030 109.8783770
  32.4636230  58.9316210 120.9096150  32.1051170  59.5970060 121.4969490
  32.1690790  58.0999760 121.2808770  35.6649350  59.3900450 123.7935700
  35.3649490  59.5357630 122.8963520  36.4360590  58.8305740 123.7009090
  47.2189010  60.8276790 121.1359410  46.4937200  61.4205570 120.9388800
  47.7464470  60.8200330 120.3372780  38.8351880  63.3134650 112.0413670
  39.5223010  63.8603860 112.4221260  38.0484300  63.8575380 112.0763280
  30.9744280  58.9307470 107.5330750  31.8439130  59.2132270 107.8166670
  30.4834600  59.7443340 107.4179560  38.1379090  60.3180680 111.6539030
  38.5941870  61.1285930 111.8799220  37.7867300  60.0003820 112.4857520
  40.4411700  65.8287020 118.8831330  41.0853920  66.0346400 119.5604750
  40.8041140  65.0675420 118.4302180  31.0384800  52.4209450 121.5868250
  30.3243320  52.6206370 122.1920860  31.4579840  51.6449020 121.9583050
  31.3257390  66.4089710 122.5734780  31.4348510  65.4684450 122.4330170
  30.6737950  66.6744460 121.9248510  32.9590790  60.7480940 109.6612810
  32.3518740  61.4879840 109.6708110  33.4340140  60.8380300 108.8351010
  42.5323580  54.9131760 119.3369700  42.9004400  54.0926970 119.6649270
  41.6721780  54.9733650 119.7525350  45.8985610  53.8688700 110.1457260
  45.2698770  53.9734370 109.4315490  45.4037530  54.0885480 110.9351140
  39.4925570  57.5671350 119.5607670  39.9910820  58.0417170 120.2259520
  39.6348520  56.6434870 119.7677700  41.8985070  52.8725310 113.0010930
  41.7752850  52.8911440 112.0520440  42.8469630  52.9204250 113.1209330
  46.6992430  53.7839310 120.4036060  46.1966030  54.5244710 120.7429870
  47.5149090  54.1723310 120.0872850  44.9914440  59.0272490 113.8497420
  44.0504580  59.0422720 114.0245110  45.3058510  58.2408450 114.2957720
  34.9696080  60.7092090 107.4101380  35.7359350  60.5973450 107.9726810
  35.0470770  60.0130060 106.7578150  46.9940020  66.1981340 115.5251680
  47.1187440  67.0212510 115.9975490  47.8605580  65.9872070 115.1775830
  34.4657550  68.2912550 115.1968810  35.2020030  67.7428010 115.4677380
  34.8498470  69.1568560 115.0574800  33.4715830  67.4758620 124.3854390
  34.2728560  67.7970670 124.7989790  32.9567650  67.1154200 125.1074300
  31.1913640  59.9632080 123.3290440  31.6952660  59.3839360 123.9006670
  30.4521060  60.2472310 123.8666810  38.2451580  61.3703070 122.8625960
  37.4797250  61.9388070 122.7780630  38.4267540  61.0779280 121.9694190
  33.2236720  58.1061670 124.2240510  33.2642060  57.8075540 125.1325740
  34.0782220  58.5069280 124.0648030  37.0015110  60.7057220 109.3844020
  37.4231530  60.5397090 110.2275410  37.1265950  59.8957450 108.8899160
  35.1642530  56.6853770 122.1915000  34.6338990  56.1944720 121.5638340
  35.8330600  57.1137970 121.6572930  44.5342760  58.4919390 123.9595340
  45.1163530  57.7371710 123.8715820  44.7104530  59.0226830 123.1826820
  35.6514830  53.6516140 122.2712290  35.5571700  53.0336890 121.5463160
  35.0712220  54.3782430 122.0442200  41.1599720  58.8359890 121.3089960
  41.2795930  58.2401030 122.0484800  42.0193720  58.8729580 120.8891260
  43.4987620  59.3897080 119.8852470  42.9722840  59.9139700 119.2817610
  43.8418960  60.0224470 120.5162200  37.9268490  55.3781240 122.5665780
  38.5168180  55.0697090 123.2543600  37.1088730  54.9060990 122.7225680
  42.7461920  54.9947050 122.7998800  42.0577440  54.3328590 122.7348790
  43.4667940  54.5485320 123.2447260  43.3762320  51.5898680 108.8589060
  43.6564610  50.7466580 109.2148480  42.6028050  51.8221790 109.3727810
  37.9141740  52.8225690 107.3036260  37.5663740  52.1449680 106.7238710
  38.1154510  52.3615200 108.1179650  30.9332740  65.9722520 114.6030120
  31.2635750  65.1043580 114.3708760  31.3623740  66.1781040 115.4335080
  35.5294660  64.3031530 112.2632090  35.2290200  64.1796500 113.1636000
  35.4232150  63.4440120 111.8547820  31.4222950  66.8393110 117.3411750
  30.9853940  67.0193910 118.1735900  31.9900630  67.5967730 117.1993470
  47.0585130  66.3410110 121.6289060  46.4587120  66.4002670 120.8852980
  47.1879030  65.4015090 121.7585910  48.7603010  61.6825510 114.3134900
  49.1311840  60.8992830 113.9070870  49.4004940  62.3714610 114.1352200
  45.7436770  63.0662090 119.7265220  44.9296610  63.4959250 119.9891010
  46.1510970  63.6780500 119.1134270  44.2037820  54.1454630 107.9219120
  44.6222700  53.9585610 107.0815780  43.8973880  53.2933680 108.2322050
  47.7027550  59.0578770 111.6194920  47.3271150  58.2906700 111.1876210
  46.9730670  59.4401470 112.1069850  47.0927170  58.2050290 121.2534440
  46.8613260  57.9763040 120.3532390  47.3531720  59.1249840 121.2079330
  31.8439310  56.6475000 122.1462390  30.9495360  56.6141760 122.4856100
  32.3836860  56.8461790 122.9113640  46.9778510  57.2836260 114.9202160
  47.5015990  56.7898910 114.2892330  47.5637930  57.4186620 115.6649730
  47.1568230  57.3676130 118.4421710  46.2070940  57.3339670 118.5566700
  47.3381240  58.2776240 118.2071480  46.4678480  56.5409610 110.8594570
  46.9637600  56.3080480 111.6443450  46.2694550  55.7021450 110.4432210
  32.3479020  50.9223330 116.4945610  32.9955210  50.3720710 116.0540770
  32.7680860  51.1766480 117.3161420  47.8965640  55.1770560 113.3932250
  47.7864920  55.0226600 114.3314520  48.6573230  54.6491500 113.1507660
  48.7855910  53.0078480 106.6338390  49.7105220  52.8759660 106.4256680
  48.7631700  53.0871300 107.5874840  48.8594400  53.7789140 109.2595100
  48.0645900  53.7134260 109.7888010  49.0637680  54.7139780 109.2480450
  32.1011020  51.0779000 119.2370930  31.7525840  51.5342820 120.0029110
  31.7698720  50.1836130 119.3193360  33.7075390  64.2498600 123.4024120
  33.6645020  63.8791510 124.2838580  33.8386400  65.1876170 123.5425940
  42.2510400  51.9260940 122.3982640  42.8650810  52.2440230 121.7363720
  42.7959960  51.4409530 123.0178500  48.6685580  67.8252570 119.8044480
  48.1743860  68.2221440 119.0871610  48.0598870  67.2001780 120.1981760
  32.7731660  50.6055200 122.5121700  33.3214650  50.4243250 121.7487810
  32.8386970  49.8149310 123.0478010  42.9918440  50.4893080 118.7251930
  42.1178280  50.8228190 118.5224860  42.8829190  50.0166260 119.5503800
  43.8990420  52.6963950 120.1093650  43.5703780  51.8815710 119.7295380
  44.8472720  52.6533760 119.9859340  46.3525030  68.4675990 117.0831220
  45.8928000  69.2191800 116.7089240  45.7237490  67.7482460 117.0246020
  33.1775650  64.5619230 119.4729940  32.4509710  63.9424520 119.4055890
  33.2384800  64.9559840 118.6028020  36.7820750  66.7764230 116.2579350
  37.2985770  66.1651590 115.7327610  37.4318130  67.2793010 116.7490360
  39.5216250  67.6672720 117.0848330  39.8094060  67.4127020 116.2081340
  40.0339470  67.1150080 117.6753900  45.2914330  52.1086020 115.7093930
  45.7322420  52.0531120 114.8615530  45.0221920  53.0244030 115.7804110
  47.1552900  51.7401260 113.7202750  47.0941300  50.7962480 113.5733770
  47.9344930  51.8481350 114.2656210  31.4605650  67.8793620 112.6826700
  31.2927690  67.2464300 113.3808590  30.5940160  68.0853020 112.3320890
  38.6247480  53.8249670 113.1760870  37.8121990  53.4506560 112.8356750
  39.1289120  53.0694750 113.4782060  43.1272460  50.4892120 114.4143940
  43.7301830  51.0612330 114.8892460  42.3865450  51.0531560 114.1917840
  46.2707060  50.8913680 109.6884220  46.4657690  51.7897130 109.9551650
  45.4836930  50.6600760 110.1817170  39.5888610  68.5888820 124.4516530
  40.5155920  68.3533090 124.4952490  39.5739040  69.4160820 123.9702560
  47.8233670  68.1314390 111.4490780  47.9985860  67.4452130 110.8051700
  47.1255240  68.6561440 111.0567450  36.7752220  51.2533570 124.2158410
  36.4936490  51.7567170 123.4519230  37.1571920  50.4555320 123.8500540
  43.3767680  50.6687150 124.7938880  43.2633130  50.9881760 125.6890400
  44.1937420  51.0699660 124.4976160  46.1566170  67.8158680 124.2757570
  46.9491490  67.3207910 124.0683530  46.4499320  68.4948820 124.8833180
  40.4143870  60.4658640  97.0382890  39.6385970  59.9859080  97.3281460
  41.0656800  59.7864290  96.8639050  44.4351300  64.8718830  95.8182020
  43.9732830  64.1006070  96.1469190  45.2476850  64.8984900  96.3234470
  34.4110960  64.8118540  98.1116670  34.7139000  63.9216280  97.9326890
  35.1554550  65.3688760  97.8838920  32.0459530  53.7470350  99.3709670
  31.8662370  52.8496100  99.6512430  31.6439610  54.2942220 100.0456620
  41.5277960  62.0416080  92.8317920  40.9095230  62.5065530  92.2680640
  42.0401210  62.7343560  93.2487430  30.8961160  62.7272610  90.2057550
  30.5189140  63.2159710  89.4742450  31.1534230  63.3997890  90.8364080
  46.5206410  65.0012160  99.2405340  45.8369930  65.6711270  99.2322010
  47.0600700  65.1992810  98.4750200  45.3510570  63.5672510  93.0440690
  45.2406900  62.6246840  93.1690110  45.3478820  63.9288150  93.9303450
  43.4550590  61.7486130  99.2833130  43.8719380  61.5346240  98.4486590
  44.1790410  62.0058920  99.8541750  40.8930850  59.1937830  92.4003180
  39.9660130  59.1275210  92.6291650  41.0455670  60.1317960  92.2858420
  36.0587620  63.1451820 103.9969920  35.1616150  63.3691790 104.2443320
  36.0840490  63.2686760 103.0481320  43.0992840  59.9944940  89.9111180
  43.5386120  59.1567370  89.7649000  43.8121260  60.6274340  89.9975320
  32.0825120  63.4862880  94.9004380  31.6753200  63.6277470  94.0457980
  32.9738130  63.2023040  94.6975590  48.0387260  63.9326790 103.2376620
  48.1650320  63.6938670 102.3193800  48.0808640  63.1011330 103.7098700
  43.8758400  67.9210130  91.2355430  43.7159540  67.6313070  92.1337260
  43.7105110  67.1450260  90.7000660  39.6024800  54.4750410 105.6825270
  38.9123120  54.2822610 106.3171360  40.3457100  54.7585050 106.2149570
  41.8787770  58.3148850  98.5179190  41.1468890  58.8235660  98.8669290
  41.4812110  57.4978830  98.2167970  37.3906810  58.3016270  89.3121740
  36.8223710  57.8534520  88.6857650  38.0995810  58.6609050  88.7786890
  45.7684430  51.1814710 103.7688510  46.0930200  50.4504370 104.2946490
  45.8040940  50.8628350 102.8669500  45.6942270  61.2939820  97.3774540
  46.4141390  61.7895110  96.9870650  45.4924090  60.6157710  96.7328410
  41.0761070  61.3648880 103.2643540  41.0098380  60.4444550 103.0101130
  40.4466210  61.4624320 103.9788180  34.9791690  61.9654840  95.2226960
  35.4970360  61.1623100  95.1683850  34.5275710  61.9033980  96.0643790
  41.0077800  64.1869450 103.0147340  41.0222340  63.2550410 102.7966250
  40.3002900  64.2729210 103.6537110  47.1702120  65.2251530  92.0128080
  46.5278280  64.5707150  92.2871800  46.7832780  65.6306620  91.2368750
  42.7488600  62.5536960  95.8599770  43.1012420  61.9565090  95.2001140
  41.8650930  62.2281190  96.0308020  34.0390870  50.6618330  93.3518060
  33.9105500  50.6536230  94.3002980  33.2152890  51.0001420  93.0009070
  43.4881400  64.6314270 102.0301350  43.8237640  65.2180960 102.7079270
  42.5681740  64.5006980 102.2599140  45.1415750  62.0339930  90.2118590
  44.8537450  62.4952620  90.9996470  45.9367920  61.5737700  90.4802810
  42.5323580  54.9131760 100.5626210  42.9004400  54.0926970 100.8905780
  41.6721780  54.9733650 100.9781860  46.6992430  53.7839310 101.6292570
  46.1966030  54.5244710 101.9686380  47.5149090  54.1723310 101.3129360
  33.6642840  58.1417160  89.3190780  33.7446430  57.1944670  89.4308180
  34.5562590  58.4724040  89.4251440  46.9940020  66.1981340  96.7508190
  47.1187440  67.0212510  97.2232000  47.8605580  65.9872070  96.4032340
  34.4657550  68.2912550  96.4225320  35.2020030  67.7428010  96.6933890
  34.8498470  69.1568560  96.2831310  31.3503030  64.3586120  92.2966830
  30.4242810  64.6007260  92.2872240  31.8159460  65.1860380  92.1751580
  37.5759860  67.4642860  88.2450890  38.3688470  67.7531690  87.7932680
  37.0564210  67.0335030  87.5663370  46.6290030  66.6912990  89.6687630
  46.3431540  66.2778130  88.8541810  46.4309580  67.6200700  89.5488150
  38.2451580  61.3703070 104.0882470  37.4797250  61.9388070 104.0037140
  38.4267540  61.0779280 103.1950700  39.5142750  59.7294830  87.8577630
  40.0348410  59.0143850  87.4918780  40.1611150  60.3680700  88.1578140
  41.1599720  58.8359890 102.5346470  41.2795930  58.2401030 103.2741310
  42.0193720  58.8729580 102.1147770  35.8974010  56.7790450  87.5558690
  35.6963070  55.9157810  87.9172030  35.7266060  56.6923810  86.6180290
  36.6743240  67.4096720 102.2666360  36.1364330  68.1342780 101.9475060
  36.9277200  66.9327060 101.4763700  42.7461920  54.9947050 104.0255310
  42.0577440  54.3328590 103.9605300  43.4667940  54.5485320 104.4703770
  39.5305450  68.6447930 102.5253010  39.4564150  69.5483070 102.8325380
  38.6284290  68.3259830 102.4975080  40.0790780  67.8106440  90.1479370
  40.9741570  68.1491410  90.1698130  40.1108410  67.0885850  89.5203650
  30.9332740  65.9722520  95.8286630  31.2635750  65.1043580  95.5965270
  31.3623740  66.1781040  96.6591590  31.4222950  66.8393110  98.5668260
  30.9853940  67.0193910  99.3992410  31.9900630  67.5967730  98.4249980
  47.0585130  66.3410110 102.8545570  46.4587120  66.4002670 102.1109490
  47.1879030  65.4015090 102.9842420  48.2986580  64.0827930  88.1915280
  47.4679540  64.1504580  88.6622510  48.4758410  64.9732050  87.8882140
  47.7543040  60.8275410  90.6949480  48.5161950  61.3972060  90.8009170
  47.7697410  60.2602610  91.4657790  48.7603010  61.6825510  95.5391410
  49.1311840  60.8992830  95.1327380  49.4004940  62.3714610  95.3608710
  45.7436770  63.0662090 100.9521730  44.9296610  63.4959250 101.2147520
  46.1510970  63.6780500 100.3390780  47.8062210  61.1209780  87.8522000
  48.0811050  62.0288660  87.7241220  47.6172950  61.0572310  88.7883990
  45.5315240  53.4306720 105.2570650  46.4085420  53.4390120 105.6404650
  45.5436080  52.6937560 104.6463000  32.3479020  50.9223330  97.7202120
  32.9955210  50.3720710  97.2797280  32.7680860  51.1766480  98.5417930
  46.2431360  51.1164690 101.0771760  46.8803580  51.7298830 101.4430950
  46.3906250  51.1525350 100.1320990  45.8012820  67.8180690  94.4790000
  46.3971890  67.4965260  93.8024420  46.0590970  67.3452510  95.2703270
  32.1011020  51.0779000 100.4627440  31.7525840  51.5342820 101.2285620
  31.7698720  50.1836130 100.5449870  48.6685580  67.8252570 101.0300990
  48.1743860  68.2221440 100.3128120  48.0598870  67.2001780 101.4238270
  33.5463420  67.1960850 101.7478410  32.9523740  67.0645550 102.4868450
  33.5387260  66.3598990 101.2820510  43.8990420  52.6963950 101.3350160
  43.5703780  51.8815710 100.9551890  44.8472720  52.6533760 101.2115850
  33.1775650  64.5619230 100.6986450  32.4509710  63.9424520 100.6312400
  33.2384800  64.9559840  99.8284530  39.5888610  68.5888820 105.6773040
  40.5155920  68.3533090 105.7209000  39.5739040  69.4160820 105.1959070
  47.8233670  68.1314390  92.6747290  47.9985860  67.4452130  92.0308210
  47.1255240  68.6561440  92.2823960  35.6661320  68.5209230  90.2282600
  36.3980140  68.2368510  89.6806490  35.9254990  68.2822510  91.1181980
  43.3767680  50.6687150 106.0195390  43.2633130  50.9881760 106.9146910
  44.1937420  51.0699660 105.7232670  40.4143870  60.4658640  78.2639400
  39.6385970  59.9859080  78.5537970  41.0656800  59.7864290  78.0895560
  44.4351300  64.8718830  77.0438530  43.9732830  64.1006070  77.3725700
  45.2476850  64.8984900  77.5490980  40.6614610  67.1576840  76.6642520
  40.0426050  67.6134340  76.0936960  41.5166390  67.3128300  76.2632220
  44.6682150  53.4436650  75.4306830  45.4891770  52.9533220  75.4732310
  44.7016230  54.0334310  76.1838670  48.9581700  55.4603400  81.9950460
  48.2533870  55.8485110  81.4765570  49.2239620  56.1553690  82.5971390
  46.5206410  65.0012160  80.4661850  45.8369930  65.6711270  80.4578520
  47.0600700  65.1992810  79.7006710  47.9730550  54.8291820  78.5943580
  47.0255460  54.8630800  78.7259010  48.2980540  55.6430770  78.9792940
  44.0565150  66.8456290  79.1807030  44.0692310  66.4418580  78.3129290
  43.5040370  67.6203580  79.0768460  43.4550590  61.7486130  80.5089640
  43.8719380  61.5346240  79.6743100  44.1790410  62.0058920  81.0798260
  47.4012690  60.1473350  80.6005880  46.5731320  60.2166440  80.1256010
  47.9963170  60.7327660  80.1321710  36.4987490  59.7202570  76.4079420
  36.0944490  59.0079820  75.9125320  36.5850610  59.3755810  77.2967460
  45.0554800  66.9802000  82.2341730  44.5785360  67.7874190  82.0414340
  44.3716590  66.3280330  82.3867940  41.2088220  64.9341010  75.1048930
  41.6484130  65.6765340  74.6904320  41.1475110  65.1767580  76.0287890
  46.6809980  51.2487750  69.4508730  46.3682640  51.3414580  70.3507800
  47.4422450  51.8268780  69.4006160  30.8377490  61.7862690  79.7154710
  30.9157910  61.9211460  78.7710430  31.4519170  61.0778580  79.9082830
  32.0825120  63.4862880  76.1260890  31.6753200  63.6277470  75.2714490
  32.9738130  63.2023040  75.9232100  48.0387260  63.9326790  84.4633130
  48.1650320  63.6938670  83.5450310  48.0808640  63.1011330  84.9355210
  43.8758400  67.9210130  72.4611940  43.7159540  67.6313070  73.3593770
  43.7105110  67.1450260  71.9257170  43.5784530  65.4297690  71.0209940
  42.8849690  65.4274980  70.3612220  44.3207390  65.0057010  70.5904110
  43.1434460  67.0560400  75.0958430  43.5991410  66.2749780  75.4097050
  43.4826980  67.7667220  75.6399610  30.8937010  62.8276860  82.2549170
  31.0568050  62.3582220  81.4368540  31.3589460  62.3200420  82.9198010
  38.7814600  51.5793320  72.1715570  38.1568780  51.5753190  72.8968880
  38.6944720  50.7124280  71.7751540  30.3296800  52.3143900  77.8715120
  30.0409850  52.8846760  78.5840100  31.0742560  51.8348350  78.2346350
  41.8787770  58.3148850  79.7435700  41.1468890  58.8235660  80.0925800
  41.4812110  57.4978830  79.4424480  42.3413680  53.7682530  79.1558640
  42.3586420  54.2191180  80.0000490  42.0929260  52.8688170  79.3692080
  37.3906810  58.3016270  70.5378250  36.8223710  57.8534520  69.9114160
  38.0995810  58.6609050  70.0043400  32.4675990  62.2028290  84.4144980
  32.0830780  61.5621960  85.0127940  32.7788180  62.9064410  84.9839710
  38.6173130  59.0504830  79.8953600  38.9843260  58.5763400  80.6414940
  38.4278190  59.9246400  80.2361940  31.4813620  53.7948520  76.0247070
  31.1960540  53.4304190  76.8625690  31.4192480  53.0628980  75.4110210
  45.6942270  61.2939820  78.6031050  46.4141390  61.7895110  78.2127160
  45.4924090  60.6157710  77.9584920  41.1552210  52.6877780  72.7460440
  40.3416820  52.1890950  72.6705750  40.9614160  53.5276030  72.3296790
  32.4636230  58.9316210  83.3609170  32.1051170  59.5970060  83.9482510
  32.1690790  58.0999760  83.7321790  46.1414870  58.3709270  70.5102460
  46.0578590  58.8023490  69.6598900  46.8609060  58.8307620  70.9429280
  47.2189010  60.8276790  83.5872430  46.4937200  61.4205570  83.3901820
  47.7464470  60.8200330  82.7885800  42.7488600  62.5536960  77.0856280
  43.1012420  61.9565090  76.4257650  41.8650930  62.2281190  77.2564530
  38.8351880  63.3134650  74.4926690  39.5223010  63.8603860  74.8734280
  38.0484300  63.8575380  74.5276300  38.1379090  60.3180680  74.1052050
  38.5941870  61.1285930  74.3312240  37.7867300  60.0003820  74.9370540
  34.0390870  50.6618330  74.5774570  33.9105500  50.6536230  75.5259490
  33.2152890  51.0001420  74.2265580  43.4881400  64.6314270  83.2557860
  43.8237640  65.2180960  83.9335780  42.5681740  64.5006980  83.4855650
  45.1415750  62.0339930  71.4375100  44.8537450  62.4952620  72.2252980
  45.9367920  61.5737700  71.7059320  31.3257390  66.4089710  85.0247800
  31.4348510  65.4684450  84.8843190  30.6737950  66.6744460  84.3761530
  45.8985610  53.8688700  72.5970280  45.2698770  53.9734370  71.8828510
  45.4037530  54.0885480  73.3864160  46.6992430  53.7839310  82.8549080
  46.1966030  54.5244710  83.1942890  47.5149090  54.1723310  82.5385870
  31.1913640  59.9632080  85.7803460  31.6952660  59.3839360  86.3519690
  30.4521060  60.2472310  86.3179830  33.2236720  58.1061670  86.6753530
  33.2642060  57.8075540  87.5838760  34.0782220  58.5069280  86.5161050
  37.0015110  60.7057220  71.8357040  37.4231530  60.5397090  72.6788430
  37.1265950  59.8957450  71.3412180  35.1642530  56.6853770  84.6428020
  34.6338990  56.1944720  84.0151360  35.8330600  57.1137970  84.1085950
  39.5142750  59.7294830  69.0834140  40.0348410  59.0143850  68.7175290
  40.1611150  60.3680700  69.3834650  44.0620590  61.1523230  84.4069210
  44.4761610  61.3068310  85.2559630  43.1271590  61.2778450  84.5694990
  44.5342760  58.4919390  86.4108360  45.1163530  57.7371710  86.3228840
  44.7104530  59.0226830  85.6339840  43.4987620  59.3897080  82.3365490
  42.9722840  59.9139700  81.7330630  43.8418960  60.0224470  82.9675220
  43.3762320  51.5898680  71.3102080  43.6564610  50.7466580  71.6661500
  42.6028050  51.8221790  71.8240830  30.9332740  65.9722520  77.0543140
  31.2635750  65.1043580  76.8221780  31.3623740  66.1781040  77.8848100
  35.5294660  64.3031530  74.7145110  35.2290200  64.1796500  75.6149020
  35.4232150  63.4440120  74.3060840  47.0585130  66.3410110  84.0802080
  46.4587120  66.4002670  83.3366000  47.1879030  65.4015090  84.2098930
  47.7543040  60.8275410  71.9205990  48.5161950  61.3972060  72.0265680
  47.7697410  60.2602610  72.6914300  45.7436770  63.0662090  82.1778240
  44.9296610  63.4959250  82.4404030  46.1510970  63.6780500  81.5647290
  47.8062210  61.1209780  69.0778510  48.0811050  62.0288660  68.9497730
  47.6172950  61.0572310  70.0140500  44.2037820  54.1454630  70.3732140
  44.6222700  53.9585610  69.5328800  43.8973880  53.2933680  70.6835070
  47.7027550  59.0578770  74.0707940  47.3271150  58.2906700  73.6389230
  46.9730670  59.4401470  74.5582870  32.2923310  59.7365910  80.6916990
  32.6596350  59.6493310  81.5713010  31.7234130  58.9732460  80.5923850
  47.0927170  58.2050290  83.7047460  46.8613260  57.9763040  82.8045410
  47.3531720  59.1249840  83.6592350  31.8439310  56.6475000  84.5975410
  30.9495360  56.6141760  84.9369120  32.3836860  56.8461790  85.3626660
  46.9778510  57.2836260  77.3715180  47.5015990  56.7898910  76.7405350
  47.5637930  57.4186620  78.1162750  47.1568230  57.3676130  80.8934730
  46.2070940  57.3339670  81.0079720  47.3381240  58.2776240  80.6584500
  46.4678480  56.5409610  73.3107590  46.9637600  56.3080480  74.0956470
  46.2694550  55.7021450  72.8945230  32.3479020  50.9223330  78.9458630
  32.9955210  50.3720710  78.5053790  32.7680860  51.1766480  79.7674440
  47.8965640  55.1770560  75.8445270  47.7864920  55.0226600  76.7827540
  48.6573230  54.6491500  75.6020680  46.2431360  51.1164690  82.3028270
  46.8803580  51.7298830  82.6687460  46.3906250  51.1525350  81.3577500
  48.7855910  53.0078480  69.0851410  49.7105220  52.8759660  68.8769700
  48.7631700  53.0871300  70.0387860  48.8594400  53.7789140  71.7108120
  48.0645900  53.7134260  72.2401030  49.0637680  54.7139780  71.6993470
  48.6685580  67.8252570  82.2557500  48.1743860  68.2221440  81.5384630
  48.0598870  67.2001780  82.6494780  42.9918440  50.4893080  81.1764950
  42.1178280  50.8228190  80.9737880  42.8829190  50.0166260  82.0016820
  46.3525030  68.4675990  79.5344240  45.8928000  69.2191800  79.1602260
  45.7237490  67.7482460  79.4759040  33.1775650  64.5619230  81.9242960
  32.4509710  63.9424520  81.8568910  33.2384800  64.9559840  81.0541040
  40.7393260  51.4062920  80.1157860  39.9565050  51.8808420  80.3954620
  40.4456190  50.5017750  80.0071040  45.2914330  52.1086020  78.1606950
  45.7322420  52.0531120  77.3128550  45.0221920  53.0244030  78.2317130
  47.1552900  51.7401260  76.1715770  47.0941300  50.7962480  76.0246790
  47.9344930  51.8481350  76.7169230  32.0833670  51.7110400  72.6371580
  32.8413030  51.8239280  72.0635610  31.6210840  52.5479600  72.5915010
  38.6247480  53.8249670  75.6273890  37.8121990  53.4506560  75.2869770
  39.1289120  53.0694750  75.9295080  36.6496660  51.9749590  74.2318940
  36.0199400  51.2736900  74.3989070  36.1101800  52.7353720  74.0152100
  34.4309700  60.7778450  60.3671670  33.5994580  60.5227160  60.7668180
  35.0390680  60.8489220  61.1029590  44.4351300  64.8718830  58.2695040
  43.9732830  64.1006070  58.5982210  45.2476850  64.8984900  58.7747490
  40.6614610  67.1576840  57.8899030  40.0426050  67.6134340  57.3193470
  41.5166390  67.3128300  57.4888730  48.9581700  55.4603400  63.2206970
  48.2533870  55.8485110  62.7022080  49.2239620  56.1553690  63.8227900
  35.6028820  63.5372750  63.7763720  36.2202820  64.2123830  63.4948170
  34.7421940  63.9460730  63.6851220  46.5206410  65.0012160  61.6918360
  45.8369930  65.6711270  61.6835030  47.0600700  65.1992810  60.9263220
  38.5050090  51.1289000  58.1156080  38.8125070  50.5735890  57.3991580
  37.5750790  51.2633460  57.9329070  44.0565150  66.8456290  60.4063540
  44.0692310  66.4418580  59.5385800  43.5040370  67.6203580  60.3024970
  47.4012690  60.1473350  61.8262390  46.5731320  60.2166440  61.3512520
  47.9963170  60.7327660  61.3578220  44.3654700  56.9342670  62.7717260
  43.9525880  57.7596380  63.0257250  43.6330650  56.3487710  62.5793620
  36.9669190  63.4070130  59.7975140  36.6697480  62.8015600  59.1182920
  37.9169010  63.4447440  59.6864500  45.0554800  66.9802000  63.4598240
  44.5785360  67.7874190  63.2670850  44.3716590  66.3280330  63.6124450
  36.0587620  63.1451820  66.4482940  35.1616150  63.3691790  66.6956340
  36.0840490  63.2686760  65.4994340  41.2088220  64.9341010  56.3305440
  41.6484130  65.6765340  55.9160830  41.1475110  65.1767580  57.2544400
  32.0825120  63.4862880  57.3517400  31.6753200  63.6277470  56.4971000
  32.9738130  63.2023040  57.1488610  48.0387260  63.9326790  65.6889640
  48.1650320  63.6938670  64.7706820  48.0808640  63.1011330  66.1611720
  36.3546780  67.7008660  55.4640070  36.1789260  66.7844200  55.2507870
  35.5002520  68.0595950  55.7037870  47.8911270  55.9859250  66.6539380
  47.2755540  56.4938920  66.1254840  47.5707690  55.0857580  66.5965320
  35.6655780  51.9582620  58.5166250  35.2223930  52.7392160  58.1850770
  36.2240770  52.2812510  59.2237190  44.9530100  56.0460090  65.2498230
  44.1023690  55.7465840  65.5707300  44.7931890  56.2902100  64.3382050
  42.0479810  57.5461840  67.3497020  42.3733220  56.7125590  67.0099250
  42.8360140  58.0690360  67.4975350  37.7031680  52.5029950  60.3755850
  38.0004010  53.4092780  60.2947870  38.2517240  52.0148730  59.7615420
  34.1667540  54.8729540  58.3338910  33.8267590  55.3504770  59.0905960
  33.4044860  54.4194660  57.9740010  42.3413680  53.7682530  60.3815150
  42.3586420  54.2191180  61.2257000  42.0929260  52.8688170  60.5948590
  45.7684430  51.1814710  66.2201530  46.0930200  50.4504370  66.7459510
  45.8040940  50.8628350  65.3182520  45.6942270  61.2939820  59.8287560
  46.4141390  61.7895110  59.4383670  45.4924090  60.6157710  59.1841430
  35.6649350  59.3900450  67.4705230  35.3649490  59.5357630  66.5733050
  36.4360590  58.8305740  67.3778620  47.2189010  60.8276790  64.8128940
  46.4937200  61.4205570  64.6158330  47.7464470  60.8200330  64.0142310
  42.7488600  62.5536960  58.3112790  43.1012420  61.9565090  57.6514160
  41.8650930  62.2281190  58.4821040  38.8351880  63.3134650  55.7183200
  39.5223010  63.8603860  56.0990790  38.0484300  63.8575380  55.7532810
  38.1379090  60.3180680  55.3308560  38.5941870  61.1285930  55.5568750
  37.7867300  60.0003820  56.1627050  40.4411700  65.8287020  62.5600860
  41.0853920  66.0346400  63.2374280  40.8041140  65.0675420  62.1071710
  34.0390870  50.6618330  55.8031080  33.9105500  50.6536230  56.7516000
  33.2152890  51.0001420  55.4522090  37.8669640  56.1474650  55.2384670
  37.1585790  56.6160990  55.6798280  38.1514120  55.4896660  55.8729860
  38.9861860  68.1080610  55.9508440  39.2403360  68.0702000  55.0287810
  38.0374340  67.9813940  55.9436690  36.0704660  54.4559730  52.6135380
  36.9195190  54.8929880  52.5475570  35.7035930  54.7679990  53.4407440
  46.6992430  53.7839310  64.0805590  46.1966030  54.5244710  64.4199400
  47.5149090  54.1723310  63.7642380  31.3503030  64.3586120  54.7479850
  30.4242810  64.6007260  54.7385260  31.8159460  65.1860380  54.6264600
  43.7380830  67.3118780  66.6208740  44.6902580  67.2276800  66.5708980
  43.5909050  67.9760490  67.2942530  45.3874930  63.1008400  67.0970510
  46.1284400  63.4384160  66.5937970  44.6247610  63.2700460  66.5440280
  44.5342760  58.4919390  67.6364870  45.1163530  57.7371710  67.5485350
  44.7104530  59.0226830  66.8596350  35.5294660  64.3031530  55.9401620
  35.2290200  64.1796500  56.8405530  35.4232150  63.4440120  55.5317350
  45.7436770  63.0662090  63.4034750  44.9296610  63.4959250  63.6660540
  46.1510970  63.6780500  62.7903800  32.2923310  59.7365910  61.9173500
  32.6596350  59.6493310  62.7969520  31.7234130  58.9732460  61.8180360
  47.0927170  58.2050290  64.9303970  46.8613260  57.9763040  64.0301920
  47.3531720  59.1249840  64.8848860  45.5315240  53.4306720  67.7083670
  46.4085420  53.4390120  68.0917670  45.5436080  52.6937560  67.0976020
  47.1568230  57.3676130  62.1191240  46.2070940  57.3339670  62.2336230
  47.3381240  58.2776240  61.8841010  32.6586830  51.6717140  50.2692520
  33.3814960  52.2126080  50.5873740  32.9311350  51.3980560  49.3934060
  46.2431360  51.1164690  63.5284780  46.8803580  51.7298830  63.8943970
  46.3906250  51.1525350  62.5834010  33.7075390  64.2498600  67.0793650
  33.6645020  63.8791510  67.9608110  33.8386400  65.1876170  67.2195470
  48.6685580  67.8252570  63.4814010  48.1743860  68.2221440  62.7641140
  48.0598870  67.2001780  63.8751290  43.8990420  52.6963950  63.7863180
  43.5703780  51.8815710  63.4064910  44.8472720  52.6533760  63.6628870
  39.5216250  67.6672720  60.7617860  39.8094060  67.4127020  59.8850870
  40.0339470  67.1150080  61.3523430  40.7393260  51.4062920  61.3414370
  39.9565050  51.8808420  61.6211130  40.4456190  50.5017750  61.2327550
  45.2914330  52.1086020  59.3863460  45.7322420  52.0531120  58.5385060
  45.0221920  53.0244030  59.4573640  47.1552900  51.7401260  57.3972280
  47.0941300  50.7962480  57.2503300  47.9344930  51.8481350  57.9425740
  38.6247480  53.8249670  56.8530400  37.8121990  53.4506560  56.5126280
  39.1289120  53.0694750  57.1551590  43.1272460  50.4892120  58.0913470
  43.7301830  51.0612330  58.5661990  42.3865450  51.0531560  57.8687370
  33.0668350  66.5726850  53.8046370  32.5415970  66.9534880  53.1008330
  32.9912930  67.1977620  54.5256080  36.6496660  51.9749590  55.4575450
  36.0199400  51.2736900  55.6245580  36.1101800  52.7353720  55.2408610
  42.2825830  58.6879620  38.8343150  42.2019880  57.7734230  38.5634860
  41.8690250  59.1846690  38.1282860  34.4309700  60.7778450  41.5928180
  33.5994580  60.5227160  41.9924690  35.0390680  60.8489220  42.3286100
  34.4110960  64.8118540  41.7886200  34.7139000  63.9216280  41.6096420
  35.1554550  65.3688760  41.5608450  32.0459530  53.7470350  43.0479200
  31.8662370  52.8496100  43.3281960  31.6439610  54.2942220  43.7226150
  32.6646200  56.2430850  41.6561540  33.3456310  56.5069220  42.2748940
  32.3494250  55.4031720  41.9899550  48.9581700  55.4603400  44.4463480
  48.2533870  55.8485110  43.9278590  49.2239620  56.1553690  45.0484410
  36.3909720  61.5691950  43.1871050  36.0579100  62.1960870  43.8292120
  36.5676400  62.0953830  42.4072720  35.6028820  63.5372750  45.0020230
  36.2202820  64.2123830  44.7204680  34.7421940  63.9460730  44.9107730
  30.8961160  62.7272610  33.8827080  30.5189140  63.2159710  33.1511980
  31.1534230  63.3997890  34.5133610  38.5050090  51.1289000  39.3412590
  38.8125070  50.5735890  38.6248090  37.5750790  51.2633460  39.1585580
  43.4550590  61.7486130  42.9602660  43.8719380  61.5346240  42.1256120
  44.1790410  62.0058920  43.5311280  40.8930850  59.1937830  36.0772710
  39.9660130  59.1275210  36.3061180  41.0455670  60.1317960  35.9627950
  40.8799930  55.4654830  33.0739870  39.9403600  55.6268790  33.1592330
  41.1983190  56.1840510  32.5275860  47.4012690  60.1473350  43.0518900
  46.5731320  60.2166440  42.5769030  47.9963170  60.7327660  42.5834730
  44.3654700  56.9342670  43.9973770  43.9525880  57.7596380  44.2513760
  43.6330650  56.3487710  43.8050130  36.4987490  59.7202570  38.8592440
  36.0944490  59.0079820  38.3638340  36.5850610  59.3755810  39.7480480
  46.6809980  51.2487750  31.9021750  46.3682640  51.3414580  32.8020820
  47.4422450  51.8268780  31.8519180  30.8377490  61.7862690  42.1667730
  30.9157910  61.9211460  41.2223450  31.4519170  61.0778580  42.3595850
  43.8758400  67.9210130  34.9124960  43.7159540  67.6313070  35.8106790
  43.7105110  67.1450260  34.3770190  36.3546780  67.7008660  36.6896580
  36.1789260  66.7844200  36.4764380  35.5002520  68.0595950  36.9294380
  30.8937010  62.8276860  44.7062190  31.0568050  62.3582220  43.8881560
  31.3589460  62.3200420  45.3711030  38.7814600  51.5793320  34.6228590
  38.1568780  51.5753190  35.3481900  38.6944720  50.7124280  34.2264560
  30.3296800  52.3143900  40.3228140  30.0409850  52.8846760  41.0353120
  31.0742560  51.8348350  40.6859370  30.5167030  56.2564020  31.5330860
  30.4341700  57.1994780  31.6745850  30.1650090  56.1138930  30.6543210
  41.8787770  58.3148850  42.1948720  41.1468890  58.8235660  42.5438820
  41.4812110  57.4978830  41.8937500  38.3785310  55.9915130  33.5907970
  38.4998130  55.9501610  34.5393790  37.9933820  56.8539280  33.4354700
  37.3906810  58.3016270  32.9891270  36.8223710  57.8534520  32.3627180
  38.0995810  58.6609050  32.4556420  34.9354290  62.2974460  35.2617680
  34.1616550  61.7572080  35.1016400  35.6648920  61.7781070  34.9235440
  41.1552210  52.6877780  35.1973460  40.3416820  52.1890950  35.1218770
  40.9614160  53.5276030  34.7809810  34.9791690  61.9654840  38.8996490
  35.4970360  61.1623100  38.8453380  34.5275710  61.9033980  39.7413320
  47.2189010  60.8276790  46.0385450  46.4937200  61.4205570  45.8414840
  47.7464470  60.8200330  45.2398820  47.1702120  65.2251530  35.6897610
  46.5278280  64.5707150  35.9641330  46.7832780  65.6306620  34.9138280
  30.9744280  58.9307470  32.4356790  31.8439130  59.2132270  32.7192710
  30.4834600  59.7443340  32.3205600  38.1379090  60.3180680  36.5565070
  38.5941870  61.1285930  36.7825260  37.7867300  60.0003820  37.3883560
  31.3415530  68.1434850  33.0018420  31.7013170  68.7424190  32.3475690
  31.2007870  68.6894740  33.7753450  31.0384800  52.4209450  46.4894290
  30.3243320  52.6206370  47.0946900  31.4579840  51.6449020  46.8609090
  31.3257390  66.4089710  47.4760820  31.4348510  65.4684450  47.3356210
  30.6737950  66.6744460  46.8274550  37.3584150  65.5266050  33.8192090
  37.3494250  66.2595740  33.2036600  36.4382510  65.2797630  33.9119050
  32.9590790  60.7480940  34.5638850  32.3518740  61.4879840  34.5734150
  33.4340140  60.8380300  33.7377050  38.9861860  68.1080610  37.1764950
  39.2403360  68.0702000  36.2544320  38.0374340  67.9813940  37.1693200
  46.6992430  53.7839310  45.3062100  46.1966030  54.5244710  45.6455910
  47.5149090  54.1723310  44.9898890  34.9696080  60.7092090  32.3127420
  35.7359350  60.5973450  32.8752850  35.0470770  60.0130060  31.6604190
  33.6642840  58.1417160  32.9960310  33.7446430  57.1944670  33.1077710
  34.5562590  58.4724040  33.1020970  37.5759860  67.4642860  31.9220420
  38.3688470  67.7531690  31.4702210  37.0564210  67.0335030  31.2432900
  46.6290030  66.6912990  33.3457160  46.3431540  66.2778130  32.5311340
  46.4309580  67.6200700  33.2257680  38.0937260  62.6846270  31.7862770
  37.9887900  62.0698620  32.5124150  37.9261480  62.1612160  31.0025780
  37.0015110  60.7057220  34.2870060  37.4231530  60.5397090  35.1301450
  37.1265950  59.8957450  33.7925200  39.5142750  59.7294830  31.5347160
  40.0348410  59.0143850  31.1688310  40.1611150  60.3680700  31.8347670
  38.8235820  61.1043710  44.8278160  39.2423930  61.9476440  44.6554400
  37.9044450  61.2415750  44.5984940  35.8974010  56.7790450  31.2328220
  35.6963070  55.9157810  31.5941560  35.7266060  56.6923810  30.2949820
  43.3762320  51.5898680  33.7615100  43.6564610  50.7466580  34.1174520
  42.6028050  51.8221790  34.2753850  34.6956810  53.8791070  31.2206100
  34.9982710  53.8858500  30.3125250  35.4351400  53.5288930  31.7173760
  37.9141740  52.8225690  32.2062300  37.5663740  52.1449680  31.6264750
  38.1154510  52.3615200  33.0205690  40.0790780  67.8106440  33.8248900
  40.9741570  68.1491410  33.8467660  40.1108410  67.0885850  33.1973180
  33.7186940  63.1833490  32.0535900  34.1561810  63.7263160  32.7093480
  34.2034670  62.3580440  32.0632240  35.5294660  64.3031530  37.1658130
  35.2290200  64.1796500  38.0662040  35.4232150  63.4440120  36.7573860
  31.4222950  66.8393110  42.2437790  30.9853940  67.0193910  43.0761940
  31.9900630  67.5967730  42.1019510  48.2986580  64.0827930  31.8684810
  47.4679540  64.1504580  32.3392040  48.4758410  64.9732050  31.5651670
  31.2547380  59.3513340  38.6026670  30.5996220  59.0824980  37.9586370
  32.0925330  59.2417820  38.1528650  47.8062210  61.1209780  31.5291530
  48.0811050  62.0288660  31.4010750  47.6172950  61.0572310  32.4653520
  44.2037820  54.1454630  32.8245160  44.6222700  53.9585610  31.9841820
  43.8973880  53.2933680  33.1348090  32.2923310  59.7365910  43.1430010
  32.6596350  59.6493310  44.0226030  31.7234130  58.9732460  43.0436870
  30.4685460  56.5612270  34.5452000  29.5649540  56.8242470  34.3703660
  30.9526080  56.8323440  33.7651960  47.1568230  57.3676130  43.3447750
  46.2070940  57.3339670  43.4592740  47.3381240  58.2776240  43.1097520
  33.0112670  55.6177810  32.4546380  33.7204370  55.1961030  31.9693660
  32.2952610  55.6853040  31.8229730  32.6586830  51.6717140  31.4949030
  33.3814960  52.2126080  31.8130250  32.9311350  51.3980560  30.6190570
  32.3479020  50.9223330  41.3971650  32.9955210  50.3720710  40.9566810
  32.7680860  51.1766480  42.2187460  46.2431360  51.1164690  44.7541290
  46.8803580  51.7298830  45.1200480  46.3906250  51.1525350  43.8090520
  48.7855910  53.0078480  31.5364430  49.7105220  52.8759660  31.3282720
  48.7631700  53.0871300  32.4900880  32.1011020  51.0779000  44.1396970
  31.7525840  51.5342820  44.9055150  31.7698720  50.1836130  44.2219400
  33.7075390  64.2498600  48.3050160  33.6645020  63.8791510  49.1864620
  33.8386400  65.1876170  48.4451980  32.7731660  50.6055200  47.4147740
  33.3214650  50.4243250  46.6513850  32.8386970  49.8149310  47.9504050
  33.5463420  67.1960850  45.4247940  32.9523740  67.0645550  46.1637980
  33.5387260  66.3598990  44.9590040  33.1775650  64.5619230  44.3755980
  32.4509710  63.9424520  44.3081930  33.2384800  64.9559840  43.5054060
  35.6661320  68.5209230  33.9052130  36.3980140  68.2368510  33.3576020
  35.9254990  68.2822510  34.7951510  34.8276110  64.6373960  33.9098460
  34.1984990  65.1059060  34.4584290  34.9423940  63.7923180  34.3444650
  42.2825830  58.6879620  20.0599660  42.2019880  57.7734230  19.7891370
  41.8690250  59.1846690  19.3539370  40.4143870  60.4658640  21.9408930
  39.6385970  59.9859080  22.2307500  41.0656800  59.7864290  21.7665090
  34.4309700  60.7778450  22.8184690  33.5994580  60.5227160  23.2181200
  35.0390680  60.8489220  23.5542610  44.4351300  64.8718830  20.7208060
  43.9732830  64.1006070  21.0495230  45.2476850  64.8984900  21.2260510
  34.4110960  64.8118540  23.0142710  34.7139000  63.9216280  22.8352930
  35.1554550  65.3688760  22.7864960  32.8401650  55.7380340  16.6027080
  31.9518350  56.0796310  16.5006960  33.1242840  55.5380660  15.7107910
  30.8034660  58.3385990  22.4866780  31.3750770  57.5708190  22.4870420
  30.8036200  58.6374750  21.5773390  40.6614610  67.1576840  20.3412050
  40.0426050  67.6134340  19.7706490  41.5166390  67.3128300  19.9401750
  39.8552860  63.1415830  21.9479090  39.7861140  62.2005770  21.7868220
  40.6172720  63.2317240  22.5201660  32.0459530  53.7470350  24.2735710
  31.8662370  52.8496100  24.5538470  31.6439610  54.2942220  24.9482660
  40.8858030  55.9486210  22.1748020  41.2622850  55.0758090  22.0621690
  40.7877540  56.2844910  21.2838460  35.0163040  54.3211840  17.6365460
  35.1229790  55.2215570  17.9434220  34.1055400  54.2729810  17.3460110
  44.6682150  53.4436650  19.1076360  45.4891770  52.9533220  19.1501840
  44.7016230  54.0334310  19.8608200  32.6646200  56.2430850  22.8818050
  33.3456310  56.5069220  23.5005450  32.3494250  55.4031720  23.2156060
  36.8570770  57.2898210  21.9690640  37.3648990  57.7879180  22.6095660
  37.3884010  56.5133410  21.7930000  48.9581700  55.4603400  25.6719990
  48.2533870  55.8485110  25.1535100  49.2239620  56.1553690  26.2740920
  35.1406870  51.9296770  26.2354060  35.1425310  52.4469160  25.4299960
  34.3111180  51.4526950  26.2123990  41.5277960  62.0416080  17.7343960
  40.9095230  62.5065530  17.1706680  42.0401210  62.7343560  18.1513470
  36.3909720  61.5691950  24.4127560  36.0579100  62.1960870  25.0548630
  36.5676400  62.0953830  23.6329230  44.9043630  55.3837030  21.8803900
  44.1999200  55.6721920  22.4607010  45.2655790  56.1937140  21.5203460
  34.8222200  53.6406730  24.2424510  35.1639010  54.4848780  23.9478380
  33.8838010  53.7890470  24.3589850  35.6028820  63.5372750  26.2276740
  36.2202820  64.2123830  25.9461190  34.7421940  63.9460730  26.1364240
  30.8961160  62.7272610  15.1083590  30.5189140  63.2159710  14.3768490
  31.1534230  63.3997890  15.7390120  47.9730550  54.8291820  22.2713110
  47.0255460  54.8630800  22.4028540  48.2980540  55.6430770  22.6562470
  38.5050090  51.1289000  20.5669100  38.8125070  50.5735890  19.8504600
  37.5750790  51.2633460  20.3842090  44.0565150  66.8456290  22.8576560
  44.0692310  66.4418580  21.9898820  43.5040370  67.6203580  22.7537990
  45.3510570  63.5672510  17.9466730  45.2406900  62.6246840  18.0716150
  45.3478820  63.9288150  18.8329490  43.4550590  61.7486130  24.1859170
  43.8719380  61.5346240  23.3512630  44.1790410  62.0058920  24.7567790
  40.8930850  59.1937830  17.3029220  39.9660130  59.1275210  17.5317690
  41.0455670  60.1317960  17.1884460  40.8799930  55.4654830  14.2996380
  39.9403600  55.6268790  14.3848840  41.1983190  56.1840510  13.7532370
  47.4012690  60.1473350  24.2775410  46.5731320  60.2166440  23.8025540
  47.9963170  60.7327660  23.8091240  44.9228140  60.7558130  17.8064470
  44.3040560  60.4177680  17.1590770  44.9052590  60.1117890  18.5143660
  44.3654700  56.9342670  25.2230280  43.9525880  57.7596380  25.4770270
  43.6330650  56.3487710  25.0306640  36.4987490  59.7202570  20.0848950
  36.0944490  59.0079820  19.5894850  36.5850610  59.3755810  20.9736990
  36.9669190  63.4070130  22.2488160  36.6697480  62.8015600  21.5695940
  37.9169010  63.4447440  22.1377520  35.2116110  56.4945780  23.8647990
  35.7630700  56.6041120  23.0901240  35.7259620  56.8683380  24.5803220
  36.0587620  63.1451820  28.8995960  35.1616150  63.3691790  29.1469360
  36.0840490  63.2686760  27.9507360  43.0992840  59.9944940  14.8137220
  43.5386120  59.1567370  14.6675040  43.8121260  60.6274340  14.9001360
  34.8858840  60.0165140  27.4753330  34.7466610  60.8887940  27.8440730
  34.0040200  59.6737950  27.3301270  41.2088220  64.9341010  18.7818460
  41.6484130  65.6765340  18.3673850  41.1475110  65.1767580  19.7057420
  36.6839190  65.9586840  29.6838480  36.6554620  66.3629790  28.8166910
  36.5204160  65.0297200  29.5210080  46.6809980  51.2487750  13.1278260
  46.3682640  51.3414580  14.0277330  47.4422450  51.8268780  13.0775690
  33.1992120  58.6147550  17.5855600  33.0789720  59.3409640  16.9736870
  32.8893010  57.8450460  17.1083510  48.6354010  66.7413940  30.9802650
  49.1113730  67.2196830  31.6591730  49.2561170  66.6731430  30.2548150
  30.8377490  61.7862690  23.3924240  30.9157910  61.9211460  22.4479960
  31.4519170  61.0778580  23.5852360  32.0825120  63.4862880  19.8030420
  31.6753200  63.6277470  18.9484020  32.9738130  63.2023040  19.6001630
  41.9004000  67.6354790  26.7097470  42.4148670  67.5462800  27.5119900
  41.0573080  67.9814490  27.0025380  43.8758400  67.9210130  16.1381470
  43.7159540  67.6313070  17.0363300  43.7105110  67.1450260  15.6026700
  36.3546780  67.7008660  17.9153090  36.1789260  66.7844200  17.7020890
  35.5002520  68.0595950  18.1550890  43.5784530  65.4297690  14.6979470
  42.8849690  65.4274980  14.0381750  44.3207390  65.0057010  14.2673640
  43.1434460  67.0560400  18.7727960  43.5991410  66.2749780  19.0866580
  43.4826980  67.7667220  19.3169140  47.8911270  55.9859250  29.1052400
  47.2755540  56.4938920  28.5767860  47.5707690  55.0857580  29.0478340
  30.8937010  62.8276860  25.9318700  31.0568050  62.3582220  25.1138070
  31.3589460  62.3200420  26.5967540  35.6655780  51.9582620  20.9679270
  35.2223930  52.7392160  20.6363790  36.2240770  52.2812510  21.6750210
  39.9525590  54.8251140  26.5714590  39.4904960  55.0334160  27.3834530
  39.5503700  54.0110490  26.2685260  44.9530100  56.0460090  27.7011250
  44.1023690  55.7465840  28.0220320  44.7931890  56.2902100  26.7895070
  42.0479810  57.5461840  29.8010040  42.3733220  56.7125590  29.4612270
  42.8360140  58.0690360  29.9488370  38.7814600  51.5793320  15.8485100
  38.1568780  51.5753190  16.5738410  38.6944720  50.7124280  15.4521070
  37.7031680  52.5029950  22.8268870  38.0004010  53.4092780  22.7460890
  38.2517240  52.0148730  22.2128440  35.4570000  57.0816190  18.6960520
  35.2310920  56.8653360  19.6007140  34.6762530  57.5144650  18.3506490
  42.6867760  57.0879560  17.2951170  42.0876650  57.8115360  17.1114790
  43.2347370  57.0256340  16.5127620  37.8969210  57.9801770  29.3620790
  37.8012810  57.0396500  29.2121190  38.7401190  58.2016840  28.9668860
  41.2932630  55.7243100  19.3254450  41.6862200  56.0415300  18.5123140
  41.6549480  54.8454980  19.4398970  33.0279750  54.3915440  27.5154570
  32.6343140  55.2390650  27.7227350  32.3398150  53.7541810  27.7063210
  39.6024800  54.4750410  30.5851310  38.9123120  54.2822610  31.2197400
  40.3457100  54.7585050  31.1175610  30.3296800  52.3143900  21.5484650
  30.0409850  52.8846760  22.2609630  31.0742560  51.8348350  21.9115880
  30.5167030  56.2564020  12.7587370  30.4341700  57.1994780  12.9002360
  30.1650090  56.1138930  11.8799720  41.8787770  58.3148850  23.4205230
  41.1468890  58.8235660  23.7695330  41.4812110  57.4978830  23.1194010
  38.3165160  54.9903050  21.8257720  38.3201220  54.5493000  20.9762260
  39.2116280  55.3120380  21.9329540  34.1667540  54.8729540  20.7851930
  33.8267590  55.3504770  21.5418980  33.4044860  54.4194660  20.4253030
  38.3785310  55.9915130  14.8164480  38.4998130  55.9501610  15.7650300
  37.9933820  56.8539280  14.6611210  42.3413680  53.7682530  22.8328170
  42.3586420  54.2191180  23.6770020  42.0929260  52.8688170  23.0461610
  37.3906810  58.3016270  14.2147780  36.8223710  57.8534520  13.5883690
  38.0995810  58.6609050  13.6812930  45.7684430  51.1814710  28.6714550
  46.0930200  50.4504370  29.1972530  45.8040940  50.8628350  27.7695540
  32.4675990  62.2028290  28.0914510  32.0830780  61.5621960  28.6897470
  32.7788180  62.9064410  28.6609240  38.6173130  59.0504830  23.5723130
  38.9843260  58.5763400  24.3184470  38.4278190  59.9246400  23.9131470
  31.4813620  53.7948520  19.7016600  31.1960540  53.4304190  20.5395220
  31.4192480  53.0628980  19.0879740  36.4072500  58.0913470  25.8907340
  36.1029570  58.9705450  26.1157700  37.3618960  58.1513260  25.9264780
  34.9354290  62.2974460  16.4874190  34.1616550  61.7572080  16.3272910
  35.6648920  61.7781070  16.1491950  45.6942270  61.2939820  22.2800580
  46.4141390  61.7895110  21.8896690  45.4924090  60.6157710  21.6354450
  41.1552210  52.6877780  16.4229970  40.3416820  52.1890950  16.3475280
  40.9614160  53.5276030  16.0066320  41.0761070  61.3648880  28.1669580
  41.0098380  60.4444550  27.9127170  40.4466210  61.4624320  28.8814220
  43.8700600  57.0597430  14.7192130  44.7580220  57.3714660  14.5443470
  43.8405690  56.1869680  14.3272710  34.9791690  61.9654840  20.1253000
  35.4970360  61.1623100  20.0709890  34.5275710  61.9033980  20.9669830
  39.8661190  63.2321120  15.3980300  40.2076890  63.9763350  14.9023620
  39.0373900  63.5452240  15.7605130  32.4636230  58.9316210  27.0378700
  32.1051170  59.5970060  27.6252040  32.1690790  58.0999760  27.4091320
  35.6649350  59.3900450  29.9218250  35.3649490  59.5357630  29.0246070
  36.4360590  58.8305740  29.8291640  41.0077800  64.1869450  27.9173380
  41.0222340  63.2550410  27.6992290  40.3002900  64.2729210  28.5563150
  46.1414870  58.3709270  14.1871990  46.0578590  58.8023490  13.3368430
  46.8609060  58.8307620  14.6198810  47.1702120  65.2251530  16.9154120
  46.5278280  64.5707150  17.1897840  46.7832780  65.6306620  16.1394790
  42.7488600  62.5536960  20.7625810  43.1012420  61.9565090  20.1027180
  41.8650930  62.2281190  20.9334060  38.8351880  63.3134650  18.1696220
  39.5223010  63.8603860  18.5503810  38.0484300  63.8575380  18.2045830
  30.9744280  58.9307470  13.6613300  31.8439130  59.2132270  13.9449220
  30.4834600  59.7443340  13.5462110  38.1379090  60.3180680  17.7821580
  38.5941870  61.1285930  18.0081770  37.7867300  60.0003820  18.6140070
  40.4411700  65.8287020  25.0113880  41.0853920  66.0346400  25.6887300
  40.8041140  65.0675420  24.5584730  34.0390870  50.6618330  18.2544100
  33.9105500  50.6536230  19.2029020  33.2152890  51.0001420  17.9035110
  41.7143780  63.8319370  23.7291330  42.3566010  63.1312530  23.8423500
  42.2393130  64.6117810  23.5488220  45.5599500  64.1167990  13.4530470
  45.3337080  63.3998430  14.0455110  45.1695700  63.8680430  12.6152220
  31.3415530  68.1434850  14.2274930  31.7013170  68.7424190  13.5732200
  31.2007870  68.6894740  15.0009960  31.0384800  52.4209450  27.7150800
  30.3243320  52.6206370  28.3203410  31.4579840  51.6449020  28.0865600
  45.1415750  62.0339930  15.1144630  44.8537450  62.4952620  15.9022510
  45.9367920  61.5737700  15.3828850  31.3257390  66.4089710  28.7017330
  31.4348510  65.4684450  28.5612720  30.6737950  66.6744460  28.0531060
  39.3169980  64.6805600  30.1015450  38.9966850  63.9614840  30.6461140
  38.6428340  65.3560670  30.1751510  37.3584150  65.5266050  15.0448600
  37.3494250  66.2595740  14.4293110  36.4382510  65.2797630  15.1375560
  32.9590790  60.7480940  15.7895360  32.3518740  61.4879840  15.7990660
  33.4340140  60.8380300  14.9633560  42.5323580  54.9131760  25.4652250
  42.9004400  54.0926970  25.7931820  41.6721780  54.9733650  25.8807900
  45.8985610  53.8688700  16.2739810  45.2698770  53.9734370  15.5598040
  45.4037530  54.0885480  17.0633690  40.3443750  65.5894290  13.7073790
  40.4455730  65.3858280  12.7775770  39.4445490  65.3352570  13.9121570
  37.8669640  56.1474650  17.6897690  37.1585790  56.6160990  18.1311300
  38.1514120  55.4896660  18.3242880  39.4925570  57.5671350  25.6890220
  39.9910820  58.0417170  26.3542070  39.6348520  56.6434870  25.8960250
  41.8985070  52.8725310  19.1293480  41.7752850  52.8911440  18.1802990
  42.8469630  52.9204250  19.2491880  38.9861860  68.1080610  18.4021460
  39.2403360  68.0702000  17.4800830  38.0374340  67.9813940  18.3949710
  36.0704660  54.4559730  15.0648400  36.9195190  54.8929880  14.9988590
  35.7035930  54.7679990  15.8920460  46.6992430  53.7839310  26.5318610
  46.1966030  54.5244710  26.8712420  47.5149090  54.1723310  26.2155400
  44.9914440  59.0272490  19.9779970  44.0504580  59.0422720  20.1527660
  45.3058510  58.2408450  20.4240270  34.9696080  60.7092090  13.5383930
  35.7359350  60.5973450  14.1009360  35.0470770  60.0130060  12.8860700
  33.6642840  58.1417160  14.2216820  33.7446430  57.1944670  14.3334220
  34.5562590  58.4724040  14.3277480  46.9940020  66.1981340  21.6534230
  47.1187440  67.0212510  22.1258040  47.8605580  65.9872070  21.3058380
  34.4657550  68.2912550  21.3251360  35.2020030  67.7428010  21.5959930
  34.8498470  69.1568560  21.1857350  31.3503030  64.3586120  17.1992870
  30.4242810  64.6007260  17.1898280  31.8159460  65.1860380  17.0777620
  33.4715830  67.4758620  30.5136940  34.2728560  67.7970670  30.9272340
  32.9567650  67.1154200  31.2356850  37.5759860  67.4642860  13.1476930
  38.3688470  67.7531690  12.6958720  37.0564210  67.0335030  12.4689410
  43.7380830  67.3118780  29.0721760  44.6902580  67.2276800  29.0222000
  43.5909050  67.9760490  29.7455550  46.6290030  66.6912990  14.5713670
  46.3431540  66.2778130  13.7567850  46.4309580  67.6200700  14.4514190
  31.1913640  59.9632080  29.4572990  31.6952660  59.3839360  30.0289220
  30.4521060  60.2472310  29.9949360  38.0937260  62.6846270  13.0119280
  37.9887900  62.0698620  13.7380660  37.9261480  62.1612160  12.2282290
  38.2451580  61.3703070  28.9908510  37.4797250  61.9388070  28.9063180
  38.4267540  61.0779280  28.0976740  41.3339990  61.7466300  13.6161270
  40.7850090  62.1935600  14.2604010  41.9559250  61.2415550  14.1398940
  33.2236720  58.1061670  30.3523060  33.2642060  57.8075540  31.2608290
  34.0782220  58.5069280  30.1930580  37.0015110  60.7057220  15.5126570
  37.4231530  60.5397090  16.3557960  37.1265950  59.8957450  15.0181710
  35.1642530  56.6853770  28.3197550  34.6338990  56.1944720  27.6920890
  35.8330600  57.1137970  27.7855480  39.5142750  59.7294830  12.7603670
  40.0348410  59.0143850  12.3944820  40.1611150  60.3680700  13.0604180
  44.5342760  58.4919390  30.0877890  45.1163530  57.7371710  29.9998370
  44.7104530  59.0226830  29.3109370  35.6514830  53.6516140  28.3994840
  35.5571700  53.0336890  27.6745710  35.0712220  54.3782430  28.1724750
  38.4176270  52.2089380  25.4322230  37.9693570  52.2313640  24.5867780
  37.7841470  51.8108400  26.0292530  38.8235820  61.1043710  26.0534670
  39.2423930  61.9476440  25.8810910  37.9044450  61.2415750  25.8241450
  41.1599720  58.8359890  27.4372510  41.2795930  58.2401030  28.1767350
  42.0193720  58.8729580  27.0173810  43.4987620  59.3897080  26.0135020
  42.9722840  59.9139700  25.4100160  43.8418960  60.0224470  26.6444750
  35.8974010  56.7790450  12.4584730  35.6963070  55.9157810  12.8198070
  35.7266060  56.6923810  11.5206330  36.6743240  67.4096720  27.1692400
  36.1364330  68.1342780  26.8501100  36.9277200  66.9327060  26.3789740
  37.9268490  55.3781240  28.6948330  38.5168180  55.0697090  29.3826150
  37.1088730  54.9060990  28.8508230  42.7461920  54.9947050  28.9281350
  42.0577440  54.3328590  28.8631340  43.4667940  54.5485320  29.3729810
  43.3762320  51.5898680  14.9871610  43.6564610  50.7466580  15.3431030
  42.6028050  51.8221790  15.5010360  34.6956810  53.8791070  12.4462610
  34.9982710  53.8858500  11.5381760  35.4351400  53.5288930  12.9430270
  39.5305450  68.6447930  27.4279050  39.4564150  69.5483070  27.7351420
  38.6284290  68.3259830  27.4001120  37.9141740  52.8225690  13.4318810
  37.5663740  52.1449680  12.8521260  38.1154510  52.3615200  14.2462200
  40.0790780  67.8106440  15.0505410  40.9741570  68.1491410  15.0724170
  40.1108410  67.0885850  14.4229690  33.7186940  63.1833490  13.2792410
  34.1561810  63.7263160  13.9349990  34.2034670  62.3580440  13.2888750
  30.9332740  65.9722520  20.7312670  31.2635750  65.1043580  20.4991310
  31.3623740  66.1781040  21.5617630  35.5294660  64.3031530  18.3914640
  35.2290200  64.1796500  19.2918550  35.4232150  63.4440120  17.9830370
  31.4222950  66.8393110  23.4694300  30.9853940  67.0193910  24.3018450
  31.9900630  67.5967730  23.3276020  48.2986580  64.0827930  13.0941320
  47.4679540  64.1504580  13.5648550  48.4758410  64.9732050  12.7908180
  47.7543040  60.8275410  15.5975520  48.5161950  61.3972060  15.7035210
  47.7697410  60.2602610  16.3683830  31.2547380  59.3513340  19.8283180
  30.5996220  59.0824980  19.1842880  32.0925330  59.2417820  19.3785160
  48.7603010  61.6825510  20.4417450  49.1311840  60.8992830  20.0353420
  49.4004940  62.3714610  20.2634750  47.8062210  61.1209780  12.7548040
  48.0811050  62.0288660  12.6267260  47.6172950  61.0572310  13.6910030
  44.2037820  54.1454630  14.0501670  44.6222700  53.9585610  13.2098330
  43.8973880  53.2933680  14.3604600  47.7027550  59.0578770  17.7477470
  47.3271150  58.2906700  17.3158760  46.9730670  59.4401470  18.2352400
  32.2923310  59.7365910  24.3686520  32.6596350  59.6493310  25.2482540
  31.7234130  58.9732460  24.2693380  47.0927170  58.2050290  27.3816990
  46.8613260  57.9763040  26.4814940  47.3531720  59.1249840  27.3361880
  31.8439310  56.6475000  28.2744940  30.9495360  56.6141760  28.6138650
  32.3836860  56.8461790  29.0396190  45.5315240  53.4306720  30.1596690
  46.4085420  53.4390120  30.5430690  45.5436080  52.6937560  29.5489040
  30.4685460  56.5612270  15.7708510  29.5649540  56.8242470  15.5960170
  30.9526080  56.8323440  14.9908470  46.9778510  57.2836260  21.0484710
  47.5015990  56.7898910  20.4174880  47.5637930  57.4186620  21.7932280
  47.1568230  57.3676130  24.5704260  46.2070940  57.3339670  24.6849250
  47.3381240  58.2776240  24.3354030  33.0112670  55.6177810  13.6802890
  33.7204370  55.1961030  13.1950170  32.2952610  55.6853040  13.0486240
  32.6586830  51.6717140  12.7205540  33.3814960  52.2126080  13.0386760
  32.9311350  51.3980560  11.8447080  46.4678480  56.5409610  16.9877120
  46.9637600  56.3080480  17.7726000  46.2694550  55.7021450  16.5714760
  32.3479020  50.9223330  22.6228160  32.9955210  50.3720710  22.1823320
  32.7680860  51.1766480  23.4443970  47.8965640  55.1770560  19.5214800
  47.7864920  55.0226600  20.4597070  48.6573230  54.6491500  19.2790210
  46.2431360  51.1164690  25.9797800  46.8803580  51.7298830  26.3456990
  46.3906250  51.1525350  25.0347030  48.7855910  53.0078480  12.7620940
  49.7105220  52.8759660  12.5539230  48.7631700  53.0871300  13.7157390
  48.8594400  53.7789140  15.3877650  48.0645900  53.7134260  15.9170560
  49.0637680  54.7139780  15.3763000  45.8012820  67.8180690  19.3816040
  46.3971890  67.4965260  18.7050460  46.0590970  67.3452510  20.1729310
  32.1011020  51.0779000  25.3653480  31.7525840  51.5342820  26.1311660
  31.7698720  50.1836130  25.4475910  33.7075390  64.2498600  29.5306670
  33.6645020  63.8791510  30.4121130  33.8386400  65.1876170  29.6708490
  37.4081420  65.8058190  25.1316390  37.1672780  66.0732750  24.2446910
  38.3484060  65.9763920  25.1867250  39.6135840  52.2690880  28.8872900
  39.5524730  52.8612710  29.6368310  40.5536220  52.1616840  28.7423160
  42.2510400  51.9260940  28.5265190  42.8650810  52.2440230  27.8646270
  42.7959960  51.4409530  29.1461050  32.7731660  50.6055200  28.6404250
  33.3214650  50.4243250  27.8770360  32.8386970  49.8149310  29.1760560
  33.5463420  67.1960850  26.6504450  32.9523740  67.0645550  27.3894490
  33.5387260  66.3598990  26.1846550  42.9918440  50.4893080  24.8534480
  42.1178280  50.8228190  24.6507410  42.8829190  50.0166260  25.6786350
  43.8990420  52.6963950  26.2376200  43.5703780  51.8815710  25.8577930
  44.8472720  52.6533760  26.1141890  33.1775650  64.5619230  25.6012490
  32.4509710  63.9424520  25.5338440  33.2384800  64.9559840  24.7310570
  36.7820750  66.7764230  22.3861900  37.2985770  66.1651590  21.8610160
  37.4318130  67.2793010  22.8772910  39.5216250  67.6672720  23.2130880
  39.8094060  67.4127020  22.3363890  40.0339470  67.1150080  23.8036450
  40.7393260  51.4062920  23.7927390  39.9565050  51.8808420  24.0724150
  40.4456190  50.5017750  23.6840570  45.2914330  52.1086020  21.8376480
  45.7322420  52.0531120  20.9898080  45.0221920  53.0244030  21.9086660
  47.1552900  51.7401260  19.8485300  47.0941300  50.7962480  19.7016320
  47.9344930  51.8481350  20.3938760  31.4605650  67.8793620  18.8109250
  31.2927690  67.2464300  19.5091140  30.5940160  68.0853020  18.4603440
  32.0833670  51.7110400  16.3141110  32.8413030  51.8239280  15.7405140
  31.6210840  52.5479600  16.2684540  38.6247480  53.8249670  19.3043420
  37.8121990  53.4506560  18.9639300  39.1289120  53.0694750  19.6064610
  43.1272460  50.4892120  20.5426490  43.7301830  51.0612330  21.0175010
  42.3865450  51.0531560  20.3200390  46.2707060  50.8913680  15.8166770
  46.4657690  51.7897130  16.0834200  45.4836930  50.6600760  16.3099720
  33.0668350  66.5726850  16.2559390  32.5415970  66.9534880  15.5521350
  32.9912930  67.1977620  16.9769100  34.4558820  52.2374450  14.8543080
  34.9851580  51.4504250  14.7251030  35.0887140  52.9165640  15.0878610
  36.6496660  51.9749590  17.9088470  36.0199400  51.2736900  18.0758600
  36.1101800  52.7353720  17.6921630  39.5888610  68.5888820  30.5799080
  40.5155920  68.3533090  30.6235040  39.5739040  69.4160820  30.0985110
  47.8233670  68.1314390  17.5773330  47.9985860  67.4452130  16.9334250
  47.1255240  68.6561440  17.1850000  36.7752220  51.2533570  30.3440960
  36.4936490  51.7567170  29.5801780  37.1571920  50.4555320  29.9783090
  35.6661320  68.5209230  15.1308640  36.3980140  68.2368510  14.5832530
  35.9254990  68.2822510  16.0208020  34.8276110  64.6373960  15.1354970
  34.1984990  65.1059060  15.6840800  34.9423940  63.7923180  15.5701160
  43.3767680  50.6687150  30.9221430  43.2633130  50.9881760  31.8172950
  44.1937420  51.0699660  30.6258710  46.1566170  67.8158680  30.4040120
  46.9491490  67.3207910  30.1966080  46.4499320  68.4948820  31.0115730
  40.4143870  60.4658640   3.1665440  39.6385970  59.9859080   3.4564010
  41.0656800  59.7864290   2.9921600  34.4309700  60.7778450   4.0441200
  33.5994580  60.5227160   4.4437710  35.0390680  60.8489220   4.7799120
  44.4351300  64.8718830   1.9464570  43.9732830  64.1006070   2.2751740
  45.2476850  64.8984900   2.4517020  34.4110960  64.8118540   4.2399220
  34.7139000  63.9216280   4.0609440  35.1554550  65.3688760   4.0121470
  30.8034660  58.3385990   3.7123290  31.3750770  57.5708190   3.7126930
  30.8036200  58.6374750   2.8029900  39.8552860  63.1415830   3.1735600
  39.7861140  62.2005770   3.0124730  40.6172720  63.2317240   3.7458170
  32.0459530  53.7470350   5.4992220  31.8662370  52.8496100   5.7794980
  31.6439610  54.2942220   6.1739170  40.8858030  55.9486210   3.4004530
  41.2622850  55.0758090   3.2878200  40.7877540  56.2844910   2.5094970
  32.6646200  56.2430850   4.1074560  33.3456310  56.5069220   4.7261960
  32.3494250  55.4031720   4.4412570  36.8570770  57.2898210   3.1947150
  37.3648990  57.7879180   3.8352170  37.3884010  56.5133410   3.0186510
  48.9581700  55.4603400   6.8976500  48.2533870  55.8485110   6.3791610
  49.2239620  56.1553690   7.4997430  35.1406870  51.9296770   7.4610570
  35.1425310  52.4469160   6.6556470  34.3111180  51.4526950   7.4380500
  36.3909720  61.5691950   5.6384070  36.0579100  62.1960870   6.2805140
  36.5676400  62.0953830   4.8585740  44.9043630  55.3837030   3.1060410
  44.1999200  55.6721920   3.6863520  45.2655790  56.1937140   2.7459970
  34.8222200  53.6406730   5.4681020  35.1639010  54.4848780   5.1734890
  33.8838010  53.7890470   5.5846360  35.6028820  63.5372750   7.4533250
  36.2202820  64.2123830   7.1717700  34.7421940  63.9460730   7.3620750
  46.5206410  65.0012160   5.3687890  45.8369930  65.6711270   5.3604560
  47.0600700  65.1992810   4.6032750  47.9730550  54.8291820   3.4969620
  47.0255460  54.8630800   3.6285050  48.2980540  55.6430770   3.8818980
  44.0565150  66.8456290   4.0833070  44.0692310  66.4418580   3.2155330
  43.5040370  67.6203580   3.9794500  43.4550590  61.7486130   5.4115680
  43.8719380  61.5346240   4.5769140  44.1790410  62.0058920   5.9824300
  47.4012690  60.1473350   5.5031920  46.5731320  60.2166440   5.0282050
  47.9963170  60.7327660   5.0347750  44.3654700  56.9342670   6.4486790
  43.9525880  57.7596380   6.7026780  43.6330650  56.3487710   6.2563150
  36.9669190  63.4070130   3.4744670  36.6697480  62.8015600   2.7952450
  37.9169010  63.4447440   3.3634030  35.2116110  56.4945780   5.0904500
  35.7630700  56.6041120   4.3157750  35.7259620  56.8683380   5.8059730
  45.0554800  66.9802000   7.1367770  44.5785360  67.7874190   6.9440380
  44.3716590  66.3280330   7.2893980  36.0587620  63.1451820  10.1252470
  35.1616150  63.3691790  10.3725870  36.0840490  63.2686760   9.1763870
  34.8858840  60.0165140   8.7009840  34.7466610  60.8887940   9.0697240
  34.0040200  59.6737950   8.5557780  36.6839190  65.9586840  10.9094990
  36.6554620  66.3629790  10.0423420  36.5204160  65.0297200  10.7466590
  48.6354010  66.7413940  12.2059160  49.1113730  67.2196830  12.8848240
  49.2561170  66.6731430  11.4804660  30.8377490  61.7862690   4.6180750
  30.9157910  61.9211460   3.6736470  31.4519170  61.0778580   4.8108870
  48.0387260  63.9326790   9.3659170  48.1650320  63.6938670   8.4476350
  48.0808640  63.1011330   9.8381250  41.9004000  67.6354790   7.9353980
  42.4148670  67.5462800   8.7376410  41.0573080  67.9814490   8.2281890
  47.8911270  55.9859250  10.3308910  47.2755540  56.4938920   9.8024370
  47.5707690  55.0857580  10.2734850  30.8937010  62.8276860   7.1575210
  31.0568050  62.3582220   6.3394580  31.3589460  62.3200420   7.8224050
  35.6655780  51.9582620   2.1935780  35.2223930  52.7392160   1.8620300
  36.2240770  52.2812510   2.9006720  39.9525590  54.8251140   7.7971100
  39.4904960  55.0334160   8.6091040  39.5503700  54.0110490   7.4941770
  44.9530100  56.0460090   8.9267760  44.1023690  55.7465840   9.2476830
  44.7931890  56.2902100   8.0151580  42.0479810  57.5461840  11.0266550
  42.3733220  56.7125590  10.6868780  42.8360140  58.0690360  11.1744880
  37.7031680  52.5029950   4.0525380  38.0004010  53.4092780   3.9717400
  38.2517240  52.0148730   3.4384950  37.8969210  57.9801770  10.5877300
  37.8012810  57.0396500  10.4377700  38.7401190  58.2016840  10.1925370
  33.0279750  54.3915440   8.7411080  32.6343140  55.2390650   8.9483860
  32.3398150  53.7541810   8.9319720  39.6024800  54.4750410  11.8107820
  38.9123120  54.2822610  12.4453910  40.3457100  54.7585050  12.3432120
  30.3296800  52.3143900   2.7741160  30.0409850  52.8846760   3.4866140
  31.0742560  51.8348350   3.1372390  41.8787770  58.3148850   4.6461740
  41.1468890  58.8235660   4.9951840  41.4812110  57.4978830   4.3450520
  38.3165160  54.9903050   3.0514230  38.3201220  54.5493000   2.2018770
  39.2116280  55.3120380   3.1586050  34.1667540  54.8729540   2.0108440
  33.8267590  55.3504770   2.7675490  33.4044860  54.4194660   1.6509540
  42.3413680  53.7682530   4.0584680  42.3586420  54.2191180   4.9026530
  42.0929260  52.8688170   4.2718120  45.7684430  51.1814710   9.8971060
  46.0930200  50.4504370  10.4229040  45.8040940  50.8628350   8.9952050
  32.4675990  62.2028290   9.3171020  32.0830780  61.5621960   9.9153980
  32.7788180  62.9064410   9.8865750  38.6173130  59.0504830   4.7979640
  38.9843260  58.5763400   5.5440980  38.4278190  59.9246400   5.1387980
  36.4072500  58.0913470   7.1163850  36.1029570  58.9705450   7.3414210
  37.3618960  58.1513260   7.1521290  45.6942270  61.2939820   3.5057090
  46.4141390  61.7895110   3.1153200  45.4924090  60.6157710   2.8610960
  41.0761070  61.3648880   9.3926090  41.0098380  60.4444550   9.1383680
  40.4466210  61.4624320  10.1070730  32.4636230  58.9316210   8.2635210
  32.1051170  59.5970060   8.8508550  32.1690790  58.0999760   8.6347830
  35.6649350  59.3900450  11.1474760  35.3649490  59.5357630  10.2502580
  36.4360590  58.8305740  11.0548150  41.0077800  64.1869450   9.1429890
  41.0222340  63.2550410   8.9248800  40.3002900  64.2729210   9.7819660
  47.2189010  60.8276790   8.4898470  46.4937200  61.4205570   8.2927860
  47.7464470  60.8200330   7.6911840  40.4411700  65.8287020   6.2370390
  41.0853920  66.0346400   6.9143810  40.8041140  65.0675420   5.7841240
  41.7143780  63.8319370   4.9547840  42.3566010  63.1312530   5.0680010
  42.2393130  64.6117810   4.7744730  43.4881400  64.6314270   8.1583900
  43.8237640  65.2180960   8.8361820  42.5681740  64.5006980   8.3881690
  31.0384800  52.4209450   8.9407310  30.3243320  52.6206370   9.5459920
  31.4579840  51.6449020   9.3122110  31.3257390  66.4089710   9.9273840
  31.4348510  65.4684450   9.7869230  30.6737950  66.6744460   9.2787570
  39.3169980  64.6805600  11.3271960  38.9966850  63.9614840  11.8717650
  38.6428340  65.3560670  11.4008020  42.5323580  54.9131760   6.6908760
  42.9004400  54.0926970   7.0188330  41.6721780  54.9733650   7.1064410
  39.4925570  57.5671350   6.9146730  39.9910820  58.0417170   7.5798580
  39.6348520  56.6434870   7.1216760  46.6992430  53.7839310   7.7575120
  46.1966030  54.5244710   8.0968930  47.5149090  54.1723310   7.4411910
  46.9940020  66.1981340   2.8790740  47.1187440  67.0212510   3.3514550
  47.8605580  65.9872070   2.5314890  34.4657550  68.2912550   2.5507870
  35.2020030  67.7428010   2.8216440  34.8498470  69.1568560   2.4113860
  33.4715830  67.4758620  11.7393450  34.2728560  67.7970670  12.1528850
  32.9567650  67.1154200  12.4613360  42.3080460  63.5838490  11.6868860
  41.7018620  63.6070090  10.9464610  42.0034570  62.8521530  12.2236110
  43.7380830  67.3118780  10.2978270  44.6902580  67.2276800  10.2478510
  43.5909050  67.9760490  10.9712060  31.1913640  59.9632080  10.6829500
  31.6952660  59.3839360  11.2545730  30.4521060  60.2472310  11.2205870
  38.2451580  61.3703070  10.2165020  37.4797250  61.9388070  10.1319690
  38.4267540  61.0779280   9.3233250  45.3874930  63.1008400  10.7740040
  46.1284400  63.4384160  10.2707500  44.6247610  63.2700460  10.2209810
  33.2236720  58.1061670  11.5779570  33.2642060  57.8075540  12.4864800
  34.0782220  58.5069280  11.4187090  35.1642530  56.6853770   9.5454060
  34.6338990  56.1944720   8.9177400  35.8330600  57.1137970   9.0111990
  44.0620590  61.1523230   9.3095250  44.4761610  61.3068310  10.1585670
  43.1271590  61.2778450   9.4721030  44.5342760  58.4919390  11.3134400
  45.1163530  57.7371710  11.2254880  44.7104530  59.0226830  10.5365880
  35.6514830  53.6516140   9.6251350  35.5571700  53.0336890   8.9002220
  35.0712220  54.3782430   9.3981260  38.4176270  52.2089380   6.6578740
  37.9693570  52.2313640   5.8124290  37.7841470  51.8108400   7.2549040
  38.8235820  61.1043710   7.2791180  39.2423930  61.9476440   7.1067420
  37.9044450  61.2415750   7.0497960  41.1599720  58.8359890   8.6629020
  41.2795930  58.2401030   9.4023860  42.0193720  58.8729580   8.2430320
  43.4987620  59.3897080   7.2391530  42.9722840  59.9139700   6.6356670
  43.8418960  60.0224470   7.8701260  36.6743240  67.4096720   8.3948910
  36.1364330  68.1342780   8.0757610  36.9277200  66.9327060   7.6046250
  37.9268490  55.3781240   9.9204840  38.5168180  55.0697090  10.6082660
  37.1088730  54.9060990  10.0764740  42.7461920  54.9947050  10.1537860
  42.0577440  54.3328590  10.0887850  43.4667940  54.5485320  10.5986320
  39.5305450  68.6447930   8.6535560  39.4564150  69.5483070   8.9607930
  38.6284290  68.3259830   8.6257630  30.9332740  65.9722520   1.9569180
  31.2635750  65.1043580   1.7247820  31.3623740  66.1781040   2.7874140
  31.4222950  66.8393110   4.6950810  30.9853940  67.0193910   5.5274960
  31.9900630  67.5967730   4.5532530  47.0585130  66.3410110   8.9828120
  46.4587120  66.4002670   8.2392040  47.1879030  65.4015090   9.1124970
  45.7436770  63.0662090   7.0804280  44.9296610  63.4959250   7.3430070
  46.1510970  63.6780500   6.4673330  32.2923310  59.7365910   5.5943030
  32.6596350  59.6493310   6.4739050  31.7234130  58.9732460   5.4949890
  47.0927170  58.2050290   8.6073500  46.8613260  57.9763040   7.7071450
  47.3531720  59.1249840   8.5618390  31.8439310  56.6475000   9.5001450
  30.9495360  56.6141760   9.8395160  32.3836860  56.8461790  10.2652700
  45.5315240  53.4306720  11.3853200  46.4085420  53.4390120  11.7687200
  45.5436080  52.6937560  10.7745550  46.9778510  57.2836260   2.2741220
  47.5015990  56.7898910   1.6431390  47.5637930  57.4186620   3.0188790
  47.1568230  57.3676130   5.7960770  46.2070940  57.3339670   5.9105760
  47.3381240  58.2776240   5.5610540  32.3479020  50.9223330   3.8484670
  32.9955210  50.3720710   3.4079830  32.7680860  51.1766480   4.6700480
  46.2431360  51.1164690   7.2054310  46.8803580  51.7298830   7.5713500
  46.3906250  51.1525350   6.2603540  32.1011020  51.0779000   6.5909990
  31.7525840  51.5342820   7.3568170  31.7698720  50.1836130   6.6732420
  33.7075390  64.2498600  10.7563180  33.6645020  63.8791510  11.6377640
  33.8386400  65.1876170  10.8965000  37.4081420  65.8058190   6.3572900
  37.1672780  66.0732750   5.4703420  38.3484060  65.9763920   6.4123760
  39.6135840  52.2690880  10.1129410  39.5524730  52.8612710  10.8624820
  40.5536220  52.1616840   9.9679670  42.2510400  51.9260940   9.7521700
  42.8650810  52.2440230   9.0902780  42.7959960  51.4409530  10.3717560
  48.6685580  67.8252570   7.1583540  48.1743860  68.2221440   6.4410670
  48.0598870  67.2001780   7.5520820  32.7731660  50.6055200   9.8660760
  33.3214650  50.4243250   9.1026870  32.8386970  49.8149310  10.4017070
  33.5463420  67.1960850   7.8760960  32.9523740  67.0645550   8.6151000
  33.5387260  66.3598990   7.4103060  42.9918440  50.4893080   6.0790990
  42.1178280  50.8228190   5.8763920  42.8829190  50.0166260   6.9042860
  43.8990420  52.6963950   7.4632710  43.5703780  51.8815710   7.0834440
  44.8472720  52.6533760   7.3398400  46.3525030  68.4675990   4.4370280
  45.8928000  69.2191800   4.0628300  45.7237490  67.7482460   4.3785080
  33.1775650  64.5619230   6.8269000  32.4509710  63.9424520   6.7594950
  33.2384800  64.9559840   5.9567080  36.7820750  66.7764230   3.6118410
  37.2985770  66.1651590   3.0866670  37.4318130  67.2793010   4.1029420
  39.5216250  67.6672720   4.4387390  39.8094060  67.4127020   3.5620400
  40.0339470  67.1150080   5.0292960  40.7393260  51.4062920   5.0183900
  39.9565050  51.8808420   5.2980660  40.4456190  50.5017750   4.9097080
  45.2914330  52.1086020   3.0632990  45.7322420  52.0531120   2.2154590
  45.0221920  53.0244030   3.1343170  43.1272460  50.4892120   1.7683000
  43.7301830  51.0612330   2.2431520  42.3865450  51.0531560   1.5456900
  39.5888610  68.5888820  11.8055590  40.5155920  68.3533090  11.8491550
  39.5739040  69.4160820  11.3241620  36.7752220  51.2533570  11.5697470
  36.4936490  51.7567170  10.8058290  37.1571920  50.4555320  11.2039600
  43.3767680  50.6687150  12.1477940  43.2633130  50.9881760  13.0429460
  44.1937420  51.0699660  11.8515220  46.1566170  67.8158680  11.6296630
  46.9491490  67.3207910  11.4222590  46.4499320  68.4948820  12.2372240
  42.2825830  39.9136130 151.4804090  42.2019880  38.9990740 151.2095800
  41.8690250  40.4103200 150.7743800  40.4143870  41.6915150 153.3613360
  39.6385970  41.2115590 153.6511930  41.0656800  41.0120800 153.1869520
  44.4351300  46.0975340 152.1412490  43.9732830  45.3262580 152.4699660
  45.2476850  46.1241410 152.6464940  34.4110960  46.0375050 154.4347140
  34.7139000  45.1472790 154.2557360  35.1554550  46.5945270 154.2069390
  32.8401650  36.9636850 148.0231510  31.9518350  37.3052820 147.9211390
  33.1242840  36.7637170 147.1312340  30.8034660  39.5642500 153.9071210
  31.3750770  38.7964700 153.9074850  30.8036200  39.8631260 152.9977820
  40.6614610  48.3833350 151.7616480  40.0426050  48.8390850 151.1910920
  41.5166390  48.5384810 151.3606180  39.8552860  44.3672340 153.3683520
  39.7861140  43.4262280 153.2072650  40.6172720  44.4573750 153.9406090
  40.8858030  37.1742720 153.5952450  41.2622850  36.3014600 153.4826120
  40.7877540  37.5101420 152.7042890  35.0163040  35.5468350 149.0569890
  35.1229790  36.4472080 149.3638650  34.1055400  35.4986320 148.7664540
  44.6682150  34.6693160 150.5280790  45.4891770  34.1789730 150.5706270
  44.7016230  35.2590820 151.2812630  36.8570770  38.5154720 153.3895070
  37.3648990  39.0135690 154.0300090  37.3884010  37.7389920 153.2134430
  41.5277960  43.2672590 149.1548390  40.9095230  43.7322040 148.5911110
  42.0401210  43.9600070 149.5717900  44.9043630  36.6093540 153.3008330
  44.1999200  36.8978430 153.8811440  45.2655790  37.4193650 152.9407890
  30.8961160  43.9529120 146.5288020  30.5189140  44.4416220 145.7972920
  31.1534230  44.6254400 147.1594550  47.9730550  36.0548330 153.6917540
  47.0255460  36.0887310 153.8232970  48.2980540  36.8687280 154.0766900
  38.5050090  32.3545510 151.9873530  38.8125070  31.7992400 151.2709030
  37.5750790  32.4889970 151.8046520  44.0565150  48.0712800 154.2780990
  44.0692310  47.6675090 153.4103250  43.5040370  48.8460090 154.1742420
  45.3510570  44.7929020 149.3671160  45.2406900  43.8503350 149.4920580
  45.3478820  45.1544660 150.2533920  40.8930850  40.4194340 148.7233650
  39.9660130  40.3531720 148.9522120  41.0455670  41.3574470 148.6088890
  40.8799930  36.6911340 145.7200810  39.9403600  36.8525300 145.8053270
  41.1983190  37.4097020 145.1736800  44.9228140  41.9814640 149.2268900
  44.3040560  41.6434190 148.5795200  44.9052590  41.3374400 149.9348090
  36.4987490  40.9459080 151.5053380  36.0944490  40.2336330 151.0099280
  36.5850610  40.6012320 152.3941420  36.9669190  44.6326640 153.6692590
  36.6697480  44.0272110 152.9900370  37.9169010  44.6703950 153.5581950
  43.0992840  41.2201450 146.2341650  43.5386120  40.3823880 146.0879470
  43.8121260  41.8530850 146.3205790  41.2088220  46.1597520 150.2022890
  41.6484130  46.9021850 149.7878280  41.1475110  46.4024090 151.1261850
  46.6809980  32.4744260 144.5482690  46.3682640  32.5671090 145.4481760
  47.4422450  33.0525290 144.4980120  33.1992120  39.8404060 149.0060030
  33.0789720  40.5666150 148.3941300  32.8893010  39.0706970 148.5287940
  32.0825120  44.7119390 151.2234850  31.6753200  44.8533980 150.3688450
  32.9738130  44.4279550 151.0206060  43.8758400  49.1466640 147.5585900
  43.7159540  48.8569580 148.4567730  43.7105110  48.3706770 147.0231130
  36.3546780  48.9265170 149.3357520  36.1789260  48.0100710 149.1225320
  35.5002520  49.2852460 149.5755320  43.5784530  46.6554200 146.1183900
  42.8849690  46.6531490 145.4586180  44.3207390  46.2313520 145.6878070
  43.1434460  48.2816910 150.1932390  43.5991410  47.5006290 150.5071010
  43.4826980  48.9923730 150.7373570  35.6655780  33.1839130 152.3883700
  35.2223930  33.9648670 152.0568220  36.2240770  33.5069020 153.0954640
  38.7814600  32.8049830 147.2689530  38.1568780  32.8009700 147.9942840
  38.6944720  31.9380790 146.8725500  37.7031680  33.7286460 154.2473300
  38.0004010  34.6349290 154.1665320  38.2517240  33.2405240 153.6332870
  35.4570000  38.3072700 150.1164950  35.2310920  38.0909870 151.0211570
  34.6762530  38.7401160 149.7710920  42.6867760  38.3136070 148.7155600
  42.0876650  39.0371870 148.5319220  43.2347370  38.2512850 147.9332050
  41.2932630  36.9499610 150.7458880  41.6862200  37.2671810 149.9327570
  41.6549480  36.0711490 150.8603400  30.3296800  33.5400410 152.9689080
  30.0409850  34.1103270 153.6814060  31.0742560  33.0604860 153.3320310
  30.5167030  37.4820530 144.1791800  30.4341700  38.4251290 144.3206790
  30.1650090  37.3395440 143.3004150  38.3165160  36.2159560 153.2462150
  38.3201220  35.7749510 152.3966690  39.2116280  36.5376890 153.3533970
  34.1667540  36.0986050 152.2056360  33.8267590  36.5761280 152.9623410
  33.4044860  35.6451170 151.8457460  38.3785310  37.2171640 146.2368910
  38.4998130  37.1758120 147.1854730  37.9933820  38.0795790 146.0815640
  37.3906810  39.5272780 145.6352210  36.8223710  39.0791030 145.0088120
  38.0995810  39.8865560 145.1017360  31.4813620  35.0205030 151.1221030
  31.1960540  34.6560700 151.9599650  31.4192480  34.2885490 150.5084170
  34.9354290  43.5230970 147.9078620  34.1616550  42.9828590 147.7477340
  35.6648920  43.0037580 147.5696380  45.6942270  42.5196330 153.7005010
  46.4141390  43.0151620 153.3101120  45.4924090  41.8414220 153.0558880
  41.1552210  33.9134290 147.8434400  40.3416820  33.4147460 147.7679710
  40.9614160  34.7532540 147.4270750  43.8700600  38.2853940 146.1396560
  44.7580220  38.5971170 145.9647900  43.8405690  37.4126190 145.7477140
  34.9791690  43.1911350 151.5457430  35.4970360  42.3879610 151.4914320
  34.5275710  43.1290490 152.3874260  39.8661190  44.4577630 146.8184730
  40.2076890  45.2019860 146.3228050  39.0373900  44.7708750 147.1809560
  46.1414870  39.5965780 145.6076420  46.0578590  40.0280000 144.7572860
  46.8609060  40.0564130 146.0403240  47.1702120  46.4508040 148.3358550
  46.5278280  45.7963660 148.6102270  46.7832780  46.8563130 147.5599220
  42.7488600  43.7793470 152.1830240  43.1012420  43.1821600 151.5231610
  41.8650930  43.4537700 152.3538490  38.8351880  44.5391160 149.5900650
  39.5223010  45.0860370 149.9708240  38.0484300  45.0831890 149.6250260
  30.9744280  40.1563980 145.0817730  31.8439130  40.4388780 145.3653650
  30.4834600  40.9699850 144.9666540  38.1379090  41.5437190 149.2026010
  38.5941870  42.3542440 149.4286200  37.7867300  41.2260330 150.0344500
  34.0390870  31.8874840 149.6748530  33.9105500  31.8792740 150.6233450
  33.2152890  32.2257930 149.3239540  45.5599500  45.3424500 144.8734900
  45.3337080  44.6254940 145.4659540  45.1695700  45.0936940 144.0356650
  31.3415530  49.3691360 145.6479360  31.7013170  49.9680700 144.9936630
  31.2007870  49.9151250 146.4214390  45.1415750  43.2596440 146.5349060
  44.8537450  43.7209130 147.3226940  45.9367920  42.7994210 146.8033280
  37.3584150  46.7522560 146.4653030  37.3494250  47.4852250 145.8497540
  36.4382510  46.5054140 146.5579990  32.9590790  41.9737450 147.2099790
  32.3518740  42.7136350 147.2195090  33.4340140  42.0636810 146.3837990
  45.8985610  35.0945210 147.6944240  45.2698770  35.1990880 146.9802470
  45.4037530  35.3141990 148.4838120  40.3443750  46.8150800 145.1278220
  40.4455730  46.6114790 144.1980200  39.4445490  46.5609080 145.3326000
  37.8669640  37.3731160 149.1102120  37.1585790  37.8417500 149.5515730
  38.1514120  36.7153170 149.7447310  41.8985070  34.0981820 150.5497910
  41.7752850  34.1167950 149.6007420  42.8469630  34.1460760 150.6696310
  38.9861860  49.3337120 149.8225890  39.2403360  49.2958510 148.9005260
  38.0374340  49.2070450 149.8154140  36.0704660  35.6816240 146.4852830
  36.9195190  36.1186390 146.4193020  35.7035930  35.9936500 147.3124890
  44.9914440  40.2529000 151.3984400  44.0504580  40.2679230 151.5732090
  45.3058510  39.4664960 151.8444700  34.9696080  41.9348600 144.9588360
  35.7359350  41.8229960 145.5213790  35.0470770  41.2386570 144.3065130
  33.6642840  39.3673670 145.6421250  33.7446430  38.4201180 145.7538650
  34.5562590  39.6980550 145.7481910  46.9940020  47.4237850 153.0738660
  47.1187440  48.2469020 153.5462470  47.8605580  47.2128580 152.7262810
  34.4657550  49.5169060 152.7455790  35.2020030  48.9684520 153.0164360
  34.8498470  50.3825070 152.6061780  31.3503030  45.5842630 148.6197300
  30.4242810  45.8263770 148.6102710  31.8159460  46.4116890 148.4982050
  37.5759860  48.6899370 144.5681360  38.3688470  48.9788200 144.1163150
  37.0564210  48.2591540 143.8893840  46.6290030  47.9169500 145.9918100
  46.3431540  47.5034640 145.1772280  46.4309580  48.8457210 145.8718620
  38.0937260  43.9102780 144.4323710  37.9887900  43.2955130 145.1585090
  37.9261480  43.3868670 143.6486720  41.3339990  42.9722810 145.0365700
  40.7850090  43.4192110 145.6808440  41.9559250  42.4672060 145.5603370
  37.0015110  41.9313730 146.9331000  37.4231530  41.7653600 147.7762390
  37.1265950  41.1213960 146.4386140  39.5142750  40.9551340 144.1808100
  40.0348410  40.2400360 143.8149250  40.1611150  41.5937210 144.4808610
  35.8974010  38.0046960 143.8789160  35.6963070  37.1414320 144.2402500
  35.7266060  37.9180320 142.9410760  43.3762320  32.8155190 146.4076040
  43.6564610  31.9723090 146.7635460  42.6028050  33.0478300 146.9214790
  34.6956810  35.1047580 143.8667040  34.9982710  35.1115010 142.9586190
  35.4351400  34.7545440 144.3634700  37.9141740  34.0482200 144.8523240
  37.5663740  33.3706190 144.2725690  38.1154510  33.5871710 145.6666630
  40.0790780  49.0362950 146.4709840  40.9741570  49.3747920 146.4928600
  40.1108410  48.3142360 145.8434120  33.7186940  44.4090000 144.6996840
  34.1561810  44.9519670 145.3554420  34.2034670  43.5836950 144.7093180
  30.9332740  47.1979030 152.1517100  31.2635750  46.3300090 151.9195740
  31.3623740  47.4037550 152.9822060  35.5294660  45.5288040 149.8119070
  35.2290200  45.4053010 150.7122980  35.4232150  44.6696630 149.4034800
  48.2986580  45.3084440 144.5145750  47.4679540  45.3761090 144.9852980
  48.4758410  46.1988560 144.2112610  47.7543040  42.0531920 147.0179950
  48.5161950  42.6228570 147.1239640  47.7697410  41.4859120 147.7888260
  31.2547380  40.5769850 151.2487610  30.5996220  40.3081490 150.6047310
  32.0925330  40.4674330 150.7989590  48.7603010  42.9082020 151.8621880
  49.1311840  42.1249340 151.4557850  49.4004940  43.5971120 151.6839180
  47.8062210  42.3466290 144.1752470  48.0811050  43.2545170 144.0471690
  47.6172950  42.2828820 145.1114460  44.2037820  35.3711140 145.4706100
  44.6222700  35.1842120 144.6302760  43.8973880  34.5190190 145.7809030
  47.7027550  40.2835280 149.1681900  47.3271150  39.5163210 148.7363190
  46.9730670  40.6657980 149.6556830  30.4685460  37.7868780 147.1912940
  29.5649540  38.0498980 147.0164600  30.9526080  38.0579950 146.4112900
  46.9778510  38.5092770 152.4689140  47.5015990  38.0155420 151.8379310
  47.5637930  38.6443130 153.2136710  33.0112670  36.8434320 145.1007320
  33.7204370  36.4217540 144.6154600  32.2952610  36.9109550 144.4690670
  32.6586830  32.8973650 144.1409970  33.3814960  33.4382590 144.4591190
  32.9311350  32.6237070 143.2651510  46.4678480  37.7666120 148.4081550
  46.9637600  37.5336990 149.1930430  46.2694550  36.9277960 147.9919190
  47.8965640  36.4027070 150.9419230  47.7864920  36.2483110 151.8801500
  48.6573230  35.8748010 150.6994640  48.7855910  34.2334990 144.1825370
  49.7105220  34.1016170 143.9743660  48.7631700  34.3127810 145.1361820
  48.8594400  35.0045650 146.8082080  48.0645900  34.9390770 147.3374990
  49.0637680  35.9396290 146.7967430  45.8012820  49.0437200 150.8020470
  46.3971890  48.7221770 150.1254890  46.0590970  48.5709020 151.5933740
  36.7820750  48.0020740 153.8066330  37.2985770  47.3908100 153.2814590
  37.4318130  48.5049520 154.2977340  45.2914330  33.3342530 153.2580910
  45.7322420  33.2787630 152.4102510  45.0221920  34.2500540 153.3291090
  47.1552900  32.9657770 151.2689730  47.0941300  32.0218990 151.1220750
  47.9344930  33.0737860 151.8143190  31.4605650  49.1050130 150.2313680
  31.2927690  48.4720810 150.9295570  30.5940160  49.3109530 149.8807870
  32.0833670  32.9366910 147.7345540  32.8413030  33.0495790 147.1609570
  31.6210840  33.7736110 147.6888970  38.6247480  35.0506180 150.7247850
  37.8121990  34.6763070 150.3843730  39.1289120  34.2951260 151.0269040
  43.1272460  31.7148630 151.9630920  43.7301830  32.2868840 152.4379440
  42.3865450  32.2788070 151.7404820  46.2707060  32.1170190 147.2371200
  46.4657690  33.0153640 147.5038630  45.4836930  31.8857270 147.7304150
  33.0668350  47.7983360 147.6763820  32.5415970  48.1791390 146.9725780
  32.9912930  48.4234130 148.3973530  34.4558820  33.4630960 146.2747510
  34.9851580  32.6760760 146.1455460  35.0887140  34.1422150 146.5083040
  36.6496660  33.2006100 149.3292900  36.0199400  32.4993410 149.4963030
  36.1101800  33.9610230 149.1126060  47.8233670  49.3570900 148.9977760
  47.9985860  48.6708640 148.3538680  47.1255240  49.8817950 148.6054430
  35.6661320  49.7465740 146.5513070  36.3980140  49.4625020 146.0036960
  35.9254990  49.5079020 147.4412450  34.8276110  45.8630470 146.5559400
  34.1984990  46.3315570 147.1045230  34.9423940  45.0179690 146.9905590
  42.2825830  39.9136130 132.7060600  42.2019880  38.9990740 132.4352310
  41.8690250  40.4103200 132.0000310  40.4143870  41.6915150 134.5869870
  39.6385970  41.2115590 134.8768440  41.0656800  41.0120800 134.4126030
  34.4309700  42.0034960 135.4645630  33.5994580  41.7483670 135.8642140
  35.0390680  42.0745730 136.2003550  44.4351300  46.0975340 133.3669000
  43.9732830  45.3262580 133.6956170  45.2476850  46.1241410 133.8721450
  34.4110960  46.0375050 135.6603650  34.7139000  45.1472790 135.4813870
  35.1554550  46.5945270 135.4325900  32.8401650  36.9636850 129.2488020
  31.9518350  37.3052820 129.1467900  33.1242840  36.7637170 128.3568850
  30.8034660  39.5642500 135.1327720  31.3750770  38.7964700 135.1331360
  30.8036200  39.8631260 134.2234330  40.6614610  48.3833350 132.9872990
  40.0426050  48.8390850 132.4167430  41.5166390  48.5384810 132.5862690
  39.8552860  44.3672340 134.5940030  39.7861140  43.4262280 134.4329160
  40.6172720  44.4573750 135.1662600  32.0459530  34.9726860 136.9196650
  31.8662370  34.0752610 137.1999410  31.6439610  35.5198730 137.5943600
  40.8858030  37.1742720 134.8208960  41.2622850  36.3014600 134.7082630
  40.7877540  37.5101420 133.9299400  35.0163040  35.5468350 130.2826400
  35.1229790  36.4472080 130.5895160  34.1055400  35.4986320 129.9921050
  44.6682150  34.6693160 131.7537300  45.4891770  34.1789730 131.7962780
  44.7016230  35.2590820 132.5069140  32.6646200  37.4687360 135.5278990
  33.3456310  37.7325730 136.1466390  32.3494250  36.6288230 135.8617000
  36.8570770  38.5154720 134.6151580  37.3648990  39.0135690 135.2556600
  37.3884010  37.7389920 134.4390940  48.9581700  36.6859910 138.3180930
  48.2533870  37.0741620 137.7996040  49.2239620  37.3810200 138.9201860
  35.1406870  33.1553280 138.8815000  35.1425310  33.6725670 138.0760900
  34.3111180  32.6783460 138.8584930  41.5277960  43.2672590 130.3804900
  40.9095230  43.7322040 129.8167620  42.0401210  43.9600070 130.7974410
  36.3909720  42.7948460 137.0588500  36.0579100  43.4217380 137.7009570
  36.5676400  43.3210340 136.2790170  44.9043630  36.6093540 134.5264840
  44.1999200  36.8978430 135.1067950  45.2655790  37.4193650 134.1664400
  34.8222200  34.8663240 136.8885450  35.1639010  35.7105290 136.5939320
  33.8838010  35.0146980 137.0050790  35.6028820  44.7629260 138.8737680
  36.2202820  45.4380340 138.5922130  34.7421940  45.1717240 138.7825180
  30.8961160  43.9529120 127.7544530  30.5189140  44.4416220 127.0229430
  31.1534230  44.6254400 128.3851060  46.5206410  46.2268670 136.7892320
  45.8369930  46.8967780 136.7808990  47.0600700  46.4249320 136.0237180
  47.9730550  36.0548330 134.9174050  47.0255460  36.0887310 135.0489480
  48.2980540  36.8687280 135.3023410  38.5050090  32.3545510 133.2130040
  38.8125070  31.7992400 132.4965540  37.5750790  32.4889970 133.0303030
  44.0565150  48.0712800 135.5037500  44.0692310  47.6675090 134.6359760
  43.5040370  48.8460090 135.3998930  45.3510570  44.7929020 130.5927670
  45.2406900  43.8503350 130.7177090  45.3478820  45.1544660 131.4790430
  43.4550590  42.9742640 136.8320110  43.8719380  42.7602750 135.9973570
  44.1790410  43.2315430 137.4028730  40.8930850  40.4194340 129.9490160
  39.9660130  40.3531720 130.1778630  41.0455670  41.3574470 129.8345400
  40.8799930  36.6911340 126.9457320  39.9403600  36.8525300 127.0309780
  41.1983190  37.4097020 126.3993310  47.4012690  41.3729860 136.9236350
  46.5731320  41.4422950 136.4486480  47.9963170  41.9584170 136.4552180
  44.9228140  41.9814640 130.4525410  44.3040560  41.6434190 129.8051710
  44.9052590  41.3374400 131.1604600  44.3654700  38.1599180 137.8691220
  43.9525880  38.9852890 138.1231210  43.6330650  37.5744220 137.6767580
  36.4987490  40.9459080 132.7309890  36.0944490  40.2336330 132.2355790
  36.5850610  40.6012320 133.6197930  36.9669190  44.6326640 134.8949100
  36.6697480  44.0272110 134.2156880  37.9169010  44.6703950 134.7838460
  35.2116110  37.7202290 136.5108930  35.7630700  37.8297630 135.7362180
  35.7259620  38.0939890 137.2264160  45.0554800  48.2058510 138.5572200
  44.5785360  49.0130700 138.3644810  44.3716590  47.5536840 138.7098410
  36.0587620  44.3708330 141.5456900  35.1616150  44.5948300 141.7930300
  36.0840490  44.4943270 140.5968300  43.0992840  41.2201450 127.4598160
  43.5386120  40.3823880 127.3135980  43.8121260  41.8530850 127.5462300
  34.8858840  41.2421650 140.1214270  34.7466610  42.1144450 140.4901670
  34.0040200  40.8994460 139.9762210  41.2088220  46.1597520 131.4279400
  41.6484130  46.9021850 131.0134790  41.1475110  46.4024090 132.3518360
  36.6839190  47.1843350 142.3299420  36.6554620  47.5886300 141.4627850
  36.5204160  46.2553710 142.1671020  46.6809980  32.4744260 125.7739200
  46.3682640  32.5671090 126.6738270  47.4422450  33.0525290 125.7236630
  33.1992120  39.8404060 130.2316540  33.0789720  40.5666150 129.6197810
  32.8893010  39.0706970 129.7544450  48.6354010  47.9670450 143.6263590
  49.1113730  48.4453340 144.3052670  49.2561170  47.8987940 142.9009090
  30.8377490  43.0119200 136.0385180  30.9157910  43.1467970 135.0940900
  31.4519170  42.3035090 136.2313300  32.0825120  44.7119390 132.4491360
  31.6753200  44.8533980 131.5944960  32.9738130  44.4279550 132.2462570
  48.0387260  45.1583300 140.7863600  48.1650320  44.9195180 139.8680780
  48.0808640  44.3267840 141.2585680  41.9004000  48.8611300 139.3558410
  42.4148670  48.7719310 140.1580840  41.0573080  49.2071000 139.6486320
  43.8758400  49.1466640 128.7842410  43.7159540  48.8569580 129.6824240
  43.7105110  48.3706770 128.2487640  36.3546780  48.9265170 130.5614030
  36.1789260  48.0100710 130.3481830  35.5002520  49.2852460 130.8011830
  43.5784530  46.6554200 127.3440410  42.8849690  46.6531490 126.6842690
  44.3207390  46.2313520 126.9134580  43.1434460  48.2816910 131.4188900
  43.5991410  47.5006290 131.7327520  43.4826980  48.9923730 131.9630080
  47.8911270  37.2115760 141.7513340  47.2755540  37.7195430 141.2228800
  47.5707690  36.3114090 141.6939280  30.8937010  44.0533370 138.5779640
  31.0568050  43.5838730 137.7599010  31.3589460  43.5456930 139.2428480
  35.6655780  33.1839130 133.6140210  35.2223930  33.9648670 133.2824730
  36.2240770  33.5069020 134.3211150  39.9525590  36.0507650 139.2175530
  39.4904960  36.2590670 140.0295470  39.5503700  35.2367000 138.9146200
  44.9530100  37.2716600 140.3472190  44.1023690  36.9722350 140.6681260
  44.7931890  37.5158610 139.4356010  42.0479810  38.7718350 142.4470980
  42.3733220  37.9382100 142.1073210  42.8360140  39.2946870 142.5949310
  38.7814600  32.8049830 128.4946040  38.1568780  32.8009700 129.2199350
  38.6944720  31.9380790 128.0982010  37.7031680  33.7286460 135.4729810
  38.0004010  34.6349290 135.3921830  38.2517240  33.2405240 134.8589380
  35.4570000  38.3072700 131.3421460  35.2310920  38.0909870 132.2468080
  34.6762530  38.7401160 130.9967430  42.6867760  38.3136070 129.9412110
  42.0876650  39.0371870 129.7575730  43.2347370  38.2512850 129.1588560
  37.8969210  39.2058280 142.0081730  37.8012810  38.2653010 141.8582130
  38.7401190  39.4273350 141.6129800  41.2932630  36.9499610 131.9715390
  41.6862200  37.2671810 131.1584080  41.6549480  36.0711490 132.0859910
  33.0279750  35.6171950 140.1615510  32.6343140  36.4647160 140.3688290
  32.3398150  34.9798320 140.3524150  39.6024800  35.7006920 143.2312250
  38.9123120  35.5079120 143.8658340  40.3457100  35.9841560 143.7636550
  30.3296800  33.5400410 134.1945590  30.0409850  34.1103270 134.9070570
  31.0742560  33.0604860 134.5576820  30.5167030  37.4820530 125.4048310
  30.4341700  38.4251290 125.5463300  30.1650090  37.3395440 124.5260660
  41.8787770  39.5405360 136.0666170  41.1468890  40.0492170 136.4156270
  41.4812110  38.7235340 135.7654950  38.3165160  36.2159560 134.4718660
  38.3201220  35.7749510 133.6223200  39.2116280  36.5376890 134.5790480
  34.1667540  36.0986050 133.4312870  33.8267590  36.5761280 134.1879920
  33.4044860  35.6451170 133.0713970  38.3785310  37.2171640 127.4625420
  38.4998130  37.1758120 128.4111240  37.9933820  38.0795790 127.3072150
  42.3413680  34.9939040 135.4789110  42.3586420  35.4447690 136.3230960
  42.0929260  34.0944680 135.6922550  37.3906810  39.5272780 126.8608720
  36.8223710  39.0791030 126.2344630  38.0995810  39.8865560 126.3273870
  45.7684430  32.4071220 141.3175490  46.0930200  31.6760880 141.8433470
  45.8040940  32.0884860 140.4156480  32.4675990  43.4284800 140.7375450
  32.0830780  42.7878470 141.3358410  32.7788180  44.1320920 141.3070180
  38.6173130  40.2761340 136.2184070  38.9843260  39.8019910 136.9645410
  38.4278190  41.1502910 136.5592410  31.4813620  35.0205030 132.3477540
  31.1960540  34.6560700 133.1856160  31.4192480  34.2885490 131.7340680
  36.4072500  39.3169980 138.5368280  36.1029570  40.1961960 138.7618640
  37.3618960  39.3769770 138.5725720  34.9354290  43.5230970 129.1335130
  34.1616550  42.9828590 128.9733850  35.6648920  43.0037580 128.7952890
  45.6942270  42.5196330 134.9261520  46.4141390  43.0151620 134.5357630
  45.4924090  41.8414220 134.2815390  41.1552210  33.9134290 129.0690910
  40.3416820  33.4147460 128.9936220  40.9614160  34.7532540 128.6527260
  41.0761070  42.5905390 140.8130520  41.0098380  41.6701060 140.5588110
  40.4466210  42.6880830 141.5275160  43.8700600  38.2853940 127.3653070
  44.7580220  38.5971170 127.1904410  43.8405690  37.4126190 126.9733650
  34.9791690  43.1911350 132.7713940  35.4970360  42.3879610 132.7170830
  34.5275710  43.1290490 133.6130770  39.8661190  44.4577630 128.0441240
  40.2076890  45.2019860 127.5484560  39.0373900  44.7708750 128.4066070
  32.4636230  40.1572720 139.6839640  32.1051170  40.8226570 140.2712980
  32.1690790  39.3256270 140.0552260  35.6649350  40.6156960 142.5679190
  35.3649490  40.7614140 141.6707010  36.4360590  40.0562250 142.4752580
  41.0077800  45.4125960 140.5634320  41.0222340  44.4806920 140.3453230
  40.3002900  45.4985720 141.2024090  46.1414870  39.5965780 126.8332930
  46.0578590  40.0280000 125.9829370  46.8609060  40.0564130 127.2659750
  47.2189010  42.0533300 139.9102900  46.4937200  42.6462080 139.7132290
  47.7464470  42.0456840 139.1116270  47.1702120  46.4508040 129.5615060
  46.5278280  45.7963660 129.8358780  46.7832780  46.8563130 128.7855730
  42.7488600  43.7793470 133.4086750  43.1012420  43.1821600 132.7488120
  41.8650930  43.4537700 133.5795000  38.8351880  44.5391160 130.8157160
  39.5223010  45.0860370 131.1964750  38.0484300  45.0831890 130.8506770
  30.9744280  40.1563980 126.3074240  31.8439130  40.4388780 126.5910160
  30.4834600  40.9699850 126.1923050  38.1379090  41.5437190 130.4282520
  38.5941870  42.3542440 130.6542710  37.7867300  41.2260330 131.2601010
  40.4411700  47.0543530 137.6574820  41.0853920  47.2602910 138.3348240
  40.8041140  46.2931930 137.2045670  34.0390870  31.8874840 130.9005040
  33.9105500  31.8792740 131.8489960  33.2152890  32.2257930 130.5496050
  41.7143780  45.0575880 136.3752270  42.3566010  44.3569040 136.4884440
  42.2393130  45.8374320 136.1949160  45.5599500  45.3424500 126.0991410
  45.3337080  44.6254940 126.6916050  45.1695700  45.0936940 125.2613160
  43.4881400  45.8570780 139.5788330  43.8237640  46.4437470 140.2566250
  42.5681740  45.7263490 139.8086120  31.3415530  49.3691360 126.8735870
  31.7013170  49.9680700 126.2193140  31.2007870  49.9151250 127.6470900
  31.0384800  33.6465960 140.3611740  30.3243320  33.8462880 140.9664350
  31.4579840  32.8705530 140.7326540  45.1415750  43.2596440 127.7605570
  44.8537450  43.7209130 128.5483450  45.9367920  42.7994210 128.0289790
  31.3257390  47.6346220 141.3478270  31.4348510  46.6940960 141.2073660
  30.6737950  47.9000970 140.6992000  39.3169980  45.9062110 142.7476390
  38.9966850  45.1871350 143.2922080  38.6428340  46.5817180 142.8212450
  37.3584150  46.7522560 127.6909540  37.3494250  47.4852250 127.0754050
  36.4382510  46.5054140 127.7836500  32.9590790  41.9737450 128.4356300
  32.3518740  42.7136350 128.4451600  33.4340140  42.0636810 127.6094500
  42.5323580  36.1388270 138.1113190  42.9004400  35.3183480 138.4392760
  41.6721780  36.1990160 138.5268840  45.8985610  35.0945210 128.9200750
  45.2698770  35.1990880 128.2058980  45.4037530  35.3141990 129.7094630
  40.3443750  46.8150800 126.3534730  40.4455730  46.6114790 125.4236710
  39.4445490  46.5609080 126.5582510  37.8669640  37.3731160 130.3358630
  37.1585790  37.8417500 130.7772240  38.1514120  36.7153170 130.9703820
  39.4925570  38.7927860 138.3351160  39.9910820  39.2673680 139.0003010
  39.6348520  37.8691380 138.5421190  41.8985070  34.0981820 131.7754420
  41.7752850  34.1167950 130.8263930  42.8469630  34.1460760 131.8952820
  38.9861860  49.3337120 131.0482400  39.2403360  49.2958510 130.1261770
  38.0374340  49.2070450 131.0410650  36.0704660  35.6816240 127.7109340
  36.9195190  36.1186390 127.6449530  35.7035930  35.9936500 128.5381400
  46.6992430  35.0095820 139.1779550  46.1966030  35.7501220 139.5173360
  47.5149090  35.3979820 138.8616340  44.9914440  40.2529000 132.6240910
  44.0504580  40.2679230 132.7988600  45.3058510  39.4664960 133.0701210
  34.9696080  41.9348600 126.1844870  35.7359350  41.8229960 126.7470300
  35.0470770  41.2386570 125.5321640  33.6642840  39.3673670 126.8677760
  33.7446430  38.4201180 126.9795160  34.5562590  39.6980550 126.9738420
  46.9940020  47.4237850 134.2995170  47.1187440  48.2469020 134.7718980
  47.8605580  47.2128580 133.9519320  34.4657550  49.5169060 133.9712300
  35.2020030  48.9684520 134.2420870  34.8498470  50.3825070 133.8318290
  31.3503030  45.5842630 129.8453810  30.4242810  45.8263770 129.8359220
  31.8159460  46.4116890 129.7238560  33.4715830  48.7015130 143.1597880
  34.2728560  49.0227180 143.5733280  32.9567650  48.3410710 143.8817790
  37.5759860  48.6899370 125.7937870  38.3688470  48.9788200 125.3419660
  37.0564210  48.2591540 125.1150350  42.3080460  44.8095000 143.1073290
  41.7018620  44.8326600 142.3669040  42.0034570  44.0778040 143.6440540
  43.7380830  48.5375290 141.7182700  44.6902580  48.4533310 141.6682940
  43.5909050  49.2017000 142.3916490  46.6290030  47.9169500 127.2174610
  46.3431540  47.5034640 126.4028790  46.4309580  48.8457210 127.0975130
  31.1913640  41.1888590 142.1033930  31.6952660  40.6095870 142.6750160
  30.4521060  41.4728820 142.6410300  38.0937260  43.9102780 125.6580220
  37.9887900  43.2955130 126.3841600  37.9261480  43.3868670 124.8743230
  38.2451580  42.5959580 141.6369450  37.4797250  43.1644580 141.5524120
  38.4267540  42.3035790 140.7437680  41.3339990  42.9722810 126.2622210
  40.7850090  43.4192110 126.9064950  41.9559250  42.4672060 126.7859880
  45.3874930  44.3264910 142.1944470  46.1284400  44.6640670 141.6911930
  44.6247610  44.4956970 141.6414240  33.2236720  39.3318180 142.9984000
  33.2642060  39.0332050 143.9069230  34.0782220  39.7325790 142.8391520
  37.0015110  41.9313730 128.1587510  37.4231530  41.7653600 129.0018900
  37.1265950  41.1213960 127.6642650  35.1642530  37.9110280 140.9658490
  34.6338990  37.4201230 140.3381830  35.8330600  38.3394480 140.4316420
  39.5142750  40.9551340 125.4064610  40.0348410  40.2400360 125.0405760
  40.1611150  41.5937210 125.7065120  44.0620590  42.3779740 140.7299680
  44.4761610  42.5324820 141.5790100  43.1271590  42.5034960 140.8925460
  44.5342760  39.7175900 142.7338830  45.1163530  38.9628220 142.6459310
  44.7104530  40.2483340 141.9570310  35.6514830  34.8772650 141.0455780
  35.5571700  34.2593400 140.3206650  35.0712220  35.6038940 140.8185690
  38.4176270  33.4345890 138.0783170  37.9693570  33.4570150 137.2328720
  37.7841470  33.0364910 138.6753470  38.8235820  42.3300220 138.6995610
  39.2423930  43.1732950 138.5271850  37.9044450  42.4672260 138.4702390
  41.1599720  40.0616400 140.0833450  41.2795930  39.4657540 140.8228290
  42.0193720  40.0986090 139.6634750  43.4987620  40.6153590 138.6595960
  42.9722840  41.1396210 138.0561100  43.8418960  41.2480980 139.2905690
  35.8974010  38.0046960 125.1045670  35.6963070  37.1414320 125.4659010
  35.7266060  37.9180320 124.1667270  36.6743240  48.6353230 139.8153340
  36.1364330  49.3599290 139.4962040  36.9277200  48.1583570 139.0250680
  37.9268490  36.6037750 141.3409270  38.5168180  36.2953600 142.0287090
  37.1088730  36.1317500 141.4969170  42.7461920  36.2203560 141.5742290
  42.0577440  35.5585100 141.5092280  43.4667940  35.7741830 142.0190750
  43.3762320  32.8155190 127.6332550  43.6564610  31.9723090 127.9891970
  42.6028050  33.0478300 128.1471300  34.6956810  35.1047580 125.0923550
  34.9982710  35.1115010 124.1842700  35.4351400  34.7545440 125.5891210
  39.5305450  49.8704440 140.0739990  39.4564150  50.7739580 140.3812360
  38.6284290  49.5516340 140.0462060  37.9141740  34.0482200 126.0779750
  37.5663740  33.3706190 125.4982200  38.1154510  33.5871710 126.8923140
  40.0790780  49.0362950 127.6966350  40.9741570  49.3747920 127.7185110
  40.1108410  48.3142360 127.0690630  33.7186940  44.4090000 125.9253350
  34.1561810  44.9519670 126.5810930  34.2034670  43.5836950 125.9349690
  30.9332740  47.1979030 133.3773610  31.2635750  46.3300090 133.1452250
  31.3623740  47.4037550 134.2078570  35.5294660  45.5288040 131.0375580
  35.2290200  45.4053010 131.9379490  35.4232150  44.6696630 130.6291310
  31.4222950  48.0649620 136.1155240  30.9853940  48.2450420 136.9479390
  31.9900630  48.8224240 135.9736960  47.0585130  47.5666620 140.4032550
  46.4587120  47.6259180 139.6596470  47.1879030  46.6271600 140.5329400
  47.7543040  42.0531920 128.2436460  48.5161950  42.6228570 128.3496150
  47.7697410  41.4859120 129.0144770  31.2547380  40.5769850 132.4744120
  30.5996220  40.3081490 131.8303820  32.0925330  40.4674330 132.0246100
  48.7603010  42.9082020 133.0878390  49.1311840  42.1249340 132.6814360
  49.4004940  43.5971120 132.9095690  45.7436770  44.2918600 138.5008710
  44.9296610  44.7215760 138.7634500  46.1510970  44.9037010 137.8877760
  44.2037820  35.3711140 126.6962610  44.6222700  35.1842120 125.8559270
  43.8973880  34.5190190 127.0065540  47.7027550  40.2835280 130.3938410
  47.3271150  39.5163210 129.9619700  46.9730670  40.6657980 130.8813340
  32.2923310  40.9622420 137.0147460  32.6596350  40.8749820 137.8943480
  31.7234130  40.1988970 136.9154320  47.0927170  39.4306800 140.0277930
  46.8613260  39.2019550 139.1275880  47.3531720  40.3506350 139.9822820
  31.8439310  37.8731510 140.9205880  30.9495360  37.8398270 141.2599590
  32.3836860  38.0718300 141.6857130  45.5315240  34.6563230 142.8057630
  46.4085420  34.6646630 143.1891630  45.5436080  33.9194070 142.1949980
  30.4685460  37.7868780 128.4169450  29.5649540  38.0498980 128.2421110
  30.9526080  38.0579950 127.6369410  46.9778510  38.5092770 133.6945650
  47.5015990  38.0155420 133.0635820  47.5637930  38.6443130 134.4393220
  47.1568230  38.5932640 137.2165200  46.2070940  38.5596180 137.3310190
  47.3381240  39.5032750 136.9814970  33.0112670  36.8434320 126.3263830
  33.7204370  36.4217540 125.8411110  32.2952610  36.9109550 125.6947180
  32.6586830  32.8973650 125.3666480  33.3814960  33.4382590 125.6847700
  32.9311350  32.6237070 124.4908020  46.4678480  37.7666120 129.6338060
  46.9637600  37.5336990 130.4186940  46.2694550  36.9277960 129.2175700
  32.3479020  32.1479840 135.2689100  32.9955210  31.5977220 134.8284260
  32.7680860  32.4022990 136.0904910  47.8965640  36.4027070 132.1675740
  47.7864920  36.2483110 133.1058010  48.6573230  35.8748010 131.9251150
  46.2431360  32.3421200 138.6258740  46.8803580  32.9555340 138.9917930
  46.3906250  32.3781860 137.6807970  48.7855910  34.2334990 125.4081880
  49.7105220  34.1016170 125.2000170  48.7631700  34.3127810 126.3618330
  48.8594400  35.0045650 128.0338590  48.0645900  34.9390770 128.5631500
  49.0637680  35.9396290 128.0223940  45.8012820  49.0437200 132.0276980
  46.3971890  48.7221770 131.3511400  46.0590970  48.5709020 132.8190250
  32.1011020  32.3035510 138.0114420  31.7525840  32.7599330 138.7772600
  31.7698720  31.4092640 138.0936850  33.7075390  45.4755110 142.1767610
  33.6645020  45.1048020 143.0582070  33.8386400  46.4132680 142.3169430
  37.4081420  47.0314700 137.7777330  37.1672780  47.2989260 136.8907850
  38.3484060  47.2020430 137.8328190  39.6135840  33.4947390 141.5333840
  39.5524730  34.0869220 142.2829250  40.5536220  33.3873350 141.3884100
  42.2510400  33.1517450 141.1726130  42.8650810  33.4696740 140.5107210
  42.7959960  32.6666040 141.7921990  48.6685580  49.0509080 138.5787970
  48.1743860  49.4477950 137.8615100  48.0598870  48.4258290 138.9725250
  32.7731660  31.8311710 141.2865190  33.3214650  31.6499760 140.5231300
  32.8386970  31.0405820 141.8221500  33.5463420  48.4217360 139.2965390
  32.9523740  48.2902060 140.0355430  33.5387260  47.5855500 138.8307490
  42.9918440  31.7149590 137.4995420  42.1178280  32.0484700 137.2968350
  42.8829190  31.2422770 138.3247290  43.8990420  33.9220460 138.8837140
  43.5703780  33.1072220 138.5038870  44.8472720  33.8790270 138.7602830
  46.3525030  49.6932500 135.8574710  45.8928000  50.4448310 135.4832730
  45.7237490  48.9738970 135.7989510  33.1775650  45.7875740 138.2473430
  32.4509710  45.1681030 138.1799380  33.2384800  46.1816350 137.3771510
  36.7820750  48.0020740 135.0322840  37.2985770  47.3908100 134.5071100
  37.4318130  48.5049520 135.5233850  39.5216250  48.8929230 135.8591820
  39.8094060  48.6383530 134.9824830  40.0339470  48.3406590 136.4497390
  40.7393260  32.6319430 136.4388330  39.9565050  33.1064930 136.7185090
  40.4456190  31.7274260 136.3301510  45.2914330  33.3342530 134.4837420
  45.7322420  33.2787630 133.6359020  45.0221920  34.2500540 134.5547600
  47.1552900  32.9657770 132.4946240  47.0941300  32.0218990 132.3477260
  47.9344930  33.0737860 133.0399700  31.4605650  49.1050130 131.4570190
  31.2927690  48.4720810 132.1552080  30.5940160  49.3109530 131.1064380
  32.0833670  32.9366910 128.9602050  32.8413030  33.0495790 128.3866080
  31.6210840  33.7736110 128.9145480  38.6247480  35.0506180 131.9504360
  37.8121990  34.6763070 131.6100240  39.1289120  34.2951260 132.2525550
  43.1272460  31.7148630 133.1887430  43.7301830  32.2868840 133.6635950
  42.3865450  32.2788070 132.9661330  46.2707060  32.1170190 128.4627710
  46.4657690  33.0153640 128.7295140  45.4836930  31.8857270 128.9560660
  33.0668350  47.7983360 128.9020330  32.5415970  48.1791390 128.1982290
  32.9912930  48.4234130 129.6230040  34.4558820  33.4630960 127.5004020
  34.9851580  32.6760760 127.3711970  35.0887140  34.1422150 127.7339550
  36.6496660  33.2006100 130.5549410  36.0199400  32.4993410 130.7219540
  36.1101800  33.9610230 130.3382570  39.5888610  49.8145330 143.2260020
  40.5155920  49.5789600 143.2695980  39.5739040  50.6417330 142.7446050
  47.8233670  49.3570900 130.2234270  47.9985860  48.6708640 129.5795190
  47.1255240  49.8817950 129.8310940  36.7752220  32.4790080 142.9901900
  36.4936490  32.9823680 142.2262720  37.1571920  31.6811830 142.6244030
  35.6661320  49.7465740 127.7769580  36.3980140  49.4625020 127.2293470
  35.9254990  49.5079020 128.6668960  34.8276110  45.8630470 127.7815910
  34.1984990  46.3315570 128.3301740  34.9423940  45.0179690 128.2162100
  43.3767680  31.8943660 143.5682370  43.2633130  32.2138270 144.4633890
  44.1937420  32.2956170 143.2719650  46.1566170  49.0415190 143.0501060
  46.9491490  48.5464420 142.8427020  46.4499320  49.7205330 143.6576670
  42.2825830  39.9136130 113.9317110  42.2019880  38.9990740 113.6608820
  41.8690250  40.4103200 113.2256820  40.4143870  41.6915150 115.8126380
  39.6385970  41.2115590 116.1024950  41.0656800  41.0120800 115.6382540
  34.4309700  42.0034960 116.6902140  33.5994580  41.7483670 117.0898650
  35.0390680  42.0745730 117.4260060  44.4351300  46.0975340 114.5925510
  43.9732830  45.3262580 114.9212680  45.2476850  46.1241410 115.0977960
  32.8401650  36.9636850 110.4744530  31.9518350  37.3052820 110.3724410
  33.1242840  36.7637170 109.5825360  30.8034660  39.5642500 116.3584230
  31.3750770  38.7964700 116.3587870  30.8036200  39.8631260 115.4490840
  39.8552860  44.3672340 115.8196540  39.7861140  43.4262280 115.6585670
  40.6172720  44.4573750 116.3919110  32.0459530  34.9726860 118.1453160
  31.8662370  34.0752610 118.4255920  31.6439610  35.5198730 118.8200110
  40.8858030  37.1742720 116.0465470  41.2622850  36.3014600 115.9339140
  40.7877540  37.5101420 115.1555910  35.0163040  35.5468350 111.5082910
  35.1229790  36.4472080 111.8151670  34.1055400  35.4986320 111.2177560
  32.6646200  37.4687360 116.7535500  33.3456310  37.7325730 117.3722900
  32.3494250  36.6288230 117.0873510  36.8570770  38.5154720 115.8408090
  37.3648990  39.0135690 116.4813110  37.3884010  37.7389920 115.6647450
  35.1406870  33.1553280 120.1071510  35.1425310  33.6725670 119.3017410
  34.3111180  32.6783460 120.0841440  41.5277960  43.2672590 111.6061410
  40.9095230  43.7322040 111.0424130  42.0401210  43.9600070 112.0230920
  36.3909720  42.7948460 118.2845010  36.0579100  43.4217380 118.9266080
  36.5676400  43.3210340 117.5046680  44.9043630  36.6093540 115.7521350
  44.1999200  36.8978430 116.3324460  45.2655790  37.4193650 115.3920910
  34.8222200  34.8663240 118.1141960  35.1639010  35.7105290 117.8195830
  33.8838010  35.0146980 118.2307300  35.6028820  44.7629260 120.0994190
  36.2202820  45.4380340 119.8178640  34.7421940  45.1717240 120.0081690
  30.8961160  43.9529120 108.9801040  30.5189140  44.4416220 108.2485940
  31.1534230  44.6254400 109.6107570  46.5206410  46.2268670 118.0148830
  45.8369930  46.8967780 118.0065500  47.0600700  46.4249320 117.2493690
  47.9730550  36.0548330 116.1430560  47.0255460  36.0887310 116.2745990
  48.2980540  36.8687280 116.5279920  38.5050090  32.3545510 114.4386550
  38.8125070  31.7992400 113.7222050  37.5750790  32.4889970 114.2559540
  44.0565150  48.0712800 116.7294010  44.0692310  47.6675090 115.8616270
  43.5040370  48.8460090 116.6255440  45.3510570  44.7929020 111.8184180
  45.2406900  43.8503350 111.9433600  45.3478820  45.1544660 112.7046940
  43.4550590  42.9742640 118.0576620  43.8719380  42.7602750 117.2230080
  44.1790410  43.2315430 118.6285240  40.8930850  40.4194340 111.1746670
  39.9660130  40.3531720 111.4035140  41.0455670  41.3574470 111.0601910
  47.4012690  41.3729860 118.1492860  46.5731320  41.4422950 117.6742990
  47.9963170  41.9584170 117.6808690  44.9228140  41.9814640 111.6781920
  44.3040560  41.6434190 111.0308220  44.9052590  41.3374400 112.3861110
  44.3654700  38.1599180 119.0947730  43.9525880  38.9852890 119.3487720
  43.6330650  37.5744220 118.9024090  36.4987490  40.9459080 113.9566400
  36.0944490  40.2336330 113.4612300  36.5850610  40.6012320 114.8454440
  35.2116110  37.7202290 117.7365440  35.7630700  37.8297630 116.9618690
  35.7259620  38.0939890 118.4520670  45.0554800  48.2058510 119.7828710
  44.5785360  49.0130700 119.5901320  44.3716590  47.5536840 119.9354920
  36.0587620  44.3708330 122.7713410  35.1616150  44.5948300 123.0186810
  36.0840490  44.4943270 121.8224810  34.8858840  41.2421650 121.3470780
  34.7466610  42.1144450 121.7158180  34.0040200  40.8994460 121.2018720
  36.6839190  47.1843350 123.5555930  36.6554620  47.5886300 122.6884360
  36.5204160  46.2553710 123.3927530  33.1992120  39.8404060 111.4573050
  33.0789720  40.5666150 110.8454320  32.8893010  39.0706970 110.9800960
  30.8377490  43.0119200 117.2641690  30.9157910  43.1467970 116.3197410
  31.4519170  42.3035090 117.4569810  32.0825120  44.7119390 113.6747870
  31.6753200  44.8533980 112.8201470  32.9738130  44.4279550 113.4719080
  43.8758400  49.1466640 110.0098920  43.7159540  48.8569580 110.9080750
  43.7105110  48.3706770 109.4744150  43.5784530  46.6554200 108.5696920
  42.8849690  46.6531490 107.9099200  44.3207390  46.2313520 108.1391090
  43.1434460  48.2816910 112.6445410  43.5991410  47.5006290 112.9584030
  43.4826980  48.9923730 113.1886590  47.8911270  37.2115760 122.9769850
  47.2755540  37.7195430 122.4485310  47.5707690  36.3114090 122.9195790
  30.8937010  44.0533370 119.8036150  31.0568050  43.5838730 118.9855520
  31.3589460  43.5456930 120.4684990  35.6655780  33.1839130 114.8396720
  35.2223930  33.9648670 114.5081240  36.2240770  33.5069020 115.5467660
  39.9525590  36.0507650 120.4432040  39.4904960  36.2590670 121.2551980
  39.5503700  35.2367000 120.1402710  44.9530100  37.2716600 121.5728700
  44.1023690  36.9722350 121.8937770  44.7931890  37.5158610 120.6612520
  42.0479810  38.7718350 123.6727490  42.3733220  37.9382100 123.3329720
  42.8360140  39.2946870 123.8205820  38.7814600  32.8049830 109.7202550
  38.1568780  32.8009700 110.4455860  38.6944720  31.9380790 109.3238520
  37.7031680  33.7286460 116.6986320  38.0004010  34.6349290 116.6178340
  38.2517240  33.2405240 116.0845890  35.4570000  38.3072700 112.5677970
  35.2310920  38.0909870 113.4724590  34.6762530  38.7401160 112.2223940
  42.6867760  38.3136070 111.1668620  42.0876650  39.0371870 110.9832240
  43.2347370  38.2512850 110.3845070  37.8969210  39.2058280 123.2338240
  37.8012810  38.2653010 123.0838640  38.7401190  39.4273350 122.8386310
  41.2932630  36.9499610 113.1971900  41.6862200  37.2671810 112.3840590
  41.6549480  36.0711490 113.3116420  33.0279750  35.6171950 121.3872020
  32.6343140  36.4647160 121.5944800  32.3398150  34.9798320 121.5780660
  39.6024800  35.7006920 124.4568760  38.9123120  35.5079120 125.0914850
  40.3457100  35.9841560 124.9893060  30.3296800  33.5400410 115.4202100
  30.0409850  34.1103270 116.1327080  31.0742560  33.0604860 115.7833330
  30.5167030  37.4820530 106.6304820  30.4341700  38.4251290 106.7719810
  30.1650090  37.3395440 105.7517170  41.8787770  39.5405360 117.2922680
  41.1468890  40.0492170 117.6412780  41.4812110  38.7235340 116.9911460
  38.3165160  36.2159560 115.6975170  38.3201220  35.7749510 114.8479710
  39.2116280  36.5376890 115.8046990  34.1667540  36.0986050 114.6569380
  33.8267590  36.5761280 115.4136430  33.4044860  35.6451170 114.2970480
  42.3413680  34.9939040 116.7045620  42.3586420  35.4447690 117.5487470
  42.0929260  34.0944680 116.9179060  45.7684430  32.4071220 122.5432000
  46.0930200  31.6760880 123.0689980  45.8040940  32.0884860 121.6412990
  32.4675990  43.4284800 121.9631960  32.0830780  42.7878470 122.5614920
  32.7788180  44.1320920 122.5326690  38.6173130  40.2761340 117.4440580
  38.9843260  39.8019910 118.1901920  38.4278190  41.1502910 117.7848920
  31.4813620  35.0205030 113.5734050  31.1960540  34.6560700 114.4112670
  31.4192480  34.2885490 112.9597190  36.4072500  39.3169980 119.7624790
  36.1029570  40.1961960 119.9875150  37.3618960  39.3769770 119.7982230
  34.9354290  43.5230970 110.3591640  34.1616550  42.9828590 110.1990360
  35.6648920  43.0037580 110.0209400  45.6942270  42.5196330 116.1518030
  46.4141390  43.0151620 115.7614140  45.4924090  41.8414220 115.5071900
  41.0761070  42.5905390 122.0387030  41.0098380  41.6701060 121.7844620
  40.4466210  42.6880830 122.7531670  34.9791690  43.1911350 113.9970450
  35.4970360  42.3879610 113.9427340  34.5275710  43.1290490 114.8387280
  39.8661190  44.4577630 109.2697750  40.2076890  45.2019860 108.7741070
  39.0373900  44.7708750 109.6322580  32.4636230  40.1572720 120.9096150
  32.1051170  40.8226570 121.4969490  32.1690790  39.3256270 121.2808770
  35.6649350  40.6156960 123.7935700  35.3649490  40.7614140 122.8963520
  36.4360590  40.0562250 123.7009090  41.0077800  45.4125960 121.7890830
  41.0222340  44.4806920 121.5709740  40.3002900  45.4985720 122.4280600
  47.1702120  46.4508040 110.7871570  46.5278280  45.7963660 111.0615290
  46.7832780  46.8563130 110.0112240  42.7488600  43.7793470 114.6343260
  43.1012420  43.1821600 113.9744630  41.8650930  43.4537700 114.8051510
  30.9744280  40.1563980 107.5330750  31.8439130  40.4388780 107.8166670
  30.4834600  40.9699850 107.4179560  38.1379090  41.5437190 111.6539030
  38.5941870  42.3542440 111.8799220  37.7867300  41.2260330 112.4857520
  34.0390870  31.8874840 112.1261550  33.9105500  31.8792740 113.0746470
  33.2152890  32.2257930 111.7752560  41.7143780  45.0575880 117.6008780
  42.3566010  44.3569040 117.7140950  42.2393130  45.8374320 117.4205670
  45.5599500  45.3424500 107.3247920  45.3337080  44.6254940 107.9172560
  45.1695700  45.0936940 106.4869670  43.4881400  45.8570780 120.8044840
  43.8237640  46.4437470 121.4822760  42.5681740  45.7263490 121.0342630
  31.0384800  33.6465960 121.5868250  30.3243320  33.8462880 122.1920860
  31.4579840  32.8705530 121.9583050  31.3257390  47.6346220 122.5734780
  31.4348510  46.6940960 122.4330170  30.6737950  47.9000970 121.9248510
  39.3169980  45.9062110 123.9732900  38.9966850  45.1871350 124.5178590
  38.6428340  46.5817180 124.0468960  32.9590790  41.9737450 109.6612810
  32.3518740  42.7136350 109.6708110  33.4340140  42.0636810 108.8351010
  42.5323580  36.1388270 119.3369700  42.9004400  35.3183480 119.6649270
  41.6721780  36.1990160 119.7525350  40.3443750  46.8150800 107.5791240
  40.4455730  46.6114790 106.6493220  39.4445490  46.5609080 107.7839020
  37.8669640  37.3731160 111.5615140  37.1585790  37.8417500 112.0028750
  38.1514120  36.7153170 112.1960330  39.4925570  38.7927860 119.5607670
  39.9910820  39.2673680 120.2259520  39.6348520  37.8691380 119.7677700
  41.8985070  34.0981820 113.0010930  41.7752850  34.1167950 112.0520440
  42.8469630  34.1460760 113.1209330  36.0704660  35.6816240 108.9365850
  36.9195190  36.1186390 108.8706040  35.7035930  35.9936500 109.7637910
  46.6992430  35.0095820 120.4036060  46.1966030  35.7501220 120.7429870
  47.5149090  35.3979820 120.0872850  44.9914440  40.2529000 113.8497420
  44.0504580  40.2679230 114.0245110  45.3058510  39.4664960 114.2957720
  33.4715830  48.7015130 124.3854390  34.2728560  49.0227180 124.7989790
  32.9567650  48.3410710 125.1074300  42.3080460  44.8095000 124.3329800
  41.7018620  44.8326600 123.5925550  42.0034570  44.0778040 124.8697050
  43.7380830  48.5375290 122.9439210  44.6902580  48.4533310 122.8939450
  43.5909050  49.2017000 123.6173000  46.6290030  47.9169500 108.4431120
  46.3431540  47.5034640 107.6285300  46.4309580  48.8457210 108.3231640
  31.1913640  41.1888590 123.3290440  31.6952660  40.6095870 123.9006670
  30.4521060  41.4728820 123.8666810  38.2451580  42.5959580 122.8625960
  37.4797250  43.1644580 122.7780630  38.4267540  42.3035790 121.9694190
  45.3874930  44.3264910 123.4200980  46.1284400  44.6640670 122.9168440
  44.6247610  44.4956970 122.8670750  33.2236720  39.3318180 124.2240510
  33.2642060  39.0332050 125.1325740  34.0782220  39.7325790 124.0648030
  35.1642530  37.9110280 122.1915000  34.6338990  37.4201230 121.5638340
  35.8330600  38.3394480 121.6572930  44.0620590  42.3779740 121.9556190
  44.4761610  42.5324820 122.8046610  43.1271590  42.5034960 122.1181970
  44.5342760  39.7175900 123.9595340  45.1163530  38.9628220 123.8715820
  44.7104530  40.2483340 123.1826820  35.6514830  34.8772650 122.2712290
  35.5571700  34.2593400 121.5463160  35.0712220  35.6038940 122.0442200
  38.4176270  33.4345890 119.3039680  37.9693570  33.4570150 118.4585230
  37.7841470  33.0364910 119.9009980  38.8235820  42.3300220 119.9252120
  39.2423930  43.1732950 119.7528360  37.9044450  42.4672260 119.6958900
  41.1599720  40.0616400 121.3089960  41.2795930  39.4657540 122.0484800
  42.0193720  40.0986090 120.8891260  43.4987620  40.6153590 119.8852470
  42.9722840  41.1396210 119.2817610  43.8418960  41.2480980 120.5162200
  37.9268490  36.6037750 122.5665780  38.5168180  36.2953600 123.2543600
  37.1088730  36.1317500 122.7225680  42.7461920  36.2203560 122.7998800
  42.0577440  35.5585100 122.7348790  43.4667940  35.7741830 123.2447260
  37.9141740  34.0482200 107.3036260  37.5663740  33.3706190 106.7238710
  38.1154510  33.5871710 108.1179650  40.0790780  49.0362950 108.9222860
  40.9741570  49.3747920 108.9441620  40.1108410  48.3142360 108.2947140
  31.4222950  48.0649620 117.3411750  30.9853940  48.2450420 118.1735900
  31.9900630  48.8224240 117.1993470  47.0585130  47.5666620 121.6289060
  46.4587120  47.6259180 120.8852980  47.1879030  46.6271600 121.7585910
  48.2986580  45.3084440 106.9658770  47.4679540  45.3761090 107.4366000
  48.4758410  46.1988560 106.6625630  47.7543040  42.0531920 109.4692970
  48.5161950  42.6228570 109.5752660  47.7697410  41.4859120 110.2401280
  31.2547380  40.5769850 113.7000630  30.5996220  40.3081490 113.0560330
  32.0925330  40.4674330 113.2502610  48.7603010  42.9082020 114.3134900
  49.1311840  42.1249340 113.9070870  49.4004940  43.5971120 114.1352200
  45.7436770  44.2918600 119.7265220  44.9296610  44.7215760 119.9891010
  46.1510970  44.9037010 119.1134270  47.8062210  42.3466290 106.6265490
  48.0811050  43.2545170 106.4984710  47.6172950  42.2828820 107.5627480
  47.7027550  40.2835280 111.6194920  47.3271150  39.5163210 111.1876210
  46.9730670  40.6657980 112.1069850  32.2923310  40.9622420 118.2403970
  32.6596350  40.8749820 119.1199990  31.7234130  40.1988970 118.1410830
  47.0927170  39.4306800 121.2534440  46.8613260  39.2019550 120.3532390
  47.3531720  40.3506350 121.2079330  31.8439310  37.8731510 122.1462390
  30.9495360  37.8398270 122.4856100  32.3836860  38.0718300 122.9113640
  45.5315240  34.6563230 124.0314140  46.4085420  34.6646630 124.4148140
  45.5436080  33.9194070 123.4206490  30.4685460  37.7868780 109.6425960
  29.5649540  38.0498980 109.4677620  30.9526080  38.0579950 108.8625920
  46.9778510  38.5092770 114.9202160  47.5015990  38.0155420 114.2892330
  47.5637930  38.6443130 115.6649730  47.1568230  38.5932640 118.4421710
  46.2070940  38.5596180 118.5566700  47.3381240  39.5032750 118.2071480
  33.0112670  36.8434320 107.5520340  33.7204370  36.4217540 107.0667620
  32.2952610  36.9109550 106.9203690  32.6586830  32.8973650 106.5922990
  33.3814960  33.4382590 106.9104210  32.9311350  32.6237070 105.7164530
  32.3479020  32.1479840 116.4945610  32.9955210  31.5977220 116.0540770
  32.7680860  32.4022990 117.3161420  46.2431360  32.3421200 119.8515250
  46.8803580  32.9555340 120.2174440  46.3906250  32.3781860 118.9064480
  45.8012820  49.0437200 113.2533490  46.3971890  48.7221770 112.5767910
  46.0590970  48.5709020 114.0446760  32.1011020  32.3035510 119.2370930
  31.7525840  32.7599330 120.0029110  31.7698720  31.4092640 119.3193360
  33.7075390  45.4755110 123.4024120  33.6645020  45.1048020 124.2838580
  33.8386400  46.4132680 123.5425940  39.6135840  33.4947390 122.7590350
  39.5524730  34.0869220 123.5085760  40.5536220  33.3873350 122.6140610
  42.2510400  33.1517450 122.3982640  42.8650810  33.4696740 121.7363720
  42.7959960  32.6666040 123.0178500  32.7731660  31.8311710 122.5121700
  33.3214650  31.6499760 121.7487810  32.8386970  31.0405820 123.0478010
  33.5463420  48.4217360 120.5221900  32.9523740  48.2902060 121.2611940
  33.5387260  47.5855500 120.0564000  42.9918440  31.7149590 118.7251930
  42.1178280  32.0484700 118.5224860  42.8829190  31.2422770 119.5503800
  43.8990420  33.9220460 120.1093650  43.5703780  33.1072220 119.7295380
  44.8472720  33.8790270 119.9859340  33.1775650  45.7875740 119.4729940
  32.4509710  45.1681030 119.4055890  33.2384800  46.1816350 118.6028020
  40.7393260  32.6319430 117.6644840  39.9565050  33.1064930 117.9441600
  40.4456190  31.7274260 117.5558020  45.2914330  33.3342530 115.7093930
  45.7322420  33.2787630 114.8615530  45.0221920  34.2500540 115.7804110
  32.0833670  32.9366910 110.1858560  32.8413030  33.0495790 109.6122590
  31.6210840  33.7736110 110.1401990  38.6247480  35.0506180 113.1760870
  37.8121990  34.6763070 112.8356750  39.1289120  34.2951260 113.4782060
  43.1272460  31.7148630 114.4143940  43.7301830  32.2868840 114.8892460
  42.3865450  32.2788070 114.1917840  34.4558820  33.4630960 108.7260530
  34.9851580  32.6760760 108.5968480  35.0887140  34.1422150 108.9596060
  36.6496660  33.2006100 111.7805920  36.0199400  32.4993410 111.9476050
  36.1101800  33.9610230 111.5639080  39.5888610  49.8145330 124.4516530
  40.5155920  49.5789600 124.4952490  39.5739040  50.6417330 123.9702560
  47.8233670  49.3570900 111.4490780  47.9985860  48.6708640 110.8051700
  47.1255240  49.8817950 111.0567450  36.7752220  32.4790080 124.2158410
  36.4936490  32.9823680 123.4519230  37.1571920  31.6811830 123.8500540
  43.3767680  31.8943660 124.7938880  43.2633130  32.2138270 125.6890400
  44.1937420  32.2956170 124.4976160  46.1566170  49.0415190 124.2757570
  46.9491490  48.5464420 124.0683530  46.4499320  49.7205330 124.8833180
  42.2825830  39.9136130  95.1573620  42.2019880  38.9990740  94.8865330
  41.8690250  40.4103200  94.4513330  40.4143870  41.6915150  97.0382890
  39.6385970  41.2115590  97.3281460  41.0656800  41.0120800  96.8639050
  32.8401650  36.9636850  91.7001040  31.9518350  37.3052820  91.5980920
  33.1242840  36.7637170  90.8081870  32.0459530  34.9726860  99.3709670
  31.8662370  34.0752610  99.6512430  31.6439610  35.5198730 100.0456620
  44.6682150  34.6693160  94.2050320  45.4891770  34.1789730  94.2475800
  44.7016230  35.2590820  94.9582160  35.1406870  33.1553280 101.3328020
  35.1425310  33.6725670 100.5273920  34.3111180  32.6783460 101.3097950
  36.9669190  44.6326640  97.3462120  36.6697480  44.0272110  96.6669900
  37.9169010  44.6703950  97.2351480  41.2088220  46.1597520  93.8792420
  41.6484130  46.9021850  93.4647810  41.1475110  46.4024090  94.8031380
  48.6354010  47.9670450 106.0776610  49.1113730  48.4453340 106.7565690
  49.2561170  47.8987940 105.3522110  32.0825120  44.7119390  94.9004380
  31.6753200  44.8533980  94.0457980  32.9738130  44.4279550  94.6975590
  48.0387260  45.1583300 103.2376620  48.1650320  44.9195180 102.3193800
  48.0808640  44.3267840 103.7098700  36.3546780  48.9265170  93.0127050
  36.1789260  48.0100710  92.7994850  35.5002520  49.2852460  93.2524850
  47.8911270  37.2115760 104.2026360  47.2755540  37.7195430 103.6741820
  47.5707690  36.3114090 104.1452300  39.9525590  36.0507650 101.6688550
  39.4904960  36.2590670 102.4808490  39.5503700  35.2367000 101.3659220
  44.9530100  37.2716600 102.7985210  44.1023690  36.9722350 103.1194280
  44.7931890  37.5158610 101.8869030  39.6024800  35.7006920 105.6825270
  38.9123120  35.5079120 106.3171360  40.3457100  35.9841560 106.2149570
  30.3296800  33.5400410  96.6458610  30.0409850  34.1103270  97.3583590
  31.0742560  33.0604860  97.0089840  30.5167030  37.4820530  87.8561330
  30.4341700  38.4251290  87.9976320  30.1650090  37.3395440  86.9773680
  41.8787770  39.5405360  98.5179190  41.1468890  40.0492170  98.8669290
  41.4812110  38.7235340  98.2167970  37.3906810  39.5272780  89.3121740
  36.8223710  39.0791030  88.6857650  38.0995810  39.8865560  88.7786890
  42.7488600  43.7793470  95.8599770  43.1012420  43.1821600  95.2001140
  41.8650930  43.4537700  96.0308020  38.8351880  44.5391160  93.2670180
  39.5223010  45.0860370  93.6477770  38.0484300  45.0831890  93.3019790
  30.9744280  40.1563980  88.7587260  31.8439130  40.4388780  89.0423180
  30.4834600  40.9699850  88.6436070  38.1379090  41.5437190  92.8795540
  38.5941870  42.3542440  93.1055730  37.7867300  41.2260330  93.7114030
  34.0390870  31.8874840  93.3518060  33.9105500  31.8792740  94.3002980
  33.2152890  32.2257930  93.0009070  31.0384800  33.6465960 102.8124760
  30.3243320  33.8462880 103.4177370  31.4579840  32.8705530 103.1839560
  38.9861860  49.3337120  93.4995420  39.2403360  49.2958510  92.5774790
  38.0374340  49.2070450  93.4923670  34.9696080  41.9348600  88.6357890
  35.7359350  41.8229960  89.1983320  35.0470770  41.2386570  87.9834660
  33.6642840  39.3673670  89.3190780  33.7446430  38.4201180  89.4308180
  34.5562590  39.6980550  89.4251440  34.4657550  49.5169060  96.4225320
  35.2020030  48.9684520  96.6933890  34.8498470  50.3825070  96.2831310
  43.7380830  48.5375290 104.1695720  44.6902580  48.4533310 104.1195960
  43.5909050  49.2017000 104.8429510  37.0015110  41.9313730  90.6100530
  37.4231530  41.7653600  91.4531920  37.1265950  41.1213960  90.1155670
  39.5142750  40.9551340  87.8577630  40.0348410  40.2400360  87.4918780
  40.1611150  41.5937210  88.1578140  41.1599720  40.0616400 102.5346470
  41.2795930  39.4657540 103.2741310  42.0193720  40.0986090 102.1147770
  35.8974010  38.0046960  87.5558690  35.6963070  37.1414320  87.9172030
  35.7266060  37.9180320  86.6180290  42.7461920  36.2203560 104.0255310
  42.0577440  35.5585100 103.9605300  43.4667940  35.7741830 104.4703770
  34.6956810  35.1047580  87.5436570  34.9982710  35.1115010  86.6355720
  35.4351400  34.7545440  88.0404230  30.9332740  47.1979030  95.8286630
  31.2635750  46.3300090  95.5965270  31.3623740  47.4037550  96.6591590
  31.4222950  48.0649620  98.5668260  30.9853940  48.2450420  99.3992410
  31.9900630  48.8224240  98.4249980  47.0585130  47.5666620 102.8545570
  46.4587120  47.6259180 102.1109490  47.1879030  46.6271600 102.9842420
  47.7543040  42.0531920  90.6949480  48.5161950  42.6228570  90.8009170
  47.7697410  41.4859120  91.4657790  47.8062210  42.3466290  87.8522000
  48.0811050  43.2545170  87.7241220  47.6172950  42.2828820  88.7883990
  47.7027550  40.2835280  92.8451430  47.3271150  39.5163210  92.4132720
  46.9730670  40.6657980  93.3326360  47.0927170  39.4306800 102.4790950
  46.8613260  39.2019550 101.5788900  47.3531720  40.3506350 102.4335840
  30.4685460  37.7868780  90.8682470  29.5649540  38.0498980  90.6934130
  30.9526080  38.0579950  90.0882430  33.0112670  36.8434320  88.7776850
  33.7204370  36.4217540  88.2924130  32.2952610  36.9109550  88.1460200
  32.6586830  32.8973650  87.8179500  33.3814960  33.4382590  88.1360720
  32.9311350  32.6237070  86.9421040  32.3479020  32.1479840  97.7202120
  32.9955210  31.5977220  97.2797280  32.7680860  32.4022990  98.5417930
  32.1011020  32.3035510 100.4627440  31.7525840  32.7599330 101.2285620
  31.7698720  31.4092640 100.5449870  39.6135840  33.4947390 103.9846860
  39.5524730  34.0869220 104.7342270  40.5536220  33.3873350 103.8397120
  42.2510400  33.1517450 103.6239150  42.8650810  33.4696740 102.9620230
  42.7959960  32.6666040 104.2435010  48.6685580  49.0509080 101.0300990
  48.1743860  49.4477950 100.3128120  48.0598870  48.4258290 101.4238270
  32.7731660  31.8311710 103.7378210  33.3214650  31.6499760 102.9744320
  32.8386970  31.0405820 104.2734520  36.7820750  48.0020740  97.4835860
  37.2985770  47.3908100  96.9584120  37.4318130  48.5049520  97.9746870
  31.4605650  49.1050130  93.9083210  31.2927690  48.4720810  94.6065100
  30.5940160  49.3109530  93.5577400  32.0833670  32.9366910  91.4115070
  32.8413030  33.0495790  90.8379100  31.6210840  33.7736110  91.3658500
  34.4558820  33.4630960  89.9517040  34.9851580  32.6760760  89.8224990
  35.0887140  34.1422150  90.1852570  36.7752220  32.4790080 105.4414920
  36.4936490  32.9823680 104.6775740  37.1571920  31.6811830 105.0757050
  46.1566170  49.0415190 105.5014080  46.9491490  48.5464420 105.2940040
  46.4499320  49.7205330 106.1089690  34.4110960  46.0375050  79.3373180
  34.7139000  45.1472790  79.1583400  35.1554550  46.5945270  79.1095430
  39.8552860  44.3672340  78.2709560  39.7861140  43.4262280  78.1098690
  40.6172720  44.4573750  78.8432130  46.5206410  46.2268670  80.4661850
  45.8369930  46.8967780  80.4578520  47.0600700  46.4249320  79.7006710
  38.5050090  32.3545510  76.8899570  38.8125070  31.7992400  76.1735070
  37.5750790  32.4889970  76.7072560  44.0565150  48.0712800  79.1807030
  44.0692310  47.6675090  78.3129290  43.5040370  48.8460090  79.0768460
  40.8930850  40.4194340  73.6259690  39.9660130  40.3531720  73.8548160
  41.0455670  41.3574470  73.5114930  40.8799930  36.6911340  70.6226850
  39.9403600  36.8525300  70.7079310  41.1983190  37.4097020  70.0762840
  36.9669190  44.6326640  78.5718630  36.6697480  44.0272110  77.8926410
  37.9169010  44.6703950  78.4607990  45.0554800  48.2058510  82.2341730
  44.5785360  49.0130700  82.0414340  44.3716590  47.5536840  82.3867940
  43.0992840  41.2201450  71.1367690  43.5386120  40.3823880  70.9905510
  43.8121260  41.8530850  71.2231830  30.8377490  43.0119200  79.7154710
  30.9157910  43.1467970  78.7710430  31.4519170  42.3035090  79.9082830
  32.0825120  44.7119390  76.1260890  31.6753200  44.8533980  75.2714490
  32.9738130  44.4279550  75.9232100  48.0387260  45.1583300  84.4633130
  48.1650320  44.9195180  83.5450310  48.0808640  44.3267840  84.9355210
  41.9004000  48.8611300  83.0327940  42.4148670  48.7719310  83.8350370
  41.0573080  49.2071000  83.3255850  36.3546780  48.9265170  74.2383560
  36.1789260  48.0100710  74.0251360  35.5002520  49.2852460  74.4781360
  47.8911270  37.2115760  85.4282870  47.2755540  37.7195430  84.8998330
  47.5707690  36.3114090  85.3708810  35.6655780  33.1839130  77.2909740
  35.2223930  33.9648670  76.9594260  36.2240770  33.5069020  77.9980680
  42.0479810  38.7718350  86.1240510  42.3733220  37.9382100  85.7842740
  42.8360140  39.2946870  86.2718840  38.7814600  32.8049830  72.1715570
  38.1568780  32.8009700  72.8968880  38.6944720  31.9380790  71.7751540
  42.6867760  38.3136070  73.6181640  42.0876650  39.0371870  73.4345260
  43.2347370  38.2512850  72.8358090  30.3296800  33.5400410  77.8715120
  30.0409850  34.1103270  78.5840100  31.0742560  33.0604860  78.2346350
  30.5167030  37.4820530  69.0817840  30.4341700  38.4251290  69.2232830
  30.1650090  37.3395440  68.2030190  38.3785310  37.2171640  71.1394950
  38.4998130  37.1758120  72.0880770  37.9933820  38.0795790  70.9841680
  45.7684430  32.4071220  84.9945020  46.0930200  31.6760880  85.5203000
  45.8040940  32.0884860  84.0926010  32.4675990  43.4284800  84.4144980
  32.0830780  42.7878470  85.0127940  32.7788180  44.1320920  84.9839710
  45.6942270  42.5196330  78.6031050  46.4141390  43.0151620  78.2127160
  45.4924090  41.8414220  77.9584920  43.8700600  38.2853940  71.0422600
  44.7580220  38.5971170  70.8673940  43.8405690  37.4126190  70.6503180
  34.9791690  43.1911350  76.4483470  35.4970360  42.3879610  76.3940360
  34.5275710  43.1290490  77.2900300  46.1414870  39.5965780  70.5102460
  46.0578590  40.0280000  69.6598900  46.8609060  40.0564130  70.9429280
  47.2189010  42.0533300  83.5872430  46.4937200  42.6462080  83.3901820
  47.7464470  42.0456840  82.7885800  34.0390870  31.8874840  74.5774570
  33.9105500  31.8792740  75.5259490  33.2152890  32.2257930  74.2265580
  41.7143780  45.0575880  80.0521800  42.3566010  44.3569040  80.1653970
  42.2393130  45.8374320  79.8718690  45.5599500  45.3424500  69.7760940
  45.3337080  44.6254940  70.3685580  45.1695700  45.0936940  68.9382690
  43.4881400  45.8570780  83.2557860  43.8237640  46.4437470  83.9335780
  42.5681740  45.7263490  83.4855650  31.3415530  49.3691360  70.5505400
  31.7013170  49.9680700  69.8962670  31.2007870  49.9151250  71.3240430
  31.0384800  33.6465960  84.0381270  30.3243320  33.8462880  84.6433880
  31.4579840  32.8705530  84.4096070  37.3584150  46.7522560  71.3679070
  37.3494250  47.4852250  70.7523580  36.4382510  46.5054140  71.4606030
  40.3443750  46.8150800  70.0304260  40.4455730  46.6114790  69.1006240
  39.4445490  46.5609080  70.2352040  36.0704660  35.6816240  71.3878870
  36.9195190  36.1186390  71.3219060  35.7035930  35.9936500  72.2150930
  44.9914440  40.2529000  76.3010440  44.0504580  40.2679230  76.4758130
  45.3058510  39.4664960  76.7470740  34.4657550  49.5169060  77.6481830
  35.2020030  48.9684520  77.9190400  34.8498470  50.3825070  77.5087820
  31.3503030  45.5842630  73.5223340  30.4242810  45.8263770  73.5128750
  31.8159460  46.4116890  73.4008090  37.5759860  48.6899370  69.4707400
  38.3688470  48.9788200  69.0189190  37.0564210  48.2591540  68.7919880
  43.7380830  48.5375290  85.3952230  44.6902580  48.4533310  85.3452470
  43.5909050  49.2017000  86.0686020  46.6290030  47.9169500  70.8944140
  46.3431540  47.5034640  70.0798320  46.4309580  48.8457210  70.7744660
  31.1913640  41.1888590  85.7803460  31.6952660  40.6095870  86.3519690
  30.4521060  41.4728820  86.3179830  38.0937260  43.9102780  69.3349750
  37.9887900  43.2955130  70.0611130  37.9261480  43.3868670  68.5512760
  41.3339990  42.9722810  69.9391740  40.7850090  43.4192110  70.5834480
  41.9559250  42.4672060  70.4629410  45.3874930  44.3264910  85.8714000
  46.1284400  44.6640670  85.3681460  44.6247610  44.4956970  85.3183770
  39.5142750  40.9551340  69.0834140  40.0348410  40.2400360  68.7175290
  40.1611150  41.5937210  69.3834650  44.5342760  39.7175900  86.4108360
  45.1163530  38.9628220  86.3228840  44.7104530  40.2483340  85.6339840
  38.4176270  33.4345890  81.7552700  37.9693570  33.4570150  80.9098250
  37.7841470  33.0364910  82.3523000  35.8974010  38.0046960  68.7815200
  35.6963070  37.1414320  69.1428540  35.7266060  37.9180320  67.8436800
  42.7461920  36.2203560  85.2511820  42.0577440  35.5585100  85.1861810
  43.4667940  35.7741830  85.6960280  34.6956810  35.1047580  68.7693080
  34.9982710  35.1115010  67.8612230  35.4351400  34.7545440  69.2660740
  37.9141740  34.0482200  69.7549280  37.5663740  33.3706190  69.1751730
  38.1154510  33.5871710  70.5692670  30.9332740  47.1979030  77.0543140
  31.2635750  46.3300090  76.8221780  31.3623740  47.4037550  77.8848100
  35.5294660  45.5288040  74.7145110  35.2290200  45.4053010  75.6149020
  35.4232150  44.6696630  74.3060840  31.4222950  48.0649620  79.7924770
  30.9853940  48.2450420  80.6248920  31.9900630  48.8224240  79.6506490
  47.0585130  47.5666620  84.0802080  46.4587120  47.6259180  83.3366000
  47.1879030  46.6271600  84.2098930  48.2986580  45.3084440  69.4171790
  47.4679540  45.3761090  69.8879020  48.4758410  46.1988560  69.1138650
  47.7543040  42.0531920  71.9205990  48.5161950  42.6228570  72.0265680
  47.7697410  41.4859120  72.6914300  45.7436770  44.2918600  82.1778240
  44.9296610  44.7215760  82.4404030  46.1510970  44.9037010  81.5647290
  47.8062210  42.3466290  69.0778510  48.0811050  43.2545170  68.9497730
  47.6172950  42.2828820  70.0140500  47.7027550  40.2835280  74.0707940
  47.3271150  39.5163210  73.6389230  46.9730670  40.6657980  74.5582870
  33.0112670  36.8434320  70.0033360  33.7204370  36.4217540  69.5180640
  32.2952610  36.9109550  69.3716710  32.6586830  32.8973650  69.0436010
  33.3814960  33.4382590  69.3617230  32.9311350  32.6237070  68.1677550
  32.3479020  32.1479840  78.9458630  32.9955210  31.5977220  78.5053790
  32.7680860  32.4022990  79.7674440  32.1011020  32.3035510  81.6883950
  31.7525840  32.7599330  82.4542130  31.7698720  31.4092640  81.7706380
  39.6135840  33.4947390  85.2103370  39.5524730  34.0869220  85.9598780
  40.5536220  33.3873350  85.0653630  42.2510400  33.1517450  84.8495660
  42.8650810  33.4696740  84.1876740  42.7959960  32.6666040  85.4691520
  48.6685580  49.0509080  82.2557500  48.1743860  49.4477950  81.5384630
  48.0598870  48.4258290  82.6494780  32.7731660  31.8311710  84.9634720
  33.3214650  31.6499760  84.2000830  32.8386970  31.0405820  85.4991030
  46.3525030  49.6932500  79.5344240  45.8928000  50.4448310  79.1602260
  45.7237490  48.9738970  79.4759040  33.1775650  45.7875740  81.9242960
  32.4509710  45.1681030  81.8568910  33.2384800  46.1816350  81.0541040
  36.7820750  48.0020740  78.7092370  37.2985770  47.3908100  78.1840630
  37.4318130  48.5049520  79.2003380  39.5216250  48.8929230  79.5361350
  39.8094060  48.6383530  78.6594360  40.0339470  48.3406590  80.1266920
  40.7393260  32.6319430  80.1157860  39.9565050  33.1064930  80.3954620
  40.4456190  31.7274260  80.0071040  31.4605650  49.1050130  75.1339720
  31.2927690  48.4720810  75.8321610  30.5940160  49.3109530  74.7833910
  32.0833670  32.9366910  72.6371580  32.8413030  33.0495790  72.0635610
  31.6210840  33.7736110  72.5915010  33.0668350  47.7983360  72.5789860
  32.5415970  48.1791390  71.8751820  32.9912930  48.4234130  73.2999570
  34.4558820  33.4630960  71.1773550  34.9851580  32.6760760  71.0481500
  35.0887140  34.1422150  71.4109080  36.6496660  33.2006100  74.2318940
  36.0199400  32.4993410  74.3989070  36.1101800  33.9610230  74.0152100
  36.7752220  32.4790080  86.6671430  36.4936490  32.9823680  85.9032250
  37.1571920  31.6811830  86.3013560  35.6661320  49.7465740  71.4539110
  36.3980140  49.4625020  70.9063000  35.9254990  49.5079020  72.3438490
  42.2825830  39.9136130  57.6086640  42.2019880  38.9990740  57.3378350
  41.8690250  40.4103200  56.9026350  40.4143870  41.6915150  59.4895910
  39.6385970  41.2115590  59.7794480  41.0656800  41.0120800  59.3152070
  40.6614610  48.3833350  57.8899030  40.0426050  48.8390850  57.3193470
  41.5166390  48.5384810  57.4888730  39.8552860  44.3672340  59.4966070
  39.7861140  43.4262280  59.3355200  40.6172720  44.4573750  60.0688640
  32.0459530  34.9726860  61.8222690  31.8662370  34.0752610  62.1025450
  31.6439610  35.5198730  62.4969640  40.8858030  37.1742720  59.7235000
  41.2622850  36.3014600  59.6108670  40.7877540  37.5101420  58.8325440
  35.0163040  35.5468350  55.1852440  35.1229790  36.4472080  55.4921200
  34.1055400  35.4986320  54.8947090  44.6682150  34.6693160  56.6563340
  45.4891770  34.1789730  56.6988820  44.7016230  35.2590820  57.4095180
  36.8570770  38.5154720  59.5177620  37.3648990  39.0135690  60.1582640
  37.3884010  37.7389920  59.3416980  35.1406870  33.1553280  63.7841040
  35.1425310  33.6725670  62.9786940  34.3111180  32.6783460  63.7610970
  44.9043630  36.6093540  59.4290880  44.1999200  36.8978430  60.0093990
  45.2655790  37.4193650  59.0690440  34.8222200  34.8663240  61.7911490
  35.1639010  35.7105290  61.4965360  33.8838010  35.0146980  61.9076830
  47.9730550  36.0548330  59.8200090  47.0255460  36.0887310  59.9515520
  48.2980540  36.8687280  60.2049450  38.5050090  32.3545510  58.1156080
  38.8125070  31.7992400  57.3991580  37.5750790  32.4889970  57.9329070
  45.3510570  44.7929020  55.4953710  45.2406900  43.8503350  55.6203130
  45.3478820  45.1544660  56.3816470  40.8799930  36.6911340  51.8483360
  39.9403600  36.8525300  51.9335820  41.1983190  37.4097020  51.3019350
  44.9228140  41.9814640  55.3551450  44.3040560  41.6434190  54.7077750
  44.9052590  41.3374400  56.0630640  36.9669190  44.6326640  59.7975140
  36.6697480  44.0272110  59.1182920  37.9169010  44.6703950  59.6864500
  35.2116110  37.7202290  61.4134970  35.7630700  37.8297630  60.6388220
  35.7259620  38.0939890  62.1290200  43.0992840  41.2201450  52.3624200
  43.5386120  40.3823880  52.2162020  43.8121260  41.8530850  52.4488340
  48.6354010  47.9670450  68.5289630  49.1113730  48.4453340  69.2078710
  49.2561170  47.8987940  67.8035130  48.0387260  45.1583300  65.6889640
  48.1650320  44.9195180  64.7706820  48.0808640  44.3267840  66.1611720
  43.1434460  48.2816910  56.3214940  43.5991410  47.5006290  56.6353560
  43.4826980  48.9923730  56.8656120  35.6655780  33.1839130  58.5166250
  35.2223930  33.9648670  58.1850770  36.2240770  33.5069020  59.2237190
  42.0479810  38.7718350  67.3497020  42.3733220  37.9382100  67.0099250
  42.8360140  39.2946870  67.4975350  38.7814600  32.8049830  53.3972080
  38.1568780  32.8009700  54.1225390  38.6944720  31.9380790  53.0008050
  37.7031680  33.7286460  60.3755850  38.0004010  34.6349290  60.2947870
  38.2517240  33.2405240  59.7615420  42.6867760  38.3136070  54.8438150
  42.0876650  39.0371870  54.6601770  43.2347370  38.2512850  54.0614600
  37.8969210  39.2058280  66.9107770  37.8012810  38.2653010  66.7608170
  38.7401190  39.4273350  66.5155840  41.2932630  36.9499610  56.8741430
  41.6862200  37.2671810  56.0610120  41.6549480  36.0711490  56.9885950
  33.0279750  35.6171950  65.0641550  32.6343140  36.4647160  65.2714330
  32.3398150  34.9798320  65.2550190  39.6024800  35.7006920  68.1338290
  38.9123120  35.5079120  68.7684380  40.3457100  35.9841560  68.6662590
  30.3296800  33.5400410  59.0971630  30.0409850  34.1103270  59.8096610
  31.0742560  33.0604860  59.4602860  30.5167030  37.4820530  50.3074350
  30.4341700  38.4251290  50.4489340  30.1650090  37.3395440  49.4286700
  41.8787770  39.5405360  60.9692210  41.1468890  40.0492170  61.3182310
  41.4812110  38.7235340  60.6680990  38.3165160  36.2159560  59.3744700
  38.3201220  35.7749510  58.5249240  39.2116280  36.5376890  59.4816520
  34.1667540  36.0986050  58.3338910  33.8267590  36.5761280  59.0905960
  33.4044860  35.6451170  57.9740010  38.3785310  37.2171640  52.3651460
  38.4998130  37.1758120  53.3137280  37.9933820  38.0795790  52.2098190
  38.6173130  40.2761340  61.1210110  38.9843260  39.8019910  61.8671450
  38.4278190  41.1502910  61.4618450  31.4813620  35.0205030  57.2503580
  31.1960540  34.6560700  58.0882200  31.4192480  34.2885490  56.6366720
  36.4072500  39.3169980  63.4394320  36.1029570  40.1961960  63.6644680
  37.3618960  39.3769770  63.4751760  41.1552210  33.9134290  53.9716950
  40.3416820  33.4147460  53.8962260  40.9614160  34.7532540  53.5553300
  41.0761070  42.5905390  65.7156560  41.0098380  41.6701060  65.4614150
  40.4466210  42.6880830  66.4301200  43.8700600  38.2853940  52.2679110
  44.7580220  38.5971170  52.0930450  43.8405690  37.4126190  51.8759690
  41.0077800  45.4125960  65.4660360  41.0222340  44.4806920  65.2479270
  40.3002900  45.4985720  66.1050130  46.1414870  39.5965780  51.7358970
  46.0578590  40.0280000  50.8855410  46.8609060  40.0564130  52.1685790
  47.1702120  46.4508040  54.4641100  46.5278280  45.7963660  54.7384820
  46.7832780  46.8563130  53.6881770  42.7488600  43.7793470  58.3112790
  43.1012420  43.1821600  57.6514160  41.8650930  43.4537700  58.4821040
  34.0390870  31.8874840  55.8031080  33.9105500  31.8792740  56.7516000
  33.2152890  32.2257930  55.4522090  31.0384800  33.6465960  65.2637780
  30.3243320  33.8462880  65.8690390  31.4579840  32.8705530  65.6352580
  45.1415750  43.2596440  52.6631610  44.8537450  43.7209130  53.4509490
  45.9367920  42.7994210  52.9315830  45.8985610  35.0945210  53.8226790
  45.2698770  35.1990880  53.1085020  45.4037530  35.3141990  54.6120670
  37.8669640  37.3731160  55.2384670  37.1585790  37.8417500  55.6798280
  38.1514120  36.7153170  55.8729860  39.4925570  38.7927860  63.2377200
  39.9910820  39.2673680  63.9029050  39.6348520  37.8691380  63.4447230
  41.8985070  34.0981820  56.6780460  41.7752850  34.1167950  55.7289970
  42.8469630  34.1460760  56.7978860  36.0704660  35.6816240  52.6135380
  36.9195190  36.1186390  52.5475570  35.7035930  35.9936500  53.4407440
  44.9914440  40.2529000  57.5266950  44.0504580  40.2679230  57.7014640
  45.3058510  39.4664960  57.9727250  34.4657550  49.5169060  58.8738340
  35.2020030  48.9684520  59.1446910  34.8498470  50.3825070  58.7344330
  42.3080460  44.8095000  68.0099330  41.7018620  44.8326600  67.2695080
  42.0034570  44.0778040  68.5466580  43.7380830  48.5375290  66.6208740
  44.6902580  48.4533310  66.5708980  43.5909050  49.2017000  67.2942530
  46.6290030  47.9169500  52.1200650  46.3431540  47.5034640  51.3054830
  46.4309580  48.8457210  52.0001170  45.3874930  44.3264910  67.0970510
  46.1284400  44.6640670  66.5937970  44.6247610  44.4956970  66.5440280
  35.1642530  37.9110280  65.8684530  34.6338990  37.4201230  65.2407870
  35.8330600  38.3394480  65.3342460  44.0620590  42.3779740  65.6325720
  44.4761610  42.5324820  66.4816140  43.1271590  42.5034960  65.7951500
  44.5342760  39.7175900  67.6364870  45.1163530  38.9628220  67.5485350
  44.7104530  40.2483340  66.8596350  35.6514830  34.8772650  65.9481820
  35.5571700  34.2593400  65.2232690  35.0712220  35.6038940  65.7211730
  41.1599720  40.0616400  64.9859490  41.2795930  39.4657540  65.7254330
  42.0193720  40.0986090  64.5660790  43.4987620  40.6153590  63.5622000
  42.9722840  41.1396210  62.9587140  43.8418960  41.2480980  64.1931730
  37.9268490  36.6037750  66.2435310  38.5168180  36.2953600  66.9313130
  37.1088730  36.1317500  66.3995210  42.7461920  36.2203560  66.4768330
  42.0577440  35.5585100  66.4118320  43.4667940  35.7741830  66.9216790
  43.3762320  32.8155190  52.5358590  43.6564610  31.9723090  52.8918010
  42.6028050  33.0478300  53.0497340  34.6956810  35.1047580  49.9949590
  34.9982710  35.1115010  49.0868740  35.4351400  34.7545440  50.4917250
  37.9141740  34.0482200  50.9805790  37.5663740  33.3706190  50.4008240
  38.1154510  33.5871710  51.7949180  31.4222950  48.0649620  61.0181280
  30.9853940  48.2450420  61.8505430  31.9900630  48.8224240  60.8763000
  47.0585130  47.5666620  65.3058590  46.4587120  47.6259180  64.5622510
  47.1879030  46.6271600  65.4355440  48.2986580  45.3084440  50.6428300
  47.4679540  45.3761090  51.1135530  48.4758410  46.1988560  50.3395160
  47.7543040  42.0531920  53.1462500  48.5161950  42.6228570  53.2522190
  47.7697410  41.4859120  53.9170810  47.8062210  42.3466290  50.3035020
  48.0811050  43.2545170  50.1754240  47.6172950  42.2828820  51.2397010
  44.2037820  35.3711140  51.5988650  44.6222700  35.1842120  50.7585310
  43.8973880  34.5190190  51.9091580  30.4685460  37.7868780  53.3195490
  29.5649540  38.0498980  53.1447150  30.9526080  38.0579950  52.5395450
  46.9778510  38.5092770  58.5971690  47.5015990  38.0155420  57.9661860
  47.5637930  38.6443130  59.3419260  32.6586830  32.8973650  50.2692520
  33.3814960  33.4382590  50.5873740  32.9311350  32.6237070  49.3934060
  46.4678480  37.7666120  54.5364100  46.9637600  37.5336990  55.3212980
  46.2694550  36.9277960  54.1201740  32.3479020  32.1479840  60.1715140
  32.9955210  31.5977220  59.7310300  32.7680860  32.4022990  60.9930950
  47.8965640  36.4027070  57.0701780  47.7864920  36.2483110  58.0084050
  48.6573230  35.8748010  56.8277190  45.8012820  49.0437200  56.9303020
  46.3971890  48.7221770  56.2537440  46.0590970  48.5709020  57.7216290
  32.1011020  32.3035510  62.9140460  31.7525840  32.7599330  63.6798640
  31.7698720  31.4092640  62.9962890  39.6135840  33.4947390  66.4359880
  39.5524730  34.0869220  67.1855290  40.5536220  33.3873350  66.2910140
  48.6685580  49.0509080  63.4814010  48.1743860  49.4477950  62.7641140
  48.0598870  48.4258290  63.8751290  32.7731660  31.8311710  66.1891230
  33.3214650  31.6499760  65.4257340  32.8386970  31.0405820  66.7247540
  36.7820750  48.0020740  59.9348880  37.2985770  47.3908100  59.4097140
  37.4318130  48.5049520  60.4259890  39.5216250  48.8929230  60.7617860
  39.8094060  48.6383530  59.8850870  40.0339470  48.3406590  61.3523430
  45.2914330  33.3342530  59.3863460  45.7322420  33.2787630  58.5385060
  45.0221920  34.2500540  59.4573640  47.1552900  32.9657770  57.3972280
  47.0941300  32.0218990  57.2503300  47.9344930  33.0737860  57.9425740
  32.0833670  32.9366910  53.8628090  32.8413030  33.0495790  53.2892120
  31.6210840  33.7736110  53.8171520  38.6247480  35.0506180  56.8530400
  37.8121990  34.6763070  56.5126280  39.1289120  34.2951260  57.1551590
  46.2707060  32.1170190  53.3653750  46.4657690  33.0153640  53.6321180
  45.4836930  31.8857270  53.8586700  34.4558820  33.4630960  52.4030060
  34.9851580  32.6760760  52.2738010  35.0887140  34.1422150  52.6365590
  36.6496660  33.2006100  55.4575450  36.0199400  32.4993410  55.6245580
  36.1101800  33.9610230  55.2408610  47.8233670  49.3570900  55.1260310
  47.9985860  48.6708640  54.4821230  47.1255240  49.8817950  54.7336980
  36.7752220  32.4790080  67.8927940  36.4936490  32.9823680  67.1288760
  37.1571920  31.6811830  67.5270070  43.3767680  31.8943660  68.4708410
  43.2633130  32.2138270  69.3659930  44.1937420  32.2956170  68.1745690
  46.1566170  49.0415190  67.9527100  46.9491490  48.5464420  67.7453060
  46.4499320  49.7205330  68.5602710  42.2825830  39.9136130  38.8343150
  42.2019880  38.9990740  38.5634860  41.8690250  40.4103200  38.1282860
  40.4143870  41.6915150  40.7152420  39.6385970  41.2115590  41.0050990
  41.0656800  41.0120800  40.5408580  34.4309700  42.0034960  41.5928180
  33.5994580  41.7483670  41.9924690  35.0390680  42.0745730  42.3286100
  34.4110960  46.0375050  41.7886200  34.7139000  45.1472790  41.6096420
  35.1554550  46.5945270  41.5608450  32.8401650  36.9636850  35.3770570
  31.9518350  37.3052820  35.2750450  33.1242840  36.7637170  34.4851400
  30.8034660  39.5642500  41.2610270  31.3750770  38.7964700  41.2613910
  30.8036200  39.8631260  40.3516880  40.6614610  48.3833350  39.1155540
  40.0426050  48.8390850  38.5449980  41.5166390  48.5384810  38.7145240
  32.0459530  34.9726860  43.0479200  31.8662370  34.0752610  43.3281960
  31.6439610  35.5198730  43.7226150  40.8858030  37.1742720  40.9491510
  41.2622850  36.3014600  40.8365180  40.7877540  37.5101420  40.0581950
  35.0163040  35.5468350  36.4108950  35.1229790  36.4472080  36.7177710
  34.1055400  35.4986320  36.1203600  44.6682150  34.6693160  37.8819850
  45.4891770  34.1789730  37.9245330  44.7016230  35.2590820  38.6351690
  32.6646200  37.4687360  41.6561540  33.3456310  37.7325730  42.2748940
  32.3494250  36.6288230  41.9899550  36.8570770  38.5154720  40.7434130
  37.3648990  39.0135690  41.3839150  37.3884010  37.7389920  40.5673490
  35.1406870  33.1553280  45.0097550  35.1425310  33.6725670  44.2043450
  34.3111180  32.6783460  44.9867480  41.5277960  43.2672590  36.5087450
  40.9095230  43.7322040  35.9450170  42.0401210  43.9600070  36.9256960
  36.3909720  42.7948460  43.1871050  36.0579100  43.4217380  43.8292120
  36.5676400  43.3210340  42.4072720  44.9043630  36.6093540  40.6547390
  44.1999200  36.8978430  41.2350500  45.2655790  37.4193650  40.2946950
  34.8222200  34.8663240  43.0168000  35.1639010  35.7105290  42.7221870
  33.8838010  35.0146980  43.1333340  35.6028820  44.7629260  45.0020230
  36.2202820  45.4380340  44.7204680  34.7421940  45.1717240  44.9107730
  30.8961160  43.9529120  33.8827080  30.5189140  44.4416220  33.1511980
  31.1534230  44.6254400  34.5133610  38.5050090  32.3545510  39.3412590
  38.8125070  31.7992400  38.6248090  37.5750790  32.4889970  39.1585580
  45.3510570  44.7929020  36.7210220  45.2406900  43.8503350  36.8459640
  45.3478820  45.1544660  37.6072980  43.4550590  42.9742640  42.9602660
  43.8719380  42.7602750  42.1256120  44.1790410  43.2315430  43.5311280
  40.8930850  40.4194340  36.0772710  39.9660130  40.3531720  36.3061180
  41.0455670  41.3574470  35.9627950  40.8799930  36.6911340  33.0739870
  39.9403600  36.8525300  33.1592330  41.1983190  37.4097020  32.5275860
  44.9228140  41.9814640  36.5807960  44.3040560  41.6434190  35.9334260
  44.9052590  41.3374400  37.2887150  44.3654700  38.1599180  43.9973770
  43.9525880  38.9852890  44.2513760  43.6330650  37.5744220  43.8050130
  36.4987490  40.9459080  38.8592440  36.0944490  40.2336330  38.3638340
  36.5850610  40.6012320  39.7480480  36.9669190  44.6326640  41.0231650
  36.6697480  44.0272110  40.3439430  37.9169010  44.6703950  40.9121010
  35.2116110  37.7202290  42.6391480  35.7630700  37.8297630  41.8644730
  35.7259620  38.0939890  43.3546710  43.0992840  41.2201450  33.5880710
  43.5386120  40.3823880  33.4418530  43.8121260  41.8530850  33.6744850
  34.8858840  41.2421650  46.2496820  34.7466610  42.1144450  46.6184220
  34.0040200  40.8994460  46.1044760  41.2088220  46.1597520  37.5561950
  41.6484130  46.9021850  37.1417340  41.1475110  46.4024090  38.4800910
  46.6809980  32.4744260  31.9021750  46.3682640  32.5671090  32.8020820
  47.4422450  33.0525290  31.8519180  33.1992120  39.8404060  36.3599090
  33.0789720  40.5666150  35.7480360  32.8893010  39.0706970  35.8827000
  48.6354010  47.9670450  49.7546140  49.1113730  48.4453340  50.4335220
  49.2561170  47.8987940  49.0291640  30.8377490  43.0119200  42.1667730
  30.9157910  43.1467970  41.2223450  31.4519170  42.3035090  42.3595850
  32.0825120  44.7119390  38.5773910  31.6753200  44.8533980  37.7227510
  32.9738130  44.4279550  38.3745120  48.0387260  45.1583300  46.9146150
  48.1650320  44.9195180  45.9963330  48.0808640  44.3267840  47.3868230
  43.8758400  49.1466640  34.9124960  43.7159540  48.8569580  35.8106790
  43.7105110  48.3706770  34.3770190  36.3546780  48.9265170  36.6896580
  36.1789260  48.0100710  36.4764380  35.5002520  49.2852460  36.9294380
  43.5784530  46.6554200  33.4722960  42.8849690  46.6531490  32.8125240
  44.3207390  46.2313520  33.0417130  30.8937010  44.0533370  44.7062190
  31.0568050  43.5838730  43.8881560  31.3589460  43.5456930  45.3711030
  35.6655780  33.1839130  39.7422760  35.2223930  33.9648670  39.4107280
  36.2240770  33.5069020  40.4493700  39.9525590  36.0507650  45.3458080
  39.4904960  36.2590670  46.1578020  39.5503700  35.2367000  45.0428750
  44.9530100  37.2716600  46.4754740  44.1023690  36.9722350  46.7963810
  44.7931890  37.5158610  45.5638560  42.0479810  38.7718350  48.5753530
  42.3733220  37.9382100  48.2355760  42.8360140  39.2946870  48.7231860
  38.7814600  32.8049830  34.6228590  38.1568780  32.8009700  35.3481900
  38.6944720  31.9380790  34.2264560  37.7031680  33.7286460  41.6012360
  38.0004010  34.6349290  41.5204380  38.2517240  33.2405240  40.9871930
  35.4570000  38.3072700  37.4704010  35.2310920  38.0909870  38.3750630
  34.6762530  38.7401160  37.1249980  42.6867760  38.3136070  36.0694660
  42.0876650  39.0371870  35.8858280  43.2347370  38.2512850  35.2871110
  37.8969210  39.2058280  48.1364280  37.8012810  38.2653010  47.9864680
  38.7401190  39.4273350  47.7412350  41.2932630  36.9499610  38.0997940
  41.6862200  37.2671810  37.2866630  41.6549480  36.0711490  38.2142460
  33.0279750  35.6171950  46.2898060  32.6343140  36.4647160  46.4970840
  32.3398150  34.9798320  46.4806700  39.6024800  35.7006920  49.3594800
  38.9123120  35.5079120  49.9940890  40.3457100  35.9841560  49.8919100
  30.3296800  33.5400410  40.3228140  30.0409850  34.1103270  41.0353120
  31.0742560  33.0604860  40.6859370  30.5167030  37.4820530  31.5330860
  30.4341700  38.4251290  31.6745850  30.1650090  37.3395440  30.6543210
  41.8787770  39.5405360  42.1948720  41.1468890  40.0492170  42.5438820
  41.4812110  38.7235340  41.8937500  38.3165160  36.2159560  40.6001210
  38.3201220  35.7749510  39.7505750  39.2116280  36.5376890  40.7073030
  34.1667540  36.0986050  39.5595420  33.8267590  36.5761280  40.3162470
  33.4044860  35.6451170  39.1996520  38.3785310  37.2171640  33.5907970
  38.4998130  37.1758120  34.5393790  37.9933820  38.0795790  33.4354700
  42.3413680  34.9939040  41.6071660  42.3586420  35.4447690  42.4513510
  42.0929260  34.0944680  41.8205100  37.3906810  39.5272780  32.9891270
  36.8223710  39.0791030  32.3627180  38.0995810  39.8865560  32.4556420
  32.4675990  43.4284800  46.8658000  32.0830780  42.7878470  47.4640960
  32.7788180  44.1320920  47.4352730  38.6173130  40.2761340  42.3466620
  38.9843260  39.8019910  43.0927960  38.4278190  41.1502910  42.6874960
  31.4813620  35.0205030  38.4760090  31.1960540  34.6560700  39.3138710
  31.4192480  34.2885490  37.8623230  36.4072500  39.3169980  44.6650830
  36.1029570  40.1961960  44.8901190  37.3618960  39.3769770  44.7008270
  34.9354290  43.5230970  35.2617680  34.1616550  42.9828590  35.1016400
  35.6648920  43.0037580  34.9235440  45.6942270  42.5196330  41.0544070
  46.4141390  43.0151620  40.6640180  45.4924090  41.8414220  40.4097940
  41.1552210  33.9134290  35.1973460  40.3416820  33.4147460  35.1218770
  40.9614160  34.7532540  34.7809810  43.8700600  38.2853940  33.4935620
  44.7580220  38.5971170  33.3186960  43.8405690  37.4126190  33.1016200
  34.9791690  43.1911350  38.8996490  35.4970360  42.3879610  38.8453380
  34.5275710  43.1290490  39.7413320  39.8661190  44.4577630  34.1723790
  40.2076890  45.2019860  33.6767110  39.0373900  44.7708750  34.5348620
  32.4636230  40.1572720  45.8122190  32.1051170  40.8226570  46.3995530
  32.1690790  39.3256270  46.1834810  46.1414870  39.5965780  32.9615480
  46.0578590  40.0280000  32.1111920  46.8609060  40.0564130  33.3942300
  47.2189010  42.0533300  46.0385450  46.4937200  42.6462080  45.8414840
  47.7464470  42.0456840  45.2398820  47.1702120  46.4508040  35.6897610
  46.5278280  45.7963660  35.9641330  46.7832780  46.8563130  34.9138280
  42.7488600  43.7793470  39.5369300  43.1012420  43.1821600  38.8770670
  41.8650930  43.4537700  39.7077550  38.8351880  44.5391160  36.9439710
  39.5223010  45.0860370  37.3247300  38.0484300  45.0831890  36.9789320
  30.9744280  40.1563980  32.4356790  31.8439130  40.4388780  32.7192710
  30.4834600  40.9699850  32.3205600  38.1379090  41.5437190  36.5565070
  38.5941870  42.3542440  36.7825260  37.7867300  41.2260330  37.3883560
  34.0390870  31.8874840  37.0287590  33.9105500  31.8792740  37.9772510
  33.2152890  32.2257930  36.6778600  45.5599500  45.3424500  32.2273960
  45.3337080  44.6254940  32.8198600  45.1695700  45.0936940  31.3895710
  43.4881400  45.8570780  45.7070880  43.8237640  46.4437470  46.3848800
  42.5681740  45.7263490  45.9368670  31.3415530  49.3691360  33.0018420
  31.7013170  49.9680700  32.3475690  31.2007870  49.9151250  33.7753450
  31.0384800  33.6465960  46.4894290  30.3243320  33.8462880  47.0946900
  31.4579840  32.8705530  46.8609090  45.1415750  43.2596440  33.8888120
  44.8537450  43.7209130  34.6766000  45.9367920  42.7994210  34.1572340
  31.3257390  47.6346220  47.4760820  31.4348510  46.6940960  47.3356210
  30.6737950  47.9000970  46.8274550  37.3584150  46.7522560  33.8192090
  37.3494250  47.4852250  33.2036600  36.4382510  46.5054140  33.9119050
  32.9590790  41.9737450  34.5638850  32.3518740  42.7136350  34.5734150
  33.4340140  42.0636810  33.7377050  42.5323580  36.1388270  44.2395740
  42.9004400  35.3183480  44.5675310  41.6721780  36.1990160  44.6551390
  45.8985610  35.0945210  35.0483300  45.2698770  35.1990880  34.3341530
  45.4037530  35.3141990  35.8377180  40.3443750  46.8150800  32.4817280
  40.4455730  46.6114790  31.5519260  39.4445490  46.5609080  32.6865060
  37.8669640  37.3731160  36.4641180  37.1585790  37.8417500  36.9054790
  38.1514120  36.7153170  37.0986370  39.4925570  38.7927860  44.4633710
  39.9910820  39.2673680  45.1285560  39.6348520  37.8691380  44.6703740
  41.8985070  34.0981820  37.9036970  41.7752850  34.1167950  36.9546480
  42.8469630  34.1460760  38.0235370  38.9861860  49.3337120  37.1764950
  39.2403360  49.2958510  36.2544320  38.0374340  49.2070450  37.1693200
  36.0704660  35.6816240  33.8391890  36.9195190  36.1186390  33.7732080
  35.7035930  35.9936500  34.6663950  44.9914440  40.2529000  38.7523460
  44.0504580  40.2679230  38.9271150  45.3058510  39.4664960  39.1983760
  34.9696080  41.9348600  32.3127420  35.7359350  41.8229960  32.8752850
  35.0470770  41.2386570  31.6604190  33.6642840  39.3673670  32.9960310
  33.7446430  38.4201180  33.1077710  34.5562590  39.6980550  33.1020970
  34.4657550  49.5169060  40.0994850  35.2020030  48.9684520  40.3703420
  34.8498470  50.3825070  39.9600840  31.3503030  45.5842630  35.9736360
  30.4242810  45.8263770  35.9641770  31.8159460  46.4116890  35.8521110
  37.5759860  48.6899370  31.9220420  38.3688470  48.9788200  31.4702210
  37.0564210  48.2591540  31.2432900  46.6290030  47.9169500  33.3457160
  46.3431540  47.5034640  32.5311340  46.4309580  48.8457210  33.2257680
  31.1913640  41.1888590  48.2316480  31.6952660  40.6095870  48.8032710
  30.4521060  41.4728820  48.7692850  38.0937260  43.9102780  31.7862770
  37.9887900  43.2955130  32.5124150  37.9261480  43.3868670  31.0025780
  41.3339990  42.9722810  32.3904760  40.7850090  43.4192110  33.0347500
  41.9559250  42.4672060  32.9142430  37.0015110  41.9313730  34.2870060
  37.4231530  41.7653600  35.1301450  37.1265950  41.1213960  33.7925200
  35.1642530  37.9110280  47.0941040  34.6338990  37.4201230  46.4664380
  35.8330600  38.3394480  46.5598970  39.5142750  40.9551340  31.5347160
  40.0348410  40.2400360  31.1688310  40.1611150  41.5937210  31.8347670
  44.0620590  42.3779740  46.8582230  44.4761610  42.5324820  47.7072650
  43.1271590  42.5034960  47.0208010  44.5342760  39.7175900  48.8621380
  45.1163530  38.9628220  48.7741860  44.7104530  40.2483340  48.0852860
  35.6514830  34.8772650  47.1738330  35.5571700  34.2593400  46.4489200
  35.0712220  35.6038940  46.9468240  38.4176270  33.4345890  44.2065720
  37.9693570  33.4570150  43.3611270  37.7841470  33.0364910  44.8036020
  38.8235820  42.3300220  44.8278160  39.2423930  43.1732950  44.6554400
  37.9044450  42.4672260  44.5984940  41.1599720  40.0616400  46.2116000
  41.2795930  39.4657540  46.9510840  42.0193720  40.0986090  45.7917300
  43.4987620  40.6153590  44.7878510  42.9722840  41.1396210  44.1843650
  43.8418960  41.2480980  45.4188240  35.8974010  38.0046960  31.2328220
  35.6963070  37.1414320  31.5941560  35.7266060  37.9180320  30.2949820
  37.9268490  36.6037750  47.4691820  38.5168180  36.2953600  48.1569640
  37.1088730  36.1317500  47.6251720  42.7461920  36.2203560  47.7024840
  42.0577440  35.5585100  47.6374830  43.4667940  35.7741830  48.1473300
  43.3762320  32.8155190  33.7615100  43.6564610  31.9723090  34.1174520
  42.6028050  33.0478300  34.2753850  34.6956810  35.1047580  31.2206100
  34.9982710  35.1115010  30.3125250  35.4351400  34.7545440  31.7173760
  37.9141740  34.0482200  32.2062300  37.5663740  33.3706190  31.6264750
  38.1154510  33.5871710  33.0205690  40.0790780  49.0362950  33.8248900
  40.9741570  49.3747920  33.8467660  40.1108410  48.3142360  33.1973180
  33.7186940  44.4090000  32.0535900  34.1561810  44.9519670  32.7093480
  34.2034670  43.5836950  32.0632240  30.9332740  47.1979030  39.5056160
  31.2635750  46.3300090  39.2734800  31.3623740  47.4037550  40.3361120
  35.5294660  45.5288040  37.1658130  35.2290200  45.4053010  38.0662040
  35.4232150  44.6696630  36.7573860  31.4222950  48.0649620  42.2437790
  30.9853940  48.2450420  43.0761940  31.9900630  48.8224240  42.1019510
  47.0585130  47.5666620  46.5315100  46.4587120  47.6259180  45.7879020
  47.1879030  46.6271600  46.6611950  48.2986580  45.3084440  31.8684810
  47.4679540  45.3761090  32.3392040  48.4758410  46.1988560  31.5651670
  47.7543040  42.0531920  34.3719010  48.5161950  42.6228570  34.4778700
  47.7697410  41.4859120  35.1427320  31.2547380  40.5769850  38.6026670
  30.5996220  40.3081490  37.9586370  32.0925330  40.4674330  38.1528650
  48.7603010  42.9082020  39.2160940  49.1311840  42.1249340  38.8096910
  49.4004940  43.5971120  39.0378240  47.8062210  42.3466290  31.5291530
  48.0811050  43.2545170  31.4010750  47.6172950  42.2828820  32.4653520
  44.2037820  35.3711140  32.8245160  44.6222700  35.1842120  31.9841820
  43.8973880  34.5190190  33.1348090  47.7027550  40.2835280  36.5220960
  47.3271150  39.5163210  36.0902250  46.9730670  40.6657980  37.0095890
  32.2923310  40.9622420  43.1430010  32.6596350  40.8749820  44.0226030
  31.7234130  40.1988970  43.0436870  47.0927170  39.4306800  46.1560480
  46.8613260  39.2019550  45.2558430  47.3531720  40.3506350  46.1105370
  31.8439310  37.8731510  47.0488430  30.9495360  37.8398270  47.3882140
  32.3836860  38.0718300  47.8139680  45.5315240  34.6563230  48.9340180
  46.4085420  34.6646630  49.3174180  45.5436080  33.9194070  48.3232530
  30.4685460  37.7868780  34.5452000  29.5649540  38.0498980  34.3703660
  30.9526080  38.0579950  33.7651960  46.9778510  38.5092770  39.8228200
  47.5015990  38.0155420  39.1918370  47.5637930  38.6443130  40.5675770
  33.0112670  36.8434320  32.4546380  33.7204370  36.4217540  31.9693660
  32.2952610  36.9109550  31.8229730  32.6586830  32.8973650  31.4949030
  33.3814960  33.4382590  31.8130250  32.9311350  32.6237070  30.6190570
  46.4678480  37.7666120  35.7620610  46.9637600  37.5336990  36.5469490
  46.2694550  36.9277960  35.3458250  32.3479020  32.1479840  41.3971650
  32.9955210  31.5977220  40.9566810  32.7680860  32.4022990  42.2187460
  48.7855910  34.2334990  31.5364430  49.7105220  34.1016170  31.3282720
  48.7631700  34.3127810  32.4900880  48.8594400  35.0045650  34.1621140
  48.0645900  34.9390770  34.6914050  49.0637680  35.9396290  34.1506490
  32.1011020  32.3035510  44.1396970  31.7525840  32.7599330  44.9055150
  31.7698720  31.4092640  44.2219400  39.6135840  33.4947390  47.6616390
  39.5524730  34.0869220  48.4111800  40.5536220  33.3873350  47.5166650
  42.2510400  33.1517450  47.3008680  42.8650810  33.4696740  46.6389760
  42.7959960  32.6666040  47.9204540  32.7731660  31.8311710  47.4147740
  33.3214650  31.6499760  46.6513850  32.8386970  31.0405820  47.9504050
  33.5463420  48.4217360  45.4247940  32.9523740  48.2902060  46.1637980
  33.5387260  47.5855500  44.9590040  42.9918440  31.7149590  43.6277970
  42.1178280  32.0484700  43.4250900  42.8829190  31.2422770  44.4529840
  43.8990420  33.9220460  45.0119690  43.5703780  33.1072220  44.6321420
  44.8472720  33.8790270  44.8885380  33.1775650  45.7875740  44.3755980
  32.4509710  45.1681030  44.3081930  33.2384800  46.1816350  43.5054060
  40.7393260  32.6319430  42.5670880  39.9565050  33.1064930  42.8467640
  40.4456190  31.7274260  42.4584060  45.2914330  33.3342530  40.6119970
  45.7322420  33.2787630  39.7641570  45.0221920  34.2500540  40.6830150
  47.1552900  32.9657770  38.6228790  47.0941300  32.0218990  38.4759810
  47.9344930  33.0737860  39.1682250  31.4605650  49.1050130  37.5852740
  31.2927690  48.4720810  38.2834630  30.5940160  49.3109530  37.2346930
  32.0833670  32.9366910  35.0884600  32.8413030  33.0495790  34.5148630
  31.6210840  33.7736110  35.0428030  38.6247480  35.0506180  38.0786910
  37.8121990  34.6763070  37.7382790  39.1289120  34.2951260  38.3808100
  43.1272460  31.7148630  39.3169980  43.7301830  32.2868840  39.7918500
  42.3865450  32.2788070  39.0943880  46.2707060  32.1170190  34.5910260
  46.4657690  33.0153640  34.8577690  45.4836930  31.8857270  35.0843210
  33.0668350  47.7983360  35.0302880  32.5415970  48.1791390  34.3264840
  32.9912930  48.4234130  35.7512590  34.4558820  33.4630960  33.6286570
  34.9851580  32.6760760  33.4994520  35.0887140  34.1422150  33.8622100
  36.6496660  33.2006100  36.6831960  36.0199400  32.4993410  36.8502090
  36.1101800  33.9610230  36.4665120  47.8233670  49.3570900  36.3516820
  47.9985860  48.6708640  35.7077740  47.1255240  49.8817950  35.9593490
  36.7752220  32.4790080  49.1184450  36.4936490  32.9823680  48.3545270
  37.1571920  31.6811830  48.7526580  35.6661320  49.7465740  33.9052130
  36.3980140  49.4625020  33.3576020  35.9254990  49.5079020  34.7951510
  34.8276110  45.8630470  33.9098460  34.1984990  46.3315570  34.4584290
  34.9423940  45.0179690  34.3444650  43.3767680  31.8943660  49.6964920
  43.2633130  32.2138270  50.5916440  44.1937420  32.2956170  49.4002200
  42.2825830  39.9136130  20.0599660  42.2019880  38.9990740  19.7891370
  41.8690250  40.4103200  19.3539370  40.4143870  41.6915150  21.9408930
  39.6385970  41.2115590  22.2307500  41.0656800  41.0120800  21.7665090
  34.4309700  42.0034960  22.8184690  33.5994580  41.7483670  23.2181200
  35.0390680  42.0745730  23.5542610  44.4351300  46.0975340  20.7208060
  43.9732830  45.3262580  21.0495230  45.2476850  46.1241410  21.2260510
  34.4110960  46.0375050  23.0142710  34.7139000  45.1472790  22.8352930
  35.1554550  46.5945270  22.7864960  32.8401650  36.9636850  16.6027080
  31.9518350  37.3052820  16.5006960  33.1242840  36.7637170  15.7107910
  30.8034660  39.5642500  22.4866780  31.3750770  38.7964700  22.4870420
  30.8036200  39.8631260  21.5773390  40.6614610  48.3833350  20.3412050
  40.0426050  48.8390850  19.7706490  41.5166390  48.5384810  19.9401750
  39.8552860  44.3672340  21.9479090  39.7861140  43.4262280  21.7868220
  40.6172720  44.4573750  22.5201660  32.0459530  34.9726860  24.2735710
  31.8662370  34.0752610  24.5538470  31.6439610  35.5198730  24.9482660
  40.8858030  37.1742720  22.1748020  41.2622850  36.3014600  22.0621690
  40.7877540  37.5101420  21.2838460  35.0163040  35.5468350  17.6365460
  35.1229790  36.4472080  17.9434220  34.1055400  35.4986320  17.3460110
  44.6682150  34.6693160  19.1076360  45.4891770  34.1789730  19.1501840
  44.7016230  35.2590820  19.8608200  32.6646200  37.4687360  22.8818050
  33.3456310  37.7325730  23.5005450  32.3494250  36.6288230  23.2156060
  36.8570770  38.5154720  21.9690640  37.3648990  39.0135690  22.6095660
  37.3884010  37.7389920  21.7930000  48.9581700  36.6859910  25.6719990
  48.2533870  37.0741620  25.1535100  49.2239620  37.3810200  26.2740920
  35.1406870  33.1553280  26.2354060  35.1425310  33.6725670  25.4299960
  34.3111180  32.6783460  26.2123990  41.5277960  43.2672590  17.7343960
  40.9095230  43.7322040  17.1706680  42.0401210  43.9600070  18.1513470
  36.3909720  42.7948460  24.4127560  36.0579100  43.4217380  25.0548630
  36.5676400  43.3210340  23.6329230  44.9043630  36.6093540  21.8803900
  44.1999200  36.8978430  22.4607010  45.2655790  37.4193650  21.5203460
  34.8222200  34.8663240  24.2424510  35.1639010  35.7105290  23.9478380
  33.8838010  35.0146980  24.3589850  35.6028820  44.7629260  26.2276740
  36.2202820  45.4380340  25.9461190  34.7421940  45.1717240  26.1364240
  30.8961160  43.9529120  15.1083590  30.5189140  44.4416220  14.3768490
  31.1534230  44.6254400  15.7390120  46.5206410  46.2268670  24.1431380
  45.8369930  46.8967780  24.1348050  47.0600700  46.4249320  23.3776240
  47.9730550  36.0548330  22.2713110  47.0255460  36.0887310  22.4028540
  48.2980540  36.8687280  22.6562470  38.5050090  32.3545510  20.5669100
  38.8125070  31.7992400  19.8504600  37.5750790  32.4889970  20.3842090
  44.0565150  48.0712800  22.8576560  44.0692310  47.6675090  21.9898820
  43.5040370  48.8460090  22.7537990  45.3510570  44.7929020  17.9466730
  45.2406900  43.8503350  18.0716150  45.3478820  45.1544660  18.8329490
  43.4550590  42.9742640  24.1859170  43.8719380  42.7602750  23.3512630
  44.1790410  43.2315430  24.7567790  40.8930850  40.4194340  17.3029220
  39.9660130  40.3531720  17.5317690  41.0455670  41.3574470  17.1884460
  40.8799930  36.6911340  14.2996380  39.9403600  36.8525300  14.3848840
  41.1983190  37.4097020  13.7532370  47.4012690  41.3729860  24.2775410
  46.5731320  41.4422950  23.8025540  47.9963170  41.9584170  23.8091240
  44.9228140  41.9814640  17.8064470  44.3040560  41.6434190  17.1590770
  44.9052590  41.3374400  18.5143660  44.3654700  38.1599180  25.2230280
  43.9525880  38.9852890  25.4770270  43.6330650  37.5744220  25.0306640
  36.4987490  40.9459080  20.0848950  36.0944490  40.2336330  19.5894850
  36.5850610  40.6012320  20.9736990  36.9669190  44.6326640  22.2488160
  36.6697480  44.0272110  21.5695940  37.9169010  44.6703950  22.1377520
  35.2116110  37.7202290  23.8647990  35.7630700  37.8297630  23.0901240
  35.7259620  38.0939890  24.5803220  45.0554800  48.2058510  25.9111260
  44.5785360  49.0130700  25.7183870  44.3716590  47.5536840  26.0637470
  36.0587620  44.3708330  28.8995960  35.1616150  44.5948300  29.1469360
  36.0840490  44.4943270  27.9507360  43.0992840  41.2201450  14.8137220
  43.5386120  40.3823880  14.6675040  43.8121260  41.8530850  14.9001360
  34.8858840  41.2421650  27.4753330  34.7466610  42.1144450  27.8440730
  34.0040200  40.8994460  27.3301270  41.2088220  46.1597520  18.7818460
  41.6484130  46.9021850  18.3673850  41.1475110  46.4024090  19.7057420
  36.6839190  47.1843350  29.6838480  36.6554620  47.5886300  28.8166910
  36.5204160  46.2553710  29.5210080  46.6809980  32.4744260  13.1278260
  46.3682640  32.5671090  14.0277330  47.4422450  33.0525290  13.0775690
  33.1992120  39.8404060  17.5855600  33.0789720  40.5666150  16.9736870
  32.8893010  39.0706970  17.1083510  48.6354010  47.9670450  30.9802650
  49.1113730  48.4453340  31.6591730  49.2561170  47.8987940  30.2548150
  30.8377490  43.0119200  23.3924240  30.9157910  43.1467970  22.4479960
  31.4519170  42.3035090  23.5852360  32.0825120  44.7119390  19.8030420
  31.6753200  44.8533980  18.9484020  32.9738130  44.4279550  19.6001630
  48.0387260  45.1583300  28.1402660  48.1650320  44.9195180  27.2219840
  48.0808640  44.3267840  28.6124740  41.9004000  48.8611300  26.7097470
  42.4148670  48.7719310  27.5119900  41.0573080  49.2071000  27.0025380
  43.8758400  49.1466640  16.1381470  43.7159540  48.8569580  17.0363300
  43.7105110  48.3706770  15.6026700  36.3546780  48.9265170  17.9153090
  36.1789260  48.0100710  17.7020890  35.5002520  49.2852460  18.1550890
  43.5784530  46.6554200  14.6979470  42.8849690  46.6531490  14.0381750
  44.3207390  46.2313520  14.2673640  43.1434460  48.2816910  18.7727960
  43.5991410  47.5006290  19.0866580  43.4826980  48.9923730  19.3169140
  47.8911270  37.2115760  29.1052400  47.2755540  37.7195430  28.5767860
  47.5707690  36.3114090  29.0478340  30.8937010  44.0533370  25.9318700
  31.0568050  43.5838730  25.1138070  31.3589460  43.5456930  26.5967540
  35.6655780  33.1839130  20.9679270  35.2223930  33.9648670  20.6363790
  36.2240770  33.5069020  21.6750210  39.9525590  36.0507650  26.5714590
  39.4904960  36.2590670  27.3834530  39.5503700  35.2367000  26.2685260
  44.9530100  37.2716600  27.7011250  44.1023690  36.9722350  28.0220320
  44.7931890  37.5158610  26.7895070  42.0479810  38.7718350  29.8010040
  42.3733220  37.9382100  29.4612270  42.8360140  39.2946870  29.9488370
  38.7814600  32.8049830  15.8485100  38.1568780  32.8009700  16.5738410
  38.6944720  31.9380790  15.4521070  37.7031680  33.7286460  22.8268870
  38.0004010  34.6349290  22.7460890  38.2517240  33.2405240  22.2128440
  35.4570000  38.3072700  18.6960520  35.2310920  38.0909870  19.6007140
  34.6762530  38.7401160  18.3506490  42.6867760  38.3136070  17.2951170
  42.0876650  39.0371870  17.1114790  43.2347370  38.2512850  16.5127620
  37.8969210  39.2058280  29.3620790  37.8012810  38.2653010  29.2121190
  38.7401190  39.4273350  28.9668860  41.2932630  36.9499610  19.3254450
  41.6862200  37.2671810  18.5123140  41.6549480  36.0711490  19.4398970
  33.0279750  35.6171950  27.5154570  32.6343140  36.4647160  27.7227350
  32.3398150  34.9798320  27.7063210  39.6024800  35.7006920  30.5851310
  38.9123120  35.5079120  31.2197400  40.3457100  35.9841560  31.1175610
  30.3296800  33.5400410  21.5484650  30.0409850  34.1103270  22.2609630
  31.0742560  33.0604860  21.9115880  30.5167030  37.4820530  12.7587370
  30.4341700  38.4251290  12.9002360  30.1650090  37.3395440  11.8799720
  41.8787770  39.5405360  23.4205230  41.1468890  40.0492170  23.7695330
  41.4812110  38.7235340  23.1194010  38.3165160  36.2159560  21.8257720
  38.3201220  35.7749510  20.9762260  39.2116280  36.5376890  21.9329540
  34.1667540  36.0986050  20.7851930  33.8267590  36.5761280  21.5418980
  33.4044860  35.6451170  20.4253030  38.3785310  37.2171640  14.8164480
  38.4998130  37.1758120  15.7650300  37.9933820  38.0795790  14.6611210
  42.3413680  34.9939040  22.8328170  42.3586420  35.4447690  23.6770020
  42.0929260  34.0944680  23.0461610  37.3906810  39.5272780  14.2147780
  36.8223710  39.0791030  13.5883690  38.0995810  39.8865560  13.6812930
  45.7684430  32.4071220  28.6714550  46.0930200  31.6760880  29.1972530
  45.8040940  32.0884860  27.7695540  32.4675990  43.4284800  28.0914510
  32.0830780  42.7878470  28.6897470  32.7788180  44.1320920  28.6609240
  38.6173130  40.2761340  23.5723130  38.9843260  39.8019910  24.3184470
  38.4278190  41.1502910  23.9131470  31.4813620  35.0205030  19.7016600
  31.1960540  34.6560700  20.5395220  31.4192480  34.2885490  19.0879740
  36.4072500  39.3169980  25.8907340  36.1029570  40.1961960  26.1157700
  37.3618960  39.3769770  25.9264780  34.9354290  43.5230970  16.4874190
  34.1616550  42.9828590  16.3272910  35.6648920  43.0037580  16.1491950
  45.6942270  42.5196330  22.2800580  46.4141390  43.0151620  21.8896690
  45.4924090  41.8414220  21.6354450  41.1552210  33.9134290  16.4229970
  40.3416820  33.4147460  16.3475280  40.9614160  34.7532540  16.0066320
  41.0761070  42.5905390  28.1669580  41.0098380  41.6701060  27.9127170
  40.4466210  42.6880830  28.8814220  43.8700600  38.2853940  14.7192130
  44.7580220  38.5971170  14.5443470  43.8405690  37.4126190  14.3272710
  34.9791690  43.1911350  20.1253000  35.4970360  42.3879610  20.0709890
  34.5275710  43.1290490  20.9669830  39.8661190  44.4577630  15.3980300
  40.2076890  45.2019860  14.9023620  39.0373900  44.7708750  15.7605130
  32.4636230  40.1572720  27.0378700  32.1051170  40.8226570  27.6252040
  32.1690790  39.3256270  27.4091320  35.6649350  40.6156960  29.9218250
  35.3649490  40.7614140  29.0246070  36.4360590  40.0562250  29.8291640
  41.0077800  45.4125960  27.9173380  41.0222340  44.4806920  27.6992290
  40.3002900  45.4985720  28.5563150  46.1414870  39.5965780  14.1871990
  46.0578590  40.0280000  13.3368430  46.8609060  40.0564130  14.6198810
  47.2189010  42.0533300  27.2641960  46.4937200  42.6462080  27.0671350
  47.7464470  42.0456840  26.4655330  47.1702120  46.4508040  16.9154120
  46.5278280  45.7963660  17.1897840  46.7832780  46.8563130  16.1394790
  42.7488600  43.7793470  20.7625810  43.1012420  43.1821600  20.1027180
  41.8650930  43.4537700  20.9334060  38.8351880  44.5391160  18.1696220
  39.5223010  45.0860370  18.5503810  38.0484300  45.0831890  18.2045830
  30.9744280  40.1563980  13.6613300  31.8439130  40.4388780  13.9449220
  30.4834600  40.9699850  13.5462110  38.1379090  41.5437190  17.7821580
  38.5941870  42.3542440  18.0081770  37.7867300  41.2260330  18.6140070
  40.4411700  47.0543530  25.0113880  41.0853920  47.2602910  25.6887300
  40.8041140  46.2931930  24.5584730  34.0390870  31.8874840  18.2544100
  33.9105500  31.8792740  19.2029020  33.2152890  32.2257930  17.9035110
  41.7143780  45.0575880  23.7291330  42.3566010  44.3569040  23.8423500
  42.2393130  45.8374320  23.5488220  45.5599500  45.3424500  13.4530470
  45.3337080  44.6254940  14.0455110  45.1695700  45.0936940  12.6152220
  43.4881400  45.8570780  26.9327390  43.8237640  46.4437470  27.6105310
  42.5681740  45.7263490  27.1625180  31.3415530  49.3691360  14.2274930
  31.7013170  49.9680700  13.5732200  31.2007870  49.9151250  15.0009960
  31.0384800  33.6465960  27.7150800  30.3243320  33.8462880  28.3203410
  31.4579840  32.8705530  28.0865600  45.1415750  43.2596440  15.1144630
  44.8537450  43.7209130  15.9022510  45.9367920  42.7994210  15.3828850
  31.3257390  47.6346220  28.7017330  31.4348510  46.6940960  28.5612720
  30.6737950  47.9000970  28.0531060  39.3169980  45.9062110  30.1015450
  38.9966850  45.1871350  30.6461140  38.6428340  46.5817180  30.1751510
  37.3584150  46.7522560  15.0448600  37.3494250  47.4852250  14.4293110
  36.4382510  46.5054140  15.1375560  32.9590790  41.9737450  15.7895360
  32.3518740  42.7136350  15.7990660  33.4340140  42.0636810  14.9633560
  42.5323580  36.1388270  25.4652250  42.9004400  35.3183480  25.7931820
  41.6721780  36.1990160  25.8807900  45.8985610  35.0945210  16.2739810
  45.2698770  35.1990880  15.5598040  45.4037530  35.3141990  17.0633690
  40.3443750  46.8150800  13.7073790  40.4455730  46.6114790  12.7775770
  39.4445490  46.5609080  13.9121570  37.8669640  37.3731160  17.6897690
  37.1585790  37.8417500  18.1311300  38.1514120  36.7153170  18.3242880
  39.4925570  38.7927860  25.6890220  39.9910820  39.2673680  26.3542070
  39.6348520  37.8691380  25.8960250  41.8985070  34.0981820  19.1293480
  41.7752850  34.1167950  18.1802990  42.8469630  34.1460760  19.2491880
  38.9861860  49.3337120  18.4021460  39.2403360  49.2958510  17.4800830
  38.0374340  49.2070450  18.3949710  36.0704660  35.6816240  15.0648400
  36.9195190  36.1186390  14.9988590  35.7035930  35.9936500  15.8920460
  46.6992430  35.0095820  26.5318610  46.1966030  35.7501220  26.8712420
  47.5149090  35.3979820  26.2155400  44.9914440  40.2529000  19.9779970
  44.0504580  40.2679230  20.1527660  45.3058510  39.4664960  20.4240270
  34.9696080  41.9348600  13.5383930  35.7359350  41.8229960  14.1009360
  35.0470770  41.2386570  12.8860700  33.6642840  39.3673670  14.2216820
  33.7446430  38.4201180  14.3334220  34.5562590  39.6980550  14.3277480
  46.9940020  47.4237850  21.6534230  47.1187440  48.2469020  22.1258040
  47.8605580  47.2128580  21.3058380  34.4657550  49.5169060  21.3251360
  35.2020030  48.9684520  21.5959930  34.8498470  50.3825070  21.1857350
  31.3503030  45.5842630  17.1992870  30.4242810  45.8263770  17.1898280
  31.8159460  46.4116890  17.0777620  33.4715830  48.7015130  30.5136940
  34.2728560  49.0227180  30.9272340  32.9567650  48.3410710  31.2356850
  37.5759860  48.6899370  13.1476930  38.3688470  48.9788200  12.6958720
  37.0564210  48.2591540  12.4689410  42.3080460  44.8095000  30.4612350
  41.7018620  44.8326600  29.7208100  42.0034570  44.0778040  30.9979600
  43.7380830  48.5375290  29.0721760  44.6902580  48.4533310  29.0222000
  43.5909050  49.2017000  29.7455550  46.6290030  47.9169500  14.5713670
  46.3431540  47.5034640  13.7567850  46.4309580  48.8457210  14.4514190
  31.1913640  41.1888590  29.4572990  31.6952660  40.6095870  30.0289220
  30.4521060  41.4728820  29.9949360  38.0937260  43.9102780  13.0119280
  37.9887900  43.2955130  13.7380660  37.9261480  43.3868670  12.2282290
  38.2451580  42.5959580  28.9908510  37.4797250  43.1644580  28.9063180
  38.4267540  42.3035790  28.0976740  41.3339990  42.9722810  13.6161270
  40.7850090  43.4192110  14.2604010  41.9559250  42.4672060  14.1398940
  45.3874930  44.3264910  29.5483530  46.1284400  44.6640670  29.0450990
  44.6247610  44.4956970  28.9953300  33.2236720  39.3318180  30.3523060
  33.2642060  39.0332050  31.2608290  34.0782220  39.7325790  30.1930580
  37.0015110  41.9313730  15.5126570  37.4231530  41.7653600  16.3557960
  37.1265950  41.1213960  15.0181710  35.1642530  37.9110280  28.3197550
  34.6338990  37.4201230  27.6920890  35.8330600  38.3394480  27.7855480
  39.5142750  40.9551340  12.7603670  40.0348410  40.2400360  12.3944820
  40.1611150  41.5937210  13.0604180  44.0620590  42.3779740  28.0838740
  44.4761610  42.5324820  28.9329160  43.1271590  42.5034960  28.2464520
  44.5342760  39.7175900  30.0877890  45.1163530  38.9628220  29.9998370
  44.7104530  40.2483340  29.3109370  35.6514830  34.8772650  28.3994840
  35.5571700  34.2593400  27.6745710  35.0712220  35.6038940  28.1724750
  38.4176270  33.4345890  25.4322230  37.9693570  33.4570150  24.5867780
  37.7841470  33.0364910  26.0292530  38.8235820  42.3300220  26.0534670
  39.2423930  43.1732950  25.8810910  37.9044450  42.4672260  25.8241450
  41.1599720  40.0616400  27.4372510  41.2795930  39.4657540  28.1767350
  42.0193720  40.0986090  27.0173810  43.4987620  40.6153590  26.0135020
  42.9722840  41.1396210  25.4100160  43.8418960  41.2480980  26.6444750
  35.8974010  38.0046960  12.4584730  35.6963070  37.1414320  12.8198070
  35.7266060  37.9180320  11.5206330  36.6743240  48.6353230  27.1692400
  36.1364330  49.3599290  26.8501100  36.9277200  48.1583570  26.3789740
  37.9268490  36.6037750  28.6948330  38.5168180  36.2953600  29.3826150
  37.1088730  36.1317500  28.8508230  42.7461920  36.2203560  28.9281350
  42.0577440  35.5585100  28.8631340  43.4667940  35.7741830  29.3729810
  43.3762320  32.8155190  14.9871610  43.6564610  31.9723090  15.3431030
  42.6028050  33.0478300  15.5010360  34.6956810  35.1047580  12.4462610
  34.9982710  35.1115010  11.5381760  35.4351400  34.7545440  12.9430270
  39.5305450  49.8704440  27.4279050  39.4564150  50.7739580  27.7351420
  38.6284290  49.5516340  27.4001120  37.9141740  34.0482200  13.4318810
  37.5663740  33.3706190  12.8521260  38.1154510  33.5871710  14.2462200
  40.0790780  49.0362950  15.0505410  40.9741570  49.3747920  15.0724170
  40.1108410  48.3142360  14.4229690  33.7186940  44.4090000  13.2792410
  34.1561810  44.9519670  13.9349990  34.2034670  43.5836950  13.2888750
  30.9332740  47.1979030  20.7312670  31.2635750  46.3300090  20.4991310
  31.3623740  47.4037550  21.5617630  35.5294660  45.5288040  18.3914640
  35.2290200  45.4053010  19.2918550  35.4232150  44.6696630  17.9830370
  31.4222950  48.0649620  23.4694300  30.9853940  48.2450420  24.3018450
  31.9900630  48.8224240  23.3276020  47.0585130  47.5666620  27.7571610
  46.4587120  47.6259180  27.0135530  47.1879030  46.6271600  27.8868460
  48.2986580  45.3084440  13.0941320  47.4679540  45.3761090  13.5648550
  48.4758410  46.1988560  12.7908180  47.7543040  42.0531920  15.5975520
  48.5161950  42.6228570  15.7035210  47.7697410  41.4859120  16.3683830
  31.2547380  40.5769850  19.8283180  30.5996220  40.3081490  19.1842880
  32.0925330  40.4674330  19.3785160  48.7603010  42.9082020  20.4417450
  49.1311840  42.1249340  20.0353420  49.4004940  43.5971120  20.2634750
  45.7436770  44.2918600  25.8547770  44.9296610  44.7215760  26.1173560
  46.1510970  44.9037010  25.2416820  47.8062210  42.3466290  12.7548040
  48.0811050  43.2545170  12.6267260  47.6172950  42.2828820  13.6910030
  44.2037820  35.3711140  14.0501670  44.6222700  35.1842120  13.2098330
  43.8973880  34.5190190  14.3604600  47.7027550  40.2835280  17.7477470
  47.3271150  39.5163210  17.3158760  46.9730670  40.6657980  18.2352400
  32.2923310  40.9622420  24.3686520  32.6596350  40.8749820  25.2482540
  31.7234130  40.1988970  24.2693380  47.0927170  39.4306800  27.3816990
  46.8613260  39.2019550  26.4814940  47.3531720  40.3506350  27.3361880
  31.8439310  37.8731510  28.2744940  30.9495360  37.8398270  28.6138650
  32.3836860  38.0718300  29.0396190  45.5315240  34.6563230  30.1596690
  46.4085420  34.6646630  30.5430690  45.5436080  33.9194070  29.5489040
  30.4685460  37.7868780  15.7708510  29.5649540  38.0498980  15.5960170
  30.9526080  38.0579950  14.9908470  46.9778510  38.5092770  21.0484710
  47.5015990  38.0155420  20.4174880  47.5637930  38.6443130  21.7932280
  47.1568230  38.5932640  24.5704260  46.2070940  38.5596180  24.6849250
  47.3381240  39.5032750  24.3354030  33.0112670  36.8434320  13.6802890
  33.7204370  36.4217540  13.1950170  32.2952610  36.9109550  13.0486240
  32.6586830  32.8973650  12.7205540  33.3814960  33.4382590  13.0386760
  32.9311350  32.6237070  11.8447080  46.4678480  37.7666120  16.9877120
  46.9637600  37.5336990  17.7726000  46.2694550  36.9277960  16.5714760
  32.3479020  32.1479840  22.6228160  32.9955210  31.5977220  22.1823320
  32.7680860  32.4022990  23.4443970  47.8965640  36.4027070  19.5214800
  47.7864920  36.2483110  20.4597070  48.6573230  35.8748010  19.2790210
  46.2431360  32.3421200  25.9797800  46.8803580  32.9555340  26.3456990
  46.3906250  32.3781860  25.0347030  48.7855910  34.2334990  12.7620940
  49.7105220  34.1016170  12.5539230  48.7631700  34.3127810  13.7157390
  48.8594400  35.0045650  15.3877650  48.0645900  34.9390770  15.9170560
  49.0637680  35.9396290  15.3763000  45.8012820  49.0437200  19.3816040
  46.3971890  48.7221770  18.7050460  46.0590970  48.5709020  20.1729310
  32.1011020  32.3035510  25.3653480  31.7525840  32.7599330  26.1311660
  31.7698720  31.4092640  25.4475910  33.7075390  45.4755110  29.5306670
  33.6645020  45.1048020  30.4121130  33.8386400  46.4132680  29.6708490
  37.4081420  47.0314700  25.1316390  37.1672780  47.2989260  24.2446910
  38.3484060  47.2020430  25.1867250  39.6135840  33.4947390  28.8872900
  39.5524730  34.0869220  29.6368310  40.5536220  33.3873350  28.7423160
  42.2510400  33.1517450  28.5265190  42.8650810  33.4696740  27.8646270
  42.7959960  32.6666040  29.1461050  48.6685580  49.0509080  25.9327030
  48.1743860  49.4477950  25.2154160  48.0598870  48.4258290  26.3264310
  32.7731660  31.8311710  28.6404250  33.3214650  31.6499760  27.8770360
  32.8386970  31.0405820  29.1760560  33.5463420  48.4217360  26.6504450
  32.9523740  48.2902060  27.3894490  33.5387260  47.5855500  26.1846550
  42.9918440  31.7149590  24.8534480  42.1178280  32.0484700  24.6507410
  42.8829190  31.2422770  25.6786350  43.8990420  33.9220460  26.2376200
  43.5703780  33.1072220  25.8577930  44.8472720  33.8790270  26.1141890
  46.3525030  49.6932500  23.2113770  45.8928000  50.4448310  22.8371790
  45.7237490  48.9738970  23.1528570  33.1775650  45.7875740  25.6012490
  32.4509710  45.1681030  25.5338440  33.2384800  46.1816350  24.7310570
  36.7820750  48.0020740  22.3861900  37.2985770  47.3908100  21.8610160
  37.4318130  48.5049520  22.8772910  39.5216250  48.8929230  23.2130880
  39.8094060  48.6383530  22.3363890  40.0339470  48.3406590  23.8036450
  40.7393260  32.6319430  23.7927390  39.9565050  33.1064930  24.0724150
  40.4456190  31.7274260  23.6840570  45.2914330  33.3342530  21.8376480
  45.7322420  33.2787630  20.9898080  45.0221920  34.2500540  21.9086660
  47.1552900  32.9657770  19.8485300  47.0941300  32.0218990  19.7016320
  47.9344930  33.0737860  20.3938760  31.4605650  49.1050130  18.8109250
  31.2927690  48.4720810  19.5091140  30.5940160  49.3109530  18.4603440
  32.0833670  32.9366910  16.3141110  32.8413030  33.0495790  15.7405140
  31.6210840  33.7736110  16.2684540  38.6247480  35.0506180  19.3043420
  37.8121990  34.6763070  18.9639300  39.1289120  34.2951260  19.6064610
  43.1272460  31.7148630  20.5426490  43.7301830  32.2868840  21.0175010
  42.3865450  32.2788070  20.3200390  46.2707060  32.1170190  15.8166770
  46.4657690  33.0153640  16.0834200  45.4836930  31.8857270  16.3099720
  33.0668350  47.7983360  16.2559390  32.5415970  48.1791390  15.5521350
  32.9912930  48.4234130  16.9769100  34.4558820  33.4630960  14.8543080
  34.9851580  32.6760760  14.7251030  35.0887140  34.1422150  15.0878610
  36.6496660  33.2006100  17.9088470  36.0199400  32.4993410  18.0758600
  36.1101800  33.9610230  17.6921630  39.5888610  49.8145330  30.5799080
  40.5155920  49.5789600  30.6235040  39.5739040  50.6417330  30.0985110
  47.8233670  49.3570900  17.5773330  47.9985860  48.6708640  16.9334250
  47.1255240  49.8817950  17.1850000  36.7752220  32.4790080  30.3440960
  36.4936490  32.9823680  29.5801780  37.1571920  31.6811830  29.9783090
  35.6661320  49.7465740  15.1308640  36.3980140  49.4625020  14.5832530
  35.9254990  49.5079020  16.0208020  34.8276110  45.8630470  15.1354970
  34.1984990  46.3315570  15.6840800  34.9423940  45.0179690  15.5701160
  43.3767680  31.8943660  30.9221430  43.2633130  32.2138270  31.8172950
  44.1937420  32.2956170  30.6258710  46.1566170  49.0415190  30.4040120
  46.9491490  48.5464420  30.1966080  46.4499320  49.7205330  31.0115730
  40.4143870  41.6915150   3.1665440  39.6385970  41.2115590   3.4564010
  41.0656800  41.0120800   2.9921600  34.4309700  42.0034960   4.0441200
  33.5994580  41.7483670   4.4437710  35.0390680  42.0745730   4.7799120
  44.4351300  46.0975340   1.9464570  43.9732830  45.3262580   2.2751740
  45.2476850  46.1241410   2.4517020  34.4110960  46.0375050   4.2399220
  34.7139000  45.1472790   4.0609440  35.1554550  46.5945270   4.0121470
  30.8034660  39.5642500   3.7123290  31.3750770  38.7964700   3.7126930
  30.8036200  39.8631260   2.8029900  39.8552860  44.3672340   3.1735600
  39.7861140  43.4262280   3.0124730  40.6172720  44.4573750   3.7458170
  32.0459530  34.9726860   5.4992220  31.8662370  34.0752610   5.7794980
  31.6439610  35.5198730   6.1739170  40.8858030  37.1742720   3.4004530
  41.2622850  36.3014600   3.2878200  40.7877540  37.5101420   2.5094970
  32.6646200  37.4687360   4.1074560  33.3456310  37.7325730   4.7261960
  32.3494250  36.6288230   4.4412570  36.8570770  38.5154720   3.1947150
  37.3648990  39.0135690   3.8352170  37.3884010  37.7389920   3.0186510
  48.9581700  36.6859910   6.8976500  48.2533870  37.0741620   6.3791610
  49.2239620  37.3810200   7.4997430  35.1406870  33.1553280   7.4610570
  35.1425310  33.6725670   6.6556470  34.3111180  32.6783460   7.4380500
  36.3909720  42.7948460   5.6384070  36.0579100  43.4217380   6.2805140
  36.5676400  43.3210340   4.8585740  44.9043630  36.6093540   3.1060410
  44.1999200  36.8978430   3.6863520  45.2655790  37.4193650   2.7459970
  34.8222200  34.8663240   5.4681020  35.1639010  35.7105290   5.1734890
  33.8838010  35.0146980   5.5846360  35.6028820  44.7629260   7.4533250
  36.2202820  45.4380340   7.1717700  34.7421940  45.1717240   7.3620750
  46.5206410  46.2268670   5.3687890  45.8369930  46.8967780   5.3604560
  47.0600700  46.4249320   4.6032750  47.9730550  36.0548330   3.4969620
  47.0255460  36.0887310   3.6285050  48.2980540  36.8687280   3.8818980
  44.0565150  48.0712800   4.0833070  44.0692310  47.6675090   3.2155330
  43.5040370  48.8460090   3.9794500  43.4550590  42.9742640   5.4115680
  43.8719380  42.7602750   4.5769140  44.1790410  43.2315430   5.9824300
  47.4012690  41.3729860   5.5031920  46.5731320  41.4422950   5.0282050
  47.9963170  41.9584170   5.0347750  44.3654700  38.1599180   6.4486790
  43.9525880  38.9852890   6.7026780  43.6330650  37.5744220   6.2563150
  36.9669190  44.6326640   3.4744670  36.6697480  44.0272110   2.7952450
  37.9169010  44.6703950   3.3634030  35.2116110  37.7202290   5.0904500
  35.7630700  37.8297630   4.3157750  35.7259620  38.0939890   5.8059730
  45.0554800  48.2058510   7.1367770  44.5785360  49.0130700   6.9440380
  44.3716590  47.5536840   7.2893980  36.0587620  44.3708330  10.1252470
  35.1616150  44.5948300  10.3725870  36.0840490  44.4943270   9.1763870
  34.8858840  41.2421650   8.7009840  34.7466610  42.1144450   9.0697240
  34.0040200  40.8994460   8.5557780  36.6839190  47.1843350  10.9094990
  36.6554620  47.5886300  10.0423420  36.5204160  46.2553710  10.7466590
  48.6354010  47.9670450  12.2059160  49.1113730  48.4453340  12.8848240
  49.2561170  47.8987940  11.4804660  30.8377490  43.0119200   4.6180750
  30.9157910  43.1467970   3.6736470  31.4519170  42.3035090   4.8108870
  48.0387260  45.1583300   9.3659170  48.1650320  44.9195180   8.4476350
  48.0808640  44.3267840   9.8381250  41.9004000  48.8611300   7.9353980
  42.4148670  48.7719310   8.7376410  41.0573080  49.2071000   8.2281890
  47.8911270  37.2115760  10.3308910  47.2755540  37.7195430   9.8024370
  47.5707690  36.3114090  10.2734850  30.8937010  44.0533370   7.1575210
  31.0568050  43.5838730   6.3394580  31.3589460  43.5456930   7.8224050
  35.6655780  33.1839130   2.1935780  35.2223930  33.9648670   1.8620300
  36.2240770  33.5069020   2.9006720  39.9525590  36.0507650   7.7971100
  39.4904960  36.2590670   8.6091040  39.5503700  35.2367000   7.4941770
  44.9530100  37.2716600   8.9267760  44.1023690  36.9722350   9.2476830
  44.7931890  37.5158610   8.0151580  42.0479810  38.7718350  11.0266550
  42.3733220  37.9382100  10.6868780  42.8360140  39.2946870  11.1744880
  37.7031680  33.7286460   4.0525380  38.0004010  34.6349290   3.9717400
  38.2517240  33.2405240   3.4384950  37.8969210  39.2058280  10.5877300
  37.8012810  38.2653010  10.4377700  38.7401190  39.4273350  10.1925370
  33.0279750  35.6171950   8.7411080  32.6343140  36.4647160   8.9483860
  32.3398150  34.9798320   8.9319720  39.6024800  35.7006920  11.8107820
  38.9123120  35.5079120  12.4453910  40.3457100  35.9841560  12.3432120
  30.3296800  33.5400410   2.7741160  30.0409850  34.1103270   3.4866140
  31.0742560  33.0604860   3.1372390  41.8787770  39.5405360   4.6461740
  41.1468890  40.0492170   4.9951840  41.4812110  38.7235340   4.3450520
  38.3165160  36.2159560   3.0514230  38.3201220  35.7749510   2.2018770
  39.2116280  36.5376890   3.1586050  34.1667540  36.0986050   2.0108440
  33.8267590  36.5761280   2.7675490  33.4044860  35.6451170   1.6509540
  42.3413680  34.9939040   4.0584680  42.3586420  35.4447690   4.9026530
  42.0929260  34.0944680   4.2718120  45.7684430  32.4071220   9.8971060
  46.0930200  31.6760880  10.4229040  45.8040940  32.0884860   8.9952050
  32.4675990  43.4284800   9.3171020  32.0830780  42.7878470   9.9153980
  32.7788180  44.1320920   9.8865750  38.6173130  40.2761340   4.7979640
  38.9843260  39.8019910   5.5440980  38.4278190  41.1502910   5.1387980
  36.4072500  39.3169980   7.1163850  36.1029570  40.1961960   7.3414210
  37.3618960  39.3769770   7.1521290  45.6942270  42.5196330   3.5057090
  46.4141390  43.0151620   3.1153200  45.4924090  41.8414220   2.8610960
  41.0761070  42.5905390   9.3926090  41.0098380  41.6701060   9.1383680
  40.4466210  42.6880830  10.1070730  32.4636230  40.1572720   8.2635210
  32.1051170  40.8226570   8.8508550  32.1690790  39.3256270   8.6347830
  35.6649350  40.6156960  11.1474760  35.3649490  40.7614140  10.2502580
  36.4360590  40.0562250  11.0548150  41.0077800  45.4125960   9.1429890
  41.0222340  44.4806920   8.9248800  40.3002900  45.4985720   9.7819660
  47.2189010  42.0533300   8.4898470  46.4937200  42.6462080   8.2927860
  47.7464470  42.0456840   7.6911840  40.4411700  47.0543530   6.2370390
  41.0853920  47.2602910   6.9143810  40.8041140  46.2931930   5.7841240
  41.7143780  45.0575880   4.9547840  42.3566010  44.3569040   5.0680010
  42.2393130  45.8374320   4.7744730  43.4881400  45.8570780   8.1583900
  43.8237640  46.4437470   8.8361820  42.5681740  45.7263490   8.3881690
  31.0384800  33.6465960   8.9407310  30.3243320  33.8462880   9.5459920
  31.4579840  32.8705530   9.3122110  31.3257390  47.6346220   9.9273840
  31.4348510  46.6940960   9.7869230  30.6737950  47.9000970   9.2787570
  39.3169980  45.9062110  11.3271960  38.9966850  45.1871350  11.8717650
  38.6428340  46.5817180  11.4008020  42.5323580  36.1388270   6.6908760
  42.9004400  35.3183480   7.0188330  41.6721780  36.1990160   7.1064410
  39.4925570  38.7927860   6.9146730  39.9910820  39.2673680   7.5798580
  39.6348520  37.8691380   7.1216760  46.6992430  35.0095820   7.7575120
  46.1966030  35.7501220   8.0968930  47.5149090  35.3979820   7.4411910
  46.9940020  47.4237850   2.8790740  47.1187440  48.2469020   3.3514550
  47.8605580  47.2128580   2.5314890  34.4657550  49.5169060   2.5507870
  35.2020030  48.9684520   2.8216440  34.8498470  50.3825070   2.4113860
  33.4715830  48.7015130  11.7393450  34.2728560  49.0227180  12.1528850
  32.9567650  48.3410710  12.4613360  42.3080460  44.8095000  11.6868860
  41.7018620  44.8326600  10.9464610  42.0034570  44.0778040  12.2236110
  43.7380830  48.5375290  10.2978270  44.6902580  48.4533310  10.2478510
  43.5909050  49.2017000  10.9712060  31.1913640  41.1888590  10.6829500
  31.6952660  40.6095870  11.2545730  30.4521060  41.4728820  11.2205870
  38.2451580  42.5959580  10.2165020  37.4797250  43.1644580  10.1319690
  38.4267540  42.3035790   9.3233250  45.3874930  44.3264910  10.7740040
  46.1284400  44.6640670  10.2707500  44.6247610  44.4956970  10.2209810
  33.2236720  39.3318180  11.5779570  33.2642060  39.0332050  12.4864800
  34.0782220  39.7325790  11.4187090  35.1642530  37.9110280   9.5454060
  34.6338990  37.4201230   8.9177400  35.8330600  38.3394480   9.0111990
  44.0620590  42.3779740   9.3095250  44.4761610  42.5324820  10.1585670
  43.1271590  42.5034960   9.4721030  44.5342760  39.7175900  11.3134400
  45.1163530  38.9628220  11.2254880  44.7104530  40.2483340  10.5365880
  35.6514830  34.8772650   9.6251350  35.5571700  34.2593400   8.9002220
  35.0712220  35.6038940   9.3981260  38.4176270  33.4345890   6.6578740
  37.9693570  33.4570150   5.8124290  37.7841470  33.0364910   7.2549040
  38.8235820  42.3300220   7.2791180  39.2423930  43.1732950   7.1067420
  37.9044450  42.4672260   7.0497960  41.1599720  40.0616400   8.6629020
  41.2795930  39.4657540   9.4023860  42.0193720  40.0986090   8.2430320
  43.4987620  40.6153590   7.2391530  42.9722840  41.1396210   6.6356670
  43.8418960  41.2480980   7.8701260  36.6743240  48.6353230   8.3948910
  36.1364330  49.3599290   8.0757610  36.9277200  48.1583570   7.6046250
  37.9268490  36.6037750   9.9204840  38.5168180  36.2953600  10.6082660
  37.1088730  36.1317500  10.0764740  42.7461920  36.2203560  10.1537860
  42.0577440  35.5585100  10.0887850  43.4667940  35.7741830  10.5986320
  39.5305450  49.8704440   8.6535560  39.4564150  50.7739580   8.9607930
  38.6284290  49.5516340   8.6257630  30.9332740  47.1979030   1.9569180
  31.2635750  46.3300090   1.7247820  31.3623740  47.4037550   2.7874140
  31.4222950  48.0649620   4.6950810  30.9853940  48.2450420   5.5274960
  31.9900630  48.8224240   4.5532530  47.0585130  47.5666620   8.9828120
  46.4587120  47.6259180   8.2392040  47.1879030  46.6271600   9.1124970
  45.7436770  44.2918600   7.0804280  44.9296610  44.7215760   7.3430070
  46.1510970  44.9037010   6.4673330  32.2923310  40.9622420   5.5943030
  32.6596350  40.8749820   6.4739050  31.7234130  40.1988970   5.4949890
  47.0927170  39.4306800   8.6073500  46.8613260  39.2019550   7.7071450
  47.3531720  40.3506350   8.5618390  31.8439310  37.8731510   9.5001450
  30.9495360  37.8398270   9.8395160  32.3836860  38.0718300  10.2652700
  45.5315240  34.6563230  11.3853200  46.4085420  34.6646630  11.7687200
  45.5436080  33.9194070  10.7745550  46.9778510  38.5092770   2.2741220
  47.5015990  38.0155420   1.6431390  47.5637930  38.6443130   3.0188790
  47.1568230  38.5932640   5.7960770  46.2070940  38.5596180   5.9105760
  47.3381240  39.5032750   5.5610540  32.3479020  32.1479840   3.8484670
  32.9955210  31.5977220   3.4079830  32.7680860  32.4022990   4.6700480
  46.2431360  32.3421200   7.2054310  46.8803580  32.9555340   7.5713500
  46.3906250  32.3781860   6.2603540  32.1011020  32.3035510   6.5909990
  31.7525840  32.7599330   7.3568170  31.7698720  31.4092640   6.6732420
  33.7075390  45.4755110  10.7563180  33.6645020  45.1048020  11.6377640
  33.8386400  46.4132680  10.8965000  37.4081420  47.0314700   6.3572900
  37.1672780  47.2989260   5.4703420  38.3484060  47.2020430   6.4123760
  39.6135840  33.4947390  10.1129410  39.5524730  34.0869220  10.8624820
  40.5536220  33.3873350   9.9679670  42.2510400  33.1517450   9.7521700
  42.8650810  33.4696740   9.0902780  42.7959960  32.6666040  10.3717560
  48.6685580  49.0509080   7.1583540  48.1743860  49.4477950   6.4410670
  48.0598870  48.4258290   7.5520820  32.7731660  31.8311710   9.8660760
  33.3214650  31.6499760   9.1026870  32.8386970  31.0405820  10.4017070
  33.5463420  48.4217360   7.8760960  32.9523740  48.2902060   8.6151000
  33.5387260  47.5855500   7.4103060  42.9918440  31.7149590   6.0790990
  42.1178280  32.0484700   5.8763920  42.8829190  31.2422770   6.9042860
  43.8990420  33.9220460   7.4632710  43.5703780  33.1072220   7.0834440
  44.8472720  33.8790270   7.3398400  46.3525030  49.6932500   4.4370280
  45.8928000  50.4448310   4.0628300  45.7237490  48.9738970   4.3785080
  33.1775650  45.7875740   6.8269000  32.4509710  45.1681030   6.7594950
  33.2384800  46.1816350   5.9567080  36.7820750  48.0020740   3.6118410
  37.2985770  47.3908100   3.0866670  37.4318130  48.5049520   4.1029420
  39.5216250  48.8929230   4.4387390  39.8094060  48.6383530   3.5620400
  40.0339470  48.3406590   5.0292960  40.7393260  32.6319430   5.0183900
  39.9565050  33.1064930   5.2980660  40.4456190  31.7274260   4.9097080
  45.2914330  33.3342530   3.0632990  45.7322420  33.2787630   2.2154590
  45.0221920  34.2500540   3.1343170  43.1272460  31.7148630   1.7683000
  43.7301830  32.2868840   2.2431520  42.3865450  32.2788070   1.5456900
  39.5888610  49.8145330  11.8055590  40.5155920  49.5789600  11.8491550
  39.5739040  50.6417330  11.3241620  36.7752220  32.4790080  11.5697470
  36.4936490  32.9823680  10.8058290  37.1571920  31.6811830  11.2039600
  43.3767680  31.8943660  12.1477940  43.2633130  32.2138270  13.0429460
  44.1937420  32.2956170  11.8515220  46.1566170  49.0415190  11.6296630
  46.9491490  48.5464420  11.4222590  46.4499320  49.7205330  12.2372240
  42.2825830  21.1392640 151.4804090  42.2019880  20.2247250 151.2095800
  41.8690250  21.6359710 150.7743800  40.4143870  22.9171660 153.3613360
  39.6385970  22.4372100 153.6511930  41.0656800  22.2377310 153.1869520
  44.4351300  27.3231850 152.1412490  43.9732830  26.5519090 152.4699660
  45.2476850  27.3497920 152.6464940  34.4110960  27.2631560 154.4347140
  34.7139000  26.3729300 154.2557360  35.1554550  27.8201780 154.2069390
  32.8401650  18.1893360 148.0231510  31.9518350  18.5309330 147.9211390
  33.1242840  17.9893680 147.1312340  30.8034660  20.7899010 153.9071210
  31.3750770  20.0221210 153.9074850  30.8036200  21.0887770 152.9977820
  40.6614610  29.6089860 151.7616480  40.0426050  30.0647360 151.1910920
  41.5166390  29.7641320 151.3606180  39.8552860  25.5928850 153.3683520
  39.7861140  24.6518790 153.2072650  40.6172720  25.6830260 153.9406090
  40.8858030  18.3999230 153.5952450  41.2622850  17.5271110 153.4826120
  40.7877540  18.7357930 152.7042890  35.0163040  16.7724860 149.0569890
  35.1229790  17.6728590 149.3638650  34.1055400  16.7242830 148.7664540
  44.6682150  15.8949670 150.5280790  45.4891770  15.4046240 150.5706270
  44.7016230  16.4847330 151.2812630  36.8570770  19.7411230 153.3895070
  37.3648990  20.2392200 154.0300090  37.3884010  18.9646430 153.2134430
  41.5277960  24.4929100 149.1548390  40.9095230  24.9578550 148.5911110
  42.0401210  25.1856580 149.5717900  44.9043630  17.8350050 153.3008330
  44.1999200  18.1234940 153.8811440  45.2655790  18.6450160 152.9407890
  30.8961160  25.1785630 146.5288020  30.5189140  25.6672730 145.7972920
  31.1534230  25.8510910 147.1594550  47.9730550  17.2804840 153.6917540
  47.0255460  17.3143820 153.8232970  48.2980540  18.0943790 154.0766900
  38.5050090  13.5802020 151.9873530  38.8125070  13.0248910 151.2709030
  37.5750790  13.7146480 151.8046520  44.0565150  29.2969310 154.2780990
  44.0692310  28.8931600 153.4103250  43.5040370  30.0716600 154.1742420
  45.3510570  26.0185530 149.3671160  45.2406900  25.0759860 149.4920580
  45.3478820  26.3801170 150.2533920  40.8930850  21.6450850 148.7233650
  39.9660130  21.5788230 148.9522120  41.0455670  22.5830980 148.6088890
  40.8799930  17.9167850 145.7200810  39.9403600  18.0781810 145.8053270
  41.1983190  18.6353530 145.1736800  44.9228140  23.2071150 149.2268900
  44.3040560  22.8690700 148.5795200  44.9052590  22.5630910 149.9348090
  36.4987490  22.1715590 151.5053380  36.0944490  21.4592840 151.0099280
  36.5850610  21.8268830 152.3941420  36.9669190  25.8583150 153.6692590
  36.6697480  25.2528620 152.9900370  37.9169010  25.8960460 153.5581950
  43.0992840  22.4457960 146.2341650  43.5386120  21.6080390 146.0879470
  43.8121260  23.0787360 146.3205790  41.2088220  27.3854030 150.2022890
  41.6484130  28.1278360 149.7878280  41.1475110  27.6280600 151.1261850
  46.6809980  13.7000770 144.5482690  46.3682640  13.7927600 145.4481760
  47.4422450  14.2781800 144.4980120  33.1992120  21.0660570 149.0060030
  33.0789720  21.7922660 148.3941300  32.8893010  20.2963480 148.5287940
  32.0825120  25.9375900 151.2234850  31.6753200  26.0790490 150.3688450
  32.9738130  25.6536060 151.0206060  43.8758400  30.3723150 147.5585900
  43.7159540  30.0826090 148.4567730  43.7105110  29.5963280 147.0231130
  36.3546780  30.1521680 149.3357520  36.1789260  29.2357220 149.1225320
  35.5002520  30.5108970 149.5755320  43.5784530  27.8810710 146.1183900
  42.8849690  27.8788000 145.4586180  44.3207390  27.4570030 145.6878070
  43.1434460  29.5073420 150.1932390  43.5991410  28.7262800 150.5071010
  43.4826980  30.2180240 150.7373570  35.6655780  14.4095640 152.3883700
  35.2223930  15.1905180 152.0568220  36.2240770  14.7325530 153.0954640
  38.7814600  14.0306340 147.2689530  38.1568780  14.0266210 147.9942840
  38.6944720  13.1637300 146.8725500  37.7031680  14.9542970 154.2473300
  38.0004010  15.8605800 154.1665320  38.2517240  14.4661750 153.6332870
  35.4570000  19.5329210 150.1164950  35.2310920  19.3166380 151.0211570
  34.6762530  19.9657670 149.7710920  42.6867760  19.5392580 148.7155600
  42.0876650  20.2628380 148.5319220  43.2347370  19.4769360 147.9332050
  41.2932630  18.1756120 150.7458880  41.6862200  18.4928320 149.9327570
  41.6549480  17.2968000 150.8603400  30.3296800  14.7656920 152.9689080
  30.0409850  15.3359780 153.6814060  31.0742560  14.2861370 153.3320310
  30.5167030  18.7077040 144.1791800  30.4341700  19.6507800 144.3206790
  30.1650090  18.5651950 143.3004150  38.3165160  17.4416070 153.2462150
  38.3201220  17.0006020 152.3966690  39.2116280  17.7633400 153.3533970
  34.1667540  17.3242560 152.2056360  33.8267590  17.8017790 152.9623410
  33.4044860  16.8707680 151.8457460  38.3785310  18.4428150 146.2368910
  38.4998130  18.4014630 147.1854730  37.9933820  19.3052300 146.0815640
  37.3906810  20.7529290 145.6352210  36.8223710  20.3047540 145.0088120
  38.0995810  21.1122070 145.1017360  31.4813620  16.2461540 151.1221030
  31.1960540  15.8817210 151.9599650  31.4192480  15.5142000 150.5084170
  34.9354290  24.7487480 147.9078620  34.1616550  24.2085100 147.7477340
  35.6648920  24.2294090 147.5696380  45.6942270  23.7452840 153.7005010
  46.4141390  24.2408130 153.3101120  45.4924090  23.0670730 153.0558880
  41.1552210  15.1390800 147.8434400  40.3416820  14.6403970 147.7679710
  40.9614160  15.9789050 147.4270750  43.8700600  19.5110450 146.1396560
  44.7580220  19.8227680 145.9647900  43.8405690  18.6382700 145.7477140
  34.9791690  24.4167860 151.5457430  35.4970360  23.6136120 151.4914320
  34.5275710  24.3547000 152.3874260  39.8661190  25.6834140 146.8184730
  40.2076890  26.4276370 146.3228050  39.0373900  25.9965260 147.1809560
  46.1414870  20.8222290 145.6076420  46.0578590  21.2536510 144.7572860
  46.8609060  21.2820640 146.0403240  47.1702120  27.6764550 148.3358550
  46.5278280  27.0220170 148.6102270  46.7832780  28.0819640 147.5599220
  42.7488600  25.0049980 152.1830240  43.1012420  24.4078110 151.5231610
  41.8650930  24.6794210 152.3538490  38.8351880  25.7647670 149.5900650
  39.5223010  26.3116880 149.9708240  38.0484300  26.3088400 149.6250260
  30.9744280  21.3820490 145.0817730  31.8439130  21.6645290 145.3653650
  30.4834600  22.1956360 144.9666540  38.1379090  22.7693700 149.2026010
  38.5941870  23.5798950 149.4286200  37.7867300  22.4516840 150.0344500
  34.0390870  13.1131350 149.6748530  33.9105500  13.1049250 150.6233450
  33.2152890  13.4514440 149.3239540  45.5599500  26.5681010 144.8734900
  45.3337080  25.8511450 145.4659540  45.1695700  26.3193450 144.0356650
  31.3415530  30.5947870 145.6479360  31.7013170  31.1937210 144.9936630
  31.2007870  31.1407760 146.4214390  45.1415750  24.4852950 146.5349060
  44.8537450  24.9465640 147.3226940  45.9367920  24.0250720 146.8033280
  37.3584150  27.9779070 146.4653030  37.3494250  28.7108760 145.8497540
  36.4382510  27.7310650 146.5579990  32.9590790  23.1993960 147.2099790
  32.3518740  23.9392860 147.2195090  33.4340140  23.2893320 146.3837990
  45.8985610  16.3201720 147.6944240  45.2698770  16.4247390 146.9802470
  45.4037530  16.5398500 148.4838120  40.3443750  28.0407310 145.1278220
  40.4455730  27.8371300 144.1980200  39.4445490  27.7865590 145.3326000
  37.8669640  18.5987670 149.1102120  37.1585790  19.0674010 149.5515730
  38.1514120  17.9409680 149.7447310  41.8985070  15.3238330 150.5497910
  41.7752850  15.3424460 149.6007420  42.8469630  15.3717270 150.6696310
  38.9861860  30.5593630 149.8225890  39.2403360  30.5215020 148.9005260
  38.0374340  30.4326960 149.8154140  36.0704660  16.9072750 146.4852830
  36.9195190  17.3442900 146.4193020  35.7035930  17.2193010 147.3124890
  44.9914440  21.4785510 151.3984400  44.0504580  21.4935740 151.5732090
  45.3058510  20.6921470 151.8444700  34.9696080  23.1605110 144.9588360
  35.7359350  23.0486470 145.5213790  35.0470770  22.4643080 144.3065130
  33.6642840  20.5930180 145.6421250  33.7446430  19.6457690 145.7538650
  34.5562590  20.9237060 145.7481910  46.9940020  28.6494360 153.0738660
  47.1187440  29.4725530 153.5462470  47.8605580  28.4385090 152.7262810
  34.4657550  30.7425570 152.7455790  35.2020030  30.1941030 153.0164360
  34.8498470  31.6081580 152.6061780  31.3503030  26.8099140 148.6197300
  30.4242810  27.0520280 148.6102710  31.8159460  27.6373400 148.4982050
  37.5759860  29.9155880 144.5681360  38.3688470  30.2044710 144.1163150
  37.0564210  29.4848050 143.8893840  46.6290030  29.1426010 145.9918100
  46.3431540  28.7291150 145.1772280  46.4309580  30.0713720 145.8718620
  38.0937260  25.1359290 144.4323710  37.9887900  24.5211640 145.1585090
  37.9261480  24.6125180 143.6486720  41.3339990  24.1979320 145.0365700
  40.7850090  24.6448620 145.6808440  41.9559250  23.6928570 145.5603370
  37.0015110  23.1570240 146.9331000  37.4231530  22.9910110 147.7762390
  37.1265950  22.3470470 146.4386140  39.5142750  22.1807850 144.1808100
  40.0348410  21.4656870 143.8149250  40.1611150  22.8193720 144.4808610
  35.8974010  19.2303470 143.8789160  35.6963070  18.3670830 144.2402500
  35.7266060  19.1436830 142.9410760  43.3762320  14.0411700 146.4076040
  43.6564610  13.1979600 146.7635460  42.6028050  14.2734810 146.9214790
  34.6956810  16.3304090 143.8667040  34.9982710  16.3371520 142.9586190
  35.4351400  15.9801950 144.3634700  37.9141740  15.2738710 144.8523240
  37.5663740  14.5962700 144.2725690  38.1154510  14.8128220 145.6666630
  40.0790780  30.2619460 146.4709840  40.9741570  30.6004430 146.4928600
  40.1108410  29.5398870 145.8434120  33.7186940  25.6346510 144.6996840
  34.1561810  26.1776180 145.3554420  34.2034670  24.8093460 144.7093180
  30.9332740  28.4235540 152.1517100  31.2635750  27.5556600 151.9195740
  31.3623740  28.6294060 152.9822060  35.5294660  26.7544550 149.8119070
  35.2290200  26.6309520 150.7122980  35.4232150  25.8953140 149.4034800
  48.2986580  26.5340950 144.5145750  47.4679540  26.6017600 144.9852980
  48.4758410  27.4245070 144.2112610  47.7543040  23.2788430 147.0179950
  48.5161950  23.8485080 147.1239640  47.7697410  22.7115630 147.7888260
  31.2547380  21.8026360 151.2487610  30.5996220  21.5338000 150.6047310
  32.0925330  21.6930840 150.7989590  48.7603010  24.1338530 151.8621880
  49.1311840  23.3505850 151.4557850  49.4004940  24.8227630 151.6839180
  47.8062210  23.5722800 144.1752470  48.0811050  24.4801680 144.0471690
  47.6172950  23.5085330 145.1114460  44.2037820  16.5967650 145.4706100
  44.6222700  16.4098630 144.6302760  43.8973880  15.7446700 145.7809030
  47.7027550  21.5091790 149.1681900  47.3271150  20.7419720 148.7363190
  46.9730670  21.8914490 149.6556830  30.4685460  19.0125290 147.1912940
  29.5649540  19.2755490 147.0164600  30.9526080  19.2836460 146.4112900
  46.9778510  19.7349280 152.4689140  47.5015990  19.2411930 151.8379310
  47.5637930  19.8699640 153.2136710  33.0112670  18.0690830 145.1007320
  33.7204370  17.6474050 144.6154600  32.2952610  18.1366060 144.4690670
  32.6586830  14.1230160 144.1409970  33.3814960  14.6639100 144.4591190
  32.9311350  13.8493580 143.2651510  46.4678480  18.9922630 148.4081550
  46.9637600  18.7593500 149.1930430  46.2694550  18.1534470 147.9919190
  47.8965640  17.6283580 150.9419230  47.7864920  17.4739620 151.8801500
  48.6573230  17.1004520 150.6994640  48.7855910  15.4591500 144.1825370
  49.7105220  15.3272680 143.9743660  48.7631700  15.5384320 145.1361820
  48.8594400  16.2302160 146.8082080  48.0645900  16.1647280 147.3374990
  49.0637680  17.1652800 146.7967430  45.8012820  30.2693710 150.8020470
  46.3971890  29.9478280 150.1254890  46.0590970  29.7965530 151.5933740
  36.7820750  29.2277250 153.8066330  37.2985770  28.6164610 153.2814590
  37.4318130  29.7306030 154.2977340  45.2914330  14.5599040 153.2580910
  45.7322420  14.5044140 152.4102510  45.0221920  15.4757050 153.3291090
  47.1552900  14.1914280 151.2689730  47.0941300  13.2475500 151.1220750
  47.9344930  14.2994370 151.8143190  31.4605650  30.3306640 150.2313680
  31.2927690  29.6977320 150.9295570  30.5940160  30.5366040 149.8807870
  32.0833670  14.1623420 147.7345540  32.8413030  14.2752300 147.1609570
  31.6210840  14.9992620 147.6888970  38.6247480  16.2762690 150.7247850
  37.8121990  15.9019580 150.3843730  39.1289120  15.5207770 151.0269040
  43.1272460  12.9405140 151.9630920  43.7301830  13.5125350 152.4379440
  42.3865450  13.5044580 151.7404820  46.2707060  13.3426700 147.2371200
  46.4657690  14.2410150 147.5038630  45.4836930  13.1113780 147.7304150
  33.0668350  29.0239870 147.6763820  32.5415970  29.4047900 146.9725780
  32.9912930  29.6490640 148.3973530  34.4558820  14.6887470 146.2747510
  34.9851580  13.9017270 146.1455460  35.0887140  15.3678660 146.5083040
  36.6496660  14.4262610 149.3292900  36.0199400  13.7249920 149.4963030
  36.1101800  15.1866740 149.1126060  47.8233670  30.5827410 148.9977760
  47.9985860  29.8965150 148.3538680  47.1255240  31.1074460 148.6054430
  35.6661320  30.9722250 146.5513070  36.3980140  30.6881530 146.0036960
  35.9254990  30.7335530 147.4412450  34.8276110  27.0886980 146.5559400
  34.1984990  27.5572080 147.1045230  34.9423940  26.2436200 146.9905590
  42.2825830  21.1392640 132.7060600  42.2019880  20.2247250 132.4352310
  41.8690250  21.6359710 132.0000310  40.4143870  22.9171660 134.5869870
  39.6385970  22.4372100 134.8768440  41.0656800  22.2377310 134.4126030
  34.4309700  23.2291470 135.4645630  33.5994580  22.9740180 135.8642140
  35.0390680  23.3002240 136.2003550  44.4351300  27.3231850 133.3669000
  43.9732830  26.5519090 133.6956170  45.2476850  27.3497920 133.8721450
  34.4110960  27.2631560 135.6603650  34.7139000  26.3729300 135.4813870
  35.1554550  27.8201780 135.4325900  32.8401650  18.1893360 129.2488020
  31.9518350  18.5309330 129.1467900  33.1242840  17.9893680 128.3568850
  30.8034660  20.7899010 135.1327720  31.3750770  20.0221210 135.1331360
  30.8036200  21.0887770 134.2234330  40.6614610  29.6089860 132.9872990
  40.0426050  30.0647360 132.4167430  41.5166390  29.7641320 132.5862690
  39.8552860  25.5928850 134.5940030  39.7861140  24.6518790 134.4329160
  40.6172720  25.6830260 135.1662600  32.0459530  16.1983370 136.9196650
  31.8662370  15.3009120 137.1999410  31.6439610  16.7455240 137.5943600
  40.8858030  18.3999230 134.8208960  41.2622850  17.5271110 134.7082630
  40.7877540  18.7357930 133.9299400  35.0163040  16.7724860 130.2826400
  35.1229790  17.6728590 130.5895160  34.1055400  16.7242830 129.9921050
  44.6682150  15.8949670 131.7537300  45.4891770  15.4046240 131.7962780
  44.7016230  16.4847330 132.5069140  32.6646200  18.6943870 135.5278990
  33.3456310  18.9582240 136.1466390  32.3494250  17.8544740 135.8617000
  36.8570770  19.7411230 134.6151580  37.3648990  20.2392200 135.2556600
  37.3884010  18.9646430 134.4390940  48.9581700  17.9116420 138.3180930
  48.2533870  18.2998130 137.7996040  49.2239620  18.6066710 138.9201860
  35.1406870  14.3809790 138.8815000  35.1425310  14.8982180 138.0760900
  34.3111180  13.9039970 138.8584930  41.5277960  24.4929100 130.3804900
  40.9095230  24.9578550 129.8167620  42.0401210  25.1856580 130.7974410
  36.3909720  24.0204970 137.0588500  36.0579100  24.6473890 137.7009570
  36.5676400  24.5466850 136.2790170  44.9043630  17.8350050 134.5264840
  44.1999200  18.1234940 135.1067950  45.2655790  18.6450160 134.1664400
  34.8222200  16.0919750 136.8885450  35.1639010  16.9361800 136.5939320
  33.8838010  16.2403490 137.0050790  35.6028820  25.9885770 138.8737680
  36.2202820  26.6636850 138.5922130  34.7421940  26.3973750 138.7825180
  30.8961160  25.1785630 127.7544530  30.5189140  25.6672730 127.0229430
  31.1534230  25.8510910 128.3851060  46.5206410  27.4525180 136.7892320
  45.8369930  28.1224290 136.7808990  47.0600700  27.6505830 136.0237180
  47.9730550  17.2804840 134.9174050  47.0255460  17.3143820 135.0489480
  48.2980540  18.0943790 135.3023410  38.5050090  13.5802020 133.2130040
  38.8125070  13.0248910 132.4965540  37.5750790  13.7146480 133.0303030
  44.0565150  29.2969310 135.5037500  44.0692310  28.8931600 134.6359760
  43.5040370  30.0716600 135.3998930  45.3510570  26.0185530 130.5927670
  45.2406900  25.0759860 130.7177090  45.3478820  26.3801170 131.4790430
  43.4550590  24.1999150 136.8320110  43.8719380  23.9859260 135.9973570
  44.1790410  24.4571940 137.4028730  40.8930850  21.6450850 129.9490160
  39.9660130  21.5788230 130.1778630  41.0455670  22.5830980 129.8345400
  40.8799930  17.9167850 126.9457320  39.9403600  18.0781810 127.0309780
  41.1983190  18.6353530 126.3993310  47.4012690  22.5986370 136.9236350
  46.5731320  22.6679460 136.4486480  47.9963170  23.1840680 136.4552180
  44.9228140  23.2071150 130.4525410  44.3040560  22.8690700 129.8051710
  44.9052590  22.5630910 131.1604600  44.3654700  19.3855690 137.8691220
  43.9525880  20.2109400 138.1231210  43.6330650  18.8000730 137.6767580
  36.4987490  22.1715590 132.7309890  36.0944490  21.4592840 132.2355790
  36.5850610  21.8268830 133.6197930  36.9669190  25.8583150 134.8949100
  36.6697480  25.2528620 134.2156880  37.9169010  25.8960460 134.7838460
  35.2116110  18.9458800 136.5108930  35.7630700  19.0554140 135.7362180
  35.7259620  19.3196400 137.2264160  45.0554800  29.4315020 138.5572200
  44.5785360  30.2387210 138.3644810  44.3716590  28.7793350 138.7098410
  36.0587620  25.5964840 141.5456900  35.1616150  25.8204810 141.7930300
  36.0840490  25.7199780 140.5968300  43.0992840  22.4457960 127.4598160
  43.5386120  21.6080390 127.3135980  43.8121260  23.0787360 127.5462300
  34.8858840  22.4678160 140.1214270  34.7466610  23.3400960 140.4901670
  34.0040200  22.1250970 139.9762210  41.2088220  27.3854030 131.4279400
  41.6484130  28.1278360 131.0134790  41.1475110  27.6280600 132.3518360
  36.6839190  28.4099860 142.3299420  36.6554620  28.8142810 141.4627850
  36.5204160  27.4810220 142.1671020  46.6809980  13.7000770 125.7739200
  46.3682640  13.7927600 126.6738270  47.4422450  14.2781800 125.7236630
  33.1992120  21.0660570 130.2316540  33.0789720  21.7922660 129.6197810
  32.8893010  20.2963480 129.7544450  48.6354010  29.1926960 143.6263590
  49.1113730  29.6709850 144.3052670  49.2561170  29.1244450 142.9009090
  30.8377490  24.2375710 136.0385180  30.9157910  24.3724480 135.0940900
  31.4519170  23.5291600 136.2313300  32.0825120  25.9375900 132.4491360
  31.6753200  26.0790490 131.5944960  32.9738130  25.6536060 132.2462570
  48.0387260  26.3839810 140.7863600  48.1650320  26.1451690 139.8680780
  48.0808640  25.5524350 141.2585680  41.9004000  30.0867810 139.3558410
  42.4148670  29.9975820 140.1580840  41.0573080  30.4327510 139.6486320
  43.8758400  30.3723150 128.7842410  43.7159540  30.0826090 129.6824240
  43.7105110  29.5963280 128.2487640  36.3546780  30.1521680 130.5614030
  36.1789260  29.2357220 130.3481830  35.5002520  30.5108970 130.8011830
  43.5784530  27.8810710 127.3440410  42.8849690  27.8788000 126.6842690
  44.3207390  27.4570030 126.9134580  43.1434460  29.5073420 131.4188900
  43.5991410  28.7262800 131.7327520  43.4826980  30.2180240 131.9630080
  47.8911270  18.4372270 141.7513340  47.2755540  18.9451940 141.2228800
  47.5707690  17.5370600 141.6939280  30.8937010  25.2789880 138.5779640
  31.0568050  24.8095240 137.7599010  31.3589460  24.7713440 139.2428480
  35.6655780  14.4095640 133.6140210  35.2223930  15.1905180 133.2824730
  36.2240770  14.7325530 134.3211150  39.9525590  17.2764160 139.2175530
  39.4904960  17.4847180 140.0295470  39.5503700  16.4623510 138.9146200
  44.9530100  18.4973110 140.3472190  44.1023690  18.1978860 140.6681260
  44.7931890  18.7415120 139.4356010  42.0479810  19.9974860 142.4470980
  42.3733220  19.1638610 142.1073210  42.8360140  20.5203380 142.5949310
  38.7814600  14.0306340 128.4946040  38.1568780  14.0266210 129.2199350
  38.6944720  13.1637300 128.0982010  37.7031680  14.9542970 135.4729810
  38.0004010  15.8605800 135.3921830  38.2517240  14.4661750 134.8589380
  35.4570000  19.5329210 131.3421460  35.2310920  19.3166380 132.2468080
  34.6762530  19.9657670 130.9967430  42.6867760  19.5392580 129.9412110
  42.0876650  20.2628380 129.7575730  43.2347370  19.4769360 129.1588560
  37.8969210  20.4314790 142.0081730  37.8012810  19.4909520 141.8582130
  38.7401190  20.6529860 141.6129800  41.2932630  18.1756120 131.9715390
  41.6862200  18.4928320 131.1584080  41.6549480  17.2968000 132.0859910
  33.0279750  16.8428460 140.1615510  32.6343140  17.6903670 140.3688290
  32.3398150  16.2054830 140.3524150  39.6024800  16.9263430 143.2312250
  38.9123120  16.7335630 143.8658340  40.3457100  17.2098070 143.7636550
  30.3296800  14.7656920 134.1945590  30.0409850  15.3359780 134.9070570
  31.0742560  14.2861370 134.5576820  30.5167030  18.7077040 125.4048310
  30.4341700  19.6507800 125.5463300  30.1650090  18.5651950 124.5260660
  41.8787770  20.7661870 136.0666170  41.1468890  21.2748680 136.4156270
  41.4812110  19.9491850 135.7654950  38.3165160  17.4416070 134.4718660
  38.3201220  17.0006020 133.6223200  39.2116280  17.7633400 134.5790480
  34.1667540  17.3242560 133.4312870  33.8267590  17.8017790 134.1879920
  33.4044860  16.8707680 133.0713970  38.3785310  18.4428150 127.4625420
  38.4998130  18.4014630 128.4111240  37.9933820  19.3052300 127.3072150
  42.3413680  16.2195550 135.4789110  42.3586420  16.6704200 136.3230960
  42.0929260  15.3201190 135.6922550  37.3906810  20.7529290 126.8608720
  36.8223710  20.3047540 126.2344630  38.0995810  21.1122070 126.3273870
  45.7684430  13.6327730 141.3175490  46.0930200  12.9017390 141.8433470
  45.8040940  13.3141370 140.4156480  32.4675990  24.6541310 140.7375450
  32.0830780  24.0134980 141.3358410  32.7788180  25.3577430 141.3070180
  38.6173130  21.5017850 136.2184070  38.9843260  21.0276420 136.9645410
  38.4278190  22.3759420 136.5592410  31.4813620  16.2461540 132.3477540
  31.1960540  15.8817210 133.1856160  31.4192480  15.5142000 131.7340680
  36.4072500  20.5426490 138.5368280  36.1029570  21.4218470 138.7618640
  37.3618960  20.6026280 138.5725720  34.9354290  24.7487480 129.1335130
  34.1616550  24.2085100 128.9733850  35.6648920  24.2294090 128.7952890
  45.6942270  23.7452840 134.9261520  46.4141390  24.2408130 134.5357630
  45.4924090  23.0670730 134.2815390  41.1552210  15.1390800 129.0690910
  40.3416820  14.6403970 128.9936220  40.9614160  15.9789050 128.6527260
  41.0761070  23.8161900 140.8130520  41.0098380  22.8957570 140.5588110
  40.4466210  23.9137340 141.5275160  43.8700600  19.5110450 127.3653070
  44.7580220  19.8227680 127.1904410  43.8405690  18.6382700 126.9733650
  34.9791690  24.4167860 132.7713940  35.4970360  23.6136120 132.7170830
  34.5275710  24.3547000 133.6130770  39.8661190  25.6834140 128.0441240
  40.2076890  26.4276370 127.5484560  39.0373900  25.9965260 128.4066070
  32.4636230  21.3829230 139.6839640  32.1051170  22.0483080 140.2712980
  32.1690790  20.5512780 140.0552260  35.6649350  21.8413470 142.5679190
  35.3649490  21.9870650 141.6707010  36.4360590  21.2818760 142.4752580
  41.0077800  26.6382470 140.5634320  41.0222340  25.7063430 140.3453230
  40.3002900  26.7242230 141.2024090  46.1414870  20.8222290 126.8332930
  46.0578590  21.2536510 125.9829370  46.8609060  21.2820640 127.2659750
  47.2189010  23.2789810 139.9102900  46.4937200  23.8718590 139.7132290
  47.7464470  23.2713350 139.1116270  47.1702120  27.6764550 129.5615060
  46.5278280  27.0220170 129.8358780  46.7832780  28.0819640 128.7855730
  42.7488600  25.0049980 133.4086750  43.1012420  24.4078110 132.7488120
  41.8650930  24.6794210 133.5795000  38.8351880  25.7647670 130.8157160
  39.5223010  26.3116880 131.1964750  38.0484300  26.3088400 130.8506770
  30.9744280  21.3820490 126.3074240  31.8439130  21.6645290 126.5910160
  30.4834600  22.1956360 126.1923050  38.1379090  22.7693700 130.4282520
  38.5941870  23.5798950 130.6542710  37.7867300  22.4516840 131.2601010
  40.4411700  28.2800040 137.6574820  41.0853920  28.4859420 138.3348240
  40.8041140  27.5188440 137.2045670  34.0390870  13.1131350 130.9005040
  33.9105500  13.1049250 131.8489960  33.2152890  13.4514440 130.5496050
  41.7143780  26.2832390 136.3752270  42.3566010  25.5825550 136.4884440
  42.2393130  27.0630830 136.1949160  45.5599500  26.5681010 126.0991410
  45.3337080  25.8511450 126.6916050  45.1695700  26.3193450 125.2613160
  43.4881400  27.0827290 139.5788330  43.8237640  27.6693980 140.2566250
  42.5681740  26.9520000 139.8086120  31.3415530  30.5947870 126.8735870
  31.7013170  31.1937210 126.2193140  31.2007870  31.1407760 127.6470900
  31.0384800  14.8722470 140.3611740  30.3243320  15.0719390 140.9664350
  31.4579840  14.0962040 140.7326540  45.1415750  24.4852950 127.7605570
  44.8537450  24.9465640 128.5483450  45.9367920  24.0250720 128.0289790
  31.3257390  28.8602730 141.3478270  31.4348510  27.9197470 141.2073660
  30.6737950  29.1257480 140.6992000  39.3169980  27.1318620 142.7476390
  38.9966850  26.4127860 143.2922080  38.6428340  27.8073690 142.8212450
  37.3584150  27.9779070 127.6909540  37.3494250  28.7108760 127.0754050
  36.4382510  27.7310650 127.7836500  32.9590790  23.1993960 128.4356300
  32.3518740  23.9392860 128.4451600  33.4340140  23.2893320 127.6094500
  42.5323580  17.3644780 138.1113190  42.9004400  16.5439990 138.4392760
  41.6721780  17.4246670 138.5268840  45.8985610  16.3201720 128.9200750
  45.2698770  16.4247390 128.2058980  45.4037530  16.5398500 129.7094630
  40.3443750  28.0407310 126.3534730  40.4455730  27.8371300 125.4236710
  39.4445490  27.7865590 126.5582510  37.8669640  18.5987670 130.3358630
  37.1585790  19.0674010 130.7772240  38.1514120  17.9409680 130.9703820
  39.4925570  20.0184370 138.3351160  39.9910820  20.4930190 139.0003010
  39.6348520  19.0947890 138.5421190  41.8985070  15.3238330 131.7754420
  41.7752850  15.3424460 130.8263930  42.8469630  15.3717270 131.8952820
  38.9861860  30.5593630 131.0482400  39.2403360  30.5215020 130.1261770
  38.0374340  30.4326960 131.0410650  36.0704660  16.9072750 127.7109340
  36.9195190  17.3442900 127.6449530  35.7035930  17.2193010 128.5381400
  46.6992430  16.2352330 139.1779550  46.1966030  16.9757730 139.5173360
  47.5149090  16.6236330 138.8616340  44.9914440  21.4785510 132.6240910
  44.0504580  21.4935740 132.7988600  45.3058510  20.6921470 133.0701210
  34.9696080  23.1605110 126.1844870  35.7359350  23.0486470 126.7470300
  35.0470770  22.4643080 125.5321640  33.6642840  20.5930180 126.8677760
  33.7446430  19.6457690 126.9795160  34.5562590  20.9237060 126.9738420
  46.9940020  28.6494360 134.2995170  47.1187440  29.4725530 134.7718980
  47.8605580  28.4385090 133.9519320  34.4657550  30.7425570 133.9712300
  35.2020030  30.1941030 134.2420870  34.8498470  31.6081580 133.8318290
  31.3503030  26.8099140 129.8453810  30.4242810  27.0520280 129.8359220
  31.8159460  27.6373400 129.7238560  33.4715830  29.9271640 143.1597880
  34.2728560  30.2483690 143.5733280  32.9567650  29.5667220 143.8817790
  37.5759860  29.9155880 125.7937870  38.3688470  30.2044710 125.3419660
  37.0564210  29.4848050 125.1150350  42.3080460  26.0351510 143.1073290
  41.7018620  26.0583110 142.3669040  42.0034570  25.3034550 143.6440540
  43.7380830  29.7631800 141.7182700  44.6902580  29.6789820 141.6682940
  43.5909050  30.4273510 142.3916490  46.6290030  29.1426010 127.2174610
  46.3431540  28.7291150 126.4028790  46.4309580  30.0713720 127.0975130
  31.1913640  22.4145100 142.1033930  31.6952660  21.8352380 142.6750160
  30.4521060  22.6985330 142.6410300  38.0937260  25.1359290 125.6580220
  37.9887900  24.5211640 126.3841600  37.9261480  24.6125180 124.8743230
  38.2451580  23.8216090 141.6369450  37.4797250  24.3901090 141.5524120
  38.4267540  23.5292300 140.7437680  41.3339990  24.1979320 126.2622210
  40.7850090  24.6448620 126.9064950  41.9559250  23.6928570 126.7859880
  45.3874930  25.5521420 142.1944470  46.1284400  25.8897180 141.6911930
  44.6247610  25.7213480 141.6414240  33.2236720  20.5574690 142.9984000
  33.2642060  20.2588560 143.9069230  34.0782220  20.9582300 142.8391520
  37.0015110  23.1570240 128.1587510  37.4231530  22.9910110 129.0018900
  37.1265950  22.3470470 127.6642650  35.1642530  19.1366790 140.9658490
  34.6338990  18.6457740 140.3381830  35.8330600  19.5650990 140.4316420
  39.5142750  22.1807850 125.4064610  40.0348410  21.4656870 125.0405760
  40.1611150  22.8193720 125.7065120  44.0620590  23.6036250 140.7299680
  44.4761610  23.7581330 141.5790100  43.1271590  23.7291470 140.8925460
  44.5342760  20.9432410 142.7338830  45.1163530  20.1884730 142.6459310
  44.7104530  21.4739850 141.9570310  35.6514830  16.1029160 141.0455780
  35.5571700  15.4849910 140.3206650  35.0712220  16.8295450 140.8185690
  38.4176270  14.6602400 138.0783170  37.9693570  14.6826660 137.2328720
  37.7841470  14.2621420 138.6753470  38.8235820  23.5556730 138.6995610
  39.2423930  24.3989460 138.5271850  37.9044450  23.6928770 138.4702390
  41.1599720  21.2872910 140.0833450  41.2795930  20.6914050 140.8228290
  42.0193720  21.3242600 139.6634750  43.4987620  21.8410100 138.6595960
  42.9722840  22.3652720 138.0561100  43.8418960  22.4737490 139.2905690
  35.8974010  19.2303470 125.1045670  35.6963070  18.3670830 125.4659010
  35.7266060  19.1436830 124.1667270  36.6743240  29.8609740 139.8153340
  36.1364330  30.5855800 139.4962040  36.9277200  29.3840080 139.0250680
  37.9268490  17.8294260 141.3409270  38.5168180  17.5210110 142.0287090
  37.1088730  17.3574010 141.4969170  42.7461920  17.4460070 141.5742290
  42.0577440  16.7841610 141.5092280  43.4667940  16.9998340 142.0190750
  43.3762320  14.0411700 127.6332550  43.6564610  13.1979600 127.9891970
  42.6028050  14.2734810 128.1471300  34.6956810  16.3304090 125.0923550
  34.9982710  16.3371520 124.1842700  35.4351400  15.9801950 125.5891210
  39.5305450  31.0960950 140.0739990  39.4564150  31.9996090 140.3812360
  38.6284290  30.7772850 140.0462060  37.9141740  15.2738710 126.0779750
  37.5663740  14.5962700 125.4982200  38.1154510  14.8128220 126.8923140
  40.0790780  30.2619460 127.6966350  40.9741570  30.6004430 127.7185110
  40.1108410  29.5398870 127.0690630  33.7186940  25.6346510 125.9253350
  34.1561810  26.1776180 126.5810930  34.2034670  24.8093460 125.9349690
  30.9332740  28.4235540 133.3773610  31.2635750  27.5556600 133.1452250
  31.3623740  28.6294060 134.2078570  35.5294660  26.7544550 131.0375580
  35.2290200  26.6309520 131.9379490  35.4232150  25.8953140 130.6291310
  31.4222950  29.2906130 136.1155240  30.9853940  29.4706930 136.9479390
  31.9900630  30.0480750 135.9736960  47.0585130  28.7923130 140.4032550
  46.4587120  28.8515690 139.6596470  47.1879030  27.8528110 140.5329400
  48.2986580  26.5340950 125.7402260  47.4679540  26.6017600 126.2109490
  48.4758410  27.4245070 125.4369120  47.7543040  23.2788430 128.2436460
  48.5161950  23.8485080 128.3496150  47.7697410  22.7115630 129.0144770
  31.2547380  21.8026360 132.4744120  30.5996220  21.5338000 131.8303820
  32.0925330  21.6930840 132.0246100  48.7603010  24.1338530 133.0878390
  49.1311840  23.3505850 132.6814360  49.4004940  24.8227630 132.9095690
  45.7436770  25.5175110 138.5008710  44.9296610  25.9472270 138.7634500
  46.1510970  26.1293520 137.8877760  47.8062210  23.5722800 125.4008980
  48.0811050  24.4801680 125.2728200  47.6172950  23.5085330 126.3370970
  44.2037820  16.5967650 126.6962610  44.6222700  16.4098630 125.8559270
  43.8973880  15.7446700 127.0065540  47.7027550  21.5091790 130.3938410
  47.3271150  20.7419720 129.9619700  46.9730670  21.8914490 130.8813340
  32.2923310  22.1878930 137.0147460  32.6596350  22.1006330 137.8943480
  31.7234130  21.4245480 136.9154320  47.0927170  20.6563310 140.0277930
  46.8613260  20.4276060 139.1275880  47.3531720  21.5762860 139.9822820
  31.8439310  19.0988020 140.9205880  30.9495360  19.0654780 141.2599590
  32.3836860  19.2974810 141.6857130  45.5315240  15.8819740 142.8057630
  46.4085420  15.8903140 143.1891630  45.5436080  15.1450580 142.1949980
  30.4685460  19.0125290 128.4169450  29.5649540  19.2755490 128.2421110
  30.9526080  19.2836460 127.6369410  46.9778510  19.7349280 133.6945650
  47.5015990  19.2411930 133.0635820  47.5637930  19.8699640 134.4393220
  47.1568230  19.8189150 137.2165200  46.2070940  19.7852690 137.3310190
  47.3381240  20.7289260 136.9814970  33.0112670  18.0690830 126.3263830
  33.7204370  17.6474050 125.8411110  32.2952610  18.1366060 125.6947180
  32.6586830  14.1230160 125.3666480  33.3814960  14.6639100 125.6847700
  32.9311350  13.8493580 124.4908020  46.4678480  18.9922630 129.6338060
  46.9637600  18.7593500 130.4186940  46.2694550  18.1534470 129.2175700
  32.3479020  13.3736350 135.2689100  32.9955210  12.8233730 134.8284260
  32.7680860  13.6279500 136.0904910  47.8965640  17.6283580 132.1675740
  47.7864920  17.4739620 133.1058010  48.6573230  17.1004520 131.9251150
  46.2431360  13.5677710 138.6258740  46.8803580  14.1811850 138.9917930
  46.3906250  13.6038370 137.6807970  48.7855910  15.4591500 125.4081880
  49.7105220  15.3272680 125.2000170  48.7631700  15.5384320 126.3618330
  48.8594400  16.2302160 128.0338590  48.0645900  16.1647280 128.5631500
  49.0637680  17.1652800 128.0223940  45.8012820  30.2693710 132.0276980
  46.3971890  29.9478280 131.3511400  46.0590970  29.7965530 132.8190250
  32.1011020  13.5292020 138.0114420  31.7525840  13.9855840 138.7772600
  31.7698720  12.6349150 138.0936850  33.7075390  26.7011620 142.1767610
  33.6645020  26.3304530 143.0582070  33.8386400  27.6389190 142.3169430
  37.4081420  28.2571210 137.7777330  37.1672780  28.5245770 136.8907850
  38.3484060  28.4276940 137.8328190  39.6135840  14.7203900 141.5333840
  39.5524730  15.3125730 142.2829250  40.5536220  14.6129860 141.3884100
  42.2510400  14.3773960 141.1726130  42.8650810  14.6953250 140.5107210
  42.7959960  13.8922550 141.7921990  48.6685580  30.2765590 138.5787970
  48.1743860  30.6734460 137.8615100  48.0598870  29.6514800 138.9725250
  32.7731660  13.0568220 141.2865190  33.3214650  12.8756270 140.5231300
  32.8386970  12.2662330 141.8221500  33.5463420  29.6473870 139.2965390
  32.9523740  29.5158570 140.0355430  33.5387260  28.8112010 138.8307490
  42.9918440  12.9406100 137.4995420  42.1178280  13.2741210 137.2968350
  42.8829190  12.4679280 138.3247290  43.8990420  15.1476970 138.8837140
  43.5703780  14.3328730 138.5038870  44.8472720  15.1046780 138.7602830
  46.3525030  30.9189010 135.8574710  45.8928000  31.6704820 135.4832730
  45.7237490  30.1995480 135.7989510  33.1775650  27.0132250 138.2473430
  32.4509710  26.3937540 138.1799380  33.2384800  27.4072860 137.3771510
  36.7820750  29.2277250 135.0322840  37.2985770  28.6164610 134.5071100
  37.4318130  29.7306030 135.5233850  39.5216250  30.1185740 135.8591820
  39.8094060  29.8640040 134.9824830  40.0339470  29.5663100 136.4497390
  40.7393260  13.8575940 136.4388330  39.9565050  14.3321440 136.7185090
  40.4456190  12.9530770 136.3301510  45.2914330  14.5599040 134.4837420
  45.7322420  14.5044140 133.6359020  45.0221920  15.4757050 134.5547600
  47.1552900  14.1914280 132.4946240  47.0941300  13.2475500 132.3477260
  47.9344930  14.2994370 133.0399700  31.4605650  30.3306640 131.4570190
  31.2927690  29.6977320 132.1552080  30.5940160  30.5366040 131.1064380
  32.0833670  14.1623420 128.9602050  32.8413030  14.2752300 128.3866080
  31.6210840  14.9992620 128.9145480  38.6247480  16.2762690 131.9504360
  37.8121990  15.9019580 131.6100240  39.1289120  15.5207770 132.2525550
  43.1272460  12.9405140 133.1887430  43.7301830  13.5125350 133.6635950
  42.3865450  13.5044580 132.9661330  46.2707060  13.3426700 128.4627710
  46.4657690  14.2410150 128.7295140  45.4836930  13.1113780 128.9560660
  33.0668350  29.0239870 128.9020330  32.5415970  29.4047900 128.1982290
  32.9912930  29.6490640 129.6230040  34.4558820  14.6887470 127.5004020
  34.9851580  13.9017270 127.3711970  35.0887140  15.3678660 127.7339550
  36.6496660  14.4262610 130.5549410  36.0199400  13.7249920 130.7219540
  36.1101800  15.1866740 130.3382570  39.5888610  31.0401840 143.2260020
  40.5155920  30.8046110 143.2695980  39.5739040  31.8673840 142.7446050
  47.8233670  30.5827410 130.2234270  47.9985860  29.8965150 129.5795190
  47.1255240  31.1074460 129.8310940  36.7752220  13.7046590 142.9901900
  36.4936490  14.2080190 142.2262720  37.1571920  12.9068340 142.6244030
  35.6661320  30.9722250 127.7769580  36.3980140  30.6881530 127.2293470
  35.9254990  30.7335530 128.6668960  34.8276110  27.0886980 127.7815910
  34.1984990  27.5572080 128.3301740  34.9423940  26.2436200 128.2162100
  43.3767680  13.1200170 143.5682370  43.2633130  13.4394780 144.4633890
  44.1937420  13.5212680 143.2719650  46.1566170  30.2671700 143.0501060
  46.9491490  29.7720930 142.8427020  46.4499320  30.9461840 143.6576670
  42.2825830  21.1392640 113.9317110  42.2019880  20.2247250 113.6608820
  41.8690250  21.6359710 113.2256820  40.4143870  22.9171660 115.8126380
  39.6385970  22.4372100 116.1024950  41.0656800  22.2377310 115.6382540
  34.4309700  23.2291470 116.6902140  33.5994580  22.9740180 117.0898650
  35.0390680  23.3002240 117.4260060  44.4351300  27.3231850 114.5925510
  43.9732830  26.5519090 114.9212680  45.2476850  27.3497920 115.0977960
  34.4110960  27.2631560 116.8860160  34.7139000  26.3729300 116.7070380
  35.1554550  27.8201780 116.6582410  32.8401650  18.1893360 110.4744530
  31.9518350  18.5309330 110.3724410  33.1242840  17.9893680 109.5825360
  30.8034660  20.7899010 116.3584230  31.3750770  20.0221210 116.3587870
  30.8036200  21.0887770 115.4490840  40.6614610  29.6089860 114.2129500
  40.0426050  30.0647360 113.6423940  41.5166390  29.7641320 113.8119200
  39.8552860  25.5928850 115.8196540  39.7861140  24.6518790 115.6585670
  40.6172720  25.6830260 116.3919110  32.0459530  16.1983370 118.1453160
  31.8662370  15.3009120 118.4255920  31.6439610  16.7455240 118.8200110
  40.8858030  18.3999230 116.0465470  41.2622850  17.5271110 115.9339140
  40.7877540  18.7357930 115.1555910  35.0163040  16.7724860 111.5082910
  35.1229790  17.6728590 111.8151670  34.1055400  16.7242830 111.2177560
  44.6682150  15.8949670 112.9793810  45.4891770  15.4046240 113.0219290
  44.7016230  16.4847330 113.7325650  32.6646200  18.6943870 116.7535500
  33.3456310  18.9582240 117.3722900  32.3494250  17.8544740 117.0873510
  36.8570770  19.7411230 115.8408090  37.3648990  20.2392200 116.4813110
  37.3884010  18.9646430 115.6647450  48.9581700  17.9116420 119.5437440
  48.2533870  18.2998130 119.0252550  49.2239620  18.6066710 120.1458370
  35.1406870  14.3809790 120.1071510  35.1425310  14.8982180 119.3017410
  34.3111180  13.9039970 120.0841440  41.5277960  24.4929100 111.6061410
  40.9095230  24.9578550 111.0424130  42.0401210  25.1856580 112.0230920
  36.3909720  24.0204970 118.2845010  36.0579100  24.6473890 118.9266080
  36.5676400  24.5466850 117.5046680  44.9043630  17.8350050 115.7521350
  44.1999200  18.1234940 116.3324460  45.2655790  18.6450160 115.3920910
  34.8222200  16.0919750 118.1141960  35.1639010  16.9361800 117.8195830
  33.8838010  16.2403490 118.2307300  35.6028820  25.9885770 120.0994190
  36.2202820  26.6636850 119.8178640  34.7421940  26.3973750 120.0081690
  30.8961160  25.1785630 108.9801040  30.5189140  25.6672730 108.2485940
  31.1534230  25.8510910 109.6107570  46.5206410  27.4525180 118.0148830
  45.8369930  28.1224290 118.0065500  47.0600700  27.6505830 117.2493690
  47.9730550  17.2804840 116.1430560  47.0255460  17.3143820 116.2745990
  48.2980540  18.0943790 116.5279920  38.5050090  13.5802020 114.4386550
  38.8125070  13.0248910 113.7222050  37.5750790  13.7146480 114.2559540
  44.0565150  29.2969310 116.7294010  44.0692310  28.8931600 115.8616270
  43.5040370  30.0716600 116.6255440  45.3510570  26.0185530 111.8184180
  45.2406900  25.0759860 111.9433600  45.3478820  26.3801170 112.7046940
  43.4550590  24.1999150 118.0576620  43.8719380  23.9859260 117.2230080
  44.1790410  24.4571940 118.6285240  40.8930850  21.6450850 111.1746670
  39.9660130  21.5788230 111.4035140  41.0455670  22.5830980 111.0601910
  40.8799930  17.9167850 108.1713830  39.9403600  18.0781810 108.2566290
  41.1983190  18.6353530 107.6249820  47.4012690  22.5986370 118.1492860
  46.5731320  22.6679460 117.6742990  47.9963170  23.1840680 117.6808690
  44.9228140  23.2071150 111.6781920  44.3040560  22.8690700 111.0308220
  44.9052590  22.5630910 112.3861110  44.3654700  19.3855690 119.0947730
  43.9525880  20.2109400 119.3487720  43.6330650  18.8000730 118.9024090
  36.4987490  22.1715590 113.9566400  36.0944490  21.4592840 113.4612300
  36.5850610  21.8268830 114.8454440  36.9669190  25.8583150 116.1205610
  36.6697480  25.2528620 115.4413390  37.9169010  25.8960460 116.0094970
  35.2116110  18.9458800 117.7365440  35.7630700  19.0554140 116.9618690
  35.7259620  19.3196400 118.4520670  45.0554800  29.4315020 119.7828710
  44.5785360  30.2387210 119.5901320  44.3716590  28.7793350 119.9354920
  36.0587620  25.5964840 122.7713410  35.1616150  25.8204810 123.0186810
  36.0840490  25.7199780 121.8224810  43.0992840  22.4457960 108.6854670
  43.5386120  21.6080390 108.5392490  43.8121260  23.0787360 108.7718810
  34.8858840  22.4678160 121.3470780  34.7466610  23.3400960 121.7158180
  34.0040200  22.1250970 121.2018720  41.2088220  27.3854030 112.6535910
  41.6484130  28.1278360 112.2391300  41.1475110  27.6280600 113.5774870
  36.6839190  28.4099860 123.5555930  36.6554620  28.8142810 122.6884360
  36.5204160  27.4810220 123.3927530  46.6809980  13.7000770 106.9995710
  46.3682640  13.7927600 107.8994780  47.4422450  14.2781800 106.9493140
  33.1992120  21.0660570 111.4573050  33.0789720  21.7922660 110.8454320
  32.8893010  20.2963480 110.9800960  48.6354010  29.1926960 124.8520100
  49.1113730  29.6709850 125.5309180  49.2561170  29.1244450 124.1265600
  30.8377490  24.2375710 117.2641690  30.9157910  24.3724480 116.3197410
  31.4519170  23.5291600 117.4569810  32.0825120  25.9375900 113.6747870
  31.6753200  26.0790490 112.8201470  32.9738130  25.6536060 113.4719080
  48.0387260  26.3839810 122.0120110  48.1650320  26.1451690 121.0937290
  48.0808640  25.5524350 122.4842190  41.9004000  30.0867810 120.5814920
  42.4148670  29.9975820 121.3837350  41.0573080  30.4327510 120.8742830
  36.3546780  30.1521680 111.7870540  36.1789260  29.2357220 111.5738340
  35.5002520  30.5108970 112.0268340  43.1434460  29.5073420 112.6445410
  43.5991410  28.7262800 112.9584030  43.4826980  30.2180240 113.1886590
  47.8911270  18.4372270 122.9769850  47.2755540  18.9451940 122.4485310
  47.5707690  17.5370600 122.9195790  30.8937010  25.2789880 119.8036150
  31.0568050  24.8095240 118.9855520  31.3589460  24.7713440 120.4684990
  35.6655780  14.4095640 114.8396720  35.2223930  15.1905180 114.5081240
  36.2240770  14.7325530 115.5467660  39.9525590  17.2764160 120.4432040
  39.4904960  17.4847180 121.2551980  39.5503700  16.4623510 120.1402710
  44.9530100  18.4973110 121.5728700  44.1023690  18.1978860 121.8937770
  44.7931890  18.7415120 120.6612520  42.0479810  19.9974860 123.6727490
  42.3733220  19.1638610 123.3329720  42.8360140  20.5203380 123.8205820
  38.7814600  14.0306340 109.7202550  38.1568780  14.0266210 110.4455860
  38.6944720  13.1637300 109.3238520  37.7031680  14.9542970 116.6986320
  38.0004010  15.8605800 116.6178340  38.2517240  14.4661750 116.0845890
  35.4570000  19.5329210 112.5677970  35.2310920  19.3166380 113.4724590
  34.6762530  19.9657670 112.2223940  42.6867760  19.5392580 111.1668620
  42.0876650  20.2628380 110.9832240  43.2347370  19.4769360 110.3845070
  37.8969210  20.4314790 123.2338240  37.8012810  19.4909520 123.0838640
  38.7401190  20.6529860 122.8386310  41.2932630  18.1756120 113.1971900
  41.6862200  18.4928320 112.3840590  41.6549480  17.2968000 113.3116420
  33.0279750  16.8428460 121.3872020  32.6343140  17.6903670 121.5944800
  32.3398150  16.2054830 121.5780660  39.6024800  16.9263430 124.4568760
  38.9123120  16.7335630 125.0914850  40.3457100  17.2098070 124.9893060
  30.3296800  14.7656920 115.4202100  30.0409850  15.3359780 116.1327080
  31.0742560  14.2861370 115.7833330  30.5167030  18.7077040 106.6304820
  30.4341700  19.6507800 106.7719810  30.1650090  18.5651950 105.7517170
  41.8787770  20.7661870 117.2922680  41.1468890  21.2748680 117.6412780
  41.4812110  19.9491850 116.9911460  38.3165160  17.4416070 115.6975170
  38.3201220  17.0006020 114.8479710  39.2116280  17.7633400 115.8046990
  34.1667540  17.3242560 114.6569380  33.8267590  17.8017790 115.4136430
  33.4044860  16.8707680 114.2970480  38.3785310  18.4428150 108.6881930
  38.4998130  18.4014630 109.6367750  37.9933820  19.3052300 108.5328660
  42.3413680  16.2195550 116.7045620  42.3586420  16.6704200 117.5487470
  42.0929260  15.3201190 116.9179060  37.3906810  20.7529290 108.0865230
  36.8223710  20.3047540 107.4601140  38.0995810  21.1122070 107.5530380
  45.7684430  13.6327730 122.5432000  46.0930200  12.9017390 123.0689980
  45.8040940  13.3141370 121.6412990  32.4675990  24.6541310 121.9631960
  32.0830780  24.0134980 122.5614920  32.7788180  25.3577430 122.5326690
  38.6173130  21.5017850 117.4440580  38.9843260  21.0276420 118.1901920
  38.4278190  22.3759420 117.7848920  31.4813620  16.2461540 113.5734050
  31.1960540  15.8817210 114.4112670  31.4192480  15.5142000 112.9597190
  36.4072500  20.5426490 119.7624790  36.1029570  21.4218470 119.9875150
  37.3618960  20.6026280 119.7982230  34.9354290  24.7487480 110.3591640
  34.1616550  24.2085100 110.1990360  35.6648920  24.2294090 110.0209400
  45.6942270  23.7452840 116.1518030  46.4141390  24.2408130 115.7614140
  45.4924090  23.0670730 115.5071900  41.1552210  15.1390800 110.2947420
  40.3416820  14.6403970 110.2192730  40.9614160  15.9789050 109.8783770
  41.0761070  23.8161900 122.0387030  41.0098380  22.8957570 121.7844620
  40.4466210  23.9137340 122.7531670  43.8700600  19.5110450 108.5909580
  44.7580220  19.8227680 108.4160920  43.8405690  18.6382700 108.1990160
  34.9791690  24.4167860 113.9970450  35.4970360  23.6136120 113.9427340
  34.5275710  24.3547000 114.8387280  39.8661190  25.6834140 109.2697750
  40.2076890  26.4276370 108.7741070  39.0373900  25.9965260 109.6322580
  32.4636230  21.3829230 120.9096150  32.1051170  22.0483080 121.4969490
  32.1690790  20.5512780 121.2808770  35.6649350  21.8413470 123.7935700
  35.3649490  21.9870650 122.8963520  36.4360590  21.2818760 123.7009090
  41.0077800  26.6382470 121.7890830  41.0222340  25.7063430 121.5709740
  40.3002900  26.7242230 122.4280600  46.1414870  20.8222290 108.0589440
  46.0578590  21.2536510 107.2085880  46.8609060  21.2820640 108.4916260
  47.2189010  23.2789810 121.1359410  46.4937200  23.8718590 120.9388800
  47.7464470  23.2713350 120.3372780  42.7488600  25.0049980 114.6343260
  43.1012420  24.4078110 113.9744630  41.8650930  24.6794210 114.8051510
  38.8351880  25.7647670 112.0413670  39.5223010  26.3116880 112.4221260
  38.0484300  26.3088400 112.0763280  30.9744280  21.3820490 107.5330750
  31.8439130  21.6645290 107.8166670  30.4834600  22.1956360 107.4179560
  38.1379090  22.7693700 111.6539030  38.5941870  23.5798950 111.8799220
  37.7867300  22.4516840 112.4857520  40.4411700  28.2800040 118.8831330
  41.0853920  28.4859420 119.5604750  40.8041140  27.5188440 118.4302180
  34.0390870  13.1131350 112.1261550  33.9105500  13.1049250 113.0746470
  33.2152890  13.4514440 111.7752560  41.7143780  26.2832390 117.6008780
  42.3566010  25.5825550 117.7140950  42.2393130  27.0630830 117.4205670
  45.5599500  26.5681010 107.3247920  45.3337080  25.8511450 107.9172560
  45.1695700  26.3193450 106.4869670  43.4881400  27.0827290 120.8044840
  43.8237640  27.6693980 121.4822760  42.5681740  26.9520000 121.0342630
  31.3415530  30.5947870 108.0992380  31.7013170  31.1937210 107.4449650
  31.2007870  31.1407760 108.8727410  31.0384800  14.8722470 121.5868250
  30.3243320  15.0719390 122.1920860  31.4579840  14.0962040 121.9583050
  45.1415750  24.4852950 108.9862080  44.8537450  24.9465640 109.7739960
  45.9367920  24.0250720 109.2546300  31.3257390  28.8602730 122.5734780
  31.4348510  27.9197470 122.4330170  30.6737950  29.1257480 121.9248510
  39.3169980  27.1318620 123.9732900  38.9966850  26.4127860 124.5178590
  38.6428340  27.8073690 124.0468960  37.3584150  27.9779070 108.9166050
  37.3494250  28.7108760 108.3010560  36.4382510  27.7310650 109.0093010
  32.9590790  23.1993960 109.6612810  32.3518740  23.9392860 109.6708110
  33.4340140  23.2893320 108.8351010  42.5323580  17.3644780 119.3369700
  42.9004400  16.5439990 119.6649270  41.6721780  17.4246670 119.7525350
  45.8985610  16.3201720 110.1457260  45.2698770  16.4247390 109.4315490
  45.4037530  16.5398500 110.9351140  40.3443750  28.0407310 107.5791240
  40.4455730  27.8371300 106.6493220  39.4445490  27.7865590 107.7839020
  37.8669640  18.5987670 111.5615140  37.1585790  19.0674010 112.0028750
  38.1514120  17.9409680 112.1960330  39.4925570  20.0184370 119.5607670
  39.9910820  20.4930190 120.2259520  39.6348520  19.0947890 119.7677700
  41.8985070  15.3238330 113.0010930  41.7752850  15.3424460 112.0520440
  42.8469630  15.3717270 113.1209330  38.9861860  30.5593630 112.2738910
  39.2403360  30.5215020 111.3518280  38.0374340  30.4326960 112.2667160
  36.0704660  16.9072750 108.9365850  36.9195190  17.3442900 108.8706040
  35.7035930  17.2193010 109.7637910  46.6992430  16.2352330 120.4036060
  46.1966030  16.9757730 120.7429870  47.5149090  16.6236330 120.0872850
  44.9914440  21.4785510 113.8497420  44.0504580  21.4935740 114.0245110
  45.3058510  20.6921470 114.2957720  34.9696080  23.1605110 107.4101380
  35.7359350  23.0486470 107.9726810  35.0470770  22.4643080 106.7578150
  33.6642840  20.5930180 108.0934270  33.7446430  19.6457690 108.2051670
  34.5562590  20.9237060 108.1994930  46.9940020  28.6494360 115.5251680
  47.1187440  29.4725530 115.9975490  47.8605580  28.4385090 115.1775830
  34.4657550  30.7425570 115.1968810  35.2020030  30.1941030 115.4677380
  34.8498470  31.6081580 115.0574800  31.3503030  26.8099140 111.0710320
  30.4242810  27.0520280 111.0615730  31.8159460  27.6373400 110.9495070
  33.4715830  29.9271640 124.3854390  34.2728560  30.2483690 124.7989790
  32.9567650  29.5667220 125.1074300  37.5759860  29.9155880 107.0194380
  38.3688470  30.2044710 106.5676170  37.0564210  29.4848050 106.3406860
  42.3080460  26.0351510 124.3329800  41.7018620  26.0583110 123.5925550
  42.0034570  25.3034550 124.8697050  43.7380830  29.7631800 122.9439210
  44.6902580  29.6789820 122.8939450  43.5909050  30.4273510 123.6173000
  31.1913640  22.4145100 123.3290440  31.6952660  21.8352380 123.9006670
  30.4521060  22.6985330 123.8666810  38.0937260  25.1359290 106.8836730
  37.9887900  24.5211640 107.6098110  37.9261480  24.6125180 106.0999740
  38.2451580  23.8216090 122.8625960  37.4797250  24.3901090 122.7780630
  38.4267540  23.5292300 121.9694190  41.3339990  24.1979320 107.4878720
  40.7850090  24.6448620 108.1321460  41.9559250  23.6928570 108.0116390
  45.3874930  25.5521420 123.4200980  46.1284400  25.8897180 122.9168440
  44.6247610  25.7213480 122.8670750  33.2236720  20.5574690 124.2240510
  33.2642060  20.2588560 125.1325740  34.0782220  20.9582300 124.0648030
  37.0015110  23.1570240 109.3844020  37.4231530  22.9910110 110.2275410
  37.1265950  22.3470470 108.8899160  35.1642530  19.1366790 122.1915000
  34.6338990  18.6457740 121.5638340  35.8330600  19.5650990 121.6572930
  39.5142750  22.1807850 106.6321120  40.0348410  21.4656870 106.2662270
  40.1611150  22.8193720 106.9321630  44.0620590  23.6036250 121.9556190
  44.4761610  23.7581330 122.8046610  43.1271590  23.7291470 122.1181970
  44.5342760  20.9432410 123.9595340  45.1163530  20.1884730 123.8715820
  44.7104530  21.4739850 123.1826820  35.6514830  16.1029160 122.2712290
  35.5571700  15.4849910 121.5463160  35.0712220  16.8295450 122.0442200
  38.4176270  14.6602400 119.3039680  37.9693570  14.6826660 118.4585230
  37.7841470  14.2621420 119.9009980  38.8235820  23.5556730 119.9252120
  39.2423930  24.3989460 119.7528360  37.9044450  23.6928770 119.6958900
  41.1599720  21.2872910 121.3089960  41.2795930  20.6914050 122.0484800
  42.0193720  21.3242600 120.8891260  43.4987620  21.8410100 119.8852470
  42.9722840  22.3652720 119.2817610  43.8418960  22.4737490 120.5162200
  35.8974010  19.2303470 106.3302180  35.6963070  18.3670830 106.6915520
  35.7266060  19.1436830 105.3923780  36.6743240  29.8609740 121.0409850
  36.1364330  30.5855800 120.7218550  36.9277200  29.3840080 120.2507190
  37.9268490  17.8294260 122.5665780  38.5168180  17.5210110 123.2543600
  37.1088730  17.3574010 122.7225680  42.7461920  17.4460070 122.7998800
  42.0577440  16.7841610 122.7348790  43.4667940  16.9998340 123.2447260
  43.3762320  14.0411700 108.8589060  43.6564610  13.1979600 109.2148480
  42.6028050  14.2734810 109.3727810  34.6956810  16.3304090 106.3180060
  34.9982710  16.3371520 105.4099210  35.4351400  15.9801950 106.8147720
  39.5305450  31.0960950 121.2996500  39.4564150  31.9996090 121.6068870
  38.6284290  30.7772850 121.2718570  37.9141740  15.2738710 107.3036260
  37.5663740  14.5962700 106.7238710  38.1154510  14.8128220 108.1179650
  40.0790780  30.2619460 108.9222860  40.9741570  30.6004430 108.9441620
  40.1108410  29.5398870 108.2947140  33.7186940  25.6346510 107.1509860
  34.1561810  26.1776180 107.8067440  34.2034670  24.8093460 107.1606200
  30.9332740  28.4235540 114.6030120  31.2635750  27.5556600 114.3708760
  31.3623740  28.6294060 115.4335080  35.5294660  26.7544550 112.2632090
  35.2290200  26.6309520 113.1636000  35.4232150  25.8953140 111.8547820
  31.4222950  29.2906130 117.3411750  30.9853940  29.4706930 118.1735900
  31.9900630  30.0480750 117.1993470  47.0585130  28.7923130 121.6289060
  46.4587120  28.8515690 120.8852980  47.1879030  27.8528110 121.7585910
  47.7543040  23.2788430 109.4692970  48.5161950  23.8485080 109.5752660
  47.7697410  22.7115630 110.2401280  31.2547380  21.8026360 113.7000630
  30.5996220  21.5338000 113.0560330  32.0925330  21.6930840 113.2502610
  48.7603010  24.1338530 114.3134900  49.1311840  23.3505850 113.9070870
  49.4004940  24.8227630 114.1352200  45.7436770  25.5175110 119.7265220
  44.9296610  25.9472270 119.9891010  46.1510970  26.1293520 119.1134270
  47.8062210  23.5722800 106.6265490  48.0811050  24.4801680 106.4984710
  47.6172950  23.5085330 107.5627480  44.2037820  16.5967650 107.9219120
  44.6222700  16.4098630 107.0815780  43.8973880  15.7446700 108.2322050
  47.7027550  21.5091790 111.6194920  47.3271150  20.7419720 111.1876210
  46.9730670  21.8914490 112.1069850  32.2923310  22.1878930 118.2403970
  32.6596350  22.1006330 119.1199990  31.7234130  21.4245480 118.1410830
  47.0927170  20.6563310 121.2534440  46.8613260  20.4276060 120.3532390
  47.3531720  21.5762860 121.2079330  31.8439310  19.0988020 122.1462390
  30.9495360  19.0654780 122.4856100  32.3836860  19.2974810 122.9113640
  45.5315240  15.8819740 124.0314140  46.4085420  15.8903140 124.4148140
  45.5436080  15.1450580 123.4206490  30.4685460  19.0125290 109.6425960
  29.5649540  19.2755490 109.4677620  30.9526080  19.2836460 108.8625920
  46.9778510  19.7349280 114.9202160  47.5015990  19.2411930 114.2892330
  47.5637930  19.8699640 115.6649730  47.1568230  19.8189150 118.4421710
  46.2070940  19.7852690 118.5566700  47.3381240  20.7289260 118.2071480
  33.0112670  18.0690830 107.5520340  33.7204370  17.6474050 107.0667620
  32.2952610  18.1366060 106.9203690  32.6586830  14.1230160 106.5922990
  33.3814960  14.6639100 106.9104210  32.9311350  13.8493580 105.7164530
  46.4678480  18.9922630 110.8594570  46.9637600  18.7593500 111.6443450
  46.2694550  18.1534470 110.4432210  32.3479020  13.3736350 116.4945610
  32.9955210  12.8233730 116.0540770  32.7680860  13.6279500 117.3161420
  47.8965640  17.6283580 113.3932250  47.7864920  17.4739620 114.3314520
  48.6573230  17.1004520 113.1507660  46.2431360  13.5677710 119.8515250
  46.8803580  14.1811850 120.2174440  46.3906250  13.6038370 118.9064480
  48.7855910  15.4591500 106.6338390  49.7105220  15.3272680 106.4256680
  48.7631700  15.5384320 107.5874840  48.8594400  16.2302160 109.2595100
  48.0645900  16.1647280 109.7888010  49.0637680  17.1652800 109.2480450
  32.1011020  13.5292020 119.2370930  31.7525840  13.9855840 120.0029110
  31.7698720  12.6349150 119.3193360  33.7075390  26.7011620 123.4024120
  33.6645020  26.3304530 124.2838580  33.8386400  27.6389190 123.5425940
  37.4081420  28.2571210 119.0033840  37.1672780  28.5245770 118.1164360
  38.3484060  28.4276940 119.0584700  39.6135840  14.7203900 122.7590350
  39.5524730  15.3125730 123.5085760  40.5536220  14.6129860 122.6140610
  42.2510400  14.3773960 122.3982640  42.8650810  14.6953250 121.7363720
  42.7959960  13.8922550 123.0178500  48.6685580  30.2765590 119.8044480
  48.1743860  30.6734460 119.0871610  48.0598870  29.6514800 120.1981760
  32.7731660  13.0568220 122.5121700  33.3214650  12.8756270 121.7487810
  32.8386970  12.2662330 123.0478010  33.5463420  29.6473870 120.5221900
  32.9523740  29.5158570 121.2611940  33.5387260  28.8112010 120.0564000
  42.9918440  12.9406100 118.7251930  42.1178280  13.2741210 118.5224860
  42.8829190  12.4679280 119.5503800  43.8990420  15.1476970 120.1093650
  43.5703780  14.3328730 119.7295380  44.8472720  15.1046780 119.9859340
  46.3525030  30.9189010 117.0831220  45.8928000  31.6704820 116.7089240
  45.7237490  30.1995480 117.0246020  33.1775650  27.0132250 119.4729940
  32.4509710  26.3937540 119.4055890  33.2384800  27.4072860 118.6028020
  36.7820750  29.2277250 116.2579350  37.2985770  28.6164610 115.7327610
  37.4318130  29.7306030 116.7490360  39.5216250  30.1185740 117.0848330
  39.8094060  29.8640040 116.2081340  40.0339470  29.5663100 117.6753900
  40.7393260  13.8575940 117.6644840  39.9565050  14.3321440 117.9441600
  40.4456190  12.9530770 117.5558020  45.2914330  14.5599040 115.7093930
  45.7322420  14.5044140 114.8615530  45.0221920  15.4757050 115.7804110
  47.1552900  14.1914280 113.7202750  47.0941300  13.2475500 113.5733770
  47.9344930  14.2994370 114.2656210  31.4605650  30.3306640 112.6826700
  31.2927690  29.6977320 113.3808590  30.5940160  30.5366040 112.3320890
  32.0833670  14.1623420 110.1858560  32.8413030  14.2752300 109.6122590
  31.6210840  14.9992620 110.1401990  38.6247480  16.2762690 113.1760870
  37.8121990  15.9019580 112.8356750  39.1289120  15.5207770 113.4782060
  43.1272460  12.9405140 114.4143940  43.7301830  13.5125350 114.8892460
  42.3865450  13.5044580 114.1917840  46.2707060  13.3426700 109.6884220
  46.4657690  14.2410150 109.9551650  45.4836930  13.1113780 110.1817170
  33.0668350  29.0239870 110.1276840  32.5415970  29.4047900 109.4238800
  32.9912930  29.6490640 110.8486550  34.4558820  14.6887470 108.7260530
  34.9851580  13.9017270 108.5968480  35.0887140  15.3678660 108.9596060
  36.6496660  14.4262610 111.7805920  36.0199400  13.7249920 111.9476050
  36.1101800  15.1866740 111.5639080  39.5888610  31.0401840 124.4516530
  40.5155920  30.8046110 124.4952490  39.5739040  31.8673840 123.9702560
  36.7752220  13.7046590 124.2158410  36.4936490  14.2080190 123.4519230
  37.1571920  12.9068340 123.8500540  35.6661320  30.9722250 109.0026090
  36.3980140  30.6881530 108.4549980  35.9254990  30.7335530 109.8925470
  34.8276110  27.0886980 109.0072420  34.1984990  27.5572080 109.5558250
  34.9423940  26.2436200 109.4418610  43.3767680  13.1200170 124.7938880
  43.2633130  13.4394780 125.6890400  44.1937420  13.5212680 124.4976160
  46.1566170  30.2671700 124.2757570  46.9491490  29.7720930 124.0683530
  46.4499320  30.9461840 124.8833180  42.2825830  21.1392640  95.1573620
  42.2019880  20.2247250  94.8865330  41.8690250  21.6359710  94.4513330
  40.4143870  22.9171660  97.0382890  39.6385970  22.4372100  97.3281460
  41.0656800  22.2377310  96.8639050  34.4309700  23.2291470  97.9158650
  33.5994580  22.9740180  98.3155160  35.0390680  23.3002240  98.6516570
  44.4351300  27.3231850  95.8182020  43.9732830  26.5519090  96.1469190
  45.2476850  27.3497920  96.3234470  34.4110960  27.2631560  98.1116670
  34.7139000  26.3729300  97.9326890  35.1554550  27.8201780  97.8838920
  32.8401650  18.1893360  91.7001040  31.9518350  18.5309330  91.5980920
  33.1242840  17.9893680  90.8081870  30.8034660  20.7899010  97.5840740
  31.3750770  20.0221210  97.5844380  30.8036200  21.0887770  96.6747350
  39.8552860  25.5928850  97.0453050  39.7861140  24.6518790  96.8842180
  40.6172720  25.6830260  97.6175620  32.0459530  16.1983370  99.3709670
  31.8662370  15.3009120  99.6512430  31.6439610  16.7455240 100.0456620
  40.8858030  18.3999230  97.2721980  41.2622850  17.5271110  97.1595650
  40.7877540  18.7357930  96.3812420  35.0163040  16.7724860  92.7339420
  35.1229790  17.6728590  93.0408180  34.1055400  16.7242830  92.4434070
  44.6682150  15.8949670  94.2050320  45.4891770  15.4046240  94.2475800
  44.7016230  16.4847330  94.9582160  32.6646200  18.6943870  97.9792010
  33.3456310  18.9582240  98.5979410  32.3494250  17.8544740  98.3130020
  36.8570770  19.7411230  97.0664600  37.3648990  20.2392200  97.7069620
  37.3884010  18.9646430  96.8903960  48.9581700  17.9116420 100.7693950
  48.2533870  18.2998130 100.2509060  49.2239620  18.6066710 101.3714880
  35.1406870  14.3809790 101.3328020  35.1425310  14.8982180 100.5273920
  34.3111180  13.9039970 101.3097950  41.5277960  24.4929100  92.8317920
  40.9095230  24.9578550  92.2680640  42.0401210  25.1856580  93.2487430
  36.3909720  24.0204970  99.5101520  36.0579100  24.6473890 100.1522590
  36.5676400  24.5466850  98.7303190  44.9043630  17.8350050  96.9777860
  44.1999200  18.1234940  97.5580970  45.2655790  18.6450160  96.6177420
  34.8222200  16.0919750  99.3398470  35.1639010  16.9361800  99.0452340
  33.8838010  16.2403490  99.4563810  35.6028820  25.9885770 101.3250700
  36.2202820  26.6636850 101.0435150  34.7421940  26.3973750 101.2338200
  30.8961160  25.1785630  90.2057550  30.5189140  25.6672730  89.4742450
  31.1534230  25.8510910  90.8364080  46.5206410  27.4525180  99.2405340
  45.8369930  28.1224290  99.2322010  47.0600700  27.6505830  98.4750200
  47.9730550  17.2804840  97.3687070  47.0255460  17.3143820  97.5002500
  48.2980540  18.0943790  97.7536430  38.5050090  13.5802020  95.6643060
  38.8125070  13.0248910  94.9478560  37.5750790  13.7146480  95.4816050
  45.3510570  26.0185530  93.0440690  45.2406900  25.0759860  93.1690110
  45.3478820  26.3801170  93.9303450  43.4550590  24.1999150  99.2833130
  43.8719380  23.9859260  98.4486590  44.1790410  24.4571940  99.8541750
  40.8930850  21.6450850  92.4003180  39.9660130  21.5788230  92.6291650
  41.0455670  22.5830980  92.2858420  40.8799930  17.9167850  89.3970340
  39.9403600  18.0781810  89.4822800  41.1983190  18.6353530  88.8506330
  47.4012690  22.5986370  99.3749370  46.5731320  22.6679460  98.8999500
  47.9963170  23.1840680  98.9065200  44.9228140  23.2071150  92.9038430
  44.3040560  22.8690700  92.2564730  44.9052590  22.5630910  93.6117620
  44.3654700  19.3855690 100.3204240  43.9525880  20.2109400 100.5744230
  43.6330650  18.8000730 100.1280600  36.4987490  22.1715590  95.1822910
  36.0944490  21.4592840  94.6868810  36.5850610  21.8268830  96.0710950
  36.9669190  25.8583150  97.3462120  36.6697480  25.2528620  96.6669900
  37.9169010  25.8960460  97.2351480  35.2116110  18.9458800  98.9621950
  35.7630700  19.0554140  98.1875200  35.7259620  19.3196400  99.6777180
  45.0554800  29.4315020 101.0085220  44.5785360  30.2387210 100.8157830
  44.3716590  28.7793350 101.1611430  36.0587620  25.5964840 103.9969920
  35.1616150  25.8204810 104.2443320  36.0840490  25.7199780 103.0481320
  43.0992840  22.4457960  89.9111180  43.5386120  21.6080390  89.7649000
  43.8121260  23.0787360  89.9975320  34.8858840  22.4678160 102.5727290
  34.7466610  23.3400960 102.9414690  34.0040200  22.1250970 102.4275230
  41.2088220  27.3854030  93.8792420  41.6484130  28.1278360  93.4647810
  41.1475110  27.6280600  94.8031380  36.6839190  28.4099860 104.7812440
  36.6554620  28.8142810 103.9140870  36.5204160  27.4810220 104.6184040
  46.6809980  13.7000770  88.2252220  46.3682640  13.7927600  89.1251290
  47.4422450  14.2781800  88.1749650  33.1992120  21.0660570  92.6829560
  33.0789720  21.7922660  92.0710830  32.8893010  20.2963480  92.2057470
  30.8377490  24.2375710  98.4898200  30.9157910  24.3724480  97.5453920
  31.4519170  23.5291600  98.6826320  32.0825120  25.9375900  94.9004380
  31.6753200  26.0790490  94.0457980  32.9738130  25.6536060  94.6975590
  48.0387260  26.3839810 103.2376620  48.1650320  26.1451690 102.3193800
  48.0808640  25.5524350 103.7098700  41.9004000  30.0867810 101.8071430
  42.4148670  29.9975820 102.6093860  41.0573080  30.4327510 102.0999340
  36.3546780  30.1521680  93.0127050  36.1789260  29.2357220  92.7994850
  35.5002520  30.5108970  93.2524850  47.8911270  18.4372270 104.2026360
  47.2755540  18.9451940 103.6741820  47.5707690  17.5370600 104.1452300
  30.8937010  25.2789880 101.0292660  31.0568050  24.8095240 100.2112030
  31.3589460  24.7713440 101.6941500  35.6655780  14.4095640  96.0653230
  35.2223930  15.1905180  95.7337750  36.2240770  14.7325530  96.7724170
  39.9525590  17.2764160 101.6688550  39.4904960  17.4847180 102.4808490
  39.5503700  16.4623510 101.3659220  44.9530100  18.4973110 102.7985210
  44.1023690  18.1978860 103.1194280  44.7931890  18.7415120 101.8869030
  42.0479810  19.9974860 104.8984000  42.3733220  19.1638610 104.5586230
  42.8360140  20.5203380 105.0462330  38.7814600  14.0306340  90.9459060
  38.1568780  14.0266210  91.6712370  38.6944720  13.1637300  90.5495030
  37.7031680  14.9542970  97.9242830  38.0004010  15.8605800  97.8434850
  38.2517240  14.4661750  97.3102400  35.4570000  19.5329210  93.7934480
  35.2310920  19.3166380  94.6981100  34.6762530  19.9657670  93.4480450
  42.6867760  19.5392580  92.3925130  42.0876650  20.2628380  92.2088750
  43.2347370  19.4769360  91.6101580  37.8969210  20.4314790 104.4594750
  37.8012810  19.4909520 104.3095150  38.7401190  20.6529860 104.0642820
  41.2932630  18.1756120  94.4228410  41.6862200  18.4928320  93.6097100
  41.6549480  17.2968000  94.5372930  33.0279750  16.8428460 102.6128530
  32.6343140  17.6903670 102.8201310  32.3398150  16.2054830 102.8037170
  39.6024800  16.9263430 105.6825270  38.9123120  16.7335630 106.3171360
  40.3457100  17.2098070 106.2149570  30.3296800  14.7656920  96.6458610
  30.0409850  15.3359780  97.3583590  31.0742560  14.2861370  97.0089840
  30.5167030  18.7077040  87.8561330  30.4341700  19.6507800  87.9976320
  30.1650090  18.5651950  86.9773680  41.8787770  20.7661870  98.5179190
  41.1468890  21.2748680  98.8669290  41.4812110  19.9491850  98.2167970
  38.3165160  17.4416070  96.9231680  38.3201220  17.0006020  96.0736220
  39.2116280  17.7633400  97.0303500  34.1667540  17.3242560  95.8825890
  33.8267590  17.8017790  96.6392940  33.4044860  16.8707680  95.5226990
  38.3785310  18.4428150  89.9138440  38.4998130  18.4014630  90.8624260
  37.9933820  19.3052300  89.7585170  42.3413680  16.2195550  97.9302130
  42.3586420  16.6704200  98.7743980  42.0929260  15.3201190  98.1435570
  37.3906810  20.7529290  89.3121740  36.8223710  20.3047540  88.6857650
  38.0995810  21.1122070  88.7786890  45.7684430  13.6327730 103.7688510
  46.0930200  12.9017390 104.2946490  45.8040940  13.3141370 102.8669500
  32.4675990  24.6541310 103.1888470  32.0830780  24.0134980 103.7871430
  32.7788180  25.3577430 103.7583200  38.6173130  21.5017850  98.6697090
  38.9843260  21.0276420  99.4158430  38.4278190  22.3759420  99.0105430
  31.4813620  16.2461540  94.7990560  31.1960540  15.8817210  95.6369180
  31.4192480  15.5142000  94.1853700  36.4072500  20.5426490 100.9881300
  36.1029570  21.4218470 101.2131660  37.3618960  20.6026280 101.0238740
  34.9354290  24.7487480  91.5848150  34.1616550  24.2085100  91.4246870
  35.6648920  24.2294090  91.2465910  45.6942270  23.7452840  97.3774540
  46.4141390  24.2408130  96.9870650  45.4924090  23.0670730  96.7328410
  41.1552210  15.1390800  91.5203930  40.3416820  14.6403970  91.4449240
  40.9614160  15.9789050  91.1040280  41.0761070  23.8161900 103.2643540
  41.0098380  22.8957570 103.0101130  40.4466210  23.9137340 103.9788180
  43.8700600  19.5110450  89.8166090  44.7580220  19.8227680  89.6417430
  43.8405690  18.6382700  89.4246670  34.9791690  24.4167860  95.2226960
  35.4970360  23.6136120  95.1683850  34.5275710  24.3547000  96.0643790
  39.8661190  25.6834140  90.4954260  40.2076890  26.4276370  89.9997580
  39.0373900  25.9965260  90.8579090  32.4636230  21.3829230 102.1352660
  32.1051170  22.0483080 102.7226000  32.1690790  20.5512780 102.5065280
  35.6649350  21.8413470 105.0192210  35.3649490  21.9870650 104.1220030
  36.4360590  21.2818760 104.9265600  41.0077800  26.6382470 103.0147340
  41.0222340  25.7063430 102.7966250  40.3002900  26.7242230 103.6537110
  46.1414870  20.8222290  89.2845950  46.0578590  21.2536510  88.4342390
  46.8609060  21.2820640  89.7172770  47.2189010  23.2789810 102.3615920
  46.4937200  23.8718590 102.1645310  47.7464470  23.2713350 101.5629290
  47.1702120  27.6764550  92.0128080  46.5278280  27.0220170  92.2871800
  46.7832780  28.0819640  91.2368750  42.7488600  25.0049980  95.8599770
  43.1012420  24.4078110  95.2001140  41.8650930  24.6794210  96.0308020
  38.8351880  25.7647670  93.2670180  39.5223010  26.3116880  93.6477770
  38.0484300  26.3088400  93.3019790  30.9744280  21.3820490  88.7587260
  31.8439130  21.6645290  89.0423180  30.4834600  22.1956360  88.6436070
  38.1379090  22.7693700  92.8795540  38.5941870  23.5798950  93.1055730
  37.7867300  22.4516840  93.7114030  40.4411700  28.2800040 100.1087840
  41.0853920  28.4859420 100.7861260  40.8041140  27.5188440  99.6558690
  34.0390870  13.1131350  93.3518060  33.9105500  13.1049250  94.3002980
  33.2152890  13.4514440  93.0009070  41.7143780  26.2832390  98.8265290
  42.3566010  25.5825550  98.9397460  42.2393130  27.0630830  98.6462180
  43.4881400  27.0827290 102.0301350  43.8237640  27.6693980 102.7079270
  42.5681740  26.9520000 102.2599140  31.3415530  30.5947870  89.3248890
  31.7013170  31.1937210  88.6706160  31.2007870  31.1407760  90.0983920
  31.0384800  14.8722470 102.8124760  30.3243320  15.0719390 103.4177370
  31.4579840  14.0962040 103.1839560  45.1415750  24.4852950  90.2118590
  44.8537450  24.9465640  90.9996470  45.9367920  24.0250720  90.4802810
  31.3257390  28.8602730 103.7991290  31.4348510  27.9197470 103.6586680
  30.6737950  29.1257480 103.1505020  39.3169980  27.1318620 105.1989410
  38.9966850  26.4127860 105.7435100  38.6428340  27.8073690 105.2725470
  37.3584150  27.9779070  90.1422560  37.3494250  28.7108760  89.5267070
  36.4382510  27.7310650  90.2349520  32.9590790  23.1993960  90.8869320
  32.3518740  23.9392860  90.8964620  33.4340140  23.2893320  90.0607520
  42.5323580  17.3644780 100.5626210  42.9004400  16.5439990 100.8905780
  41.6721780  17.4246670 100.9781860  45.8985610  16.3201720  91.3713770
  45.2698770  16.4247390  90.6572000  45.4037530  16.5398500  92.1607650
  37.8669640  18.5987670  92.7871650  37.1585790  19.0674010  93.2285260
  38.1514120  17.9409680  93.4216840  39.4925570  20.0184370 100.7864180
  39.9910820  20.4930190 101.4516030  39.6348520  19.0947890 100.9934210
  41.8985070  15.3238330  94.2267440  41.7752850  15.3424460  93.2776950
  42.8469630  15.3717270  94.3465840  36.0704660  16.9072750  90.1622360
  36.9195190  17.3442900  90.0962550  35.7035930  17.2193010  90.9894420
  46.6992430  16.2352330 101.6292570  46.1966030  16.9757730 101.9686380
  47.5149090  16.6236330 101.3129360  44.9914440  21.4785510  95.0753930
  44.0504580  21.4935740  95.2501620  45.3058510  20.6921470  95.5214230
  34.9696080  23.1605110  88.6357890  35.7359350  23.0486470  89.1983320
  35.0470770  22.4643080  87.9834660  33.6642840  20.5930180  89.3190780
  33.7446430  19.6457690  89.4308180  34.5562590  20.9237060  89.4251440
  46.9940020  28.6494360  96.7508190  47.1187440  29.4725530  97.2232000
  47.8605580  28.4385090  96.4032340  34.4657550  30.7425570  96.4225320
  35.2020030  30.1941030  96.6933890  34.8498470  31.6081580  96.2831310
  31.3503030  26.8099140  92.2966830  30.4242810  27.0520280  92.2872240
  31.8159460  27.6373400  92.1751580  33.4715830  29.9271640 105.6110900
  34.2728560  30.2483690 106.0246300  32.9567650  29.5667220 106.3330810
  37.5759860  29.9155880  88.2450890  38.3688470  30.2044710  87.7932680
  37.0564210  29.4848050  87.5663370  42.3080460  26.0351510 105.5586310
  41.7018620  26.0583110 104.8182060  42.0034570  25.3034550 106.0953560
  43.7380830  29.7631800 104.1695720  44.6902580  29.6789820 104.1195960
  43.5909050  30.4273510 104.8429510  31.1913640  22.4145100 104.5546950
  31.6952660  21.8352380 105.1263180  30.4521060  22.6985330 105.0923320
  38.0937260  25.1359290  88.1093240  37.9887900  24.5211640  88.8354620
  37.9261480  24.6125180  87.3256250  38.2451580  23.8216090 104.0882470
  37.4797250  24.3901090 104.0037140  38.4267540  23.5292300 103.1950700
  41.3339990  24.1979320  88.7135230  40.7850090  24.6448620  89.3577970
  41.9559250  23.6928570  89.2372900  45.3874930  25.5521420 104.6457490
  46.1284400  25.8897180 104.1424950  44.6247610  25.7213480 104.0927260
  33.2236720  20.5574690 105.4497020  33.2642060  20.2588560 106.3582250
  34.0782220  20.9582300 105.2904540  37.0015110  23.1570240  90.6100530
  37.4231530  22.9910110  91.4531920  37.1265950  22.3470470  90.1155670
  35.1642530  19.1366790 103.4171510  34.6338990  18.6457740 102.7894850
  35.8330600  19.5650990 102.8829440  39.5142750  22.1807850  87.8577630
  40.0348410  21.4656870  87.4918780  40.1611150  22.8193720  88.1578140
  44.0620590  23.6036250 103.1812700  44.4761610  23.7581330 104.0303120
  43.1271590  23.7291470 103.3438480  44.5342760  20.9432410 105.1851850
  45.1163530  20.1884730 105.0972330  44.7104530  21.4739850 104.4083330
  35.6514830  16.1029160 103.4968800  35.5571700  15.4849910 102.7719670
  35.0712220  16.8295450 103.2698710  38.4176270  14.6602400 100.5296190
  37.9693570  14.6826660  99.6841740  37.7841470  14.2621420 101.1266490
  38.8235820  23.5556730 101.1508630  39.2423930  24.3989460 100.9784870
  37.9044450  23.6928770 100.9215410  41.1599720  21.2872910 102.5346470
  41.2795930  20.6914050 103.2741310  42.0193720  21.3242600 102.1147770
  43.4987620  21.8410100 101.1108980  42.9722840  22.3652720 100.5074120
  43.8418960  22.4737490 101.7418710  35.8974010  19.2303470  87.5558690
  35.6963070  18.3670830  87.9172030  35.7266060  19.1436830  86.6180290
  36.6743240  29.8609740 102.2666360  36.1364330  30.5855800 101.9475060
  36.9277200  29.3840080 101.4763700  37.9268490  17.8294260 103.7922290
  38.5168180  17.5210110 104.4800110  37.1088730  17.3574010 103.9482190
  42.7461920  17.4460070 104.0255310  42.0577440  16.7841610 103.9605300
  43.4667940  16.9998340 104.4703770  43.3762320  14.0411700  90.0845570
  43.6564610  13.1979600  90.4404990  42.6028050  14.2734810  90.5984320
  34.6956810  16.3304090  87.5436570  34.9982710  16.3371520  86.6355720
  35.4351400  15.9801950  88.0404230  39.5305450  31.0960950 102.5253010
  39.4564150  31.9996090 102.8325380  38.6284290  30.7772850 102.4975080
  37.9141740  15.2738710  88.5292770  37.5663740  14.5962700  87.9495220
  38.1154510  14.8128220  89.3436160  33.7186940  25.6346510  88.3766370
  34.1561810  26.1776180  89.0323950  34.2034670  24.8093460  88.3862710
  30.9332740  28.4235540  95.8286630  31.2635750  27.5556600  95.5965270
  31.3623740  28.6294060  96.6591590  35.5294660  26.7544550  93.4888600
  35.2290200  26.6309520  94.3892510  35.4232150  25.8953140  93.0804330
  31.4222950  29.2906130  98.5668260  30.9853940  29.4706930  99.3992410
  31.9900630  30.0480750  98.4249980  47.0585130  28.7923130 102.8545570
  46.4587120  28.8515690 102.1109490  47.1879030  27.8528110 102.9842420
  48.2986580  26.5340950  88.1915280  47.4679540  26.6017600  88.6622510
  48.4758410  27.4245070  87.8882140  47.7543040  23.2788430  90.6949480
  48.5161950  23.8485080  90.8009170  47.7697410  22.7115630  91.4657790
  31.2547380  21.8026360  94.9257140  30.5996220  21.5338000  94.2816840
  32.0925330  21.6930840  94.4759120  45.7436770  25.5175110 100.9521730
  44.9296610  25.9472270 101.2147520  46.1510970  26.1293520 100.3390780
  47.8062210  23.5722800  87.8522000  48.0811050  24.4801680  87.7241220
  47.6172950  23.5085330  88.7883990  44.2037820  16.5967650  89.1475630
  44.6222700  16.4098630  88.3072290  43.8973880  15.7446700  89.4578560
  32.2923310  22.1878930  99.4660480  32.6596350  22.1006330 100.3456500
  31.7234130  21.4245480  99.3667340  47.0927170  20.6563310 102.4790950
  46.8613260  20.4276060 101.5788900  47.3531720  21.5762860 102.4335840
  31.8439310  19.0988020 103.3718900  30.9495360  19.0654780 103.7112610
  32.3836860  19.2974810 104.1370150  45.5315240  15.8819740 105.2570650
  46.4085420  15.8903140 105.6404650  45.5436080  15.1450580 104.6463000
  30.4685460  19.0125290  90.8682470  29.5649540  19.2755490  90.6934130
  30.9526080  19.2836460  90.0882430  46.9778510  19.7349280  96.1458670
  47.5015990  19.2411930  95.5148840  47.5637930  19.8699640  96.8906240
  47.1568230  19.8189150  99.6678220  46.2070940  19.7852690  99.7823210
  47.3381240  20.7289260  99.4327990  33.0112670  18.0690830  88.7776850
  33.7204370  17.6474050  88.2924130  32.2952610  18.1366060  88.1460200
  32.6586830  14.1230160  87.8179500  33.3814960  14.6639100  88.1360720
  32.9311350  13.8493580  86.9421040  46.4678480  18.9922630  92.0851080
  46.9637600  18.7593500  92.8699960  46.2694550  18.1534470  91.6688720
  32.3479020  13.3736350  97.7202120  32.9955210  12.8233730  97.2797280
  32.7680860  13.6279500  98.5417930  47.8965640  17.6283580  94.6188760
  47.7864920  17.4739620  95.5571030  48.6573230  17.1004520  94.3764170
  46.2431360  13.5677710 101.0771760  46.8803580  14.1811850 101.4430950
  46.3906250  13.6038370 100.1320990  48.7855910  15.4591500  87.8594900
  49.7105220  15.3272680  87.6513190  48.7631700  15.5384320  88.8131350
  48.8594400  16.2302160  90.4851610  48.0645900  16.1647280  91.0144520
  49.0637680  17.1652800  90.4736960  45.8012820  30.2693710  94.4790000
  46.3971890  29.9478280  93.8024420  46.0590970  29.7965530  95.2703270
  32.1011020  13.5292020 100.4627440  31.7525840  13.9855840 101.2285620
  31.7698720  12.6349150 100.5449870  33.7075390  26.7011620 104.6280630
  33.6645020  26.3304530 105.5095090  33.8386400  27.6389190 104.7682450
  37.4081420  28.2571210 100.2290350  37.1672780  28.5245770  99.3420870
  38.3484060  28.4276940 100.2841210  39.6135840  14.7203900 103.9846860
  39.5524730  15.3125730 104.7342270  40.5536220  14.6129860 103.8397120
  42.2510400  14.3773960 103.6239150  42.8650810  14.6953250 102.9620230
  42.7959960  13.8922550 104.2435010  32.7731660  13.0568220 103.7378210
  33.3214650  12.8756270 102.9744320  32.8386970  12.2662330 104.2734520
  33.5463420  29.6473870 101.7478410  32.9523740  29.5158570 102.4868450
  33.5387260  28.8112010 101.2820510  42.9918440  12.9406100  99.9508440
  42.1178280  13.2741210  99.7481370  42.8829190  12.4679280 100.7760310
  43.8990420  15.1476970 101.3350160  43.5703780  14.3328730 100.9551890
  44.8472720  15.1046780 101.2115850  33.1775650  27.0132250 100.6986450
  32.4509710  26.3937540 100.6312400  33.2384800  27.4072860  99.8284530
  36.7820750  29.2277250  97.4835860  37.2985770  28.6164610  96.9584120
  37.4318130  29.7306030  97.9746870  39.5216250  30.1185740  98.3104840
  39.8094060  29.8640040  97.4337850  40.0339470  29.5663100  98.9010410
  40.7393260  13.8575940  98.8901350  39.9565050  14.3321440  99.1698110
  40.4456190  12.9530770  98.7814530  45.2914330  14.5599040  96.9350440
  45.7322420  14.5044140  96.0872040  45.0221920  15.4757050  97.0060620
  47.1552900  14.1914280  94.9459260  47.0941300  13.2475500  94.7990280
  47.9344930  14.2994370  95.4912720  31.4605650  30.3306640  93.9083210
  31.2927690  29.6977320  94.6065100  30.5940160  30.5366040  93.5577400
  32.0833670  14.1623420  91.4115070  32.8413030  14.2752300  90.8379100
  31.6210840  14.9992620  91.3658500  38.6247480  16.2762690  94.4017380
  37.8121990  15.9019580  94.0613260  39.1289120  15.5207770  94.7038570
  43.1272460  12.9405140  95.6400450  43.7301830  13.5125350  96.1148970
  42.3865450  13.5044580  95.4174350  46.2707060  13.3426700  90.9140730
  46.4657690  14.2410150  91.1808160  45.4836930  13.1113780  91.4073680
  33.0668350  29.0239870  91.3533350  32.5415970  29.4047900  90.6495310
  32.9912930  29.6490640  92.0743060  34.4558820  14.6887470  89.9517040
  34.9851580  13.9017270  89.8224990  35.0887140  15.3678660  90.1852570
  36.6496660  14.4262610  93.0062430  36.0199400  13.7249920  93.1732560
  36.1101800  15.1866740  92.7895590  39.5888610  31.0401840 105.6773040
  40.5155920  30.8046110 105.7209000  39.5739040  31.8673840 105.1959070
  36.7752220  13.7046590 105.4414920  36.4936490  14.2080190 104.6775740
  37.1571920  12.9068340 105.0757050  35.6661320  30.9722250  90.2282600
  36.3980140  30.6881530  89.6806490  35.9254990  30.7335530  91.1181980
  34.8276110  27.0886980  90.2328930  34.1984990  27.5572080  90.7814760
  34.9423940  26.2436200  90.6675120  43.3767680  13.1200170 106.0195390
  43.2633130  13.4394780 106.9146910  44.1937420  13.5212680 105.7232670
  42.2825830  21.1392640  76.3830130  42.2019880  20.2247250  76.1121840
  41.8690250  21.6359710  75.6769840  40.4143870  22.9171660  78.2639400
  39.6385970  22.4372100  78.5537970  41.0656800  22.2377310  78.0895560
  34.4309700  23.2291470  79.1415160  33.5994580  22.9740180  79.5411670
  35.0390680  23.3002240  79.8773080  34.4110960  27.2631560  79.3373180
  34.7139000  26.3729300  79.1583400  35.1554550  27.8201780  79.1095430
  32.8401650  18.1893360  72.9257550  31.9518350  18.5309330  72.8237430
  33.1242840  17.9893680  72.0338380  30.8034660  20.7899010  78.8097250
  31.3750770  20.0221210  78.8100890  30.8036200  21.0887770  77.9003860
  40.6614610  29.6089860  76.6642520  40.0426050  30.0647360  76.0936960
  41.5166390  29.7641320  76.2632220  39.8552860  25.5928850  78.2709560
  39.7861140  24.6518790  78.1098690  40.6172720  25.6830260  78.8432130
  32.0459530  16.1983370  80.5966180  31.8662370  15.3009120  80.8768940
  31.6439610  16.7455240  81.2713130  40.8858030  18.3999230  78.4978490
  41.2622850  17.5271110  78.3852160  40.7877540  18.7357930  77.6068930
  35.0163040  16.7724860  73.9595930  35.1229790  17.6728590  74.2664690
  34.1055400  16.7242830  73.6690580  44.6682150  15.8949670  75.4306830
  45.4891770  15.4046240  75.4732310  44.7016230  16.4847330  76.1838670
  32.6646200  18.6943870  79.2048520  33.3456310  18.9582240  79.8235920
  32.3494250  17.8544740  79.5386530  36.8570770  19.7411230  78.2921110
  37.3648990  20.2392200  78.9326130  37.3884010  18.9646430  78.1160470
  48.9581700  17.9116420  81.9950460  48.2533870  18.2998130  81.4765570
  49.2239620  18.6066710  82.5971390  35.1406870  14.3809790  82.5584530
  35.1425310  14.8982180  81.7530430  34.3111180  13.9039970  82.5354460
  36.3909720  24.0204970  80.7358030  36.0579100  24.6473890  81.3779100
  36.5676400  24.5466850  79.9559700  34.8222200  16.0919750  80.5654980
  35.1639010  16.9361800  80.2708850  33.8838010  16.2403490  80.6820320
  35.6028820  25.9885770  82.5507210  36.2202820  26.6636850  82.2691660
  34.7421940  26.3973750  82.4594710  30.8961160  25.1785630  71.4314060
  30.5189140  25.6672730  70.6998960  31.1534230  25.8510910  72.0620590
  47.9730550  17.2804840  78.5943580  47.0255460  17.3143820  78.7259010
  48.2980540  18.0943790  78.9792940  38.5050090  13.5802020  76.8899570
  38.8125070  13.0248910  76.1735070  37.5750790  13.7146480  76.7072560
  44.0565150  29.2969310  79.1807030  44.0692310  28.8931600  78.3129290
  43.5040370  30.0716600  79.0768460  40.8930850  21.6450850  73.6259690
  39.9660130  21.5788230  73.8548160  41.0455670  22.5830980  73.5114930
  40.8799930  17.9167850  70.6226850  39.9403600  18.0781810  70.7079310
  41.1983190  18.6353530  70.0762840  36.4987490  22.1715590  76.4079420
  36.0944490  21.4592840  75.9125320  36.5850610  21.8268830  77.2967460
  36.9669190  25.8583150  78.5718630  36.6697480  25.2528620  77.8926410
  37.9169010  25.8960460  78.4607990  35.2116110  18.9458800  80.1878460
  35.7630700  19.0554140  79.4131710  35.7259620  19.3196400  80.9033690
  36.0587620  25.5964840  85.2226430  35.1616150  25.8204810  85.4699830
  36.0840490  25.7199780  84.2737830  43.0992840  22.4457960  71.1367690
  43.5386120  21.6080390  70.9905510  43.8121260  23.0787360  71.2231830
  34.8858840  22.4678160  83.7983800  34.7466610  23.3400960  84.1671200
  34.0040200  22.1250970  83.6531740  36.6839190  28.4099860  86.0068950
  36.6554620  28.8142810  85.1397380  36.5204160  27.4810220  85.8440550
  46.6809980  13.7000770  69.4508730  46.3682640  13.7927600  70.3507800
  47.4422450  14.2781800  69.4006160  33.1992120  21.0660570  73.9086070
  33.0789720  21.7922660  73.2967340  32.8893010  20.2963480  73.4313980
  48.6354010  29.1926960  87.3033120  49.1113730  29.6709850  87.9822200
  49.2561170  29.1244450  86.5778620  30.8377490  24.2375710  79.7154710
  30.9157910  24.3724480  78.7710430  31.4519170  23.5291600  79.9082830
  32.0825120  25.9375900  76.1260890  31.6753200  26.0790490  75.2714490
  32.9738130  25.6536060  75.9232100  41.9004000  30.0867810  83.0327940
  42.4148670  29.9975820  83.8350370  41.0573080  30.4327510  83.3255850
  36.3546780  30.1521680  74.2383560  36.1789260  29.2357220  74.0251360
  35.5002520  30.5108970  74.4781360  47.8911270  18.4372270  85.4282870
  47.2755540  18.9451940  84.8998330  47.5707690  17.5370600  85.3708810
  30.8937010  25.2789880  82.2549170  31.0568050  24.8095240  81.4368540
  31.3589460  24.7713440  82.9198010  35.6655780  14.4095640  77.2909740
  35.2223930  15.1905180  76.9594260  36.2240770  14.7325530  77.9980680
  39.9525590  17.2764160  82.8945060  39.4904960  17.4847180  83.7065000
  39.5503700  16.4623510  82.5915730  44.9530100  18.4973110  84.0241720
  44.1023690  18.1978860  84.3450790  44.7931890  18.7415120  83.1125540
  42.0479810  19.9974860  86.1240510  42.3733220  19.1638610  85.7842740
  42.8360140  20.5203380  86.2718840  38.7814600  14.0306340  72.1715570
  38.1568780  14.0266210  72.8968880  38.6944720  13.1637300  71.7751540
  37.7031680  14.9542970  79.1499340  38.0004010  15.8605800  79.0691360
  38.2517240  14.4661750  78.5358910  35.4570000  19.5329210  75.0190990
  35.2310920  19.3166380  75.9237610  34.6762530  19.9657670  74.6736960
  42.6867760  19.5392580  73.6181640  42.0876650  20.2628380  73.4345260
  43.2347370  19.4769360  72.8358090  37.8969210  20.4314790  85.6851260
  37.8012810  19.4909520  85.5351660  38.7401190  20.6529860  85.2899330
  41.2932630  18.1756120  75.6484920  41.6862200  18.4928320  74.8353610
  41.6549480  17.2968000  75.7629440  33.0279750  16.8428460  83.8385040
  32.6343140  17.6903670  84.0457820  32.3398150  16.2054830  84.0293680
  39.6024800  16.9263430  86.9081780  38.9123120  16.7335630  87.5427870
  40.3457100  17.2098070  87.4406080  30.3296800  14.7656920  77.8715120
  30.0409850  15.3359780  78.5840100  31.0742560  14.2861370  78.2346350
  30.5167030  18.7077040  69.0817840  30.4341700  19.6507800  69.2232830
  30.1650090  18.5651950  68.2030190  38.3165160  17.4416070  78.1488190
  38.3201220  17.0006020  77.2992730  39.2116280  17.7633400  78.2560010
  34.1667540  17.3242560  77.1082400  33.8267590  17.8017790  77.8649450
  33.4044860  16.8707680  76.7483500  38.3785310  18.4428150  71.1394950
  38.4998130  18.4014630  72.0880770  37.9933820  19.3052300  70.9841680
  42.3413680  16.2195550  79.1558640  42.3586420  16.6704200  80.0000490
  42.0929260  15.3201190  79.3692080  37.3906810  20.7529290  70.5378250
  36.8223710  20.3047540  69.9114160  38.0995810  21.1122070  70.0043400
  45.7684430  13.6327730  84.9945020  46.0930200  12.9017390  85.5203000
  45.8040940  13.3141370  84.0926010  32.4675990  24.6541310  84.4144980
  32.0830780  24.0134980  85.0127940  32.7788180  25.3577430  84.9839710
  38.6173130  21.5017850  79.8953600  38.9843260  21.0276420  80.6414940
  38.4278190  22.3759420  80.2361940  31.4813620  16.2461540  76.0247070
  31.1960540  15.8817210  76.8625690  31.4192480  15.5142000  75.4110210
  36.4072500  20.5426490  82.2137810  36.1029570  21.4218470  82.4388170
  37.3618960  20.6026280  82.2495250  34.9354290  24.7487480  72.8104660
  34.1616550  24.2085100  72.6503380  35.6648920  24.2294090  72.4722420
  41.1552210  15.1390800  72.7460440  40.3416820  14.6403970  72.6705750
  40.9614160  15.9789050  72.3296790  41.0761070  23.8161900  84.4900050
  41.0098380  22.8957570  84.2357640  40.4466210  23.9137340  85.2044690
  43.8700600  19.5110450  71.0422600  44.7580220  19.8227680  70.8673940
  43.8405690  18.6382700  70.6503180  34.9791690  24.4167860  76.4483470
  35.4970360  23.6136120  76.3940360  34.5275710  24.3547000  77.2900300
  39.8661190  25.6834140  71.7210770  40.2076890  26.4276370  71.2254090
  39.0373900  25.9965260  72.0835600  32.4636230  21.3829230  83.3609170
  32.1051170  22.0483080  83.9482510  32.1690790  20.5512780  83.7321790
  35.6649350  21.8413470  86.2448720  35.3649490  21.9870650  85.3476540
  36.4360590  21.2818760  86.1522110  41.0077800  26.6382470  84.2403850
  41.0222340  25.7063430  84.0222760  40.3002900  26.7242230  84.8793620
  46.1414870  20.8222290  70.5102460  46.0578590  21.2536510  69.6598900
  46.8609060  21.2820640  70.9429280  47.2189010  23.2789810  83.5872430
  46.4937200  23.8718590  83.3901820  47.7464470  23.2713350  82.7885800
  38.8351880  25.7647670  74.4926690  39.5223010  26.3116880  74.8734280
  38.0484300  26.3088400  74.5276300  30.9744280  21.3820490  69.9843770
  31.8439130  21.6645290  70.2679690  30.4834600  22.1956360  69.8692580
  38.1379090  22.7693700  74.1052050  38.5941870  23.5798950  74.3312240
  37.7867300  22.4516840  74.9370540  40.4411700  28.2800040  81.3344350
  41.0853920  28.4859420  82.0117770  40.8041140  27.5188440  80.8815200
  34.0390870  13.1131350  74.5774570  33.9105500  13.1049250  75.5259490
  33.2152890  13.4514440  74.2265580  41.7143780  26.2832390  80.0521800
  42.3566010  25.5825550  80.1653970  42.2393130  27.0630830  79.8718690
  43.4881400  27.0827290  83.2557860  43.8237640  27.6693980  83.9335780
  42.5681740  26.9520000  83.4855650  31.3415530  30.5947870  70.5505400
  31.7013170  31.1937210  69.8962670  31.2007870  31.1407760  71.3240430
  31.0384800  14.8722470  84.0381270  30.3243320  15.0719390  84.6433880
  31.4579840  14.0962040  84.4096070  31.3257390  28.8602730  85.0247800
  31.4348510  27.9197470  84.8843190  30.6737950  29.1257480  84.3761530
  39.3169980  27.1318620  86.4245920  38.9966850  26.4127860  86.9691610
  38.6428340  27.8073690  86.4981980  37.3584150  27.9779070  71.3679070
  37.3494250  28.7108760  70.7523580  36.4382510  27.7310650  71.4606030
  32.9590790  23.1993960  72.1125830  32.3518740  23.9392860  72.1221130
  33.4340140  23.2893320  71.2864030  42.5323580  17.3644780  81.7882720
  42.9004400  16.5439990  82.1162290  41.6721780  17.4246670  82.2038370
  45.8985610  16.3201720  72.5970280  45.2698770  16.4247390  71.8828510
  45.4037530  16.5398500  73.3864160  40.3443750  28.0407310  70.0304260
  40.4455730  27.8371300  69.1006240  39.4445490  27.7865590  70.2352040
  37.8669640  18.5987670  74.0128160  37.1585790  19.0674010  74.4541770
  38.1514120  17.9409680  74.6473350  39.4925570  20.0184370  82.0120690
  39.9910820  20.4930190  82.6772540  39.6348520  19.0947890  82.2190720
  41.8985070  15.3238330  75.4523950  41.7752850  15.3424460  74.5033460
  42.8469630  15.3717270  75.5722350  38.9861860  30.5593630  74.7251930
  39.2403360  30.5215020  73.8031300  38.0374340  30.4326960  74.7180180
  36.0704660  16.9072750  71.3878870  36.9195190  17.3442900  71.3219060
  35.7035930  17.2193010  72.2150930  46.6992430  16.2352330  82.8549080
  46.1966030  16.9757730  83.1942890  47.5149090  16.6236330  82.5385870
  34.9696080  23.1605110  69.8614400  35.7359350  23.0486470  70.4239830
  35.0470770  22.4643080  69.2091170  33.6642840  20.5930180  70.5447290
  33.7446430  19.6457690  70.6564690  34.5562590  20.9237060  70.6507950
  34.4657550  30.7425570  77.6481830  35.2020030  30.1941030  77.9190400
  34.8498470  31.6081580  77.5087820  31.3503030  26.8099140  73.5223340
  30.4242810  27.0520280  73.5128750  31.8159460  27.6373400  73.4008090
  33.4715830  29.9271640  86.8367410  34.2728560  30.2483690  87.2502810
  32.9567650  29.5667220  87.5587320  37.5759860  29.9155880  69.4707400
  38.3688470  30.2044710  69.0189190  37.0564210  29.4848050  68.7919880
  42.3080460  26.0351510  86.7842820  41.7018620  26.0583110  86.0438570
  42.0034570  25.3034550  87.3210070  31.1913640  22.4145100  85.7803460
  31.6952660  21.8352380  86.3519690  30.4521060  22.6985330  86.3179830
  38.0937260  25.1359290  69.3349750  37.9887900  24.5211640  70.0611130
  37.9261480  24.6125180  68.5512760  38.2451580  23.8216090  85.3138980
  37.4797250  24.3901090  85.2293650  38.4267540  23.5292300  84.4207210
  41.3339990  24.1979320  69.9391740  40.7850090  24.6448620  70.5834480
  41.9559250  23.6928570  70.4629410  45.3874930  25.5521420  85.8714000
  46.1284400  25.8897180  85.3681460  44.6247610  25.7213480  85.3183770
  33.2236720  20.5574690  86.6753530  33.2642060  20.2588560  87.5838760
  34.0782220  20.9582300  86.5161050  37.0015110  23.1570240  71.8357040
  37.4231530  22.9910110  72.6788430  37.1265950  22.3470470  71.3412180
  35.1642530  19.1366790  84.6428020  34.6338990  18.6457740  84.0151360
  35.8330600  19.5650990  84.1085950  39.5142750  22.1807850  69.0834140
  40.0348410  21.4656870  68.7175290  40.1611150  22.8193720  69.3834650
  44.0620590  23.6036250  84.4069210  44.4761610  23.7581330  85.2559630
  43.1271590  23.7291470  84.5694990  44.5342760  20.9432410  86.4108360
  45.1163530  20.1884730  86.3228840  44.7104530  21.4739850  85.6339840
  35.6514830  16.1029160  84.7225310  35.5571700  15.4849910  83.9976180
  35.0712220  16.8295450  84.4955220  38.4176270  14.6602400  81.7552700
  37.9693570  14.6826660  80.9098250  37.7841470  14.2621420  82.3523000
  38.8235820  23.5556730  82.3765140  39.2423930  24.3989460  82.2041380
  37.9044450  23.6928770  82.1471920  41.1599720  21.2872910  83.7602980
  41.2795930  20.6914050  84.4997820  42.0193720  21.3242600  83.3404280
  35.8974010  19.2303470  68.7815200  35.6963070  18.3670830  69.1428540
  35.7266060  19.1436830  67.8436800  36.6743240  29.8609740  83.4922870
  36.1364330  30.5855800  83.1731570  36.9277200  29.3840080  82.7020210
  37.9268490  17.8294260  85.0178800  38.5168180  17.5210110  85.7056620
  37.1088730  17.3574010  85.1738700  42.7461920  17.4460070  85.2511820
  42.0577440  16.7841610  85.1861810  43.4667940  16.9998340  85.6960280
  43.3762320  14.0411700  71.3102080  43.6564610  13.1979600  71.6661500
  42.6028050  14.2734810  71.8240830  34.6956810  16.3304090  68.7693080
  34.9982710  16.3371520  67.8612230  35.4351400  15.9801950  69.2660740
  39.5305450  31.0960950  83.7509520  39.4564150  31.9996090  84.0581890
  38.6284290  30.7772850  83.7231590  37.9141740  15.2738710  69.7549280
  37.5663740  14.5962700  69.1751730  38.1154510  14.8128220  70.5692670
  40.0790780  30.2619460  71.3735880  40.9741570  30.6004430  71.3954640
  40.1108410  29.5398870  70.7460160  33.7186940  25.6346510  69.6022880
  34.1561810  26.1776180  70.2580460  34.2034670  24.8093460  69.6119220
  30.9332740  28.4235540  77.0543140  31.2635750  27.5556600  76.8221780
  31.3623740  28.6294060  77.8848100  35.5294660  26.7544550  74.7145110
  35.2290200  26.6309520  75.6149020  35.4232150  25.8953140  74.3060840
  31.4222950  29.2906130  79.7924770  30.9853940  29.4706930  80.6248920
  31.9900630  30.0480750  79.6506490  47.7543040  23.2788430  71.9205990
  48.5161950  23.8485080  72.0265680  47.7697410  22.7115630  72.6914300
  31.2547380  21.8026360  76.1513650  30.5996220  21.5338000  75.5073350
  32.0925330  21.6930840  75.7015630  48.7603010  24.1338530  76.7647920
  49.1311840  23.3505850  76.3583890  49.4004940  24.8227630  76.5865220
  45.7436770  25.5175110  82.1778240  44.9296610  25.9472270  82.4404030
  46.1510970  26.1293520  81.5647290  44.2037820  16.5967650  70.3732140
  44.6222700  16.4098630  69.5328800  43.8973880  15.7446700  70.6835070
  47.7027550  21.5091790  74.0707940  47.3271150  20.7419720  73.6389230
  46.9730670  21.8914490  74.5582870  32.2923310  22.1878930  80.6916990
  32.6596350  22.1006330  81.5713010  31.7234130  21.4245480  80.5923850
  47.0927170  20.6563310  83.7047460  46.8613260  20.4276060  82.8045410
  47.3531720  21.5762860  83.6592350  31.8439310  19.0988020  84.5975410
  30.9495360  19.0654780  84.9369120  32.3836860  19.2974810  85.3626660
  45.5315240  15.8819740  86.4827160  46.4085420  15.8903140  86.8661160
  45.5436080  15.1450580  85.8719510  30.4685460  19.0125290  72.0938980
  29.5649540  19.2755490  71.9190640  30.9526080  19.2836460  71.3138940
  33.0112670  18.0690830  70.0033360  33.7204370  17.6474050  69.5180640
  32.2952610  18.1366060  69.3716710  32.6586830  14.1230160  69.0436010
  33.3814960  14.6639100  69.3617230  32.9311350  13.8493580  68.1677550
  46.4678480  18.9922630  73.3107590  46.9637600  18.7593500  74.0956470
  46.2694550  18.1534470  72.8945230  32.3479020  13.3736350  78.9458630
  32.9955210  12.8233730  78.5053790  32.7680860  13.6279500  79.7674440
  47.8965640  17.6283580  75.8445270  47.7864920  17.4739620  76.7827540
  48.6573230  17.1004520  75.6020680  46.2431360  13.5677710  82.3028270
  46.8803580  14.1811850  82.6687460  46.3906250  13.6038370  81.3577500
  48.7855910  15.4591500  69.0851410  49.7105220  15.3272680  68.8769700
  48.7631700  15.5384320  70.0387860  48.8594400  16.2302160  71.7108120
  48.0645900  16.1647280  72.2401030  49.0637680  17.1652800  71.6993470
  32.1011020  13.5292020  81.6883950  31.7525840  13.9855840  82.4542130
  31.7698720  12.6349150  81.7706380  33.7075390  26.7011620  85.8537140
  33.6645020  26.3304530  86.7351600  33.8386400  27.6389190  85.9938960
  37.4081420  28.2571210  81.4546860  37.1672780  28.5245770  80.5677380
  38.3484060  28.4276940  81.5097720  39.6135840  14.7203900  85.2103370
  39.5524730  15.3125730  85.9598780  40.5536220  14.6129860  85.0653630
  42.2510400  14.3773960  84.8495660  42.8650810  14.6953250  84.1876740
  42.7959960  13.8922550  85.4691520  32.7731660  13.0568220  84.9634720
  33.3214650  12.8756270  84.2000830  32.8386970  12.2662330  85.4991030
  33.5463420  29.6473870  82.9734920  32.9523740  29.5158570  83.7124960
  33.5387260  28.8112010  82.5077020  42.9918440  12.9406100  81.1764950
  42.1178280  13.2741210  80.9737880  42.8829190  12.4679280  82.0016820
  43.8990420  15.1476970  82.5606670  43.5703780  14.3328730  82.1808400
  44.8472720  15.1046780  82.4372360  33.1775650  27.0132250  81.9242960
  32.4509710  26.3937540  81.8568910  33.2384800  27.4072860  81.0541040
  36.7820750  29.2277250  78.7092370  37.2985770  28.6164610  78.1840630
  37.4318130  29.7306030  79.2003380  39.5216250  30.1185740  79.5361350
  39.8094060  29.8640040  78.6594360  40.0339470  29.5663100  80.1266920
  40.7393260  13.8575940  80.1157860  39.9565050  14.3321440  80.3954620
  40.4456190  12.9530770  80.0071040  45.2914330  14.5599040  78.1606950
  45.7322420  14.5044140  77.3128550  45.0221920  15.4757050  78.2317130
  47.1552900  14.1914280  76.1715770  47.0941300  13.2475500  76.0246790
  47.9344930  14.2994370  76.7169230  31.4605650  30.3306640  75.1339720
  31.2927690  29.6977320  75.8321610  30.5940160  30.5366040  74.7833910
  32.0833670  14.1623420  72.6371580  32.8413030  14.2752300  72.0635610
  31.6210840  14.9992620  72.5915010  38.6247480  16.2762690  75.6273890
  37.8121990  15.9019580  75.2869770  39.1289120  15.5207770  75.9295080
  43.1272460  12.9405140  76.8656960  43.7301830  13.5125350  77.3405480
  42.3865450  13.5044580  76.6430860  46.2707060  13.3426700  72.1397240
  46.4657690  14.2410150  72.4064670  45.4836930  13.1113780  72.6330190
  33.0668350  29.0239870  72.5789860  32.5415970  29.4047900  71.8751820
  32.9912930  29.6490640  73.2999570  34.4558820  14.6887470  71.1773550
  34.9851580  13.9017270  71.0481500  35.0887140  15.3678660  71.4109080
  36.6496660  14.4262610  74.2318940  36.0199400  13.7249920  74.3989070
  36.1101800  15.1866740  74.0152100  36.7752220  13.7046590  86.6671430
  36.4936490  14.2080190  85.9032250  37.1571920  12.9068340  86.3013560
  35.6661320  30.9722250  71.4539110  36.3980140  30.6881530  70.9063000
  35.9254990  30.7335530  72.3438490  34.8276110  27.0886980  71.4585440
  34.1984990  27.5572080  72.0071270  34.9423940  26.2436200  71.8931630
  43.3767680  13.1200170  87.2451900  43.2633130  13.4394780  88.1403420
  44.1937420  13.5212680  86.9489180  42.2825830  21.1392640  57.6086640
  42.2019880  20.2247250  57.3378350  41.8690250  21.6359710  56.9026350
  40.4143870  22.9171660  59.4895910  39.6385970  22.4372100  59.7794480
  41.0656800  22.2377310  59.3152070  34.4309700  23.2291470  60.3671670
  33.5994580  22.9740180  60.7668180  35.0390680  23.3002240  61.1029590
  34.4110960  27.2631560  60.5629690  34.7139000  26.3729300  60.3839910
  35.1554550  27.8201780  60.3351940  32.8401650  18.1893360  54.1514060
  31.9518350  18.5309330  54.0493940  33.1242840  17.9893680  53.2594890
  30.8034660  20.7899010  60.0353760  31.3750770  20.0221210  60.0357400
  30.8036200  21.0887770  59.1260370  39.8552860  25.5928850  59.4966070
  39.7861140  24.6518790  59.3355200  40.6172720  25.6830260  60.0688640
  32.0459530  16.1983370  61.8222690  31.8662370  15.3009120  62.1025450
  31.6439610  16.7455240  62.4969640  40.8858030  18.3999230  59.7235000
  41.2622850  17.5271110  59.6108670  40.7877540  18.7357930  58.8325440
  35.0163040  16.7724860  55.1852440  35.1229790  17.6728590  55.4921200
  34.1055400  16.7242830  54.8947090  44.6682150  15.8949670  56.6563340
  45.4891770  15.4046240  56.6988820  44.7016230  16.4847330  57.4095180
  32.6646200  18.6943870  60.4305030  33.3456310  18.9582240  61.0492430
  32.3494250  17.8544740  60.7643040  36.8570770  19.7411230  59.5177620
  37.3648990  20.2392200  60.1582640  37.3884010  18.9646430  59.3416980
  48.9581700  17.9116420  63.2206970  48.2533870  18.2998130  62.7022080
  49.2239620  18.6066710  63.8227900  35.1406870  14.3809790  63.7841040
  35.1425310  14.8982180  62.9786940  34.3111180  13.9039970  63.7610970
  41.5277960  24.4929100  55.2830940  40.9095230  24.9578550  54.7193660
  42.0401210  25.1856580  55.7000450  36.3909720  24.0204970  61.9614540
  36.0579100  24.6473890  62.6035610  36.5676400  24.5466850  61.1816210
  44.9043630  17.8350050  59.4290880  44.1999200  18.1234940  60.0093990
  45.2655790  18.6450160  59.0690440  34.8222200  16.0919750  61.7911490
  35.1639010  16.9361800  61.4965360  33.8838010  16.2403490  61.9076830
  35.6028820  25.9885770  63.7763720  36.2202820  26.6636850  63.4948170
  34.7421940  26.3973750  63.6851220  30.8961160  25.1785630  52.6570570
  30.5189140  25.6672730  51.9255470  31.1534230  25.8510910  53.2877100
  46.5206410  27.4525180  61.6918360  45.8369930  28.1224290  61.6835030
  47.0600700  27.6505830  60.9263220  47.9730550  17.2804840  59.8200090
  47.0255460  17.3143820  59.9515520  48.2980540  18.0943790  60.2049450
  38.5050090  13.5802020  58.1156080  38.8125070  13.0248910  57.3991580
  37.5750790  13.7146480  57.9329070  43.4550590  24.1999150  61.7346150
  43.8719380  23.9859260  60.8999610  44.1790410  24.4571940  62.3054770
  40.8930850  21.6450850  54.8516200  39.9660130  21.5788230  55.0804670
  41.0455670  22.5830980  54.7371440  40.8799930  17.9167850  51.8483360
  39.9403600  18.0781810  51.9335820  41.1983190  18.6353530  51.3019350
  47.4012690  22.5986370  61.8262390  46.5731320  22.6679460  61.3512520
  47.9963170  23.1840680  61.3578220  44.9228140  23.2071150  55.3551450
  44.3040560  22.8690700  54.7077750  44.9052590  22.5630910  56.0630640
  44.3654700  19.3855690  62.7717260  43.9525880  20.2109400  63.0257250
  43.6330650  18.8000730  62.5793620  36.4987490  22.1715590  57.6335930
  36.0944490  21.4592840  57.1381830  36.5850610  21.8268830  58.5223970
  36.9669190  25.8583150  59.7975140  36.6697480  25.2528620  59.1182920
  37.9169010  25.8960460  59.6864500  35.2116110  18.9458800  61.4134970
  35.7630700  19.0554140  60.6388220  35.7259620  19.3196400  62.1290200
  45.0554800  29.4315020  63.4598240  44.5785360  30.2387210  63.2670850
  44.3716590  28.7793350  63.6124450  36.0587620  25.5964840  66.4482940
  35.1616150  25.8204810  66.6956340  36.0840490  25.7199780  65.4994340
  43.0992840  22.4457960  52.3624200  43.5386120  21.6080390  52.2162020
  43.8121260  23.0787360  52.4488340  34.8858840  22.4678160  65.0240310
  34.7466610  23.3400960  65.3927710  34.0040200  22.1250970  64.8788250
  36.6839190  28.4099860  67.2325460  36.6554620  28.8142810  66.3653890
  36.5204160  27.4810220  67.0697060  46.6809980  13.7000770  50.6765240
  46.3682640  13.7927600  51.5764310  47.4422450  14.2781800  50.6262670
  33.1992120  21.0660570  55.1342580  33.0789720  21.7922660  54.5223850
  32.8893010  20.2963480  54.6570490  30.8377490  24.2375710  60.9411220
  30.9157910  24.3724480  59.9966940  31.4519170  23.5291600  61.1339340
  32.0825120  25.9375900  57.3517400  31.6753200  26.0790490  56.4971000
  32.9738130  25.6536060  57.1488610  36.3546780  30.1521680  55.4640070
  36.1789260  29.2357220  55.2507870  35.5002520  30.5108970  55.7037870
  43.5784530  27.8810710  52.2466450  42.8849690  27.8788000  51.5868730
  44.3207390  27.4570030  51.8160620  47.8911270  18.4372270  66.6539380
  47.2755540  18.9451940  66.1254840  47.5707690  17.5370600  66.5965320
  30.8937010  25.2789880  63.4805680  31.0568050  24.8095240  62.6625050
  31.3589460  24.7713440  64.1454520  35.6655780  14.4095640  58.5166250
  35.2223930  15.1905180  58.1850770  36.2240770  14.7325530  59.2237190
  39.9525590  17.2764160  64.1201570  39.4904960  17.4847180  64.9321510
  39.5503700  16.4623510  63.8172240  44.9530100  18.4973110  65.2498230
  44.1023690  18.1978860  65.5707300  44.7931890  18.7415120  64.3382050
  42.0479810  19.9974860  67.3497020  42.3733220  19.1638610  67.0099250
  42.8360140  20.5203380  67.4975350  38.7814600  14.0306340  53.3972080
  38.1568780  14.0266210  54.1225390  38.6944720  13.1637300  53.0008050
  37.7031680  14.9542970  60.3755850  38.0004010  15.8605800  60.2947870
  38.2517240  14.4661750  59.7615420  35.4570000  19.5329210  56.2447500
  35.2310920  19.3166380  57.1494120  34.6762530  19.9657670  55.8993470
  42.6867760  19.5392580  54.8438150  42.0876650  20.2628380  54.6601770
  43.2347370  19.4769360  54.0614600  37.8969210  20.4314790  66.9107770
  37.8012810  19.4909520  66.7608170  38.7401190  20.6529860  66.5155840
  41.2932630  18.1756120  56.8741430  41.6862200  18.4928320  56.0610120
  41.6549480  17.2968000  56.9885950  33.0279750  16.8428460  65.0641550
  32.6343140  17.6903670  65.2714330  32.3398150  16.2054830  65.2550190
  39.6024800  16.9263430  68.1338290  38.9123120  16.7335630  68.7684380
  40.3457100  17.2098070  68.6662590  30.3296800  14.7656920  59.0971630
  30.0409850  15.3359780  59.8096610  31.0742560  14.2861370  59.4602860
  30.5167030  18.7077040  50.3074350  30.4341700  19.6507800  50.4489340
  30.1650090  18.5651950  49.4286700  41.8787770  20.7661870  60.9692210
  41.1468890  21.2748680  61.3182310  41.4812110  19.9491850  60.6680990
  38.3165160  17.4416070  59.3744700  38.3201220  17.0006020  58.5249240
  39.2116280  17.7633400  59.4816520  34.1667540  17.3242560  58.3338910
  33.8267590  17.8017790  59.0905960  33.4044860  16.8707680  57.9740010
  38.3785310  18.4428150  52.3651460  38.4998130  18.4014630  53.3137280
  37.9933820  19.3052300  52.2098190  42.3413680  16.2195550  60.3815150
  42.3586420  16.6704200  61.2257000  42.0929260  15.3201190  60.5948590
  37.3906810  20.7529290  51.7634760  36.8223710  20.3047540  51.1370670
  38.0995810  21.1122070  51.2299910  45.7684430  13.6327730  66.2201530
  46.0930200  12.9017390  66.7459510  45.8040940  13.3141370  65.3182520
  32.4675990  24.6541310  65.6401490  32.0830780  24.0134980  66.2384450
  32.7788180  25.3577430  66.2096220  38.6173130  21.5017850  61.1210110
  38.9843260  21.0276420  61.8671450  38.4278190  22.3759420  61.4618450
  31.4813620  16.2461540  57.2503580  31.1960540  15.8817210  58.0882200
  31.4192480  15.5142000  56.6366720  36.4072500  20.5426490  63.4394320
  36.1029570  21.4218470  63.6644680  37.3618960  20.6026280  63.4751760
  34.9354290  24.7487480  54.0361170  34.1616550  24.2085100  53.8759890
  35.6648920  24.2294090  53.6978930  45.6942270  23.7452840  59.8287560
  46.4141390  24.2408130  59.4383670  45.4924090  23.0670730  59.1841430
  41.1552210  15.1390800  53.9716950  40.3416820  14.6403970  53.8962260
  40.9614160  15.9789050  53.5553300  41.0761070  23.8161900  65.7156560
  41.0098380  22.8957570  65.4614150  40.4466210  23.9137340  66.4301200
  43.8700600  19.5110450  52.2679110  44.7580220  19.8227680  52.0930450
  43.8405690  18.6382700  51.8759690  34.9791690  24.4167860  57.6739980
  35.4970360  23.6136120  57.6196870  34.5275710  24.3547000  58.5156810
  39.8661190  25.6834140  52.9467280  40.2076890  26.4276370  52.4510600
  39.0373900  25.9965260  53.3092110  32.4636230  21.3829230  64.5865680
  32.1051170  22.0483080  65.1739020  32.1690790  20.5512780  64.9578300
  35.6649350  21.8413470  67.4705230  35.3649490  21.9870650  66.5733050
  36.4360590  21.2818760  67.3778620  41.0077800  26.6382470  65.4660360
  41.0222340  25.7063430  65.2479270  40.3002900  26.7242230  66.1050130
  46.1414870  20.8222290  51.7358970  46.0578590  21.2536510  50.8855410
  46.8609060  21.2820640  52.1685790  47.2189010  23.2789810  64.8128940
  46.4937200  23.8718590  64.6158330  47.7464470  23.2713350  64.0142310
  47.1702120  27.6764550  54.4641100  46.5278280  27.0220170  54.7384820
  46.7832780  28.0819640  53.6881770  38.8351880  25.7647670  55.7183200
  39.5223010  26.3116880  56.0990790  38.0484300  26.3088400  55.7532810
  30.9744280  21.3820490  51.2100280  31.8439130  21.6645290  51.4936200
  30.4834600  22.1956360  51.0949090  38.1379090  22.7693700  55.3308560
  38.5941870  23.5798950  55.5568750  37.7867300  22.4516840  56.1627050
  40.4411700  28.2800040  62.5600860  41.0853920  28.4859420  63.2374280
  40.8041140  27.5188440  62.1071710  34.0390870  13.1131350  55.8031080
  33.9105500  13.1049250  56.7516000  33.2152890  13.4514440  55.4522090
  41.7143780  26.2832390  61.2778310  42.3566010  25.5825550  61.3910480
  42.2393130  27.0630830  61.0975200  45.5599500  26.5681010  51.0017450
  45.3337080  25.8511450  51.5942090  45.1695700  26.3193450  50.1639200
  43.4881400  27.0827290  64.4814370  43.8237640  27.6693980  65.1592290
  42.5681740  26.9520000  64.7112160  31.3415530  30.5947870  51.7761910
  31.7013170  31.1937210  51.1219180  31.2007870  31.1407760  52.5496940
  31.0384800  14.8722470  65.2637780  30.3243320  15.0719390  65.8690390
  31.4579840  14.0962040  65.6352580  45.1415750  24.4852950  52.6631610
  44.8537450  24.9465640  53.4509490  45.9367920  24.0250720  52.9315830
  31.3257390  28.8602730  66.2504310  31.4348510  27.9197470  66.1099700
  30.6737950  29.1257480  65.6018040  39.3169980  27.1318620  67.6502430
  38.9966850  26.4127860  68.1948120  38.6428340  27.8073690  67.7238490
  37.3584150  27.9779070  52.5935580  37.3494250  28.7108760  51.9780090
  36.4382510  27.7310650  52.6862540  32.9590790  23.1993960  53.3382340
  32.3518740  23.9392860  53.3477640  33.4340140  23.2893320  52.5120540
  42.5323580  17.3644780  63.0139230  42.9004400  16.5439990  63.3418800
  41.6721780  17.4246670  63.4294880  45.8985610  16.3201720  53.8226790
  45.2698770  16.4247390  53.1085020  45.4037530  16.5398500  54.6120670
  40.3443750  28.0407310  51.2560770  40.4455730  27.8371300  50.3262750
  39.4445490  27.7865590  51.4608550  37.8669640  18.5987670  55.2384670
  37.1585790  19.0674010  55.6798280  38.1514120  17.9409680  55.8729860
  39.4925570  20.0184370  63.2377200  39.9910820  20.4930190  63.9029050
  39.6348520  19.0947890  63.4447230  41.8985070  15.3238330  56.6780460
  41.7752850  15.3424460  55.7289970  42.8469630  15.3717270  56.7978860
  38.9861860  30.5593630  55.9508440  39.2403360  30.5215020  55.0287810
  38.0374340  30.4326960  55.9436690  36.0704660  16.9072750  52.6135380
  36.9195190  17.3442900  52.5475570  35.7035930  17.2193010  53.4407440
  46.6992430  16.2352330  64.0805590  46.1966030  16.9757730  64.4199400
  47.5149090  16.6236330  63.7642380  44.9914440  21.4785510  57.5266950
  44.0504580  21.4935740  57.7014640  45.3058510  20.6921470  57.9727250
  34.9696080  23.1605110  51.0870910  35.7359350  23.0486470  51.6496340
  35.0470770  22.4643080  50.4347680  33.6642840  20.5930180  51.7703800
  33.7446430  19.6457690  51.8821200  34.5562590  20.9237060  51.8764460
  46.9940020  28.6494360  59.2021210  47.1187440  29.4725530  59.6745020
  47.8605580  28.4385090  58.8545360  34.4657550  30.7425570  58.8738340
  35.2020030  30.1941030  59.1446910  34.8498470  31.6081580  58.7344330
  31.3503030  26.8099140  54.7479850  30.4242810  27.0520280  54.7385260
  31.8159460  27.6373400  54.6264600  33.4715830  29.9271640  68.0623920
  34.2728560  30.2483690  68.4759320  32.9567650  29.5667220  68.7843830
  37.5759860  29.9155880  50.6963910  38.3688470  30.2044710  50.2445700
  37.0564210  29.4848050  50.0176390  42.3080460  26.0351510  68.0099330
  41.7018620  26.0583110  67.2695080  42.0034570  25.3034550  68.5466580
  46.6290030  29.1426010  52.1200650  46.3431540  28.7291150  51.3054830
  46.4309580  30.0713720  52.0001170  31.1913640  22.4145100  67.0059970
  31.6952660  21.8352380  67.5776200  30.4521060  22.6985330  67.5436340
  38.0937260  25.1359290  50.5606260  37.9887900  24.5211640  51.2867640
  37.9261480  24.6125180  49.7769270  38.2451580  23.8216090  66.5395490
  37.4797250  24.3901090  66.4550160  38.4267540  23.5292300  65.6463720
  41.3339990  24.1979320  51.1648250  40.7850090  24.6448620  51.8090990
  41.9559250  23.6928570  51.6885920  33.2236720  20.5574690  67.9010040
  33.2642060  20.2588560  68.8095270  34.0782220  20.9582300  67.7417560
  37.0015110  23.1570240  53.0613550  37.4231530  22.9910110  53.9044940
  37.1265950  22.3470470  52.5668690  35.1642530  19.1366790  65.8684530
  34.6338990  18.6457740  65.2407870  35.8330600  19.5650990  65.3342460
  39.5142750  22.1807850  50.3090650  40.0348410  21.4656870  49.9431800
  40.1611150  22.8193720  50.6091160  44.0620590  23.6036250  65.6325720
  44.4761610  23.7581330  66.4816140  43.1271590  23.7291470  65.7951500
  44.5342760  20.9432410  67.6364870  45.1163530  20.1884730  67.5485350
  44.7104530  21.4739850  66.8596350  35.6514830  16.1029160  65.9481820
  35.5571700  15.4849910  65.2232690  35.0712220  16.8295450  65.7211730
  38.4176270  14.6602400  62.9809210  37.9693570  14.6826660  62.1354760
  37.7841470  14.2621420  63.5779510  38.8235820  23.5556730  63.6021650
  39.2423930  24.3989460  63.4297890  37.9044450  23.6928770  63.3728430
  41.1599720  21.2872910  64.9859490  41.2795930  20.6914050  65.7254330
  42.0193720  21.3242600  64.5660790  43.4987620  21.8410100  63.5622000
  42.9722840  22.3652720  62.9587140  43.8418960  22.4737490  64.1931730
  35.8974010  19.2303470  50.0071710  35.6963070  18.3670830  50.3685050
  35.7266060  19.1436830  49.0693310  36.6743240  29.8609740  64.7179380
  36.1364330  30.5855800  64.3988080  36.9277200  29.3840080  63.9276720
  37.9268490  17.8294260  66.2435310  38.5168180  17.5210110  66.9313130
  37.1088730  17.3574010  66.3995210  42.7461920  17.4460070  66.4768330
  42.0577440  16.7841610  66.4118320  43.4667940  16.9998340  66.9216790
  43.3762320  14.0411700  52.5358590  43.6564610  13.1979600  52.8918010
  42.6028050  14.2734810  53.0497340  34.6956810  16.3304090  49.9949590
  34.9982710  16.3371520  49.0868740  35.4351400  15.9801950  50.4917250
  37.9141740  15.2738710  50.9805790  37.5663740  14.5962700  50.4008240
  38.1154510  14.8128220  51.7949180  40.0790780  30.2619460  52.5992390
  40.9741570  30.6004430  52.6211150  40.1108410  29.5398870  51.9716670
  33.7186940  25.6346510  50.8279390  34.1561810  26.1776180  51.4836970
  34.2034670  24.8093460  50.8375730  30.9332740  28.4235540  58.2799650
  31.2635750  27.5556600  58.0478290  31.3623740  28.6294060  59.1104610
  35.5294660  26.7544550  55.9401620  35.2290200  26.6309520  56.8405530
  35.4232150  25.8953140  55.5317350  31.4222950  29.2906130  61.0181280
  30.9853940  29.4706930  61.8505430  31.9900630  30.0480750  60.8763000
  48.2986580  26.5340950  50.6428300  47.4679540  26.6017600  51.1135530
  48.4758410  27.4245070  50.3395160  47.7543040  23.2788430  53.1462500
  48.5161950  23.8485080  53.2522190  47.7697410  22.7115630  53.9170810
  31.2547380  21.8026360  57.3770160  30.5996220  21.5338000  56.7329860
  32.0925330  21.6930840  56.9272140  48.7603010  24.1338530  57.9904430
  49.1311840  23.3505850  57.5840400  49.4004940  24.8227630  57.8121730
  45.7436770  25.5175110  63.4034750  44.9296610  25.9472270  63.6660540
  46.1510970  26.1293520  62.7903800  47.8062210  23.5722800  50.3035020
  48.0811050  24.4801680  50.1754240  47.6172950  23.5085330  51.2397010
  44.2037820  16.5967650  51.5988650  44.6222700  16.4098630  50.7585310
  43.8973880  15.7446700  51.9091580  47.7027550  21.5091790  55.2964450
  47.3271150  20.7419720  54.8645740  46.9730670  21.8914490  55.7839380
  32.2923310  22.1878930  61.9173500  32.6596350  22.1006330  62.7969520
  31.7234130  21.4245480  61.8180360  47.0927170  20.6563310  64.9303970
  46.8613260  20.4276060  64.0301920  47.3531720  21.5762860  64.8848860
  31.8439310  19.0988020  65.8231920  30.9495360  19.0654780  66.1625630
  32.3836860  19.2974810  66.5883170  45.5315240  15.8819740  67.7083670
  46.4085420  15.8903140  68.0917670  45.5436080  15.1450580  67.0976020
  30.4685460  19.0125290  53.3195490  29.5649540  19.2755490  53.1447150
  30.9526080  19.2836460  52.5395450  46.9778510  19.7349280  58.5971690
  47.5015990  19.2411930  57.9661860  47.5637930  19.8699640  59.3419260
  47.1568230  19.8189150  62.1191240  46.2070940  19.7852690  62.2336230
  47.3381240  20.7289260  61.8841010  33.0112670  18.0690830  51.2289870
  33.7204370  17.6474050  50.7437150  32.2952610  18.1366060  50.5973220
  32.6586830  14.1230160  50.2692520  33.3814960  14.6639100  50.5873740
  32.9311350  13.8493580  49.3934060  46.4678480  18.9922630  54.5364100
  46.9637600  18.7593500  55.3212980  46.2694550  18.1534470  54.1201740
  32.3479020  13.3736350  60.1715140  32.9955210  12.8233730  59.7310300
  32.7680860  13.6279500  60.9930950  47.8965640  17.6283580  57.0701780
  47.7864920  17.4739620  58.0084050  48.6573230  17.1004520  56.8277190
  46.2431360  13.5677710  63.5284780  46.8803580  14.1811850  63.8943970
  46.3906250  13.6038370  62.5834010  48.7855910  15.4591500  50.3107920
  49.7105220  15.3272680  50.1026210  48.7631700  15.5384320  51.2644370
  48.8594400  16.2302160  52.9364630  48.0645900  16.1647280  53.4657540
  49.0637680  17.1652800  52.9249980  32.1011020  13.5292020  62.9140460
  31.7525840  13.9855840  63.6798640  31.7698720  12.6349150  62.9962890
  33.7075390  26.7011620  67.0793650  33.6645020  26.3304530  67.9608110
  33.8386400  27.6389190  67.2195470  37.4081420  28.2571210  62.6803370
  37.1672780  28.5245770  61.7933890  38.3484060  28.4276940  62.7354230
  39.6135840  14.7203900  66.4359880  39.5524730  15.3125730  67.1855290
  40.5536220  14.6129860  66.2910140  42.2510400  14.3773960  66.0752170
  42.8650810  14.6953250  65.4133250  42.7959960  13.8922550  66.6948030
  32.7731660  13.0568220  66.1891230  33.3214650  12.8756270  65.4257340
  32.8386970  12.2662330  66.7247540  33.5463420  29.6473870  64.1991430
  32.9523740  29.5158570  64.9381470  33.5387260  28.8112010  63.7333530
  42.9918440  12.9406100  62.4021460  42.1178280  13.2741210  62.1994390
  42.8829190  12.4679280  63.2273330  43.8990420  15.1476970  63.7863180
  43.5703780  14.3328730  63.4064910  44.8472720  15.1046780  63.6628870
  46.3525030  30.9189010  60.7600750  45.8928000  31.6704820  60.3858770
  45.7237490  30.1995480  60.7015550  33.1775650  27.0132250  63.1499470
  32.4509710  26.3937540  63.0825420  33.2384800  27.4072860  62.2797550
  36.7820750  29.2277250  59.9348880  37.2985770  28.6164610  59.4097140
  37.4318130  29.7306030  60.4259890  39.5216250  30.1185740  60.7617860
  39.8094060  29.8640040  59.8850870  40.0339470  29.5663100  61.3523430
  40.7393260  13.8575940  61.3414370  39.9565050  14.3321440  61.6211130
  40.4456190  12.9530770  61.2327550  45.2914330  14.5599040  59.3863460
  45.7322420  14.5044140  58.5385060  45.0221920  15.4757050  59.4573640
  47.1552900  14.1914280  57.3972280  47.0941300  13.2475500  57.2503300
  47.9344930  14.2994370  57.9425740  31.4605650  30.3306640  56.3596230
  31.2927690  29.6977320  57.0578120  30.5940160  30.5366040  56.0090420
  32.0833670  14.1623420  53.8628090  32.8413030  14.2752300  53.2892120
  31.6210840  14.9992620  53.8171520  38.6247480  16.2762690  56.8530400
  37.8121990  15.9019580  56.5126280  39.1289120  15.5207770  57.1551590
  43.1272460  12.9405140  58.0913470  43.7301830  13.5125350  58.5661990
  42.3865450  13.5044580  57.8687370  46.2707060  13.3426700  53.3653750
  46.4657690  14.2410150  53.6321180  45.4836930  13.1113780  53.8586700
  33.0668350  29.0239870  53.8046370  32.5415970  29.4047900  53.1008330
  32.9912930  29.6490640  54.5256080  34.4558820  14.6887470  52.4030060
  34.9851580  13.9017270  52.2738010  35.0887140  15.3678660  52.6365590
  36.6496660  14.4262610  55.4575450  36.0199400  13.7249920  55.6245580
  36.1101800  15.1866740  55.2408610  39.5888610  31.0401840  68.1286060
  40.5155920  30.8046110  68.1722020  39.5739040  31.8673840  67.6472090
  47.8233670  30.5827410  55.1260310  47.9985860  29.8965150  54.4821230
  47.1255240  31.1074460  54.7336980  36.7752220  13.7046590  67.8927940
  36.4936490  14.2080190  67.1288760  37.1571920  12.9068340  67.5270070
  35.6661320  30.9722250  52.6795620  36.3980140  30.6881530  52.1319510
  35.9254990  30.7335530  53.5695000  34.8276110  27.0886980  52.6841950
  34.1984990  27.5572080  53.2327780  34.9423940  26.2436200  53.1188140
  43.3767680  13.1200170  68.4708410  43.2633130  13.4394780  69.3659930
  44.1937420  13.5212680  68.1745690  42.2825830  21.1392640  38.8343150
  42.2019880  20.2247250  38.5634860  41.8690250  21.6359710  38.1282860
  40.4143870  22.9171660  40.7152420  39.6385970  22.4372100  41.0050990
  41.0656800  22.2377310  40.5408580  34.4309700  23.2291470  41.5928180
  33.5994580  22.9740180  41.9924690  35.0390680  23.3002240  42.3286100
  44.4351300  27.3231850  39.4951550  43.9732830  26.5519090  39.8238720
  45.2476850  27.3497920  40.0004000  34.4110960  27.2631560  41.7886200
  34.7139000  26.3729300  41.6096420  35.1554550  27.8201780  41.5608450
  32.8401650  18.1893360  35.3770570  31.9518350  18.5309330  35.2750450
  33.1242840  17.9893680  34.4851400  30.8034660  20.7899010  41.2610270
  31.3750770  20.0221210  41.2613910  30.8036200  21.0887770  40.3516880
  40.6614610  29.6089860  39.1155540  40.0426050  30.0647360  38.5449980
  41.5166390  29.7641320  38.7145240  39.8552860  25.5928850  40.7222580
  39.7861140  24.6518790  40.5611710  40.6172720  25.6830260  41.2945150
  32.0459530  16.1983370  43.0479200  31.8662370  15.3009120  43.3281960
  31.6439610  16.7455240  43.7226150  40.8858030  18.3999230  40.9491510
  41.2622850  17.5271110  40.8365180  40.7877540  18.7357930  40.0581950
  35.0163040  16.7724860  36.4108950  35.1229790  17.6728590  36.7177710
  34.1055400  16.7242830  36.1203600  44.6682150  15.8949670  37.8819850
  45.4891770  15.4046240  37.9245330  44.7016230  16.4847330  38.6351690
  32.6646200  18.6943870  41.6561540  33.3456310  18.9582240  42.2748940
  32.3494250  17.8544740  41.9899550  36.8570770  19.7411230  40.7434130
  37.3648990  20.2392200  41.3839150  37.3884010  18.9646430  40.5673490
  48.9581700  17.9116420  44.4463480  48.2533870  18.2998130  43.9278590
  49.2239620  18.6066710  45.0484410  35.1406870  14.3809790  45.0097550
  35.1425310  14.8982180  44.2043450  34.3111180  13.9039970  44.9867480
  41.5277960  24.4929100  36.5087450  40.9095230  24.9578550  35.9450170
  42.0401210  25.1856580  36.9256960  36.3909720  24.0204970  43.1871050
  36.0579100  24.6473890  43.8292120  36.5676400  24.5466850  42.4072720
  44.9043630  17.8350050  40.6547390  44.1999200  18.1234940  41.2350500
  45.2655790  18.6450160  40.2946950  34.8222200  16.0919750  43.0168000
  35.1639010  16.9361800  42.7221870  33.8838010  16.2403490  43.1333340
  35.6028820  25.9885770  45.0020230  36.2202820  26.6636850  44.7204680
  34.7421940  26.3973750  44.9107730  30.8961160  25.1785630  33.8827080
  30.5189140  25.6672730  33.1511980  31.1534230  25.8510910  34.5133610
  46.5206410  27.4525180  42.9174870  45.8369930  28.1224290  42.9091540
  47.0600700  27.6505830  42.1519730  47.9730550  17.2804840  41.0456600
  47.0255460  17.3143820  41.1772030  48.2980540  18.0943790  41.4305960
  38.5050090  13.5802020  39.3412590  38.8125070  13.0248910  38.6248090
  37.5750790  13.7146480  39.1585580  44.0565150  29.2969310  41.6320050
  44.0692310  28.8931600  40.7642310  43.5040370  30.0716600  41.5281480
  45.3510570  26.0185530  36.7210220  45.2406900  25.0759860  36.8459640
  45.3478820  26.3801170  37.6072980  43.4550590  24.1999150  42.9602660
  43.8719380  23.9859260  42.1256120  44.1790410  24.4571940  43.5311280
  40.8930850  21.6450850  36.0772710  39.9660130  21.5788230  36.3061180
  41.0455670  22.5830980  35.9627950  40.8799930  17.9167850  33.0739870
  39.9403600  18.0781810  33.1592330  41.1983190  18.6353530  32.5275860
  47.4012690  22.5986370  43.0518900  46.5731320  22.6679460  42.5769030
  47.9963170  23.1840680  42.5834730  44.9228140  23.2071150  36.5807960
  44.3040560  22.8690700  35.9334260  44.9052590  22.5630910  37.2887150
  44.3654700  19.3855690  43.9973770  43.9525880  20.2109400  44.2513760
  43.6330650  18.8000730  43.8050130  36.4987490  22.1715590  38.8592440
  36.0944490  21.4592840  38.3638340  36.5850610  21.8268830  39.7480480
  36.9669190  25.8583150  41.0231650  36.6697480  25.2528620  40.3439430
  37.9169010  25.8960460  40.9121010  35.2116110  18.9458800  42.6391480
  35.7630700  19.0554140  41.8644730  35.7259620  19.3196400  43.3546710
  45.0554800  29.4315020  44.6854750  44.5785360  30.2387210  44.4927360
  44.3716590  28.7793350  44.8380960  36.0587620  25.5964840  47.6739450
  35.1616150  25.8204810  47.9212850  36.0840490  25.7199780  46.7250850
  43.0992840  22.4457960  33.5880710  43.5386120  21.6080390  33.4418530
  43.8121260  23.0787360  33.6744850  34.8858840  22.4678160  46.2496820
  34.7466610  23.3400960  46.6184220  34.0040200  22.1250970  46.1044760
  41.2088220  27.3854030  37.5561950  41.6484130  28.1278360  37.1417340
  41.1475110  27.6280600  38.4800910  36.6839190  28.4099860  48.4581970
  36.6554620  28.8142810  47.5910400  36.5204160  27.4810220  48.2953570
  46.6809980  13.7000770  31.9021750  46.3682640  13.7927600  32.8020820
  47.4422450  14.2781800  31.8519180  33.1992120  21.0660570  36.3599090
  33.0789720  21.7922660  35.7480360  32.8893010  20.2963480  35.8827000
  30.8377490  24.2375710  42.1667730  30.9157910  24.3724480  41.2223450
  31.4519170  23.5291600  42.3595850  32.0825120  25.9375900  38.5773910
  31.6753200  26.0790490  37.7227510  32.9738130  25.6536060  38.3745120
  41.9004000  30.0867810  45.4840960  42.4148670  29.9975820  46.2863390
  41.0573080  30.4327510  45.7768870  43.8758400  30.3723150  34.9124960
  43.7159540  30.0826090  35.8106790  43.7105110  29.5963280  34.3770190
  36.3546780  30.1521680  36.6896580  36.1789260  29.2357220  36.4764380
  35.5002520  30.5108970  36.9294380  43.5784530  27.8810710  33.4722960
  42.8849690  27.8788000  32.8125240  44.3207390  27.4570030  33.0417130
  43.1434460  29.5073420  37.5471450  43.5991410  28.7262800  37.8610070
  43.4826980  30.2180240  38.0912630  47.8911270  18.4372270  47.8795890
  47.2755540  18.9451940  47.3511350  47.5707690  17.5370600  47.8221830
  30.8937010  25.2789880  44.7062190  31.0568050  24.8095240  43.8881560
  31.3589460  24.7713440  45.3711030  35.6655780  14.4095640  39.7422760
  35.2223930  15.1905180  39.4107280  36.2240770  14.7325530  40.4493700
  39.9525590  17.2764160  45.3458080  39.4904960  17.4847180  46.1578020
  39.5503700  16.4623510  45.0428750  44.9530100  18.4973110  46.4754740
  44.1023690  18.1978860  46.7963810  44.7931890  18.7415120  45.5638560
  42.0479810  19.9974860  48.5753530  42.3733220  19.1638610  48.2355760
  42.8360140  20.5203380  48.7231860  38.7814600  14.0306340  34.6228590
  38.1568780  14.0266210  35.3481900  38.6944720  13.1637300  34.2264560
  37.7031680  14.9542970  41.6012360  38.0004010  15.8605800  41.5204380
  38.2517240  14.4661750  40.9871930  35.4570000  19.5329210  37.4704010
  35.2310920  19.3166380  38.3750630  34.6762530  19.9657670  37.1249980
  42.6867760  19.5392580  36.0694660  42.0876650  20.2628380  35.8858280
  43.2347370  19.4769360  35.2871110  37.8969210  20.4314790  48.1364280
  37.8012810  19.4909520  47.9864680  38.7401190  20.6529860  47.7412350
  41.2932630  18.1756120  38.0997940  41.6862200  18.4928320  37.2866630
  41.6549480  17.2968000  38.2142460  33.0279750  16.8428460  46.2898060
  32.6343140  17.6903670  46.4970840  32.3398150  16.2054830  46.4806700
  39.6024800  16.9263430  49.3594800  38.9123120  16.7335630  49.9940890
  40.3457100  17.2098070  49.8919100  30.3296800  14.7656920  40.3228140
  30.0409850  15.3359780  41.0353120  31.0742560  14.2861370  40.6859370
  30.5167030  18.7077040  31.5330860  30.4341700  19.6507800  31.6745850
  30.1650090  18.5651950  30.6543210  41.8787770  20.7661870  42.1948720
  41.1468890  21.2748680  42.5438820  41.4812110  19.9491850  41.8937500
  38.3165160  17.4416070  40.6001210  38.3201220  17.0006020  39.7505750
  39.2116280  17.7633400  40.7073030  34.1667540  17.3242560  39.5595420
  33.8267590  17.8017790  40.3162470  33.4044860  16.8707680  39.1996520
  38.3785310  18.4428150  33.5907970  38.4998130  18.4014630  34.5393790
  37.9933820  19.3052300  33.4354700  42.3413680  16.2195550  41.6071660
  42.3586420  16.6704200  42.4513510  42.0929260  15.3201190  41.8205100
  37.3906810  20.7529290  32.9891270  36.8223710  20.3047540  32.3627180
  38.0995810  21.1122070  32.4556420  45.7684430  13.6327730  47.4458040
  46.0930200  12.9017390  47.9716020  45.8040940  13.3141370  46.5439030
  32.4675990  24.6541310  46.8658000  32.0830780  24.0134980  47.4640960
  32.7788180  25.3577430  47.4352730  38.6173130  21.5017850  42.3466620
  38.9843260  21.0276420  43.0927960  38.4278190  22.3759420  42.6874960
  31.4813620  16.2461540  38.4760090  31.1960540  15.8817210  39.3138710
  31.4192480  15.5142000  37.8623230  36.4072500  20.5426490  44.6650830
  36.1029570  21.4218470  44.8901190  37.3618960  20.6026280  44.7008270
  34.9354290  24.7487480  35.2617680  34.1616550  24.2085100  35.1016400
  35.6648920  24.2294090  34.9235440  45.6942270  23.7452840  41.0544070
  46.4141390  24.2408130  40.6640180  45.4924090  23.0670730  40.4097940
  41.1552210  15.1390800  35.1973460  40.3416820  14.6403970  35.1218770
  40.9614160  15.9789050  34.7809810  41.0761070  23.8161900  46.9413070
  41.0098380  22.8957570  46.6870660  40.4466210  23.9137340  47.6557710
  43.8700600  19.5110450  33.4935620  44.7580220  19.8227680  33.3186960
  43.8405690  18.6382700  33.1016200  34.9791690  24.4167860  38.8996490
  35.4970360  23.6136120  38.8453380  34.5275710  24.3547000  39.7413320
  39.8661190  25.6834140  34.1723790  40.2076890  26.4276370  33.6767110
  39.0373900  25.9965260  34.5348620  32.4636230  21.3829230  45.8122190
  32.1051170  22.0483080  46.3995530  32.1690790  20.5512780  46.1834810
  35.6649350  21.8413470  48.6961740  35.3649490  21.9870650  47.7989560
  36.4360590  21.2818760  48.6035130  41.0077800  26.6382470  46.6916870
  41.0222340  25.7063430  46.4735780  40.3002900  26.7242230  47.3306640
  46.1414870  20.8222290  32.9615480  46.0578590  21.2536510  32.1111920
  46.8609060  21.2820640  33.3942300  47.2189010  23.2789810  46.0385450
  46.4937200  23.8718590  45.8414840  47.7464470  23.2713350  45.2398820
  47.1702120  27.6764550  35.6897610  46.5278280  27.0220170  35.9641330
  46.7832780  28.0819640  34.9138280  42.7488600  25.0049980  39.5369300
  43.1012420  24.4078110  38.8770670  41.8650930  24.6794210  39.7077550
  38.8351880  25.7647670  36.9439710  39.5223010  26.3116880  37.3247300
  38.0484300  26.3088400  36.9789320  30.9744280  21.3820490  32.4356790
  31.8439130  21.6645290  32.7192710  30.4834600  22.1956360  32.3205600
  38.1379090  22.7693700  36.5565070  38.5941870  23.5798950  36.7825260
  37.7867300  22.4516840  37.3883560  40.4411700  28.2800040  43.7857370
  41.0853920  28.4859420  44.4630790  40.8041140  27.5188440  43.3328220
  34.0390870  13.1131350  37.0287590  33.9105500  13.1049250  37.9772510
  33.2152890  13.4514440  36.6778600  41.7143780  26.2832390  42.5034820
  42.3566010  25.5825550  42.6166990  42.2393130  27.0630830  42.3231710
  45.5599500  26.5681010  32.2273960  45.3337080  25.8511450  32.8198600
  45.1695700  26.3193450  31.3895710  43.4881400  27.0827290  45.7070880
  43.8237640  27.6693980  46.3848800  42.5681740  26.9520000  45.9368670
  31.3415530  30.5947870  33.0018420  31.7013170  31.1937210  32.3475690
  31.2007870  31.1407760  33.7753450  31.0384800  14.8722470  46.4894290
  30.3243320  15.0719390  47.0946900  31.4579840  14.0962040  46.8609090
  45.1415750  24.4852950  33.8888120  44.8537450  24.9465640  34.6766000
  45.9367920  24.0250720  34.1572340  31.3257390  28.8602730  47.4760820
  31.4348510  27.9197470  47.3356210  30.6737950  29.1257480  46.8274550
  39.3169980  27.1318620  48.8758940  38.9966850  26.4127860  49.4204630
  38.6428340  27.8073690  48.9495000  37.3584150  27.9779070  33.8192090
  37.3494250  28.7108760  33.2036600  36.4382510  27.7310650  33.9119050
  32.9590790  23.1993960  34.5638850  32.3518740  23.9392860  34.5734150
  33.4340140  23.2893320  33.7377050  42.5323580  17.3644780  44.2395740
  42.9004400  16.5439990  44.5675310  41.6721780  17.4246670  44.6551390
  45.8985610  16.3201720  35.0483300  45.2698770  16.4247390  34.3341530
  45.4037530  16.5398500  35.8377180  40.3443750  28.0407310  32.4817280
  40.4455730  27.8371300  31.5519260  39.4445490  27.7865590  32.6865060
  37.8669640  18.5987670  36.4641180  37.1585790  19.0674010  36.9054790
  38.1514120  17.9409680  37.0986370  39.4925570  20.0184370  44.4633710
  39.9910820  20.4930190  45.1285560  39.6348520  19.0947890  44.6703740
  41.8985070  15.3238330  37.9036970  41.7752850  15.3424460  36.9546480
  42.8469630  15.3717270  38.0235370  38.9861860  30.5593630  37.1764950
  39.2403360  30.5215020  36.2544320  38.0374340  30.4326960  37.1693200
  36.0704660  16.9072750  33.8391890  36.9195190  17.3442900  33.7732080
  35.7035930  17.2193010  34.6663950  46.6992430  16.2352330  45.3062100
  46.1966030  16.9757730  45.6455910  47.5149090  16.6236330  44.9898890
  44.9914440  21.4785510  38.7523460  44.0504580  21.4935740  38.9271150
  45.3058510  20.6921470  39.1983760  34.9696080  23.1605110  32.3127420
  35.7359350  23.0486470  32.8752850  35.0470770  22.4643080  31.6604190
  33.6642840  20.5930180  32.9960310  33.7446430  19.6457690  33.1077710
  34.5562590  20.9237060  33.1020970  46.9940020  28.6494360  40.4277720
  47.1187440  29.4725530  40.9001530  47.8605580  28.4385090  40.0801870
  34.4657550  30.7425570  40.0994850  35.2020030  30.1941030  40.3703420
  34.8498470  31.6081580  39.9600840  31.3503030  26.8099140  35.9736360
  30.4242810  27.0520280  35.9641770  31.8159460  27.6373400  35.8521110
  33.4715830  29.9271640  49.2880430  34.2728560  30.2483690  49.7015830
  32.9567650  29.5667220  50.0100340  37.5759860  29.9155880  31.9220420
  38.3688470  30.2044710  31.4702210  37.0564210  29.4848050  31.2432900
  42.3080460  26.0351510  49.2355840  41.7018620  26.0583110  48.4951590
  42.0034570  25.3034550  49.7723090  43.7380830  29.7631800  47.8465250
  44.6902580  29.6789820  47.7965490  43.5909050  30.4273510  48.5199040
  46.6290030  29.1426010  33.3457160  46.3431540  28.7291150  32.5311340
  46.4309580  30.0713720  33.2257680  31.1913640  22.4145100  48.2316480
  31.6952660  21.8352380  48.8032710  30.4521060  22.6985330  48.7692850
  38.0937260  25.1359290  31.7862770  37.9887900  24.5211640  32.5124150
  37.9261480  24.6125180  31.0025780  38.2451580  23.8216090  47.7652000
  37.4797250  24.3901090  47.6806670  38.4267540  23.5292300  46.8720230
  41.3339990  24.1979320  32.3904760  40.7850090  24.6448620  33.0347500
  41.9559250  23.6928570  32.9142430  45.3874930  25.5521420  48.3227020
  46.1284400  25.8897180  47.8194480  44.6247610  25.7213480  47.7696790
  33.2236720  20.5574690  49.1266550  33.2642060  20.2588560  50.0351780
  34.0782220  20.9582300  48.9674070  37.0015110  23.1570240  34.2870060
  37.4231530  22.9910110  35.1301450  37.1265950  22.3470470  33.7925200
  35.1642530  19.1366790  47.0941040  34.6338990  18.6457740  46.4664380
  35.8330600  19.5650990  46.5598970  39.5142750  22.1807850  31.5347160
  40.0348410  21.4656870  31.1688310  40.1611150  22.8193720  31.8347670
  44.0620590  23.6036250  46.8582230  44.4761610  23.7581330  47.7072650
  43.1271590  23.7291470  47.0208010  44.5342760  20.9432410  48.8621380
  45.1163530  20.1884730  48.7741860  44.7104530  21.4739850  48.0852860
  35.6514830  16.1029160  47.1738330  35.5571700  15.4849910  46.4489200
  35.0712220  16.8295450  46.9468240  38.4176270  14.6602400  44.2065720
  37.9693570  14.6826660  43.3611270  37.7841470  14.2621420  44.8036020
  38.8235820  23.5556730  44.8278160  39.2423930  24.3989460  44.6554400
  37.9044450  23.6928770  44.5984940  41.1599720  21.2872910  46.2116000
  41.2795930  20.6914050  46.9510840  42.0193720  21.3242600  45.7917300
  43.4987620  21.8410100  44.7878510  42.9722840  22.3652720  44.1843650
  43.8418960  22.4737490  45.4188240  35.8974010  19.2303470  31.2328220
  35.6963070  18.3670830  31.5941560  35.7266060  19.1436830  30.2949820
  36.6743240  29.8609740  45.9435890  36.1364330  30.5855800  45.6244590
  36.9277200  29.3840080  45.1533230  37.9268490  17.8294260  47.4691820
  38.5168180  17.5210110  48.1569640  37.1088730  17.3574010  47.6251720
  42.7461920  17.4460070  47.7024840  42.0577440  16.7841610  47.6374830
  43.4667940  16.9998340  48.1473300  43.3762320  14.0411700  33.7615100
  43.6564610  13.1979600  34.1174520  42.6028050  14.2734810  34.2753850
  34.6956810  16.3304090  31.2206100  34.9982710  16.3371520  30.3125250
  35.4351400  15.9801950  31.7173760  39.5305450  31.0960950  46.2022540
  39.4564150  31.9996090  46.5094910  38.6284290  30.7772850  46.1744610
  37.9141740  15.2738710  32.2062300  37.5663740  14.5962700  31.6264750
  38.1154510  14.8128220  33.0205690  40.0790780  30.2619460  33.8248900
  40.9741570  30.6004430  33.8467660  40.1108410  29.5398870  33.1973180
  33.7186940  25.6346510  32.0535900  34.1561810  26.1776180  32.7093480
  34.2034670  24.8093460  32.0632240  30.9332740  28.4235540  39.5056160
  31.2635750  27.5556600  39.2734800  31.3623740  28.6294060  40.3361120
  35.5294660  26.7544550  37.1658130  35.2290200  26.6309520  38.0662040
  35.4232150  25.8953140  36.7573860  31.4222950  29.2906130  42.2437790
  30.9853940  29.4706930  43.0761940  31.9900630  30.0480750  42.1019510
  48.2986580  26.5340950  31.8684810  47.4679540  26.6017600  32.3392040
  48.4758410  27.4245070  31.5651670  47.7543040  23.2788430  34.3719010
  48.5161950  23.8485080  34.4778700  47.7697410  22.7115630  35.1427320
  31.2547380  21.8026360  38.6026670  30.5996220  21.5338000  37.9586370
  32.0925330  21.6930840  38.1528650  48.7603010  24.1338530  39.2160940
  49.1311840  23.3505850  38.8096910  49.4004940  24.8227630  39.0378240
  45.7436770  25.5175110  44.6291260  44.9296610  25.9472270  44.8917050
  46.1510970  26.1293520  44.0160310  47.8062210  23.5722800  31.5291530
  48.0811050  24.4801680  31.4010750  47.6172950  23.5085330  32.4653520
  44.2037820  16.5967650  32.8245160  44.6222700  16.4098630  31.9841820
  43.8973880  15.7446700  33.1348090  47.7027550  21.5091790  36.5220960
  47.3271150  20.7419720  36.0902250  46.9730670  21.8914490  37.0095890
  32.2923310  22.1878930  43.1430010  32.6596350  22.1006330  44.0226030
  31.7234130  21.4245480  43.0436870  47.0927170  20.6563310  46.1560480
  46.8613260  20.4276060  45.2558430  47.3531720  21.5762860  46.1105370
  31.8439310  19.0988020  47.0488430  30.9495360  19.0654780  47.3882140
  32.3836860  19.2974810  47.8139680  45.5315240  15.8819740  48.9340180
  46.4085420  15.8903140  49.3174180  45.5436080  15.1450580  48.3232530
  30.4685460  19.0125290  34.5452000  29.5649540  19.2755490  34.3703660
  30.9526080  19.2836460  33.7651960  46.9778510  19.7349280  39.8228200
  47.5015990  19.2411930  39.1918370  47.5637930  19.8699640  40.5675770
  47.1568230  19.8189150  43.3447750  46.2070940  19.7852690  43.4592740
  47.3381240  20.7289260  43.1097520  33.0112670  18.0690830  32.4546380
  33.7204370  17.6474050  31.9693660  32.2952610  18.1366060  31.8229730
  32.6586830  14.1230160  31.4949030  33.3814960  14.6639100  31.8130250
  32.9311350  13.8493580  30.6190570  46.4678480  18.9922630  35.7620610
  46.9637600  18.7593500  36.5469490  46.2694550  18.1534470  35.3458250
  32.3479020  13.3736350  41.3971650  32.9955210  12.8233730  40.9566810
  32.7680860  13.6279500  42.2187460  47.8965640  17.6283580  38.2958290
  47.7864920  17.4739620  39.2340560  48.6573230  17.1004520  38.0533700
  46.2431360  13.5677710  44.7541290  46.8803580  14.1811850  45.1200480
  46.3906250  13.6038370  43.8090520  48.7855910  15.4591500  31.5364430
  49.7105220  15.3272680  31.3282720  48.7631700  15.5384320  32.4900880
  48.8594400  16.2302160  34.1621140  48.0645900  16.1647280  34.6914050
  49.0637680  17.1652800  34.1506490  45.8012820  30.2693710  38.1559530
  46.3971890  29.9478280  37.4793950  46.0590970  29.7965530  38.9472800
  32.1011020  13.5292020  44.1396970  31.7525840  13.9855840  44.9055150
  31.7698720  12.6349150  44.2219400  33.7075390  26.7011620  48.3050160
  33.6645020  26.3304530  49.1864620  33.8386400  27.6389190  48.4451980
  37.4081420  28.2571210  43.9059880  37.1672780  28.5245770  43.0190400
  38.3484060  28.4276940  43.9610740  39.6135840  14.7203900  47.6616390
  39.5524730  15.3125730  48.4111800  40.5536220  14.6129860  47.5166650
  42.2510400  14.3773960  47.3008680  42.8650810  14.6953250  46.6389760
  42.7959960  13.8922550  47.9204540  32.7731660  13.0568220  47.4147740
  33.3214650  12.8756270  46.6513850  32.8386970  12.2662330  47.9504050
  33.5463420  29.6473870  45.4247940  32.9523740  29.5158570  46.1637980
  33.5387260  28.8112010  44.9590040  42.9918440  12.9406100  43.6277970
  42.1178280  13.2741210  43.4250900  42.8829190  12.4679280  44.4529840
  43.8990420  15.1476970  45.0119690  43.5703780  14.3328730  44.6321420
  44.8472720  15.1046780  44.8885380  46.3525030  30.9189010  41.9857260
  45.8928000  31.6704820  41.6115280  45.7237490  30.1995480  41.9272060
  33.1775650  27.0132250  44.3755980  32.4509710  26.3937540  44.3081930
  33.2384800  27.4072860  43.5054060  36.7820750  29.2277250  41.1605390
  37.2985770  28.6164610  40.6353650  37.4318130  29.7306030  41.6516400
  39.5216250  30.1185740  41.9874370  39.8094060  29.8640040  41.1107380
  40.0339470  29.5663100  42.5779940  40.7393260  13.8575940  42.5670880
  39.9565050  14.3321440  42.8467640  40.4456190  12.9530770  42.4584060
  45.2914330  14.5599040  40.6119970  45.7322420  14.5044140  39.7641570
  45.0221920  15.4757050  40.6830150  47.1552900  14.1914280  38.6228790
  47.0941300  13.2475500  38.4759810  47.9344930  14.2994370  39.1682250
  31.4605650  30.3306640  37.5852740  31.2927690  29.6977320  38.2834630
  30.5940160  30.5366040  37.2346930  32.0833670  14.1623420  35.0884600
  32.8413030  14.2752300  34.5148630  31.6210840  14.9992620  35.0428030
  38.6247480  16.2762690  38.0786910  37.8121990  15.9019580  37.7382790
  39.1289120  15.5207770  38.3808100  43.1272460  12.9405140  39.3169980
  43.7301830  13.5125350  39.7918500  42.3865450  13.5044580  39.0943880
  46.2707060  13.3426700  34.5910260  46.4657690  14.2410150  34.8577690
  45.4836930  13.1113780  35.0843210  33.0668350  29.0239870  35.0302880
  32.5415970  29.4047900  34.3264840  32.9912930  29.6490640  35.7512590
  34.4558820  14.6887470  33.6286570  34.9851580  13.9017270  33.4994520
  35.0887140  15.3678660  33.8622100  36.6496660  14.4262610  36.6831960
  36.0199400  13.7249920  36.8502090  36.1101800  15.1866740  36.4665120
  39.5888610  31.0401840  49.3542570  40.5155920  30.8046110  49.3978530
  39.5739040  31.8673840  48.8728600  47.8233670  30.5827410  36.3516820
  47.9985860  29.8965150  35.7077740  47.1255240  31.1074460  35.9593490
  36.7752220  13.7046590  49.1184450  36.4936490  14.2080190  48.3545270
  37.1571920  12.9068340  48.7526580  35.6661320  30.9722250  33.9052130
  36.3980140  30.6881530  33.3576020  35.9254990  30.7335530  34.7951510
  34.8276110  27.0886980  33.9098460  34.1984990  27.5572080  34.4584290
  34.9423940  26.2436200  34.3444650  43.3767680  13.1200170  49.6964920
  43.2633130  13.4394780  50.5916440  44.1937420  13.5212680  49.4002200
  42.2825830  21.1392640  20.0599660  42.2019880  20.2247250  19.7891370
  41.8690250  21.6359710  19.3539370  40.4143870  22.9171660  21.9408930
  39.6385970  22.4372100  22.2307500  41.0656800  22.2377310  21.7665090
  34.4309700  23.2291470  22.8184690  33.5994580  22.9740180  23.2181200
  35.0390680  23.3002240  23.5542610  44.4351300  27.3231850  20.7208060
  43.9732830  26.5519090  21.0495230  45.2476850  27.3497920  21.2260510
  34.4110960  27.2631560  23.0142710  34.7139000  26.3729300  22.8352930
  35.1554550  27.8201780  22.7864960  32.8401650  18.1893360  16.6027080
  31.9518350  18.5309330  16.5006960  33.1242840  17.9893680  15.7107910
  30.8034660  20.7899010  22.4866780  31.3750770  20.0221210  22.4870420
  30.8036200  21.0887770  21.5773390  40.6614610  29.6089860  20.3412050
  40.0426050  30.0647360  19.7706490  41.5166390  29.7641320  19.9401750
  39.8552860  25.5928850  21.9479090  39.7861140  24.6518790  21.7868220
  40.6172720  25.6830260  22.5201660  32.0459530  16.1983370  24.2735710
  31.8662370  15.3009120  24.5538470  31.6439610  16.7455240  24.9482660
  40.8858030  18.3999230  22.1748020  41.2622850  17.5271110  22.0621690
  40.7877540  18.7357930  21.2838460  35.0163040  16.7724860  17.6365460
  35.1229790  17.6728590  17.9434220  34.1055400  16.7242830  17.3460110
  44.6682150  15.8949670  19.1076360  45.4891770  15.4046240  19.1501840
  44.7016230  16.4847330  19.8608200  32.6646200  18.6943870  22.8818050
  33.3456310  18.9582240  23.5005450  32.3494250  17.8544740  23.2156060
  36.8570770  19.7411230  21.9690640  37.3648990  20.2392200  22.6095660
  37.3884010  18.9646430  21.7930000  48.9581700  17.9116420  25.6719990
  48.2533870  18.2998130  25.1535100  49.2239620  18.6066710  26.2740920
  35.1406870  14.3809790  26.2354060  35.1425310  14.8982180  25.4299960
  34.3111180  13.9039970  26.2123990  41.5277960  24.4929100  17.7343960
  40.9095230  24.9578550  17.1706680  42.0401210  25.1856580  18.1513470
  36.3909720  24.0204970  24.4127560  36.0579100  24.6473890  25.0548630
  36.5676400  24.5466850  23.6329230  44.9043630  17.8350050  21.8803900
  44.1999200  18.1234940  22.4607010  45.2655790  18.6450160  21.5203460
  34.8222200  16.0919750  24.2424510  35.1639010  16.9361800  23.9478380
  33.8838010  16.2403490  24.3589850  35.6028820  25.9885770  26.2276740
  36.2202820  26.6636850  25.9461190  34.7421940  26.3973750  26.1364240
  30.8961160  25.1785630  15.1083590  30.5189140  25.6672730  14.3768490
  31.1534230  25.8510910  15.7390120  46.5206410  27.4525180  24.1431380
  45.8369930  28.1224290  24.1348050  47.0600700  27.6505830  23.3776240
  47.9730550  17.2804840  22.2713110  47.0255460  17.3143820  22.4028540
  48.2980540  18.0943790  22.6562470  38.5050090  13.5802020  20.5669100
  38.8125070  13.0248910  19.8504600  37.5750790  13.7146480  20.3842090
  44.0565150  29.2969310  22.8576560  44.0692310  28.8931600  21.9898820
  43.5040370  30.0716600  22.7537990  45.3510570  26.0185530  17.9466730
  45.2406900  25.0759860  18.0716150  45.3478820  26.3801170  18.8329490
  43.4550590  24.1999150  24.1859170  43.8719380  23.9859260  23.3512630
  44.1790410  24.4571940  24.7567790  40.8930850  21.6450850  17.3029220
  39.9660130  21.5788230  17.5317690  41.0455670  22.5830980  17.1884460
  40.8799930  17.9167850  14.2996380  39.9403600  18.0781810  14.3848840
  41.1983190  18.6353530  13.7532370  47.4012690  22.5986370  24.2775410
  46.5731320  22.6679460  23.8025540  47.9963170  23.1840680  23.8091240
  44.9228140  23.2071150  17.8064470  44.3040560  22.8690700  17.1590770
  44.9052590  22.5630910  18.5143660  44.3654700  19.3855690  25.2230280
  43.9525880  20.2109400  25.4770270  43.6330650  18.8000730  25.0306640
  36.4987490  22.1715590  20.0848950  36.0944490  21.4592840  19.5894850
  36.5850610  21.8268830  20.9736990  36.9669190  25.8583150  22.2488160
  36.6697480  25.2528620  21.5695940  37.9169010  25.8960460  22.1377520
  35.2116110  18.9458800  23.8647990  35.7630700  19.0554140  23.0901240
  35.7259620  19.3196400  24.5803220  45.0554800  29.4315020  25.9111260
  44.5785360  30.2387210  25.7183870  44.3716590  28.7793350  26.0637470
  36.0587620  25.5964840  28.8995960  35.1616150  25.8204810  29.1469360
  36.0840490  25.7199780  27.9507360  43.0992840  22.4457960  14.8137220
  43.5386120  21.6080390  14.6675040  43.8121260  23.0787360  14.9001360
  34.8858840  22.4678160  27.4753330  34.7466610  23.3400960  27.8440730
  34.0040200  22.1250970  27.3301270  41.2088220  27.3854030  18.7818460
  41.6484130  28.1278360  18.3673850  41.1475110  27.6280600  19.7057420
  36.6839190  28.4099860  29.6838480  36.6554620  28.8142810  28.8166910
  36.5204160  27.4810220  29.5210080  46.6809980  13.7000770  13.1278260
  46.3682640  13.7927600  14.0277330  47.4422450  14.2781800  13.0775690
  33.1992120  21.0660570  17.5855600  33.0789720  21.7922660  16.9736870
  32.8893010  20.2963480  17.1083510  48.6354010  29.1926960  30.9802650
  49.1113730  29.6709850  31.6591730  49.2561170  29.1244450  30.2548150
  30.8377490  24.2375710  23.3924240  30.9157910  24.3724480  22.4479960
  31.4519170  23.5291600  23.5852360  32.0825120  25.9375900  19.8030420
  31.6753200  26.0790490  18.9484020  32.9738130  25.6536060  19.6001630
  48.0387260  26.3839810  28.1402660  48.1650320  26.1451690  27.2219840
  48.0808640  25.5524350  28.6124740  41.9004000  30.0867810  26.7097470
  42.4148670  29.9975820  27.5119900  41.0573080  30.4327510  27.0025380
  43.8758400  30.3723150  16.1381470  43.7159540  30.0826090  17.0363300
  43.7105110  29.5963280  15.6026700  36.3546780  30.1521680  17.9153090
  36.1789260  29.2357220  17.7020890  35.5002520  30.5108970  18.1550890
  43.5784530  27.8810710  14.6979470  42.8849690  27.8788000  14.0381750
  44.3207390  27.4570030  14.2673640  43.1434460  29.5073420  18.7727960
  43.5991410  28.7262800  19.0866580  43.4826980  30.2180240  19.3169140
  47.8911270  18.4372270  29.1052400  47.2755540  18.9451940  28.5767860
  47.5707690  17.5370600  29.0478340  30.8937010  25.2789880  25.9318700
  31.0568050  24.8095240  25.1138070  31.3589460  24.7713440  26.5967540
  35.6655780  14.4095640  20.9679270  35.2223930  15.1905180  20.6363790
  36.2240770  14.7325530  21.6750210  39.9525590  17.2764160  26.5714590
  39.4904960  17.4847180  27.3834530  39.5503700  16.4623510  26.2685260
  44.9530100  18.4973110  27.7011250  44.1023690  18.1978860  28.0220320
  44.7931890  18.7415120  26.7895070  42.0479810  19.9974860  29.8010040
  42.3733220  19.1638610  29.4612270  42.8360140  20.5203380  29.9488370
  38.7814600  14.0306340  15.8485100  38.1568780  14.0266210  16.5738410
  38.6944720  13.1637300  15.4521070  37.7031680  14.9542970  22.8268870
  38.0004010  15.8605800  22.7460890  38.2517240  14.4661750  22.2128440
  35.4570000  19.5329210  18.6960520  35.2310920  19.3166380  19.6007140
  34.6762530  19.9657670  18.3506490  42.6867760  19.5392580  17.2951170
  42.0876650  20.2628380  17.1114790  43.2347370  19.4769360  16.5127620
  37.8969210  20.4314790  29.3620790  37.8012810  19.4909520  29.2121190
  38.7401190  20.6529860  28.9668860  41.2932630  18.1756120  19.3254450
  41.6862200  18.4928320  18.5123140  41.6549480  17.2968000  19.4398970
  33.0279750  16.8428460  27.5154570  32.6343140  17.6903670  27.7227350
  32.3398150  16.2054830  27.7063210  39.6024800  16.9263430  30.5851310
  38.9123120  16.7335630  31.2197400  40.3457100  17.2098070  31.1175610
  30.3296800  14.7656920  21.5484650  30.0409850  15.3359780  22.2609630
  31.0742560  14.2861370  21.9115880  30.5167030  18.7077040  12.7587370
  30.4341700  19.6507800  12.9002360  30.1650090  18.5651950  11.8799720
  41.8787770  20.7661870  23.4205230  41.1468890  21.2748680  23.7695330
  41.4812110  19.9491850  23.1194010  38.3165160  17.4416070  21.8257720
  38.3201220  17.0006020  20.9762260  39.2116280  17.7633400  21.9329540
  34.1667540  17.3242560  20.7851930  33.8267590  17.8017790  21.5418980
  33.4044860  16.8707680  20.4253030  38.3785310  18.4428150  14.8164480
  38.4998130  18.4014630  15.7650300  37.9933820  19.3052300  14.6611210
  42.3413680  16.2195550  22.8328170  42.3586420  16.6704200  23.6770020
  42.0929260  15.3201190  23.0461610  37.3906810  20.7529290  14.2147780
  36.8223710  20.3047540  13.5883690  38.0995810  21.1122070  13.6812930
  45.7684430  13.6327730  28.6714550  46.0930200  12.9017390  29.1972530
  45.8040940  13.3141370  27.7695540  32.4675990  24.6541310  28.0914510
  32.0830780  24.0134980  28.6897470  32.7788180  25.3577430  28.6609240
  38.6173130  21.5017850  23.5723130  38.9843260  21.0276420  24.3184470
  38.4278190  22.3759420  23.9131470  31.4813620  16.2461540  19.7016600
  31.1960540  15.8817210  20.5395220  31.4192480  15.5142000  19.0879740
  36.4072500  20.5426490  25.8907340  36.1029570  21.4218470  26.1157700
  37.3618960  20.6026280  25.9264780  34.9354290  24.7487480  16.4874190
  34.1616550  24.2085100  16.3272910  35.6648920  24.2294090  16.1491950
  45.6942270  23.7452840  22.2800580  46.4141390  24.2408130  21.8896690
  45.4924090  23.0670730  21.6354450  41.1552210  15.1390800  16.4229970
  40.3416820  14.6403970  16.3475280  40.9614160  15.9789050  16.0066320
  41.0761070  23.8161900  28.1669580  41.0098380  22.8957570  27.9127170
  40.4466210  23.9137340  28.8814220  43.8700600  19.5110450  14.7192130
  44.7580220  19.8227680  14.5443470  43.8405690  18.6382700  14.3272710
  34.9791690  24.4167860  20.1253000  35.4970360  23.6136120  20.0709890
  34.5275710  24.3547000  20.9669830  39.8661190  25.6834140  15.3980300
  40.2076890  26.4276370  14.9023620  39.0373900  25.9965260  15.7605130
  32.4636230  21.3829230  27.0378700  32.1051170  22.0483080  27.6252040
  32.1690790  20.5512780  27.4091320  35.6649350  21.8413470  29.9218250
  35.3649490  21.9870650  29.0246070  36.4360590  21.2818760  29.8291640
  41.0077800  26.6382470  27.9173380  41.0222340  25.7063430  27.6992290
  40.3002900  26.7242230  28.5563150  46.1414870  20.8222290  14.1871990
  46.0578590  21.2536510  13.3368430  46.8609060  21.2820640  14.6198810
  47.2189010  23.2789810  27.2641960  46.4937200  23.8718590  27.0671350
  47.7464470  23.2713350  26.4655330  47.1702120  27.6764550  16.9154120
  46.5278280  27.0220170  17.1897840  46.7832780  28.0819640  16.1394790
  42.7488600  25.0049980  20.7625810  43.1012420  24.4078110  20.1027180
  41.8650930  24.6794210  20.9334060  38.8351880  25.7647670  18.1696220
  39.5223010  26.3116880  18.5503810  38.0484300  26.3088400  18.2045830
  30.9744280  21.3820490  13.6613300  31.8439130  21.6645290  13.9449220
  30.4834600  22.1956360  13.5462110  38.1379090  22.7693700  17.7821580
  38.5941870  23.5798950  18.0081770  37.7867300  22.4516840  18.6140070
  40.4411700  28.2800040  25.0113880  41.0853920  28.4859420  25.6887300
  40.8041140  27.5188440  24.5584730  34.0390870  13.1131350  18.2544100
  33.9105500  13.1049250  19.2029020  33.2152890  13.4514440  17.9035110
  41.7143780  26.2832390  23.7291330  42.3566010  25.5825550  23.8423500
  42.2393130  27.0630830  23.5488220  45.5599500  26.5681010  13.4530470
  45.3337080  25.8511450  14.0455110  45.1695700  26.3193450  12.6152220
  43.4881400  27.0827290  26.9327390  43.8237640  27.6693980  27.6105310
  42.5681740  26.9520000  27.1625180  31.3415530  30.5947870  14.2274930
  31.7013170  31.1937210  13.5732200  31.2007870  31.1407760  15.0009960
  31.0384800  14.8722470  27.7150800  30.3243320  15.0719390  28.3203410
  31.4579840  14.0962040  28.0865600  45.1415750  24.4852950  15.1144630
  44.8537450  24.9465640  15.9022510  45.9367920  24.0250720  15.3828850
  31.3257390  28.8602730  28.7017330  31.4348510  27.9197470  28.5612720
  30.6737950  29.1257480  28.0531060  39.3169980  27.1318620  30.1015450
  38.9966850  26.4127860  30.6461140  38.6428340  27.8073690  30.1751510
  37.3584150  27.9779070  15.0448600  37.3494250  28.7108760  14.4293110
  36.4382510  27.7310650  15.1375560  32.9590790  23.1993960  15.7895360
  32.3518740  23.9392860  15.7990660  33.4340140  23.2893320  14.9633560
  42.5323580  17.3644780  25.4652250  42.9004400  16.5439990  25.7931820
  41.6721780  17.4246670  25.8807900  45.8985610  16.3201720  16.2739810
  45.2698770  16.4247390  15.5598040  45.4037530  16.5398500  17.0633690
  40.3443750  28.0407310  13.7073790  40.4455730  27.8371300  12.7775770
  39.4445490  27.7865590  13.9121570  37.8669640  18.5987670  17.6897690
  37.1585790  19.0674010  18.1311300  38.1514120  17.9409680  18.3242880
  39.4925570  20.0184370  25.6890220  39.9910820  20.4930190  26.3542070
  39.6348520  19.0947890  25.8960250  41.8985070  15.3238330  19.1293480
  41.7752850  15.3424460  18.1802990  42.8469630  15.3717270  19.2491880
  38.9861860  30.5593630  18.4021460  39.2403360  30.5215020  17.4800830
  38.0374340  30.4326960  18.3949710  36.0704660  16.9072750  15.0648400
  36.9195190  17.3442900  14.9988590  35.7035930  17.2193010  15.8920460
  46.6992430  16.2352330  26.5318610  46.1966030  16.9757730  26.8712420
  47.5149090  16.6236330  26.2155400  44.9914440  21.4785510  19.9779970
  44.0504580  21.4935740  20.1527660  45.3058510  20.6921470  20.4240270
  34.9696080  23.1605110  13.5383930  35.7359350  23.0486470  14.1009360
  35.0470770  22.4643080  12.8860700  33.6642840  20.5930180  14.2216820
  33.7446430  19.6457690  14.3334220  34.5562590  20.9237060  14.3277480
  46.9940020  28.6494360  21.6534230  47.1187440  29.4725530  22.1258040
  47.8605580  28.4385090  21.3058380  34.4657550  30.7425570  21.3251360
  35.2020030  30.1941030  21.5959930  34.8498470  31.6081580  21.1857350
  31.3503030  26.8099140  17.1992870  30.4242810  27.0520280  17.1898280
  31.8159460  27.6373400  17.0777620  33.4715830  29.9271640  30.5136940
  34.2728560  30.2483690  30.9272340  32.9567650  29.5667220  31.2356850
  37.5759860  29.9155880  13.1476930  38.3688470  30.2044710  12.6958720
  37.0564210  29.4848050  12.4689410  42.3080460  26.0351510  30.4612350
  41.7018620  26.0583110  29.7208100  42.0034570  25.3034550  30.9979600
  43.7380830  29.7631800  29.0721760  44.6902580  29.6789820  29.0222000
  43.5909050  30.4273510  29.7455550  46.6290030  29.1426010  14.5713670
  46.3431540  28.7291150  13.7567850  46.4309580  30.0713720  14.4514190
  31.1913640  22.4145100  29.4572990  31.6952660  21.8352380  30.0289220
  30.4521060  22.6985330  29.9949360  38.0937260  25.1359290  13.0119280
  37.9887900  24.5211640  13.7380660  37.9261480  24.6125180  12.2282290
  38.2451580  23.8216090  28.9908510  37.4797250  24.3901090  28.9063180
  38.4267540  23.5292300  28.0976740  41.3339990  24.1979320  13.6161270
  40.7850090  24.6448620  14.2604010  41.9559250  23.6928570  14.1398940
  45.3874930  25.5521420  29.5483530  46.1284400  25.8897180  29.0450990
  44.6247610  25.7213480  28.9953300  33.2236720  20.5574690  30.3523060
  33.2642060  20.2588560  31.2608290  34.0782220  20.9582300  30.1930580
  37.0015110  23.1570240  15.5126570  37.4231530  22.9910110  16.3557960
  37.1265950  22.3470470  15.0181710  35.1642530  19.1366790  28.3197550
  34.6338990  18.6457740  27.6920890  35.8330600  19.5650990  27.7855480
  39.5142750  22.1807850  12.7603670  40.0348410  21.4656870  12.3944820
  40.1611150  22.8193720  13.0604180  44.0620590  23.6036250  28.0838740
  44.4761610  23.7581330  28.9329160  43.1271590  23.7291470  28.2464520
  44.5342760  20.9432410  30.0877890  45.1163530  20.1884730  29.9998370
  44.7104530  21.4739850  29.3109370  35.6514830  16.1029160  28.3994840
  35.5571700  15.4849910  27.6745710  35.0712220  16.8295450  28.1724750
  38.4176270  14.6602400  25.4322230  37.9693570  14.6826660  24.5867780
  37.7841470  14.2621420  26.0292530  38.8235820  23.5556730  26.0534670
  39.2423930  24.3989460  25.8810910  37.9044450  23.6928770  25.8241450
  41.1599720  21.2872910  27.4372510  41.2795930  20.6914050  28.1767350
  42.0193720  21.3242600  27.0173810  43.4987620  21.8410100  26.0135020
  42.9722840  22.3652720  25.4100160  43.8418960  22.4737490  26.6444750
  35.8974010  19.2303470  12.4584730  35.6963070  18.3670830  12.8198070
  35.7266060  19.1436830  11.5206330  36.6743240  29.8609740  27.1692400
  36.1364330  30.5855800  26.8501100  36.9277200  29.3840080  26.3789740
  37.9268490  17.8294260  28.6948330  38.5168180  17.5210110  29.3826150
  37.1088730  17.3574010  28.8508230  42.7461920  17.4460070  28.9281350
  42.0577440  16.7841610  28.8631340  43.4667940  16.9998340  29.3729810
  43.3762320  14.0411700  14.9871610  43.6564610  13.1979600  15.3431030
  42.6028050  14.2734810  15.5010360  34.6956810  16.3304090  12.4462610
  34.9982710  16.3371520  11.5381760  35.4351400  15.9801950  12.9430270
  39.5305450  31.0960950  27.4279050  39.4564150  31.9996090  27.7351420
  38.6284290  30.7772850  27.4001120  37.9141740  15.2738710  13.4318810
  37.5663740  14.5962700  12.8521260  38.1154510  14.8128220  14.2462200
  40.0790780  30.2619460  15.0505410  40.9741570  30.6004430  15.0724170
  40.1108410  29.5398870  14.4229690  33.7186940  25.6346510  13.2792410
  34.1561810  26.1776180  13.9349990  34.2034670  24.8093460  13.2888750
  30.9332740  28.4235540  20.7312670  31.2635750  27.5556600  20.4991310
  31.3623740  28.6294060  21.5617630  35.5294660  26.7544550  18.3914640
  35.2290200  26.6309520  19.2918550  35.4232150  25.8953140  17.9830370
  31.4222950  29.2906130  23.4694300  30.9853940  29.4706930  24.3018450
  31.9900630  30.0480750  23.3276020  47.0585130  28.7923130  27.7571610
  46.4587120  28.8515690  27.0135530  47.1879030  27.8528110  27.8868460
  48.2986580  26.5340950  13.0941320  47.4679540  26.6017600  13.5648550
  48.4758410  27.4245070  12.7908180  47.7543040  23.2788430  15.5975520
  48.5161950  23.8485080  15.7035210  47.7697410  22.7115630  16.3683830
  31.2547380  21.8026360  19.8283180  30.5996220  21.5338000  19.1842880
  32.0925330  21.6930840  19.3785160  48.7603010  24.1338530  20.4417450
  49.1311840  23.3505850  20.0353420  49.4004940  24.8227630  20.2634750
  45.7436770  25.5175110  25.8547770  44.9296610  25.9472270  26.1173560
  46.1510970  26.1293520  25.2416820  47.8062210  23.5722800  12.7548040
  48.0811050  24.4801680  12.6267260  47.6172950  23.5085330  13.6910030
  44.2037820  16.5967650  14.0501670  44.6222700  16.4098630  13.2098330
  43.8973880  15.7446700  14.3604600  47.7027550  21.5091790  17.7477470
  47.3271150  20.7419720  17.3158760  46.9730670  21.8914490  18.2352400
  32.2923310  22.1878930  24.3686520  32.6596350  22.1006330  25.2482540
  31.7234130  21.4245480  24.2693380  47.0927170  20.6563310  27.3816990
  46.8613260  20.4276060  26.4814940  47.3531720  21.5762860  27.3361880
  31.8439310  19.0988020  28.2744940  30.9495360  19.0654780  28.6138650
  32.3836860  19.2974810  29.0396190  45.5315240  15.8819740  30.1596690
  46.4085420  15.8903140  30.5430690  45.5436080  15.1450580  29.5489040
  30.4685460  19.0125290  15.7708510  29.5649540  19.2755490  15.5960170
  30.9526080  19.2836460  14.9908470  46.9778510  19.7349280  21.0484710
  47.5015990  19.2411930  20.4174880  47.5637930  19.8699640  21.7932280
  47.1568230  19.8189150  24.5704260  46.2070940  19.7852690  24.6849250
  47.3381240  20.7289260  24.3354030  33.0112670  18.0690830  13.6802890
  33.7204370  17.6474050  13.1950170  32.2952610  18.1366060  13.0486240
  32.6586830  14.1230160  12.7205540  33.3814960  14.6639100  13.0386760
  32.9311350  13.8493580  11.8447080  46.4678480  18.9922630  16.9877120
  46.9637600  18.7593500  17.7726000  46.2694550  18.1534470  16.5714760
  32.3479020  13.3736350  22.6228160  32.9955210  12.8233730  22.1823320
  32.7680860  13.6279500  23.4443970  47.8965640  17.6283580  19.5214800
  47.7864920  17.4739620  20.4597070  48.6573230  17.1004520  19.2790210
  46.2431360  13.5677710  25.9797800  46.8803580  14.1811850  26.3456990
  46.3906250  13.6038370  25.0347030  48.7855910  15.4591500  12.7620940
  49.7105220  15.3272680  12.5539230  48.7631700  15.5384320  13.7157390
  48.8594400  16.2302160  15.3877650  48.0645900  16.1647280  15.9170560
  49.0637680  17.1652800  15.3763000  45.8012820  30.2693710  19.3816040
  46.3971890  29.9478280  18.7050460  46.0590970  29.7965530  20.1729310
  32.1011020  13.5292020  25.3653480  31.7525840  13.9855840  26.1311660
  31.7698720  12.6349150  25.4475910  33.7075390  26.7011620  29.5306670
  33.6645020  26.3304530  30.4121130  33.8386400  27.6389190  29.6708490
  37.4081420  28.2571210  25.1316390  37.1672780  28.5245770  24.2446910
  38.3484060  28.4276940  25.1867250  39.6135840  14.7203900  28.8872900
  39.5524730  15.3125730  29.6368310  40.5536220  14.6129860  28.7423160
  42.2510400  14.3773960  28.5265190  42.8650810  14.6953250  27.8646270
  42.7959960  13.8922550  29.1461050  48.6685580  30.2765590  25.9327030
  48.1743860  30.6734460  25.2154160  48.0598870  29.6514800  26.3264310
  32.7731660  13.0568220  28.6404250  33.3214650  12.8756270  27.8770360
  32.8386970  12.2662330  29.1760560  33.5463420  29.6473870  26.6504450
  32.9523740  29.5158570  27.3894490  33.5387260  28.8112010  26.1846550
  42.9918440  12.9406100  24.8534480  42.1178280  13.2741210  24.6507410
  42.8829190  12.4679280  25.6786350  43.8990420  15.1476970  26.2376200
  43.5703780  14.3328730  25.8577930  44.8472720  15.1046780  26.1141890
  46.3525030  30.9189010  23.2113770  45.8928000  31.6704820  22.8371790
  45.7237490  30.1995480  23.1528570  33.1775650  27.0132250  25.6012490
  32.4509710  26.3937540  25.5338440  33.2384800  27.4072860  24.7310570
  36.7820750  29.2277250  22.3861900  37.2985770  28.6164610  21.8610160
  37.4318130  29.7306030  22.8772910  39.5216250  30.1185740  23.2130880
  39.8094060  29.8640040  22.3363890  40.0339470  29.5663100  23.8036450
  40.7393260  13.8575940  23.7927390  39.9565050  14.3321440  24.0724150
  40.4456190  12.9530770  23.6840570  45.2914330  14.5599040  21.8376480
  45.7322420  14.5044140  20.9898080  45.0221920  15.4757050  21.9086660
  47.1552900  14.1914280  19.8485300  47.0941300  13.2475500  19.7016320
  47.9344930  14.2994370  20.3938760  31.4605650  30.3306640  18.8109250
  31.2927690  29.6977320  19.5091140  30.5940160  30.5366040  18.4603440
  32.0833670  14.1623420  16.3141110  32.8413030  14.2752300  15.7405140
  31.6210840  14.9992620  16.2684540  38.6247480  16.2762690  19.3043420
  37.8121990  15.9019580  18.9639300  39.1289120  15.5207770  19.6064610
  43.1272460  12.9405140  20.5426490  43.7301830  13.5125350  21.0175010
  42.3865450  13.5044580  20.3200390  46.2707060  13.3426700  15.8166770
  46.4657690  14.2410150  16.0834200  45.4836930  13.1113780  16.3099720
  33.0668350  29.0239870  16.2559390  32.5415970  29.4047900  15.5521350
  32.9912930  29.6490640  16.9769100  34.4558820  14.6887470  14.8543080
  34.9851580  13.9017270  14.7251030  35.0887140  15.3678660  15.0878610
  36.6496660  14.4262610  17.9088470  36.0199400  13.7249920  18.0758600
  36.1101800  15.1866740  17.6921630  39.5888610  31.0401840  30.5799080
  40.5155920  30.8046110  30.6235040  39.5739040  31.8673840  30.0985110
  47.8233670  30.5827410  17.5773330  47.9985860  29.8965150  16.9334250
  47.1255240  31.1074460  17.1850000  36.7752220  13.7046590  30.3440960
  36.4936490  14.2080190  29.5801780  37.1571920  12.9068340  29.9783090
  35.6661320  30.9722250  15.1308640  36.3980140  30.6881530  14.5832530
  35.9254990  30.7335530  16.0208020  34.8276110  27.0886980  15.1354970
  34.1984990  27.5572080  15.6840800  34.9423940  26.2436200  15.5701160
  43.3767680  13.1200170  30.9221430  43.2633130  13.4394780  31.8172950
  44.1937420  13.5212680  30.6258710  46.1566170  30.2671700  30.4040120
  46.9491490  29.7720930  30.1966080  46.4499320  30.9461840  31.0115730
  40.4143870  22.9171660   3.1665440  39.6385970  22.4372100   3.4564010
  41.0656800  22.2377310   2.9921600  34.4309700  23.2291470   4.0441200
  33.5994580  22.9740180   4.4437710  35.0390680  23.3002240   4.7799120
  44.4351300  27.3231850   1.9464570  43.9732830  26.5519090   2.2751740
  45.2476850  27.3497920   2.4517020  34.4110960  27.2631560   4.2399220
  34.7139000  26.3729300   4.0609440  35.1554550  27.8201780   4.0121470
  30.8034660  20.7899010   3.7123290  31.3750770  20.0221210   3.7126930
  30.8036200  21.0887770   2.8029900  39.8552860  25.5928850   3.1735600
  39.7861140  24.6518790   3.0124730  40.6172720  25.6830260   3.7458170
  32.0459530  16.1983370   5.4992220  31.8662370  15.3009120   5.7794980
  31.6439610  16.7455240   6.1739170  40.8858030  18.3999230   3.4004530
  41.2622850  17.5271110   3.2878200  40.7877540  18.7357930   2.5094970
  32.6646200  18.6943870   4.1074560  33.3456310  18.9582240   4.7261960
  32.3494250  17.8544740   4.4412570  36.8570770  19.7411230   3.1947150
  37.3648990  20.2392200   3.8352170  37.3884010  18.9646430   3.0186510
  48.9581700  17.9116420   6.8976500  48.2533870  18.2998130   6.3791610
  49.2239620  18.6066710   7.4997430  35.1406870  14.3809790   7.4610570
  35.1425310  14.8982180   6.6556470  34.3111180  13.9039970   7.4380500
  36.3909720  24.0204970   5.6384070  36.0579100  24.6473890   6.2805140
  36.5676400  24.5466850   4.8585740  44.9043630  17.8350050   3.1060410
  44.1999200  18.1234940   3.6863520  45.2655790  18.6450160   2.7459970
  34.8222200  16.0919750   5.4681020  35.1639010  16.9361800   5.1734890
  33.8838010  16.2403490   5.5846360  35.6028820  25.9885770   7.4533250
  36.2202820  26.6636850   7.1717700  34.7421940  26.3973750   7.3620750
  46.5206410  27.4525180   5.3687890  45.8369930  28.1224290   5.3604560
  47.0600700  27.6505830   4.6032750  47.9730550  17.2804840   3.4969620
  47.0255460  17.3143820   3.6285050  48.2980540  18.0943790   3.8818980
  44.0565150  29.2969310   4.0833070  44.0692310  28.8931600   3.2155330
  43.5040370  30.0716600   3.9794500  43.4550590  24.1999150   5.4115680
  43.8719380  23.9859260   4.5769140  44.1790410  24.4571940   5.9824300
  47.4012690  22.5986370   5.5031920  46.5731320  22.6679460   5.0282050
  47.9963170  23.1840680   5.0347750  44.3654700  19.3855690   6.4486790
  43.9525880  20.2109400   6.7026780  43.6330650  18.8000730   6.2563150
  36.9669190  25.8583150   3.4744670  36.6697480  25.2528620   2.7952450
  37.9169010  25.8960460   3.3634030  35.2116110  18.9458800   5.0904500
  35.7630700  19.0554140   4.3157750  35.7259620  19.3196400   5.8059730
  45.0554800  29.4315020   7.1367770  44.5785360  30.2387210   6.9440380
  44.3716590  28.7793350   7.2893980  36.0587620  25.5964840  10.1252470
  35.1616150  25.8204810  10.3725870  36.0840490  25.7199780   9.1763870
  34.8858840  22.4678160   8.7009840  34.7466610  23.3400960   9.0697240
  34.0040200  22.1250970   8.5557780  36.6839190  28.4099860  10.9094990
  36.6554620  28.8142810  10.0423420  36.5204160  27.4810220  10.7466590
  48.6354010  29.1926960  12.2059160  49.1113730  29.6709850  12.8848240
  49.2561170  29.1244450  11.4804660  30.8377490  24.2375710   4.6180750
  30.9157910  24.3724480   3.6736470  31.4519170  23.5291600   4.8108870
  48.0387260  26.3839810   9.3659170  48.1650320  26.1451690   8.4476350
  48.0808640  25.5524350   9.8381250  41.9004000  30.0867810   7.9353980
  42.4148670  29.9975820   8.7376410  41.0573080  30.4327510   8.2281890
  47.8911270  18.4372270  10.3308910  47.2755540  18.9451940   9.8024370
  47.5707690  17.5370600  10.2734850  30.8937010  25.2789880   7.1575210
  31.0568050  24.8095240   6.3394580  31.3589460  24.7713440   7.8224050
  35.6655780  14.4095640   2.1935780  35.2223930  15.1905180   1.8620300
  36.2240770  14.7325530   2.9006720  39.9525590  17.2764160   7.7971100
  39.4904960  17.4847180   8.6091040  39.5503700  16.4623510   7.4941770
  44.9530100  18.4973110   8.9267760  44.1023690  18.1978860   9.2476830
  44.7931890  18.7415120   8.0151580  42.0479810  19.9974860  11.0266550
  42.3733220  19.1638610  10.6868780  42.8360140  20.5203380  11.1744880
  37.7031680  14.9542970   4.0525380  38.0004010  15.8605800   3.9717400
  38.2517240  14.4661750   3.4384950  37.8969210  20.4314790  10.5877300
  37.8012810  19.4909520  10.4377700  38.7401190  20.6529860  10.1925370
  33.0279750  16.8428460   8.7411080  32.6343140  17.6903670   8.9483860
  32.3398150  16.2054830   8.9319720  39.6024800  16.9263430  11.8107820
  38.9123120  16.7335630  12.4453910  40.3457100  17.2098070  12.3432120
  30.3296800  14.7656920   2.7741160  30.0409850  15.3359780   3.4866140
  31.0742560  14.2861370   3.1372390  41.8787770  20.7661870   4.6461740
  41.1468890  21.2748680   4.9951840  41.4812110  19.9491850   4.3450520
  38.3165160  17.4416070   3.0514230  38.3201220  17.0006020   2.2018770
  39.2116280  17.7633400   3.1586050  34.1667540  17.3242560   2.0108440
  33.8267590  17.8017790   2.7675490  33.4044860  16.8707680   1.6509540
  42.3413680  16.2195550   4.0584680  42.3586420  16.6704200   4.9026530
  42.0929260  15.3201190   4.2718120  45.7684430  13.6327730   9.8971060
  46.0930200  12.9017390  10.4229040  45.8040940  13.3141370   8.9952050
  32.4675990  24.6541310   9.3171020  32.0830780  24.0134980   9.9153980
  32.7788180  25.3577430   9.8865750  38.6173130  21.5017850   4.7979640
  38.9843260  21.0276420   5.5440980  38.4278190  22.3759420   5.1387980
  36.4072500  20.5426490   7.1163850  36.1029570  21.4218470   7.3414210
  37.3618960  20.6026280   7.1521290  45.6942270  23.7452840   3.5057090
  46.4141390  24.2408130   3.1153200  45.4924090  23.0670730   2.8610960
  41.0761070  23.8161900   9.3926090  41.0098380  22.8957570   9.1383680
  40.4466210  23.9137340  10.1070730  32.4636230  21.3829230   8.2635210
  32.1051170  22.0483080   8.8508550  32.1690790  20.5512780   8.6347830
  35.6649350  21.8413470  11.1474760  35.3649490  21.9870650  10.2502580
  36.4360590  21.2818760  11.0548150  41.0077800  26.6382470   9.1429890
  41.0222340  25.7063430   8.9248800  40.3002900  26.7242230   9.7819660
  47.2189010  23.2789810   8.4898470  46.4937200  23.8718590   8.2927860
  47.7464470  23.2713350   7.6911840  40.4411700  28.2800040   6.2370390
  41.0853920  28.4859420   6.9143810  40.8041140  27.5188440   5.7841240
  41.7143780  26.2832390   4.9547840  42.3566010  25.5825550   5.0680010
  42.2393130  27.0630830   4.7744730  43.4881400  27.0827290   8.1583900
  43.8237640  27.6693980   8.8361820  42.5681740  26.9520000   8.3881690
  31.0384800  14.8722470   8.9407310  30.3243320  15.0719390   9.5459920
  31.4579840  14.0962040   9.3122110  31.3257390  28.8602730   9.9273840
  31.4348510  27.9197470   9.7869230  30.6737950  29.1257480   9.2787570
  39.3169980  27.1318620  11.3271960  38.9966850  26.4127860  11.8717650
  38.6428340  27.8073690  11.4008020  42.5323580  17.3644780   6.6908760
  42.9004400  16.5439990   7.0188330  41.6721780  17.4246670   7.1064410
  39.4925570  20.0184370   6.9146730  39.9910820  20.4930190   7.5798580
  39.6348520  19.0947890   7.1216760  46.6992430  16.2352330   7.7575120
  46.1966030  16.9757730   8.0968930  47.5149090  16.6236330   7.4411910
  46.9940020  28.6494360   2.8790740  47.1187440  29.4725530   3.3514550
  47.8605580  28.4385090   2.5314890  34.4657550  30.7425570   2.5507870
  35.2020030  30.1941030   2.8216440  34.8498470  31.6081580   2.4113860
  33.4715830  29.9271640  11.7393450  34.2728560  30.2483690  12.1528850
  32.9567650  29.5667220  12.4613360  42.3080460  26.0351510  11.6868860
  41.7018620  26.0583110  10.9464610  42.0034570  25.3034550  12.2236110
  43.7380830  29.7631800  10.2978270  44.6902580  29.6789820  10.2478510
  43.5909050  30.4273510  10.9712060  31.1913640  22.4145100  10.6829500
  31.6952660  21.8352380  11.2545730  30.4521060  22.6985330  11.2205870
  38.2451580  23.8216090  10.2165020  37.4797250  24.3901090  10.1319690
  38.4267540  23.5292300   9.3233250  45.3874930  25.5521420  10.7740040
  46.1284400  25.8897180  10.2707500  44.6247610  25.7213480  10.2209810
  33.2236720  20.5574690  11.5779570  33.2642060  20.2588560  12.4864800
  34.0782220  20.9582300  11.4187090  35.1642530  19.1366790   9.5454060
  34.6338990  18.6457740   8.9177400  35.8330600  19.5650990   9.0111990
  44.0620590  23.6036250   9.3095250  44.4761610  23.7581330  10.1585670
  43.1271590  23.7291470   9.4721030  44.5342760  20.9432410  11.3134400
  45.1163530  20.1884730  11.2254880  44.7104530  21.4739850  10.5365880
  35.6514830  16.1029160   9.6251350  35.5571700  15.4849910   8.9002220
  35.0712220  16.8295450   9.3981260  38.4176270  14.6602400   6.6578740
  37.9693570  14.6826660   5.8124290  37.7841470  14.2621420   7.2549040
  38.8235820  23.5556730   7.2791180  39.2423930  24.3989460   7.1067420
  37.9044450  23.6928770   7.0497960  41.1599720  21.2872910   8.6629020
  41.2795930  20.6914050   9.4023860  42.0193720  21.3242600   8.2430320
  43.4987620  21.8410100   7.2391530  42.9722840  22.3652720   6.6356670
  43.8418960  22.4737490   7.8701260  36.6743240  29.8609740   8.3948910
  36.1364330  30.5855800   8.0757610  36.9277200  29.3840080   7.6046250
  37.9268490  17.8294260   9.9204840  38.5168180  17.5210110  10.6082660
  37.1088730  17.3574010  10.0764740  42.7461920  17.4460070  10.1537860
  42.0577440  16.7841610  10.0887850  43.4667940  16.9998340  10.5986320
  39.5305450  31.0960950   8.6535560  39.4564150  31.9996090   8.9607930
  38.6284290  30.7772850   8.6257630  30.9332740  28.4235540   1.9569180
  31.2635750  27.5556600   1.7247820  31.3623740  28.6294060   2.7874140
  31.4222950  29.2906130   4.6950810  30.9853940  29.4706930   5.5274960
  31.9900630  30.0480750   4.5532530  47.0585130  28.7923130   8.9828120
  46.4587120  28.8515690   8.2392040  47.1879030  27.8528110   9.1124970
  45.7436770  25.5175110   7.0804280  44.9296610  25.9472270   7.3430070
  46.1510970  26.1293520   6.4673330  32.2923310  22.1878930   5.5943030
  32.6596350  22.1006330   6.4739050  31.7234130  21.4245480   5.4949890
  47.0927170  20.6563310   8.6073500  46.8613260  20.4276060   7.7071450
  47.3531720  21.5762860   8.5618390  31.8439310  19.0988020   9.5001450
  30.9495360  19.0654780   9.8395160  32.3836860  19.2974810  10.2652700
  45.5315240  15.8819740  11.3853200  46.4085420  15.8903140  11.7687200
  45.5436080  15.1450580  10.7745550  46.9778510  19.7349280   2.2741220
  47.5015990  19.2411930   1.6431390  47.5637930  19.8699640   3.0188790
  47.1568230  19.8189150   5.7960770  46.2070940  19.7852690   5.9105760
  47.3381240  20.7289260   5.5610540  32.3479020  13.3736350   3.8484670
  32.9955210  12.8233730   3.4079830  32.7680860  13.6279500   4.6700480
  46.2431360  13.5677710   7.2054310  46.8803580  14.1811850   7.5713500
  46.3906250  13.6038370   6.2603540  32.1011020  13.5292020   6.5909990
  31.7525840  13.9855840   7.3568170  31.7698720  12.6349150   6.6732420
  33.7075390  26.7011620  10.7563180  33.6645020  26.3304530  11.6377640
  33.8386400  27.6389190  10.8965000  37.4081420  28.2571210   6.3572900
  37.1672780  28.5245770   5.4703420  38.3484060  28.4276940   6.4123760
  39.6135840  14.7203900  10.1129410  39.5524730  15.3125730  10.8624820
  40.5536220  14.6129860   9.9679670  42.2510400  14.3773960   9.7521700
  42.8650810  14.6953250   9.0902780  42.7959960  13.8922550  10.3717560
  48.6685580  30.2765590   7.1583540  48.1743860  30.6734460   6.4410670
  48.0598870  29.6514800   7.5520820  32.7731660  13.0568220   9.8660760
  33.3214650  12.8756270   9.1026870  32.8386970  12.2662330  10.4017070
  33.5463420  29.6473870   7.8760960  32.9523740  29.5158570   8.6151000
  33.5387260  28.8112010   7.4103060  42.9918440  12.9406100   6.0790990
  42.1178280  13.2741210   5.8763920  42.8829190  12.4679280   6.9042860
  43.8990420  15.1476970   7.4632710  43.5703780  14.3328730   7.0834440
  44.8472720  15.1046780   7.3398400  46.3525030  30.9189010   4.4370280
  45.8928000  31.6704820   4.0628300  45.7237490  30.1995480   4.3785080
  33.1775650  27.0132250   6.8269000  32.4509710  26.3937540   6.7594950
  33.2384800  27.4072860   5.9567080  36.7820750  29.2277250   3.6118410
  37.2985770  28.6164610   3.0866670  37.4318130  29.7306030   4.1029420
  39.5216250  30.1185740   4.4387390  39.8094060  29.8640040   3.5620400
  40.0339470  29.5663100   5.0292960  40.7393260  13.8575940   5.0183900
  39.9565050  14.3321440   5.2980660  40.4456190  12.9530770   4.9097080
  45.2914330  14.5599040   3.0632990  45.7322420  14.5044140   2.2154590
  45.0221920  15.4757050   3.1343170  43.1272460  12.9405140   1.7683000
  43.7301830  13.5125350   2.2431520  42.3865450  13.5044580   1.5456900
  39.5888610  31.0401840  11.8055590  40.5155920  30.8046110  11.8491550
  39.5739040  31.8673840  11.3241620  36.7752220  13.7046590  11.5697470
  36.4936490  14.2080190  10.8058290  37.1571920  12.9068340  11.2039600
  43.3767680  13.1200170  12.1477940  43.2633130  13.4394780  13.0429460
  44.1937420  13.5212680  11.8515220  46.1566170  30.2671700  11.6296630
  46.9491490  29.7720930  11.4222590  46.4499320  30.9461840  12.2372240
  40.4143870   4.1428170 153.3613360  39.6385970   3.6628610 153.6511930
  41.0656800   3.4633820 153.1869520  44.4351300   8.5488360 152.1412490
  43.9732830   7.7775600 152.4699660  45.2476850   8.5754430 152.6464940
  34.4110960   8.4888070 154.4347140  34.7139000   7.5985810 154.2557360
  35.1554550   9.0458290 154.2069390  40.6614610  10.8346370 151.7616480
  40.0426050  11.2903870 151.1910920  41.5166390  10.9897830 151.3606180
  39.8552860   6.8185360 153.3683520  39.7861140   5.8775300 153.2072650
  40.6172720   6.9086770 153.9406090  41.5277960   5.7185610 149.1548390
  40.9095230   6.1835060 148.5911110  42.0401210   6.4113090 149.5717900
  30.8961160   6.4042140 146.5288020  30.5189140   6.8929240 145.7972920
  31.1534230   7.0767420 147.1594550  44.0565150  10.5225820 154.2780990
  44.0692310  10.1188110 153.4103250  43.5040370  11.2973110 154.1742420
  45.3510570   7.2442040 149.3671160  45.2406900   6.3016370 149.4920580
  45.3478820   7.6057680 150.2533920  40.8930850   2.8707360 148.7233650
  39.9660130   2.8044740 148.9522120  41.0455670   3.8087490 148.6088890
  44.9228140   4.4327660 149.2268900  44.3040560   4.0947210 148.5795200
  44.9052590   3.7887420 149.9348090  36.4987490   3.3972100 151.5053380
  36.0944490   2.6849350 151.0099280  36.5850610   3.0525340 152.3941420
  36.9669190   7.0839660 153.6692590  36.6697480   6.4785130 152.9900370
  37.9169010   7.1216970 153.5581950  43.0992840   3.6714470 146.2341650
  43.5386120   2.8336900 146.0879470  43.8121260   4.3043870 146.3205790
  41.2088220   8.6110540 150.2022890  41.6484130   9.3534870 149.7878280
  41.1475110   8.8537110 151.1261850  32.0825120   7.1632410 151.2234850
  31.6753200   7.3047000 150.3688450  32.9738130   6.8792570 151.0206060
  43.8758400  11.5979660 147.5585900  43.7159540  11.3082600 148.4567730
  43.7105110  10.8219790 147.0231130  36.3546780  11.3778190 149.3357520
  36.1789260  10.4613730 149.1225320  35.5002520  11.7365480 149.5755320
  43.5784530   9.1067220 146.1183900  42.8849690   9.1044510 145.4586180
  44.3207390   8.6826540 145.6878070  43.1434460  10.7329930 150.1932390
  43.5991410   9.9519310 150.5071010  43.4826980  11.4436750 150.7373570
  34.9354290   5.9743990 147.9078620  34.1616550   5.4341610 147.7477340
  35.6648920   5.4550600 147.5696380  45.6942270   4.9709350 153.7005010
  46.4141390   5.4664640 153.3101120  45.4924090   4.2927240 153.0558880
  34.9791690   5.6424370 151.5457430  35.4970360   4.8392630 151.4914320
  34.5275710   5.5803510 152.3874260  39.8661190   6.9090650 146.8184730
  40.2076890   7.6532880 146.3228050  39.0373900   7.2221770 147.1809560
  46.1414870   2.0478800 145.6076420  46.0578590   2.4793020 144.7572860
  46.8609060   2.5077150 146.0403240  47.1702120   8.9021060 148.3358550
  46.5278280   8.2476680 148.6102270  46.7832780   9.3076150 147.5599220
  42.7488600   6.2306490 152.1830240  43.1012420   5.6334620 151.5231610
  41.8650930   5.9050720 152.3538490  38.8351880   6.9904180 149.5900650
  39.5223010   7.5373390 149.9708240  38.0484300   7.5344910 149.6250260
  30.9744280   2.6077000 145.0817730  31.8439130   2.8901800 145.3653650
  30.4834600   3.4212870 144.9666540  38.1379090   3.9950210 149.2026010
  38.5941870   4.8055460 149.4286200  37.7867300   3.6773350 150.0344500
  45.5599500   7.7937520 144.8734900  45.3337080   7.0767960 145.4659540
  45.1695700   7.5449960 144.0356650  31.3415530  11.8204380 145.6479360
  31.7013170  12.4193720 144.9936630  31.2007870  12.3664270 146.4214390
  45.1415750   5.7109460 146.5349060  44.8537450   6.1722150 147.3226940
  45.9367920   5.2507230 146.8033280  37.3584150   9.2035580 146.4653030
  37.3494250   9.9365270 145.8497540  36.4382510   8.9567160 146.5579990
  32.9590790   4.4250470 147.2099790  32.3518740   5.1649370 147.2195090
  33.4340140   4.5149830 146.3837990  40.3443750   9.2663820 145.1278220
  40.4455730   9.0627810 144.1980200  39.4445490   9.0122100 145.3326000
  38.9861860  11.7850140 149.8225890  39.2403360  11.7471530 148.9005260
  38.0374340  11.6583470 149.8154140  44.9914440   2.7042020 151.3984400
  44.0504580   2.7192250 151.5732090  45.3058510   1.9177980 151.8444700
  34.9696080   4.3861620 144.9588360  35.7359350   4.2742980 145.5213790
  35.0470770   3.6899590 144.3065130  46.9940020   9.8750870 153.0738660
  47.1187440  10.6982040 153.5462470  47.8605580   9.6641600 152.7262810
  34.4657550  11.9682080 152.7455790  35.2020030  11.4197540 153.0164360
  34.8498470  12.8338090 152.6061780  31.3503030   8.0355650 148.6197300
  30.4242810   8.2776790 148.6102710  31.8159460   8.8629910 148.4982050
  37.5759860  11.1412390 144.5681360  38.3688470  11.4301220 144.1163150
  37.0564210  10.7104560 143.8893840  46.6290030  10.3682520 145.9918100
  46.3431540   9.9547660 145.1772280  46.4309580  11.2970230 145.8718620
  38.0937260   6.3615800 144.4323710  37.9887900   5.7468150 145.1585090
  37.9261480   5.8381690 143.6486720  41.3339990   5.4235830 145.0365700
  40.7850090   5.8705130 145.6808440  41.9559250   4.9185080 145.5603370
  37.0015110   4.3826750 146.9331000  37.4231530   4.2166620 147.7762390
  37.1265950   3.5726980 146.4386140  39.5142750   3.4064360 144.1808100
  40.0348410   2.6913380 143.8149250  40.1611150   4.0450230 144.4808610
  40.0790780  11.4875970 146.4709840  40.9741570  11.8260940 146.4928600
  40.1108410  10.7655380 145.8434120  33.7186940   6.8603020 144.6996840
  34.1561810   7.4032690 145.3554420  34.2034670   6.0349970 144.7093180
  30.9332740   9.6492050 152.1517100  31.2635750   8.7813110 151.9195740
  31.3623740   9.8550570 152.9822060  35.5294660   7.9801060 149.8119070
  35.2290200   7.8566030 150.7122980  35.4232150   7.1209650 149.4034800
  48.2986580   7.7597460 144.5145750  47.4679540   7.8274110 144.9852980
  48.4758410   8.6501580 144.2112610  47.7543040   4.5044940 147.0179950
  48.5161950   5.0741590 147.1239640  47.7697410   3.9372140 147.7888260
  31.2547380   3.0282870 151.2487610  30.5996220   2.7594510 150.6047310
  32.0925330   2.9187350 150.7989590  48.7603010   5.3595040 151.8621880
  49.1311840   4.5762360 151.4557850  49.4004940   6.0484140 151.6839180
  47.8062210   4.7979310 144.1752470  48.0811050   5.7058190 144.0471690
  47.6172950   4.7341840 145.1114460  47.7027550   2.7348300 149.1681900
  47.3271150   1.9676230 148.7363190  46.9730670   3.1171000 149.6556830
  45.8012820  11.4950220 150.8020470  46.3971890  11.1734790 150.1254890
  46.0590970  11.0222040 151.5933740  36.7820750  10.4533760 153.8066330
  37.2985770   9.8421120 153.2814590  37.4318130  10.9562540 154.2977340
  31.4605650  11.5563150 150.2313680  31.2927690  10.9233830 150.9295570
  30.5940160  11.7622550 149.8807870  33.0668350  10.2496380 147.6763820
  32.5415970  10.6304410 146.9725780  32.9912930  10.8747150 148.3973530
  47.8233670  11.8083920 148.9977760  47.9985860  11.1221660 148.3538680
  47.1255240  12.3330970 148.6054430  35.6661320  12.1978760 146.5513070
  36.3980140  11.9138040 146.0036960  35.9254990  11.9592040 147.4412450
  34.8276110   8.3143490 146.5559400  34.1984990   8.7828590 147.1045230
  34.9423940   7.4692710 146.9905590  40.4143870   4.1428170 134.5869870
  39.6385970   3.6628610 134.8768440  41.0656800   3.4633820 134.4126030
  34.4309700   4.4547980 135.4645630  33.5994580   4.1996690 135.8642140
  35.0390680   4.5258750 136.2003550  44.4351300   8.5488360 133.3669000
  43.9732830   7.7775600 133.6956170  45.2476850   8.5754430 133.8721450
  34.4110960   8.4888070 135.6603650  34.7139000   7.5985810 135.4813870
  35.1554550   9.0458290 135.4325900  40.6614610  10.8346370 132.9872990
  40.0426050  11.2903870 132.4167430  41.5166390  10.9897830 132.5862690
  39.8552860   6.8185360 134.5940030  39.7861140   5.8775300 134.4329160
  40.6172720   6.9086770 135.1662600  41.5277960   5.7185610 130.3804900
  40.9095230   6.1835060 129.8167620  42.0401210   6.4113090 130.7974410
  36.3909720   5.2461480 137.0588500  36.0579100   5.8730400 137.7009570
  36.5676400   5.7723360 136.2790170  35.6028820   7.2142280 138.8737680
  36.2202820   7.8893360 138.5922130  34.7421940   7.6230260 138.7825180
  30.8961160   6.4042140 127.7544530  30.5189140   6.8929240 127.0229430
  31.1534230   7.0767420 128.3851060  46.5206410   8.6781690 136.7892320
  45.8369930   9.3480800 136.7808990  47.0600700   8.8762340 136.0237180
  44.0565150  10.5225820 135.5037500  44.0692310  10.1188110 134.6359760
  43.5040370  11.2973110 135.3998930  45.3510570   7.2442040 130.5927670
  45.2406900   6.3016370 130.7177090  45.3478820   7.6057680 131.4790430
  43.4550590   5.4255660 136.8320110  43.8719380   5.2115770 135.9973570
  44.1790410   5.6828450 137.4028730  40.8930850   2.8707360 129.9490160
  39.9660130   2.8044740 130.1778630  41.0455670   3.8087490 129.8345400
  47.4012690   3.8242880 136.9236350  46.5731320   3.8935970 136.4486480
  47.9963170   4.4097190 136.4552180  44.9228140   4.4327660 130.4525410
  44.3040560   4.0947210 129.8051710  44.9052590   3.7887420 131.1604600
  36.4987490   3.3972100 132.7309890  36.0944490   2.6849350 132.2355790
  36.5850610   3.0525340 133.6197930  36.9669190   7.0839660 134.8949100
  36.6697480   6.4785130 134.2156880  37.9169010   7.1216970 134.7838460
  45.0554800  10.6571530 138.5572200  44.5785360  11.4643720 138.3644810
  44.3716590  10.0049860 138.7098410  36.0587620   6.8221350 141.5456900
  35.1616150   7.0461320 141.7930300  36.0840490   6.9456290 140.5968300
  43.0992840   3.6714470 127.4598160  43.5386120   2.8336900 127.3135980
  43.8121260   4.3043870 127.5462300  34.8858840   3.6934670 140.1214270
  34.7466610   4.5657470 140.4901670  34.0040200   3.3507480 139.9762210
  41.2088220   8.6110540 131.4279400  41.6484130   9.3534870 131.0134790
  41.1475110   8.8537110 132.3518360  36.6839190   9.6356370 142.3299420
  36.6554620  10.0399320 141.4627850  36.5204160   8.7066730 142.1671020
  48.6354010  10.4183470 143.6263590  49.1113730  10.8966360 144.3052670
  49.2561170  10.3500960 142.9009090  30.8377490   5.4632220 136.0385180
  30.9157910   5.5980990 135.0940900  31.4519170   4.7548110 136.2313300
  32.0825120   7.1632410 132.4491360  31.6753200   7.3047000 131.5944960
  32.9738130   6.8792570 132.2462570  48.0387260   7.6096320 140.7863600
  48.1650320   7.3708200 139.8680780  48.0808640   6.7780860 141.2585680
  41.9004000  11.3124320 139.3558410  42.4148670  11.2232330 140.1580840
  41.0573080  11.6584020 139.6486320  43.8758400  11.5979660 128.7842410
  43.7159540  11.3082600 129.6824240  43.7105110  10.8219790 128.2487640
  36.3546780  11.3778190 130.5614030  36.1789260  10.4613730 130.3481830
  35.5002520  11.7365480 130.8011830  43.5784530   9.1067220 127.3440410
  42.8849690   9.1044510 126.6842690  44.3207390   8.6826540 126.9134580
  43.1434460  10.7329930 131.4188900  43.5991410   9.9519310 131.7327520
  43.4826980  11.4436750 131.9630080  30.8937010   6.5046390 138.5779640
  31.0568050   6.0351750 137.7599010  31.3589460   5.9969950 139.2428480
  32.4675990   5.8797820 140.7375450  32.0830780   5.2391490 141.3358410
  32.7788180   6.5833940 141.3070180  38.6173130   2.7274360 136.2184070
  38.9843260   2.2532930 136.9645410  38.4278190   3.6015930 136.5592410
  36.4072500   1.7683000 138.5368280  36.1029570   2.6474980 138.7618640
  37.3618960   1.8282790 138.5725720  34.9354290   5.9743990 129.1335130
  34.1616550   5.4341610 128.9733850  35.6648920   5.4550600 128.7952890
  45.6942270   4.9709350 134.9261520  46.4141390   5.4664640 134.5357630
  45.4924090   4.2927240 134.2815390  41.0761070   5.0418410 140.8130520
  41.0098380   4.1214080 140.5588110  40.4466210   5.1393850 141.5275160
  34.9791690   5.6424370 132.7713940  35.4970360   4.8392630 132.7170830
  34.5275710   5.5803510 133.6130770  39.8661190   6.9090650 128.0441240
  40.2076890   7.6532880 127.5484560  39.0373900   7.2221770 128.4066070
  32.4636230   2.6085740 139.6839640  32.1051170   3.2739590 140.2712980
  32.1690790   1.7769290 140.0552260  35.6649350   3.0669980 142.5679190
  35.3649490   3.2127160 141.6707010  36.4360590   2.5075270 142.4752580
  41.0077800   7.8638980 140.5634320  41.0222340   6.9319940 140.3453230
  40.3002900   7.9498740 141.2024090  46.1414870   2.0478800 126.8332930
  46.0578590   2.4793020 125.9829370  46.8609060   2.5077150 127.2659750
  47.2189010   4.5046320 139.9102900  46.4937200   5.0975100 139.7132290
  47.7464470   4.4969860 139.1116270  47.1702120   8.9021060 129.5615060
  46.5278280   8.2476680 129.8358780  46.7832780   9.3076150 128.7855730
  42.7488600   6.2306490 133.4086750  43.1012420   5.6334620 132.7488120
  41.8650930   5.9050720 133.5795000  38.8351880   6.9904180 130.8157160
  39.5223010   7.5373390 131.1964750  38.0484300   7.5344910 130.8506770
  30.9744280   2.6077000 126.3074240  31.8439130   2.8901800 126.5910160
  30.4834600   3.4212870 126.1923050  38.1379090   3.9950210 130.4282520
  38.5941870   4.8055460 130.6542710  37.7867300   3.6773350 131.2601010
  40.4411700   9.5056550 137.6574820  41.0853920   9.7115930 138.3348240
  40.8041140   8.7444950 137.2045670  41.7143780   7.5088900 136.3752270
  42.3566010   6.8082060 136.4884440  42.2393130   8.2887340 136.1949160
  45.5599500   7.7937520 126.0991410  45.3337080   7.0767960 126.6916050
  45.1695700   7.5449960 125.2613160  43.4881400   8.3083800 139.5788330
  43.8237640   8.8950490 140.2566250  42.5681740   8.1776510 139.8086120
  31.3415530  11.8204380 126.8735870  31.7013170  12.4193720 126.2193140
  31.2007870  12.3664270 127.6470900  45.1415750   5.7109460 127.7605570
  44.8537450   6.1722150 128.5483450  45.9367920   5.2507230 128.0289790
  31.3257390  10.0859240 141.3478270  31.4348510   9.1453980 141.2073660
  30.6737950  10.3513990 140.6992000  39.3169980   8.3575130 142.7476390
  38.9966850   7.6384370 143.2922080  38.6428340   9.0330200 142.8212450
  37.3584150   9.2035580 127.6909540  37.3494250   9.9365270 127.0754050
  36.4382510   8.9567160 127.7836500  32.9590790   4.4250470 128.4356300
  32.3518740   5.1649370 128.4451600  33.4340140   4.5149830 127.6094500
  40.3443750   9.2663820 126.3534730  40.4455730   9.0627810 125.4236710
  39.4445490   9.0122100 126.5582510  38.9861860  11.7850140 131.0482400
  39.2403360  11.7471530 130.1261770  38.0374340  11.6583470 131.0410650
  44.9914440   2.7042020 132.6240910  44.0504580   2.7192250 132.7988600
  45.3058510   1.9177980 133.0701210  34.9696080   4.3861620 126.1844870
  35.7359350   4.2742980 126.7470300  35.0470770   3.6899590 125.5321640
  46.9940020   9.8750870 134.2995170  47.1187440  10.6982040 134.7718980
  47.8605580   9.6641600 133.9519320  34.4657550  11.9682080 133.9712300
  35.2020030  11.4197540 134.2420870  34.8498470  12.8338090 133.8318290
  31.3503030   8.0355650 129.8453810  30.4242810   8.2776790 129.8359220
  31.8159460   8.8629910 129.7238560  33.4715830  11.1528150 143.1597880
  34.2728560  11.4740200 143.5733280  32.9567650  10.7923730 143.8817790
  37.5759860  11.1412390 125.7937870  38.3688470  11.4301220 125.3419660
  37.0564210  10.7104560 125.1150350  42.3080460   7.2608020 143.1073290
  41.7018620   7.2839620 142.3669040  42.0034570   6.5291060 143.6440540
  43.7380830  10.9888310 141.7182700  44.6902580  10.9046330 141.6682940
  43.5909050  11.6530020 142.3916490  46.6290030  10.3682520 127.2174610
  46.3431540   9.9547660 126.4028790  46.4309580  11.2970230 127.0975130
  31.1913640   3.6401610 142.1033930  31.6952660   3.0608890 142.6750160
  30.4521060   3.9241840 142.6410300  38.0937260   6.3615800 125.6580220
  37.9887900   5.7468150 126.3841600  37.9261480   5.8381690 124.8743230
  38.2451580   5.0472600 141.6369450  37.4797250   5.6157600 141.5524120
  38.4267540   4.7548810 140.7437680  41.3339990   5.4235830 126.2622210
  40.7850090   5.8705130 126.9064950  41.9559250   4.9185080 126.7859880
  45.3874930   6.7777930 142.1944470  46.1284400   7.1153690 141.6911930
  44.6247610   6.9469990 141.6414240  37.0015110   4.3826750 128.1587510
  37.4231530   4.2166620 129.0018900  37.1265950   3.5726980 127.6642650
  39.5142750   3.4064360 125.4064610  40.0348410   2.6913380 125.0405760
  40.1611150   4.0450230 125.7065120  44.0620590   4.8292760 140.7299680
  44.4761610   4.9837840 141.5790100  43.1271590   4.9547980 140.8925460
  38.8235820   4.7813240 138.6995610  39.2423930   5.6245970 138.5271850
  37.9044450   4.9185280 138.4702390  41.1599720   2.5129420 140.0833450
  41.2795930   1.9170560 140.8228290  42.0193720   2.5499110 139.6634750
  43.4987620   3.0666610 138.6595960  42.9722840   3.5909230 138.0561100
  43.8418960   3.6994000 139.2905690  36.6743240  11.0866250 139.8153340
  36.1364330  11.8112310 139.4962040  36.9277200  10.6096590 139.0250680
  39.5305450  12.3217460 140.0739990  39.4564150  13.2252600 140.3812360
  38.6284290  12.0029360 140.0462060  40.0790780  11.4875970 127.6966350
  40.9741570  11.8260940 127.7185110  40.1108410  10.7655380 127.0690630
  33.7186940   6.8603020 125.9253350  34.1561810   7.4032690 126.5810930
  34.2034670   6.0349970 125.9349690  30.9332740   9.6492050 133.3773610
  31.2635750   8.7813110 133.1452250  31.3623740   9.8550570 134.2078570
  35.5294660   7.9801060 131.0375580  35.2290200   7.8566030 131.9379490
  35.4232150   7.1209650 130.6291310  31.4222950  10.5162640 136.1155240
  30.9853940  10.6963440 136.9479390  31.9900630  11.2737260 135.9736960
  47.0585130  10.0179640 140.4032550  46.4587120  10.0772200 139.6596470
  47.1879030   9.0784620 140.5329400  48.2986580   7.7597460 125.7402260
  47.4679540   7.8274110 126.2109490  48.4758410   8.6501580 125.4369120
  47.7543040   4.5044940 128.2436460  48.5161950   5.0741590 128.3496150
  47.7697410   3.9372140 129.0144770  31.2547380   3.0282870 132.4744120
  30.5996220   2.7594510 131.8303820  32.0925330   2.9187350 132.0246100
  48.7603010   5.3595040 133.0878390  49.1311840   4.5762360 132.6814360
  49.4004940   6.0484140 132.9095690  45.7436770   6.7431620 138.5008710
  44.9296610   7.1728780 138.7634500  46.1510970   7.3550030 137.8877760
  47.8062210   4.7979310 125.4008980  48.0811050   5.7058190 125.2728200
  47.6172950   4.7341840 126.3370970  47.7027550   2.7348300 130.3938410
  47.3271150   1.9676230 129.9619700  46.9730670   3.1171000 130.8813340
  32.2923310   3.4135440 137.0147460  32.6596350   3.3262840 137.8943480
  31.7234130   2.6501990 136.9154320  47.0927170   1.8819820 140.0277930
  46.8613260   1.6532570 139.1275880  47.3531720   2.8019370 139.9822820
  45.8012820  11.4950220 132.0276980  46.3971890  11.1734790 131.3511400
  46.0590970  11.0222040 132.8190250  33.7075390   7.9268130 142.1767610
  33.6645020   7.5561040 143.0582070  33.8386400   8.8645700 142.3169430
  37.4081420   9.4827720 137.7777330  37.1672780   9.7502280 136.8907850
  38.3484060   9.6533450 137.8328190  48.6685580  11.5022100 138.5787970
  48.1743860  11.8990970 137.8615100  48.0598870  10.8771310 138.9725250
  33.5463420  10.8730380 139.2965390  32.9523740  10.7415080 140.0355430
  33.5387260  10.0368520 138.8307490  46.3525030  12.1445520 135.8574710
  45.8928000  12.8961330 135.4832730  45.7237490  11.4251990 135.7989510
  33.1775650   8.2388760 138.2473430  32.4509710   7.6194050 138.1799380
  33.2384800   8.6329370 137.3771510  36.7820750  10.4533760 135.0322840
  37.2985770   9.8421120 134.5071100  37.4318130  10.9562540 135.5233850
  39.5216250  11.3442250 135.8591820  39.8094060  11.0896550 134.9824830
  40.0339470  10.7919610 136.4497390  31.4605650  11.5563150 131.4570190
  31.2927690  10.9233830 132.1552080  30.5940160  11.7622550 131.1064380
  33.0668350  10.2496380 128.9020330  32.5415970  10.6304410 128.1982290
  32.9912930  10.8747150 129.6230040  39.5888610  12.2658350 143.2260020
  40.5155920  12.0302620 143.2695980  39.5739040  13.0930350 142.7446050
  47.8233670  11.8083920 130.2234270  47.9985860  11.1221660 129.5795190
  47.1255240  12.3330970 129.8310940  35.6661320  12.1978760 127.7769580
  36.3980140  11.9138040 127.2293470  35.9254990  11.9592040 128.6668960
  34.8276110   8.3143490 127.7815910  34.1984990   8.7828590 128.3301740
  34.9423940   7.4692710 128.2162100  46.1566170  11.4928210 143.0501060
  46.9491490  10.9977440 142.8427020  46.4499320  12.1718350 143.6576670
  40.4143870   4.1428170 115.8126380  39.6385970   3.6628610 116.1024950
  41.0656800   3.4633820 115.6382540  34.4309700   4.4547980 116.6902140
  33.5994580   4.1996690 117.0898650  35.0390680   4.5258750 117.4260060
  44.4351300   8.5488360 114.5925510  43.9732830   7.7775600 114.9212680
  45.2476850   8.5754430 115.0977960  34.4110960   8.4888070 116.8860160
  34.7139000   7.5985810 116.7070380  35.1554550   9.0458290 116.6582410
  40.6614610  10.8346370 114.2129500  40.0426050  11.2903870 113.6423940
  41.5166390  10.9897830 113.8119200  39.8552860   6.8185360 115.8196540
  39.7861140   5.8775300 115.6585670  40.6172720   6.9086770 116.3919110
  41.5277960   5.7185610 111.6061410  40.9095230   6.1835060 111.0424130
  42.0401210   6.4113090 112.0230920  36.3909720   5.2461480 118.2845010
  36.0579100   5.8730400 118.9266080  36.5676400   5.7723360 117.5046680
  35.6028820   7.2142280 120.0994190  36.2202820   7.8893360 119.8178640
  34.7421940   7.6230260 120.0081690  30.8961160   6.4042140 108.9801040
  30.5189140   6.8929240 108.2485940  31.1534230   7.0767420 109.6107570
  46.5206410   8.6781690 118.0148830  45.8369930   9.3480800 118.0065500
  47.0600700   8.8762340 117.2493690  44.0565150  10.5225820 116.7294010
  44.0692310  10.1188110 115.8616270  43.5040370  11.2973110 116.6255440
  45.3510570   7.2442040 111.8184180  45.2406900   6.3016370 111.9433600
  45.3478820   7.6057680 112.7046940  43.4550590   5.4255660 118.0576620
  43.8719380   5.2115770 117.2230080  44.1790410   5.6828450 118.6285240
  40.8930850   2.8707360 111.1746670  39.9660130   2.8044740 111.4035140
  41.0455670   3.8087490 111.0601910  47.4012690   3.8242880 118.1492860
  46.5731320   3.8935970 117.6742990  47.9963170   4.4097190 117.6808690
  44.9228140   4.4327660 111.6781920  44.3040560   4.0947210 111.0308220
  44.9052590   3.7887420 112.3861110  36.4987490   3.3972100 113.9566400
  36.0944490   2.6849350 113.4612300  36.5850610   3.0525340 114.8454440
  36.9669190   7.0839660 116.1205610  36.6697480   6.4785130 115.4413390
  37.9169010   7.1216970 116.0094970  45.0554800  10.6571530 119.7828710
  44.5785360  11.4643720 119.5901320  44.3716590  10.0049860 119.9354920
  36.0587620   6.8221350 122.7713410  35.1616150   7.0461320 123.0186810
  36.0840490   6.9456290 121.8224810  43.0992840   3.6714470 108.6854670
  43.5386120   2.8336900 108.5392490  43.8121260   4.3043870 108.7718810
  34.8858840   3.6934670 121.3470780  34.7466610   4.5657470 121.7158180
  34.0040200   3.3507480 121.2018720  41.2088220   8.6110540 112.6535910
  41.6484130   9.3534870 112.2391300  41.1475110   8.8537110 113.5774870
  36.6839190   9.6356370 123.5555930  36.6554620  10.0399320 122.6884360
  36.5204160   8.7066730 123.3927530  48.6354010  10.4183470 124.8520100
  49.1113730  10.8966360 125.5309180  49.2561170  10.3500960 124.1265600
  30.8377490   5.4632220 117.2641690  30.9157910   5.5980990 116.3197410
  31.4519170   4.7548110 117.4569810  32.0825120   7.1632410 113.6747870
  31.6753200   7.3047000 112.8201470  32.9738130   6.8792570 113.4719080
  48.0387260   7.6096320 122.0120110  48.1650320   7.3708200 121.0937290
  48.0808640   6.7780860 122.4842190  41.9004000  11.3124320 120.5814920
  42.4148670  11.2232330 121.3837350  41.0573080  11.6584020 120.8742830
  43.8758400  11.5979660 110.0098920  43.7159540  11.3082600 110.9080750
  43.7105110  10.8219790 109.4744150  36.3546780  11.3778190 111.7870540
  36.1789260  10.4613730 111.5738340  35.5002520  11.7365480 112.0268340
  43.5784530   9.1067220 108.5696920  42.8849690   9.1044510 107.9099200
  44.3207390   8.6826540 108.1391090  43.1434460  10.7329930 112.6445410
  43.5991410   9.9519310 112.9584030  43.4826980  11.4436750 113.1886590
  30.8937010   6.5046390 119.8036150  31.0568050   6.0351750 118.9855520
  31.3589460   5.9969950 120.4684990  32.4675990   5.8797820 121.9631960
  32.0830780   5.2391490 122.5614920  32.7788180   6.5833940 122.5326690
  38.6173130   2.7274360 117.4440580  38.9843260   2.2532930 118.1901920
  38.4278190   3.6015930 117.7848920  36.4072500   1.7683000 119.7624790
  36.1029570   2.6474980 119.9875150  37.3618960   1.8282790 119.7982230
  34.9354290   5.9743990 110.3591640  34.1616550   5.4341610 110.1990360
  35.6648920   5.4550600 110.0209400  45.6942270   4.9709350 116.1518030
  46.4141390   5.4664640 115.7614140  45.4924090   4.2927240 115.5071900
  41.0761070   5.0418410 122.0387030  41.0098380   4.1214080 121.7844620
  40.4466210   5.1393850 122.7531670  34.9791690   5.6424370 113.9970450
  35.4970360   4.8392630 113.9427340  34.5275710   5.5803510 114.8387280
  39.8661190   6.9090650 109.2697750  40.2076890   7.6532880 108.7741070
  39.0373900   7.2221770 109.6322580  32.4636230   2.6085740 120.9096150
  32.1051170   3.2739590 121.4969490  32.1690790   1.7769290 121.2808770
  35.6649350   3.0669980 123.7935700  35.3649490   3.2127160 122.8963520
  36.4360590   2.5075270 123.7009090  41.0077800   7.8638980 121.7890830
  41.0222340   6.9319940 121.5709740  40.3002900   7.9498740 122.4280600
  46.1414870   2.0478800 108.0589440  46.0578590   2.4793020 107.2085880
  46.8609060   2.5077150 108.4916260  47.2189010   4.5046320 121.1359410
  46.4937200   5.0975100 120.9388800  47.7464470   4.4969860 120.3372780
  47.1702120   8.9021060 110.7871570  46.5278280   8.2476680 111.0615290
  46.7832780   9.3076150 110.0112240  42.7488600   6.2306490 114.6343260
  43.1012420   5.6334620 113.9744630  41.8650930   5.9050720 114.8051510
  38.8351880   6.9904180 112.0413670  39.5223010   7.5373390 112.4221260
  38.0484300   7.5344910 112.0763280  30.9744280   2.6077000 107.5330750
  31.8439130   2.8901800 107.8166670  30.4834600   3.4212870 107.4179560
  38.1379090   3.9950210 111.6539030  38.5941870   4.8055460 111.8799220
  37.7867300   3.6773350 112.4857520  40.4411700   9.5056550 118.8831330
  41.0853920   9.7115930 119.5604750  40.8041140   8.7444950 118.4302180
  41.7143780   7.5088900 117.6008780  42.3566010   6.8082060 117.7140950
  42.2393130   8.2887340 117.4205670  45.5599500   7.7937520 107.3247920
  45.3337080   7.0767960 107.9172560  45.1695700   7.5449960 106.4869670
  43.4881400   8.3083800 120.8044840  43.8237640   8.8950490 121.4822760
  42.5681740   8.1776510 121.0342630  31.3415530  11.8204380 108.0992380
  31.7013170  12.4193720 107.4449650  31.2007870  12.3664270 108.8727410
  45.1415750   5.7109460 108.9862080  44.8537450   6.1722150 109.7739960
  45.9367920   5.2507230 109.2546300  31.3257390  10.0859240 122.5734780
  31.4348510   9.1453980 122.4330170  30.6737950  10.3513990 121.9248510
  39.3169980   8.3575130 123.9732900  38.9966850   7.6384370 124.5178590
  38.6428340   9.0330200 124.0468960  37.3584150   9.2035580 108.9166050
  37.3494250   9.9365270 108.3010560  36.4382510   8.9567160 109.0093010
  32.9590790   4.4250470 109.6612810  32.3518740   5.1649370 109.6708110
  33.4340140   4.5149830 108.8351010  40.3443750   9.2663820 107.5791240
  40.4455730   9.0627810 106.6493220  39.4445490   9.0122100 107.7839020
  38.9861860  11.7850140 112.2738910  39.2403360  11.7471530 111.3518280
  38.0374340  11.6583470 112.2667160  44.9914440   2.7042020 113.8497420
  44.0504580   2.7192250 114.0245110  45.3058510   1.9177980 114.2957720
  34.9696080   4.3861620 107.4101380  35.7359350   4.2742980 107.9726810
  35.0470770   3.6899590 106.7578150  46.9940020   9.8750870 115.5251680
  47.1187440  10.6982040 115.9975490  47.8605580   9.6641600 115.1775830
  34.4657550  11.9682080 115.1968810  35.2020030  11.4197540 115.4677380
  34.8498470  12.8338090 115.0574800  31.3503030   8.0355650 111.0710320
  30.4242810   8.2776790 111.0615730  31.8159460   8.8629910 110.9495070
  33.4715830  11.1528150 124.3854390  34.2728560  11.4740200 124.7989790
  32.9567650  10.7923730 125.1074300  37.5759860  11.1412390 107.0194380
  38.3688470  11.4301220 106.5676170  37.0564210  10.7104560 106.3406860
  42.3080460   7.2608020 124.3329800  41.7018620   7.2839620 123.5925550
  42.0034570   6.5291060 124.8697050  43.7380830  10.9888310 122.9439210
  44.6902580  10.9046330 122.8939450  43.5909050  11.6530020 123.6173000
  46.6290030  10.3682520 108.4431120  46.3431540   9.9547660 107.6285300
  46.4309580  11.2970230 108.3231640  31.1913640   3.6401610 123.3290440
  31.6952660   3.0608890 123.9006670  30.4521060   3.9241840 123.8666810
  38.0937260   6.3615800 106.8836730  37.9887900   5.7468150 107.6098110
  37.9261480   5.8381690 106.0999740  38.2451580   5.0472600 122.8625960
  37.4797250   5.6157600 122.7780630  38.4267540   4.7548810 121.9694190
  41.3339990   5.4235830 107.4878720  40.7850090   5.8705130 108.1321460
  41.9559250   4.9185080 108.0116390  45.3874930   6.7777930 123.4200980
  46.1284400   7.1153690 122.9168440  44.6247610   6.9469990 122.8670750
  37.0015110   4.3826750 109.3844020  37.4231530   4.2166620 110.2275410
  37.1265950   3.5726980 108.8899160  39.5142750   3.4064360 106.6321120
  40.0348410   2.6913380 106.2662270  40.1611150   4.0450230 106.9321630
  44.0620590   4.8292760 121.9556190  44.4761610   4.9837840 122.8046610
  43.1271590   4.9547980 122.1181970  38.8235820   4.7813240 119.9252120
  39.2423930   5.6245970 119.7528360  37.9044450   4.9185280 119.6958900
  41.1599720   2.5129420 121.3089960  41.2795930   1.9170560 122.0484800
  42.0193720   2.5499110 120.8891260  43.4987620   3.0666610 119.8852470
  42.9722840   3.5909230 119.2817610  43.8418960   3.6994000 120.5162200
  36.6743240  11.0866250 121.0409850  36.1364330  11.8112310 120.7218550
  36.9277200  10.6096590 120.2507190  39.5305450  12.3217460 121.2996500
  39.4564150  13.2252600 121.6068870  38.6284290  12.0029360 121.2718570
  40.0790780  11.4875970 108.9222860  40.9741570  11.8260940 108.9441620
  40.1108410  10.7655380 108.2947140  33.7186940   6.8603020 107.1509860
  34.1561810   7.4032690 107.8067440  34.2034670   6.0349970 107.1606200
  30.9332740   9.6492050 114.6030120  31.2635750   8.7813110 114.3708760
  31.3623740   9.8550570 115.4335080  35.5294660   7.9801060 112.2632090
  35.2290200   7.8566030 113.1636000  35.4232150   7.1209650 111.8547820
  31.4222950  10.5162640 117.3411750  30.9853940  10.6963440 118.1735900
  31.9900630  11.2737260 117.1993470  47.0585130  10.0179640 121.6289060
  46.4587120  10.0772200 120.8852980  47.1879030   9.0784620 121.7585910
  48.2986580   7.7597460 106.9658770  47.4679540   7.8274110 107.4366000
  48.4758410   8.6501580 106.6625630  47.7543040   4.5044940 109.4692970
  48.5161950   5.0741590 109.5752660  47.7697410   3.9372140 110.2401280
  31.2547380   3.0282870 113.7000630  30.5996220   2.7594510 113.0560330
  32.0925330   2.9187350 113.2502610  48.7603010   5.3595040 114.3134900
  49.1311840   4.5762360 113.9070870  49.4004940   6.0484140 114.1352200
  45.7436770   6.7431620 119.7265220  44.9296610   7.1728780 119.9891010
  46.1510970   7.3550030 119.1134270  47.8062210   4.7979310 106.6265490
  48.0811050   5.7058190 106.4984710  47.6172950   4.7341840 107.5627480
  47.7027550   2.7348300 111.6194920  47.3271150   1.9676230 111.1876210
  46.9730670   3.1171000 112.1069850  32.2923310   3.4135440 118.2403970
  32.6596350   3.3262840 119.1199990  31.7234130   2.6501990 118.1410830
  47.0927170   1.8819820 121.2534440  46.8613260   1.6532570 120.3532390
  47.3531720   2.8019370 121.2079330  45.8012820  11.4950220 113.2533490
  46.3971890  11.1734790 112.5767910  46.0590970  11.0222040 114.0446760
  33.7075390   7.9268130 123.4024120  33.6645020   7.5561040 124.2838580
  33.8386400   8.8645700 123.5425940  37.4081420   9.4827720 119.0033840
  37.1672780   9.7502280 118.1164360  38.3484060   9.6533450 119.0584700
  48.6685580  11.5022100 119.8044480  48.1743860  11.8990970 119.0871610
  48.0598870  10.8771310 120.1981760  33.5463420  10.8730380 120.5221900
  32.9523740  10.7415080 121.2611940  33.5387260  10.0368520 120.0564000
  46.3525030  12.1445520 117.0831220  45.8928000  12.8961330 116.7089240
  45.7237490  11.4251990 117.0246020  33.1775650   8.2388760 119.4729940
  32.4509710   7.6194050 119.4055890  33.2384800   8.6329370 118.6028020
  36.7820750  10.4533760 116.2579350  37.2985770   9.8421120 115.7327610
  37.4318130  10.9562540 116.7490360  39.5216250  11.3442250 117.0848330
  39.8094060  11.0896550 116.2081340  40.0339470  10.7919610 117.6753900
  31.4605650  11.5563150 112.6826700  31.2927690  10.9233830 113.3808590
  30.5940160  11.7622550 112.3320890  33.0668350  10.2496380 110.1276840
  32.5415970  10.6304410 109.4238800  32.9912930  10.8747150 110.8486550
  39.5888610  12.2658350 124.4516530  40.5155920  12.0302620 124.4952490
  39.5739040  13.0930350 123.9702560  47.8233670  11.8083920 111.4490780
  47.9985860  11.1221660 110.8051700  47.1255240  12.3330970 111.0567450
  35.6661320  12.1978760 109.0026090  36.3980140  11.9138040 108.4549980
  35.9254990  11.9592040 109.8925470  34.8276110   8.3143490 109.0072420
  34.1984990   8.7828590 109.5558250  34.9423940   7.4692710 109.4418610
  46.1566170  11.4928210 124.2757570  46.9491490  10.9977440 124.0683530
  46.4499320  12.1718350 124.8833180  40.4143870   4.1428170  97.0382890
  39.6385970   3.6628610  97.3281460  41.0656800   3.4633820  96.8639050
  34.4309700   4.4547980  97.9158650  33.5994580   4.1996690  98.3155160
  35.0390680   4.5258750  98.6516570  44.4351300   8.5488360  95.8182020
  43.9732830   7.7775600  96.1469190  45.2476850   8.5754430  96.3234470
  34.4110960   8.4888070  98.1116670  34.7139000   7.5985810  97.9326890
  35.1554550   9.0458290  97.8838920  40.6614610  10.8346370  95.4386010
  40.0426050  11.2903870  94.8680450  41.5166390  10.9897830  95.0375710
  39.8552860   6.8185360  97.0453050  39.7861140   5.8775300  96.8842180
  40.6172720   6.9086770  97.6175620  41.5277960   5.7185610  92.8317920
  40.9095230   6.1835060  92.2680640  42.0401210   6.4113090  93.2487430
  36.3909720   5.2461480  99.5101520  36.0579100   5.8730400 100.1522590
  36.5676400   5.7723360  98.7303190  35.6028820   7.2142280 101.3250700
  36.2202820   7.8893360 101.0435150  34.7421940   7.6230260 101.2338200
  30.8961160   6.4042140  90.2057550  30.5189140   6.8929240  89.4742450
  31.1534230   7.0767420  90.8364080  46.5206410   8.6781690  99.2405340
  45.8369930   9.3480800  99.2322010  47.0600700   8.8762340  98.4750200
  44.0565150  10.5225820  97.9550520  44.0692310  10.1188110  97.0872780
  43.5040370  11.2973110  97.8511950  45.3510570   7.2442040  93.0440690
  45.2406900   6.3016370  93.1690110  45.3478820   7.6057680  93.9303450
  43.4550590   5.4255660  99.2833130  43.8719380   5.2115770  98.4486590
  44.1790410   5.6828450  99.8541750  40.8930850   2.8707360  92.4003180
  39.9660130   2.8044740  92.6291650  41.0455670   3.8087490  92.2858420
  47.4012690   3.8242880  99.3749370  46.5731320   3.8935970  98.8999500
  47.9963170   4.4097190  98.9065200  44.9228140   4.4327660  92.9038430
  44.3040560   4.0947210  92.2564730  44.9052590   3.7887420  93.6117620
  36.4987490   3.3972100  95.1822910  36.0944490   2.6849350  94.6868810
  36.5850610   3.0525340  96.0710950  36.9669190   7.0839660  97.3462120
  36.6697480   6.4785130  96.6669900  37.9169010   7.1216970  97.2351480
  45.0554800  10.6571530 101.0085220  44.5785360  11.4643720 100.8157830
  44.3716590  10.0049860 101.1611430  36.0587620   6.8221350 103.9969920
  35.1616150   7.0461320 104.2443320  36.0840490   6.9456290 103.0481320
  43.0992840   3.6714470  89.9111180  43.5386120   2.8336900  89.7649000
  43.8121260   4.3043870  89.9975320  34.8858840   3.6934670 102.5727290
  34.7466610   4.5657470 102.9414690  34.0040200   3.3507480 102.4275230
  41.2088220   8.6110540  93.8792420  41.6484130   9.3534870  93.4647810
  41.1475110   8.8537110  94.8031380  36.6839190   9.6356370 104.7812440
  36.6554620  10.0399320 103.9140870  36.5204160   8.7066730 104.6184040
  48.6354010  10.4183470 106.0776610  49.1113730  10.8966360 106.7565690
  49.2561170  10.3500960 105.3522110  30.8377490   5.4632220  98.4898200
  30.9157910   5.5980990  97.5453920  31.4519170   4.7548110  98.6826320
  32.0825120   7.1632410  94.9004380  31.6753200   7.3047000  94.0457980
  32.9738130   6.8792570  94.6975590  48.0387260   7.6096320 103.2376620
  48.1650320   7.3708200 102.3193800  48.0808640   6.7780860 103.7098700
  41.9004000  11.3124320 101.8071430  42.4148670  11.2232330 102.6093860
  41.0573080  11.6584020 102.0999340  43.8758400  11.5979660  91.2355430
  43.7159540  11.3082600  92.1337260  43.7105110  10.8219790  90.7000660
  36.3546780  11.3778190  93.0127050  36.1789260  10.4613730  92.7994850
  35.5002520  11.7365480  93.2524850  43.5784530   9.1067220  89.7953430
  42.8849690   9.1044510  89.1355710  44.3207390   8.6826540  89.3647600
  43.1434460  10.7329930  93.8701920  43.5991410   9.9519310  94.1840540
  43.4826980  11.4436750  94.4143100  30.8937010   6.5046390 101.0292660
  31.0568050   6.0351750 100.2112030  31.3589460   5.9969950 101.6941500
  32.4675990   5.8797820 103.1888470  32.0830780   5.2391490 103.7871430
  32.7788180   6.5833940 103.7583200  38.6173130   2.7274360  98.6697090
  38.9843260   2.2532930  99.4158430  38.4278190   3.6015930  99.0105430
  36.4072500   1.7683000 100.9881300  36.1029570   2.6474980 101.2131660
  37.3618960   1.8282790 101.0238740  34.9354290   5.9743990  91.5848150
  34.1616550   5.4341610  91.4246870  35.6648920   5.4550600  91.2465910
  45.6942270   4.9709350  97.3774540  46.4141390   5.4664640  96.9870650
  45.4924090   4.2927240  96.7328410  41.0761070   5.0418410 103.2643540
  41.0098380   4.1214080 103.0101130  40.4466210   5.1393850 103.9788180
  34.9791690   5.6424370  95.2226960  35.4970360   4.8392630  95.1683850
  34.5275710   5.5803510  96.0643790  39.8661190   6.9090650  90.4954260
  40.2076890   7.6532880  89.9997580  39.0373900   7.2221770  90.8579090
  32.4636230   2.6085740 102.1352660  32.1051170   3.2739590 102.7226000
  32.1690790   1.7769290 102.5065280  35.6649350   3.0669980 105.0192210
  35.3649490   3.2127160 104.1220030  36.4360590   2.5075270 104.9265600
  41.0077800   7.8638980 103.0147340  41.0222340   6.9319940 102.7966250
  40.3002900   7.9498740 103.6537110  46.1414870   2.0478800  89.2845950
  46.0578590   2.4793020  88.4342390  46.8609060   2.5077150  89.7172770
  47.2189010   4.5046320 102.3615920  46.4937200   5.0975100 102.1645310
  47.7464470   4.4969860 101.5629290  47.1702120   8.9021060  92.0128080
  46.5278280   8.2476680  92.2871800  46.7832780   9.3076150  91.2368750
  42.7488600   6.2306490  95.8599770  43.1012420   5.6334620  95.2001140
  41.8650930   5.9050720  96.0308020  38.8351880   6.9904180  93.2670180
  39.5223010   7.5373390  93.6477770  38.0484300   7.5344910  93.3019790
  30.9744280   2.6077000  88.7587260  31.8439130   2.8901800  89.0423180
  30.4834600   3.4212870  88.6436070  38.1379090   3.9950210  92.8795540
  38.5941870   4.8055460  93.1055730  37.7867300   3.6773350  93.7114030
  40.4411700   9.5056550 100.1087840  41.0853920   9.7115930 100.7861260
  40.8041140   8.7444950  99.6558690  41.7143780   7.5088900  98.8265290
  42.3566010   6.8082060  98.9397460  42.2393130   8.2887340  98.6462180
  45.5599500   7.7937520  88.5504430  45.3337080   7.0767960  89.1429070
  45.1695700   7.5449960  87.7126180  43.4881400   8.3083800 102.0301350
  43.8237640   8.8950490 102.7079270  42.5681740   8.1776510 102.2599140
  31.3415530  11.8204380  89.3248890  31.7013170  12.4193720  88.6706160
  31.2007870  12.3664270  90.0983920  45.1415750   5.7109460  90.2118590
  44.8537450   6.1722150  90.9996470  45.9367920   5.2507230  90.4802810
  31.3257390  10.0859240 103.7991290  31.4348510   9.1453980 103.6586680
  30.6737950  10.3513990 103.1505020  39.3169980   8.3575130 105.1989410
  38.9966850   7.6384370 105.7435100  38.6428340   9.0330200 105.2725470
  37.3584150   9.2035580  90.1422560  37.3494250   9.9365270  89.5267070
  36.4382510   8.9567160  90.2349520  32.9590790   4.4250470  90.8869320
  32.3518740   5.1649370  90.8964620  33.4340140   4.5149830  90.0607520
  40.3443750   9.2663820  88.8047750  40.4455730   9.0627810  87.8749730
  39.4445490   9.0122100  89.0095530  38.9861860  11.7850140  93.4995420
  39.2403360  11.7471530  92.5774790  38.0374340  11.6583470  93.4923670
  44.9914440   2.7042020  95.0753930  44.0504580   2.7192250  95.2501620
  45.3058510   1.9177980  95.5214230  34.9696080   4.3861620  88.6357890
  35.7359350   4.2742980  89.1983320  35.0470770   3.6899590  87.9834660
  46.9940020   9.8750870  96.7508190  47.1187440  10.6982040  97.2232000
  47.8605580   9.6641600  96.4032340  34.4657550  11.9682080  96.4225320
  35.2020030  11.4197540  96.6933890  34.8498470  12.8338090  96.2831310
  31.3503030   8.0355650  92.2966830  30.4242810   8.2776790  92.2872240
  31.8159460   8.8629910  92.1751580  33.4715830  11.1528150 105.6110900
  34.2728560  11.4740200 106.0246300  32.9567650  10.7923730 106.3330810
  37.5759860  11.1412390  88.2450890  38.3688470  11.4301220  87.7932680
  37.0564210  10.7104560  87.5663370  42.3080460   7.2608020 105.5586310
  41.7018620   7.2839620 104.8182060  42.0034570   6.5291060 106.0953560
  43.7380830  10.9888310 104.1695720  44.6902580  10.9046330 104.1195960
  43.5909050  11.6530020 104.8429510  46.6290030  10.3682520  89.6687630
  46.3431540   9.9547660  88.8541810  46.4309580  11.2970230  89.5488150
  31.1913640   3.6401610 104.5546950  31.6952660   3.0608890 105.1263180
  30.4521060   3.9241840 105.0923320  38.0937260   6.3615800  88.1093240
  37.9887900   5.7468150  88.8354620  37.9261480   5.8381690  87.3256250
  38.2451580   5.0472600 104.0882470  37.4797250   5.6157600 104.0037140
  38.4267540   4.7548810 103.1950700  41.3339990   5.4235830  88.7135230
  40.7850090   5.8705130  89.3577970  41.9559250   4.9185080  89.2372900
  45.3874930   6.7777930 104.6457490  46.1284400   7.1153690 104.1424950
  44.6247610   6.9469990 104.0927260  37.0015110   4.3826750  90.6100530
  37.4231530   4.2166620  91.4531920  37.1265950   3.5726980  90.1155670
  39.5142750   3.4064360  87.8577630  40.0348410   2.6913380  87.4918780
  40.1611150   4.0450230  88.1578140  44.0620590   4.8292760 103.1812700
  44.4761610   4.9837840 104.0303120  43.1271590   4.9547980 103.3438480
  38.8235820   4.7813240 101.1508630  39.2423930   5.6245970 100.9784870
  37.9044450   4.9185280 100.9215410  41.1599720   2.5129420 102.5346470
  41.2795930   1.9170560 103.2741310  42.0193720   2.5499110 102.1147770
  43.4987620   3.0666610 101.1108980  42.9722840   3.5909230 100.5074120
  43.8418960   3.6994000 101.7418710  36.6743240  11.0866250 102.2666360
  36.1364330  11.8112310 101.9475060  36.9277200  10.6096590 101.4763700
  39.5305450  12.3217460 102.5253010  39.4564150  13.2252600 102.8325380
  38.6284290  12.0029360 102.4975080  40.0790780  11.4875970  90.1479370
  40.9741570  11.8260940  90.1698130  40.1108410  10.7655380  89.5203650
  33.7186940   6.8603020  88.3766370  34.1561810   7.4032690  89.0323950
  34.2034670   6.0349970  88.3862710  30.9332740   9.6492050  95.8286630
  31.2635750   8.7813110  95.5965270  31.3623740   9.8550570  96.6591590
  35.5294660   7.9801060  93.4888600  35.2290200   7.8566030  94.3892510
  35.4232150   7.1209650  93.0804330  31.4222950  10.5162640  98.5668260
  30.9853940  10.6963440  99.3992410  31.9900630  11.2737260  98.4249980
  47.0585130  10.0179640 102.8545570  46.4587120  10.0772200 102.1109490
  47.1879030   9.0784620 102.9842420  48.2986580   7.7597460  88.1915280
  47.4679540   7.8274110  88.6622510  48.4758410   8.6501580  87.8882140
  47.7543040   4.5044940  90.6949480  48.5161950   5.0741590  90.8009170
  47.7697410   3.9372140  91.4657790  31.2547380   3.0282870  94.9257140
  30.5996220   2.7594510  94.2816840  32.0925330   2.9187350  94.4759120
  48.7603010   5.3595040  95.5391410  49.1311840   4.5762360  95.1327380
  49.4004940   6.0484140  95.3608710  45.7436770   6.7431620 100.9521730
  44.9296610   7.1728780 101.2147520  46.1510970   7.3550030 100.3390780
  47.8062210   4.7979310  87.8522000  48.0811050   5.7058190  87.7241220
  47.6172950   4.7341840  88.7883990  47.7027550   2.7348300  92.8451430
  47.3271150   1.9676230  92.4132720  46.9730670   3.1171000  93.3326360
  32.2923310   3.4135440  99.4660480  32.6596350   3.3262840 100.3456500
  31.7234130   2.6501990  99.3667340  47.0927170   1.8819820 102.4790950
  46.8613260   1.6532570 101.5788900  47.3531720   2.8019370 102.4335840
  45.8012820  11.4950220  94.4790000  46.3971890  11.1734790  93.8024420
  46.0590970  11.0222040  95.2703270  33.7075390   7.9268130 104.6280630
  33.6645020   7.5561040 105.5095090  33.8386400   8.8645700 104.7682450
  37.4081420   9.4827720 100.2290350  37.1672780   9.7502280  99.3420870
  38.3484060   9.6533450 100.2841210  48.6685580  11.5022100 101.0300990
  48.1743860  11.8990970 100.3128120  48.0598870  10.8771310 101.4238270
  33.5463420  10.8730380 101.7478410  32.9523740  10.7415080 102.4868450
  33.5387260  10.0368520 101.2820510  46.3525030  12.1445520  98.3087730
  45.8928000  12.8961330  97.9345750  45.7237490  11.4251990  98.2502530
  33.1775650   8.2388760 100.6986450  32.4509710   7.6194050 100.6312400
  33.2384800   8.6329370  99.8284530  36.7820750  10.4533760  97.4835860
  37.2985770   9.8421120  96.9584120  37.4318130  10.9562540  97.9746870
  39.5216250  11.3442250  98.3104840  39.8094060  11.0896550  97.4337850
  40.0339470  10.7919610  98.9010410  31.4605650  11.5563150  93.9083210
  31.2927690  10.9233830  94.6065100  30.5940160  11.7622550  93.5577400
  33.0668350  10.2496380  91.3533350  32.5415970  10.6304410  90.6495310
  32.9912930  10.8747150  92.0743060  39.5888610  12.2658350 105.6773040
  40.5155920  12.0302620 105.7209000  39.5739040  13.0930350 105.1959070
  47.8233670  11.8083920  92.6747290  47.9985860  11.1221660  92.0308210
  47.1255240  12.3330970  92.2823960  35.6661320  12.1978760  90.2282600
  36.3980140  11.9138040  89.6806490  35.9254990  11.9592040  91.1181980
  34.8276110   8.3143490  90.2328930  34.1984990   8.7828590  90.7814760
  34.9423940   7.4692710  90.6675120  46.1566170  11.4928210 105.5014080
  46.9491490  10.9977440 105.2940040  46.4499320  12.1718350 106.1089690
  40.4143870   4.1428170  78.2639400  39.6385970   3.6628610  78.5537970
  41.0656800   3.4633820  78.0895560  34.4309700   4.4547980  79.1415160
  33.5994580   4.1996690  79.5411670  35.0390680   4.5258750  79.8773080
  44.4351300   8.5488360  77.0438530  43.9732830   7.7775600  77.3725700
  45.2476850   8.5754430  77.5490980  34.4110960   8.4888070  79.3373180
  34.7139000   7.5985810  79.1583400  35.1554550   9.0458290  79.1095430
  40.6614610  10.8346370  76.6642520  40.0426050  11.2903870  76.0936960
  41.5166390  10.9897830  76.2632220  39.8552860   6.8185360  78.2709560
  39.7861140   5.8775300  78.1098690  40.6172720   6.9086770  78.8432130
  41.5277960   5.7185610  74.0574430  40.9095230   6.1835060  73.4937150
  42.0401210   6.4113090  74.4743940  36.3909720   5.2461480  80.7358030
  36.0579100   5.8730400  81.3779100  36.5676400   5.7723360  79.9559700
  35.6028820   7.2142280  82.5507210  36.2202820   7.8893360  82.2691660
  34.7421940   7.6230260  82.4594710  30.8961160   6.4042140  71.4314060
  30.5189140   6.8929240  70.6998960  31.1534230   7.0767420  72.0620590
  46.5206410   8.6781690  80.4661850  45.8369930   9.3480800  80.4578520
  47.0600700   8.8762340  79.7006710  44.0565150  10.5225820  79.1807030
  44.0692310  10.1188110  78.3129290  43.5040370  11.2973110  79.0768460
  45.3510570   7.2442040  74.2697200  45.2406900   6.3016370  74.3946620
  45.3478820   7.6057680  75.1559960  43.4550590   5.4255660  80.5089640
  43.8719380   5.2115770  79.6743100  44.1790410   5.6828450  81.0798260
  40.8930850   2.8707360  73.6259690  39.9660130   2.8044740  73.8548160
  41.0455670   3.8087490  73.5114930  47.4012690   3.8242880  80.6005880
  46.5731320   3.8935970  80.1256010  47.9963170   4.4097190  80.1321710
  44.9228140   4.4327660  74.1294940  44.3040560   4.0947210  73.4821240
  44.9052590   3.7887420  74.8374130  36.4987490   3.3972100  76.4079420
  36.0944490   2.6849350  75.9125320  36.5850610   3.0525340  77.2967460
  36.9669190   7.0839660  78.5718630  36.6697480   6.4785130  77.8926410
  37.9169010   7.1216970  78.4607990  45.0554800  10.6571530  82.2341730
  44.5785360  11.4643720  82.0414340  44.3716590  10.0049860  82.3867940
  36.0587620   6.8221350  85.2226430  35.1616150   7.0461320  85.4699830
  36.0840490   6.9456290  84.2737830  43.0992840   3.6714470  71.1367690
  43.5386120   2.8336900  70.9905510  43.8121260   4.3043870  71.2231830
  34.8858840   3.6934670  83.7983800  34.7466610   4.5657470  84.1671200
  34.0040200   3.3507480  83.6531740  41.2088220   8.6110540  75.1048930
  41.6484130   9.3534870  74.6904320  41.1475110   8.8537110  76.0287890
  36.6839190   9.6356370  86.0068950  36.6554620  10.0399320  85.1397380
  36.5204160   8.7066730  85.8440550  48.6354010  10.4183470  87.3033120
  49.1113730  10.8966360  87.9822200  49.2561170  10.3500960  86.5778620
  30.8377490   5.4632220  79.7154710  30.9157910   5.5980990  78.7710430
  31.4519170   4.7548110  79.9082830  32.0825120   7.1632410  76.1260890
  31.6753200   7.3047000  75.2714490  32.9738130   6.8792570  75.9232100
  48.0387260   7.6096320  84.4633130  48.1650320   7.3708200  83.5450310
  48.0808640   6.7780860  84.9355210  41.9004000  11.3124320  83.0327940
  42.4148670  11.2232330  83.8350370  41.0573080  11.6584020  83.3255850
  43.8758400  11.5979660  72.4611940  43.7159540  11.3082600  73.3593770
  43.7105110  10.8219790  71.9257170  36.3546780  11.3778190  74.2383560
  36.1789260  10.4613730  74.0251360  35.5002520  11.7365480  74.4781360
  43.5784530   9.1067220  71.0209940  42.8849690   9.1044510  70.3612220
  44.3207390   8.6826540  70.5904110  43.1434460  10.7329930  75.0958430
  43.5991410   9.9519310  75.4097050  43.4826980  11.4436750  75.6399610
  30.8937010   6.5046390  82.2549170  31.0568050   6.0351750  81.4368540
  31.3589460   5.9969950  82.9198010  32.4675990   5.8797820  84.4144980
  32.0830780   5.2391490  85.0127940  32.7788180   6.5833940  84.9839710
  38.6173130   2.7274360  79.8953600  38.9843260   2.2532930  80.6414940
  38.4278190   3.6015930  80.2361940  36.4072500   1.7683000  82.2137810
  36.1029570   2.6474980  82.4388170  37.3618960   1.8282790  82.2495250
  34.9354290   5.9743990  72.8104660  34.1616550   5.4341610  72.6503380
  35.6648920   5.4550600  72.4722420  45.6942270   4.9709350  78.6031050
  46.4141390   5.4664640  78.2127160  45.4924090   4.2927240  77.9584920
  41.0761070   5.0418410  84.4900050  41.0098380   4.1214080  84.2357640
  40.4466210   5.1393850  85.2044690  34.9791690   5.6424370  76.4483470
  35.4970360   4.8392630  76.3940360  34.5275710   5.5803510  77.2900300
  39.8661190   6.9090650  71.7210770  40.2076890   7.6532880  71.2254090
  39.0373900   7.2221770  72.0835600  32.4636230   2.6085740  83.3609170
  32.1051170   3.2739590  83.9482510  32.1690790   1.7769290  83.7321790
  35.6649350   3.0669980  86.2448720  35.3649490   3.2127160  85.3476540
  36.4360590   2.5075270  86.1522110  41.0077800   7.8638980  84.2403850
  41.0222340   6.9319940  84.0222760  40.3002900   7.9498740  84.8793620
  46.1414870   2.0478800  70.5102460  46.0578590   2.4793020  69.6598900
  46.8609060   2.5077150  70.9429280  47.2189010   4.5046320  83.5872430
  46.4937200   5.0975100  83.3901820  47.7464470   4.4969860  82.7885800
  47.1702120   8.9021060  73.2384590  46.5278280   8.2476680  73.5128310
  46.7832780   9.3076150  72.4625260  42.7488600   6.2306490  77.0856280
  43.1012420   5.6334620  76.4257650  41.8650930   5.9050720  77.2564530
  38.8351880   6.9904180  74.4926690  39.5223010   7.5373390  74.8734280
  38.0484300   7.5344910  74.5276300  30.9744280   2.6077000  69.9843770
  31.8439130   2.8901800  70.2679690  30.4834600   3.4212870  69.8692580
  38.1379090   3.9950210  74.1052050  38.5941870   4.8055460  74.3312240
  37.7867300   3.6773350  74.9370540  40.4411700   9.5056550  81.3344350
  41.0853920   9.7115930  82.0117770  40.8041140   8.7444950  80.8815200
  41.7143780   7.5088900  80.0521800  42.3566010   6.8082060  80.1653970
  42.2393130   8.2887340  79.8718690  45.5599500   7.7937520  69.7760940
  45.3337080   7.0767960  70.3685580  45.1695700   7.5449960  68.9382690
  43.4881400   8.3083800  83.2557860  43.8237640   8.8950490  83.9335780
  42.5681740   8.1776510  83.4855650  31.3415530  11.8204380  70.5505400
  31.7013170  12.4193720  69.8962670  31.2007870  12.3664270  71.3240430
  45.1415750   5.7109460  71.4375100  44.8537450   6.1722150  72.2252980
  45.9367920   5.2507230  71.7059320  31.3257390  10.0859240  85.0247800
  31.4348510   9.1453980  84.8843190  30.6737950  10.3513990  84.3761530
  39.3169980   8.3575130  86.4245920  38.9966850   7.6384370  86.9691610
  38.6428340   9.0330200  86.4981980  37.3584150   9.2035580  71.3679070
  37.3494250   9.9365270  70.7523580  36.4382510   8.9567160  71.4606030
  32.9590790   4.4250470  72.1125830  32.3518740   5.1649370  72.1221130
  33.4340140   4.5149830  71.2864030  40.3443750   9.2663820  70.0304260
  40.4455730   9.0627810  69.1006240  39.4445490   9.0122100  70.2352040
  38.9861860  11.7850140  74.7251930  39.2403360  11.7471530  73.8031300
  38.0374340  11.6583470  74.7180180  44.9914440   2.7042020  76.3010440
  44.0504580   2.7192250  76.4758130  45.3058510   1.9177980  76.7470740
  34.9696080   4.3861620  69.8614400  35.7359350   4.2742980  70.4239830
  35.0470770   3.6899590  69.2091170  46.9940020   9.8750870  77.9764700
  47.1187440  10.6982040  78.4488510  47.8605580   9.6641600  77.6288850
  34.4657550  11.9682080  77.6481830  35.2020030  11.4197540  77.9190400
  34.8498470  12.8338090  77.5087820  31.3503030   8.0355650  73.5223340
  30.4242810   8.2776790  73.5128750  31.8159460   8.8629910  73.4008090
  33.4715830  11.1528150  86.8367410  34.2728560  11.4740200  87.2502810
  32.9567650  10.7923730  87.5587320  37.5759860  11.1412390  69.4707400
  38.3688470  11.4301220  69.0189190  37.0564210  10.7104560  68.7919880
  42.3080460   7.2608020  86.7842820  41.7018620   7.2839620  86.0438570
  42.0034570   6.5291060  87.3210070  43.7380830  10.9888310  85.3952230
  44.6902580  10.9046330  85.3452470  43.5909050  11.6530020  86.0686020
  46.6290030  10.3682520  70.8944140  46.3431540   9.9547660  70.0798320
  46.4309580  11.2970230  70.7744660  31.1913640   3.6401610  85.7803460
  31.6952660   3.0608890  86.3519690  30.4521060   3.9241840  86.3179830
  38.0937260   6.3615800  69.3349750  37.9887900   5.7468150  70.0611130
  37.9261480   5.8381690  68.5512760  38.2451580   5.0472600  85.3138980
  37.4797250   5.6157600  85.2293650  38.4267540   4.7548810  84.4207210
  41.3339990   5.4235830  69.9391740  40.7850090   5.8705130  70.5834480
  41.9559250   4.9185080  70.4629410  45.3874930   6.7777930  85.8714000
  46.1284400   7.1153690  85.3681460  44.6247610   6.9469990  85.3183770
  37.0015110   4.3826750  71.8357040  37.4231530   4.2166620  72.6788430
  37.1265950   3.5726980  71.3412180  39.5142750   3.4064360  69.0834140
  40.0348410   2.6913380  68.7175290  40.1611150   4.0450230  69.3834650
  44.0620590   4.8292760  84.4069210  44.4761610   4.9837840  85.2559630
  43.1271590   4.9547980  84.5694990  38.8235820   4.7813240  82.3765140
  39.2423930   5.6245970  82.2041380  37.9044450   4.9185280  82.1471920
  41.1599720   2.5129420  83.7602980  41.2795930   1.9170560  84.4997820
  42.0193720   2.5499110  83.3404280  43.4987620   3.0666610  82.3365490
  42.9722840   3.5909230  81.7330630  43.8418960   3.6994000  82.9675220
  36.6743240  11.0866250  83.4922870  36.1364330  11.8112310  83.1731570
  36.9277200  10.6096590  82.7020210  39.5305450  12.3217460  83.7509520
  39.4564150  13.2252600  84.0581890  38.6284290  12.0029360  83.7231590
  40.0790780  11.4875970  71.3735880  40.9741570  11.8260940  71.3954640
  40.1108410  10.7655380  70.7460160  33.7186940   6.8603020  69.6022880
  34.1561810   7.4032690  70.2580460  34.2034670   6.0349970  69.6119220
  30.9332740   9.6492050  77.0543140  31.2635750   8.7813110  76.8221780
  31.3623740   9.8550570  77.8848100  35.5294660   7.9801060  74.7145110
  35.2290200   7.8566030  75.6149020  35.4232150   7.1209650  74.3060840
  31.4222950  10.5162640  79.7924770  30.9853940  10.6963440  80.6248920
  31.9900630  11.2737260  79.6506490  47.0585130  10.0179640  84.0802080
  46.4587120  10.0772200  83.3366000  47.1879030   9.0784620  84.2098930
  48.2986580   7.7597460  69.4171790  47.4679540   7.8274110  69.8879020
  48.4758410   8.6501580  69.1138650  47.7543040   4.5044940  71.9205990
  48.5161950   5.0741590  72.0265680  47.7697410   3.9372140  72.6914300
  31.2547380   3.0282870  76.1513650  30.5996220   2.7594510  75.5073350
  32.0925330   2.9187350  75.7015630  48.7603010   5.3595040  76.7647920
  49.1311840   4.5762360  76.3583890  49.4004940   6.0484140  76.5865220
  45.7436770   6.7431620  82.1778240  44.9296610   7.1728780  82.4404030
  46.1510970   7.3550030  81.5647290  47.8062210   4.7979310  69.0778510
  48.0811050   5.7058190  68.9497730  47.6172950   4.7341840  70.0140500
  47.7027550   2.7348300  74.0707940  47.3271150   1.9676230  73.6389230
  46.9730670   3.1171000  74.5582870  32.2923310   3.4135440  80.6916990
  32.6596350   3.3262840  81.5713010  31.7234130   2.6501990  80.5923850
  47.0927170   1.8819820  83.7047460  46.8613260   1.6532570  82.8045410
  47.3531720   2.8019370  83.6592350  45.8012820  11.4950220  75.7046510
  46.3971890  11.1734790  75.0280930  46.0590970  11.0222040  76.4959780
  33.7075390   7.9268130  85.8537140  33.6645020   7.5561040  86.7351600
  33.8386400   8.8645700  85.9938960  37.4081420   9.4827720  81.4546860
  37.1672780   9.7502280  80.5677380  38.3484060   9.6533450  81.5097720
  48.6685580  11.5022100  82.2557500  48.1743860  11.8990970  81.5384630
  48.0598870  10.8771310  82.6494780  33.5463420  10.8730380  82.9734920
  32.9523740  10.7415080  83.7124960  33.5387260  10.0368520  82.5077020
  46.3525030  12.1445520  79.5344240  45.8928000  12.8961330  79.1602260
  45.7237490  11.4251990  79.4759040  33.1775650   8.2388760  81.9242960
  32.4509710   7.6194050  81.8568910  33.2384800   8.6329370  81.0541040
  36.7820750  10.4533760  78.7092370  37.2985770   9.8421120  78.1840630
  37.4318130  10.9562540  79.2003380  39.5216250  11.3442250  79.5361350
  39.8094060  11.0896550  78.6594360  40.0339470  10.7919610  80.1266920
  31.4605650  11.5563150  75.1339720  31.2927690  10.9233830  75.8321610
  30.5940160  11.7622550  74.7833910  33.0668350  10.2496380  72.5789860
  32.5415970  10.6304410  71.8751820  32.9912930  10.8747150  73.2999570
  39.5888610  12.2658350  86.9029550  40.5155920  12.0302620  86.9465510
  39.5739040  13.0930350  86.4215580  47.8233670  11.8083920  73.9003800
  47.9985860  11.1221660  73.2564720  47.1255240  12.3330970  73.5080470
  35.6661320  12.1978760  71.4539110  36.3980140  11.9138040  70.9063000
  35.9254990  11.9592040  72.3438490  34.8276110   8.3143490  71.4585440
  34.1984990   8.7828590  72.0071270  34.9423940   7.4692710  71.8931630
  46.1566170  11.4928210  86.7270590  46.9491490  10.9977440  86.5196550
  46.4499320  12.1718350  87.3346200  40.4143870   4.1428170  59.4895910
  39.6385970   3.6628610  59.7794480  41.0656800   3.4633820  59.3152070
  34.4309700   4.4547980  60.3671670  33.5994580   4.1996690  60.7668180
  35.0390680   4.5258750  61.1029590  44.4351300   8.5488360  58.2695040
  43.9732830   7.7775600  58.5982210  45.2476850   8.5754430  58.7747490
  34.4110960   8.4888070  60.5629690  34.7139000   7.5985810  60.3839910
  35.1554550   9.0458290  60.3351940  40.6614610  10.8346370  57.8899030
  40.0426050  11.2903870  57.3193470  41.5166390  10.9897830  57.4888730
  39.8552860   6.8185360  59.4966070  39.7861140   5.8775300  59.3355200
  40.6172720   6.9086770  60.0688640  41.5277960   5.7185610  55.2830940
  40.9095230   6.1835060  54.7193660  42.0401210   6.4113090  55.7000450
  36.3909720   5.2461480  61.9614540  36.0579100   5.8730400  62.6035610
  36.5676400   5.7723360  61.1816210  35.6028820   7.2142280  63.7763720
  36.2202820   7.8893360  63.4948170  34.7421940   7.6230260  63.6851220
  30.8961160   6.4042140  52.6570570  30.5189140   6.8929240  51.9255470
  31.1534230   7.0767420  53.2877100  46.5206410   8.6781690  61.6918360
  45.8369930   9.3480800  61.6835030  47.0600700   8.8762340  60.9263220
  44.0565150  10.5225820  60.4063540  44.0692310  10.1188110  59.5385800
  43.5040370  11.2973110  60.3024970  45.3510570   7.2442040  55.4953710
  45.2406900   6.3016370  55.6203130  45.3478820   7.6057680  56.3816470
  43.4550590   5.4255660  61.7346150  43.8719380   5.2115770  60.8999610
  44.1790410   5.6828450  62.3054770  40.8930850   2.8707360  54.8516200
  39.9660130   2.8044740  55.0804670  41.0455670   3.8087490  54.7371440
  47.4012690   3.8242880  61.8262390  46.5731320   3.8935970  61.3512520
  47.9963170   4.4097190  61.3578220  44.9228140   4.4327660  55.3551450
  44.3040560   4.0947210  54.7077750  44.9052590   3.7887420  56.0630640
  36.4987490   3.3972100  57.6335930  36.0944490   2.6849350  57.1381830
  36.5850610   3.0525340  58.5223970  36.9669190   7.0839660  59.7975140
  36.6697480   6.4785130  59.1182920  37.9169010   7.1216970  59.6864500
  45.0554800  10.6571530  63.4598240  44.5785360  11.4643720  63.2670850
  44.3716590  10.0049860  63.6124450  36.0587620   6.8221350  66.4482940
  35.1616150   7.0461320  66.6956340  36.0840490   6.9456290  65.4994340
  43.0992840   3.6714470  52.3624200  43.5386120   2.8336900  52.2162020
  43.8121260   4.3043870  52.4488340  34.8858840   3.6934670  65.0240310
  34.7466610   4.5657470  65.3927710  34.0040200   3.3507480  64.8788250
  41.2088220   8.6110540  56.3305440  41.6484130   9.3534870  55.9160830
  41.1475110   8.8537110  57.2544400  36.6839190   9.6356370  67.2325460
  36.6554620  10.0399320  66.3653890  36.5204160   8.7066730  67.0697060
  48.6354010  10.4183470  68.5289630  49.1113730  10.8966360  69.2078710
  49.2561170  10.3500960  67.8035130  30.8377490   5.4632220  60.9411220
  30.9157910   5.5980990  59.9966940  31.4519170   4.7548110  61.1339340
  32.0825120   7.1632410  57.3517400  31.6753200   7.3047000  56.4971000
  32.9738130   6.8792570  57.1488610  48.0387260   7.6096320  65.6889640
  48.1650320   7.3708200  64.7706820  48.0808640   6.7780860  66.1611720
  41.9004000  11.3124320  64.2584450  42.4148670  11.2232330  65.0606880
  41.0573080  11.6584020  64.5512360  43.8758400  11.5979660  53.6868450
  43.7159540  11.3082600  54.5850280  43.7105110  10.8219790  53.1513680
  36.3546780  11.3778190  55.4640070  36.1789260  10.4613730  55.2507870
  35.5002520  11.7365480  55.7037870  43.5784530   9.1067220  52.2466450
  42.8849690   9.1044510  51.5868730  44.3207390   8.6826540  51.8160620
  43.1434460  10.7329930  56.3214940  43.5991410   9.9519310  56.6353560
  43.4826980  11.4436750  56.8656120  30.8937010   6.5046390  63.4805680
  31.0568050   6.0351750  62.6625050  31.3589460   5.9969950  64.1454520
  32.4675990   5.8797820  65.6401490  32.0830780   5.2391490  66.2384450
  32.7788180   6.5833940  66.2096220  38.6173130   2.7274360  61.1210110
  38.9843260   2.2532930  61.8671450  38.4278190   3.6015930  61.4618450
  36.4072500   1.7683000  63.4394320  36.1029570   2.6474980  63.6644680
  37.3618960   1.8282790  63.4751760  34.9354290   5.9743990  54.0361170
  34.1616550   5.4341610  53.8759890  35.6648920   5.4550600  53.6978930
  45.6942270   4.9709350  59.8287560  46.4141390   5.4664640  59.4383670
  45.4924090   4.2927240  59.1841430  41.0761070   5.0418410  65.7156560
  41.0098380   4.1214080  65.4614150  40.4466210   5.1393850  66.4301200
  34.9791690   5.6424370  57.6739980  35.4970360   4.8392630  57.6196870
  34.5275710   5.5803510  58.5156810  39.8661190   6.9090650  52.9467280
  40.2076890   7.6532880  52.4510600  39.0373900   7.2221770  53.3092110
  32.4636230   2.6085740  64.5865680  32.1051170   3.2739590  65.1739020
  32.1690790   1.7769290  64.9578300  35.6649350   3.0669980  67.4705230
  35.3649490   3.2127160  66.5733050  36.4360590   2.5075270  67.3778620
  41.0077800   7.8638980  65.4660360  41.0222340   6.9319940  65.2479270
  40.3002900   7.9498740  66.1050130  46.1414870   2.0478800  51.7358970
  46.0578590   2.4793020  50.8855410  46.8609060   2.5077150  52.1685790
  47.2189010   4.5046320  64.8128940  46.4937200   5.0975100  64.6158330
  47.7464470   4.4969860  64.0142310  47.1702120   8.9021060  54.4641100
  46.5278280   8.2476680  54.7384820  46.7832780   9.3076150  53.6881770
  42.7488600   6.2306490  58.3112790  43.1012420   5.6334620  57.6514160
  41.8650930   5.9050720  58.4821040  38.8351880   6.9904180  55.7183200
  39.5223010   7.5373390  56.0990790  38.0484300   7.5344910  55.7532810
  30.9744280   2.6077000  51.2100280  31.8439130   2.8901800  51.4936200
  30.4834600   3.4212870  51.0949090  38.1379090   3.9950210  55.3308560
  38.5941870   4.8055460  55.5568750  37.7867300   3.6773350  56.1627050
  40.4411700   9.5056550  62.5600860  41.0853920   9.7115930  63.2374280
  40.8041140   8.7444950  62.1071710  41.7143780   7.5088900  61.2778310
  42.3566010   6.8082060  61.3910480  42.2393130   8.2887340  61.0975200
  45.5599500   7.7937520  51.0017450  45.3337080   7.0767960  51.5942090
  45.1695700   7.5449960  50.1639200  43.4881400   8.3083800  64.4814370
  43.8237640   8.8950490  65.1592290  42.5681740   8.1776510  64.7112160
  31.3415530  11.8204380  51.7761910  31.7013170  12.4193720  51.1219180
  31.2007870  12.3664270  52.5496940  45.1415750   5.7109460  52.6631610
  44.8537450   6.1722150  53.4509490  45.9367920   5.2507230  52.9315830
  31.3257390  10.0859240  66.2504310  31.4348510   9.1453980  66.1099700
  30.6737950  10.3513990  65.6018040  39.3169980   8.3575130  67.6502430
  38.9966850   7.6384370  68.1948120  38.6428340   9.0330200  67.7238490
  37.3584150   9.2035580  52.5935580  37.3494250   9.9365270  51.9780090
  36.4382510   8.9567160  52.6862540  32.9590790   4.4250470  53.3382340
  32.3518740   5.1649370  53.3477640  33.4340140   4.5149830  52.5120540
  40.3443750   9.2663820  51.2560770  40.4455730   9.0627810  50.3262750
  39.4445490   9.0122100  51.4608550  38.9861860  11.7850140  55.9508440
  39.2403360  11.7471530  55.0287810  38.0374340  11.6583470  55.9436690
  44.9914440   2.7042020  57.5266950  44.0504580   2.7192250  57.7014640
  45.3058510   1.9177980  57.9727250  34.9696080   4.3861620  51.0870910
  35.7359350   4.2742980  51.6496340  35.0470770   3.6899590  50.4347680
  46.9940020   9.8750870  59.2021210  47.1187440  10.6982040  59.6745020
  47.8605580   9.6641600  58.8545360  34.4657550  11.9682080  58.8738340
  35.2020030  11.4197540  59.1446910  34.8498470  12.8338090  58.7344330
  31.3503030   8.0355650  54.7479850  30.4242810   8.2776790  54.7385260
  31.8159460   8.8629910  54.6264600  33.4715830  11.1528150  68.0623920
  34.2728560  11.4740200  68.4759320  32.9567650  10.7923730  68.7843830
  37.5759860  11.1412390  50.6963910  38.3688470  11.4301220  50.2445700
  37.0564210  10.7104560  50.0176390  42.3080460   7.2608020  68.0099330
  41.7018620   7.2839620  67.2695080  42.0034570   6.5291060  68.5466580
  43.7380830  10.9888310  66.6208740  44.6902580  10.9046330  66.5708980
  43.5909050  11.6530020  67.2942530  46.6290030  10.3682520  52.1200650
  46.3431540   9.9547660  51.3054830  46.4309580  11.2970230  52.0001170
  31.1913640   3.6401610  67.0059970  31.6952660   3.0608890  67.5776200
  30.4521060   3.9241840  67.5436340  38.0937260   6.3615800  50.5606260
  37.9887900   5.7468150  51.2867640  37.9261480   5.8381690  49.7769270
  38.2451580   5.0472600  66.5395490  37.4797250   5.6157600  66.4550160
  38.4267540   4.7548810  65.6463720  41.3339990   5.4235830  51.1648250
  40.7850090   5.8705130  51.8090990  41.9559250   4.9185080  51.6885920
  45.3874930   6.7777930  67.0970510  46.1284400   7.1153690  66.5937970
  44.6247610   6.9469990  66.5440280  37.0015110   4.3826750  53.0613550
  37.4231530   4.2166620  53.9044940  37.1265950   3.5726980  52.5668690
  39.5142750   3.4064360  50.3090650  40.0348410   2.6913380  49.9431800
  40.1611150   4.0450230  50.6091160  44.0620590   4.8292760  65.6325720
  44.4761610   4.9837840  66.4816140  43.1271590   4.9547980  65.7951500
  38.8235820   4.7813240  63.6021650  39.2423930   5.6245970  63.4297890
  37.9044450   4.9185280  63.3728430  41.1599720   2.5129420  64.9859490
  41.2795930   1.9170560  65.7254330  42.0193720   2.5499110  64.5660790
  43.4987620   3.0666610  63.5622000  42.9722840   3.5909230  62.9587140
  43.8418960   3.6994000  64.1931730  36.6743240  11.0866250  64.7179380
  36.1364330  11.8112310  64.3988080  36.9277200  10.6096590  63.9276720
  39.5305450  12.3217460  64.9766030  39.4564150  13.2252600  65.2838400
  38.6284290  12.0029360  64.9488100  40.0790780  11.4875970  52.5992390
  40.9741570  11.8260940  52.6211150  40.1108410  10.7655380  51.9716670
  33.7186940   6.8603020  50.8279390  34.1561810   7.4032690  51.4836970
  34.2034670   6.0349970  50.8375730  30.9332740   9.6492050  58.2799650
  31.2635750   8.7813110  58.0478290  31.3623740   9.8550570  59.1104610
  35.5294660   7.9801060  55.9401620  35.2290200   7.8566030  56.8405530
  35.4232150   7.1209650  55.5317350  31.4222950  10.5162640  61.0181280
  30.9853940  10.6963440  61.8505430  31.9900630  11.2737260  60.8763000
  47.0585130  10.0179640  65.3058590  46.4587120  10.0772200  64.5622510
  47.1879030   9.0784620  65.4355440  48.2986580   7.7597460  50.6428300
  47.4679540   7.8274110  51.1135530  48.4758410   8.6501580  50.3395160
  47.7543040   4.5044940  53.1462500  48.5161950   5.0741590  53.2522190
  47.7697410   3.9372140  53.9170810  31.2547380   3.0282870  57.3770160
  30.5996220   2.7594510  56.7329860  32.0925330   2.9187350  56.9272140
  48.7603010   5.3595040  57.9904430  49.1311840   4.5762360  57.5840400
  49.4004940   6.0484140  57.8121730  45.7436770   6.7431620  63.4034750
  44.9296610   7.1728780  63.6660540  46.1510970   7.3550030  62.7903800
  47.8062210   4.7979310  50.3035020  48.0811050   5.7058190  50.1754240
  47.6172950   4.7341840  51.2397010  47.7027550   2.7348300  55.2964450
  47.3271150   1.9676230  54.8645740  46.9730670   3.1171000  55.7839380
  32.2923310   3.4135440  61.9173500  32.6596350   3.3262840  62.7969520
  31.7234130   2.6501990  61.8180360  47.0927170   1.8819820  64.9303970
  46.8613260   1.6532570  64.0301920  47.3531720   2.8019370  64.8848860
  45.8012820  11.4950220  56.9303020  46.3971890  11.1734790  56.2537440
  46.0590970  11.0222040  57.7216290  33.7075390   7.9268130  67.0793650
  33.6645020   7.5561040  67.9608110  33.8386400   8.8645700  67.2195470
  37.4081420   9.4827720  62.6803370  37.1672780   9.7502280  61.7933890
  38.3484060   9.6533450  62.7354230  48.6685580  11.5022100  63.4814010
  48.1743860  11.8990970  62.7641140  48.0598870  10.8771310  63.8751290
  33.5463420  10.8730380  64.1991430  32.9523740  10.7415080  64.9381470
  33.5387260  10.0368520  63.7333530  46.3525030  12.1445520  60.7600750
  45.8928000  12.8961330  60.3858770  45.7237490  11.4251990  60.7015550
  33.1775650   8.2388760  63.1499470  32.4509710   7.6194050  63.0825420
  33.2384800   8.6329370  62.2797550  36.7820750  10.4533760  59.9348880
  37.2985770   9.8421120  59.4097140  37.4318130  10.9562540  60.4259890
  39.5216250  11.3442250  60.7617860  39.8094060  11.0896550  59.8850870
  40.0339470  10.7919610  61.3523430  31.4605650  11.5563150  56.3596230
  31.2927690  10.9233830  57.0578120  30.5940160  11.7622550  56.0090420
  33.0668350  10.2496380  53.8046370  32.5415970  10.6304410  53.1008330
  32.9912930  10.8747150  54.5256080  39.5888610  12.2658350  68.1286060
  40.5155920  12.0302620  68.1722020  39.5739040  13.0930350  67.6472090
  47.8233670  11.8083920  55.1260310  47.9985860  11.1221660  54.4821230
  47.1255240  12.3330970  54.7336980  35.6661320  12.1978760  52.6795620
  36.3980140  11.9138040  52.1319510  35.9254990  11.9592040  53.5695000
  34.8276110   8.3143490  52.6841950  34.1984990   8.7828590  53.2327780
  34.9423940   7.4692710  53.1188140  46.1566170  11.4928210  67.9527100
  46.9491490  10.9977440  67.7453060  46.4499320  12.1718350  68.5602710
  40.4143870   4.1428170  40.7152420  39.6385970   3.6628610  41.0050990
  41.0656800   3.4633820  40.5408580  34.4309700   4.4547980  41.5928180
  33.5994580   4.1996690  41.9924690  35.0390680   4.5258750  42.3286100
  44.4351300   8.5488360  39.4951550  43.9732830   7.7775600  39.8238720
  45.2476850   8.5754430  40.0004000  34.4110960   8.4888070  41.7886200
  34.7139000   7.5985810  41.6096420  35.1554550   9.0458290  41.5608450
  40.6614610  10.8346370  39.1155540  40.0426050  11.2903870  38.5449980
  41.5166390  10.9897830  38.7145240  39.8552860   6.8185360  40.7222580
  39.7861140   5.8775300  40.5611710  40.6172720   6.9086770  41.2945150
  41.5277960   5.7185610  36.5087450  40.9095230   6.1835060  35.9450170
  42.0401210   6.4113090  36.9256960  36.3909720   5.2461480  43.1871050
  36.0579100   5.8730400  43.8292120  36.5676400   5.7723360  42.4072720
  35.6028820   7.2142280  45.0020230  36.2202820   7.8893360  44.7204680
  34.7421940   7.6230260  44.9107730  30.8961160   6.4042140  33.8827080
  30.5189140   6.8929240  33.1511980  31.1534230   7.0767420  34.5133610
  46.5206410   8.6781690  42.9174870  45.8369930   9.3480800  42.9091540
  47.0600700   8.8762340  42.1519730  44.0565150  10.5225820  41.6320050
  44.0692310  10.1188110  40.7642310  43.5040370  11.2973110  41.5281480
  45.3510570   7.2442040  36.7210220  45.2406900   6.3016370  36.8459640
  45.3478820   7.6057680  37.6072980  43.4550590   5.4255660  42.9602660
  43.8719380   5.2115770  42.1256120  44.1790410   5.6828450  43.5311280
  40.8930850   2.8707360  36.0772710  39.9660130   2.8044740  36.3061180
  41.0455670   3.8087490  35.9627950  47.4012690   3.8242880  43.0518900
  46.5731320   3.8935970  42.5769030  47.9963170   4.4097190  42.5834730
  44.9228140   4.4327660  36.5807960  44.3040560   4.0947210  35.9334260
  44.9052590   3.7887420  37.2887150  36.4987490   3.3972100  38.8592440
  36.0944490   2.6849350  38.3638340  36.5850610   3.0525340  39.7480480
  36.9669190   7.0839660  41.0231650  36.6697480   6.4785130  40.3439430
  37.9169010   7.1216970  40.9121010  45.0554800  10.6571530  44.6854750
  44.5785360  11.4643720  44.4927360  44.3716590  10.0049860  44.8380960
  36.0587620   6.8221350  47.6739450  35.1616150   7.0461320  47.9212850
  36.0840490   6.9456290  46.7250850  43.0992840   3.6714470  33.5880710
  43.5386120   2.8336900  33.4418530  43.8121260   4.3043870  33.6744850
  34.8858840   3.6934670  46.2496820  34.7466610   4.5657470  46.6184220
  34.0040200   3.3507480  46.1044760  41.2088220   8.6110540  37.5561950
  41.6484130   9.3534870  37.1417340  41.1475110   8.8537110  38.4800910
  36.6839190   9.6356370  48.4581970  36.6554620  10.0399320  47.5910400
  36.5204160   8.7066730  48.2953570  48.6354010  10.4183470  49.7546140
  49.1113730  10.8966360  50.4335220  49.2561170  10.3500960  49.0291640
  30.8377490   5.4632220  42.1667730  30.9157910   5.5980990  41.2223450
  31.4519170   4.7548110  42.3595850  32.0825120   7.1632410  38.5773910
  31.6753200   7.3047000  37.7227510  32.9738130   6.8792570  38.3745120
  48.0387260   7.6096320  46.9146150  48.1650320   7.3708200  45.9963330
  48.0808640   6.7780860  47.3868230  41.9004000  11.3124320  45.4840960
  42.4148670  11.2232330  46.2863390  41.0573080  11.6584020  45.7768870
  43.8758400  11.5979660  34.9124960  43.7159540  11.3082600  35.8106790
  43.7105110  10.8219790  34.3770190  36.3546780  11.3778190  36.6896580
  36.1789260  10.4613730  36.4764380  35.5002520  11.7365480  36.9294380
  43.5784530   9.1067220  33.4722960  42.8849690   9.1044510  32.8125240
  44.3207390   8.6826540  33.0417130  43.1434460  10.7329930  37.5471450
  43.5991410   9.9519310  37.8610070  43.4826980  11.4436750  38.0912630
  30.8937010   6.5046390  44.7062190  31.0568050   6.0351750  43.8881560
  31.3589460   5.9969950  45.3711030  32.4675990   5.8797820  46.8658000
  32.0830780   5.2391490  47.4640960  32.7788180   6.5833940  47.4352730
  38.6173130   2.7274360  42.3466620  38.9843260   2.2532930  43.0927960
  38.4278190   3.6015930  42.6874960  36.4072500   1.7683000  44.6650830
  36.1029570   2.6474980  44.8901190  37.3618960   1.8282790  44.7008270
  34.9354290   5.9743990  35.2617680  34.1616550   5.4341610  35.1016400
  35.6648920   5.4550600  34.9235440  45.6942270   4.9709350  41.0544070
  46.4141390   5.4664640  40.6640180  45.4924090   4.2927240  40.4097940
  41.0761070   5.0418410  46.9413070  41.0098380   4.1214080  46.6870660
  40.4466210   5.1393850  47.6557710  34.9791690   5.6424370  38.8996490
  35.4970360   4.8392630  38.8453380  34.5275710   5.5803510  39.7413320
  39.8661190   6.9090650  34.1723790  40.2076890   7.6532880  33.6767110
  39.0373900   7.2221770  34.5348620  32.4636230   2.6085740  45.8122190
  32.1051170   3.2739590  46.3995530  32.1690790   1.7769290  46.1834810
  35.6649350   3.0669980  48.6961740  35.3649490   3.2127160  47.7989560
  36.4360590   2.5075270  48.6035130  41.0077800   7.8638980  46.6916870
  41.0222340   6.9319940  46.4735780  40.3002900   7.9498740  47.3306640
  46.1414870   2.0478800  32.9615480  46.0578590   2.4793020  32.1111920
  46.8609060   2.5077150  33.3942300  47.2189010   4.5046320  46.0385450
  46.4937200   5.0975100  45.8414840  47.7464470   4.4969860  45.2398820
  47.1702120   8.9021060  35.6897610  46.5278280   8.2476680  35.9641330
  46.7832780   9.3076150  34.9138280  42.7488600   6.2306490  39.5369300
  43.1012420   5.6334620  38.8770670  41.8650930   5.9050720  39.7077550
  38.8351880   6.9904180  36.9439710  39.5223010   7.5373390  37.3247300
  38.0484300   7.5344910  36.9789320  30.9744280   2.6077000  32.4356790
  31.8439130   2.8901800  32.7192710  30.4834600   3.4212870  32.3205600
  38.1379090   3.9950210  36.5565070  38.5941870   4.8055460  36.7825260
  37.7867300   3.6773350  37.3883560  40.4411700   9.5056550  43.7857370
  41.0853920   9.7115930  44.4630790  40.8041140   8.7444950  43.3328220
  41.7143780   7.5088900  42.5034820  42.3566010   6.8082060  42.6166990
  42.2393130   8.2887340  42.3231710  45.5599500   7.7937520  32.2273960
  45.3337080   7.0767960  32.8198600  45.1695700   7.5449960  31.3895710
  43.4881400   8.3083800  45.7070880  43.8237640   8.8950490  46.3848800
  42.5681740   8.1776510  45.9368670  31.3415530  11.8204380  33.0018420
  31.7013170  12.4193720  32.3475690  31.2007870  12.3664270  33.7753450
  45.1415750   5.7109460  33.8888120  44.8537450   6.1722150  34.6766000
  45.9367920   5.2507230  34.1572340  31.3257390  10.0859240  47.4760820
  31.4348510   9.1453980  47.3356210  30.6737950  10.3513990  46.8274550
  39.3169980   8.3575130  48.8758940  38.9966850   7.6384370  49.4204630
  38.6428340   9.0330200  48.9495000  37.3584150   9.2035580  33.8192090
  37.3494250   9.9365270  33.2036600  36.4382510   8.9567160  33.9119050
  32.9590790   4.4250470  34.5638850  32.3518740   5.1649370  34.5734150
  33.4340140   4.5149830  33.7377050  40.3443750   9.2663820  32.4817280
  40.4455730   9.0627810  31.5519260  39.4445490   9.0122100  32.6865060
  38.9861860  11.7850140  37.1764950  39.2403360  11.7471530  36.2544320
  38.0374340  11.6583470  37.1693200  44.9914440   2.7042020  38.7523460
  44.0504580   2.7192250  38.9271150  45.3058510   1.9177980  39.1983760
  34.9696080   4.3861620  32.3127420  35.7359350   4.2742980  32.8752850
  35.0470770   3.6899590  31.6604190  46.9940020   9.8750870  40.4277720
  47.1187440  10.6982040  40.9001530  47.8605580   9.6641600  40.0801870
  34.4657550  11.9682080  40.0994850  35.2020030  11.4197540  40.3703420
  34.8498470  12.8338090  39.9600840  31.3503030   8.0355650  35.9736360
  30.4242810   8.2776790  35.9641770  31.8159460   8.8629910  35.8521110
  33.4715830  11.1528150  49.2880430  34.2728560  11.4740200  49.7015830
  32.9567650  10.7923730  50.0100340  37.5759860  11.1412390  31.9220420
  38.3688470  11.4301220  31.4702210  37.0564210  10.7104560  31.2432900
  42.3080460   7.2608020  49.2355840  41.7018620   7.2839620  48.4951590
  42.0034570   6.5291060  49.7723090  43.7380830  10.9888310  47.8465250
  44.6902580  10.9046330  47.7965490  43.5909050  11.6530020  48.5199040
  46.6290030  10.3682520  33.3457160  46.3431540   9.9547660  32.5311340
  46.4309580  11.2970230  33.2257680  31.1913640   3.6401610  48.2316480
  31.6952660   3.0608890  48.8032710  30.4521060   3.9241840  48.7692850
  38.0937260   6.3615800  31.7862770  37.9887900   5.7468150  32.5124150
  37.9261480   5.8381690  31.0025780  38.2451580   5.0472600  47.7652000
  37.4797250   5.6157600  47.6806670  38.4267540   4.7548810  46.8720230
  41.3339990   5.4235830  32.3904760  40.7850090   5.8705130  33.0347500
  41.9559250   4.9185080  32.9142430  45.3874930   6.7777930  48.3227020
  46.1284400   7.1153690  47.8194480  44.6247610   6.9469990  47.7696790
  37.0015110   4.3826750  34.2870060  37.4231530   4.2166620  35.1301450
  37.1265950   3.5726980  33.7925200  39.5142750   3.4064360  31.5347160
  40.0348410   2.6913380  31.1688310  40.1611150   4.0450230  31.8347670
  44.0620590   4.8292760  46.8582230  44.4761610   4.9837840  47.7072650
  43.1271590   4.9547980  47.0208010  38.8235820   4.7813240  44.8278160
  39.2423930   5.6245970  44.6554400  37.9044450   4.9185280  44.5984940
  41.1599720   2.5129420  46.2116000  41.2795930   1.9170560  46.9510840
  42.0193720   2.5499110  45.7917300  43.4987620   3.0666610  44.7878510
  42.9722840   3.5909230  44.1843650  43.8418960   3.6994000  45.4188240
  36.6743240  11.0866250  45.9435890  36.1364330  11.8112310  45.6244590
  36.9277200  10.6096590  45.1533230  39.5305450  12.3217460  46.2022540
  39.4564150  13.2252600  46.5094910  38.6284290  12.0029360  46.1744610
  40.0790780  11.4875970  33.8248900  40.9741570  11.8260940  33.8467660
  40.1108410  10.7655380  33.1973180  33.7186940   6.8603020  32.0535900
  34.1561810   7.4032690  32.7093480  34.2034670   6.0349970  32.0632240
  30.9332740   9.6492050  39.5056160  31.2635750   8.7813110  39.2734800
  31.3623740   9.8550570  40.3361120  35.5294660   7.9801060  37.1658130
  35.2290200   7.8566030  38.0662040  35.4232150   7.1209650  36.7573860
  31.4222950  10.5162640  42.2437790  30.9853940  10.6963440  43.0761940
  31.9900630  11.2737260  42.1019510  47.0585130  10.0179640  46.5315100
  46.4587120  10.0772200  45.7879020  47.1879030   9.0784620  46.6611950
  48.2986580   7.7597460  31.8684810  47.4679540   7.8274110  32.3392040
  48.4758410   8.6501580  31.5651670  47.7543040   4.5044940  34.3719010
  48.5161950   5.0741590  34.4778700  47.7697410   3.9372140  35.1427320
  31.2547380   3.0282870  38.6026670  30.5996220   2.7594510  37.9586370
  32.0925330   2.9187350  38.1528650  48.7603010   5.3595040  39.2160940
  49.1311840   4.5762360  38.8096910  49.4004940   6.0484140  39.0378240
  45.7436770   6.7431620  44.6291260  44.9296610   7.1728780  44.8917050
  46.1510970   7.3550030  44.0160310  47.8062210   4.7979310  31.5291530
  48.0811050   5.7058190  31.4010750  47.6172950   4.7341840  32.4653520
  47.7027550   2.7348300  36.5220960  47.3271150   1.9676230  36.0902250
  46.9730670   3.1171000  37.0095890  32.2923310   3.4135440  43.1430010
  32.6596350   3.3262840  44.0226030  31.7234130   2.6501990  43.0436870
  47.0927170   1.8819820  46.1560480  46.8613260   1.6532570  45.2558430
  47.3531720   2.8019370  46.1105370  45.8012820  11.4950220  38.1559530
  46.3971890  11.1734790  37.4793950  46.0590970  11.0222040  38.9472800
  33.7075390   7.9268130  48.3050160  33.6645020   7.5561040  49.1864620
  33.8386400   8.8645700  48.4451980  37.4081420   9.4827720  43.9059880
  37.1672780   9.7502280  43.0190400  38.3484060   9.6533450  43.9610740
  48.6685580  11.5022100  44.7070520  48.1743860  11.8990970  43.9897650
  48.0598870  10.8771310  45.1007800  33.5463420  10.8730380  45.4247940
  32.9523740  10.7415080  46.1637980  33.5387260  10.0368520  44.9590040
  46.3525030  12.1445520  41.9857260  45.8928000  12.8961330  41.6115280
  45.7237490  11.4251990  41.9272060  33.1775650   8.2388760  44.3755980
  32.4509710   7.6194050  44.3081930  33.2384800   8.6329370  43.5054060
  36.7820750  10.4533760  41.1605390  37.2985770   9.8421120  40.6353650
  37.4318130  10.9562540  41.6516400  39.5216250  11.3442250  41.9874370
  39.8094060  11.0896550  41.1107380  40.0339470  10.7919610  42.5779940
  31.4605650  11.5563150  37.5852740  31.2927690  10.9233830  38.2834630
  30.5940160  11.7622550  37.2346930  33.0668350  10.2496380  35.0302880
  32.5415970  10.6304410  34.3264840  32.9912930  10.8747150  35.7512590
  39.5888610  12.2658350  49.3542570  40.5155920  12.0302620  49.3978530
  39.5739040  13.0930350  48.8728600  47.8233670  11.8083920  36.3516820
  47.9985860  11.1221660  35.7077740  47.1255240  12.3330970  35.9593490
  35.6661320  12.1978760  33.9052130  36.3980140  11.9138040  33.3576020
  35.9254990  11.9592040  34.7951510  34.8276110   8.3143490  33.9098460
  34.1984990   8.7828590  34.4584290  34.9423940   7.4692710  34.3444650
  46.1566170  11.4928210  49.1783610  46.9491490  10.9977440  48.9709570
  46.4499320  12.1718350  49.7859220  40.4143870   4.1428170  21.9408930
  39.6385970   3.6628610  22.2307500  41.0656800   3.4633820  21.7665090
  34.4309700   4.4547980  22.8184690  33.5994580   4.1996690  23.2181200
  35.0390680   4.5258750  23.5542610  44.4351300   8.5488360  20.7208060
  43.9732830   7.7775600  21.0495230  45.2476850   8.5754430  21.2260510
  34.4110960   8.4888070  23.0142710  34.7139000   7.5985810  22.8352930
  35.1554550   9.0458290  22.7864960  40.6614610  10.8346370  20.3412050
  40.0426050  11.2903870  19.7706490  41.5166390  10.9897830  19.9401750
  39.8552860   6.8185360  21.9479090  39.7861140   5.8775300  21.7868220
  40.6172720   6.9086770  22.5201660  41.5277960   5.7185610  17.7343960
  40.9095230   6.1835060  17.1706680  42.0401210   6.4113090  18.1513470
  36.3909720   5.2461480  24.4127560  36.0579100   5.8730400  25.0548630
  36.5676400   5.7723360  23.6329230  35.6028820   7.2142280  26.2276740
  36.2202820   7.8893360  25.9461190  34.7421940   7.6230260  26.1364240
  30.8961160   6.4042140  15.1083590  30.5189140   6.8929240  14.3768490
  31.1534230   7.0767420  15.7390120  46.5206410   8.6781690  24.1431380
  45.8369930   9.3480800  24.1348050  47.0600700   8.8762340  23.3776240
  44.0565150  10.5225820  22.8576560  44.0692310  10.1188110  21.9898820
  43.5040370  11.2973110  22.7537990  45.3510570   7.2442040  17.9466730
  45.2406900   6.3016370  18.0716150  45.3478820   7.6057680  18.8329490
  43.4550590   5.4255660  24.1859170  43.8719380   5.2115770  23.3512630
  44.1790410   5.6828450  24.7567790  40.8930850   2.8707360  17.3029220
  39.9660130   2.8044740  17.5317690  41.0455670   3.8087490  17.1884460
  47.4012690   3.8242880  24.2775410  46.5731320   3.8935970  23.8025540
  47.9963170   4.4097190  23.8091240  44.9228140   4.4327660  17.8064470
  44.3040560   4.0947210  17.1590770  44.9052590   3.7887420  18.5143660
  36.4987490   3.3972100  20.0848950  36.0944490   2.6849350  19.5894850
  36.5850610   3.0525340  20.9736990  36.9669190   7.0839660  22.2488160
  36.6697480   6.4785130  21.5695940  37.9169010   7.1216970  22.1377520
  45.0554800  10.6571530  25.9111260  44.5785360  11.4643720  25.7183870
  44.3716590  10.0049860  26.0637470  36.0587620   6.8221350  28.8995960
  35.1616150   7.0461320  29.1469360  36.0840490   6.9456290  27.9507360
  43.0992840   3.6714470  14.8137220  43.5386120   2.8336900  14.6675040
  43.8121260   4.3043870  14.9001360  34.8858840   3.6934670  27.4753330
  34.7466610   4.5657470  27.8440730  34.0040200   3.3507480  27.3301270
  41.2088220   8.6110540  18.7818460  41.6484130   9.3534870  18.3673850
  41.1475110   8.8537110  19.7057420  36.6839190   9.6356370  29.6838480
  36.6554620  10.0399320  28.8166910  36.5204160   8.7066730  29.5210080
  48.6354010  10.4183470  30.9802650  49.1113730  10.8966360  31.6591730
  49.2561170  10.3500960  30.2548150  30.8377490   5.4632220  23.3924240
  30.9157910   5.5980990  22.4479960  31.4519170   4.7548110  23.5852360
  32.0825120   7.1632410  19.8030420  31.6753200   7.3047000  18.9484020
  32.9738130   6.8792570  19.6001630  48.0387260   7.6096320  28.1402660
  48.1650320   7.3708200  27.2219840  48.0808640   6.7780860  28.6124740
  41.9004000  11.3124320  26.7097470  42.4148670  11.2232330  27.5119900
  41.0573080  11.6584020  27.0025380  43.8758400  11.5979660  16.1381470
  43.7159540  11.3082600  17.0363300  43.7105110  10.8219790  15.6026700
  36.3546780  11.3778190  17.9153090  36.1789260  10.4613730  17.7020890
  35.5002520  11.7365480  18.1550890  43.5784530   9.1067220  14.6979470
  42.8849690   9.1044510  14.0381750  44.3207390   8.6826540  14.2673640
  43.1434460  10.7329930  18.7727960  43.5991410   9.9519310  19.0866580
  43.4826980  11.4436750  19.3169140  30.8937010   6.5046390  25.9318700
  31.0568050   6.0351750  25.1138070  31.3589460   5.9969950  26.5967540
  32.4675990   5.8797820  28.0914510  32.0830780   5.2391490  28.6897470
  32.7788180   6.5833940  28.6609240  38.6173130   2.7274360  23.5723130
  38.9843260   2.2532930  24.3184470  38.4278190   3.6015930  23.9131470
  36.4072500   1.7683000  25.8907340  36.1029570   2.6474980  26.1157700
  37.3618960   1.8282790  25.9264780  34.9354290   5.9743990  16.4874190
  34.1616550   5.4341610  16.3272910  35.6648920   5.4550600  16.1491950
  45.6942270   4.9709350  22.2800580  46.4141390   5.4664640  21.8896690
  45.4924090   4.2927240  21.6354450  41.0761070   5.0418410  28.1669580
  41.0098380   4.1214080  27.9127170  40.4466210   5.1393850  28.8814220
  34.9791690   5.6424370  20.1253000  35.4970360   4.8392630  20.0709890
  34.5275710   5.5803510  20.9669830  39.8661190   6.9090650  15.3980300
  40.2076890   7.6532880  14.9023620  39.0373900   7.2221770  15.7605130
  32.4636230   2.6085740  27.0378700  32.1051170   3.2739590  27.6252040
  32.1690790   1.7769290  27.4091320  35.6649350   3.0669980  29.9218250
  35.3649490   3.2127160  29.0246070  36.4360590   2.5075270  29.8291640
  41.0077800   7.8638980  27.9173380  41.0222340   6.9319940  27.6992290
  40.3002900   7.9498740  28.5563150  46.1414870   2.0478800  14.1871990
  46.0578590   2.4793020  13.3368430  46.8609060   2.5077150  14.6198810
  47.2189010   4.5046320  27.2641960  46.4937200   5.0975100  27.0671350
  47.7464470   4.4969860  26.4655330  47.1702120   8.9021060  16.9154120
  46.5278280   8.2476680  17.1897840  46.7832780   9.3076150  16.1394790
  42.7488600   6.2306490  20.7625810  43.1012420   5.6334620  20.1027180
  41.8650930   5.9050720  20.9334060  38.8351880   6.9904180  18.1696220
  39.5223010   7.5373390  18.5503810  38.0484300   7.5344910  18.2045830
  30.9744280   2.6077000  13.6613300  31.8439130   2.8901800  13.9449220
  30.4834600   3.4212870  13.5462110  38.1379090   3.9950210  17.7821580
  38.5941870   4.8055460  18.0081770  37.7867300   3.6773350  18.6140070
  40.4411700   9.5056550  25.0113880  41.0853920   9.7115930  25.6887300
  40.8041140   8.7444950  24.5584730  41.7143780   7.5088900  23.7291330
  42.3566010   6.8082060  23.8423500  42.2393130   8.2887340  23.5488220
  45.5599500   7.7937520  13.4530470  45.3337080   7.0767960  14.0455110
  45.1695700   7.5449960  12.6152220  43.4881400   8.3083800  26.9327390
  43.8237640   8.8950490  27.6105310  42.5681740   8.1776510  27.1625180
  31.3415530  11.8204380  14.2274930  31.7013170  12.4193720  13.5732200
  31.2007870  12.3664270  15.0009960  45.1415750   5.7109460  15.1144630
  44.8537450   6.1722150  15.9022510  45.9367920   5.2507230  15.3828850
  31.3257390  10.0859240  28.7017330  31.4348510   9.1453980  28.5612720
  30.6737950  10.3513990  28.0531060  39.3169980   8.3575130  30.1015450
  38.9966850   7.6384370  30.6461140  38.6428340   9.0330200  30.1751510
  37.3584150   9.2035580  15.0448600  37.3494250   9.9365270  14.4293110
  36.4382510   8.9567160  15.1375560  32.9590790   4.4250470  15.7895360
  32.3518740   5.1649370  15.7990660  33.4340140   4.5149830  14.9633560
  40.3443750   9.2663820  13.7073790  40.4455730   9.0627810  12.7775770
  39.4445490   9.0122100  13.9121570  38.9861860  11.7850140  18.4021460
  39.2403360  11.7471530  17.4800830  38.0374340  11.6583470  18.3949710
  44.9914440   2.7042020  19.9779970  44.0504580   2.7192250  20.1527660
  45.3058510   1.9177980  20.4240270  34.9696080   4.3861620  13.5383930
  35.7359350   4.2742980  14.1009360  35.0470770   3.6899590  12.8860700
  46.9940020   9.8750870  21.6534230  47.1187440  10.6982040  22.1258040
  47.8605580   9.6641600  21.3058380  34.4657550  11.9682080  21.3251360
  35.2020030  11.4197540  21.5959930  34.8498470  12.8338090  21.1857350
  31.3503030   8.0355650  17.1992870  30.4242810   8.2776790  17.1898280
  31.8159460   8.8629910  17.0777620  33.4715830  11.1528150  30.5136940
  34.2728560  11.4740200  30.9272340  32.9567650  10.7923730  31.2356850
  37.5759860  11.1412390  13.1476930  38.3688470  11.4301220  12.6958720
  37.0564210  10.7104560  12.4689410  42.3080460   7.2608020  30.4612350
  41.7018620   7.2839620  29.7208100  42.0034570   6.5291060  30.9979600
  43.7380830  10.9888310  29.0721760  44.6902580  10.9046330  29.0222000
  43.5909050  11.6530020  29.7455550  46.6290030  10.3682520  14.5713670
  46.3431540   9.9547660  13.7567850  46.4309580  11.2970230  14.4514190
  31.1913640   3.6401610  29.4572990  31.6952660   3.0608890  30.0289220
  30.4521060   3.9241840  29.9949360  38.0937260   6.3615800  13.0119280
  37.9887900   5.7468150  13.7380660  37.9261480   5.8381690  12.2282290
  38.2451580   5.0472600  28.9908510  37.4797250   5.6157600  28.9063180
  38.4267540   4.7548810  28.0976740  41.3339990   5.4235830  13.6161270
  40.7850090   5.8705130  14.2604010  41.9559250   4.9185080  14.1398940
  45.3874930   6.7777930  29.5483530  46.1284400   7.1153690  29.0450990
  44.6247610   6.9469990  28.9953300  37.0015110   4.3826750  15.5126570
  37.4231530   4.2166620  16.3557960  37.1265950   3.5726980  15.0181710
  39.5142750   3.4064360  12.7603670  40.0348410   2.6913380  12.3944820
  40.1611150   4.0450230  13.0604180  44.0620590   4.8292760  28.0838740
  44.4761610   4.9837840  28.9329160  43.1271590   4.9547980  28.2464520
  38.8235820   4.7813240  26.0534670  39.2423930   5.6245970  25.8810910
  37.9044450   4.9185280  25.8241450  41.1599720   2.5129420  27.4372510
  41.2795930   1.9170560  28.1767350  42.0193720   2.5499110  27.0173810
  43.4987620   3.0666610  26.0135020  42.9722840   3.5909230  25.4100160
  43.8418960   3.6994000  26.6444750  36.6743240  11.0866250  27.1692400
  36.1364330  11.8112310  26.8501100  36.9277200  10.6096590  26.3789740
  39.5305450  12.3217460  27.4279050  39.4564150  13.2252600  27.7351420
  38.6284290  12.0029360  27.4001120  40.0790780  11.4875970  15.0505410
  40.9741570  11.8260940  15.0724170  40.1108410  10.7655380  14.4229690
  33.7186940   6.8603020  13.2792410  34.1561810   7.4032690  13.9349990
  34.2034670   6.0349970  13.2888750  30.9332740   9.6492050  20.7312670
  31.2635750   8.7813110  20.4991310  31.3623740   9.8550570  21.5617630
  35.5294660   7.9801060  18.3914640  35.2290200   7.8566030  19.2918550
  35.4232150   7.1209650  17.9830370  31.4222950  10.5162640  23.4694300
  30.9853940  10.6963440  24.3018450  31.9900630  11.2737260  23.3276020
  47.0585130  10.0179640  27.7571610  46.4587120  10.0772200  27.0135530
  47.1879030   9.0784620  27.8868460  48.2986580   7.7597460  13.0941320
  47.4679540   7.8274110  13.5648550  48.4758410   8.6501580  12.7908180
  47.7543040   4.5044940  15.5975520  48.5161950   5.0741590  15.7035210
  47.7697410   3.9372140  16.3683830  31.2547380   3.0282870  19.8283180
  30.5996220   2.7594510  19.1842880  32.0925330   2.9187350  19.3785160
  48.7603010   5.3595040  20.4417450  49.1311840   4.5762360  20.0353420
  49.4004940   6.0484140  20.2634750  45.7436770   6.7431620  25.8547770
  44.9296610   7.1728780  26.1173560  46.1510970   7.3550030  25.2416820
  47.8062210   4.7979310  12.7548040  48.0811050   5.7058190  12.6267260
  47.6172950   4.7341840  13.6910030  47.7027550   2.7348300  17.7477470
  47.3271150   1.9676230  17.3158760  46.9730670   3.1171000  18.2352400
  32.2923310   3.4135440  24.3686520  32.6596350   3.3262840  25.2482540
  31.7234130   2.6501990  24.2693380  47.0927170   1.8819820  27.3816990
  46.8613260   1.6532570  26.4814940  47.3531720   2.8019370  27.3361880
  45.8012820  11.4950220  19.3816040  46.3971890  11.1734790  18.7050460
  46.0590970  11.0222040  20.1729310  33.7075390   7.9268130  29.5306670
  33.6645020   7.5561040  30.4121130  33.8386400   8.8645700  29.6708490
  37.4081420   9.4827720  25.1316390  37.1672780   9.7502280  24.2446910
  38.3484060   9.6533450  25.1867250  48.6685580  11.5022100  25.9327030
  48.1743860  11.8990970  25.2154160  48.0598870  10.8771310  26.3264310
  33.5463420  10.8730380  26.6504450  32.9523740  10.7415080  27.3894490
  33.5387260  10.0368520  26.1846550  46.3525030  12.1445520  23.2113770
  45.8928000  12.8961330  22.8371790  45.7237490  11.4251990  23.1528570
  33.1775650   8.2388760  25.6012490  32.4509710   7.6194050  25.5338440
  33.2384800   8.6329370  24.7310570  36.7820750  10.4533760  22.3861900
  37.2985770   9.8421120  21.8610160  37.4318130  10.9562540  22.8772910
  39.5216250  11.3442250  23.2130880  39.8094060  11.0896550  22.3363890
  40.0339470  10.7919610  23.8036450  31.4605650  11.5563150  18.8109250
  31.2927690  10.9233830  19.5091140  30.5940160  11.7622550  18.4603440
  33.0668350  10.2496380  16.2559390  32.5415970  10.6304410  15.5521350
  32.9912930  10.8747150  16.9769100  39.5888610  12.2658350  30.5799080
  40.5155920  12.0302620  30.6235040  39.5739040  13.0930350  30.0985110
  47.8233670  11.8083920  17.5773330  47.9985860  11.1221660  16.9334250
  47.1255240  12.3330970  17.1850000  35.6661320  12.1978760  15.1308640
  36.3980140  11.9138040  14.5832530  35.9254990  11.9592040  16.0208020
  34.8276110   8.3143490  15.1354970  34.1984990   8.7828590  15.6840800
  34.9423940   7.4692710  15.5701160  46.1566170  11.4928210  30.4040120
  46.9491490  10.9977440  30.1966080  46.4499320  12.1718350  31.0115730
  40.4143870   4.1428170   3.1665440  39.6385970   3.6628610   3.4564010
  41.0656800   3.4633820   2.9921600  34.4309700   4.4547980   4.0441200
  33.5994580   4.1996690   4.4437710  35.0390680   4.5258750   4.7799120
  44.4351300   8.5488360   1.9464570  43.9732830   7.7775600   2.2751740
  45.2476850   8.5754430   2.4517020  34.4110960   8.4888070   4.2399220
  34.7139000   7.5985810   4.0609440  35.1554550   9.0458290   4.0121470
  39.8552860   6.8185360   3.1735600  39.7861140   5.8775300   3.0124730
  40.6172720   6.9086770   3.7458170  36.3909720   5.2461480   5.6384070
  36.0579100   5.8730400   6.2805140  36.5676400   5.7723360   4.8585740
  35.6028820   7.2142280   7.4533250  36.2202820   7.8893360   7.1717700
  34.7421940   7.6230260   7.3620750  46.5206410   8.6781690   5.3687890
  45.8369930   9.3480800   5.3604560  47.0600700   8.8762340   4.6032750
  44.0565150  10.5225820   4.0833070  44.0692310  10.1188110   3.2155330
  43.5040370  11.2973110   3.9794500  43.4550590   5.4255660   5.4115680
  43.8719380   5.2115770   4.5769140  44.1790410   5.6828450   5.9824300
  47.4012690   3.8242880   5.5031920  46.5731320   3.8935970   5.0282050
  47.9963170   4.4097190   5.0347750  36.9669190   7.0839660   3.4744670
  36.6697480   6.4785130   2.7952450  37.9169010   7.1216970   3.3634030
  45.0554800  10.6571530   7.1367770  44.5785360  11.4643720   6.9440380
  44.3716590  10.0049860   7.2893980  36.0587620   6.8221350  10.1252470
  35.1616150   7.0461320  10.3725870  36.0840490   6.9456290   9.1763870
  34.8858840   3.6934670   8.7009840  34.7466610   4.5657470   9.0697240
  34.0040200   3.3507480   8.5557780  36.6839190   9.6356370  10.9094990
  36.6554620  10.0399320  10.0423420  36.5204160   8.7066730  10.7466590
  48.6354010  10.4183470  12.2059160  49.1113730  10.8966360  12.8848240
  49.2561170  10.3500960  11.4804660  30.8377490   5.4632220   4.6180750
  30.9157910   5.5980990   3.6736470  31.4519170   4.7548110   4.8108870
  48.0387260   7.6096320   9.3659170  48.1650320   7.3708200   8.4476350
  48.0808640   6.7780860   9.8381250  41.9004000  11.3124320   7.9353980
  42.4148670  11.2232330   8.7376410  41.0573080  11.6584020   8.2281890
  30.8937010   6.5046390   7.1575210  31.0568050   6.0351750   6.3394580
  31.3589460   5.9969950   7.8224050  32.4675990   5.8797820   9.3171020
  32.0830780   5.2391490   9.9153980  32.7788180   6.5833940   9.8865750
  38.6173130   2.7274360   4.7979640  38.9843260   2.2532930   5.5440980
  38.4278190   3.6015930   5.1387980  36.4072500   1.7683000   7.1163850
  36.1029570   2.6474980   7.3414210  37.3618960   1.8282790   7.1521290
  45.6942270   4.9709350   3.5057090  46.4141390   5.4664640   3.1153200
  45.4924090   4.2927240   2.8610960  41.0761070   5.0418410   9.3926090
  41.0098380   4.1214080   9.1383680  40.4466210   5.1393850  10.1070730
  32.4636230   2.6085740   8.2635210  32.1051170   3.2739590   8.8508550
  32.1690790   1.7769290   8.6347830  35.6649350   3.0669980  11.1474760
  35.3649490   3.2127160  10.2502580  36.4360590   2.5075270  11.0548150
  41.0077800   7.8638980   9.1429890  41.0222340   6.9319940   8.9248800
  40.3002900   7.9498740   9.7819660  47.2189010   4.5046320   8.4898470
  46.4937200   5.0975100   8.2927860  47.7464470   4.4969860   7.6911840
  40.4411700   9.5056550   6.2370390  41.0853920   9.7115930   6.9143810
  40.8041140   8.7444950   5.7841240  41.7143780   7.5088900   4.9547840
  42.3566010   6.8082060   5.0680010  42.2393130   8.2887340   4.7744730
  43.4881400   8.3083800   8.1583900  43.8237640   8.8950490   8.8361820
  42.5681740   8.1776510   8.3881690  31.3257390  10.0859240   9.9273840
  31.4348510   9.1453980   9.7869230  30.6737950  10.3513990   9.2787570
  39.3169980   8.3575130  11.3271960  38.9966850   7.6384370  11.8717650
  38.6428340   9.0330200  11.4008020  46.9940020   9.8750870   2.8790740
  47.1187440  10.6982040   3.3514550  47.8605580   9.6641600   2.5314890
  34.4657550  11.9682080   2.5507870  35.2020030  11.4197540   2.8216440
  34.8498470  12.8338090   2.4113860  33.4715830  11.1528150  11.7393450
  34.2728560  11.4740200  12.1528850  32.9567650  10.7923730  12.4613360
  42.3080460   7.2608020  11.6868860  41.7018620   7.2839620  10.9464610
  42.0034570   6.5291060  12.2236110  43.7380830  10.9888310  10.2978270
  44.6902580  10.9046330  10.2478510  43.5909050  11.6530020  10.9712060
  31.1913640   3.6401610  10.6829500  31.6952660   3.0608890  11.2545730
  30.4521060   3.9241840  11.2205870  38.2451580   5.0472600  10.2165020
  37.4797250   5.6157600  10.1319690  38.4267540   4.7548810   9.3233250
  45.3874930   6.7777930  10.7740040  46.1284400   7.1153690  10.2707500
  44.6247610   6.9469990  10.2209810  44.0620590   4.8292760   9.3095250
  44.4761610   4.9837840  10.1585670  43.1271590   4.9547980   9.4721030
  38.8235820   4.7813240   7.2791180  39.2423930   5.6245970   7.1067420
  37.9044450   4.9185280   7.0497960  41.1599720   2.5129420   8.6629020
  41.2795930   1.9170560   9.4023860  42.0193720   2.5499110   8.2430320
  43.4987620   3.0666610   7.2391530  42.9722840   3.5909230   6.6356670
  43.8418960   3.6994000   7.8701260  36.6743240  11.0866250   8.3948910
  36.1364330  11.8112310   8.0757610  36.9277200  10.6096590   7.6046250
  39.5305450  12.3217460   8.6535560  39.4564150  13.2252600   8.9607930
  38.6284290  12.0029360   8.6257630  30.9332740   9.6492050   1.9569180
  31.2635750   8.7813110   1.7247820  31.3623740   9.8550570   2.7874140
  31.4222950  10.5162640   4.6950810  30.9853940  10.6963440   5.5274960
  31.9900630  11.2737260   4.5532530  47.0585130  10.0179640   8.9828120
  46.4587120  10.0772200   8.2392040  47.1879030   9.0784620   9.1124970
  45.7436770   6.7431620   7.0804280  44.9296610   7.1728780   7.3430070
  46.1510970   7.3550030   6.4673330  32.2923310   3.4135440   5.5943030
  32.6596350   3.3262840   6.4739050  31.7234130   2.6501990   5.4949890
  47.0927170   1.8819820   8.6073500  46.8613260   1.6532570   7.7071450
  47.3531720   2.8019370   8.5618390  33.7075390   7.9268130  10.7563180
  33.6645020   7.5561040  11.6377640  33.8386400   8.8645700  10.8965000
  37.4081420   9.4827720   6.3572900  37.1672780   9.7502280   5.4703420
  38.3484060   9.6533450   6.4123760  48.6685580  11.5022100   7.1583540
  48.1743860  11.8990970   6.4410670  48.0598870  10.8771310   7.5520820
  33.5463420  10.8730380   7.8760960  32.9523740  10.7415080   8.6151000
  33.5387260  10.0368520   7.4103060  46.3525030  12.1445520   4.4370280
  45.8928000  12.8961330   4.0628300  45.7237490  11.4251990   4.3785080
  33.1775650   8.2388760   6.8269000  32.4509710   7.6194050   6.7594950
  33.2384800   8.6329370   5.9567080  36.7820750  10.4533760   3.6118410
  37.2985770   9.8421120   3.0866670  37.4318130  10.9562540   4.1029420
  39.5216250  11.3442250   4.4387390  39.8094060  11.0896550   3.5620400
  40.0339470  10.7919610   5.0292960  39.5888610  12.2658350  11.8055590
  40.5155920  12.0302620  11.8491550  39.5739040  13.0930350  11.3241620
  46.1566170  11.4928210  11.6296630  46.9491490  10.9977440  11.4222590
  46.4499320  12.1718350  12.2372240  23.5082340 152.5597070 151.4804090
  23.4276390 151.6451680 151.2095800  23.0946760 153.0564140 150.7743800
  21.6400380 154.3376090 153.3613360  20.8642480 153.8576530 153.6511930
  22.2913310 153.6581740 153.1869520  14.0658160 149.6097790 148.0231510
  13.1774860 149.9513760 147.9211390  14.3499350 149.4098110 147.1312340
  12.0291170 152.2103440 153.9071210  12.6007280 151.4425640 153.9074850
  12.0292710 152.5092200 152.9977820  22.1114540 149.8203660 153.5952450
  22.4879360 148.9475540 153.4826120  22.0134050 150.1562360 152.7042890
  16.2419550 148.1929290 149.0569890  16.3486300 149.0933020 149.3638650
  15.3311910 148.1447260 148.7664540  25.8938660 147.3154100 150.5280790
  26.7148280 146.8250670 150.5706270  25.9272740 147.9051760 151.2812630
  18.0827280 151.1615660 153.3895070  18.5905500 151.6596630 154.0300090
  18.6140520 150.3850860 153.2134430  26.1300140 149.2554480 153.3008330
  25.4255710 149.5439370 153.8811440  26.4912300 150.0654590 152.9407890
  29.1987060 148.7009270 153.6917540  28.2511970 148.7348250 153.8232970
  29.5237050 149.5148220 154.0766900  19.7306600 145.0006450 151.9873530
  20.0381580 144.4453340 151.2709030  18.8007300 145.1350910 151.8046520
  22.1187360 153.0655280 148.7233650  21.1916640 152.9992660 148.9522120
  22.2712180 154.0035410 148.6088890  22.1056440 149.3372280 145.7200810
  21.1660110 149.4986240 145.8053270  22.4239700 150.0557960 145.1736800
  26.1484650 154.6275580 149.2268900  25.5297070 154.2895130 148.5795200
  26.1309100 153.9835340 149.9348090  17.7244000 153.5920020 151.5053380
  17.3201000 152.8797270 151.0099280  17.8107120 153.2473260 152.3941420
  24.3249350 153.8662390 146.2341650  24.7642630 153.0284820 146.0879470
  25.0377770 154.4991790 146.3205790  27.9066490 145.1205200 144.5482690
  27.5939150 145.2132030 145.4481760  28.6678960 145.6986230 144.4980120
  14.4248630 152.4865000 149.0060030  14.3046230 153.2127090 148.3941300
  14.1149520 151.7167910 148.5287940  16.8912290 145.8300070 152.3883700
  16.4480440 146.6109610 152.0568220  17.4497280 146.1529960 153.0954640
  20.0071110 145.4510770 147.2689530  19.3825290 145.4470640 147.9942840
  19.9201230 144.5841730 146.8725500  18.9288190 146.3747400 154.2473300
  19.2260520 147.2810230 154.1665320  19.4773750 145.8866180 153.6332870
  16.6826510 150.9533640 150.1164950  16.4567430 150.7370810 151.0211570
  15.9019040 151.3862100 149.7710920  23.9124270 150.9597010 148.7155600
  23.3133160 151.6832810 148.5319220  24.4603880 150.8973790 147.9332050
  22.5189140 149.5960550 150.7458880  22.9118710 149.9132750 149.9327570
  22.8805990 148.7172430 150.8603400  11.5553310 146.1861350 152.9689080
  11.2666360 146.7564210 153.6814060  12.2999070 145.7065800 153.3320310
  11.7423540 150.1281470 144.1791800  11.6598210 151.0712230 144.3206790
  11.3906600 149.9856380 143.3004150  19.5421670 148.8620500 153.2462150
  19.5457730 148.4210450 152.3966690  20.4372790 149.1837830 153.3533970
  15.3924050 148.7446990 152.2056360  15.0524100 149.2222220 152.9623410
  14.6301370 148.2912110 151.8457460  19.6041820 149.8632580 146.2368910
  19.7254640 149.8219060 147.1854730  19.2190330 150.7256730 146.0815640
  18.6163320 152.1733720 145.6352210  18.0480220 151.7251970 145.0088120
  19.3252320 152.5326500 145.1017360  12.7070130 147.6665970 151.1221030
  12.4217050 147.3021640 151.9599650  12.6448990 146.9346430 150.5084170
  22.3808720 146.5595230 147.8434400  21.5673330 146.0608400 147.7679710
  22.1870670 147.3993480 147.4270750  25.0957110 150.9314880 146.1396560
  25.9836730 151.2432110 145.9647900  25.0662200 150.0587130 145.7477140
  27.3671380 152.2426720 145.6076420  27.2835100 152.6740940 144.7572860
  28.0865570 152.7025070 146.0403240  12.2000790 152.8024920 145.0817730
  13.0695640 153.0849720 145.3653650  11.7091110 153.6160790 144.9666540
  15.2647380 144.5335780 149.6748530  15.1362010 144.5253680 150.6233450
  14.4409400 144.8718870 149.3239540  27.1242120 147.7406150 147.6944240
  26.4955280 147.8451820 146.9802470  26.6294040 147.9602930 148.4838120
  19.0926150 150.0192100 149.1102120  18.3842300 150.4878440 149.5515730
  19.3770630 149.3614110 149.7447310  23.1241580 146.7442760 150.5497910
  23.0009360 146.7628890 149.6007420  24.0726140 146.7921700 150.6696310
  17.2961170 148.3277180 146.4852830  18.1451700 148.7647330 146.4193020
  16.9292440 148.6397440 147.3124890  26.2170950 152.8989940 151.3984400
  25.2761090 152.9140170 151.5732090  26.5315020 152.1125900 151.8444700
  16.1952590 154.5809540 144.9588360  16.9615860 154.4690900 145.5213790
  16.2727280 153.8847510 144.3065130  14.8899350 152.0134610 145.6421250
  14.9702940 151.0662120 145.7538650  15.7819100 152.3441490 145.7481910
  18.2271620 154.5774670 146.9331000  18.6488040 154.4114540 147.7762390
  18.3522460 153.7674900 146.4386140  20.7399260 153.6012280 144.1808100
  21.2604920 152.8861300 143.8149250  21.3867660 154.2398150 144.4808610
  17.1230520 150.6507900 143.8789160  16.9219580 149.7875260 144.2402500
  16.9522570 150.5641260 142.9410760  24.6018830 145.4616130 146.4076040
  24.8821120 144.6184030 146.7635460  23.8284560 145.6939240 146.9214790
  15.9213320 147.7508520 143.8667040  16.2239220 147.7575950 142.9586190
  16.6607910 147.4006380 144.3634700  19.1398250 146.6943140 144.8523240
  18.7920250 146.0167130 144.2725690  19.3411020 146.2332650 145.6666630
  12.4803890 153.2230790 151.2487610  11.8252730 152.9542430 150.6047310
  13.3181840 153.1135270 150.7989590  25.4294330 148.0172080 145.4706100
  25.8479210 147.8303060 144.6302760  25.1230390 147.1651130 145.7809030
  28.9284060 152.9296220 149.1681900  28.5527660 152.1624150 148.7363190
  28.1987180 153.3118920 149.6556830  11.6941970 150.4329720 147.1912940
  10.7906050 150.6959920 147.0164600  12.1782590 150.7040890 146.4112900
  28.2035020 151.1553710 152.4689140  28.7272500 150.6616360 151.8379310
  28.7894440 151.2904070 153.2136710  14.2369180 149.4895260 145.1007320
  14.9460880 149.0678480 144.6154600  13.5209120 149.5570490 144.4690670
  13.8843340 145.5434590 144.1409970  14.6071470 146.0843530 144.4591190
  14.1567860 145.2698010 143.2651510  27.6934990 150.4127060 148.4081550
  28.1894110 150.1797930 149.1930430  27.4951060 149.5738900 147.9919190
  29.1222150 149.0488010 150.9419230  29.0121430 148.8944050 151.8801500
  29.8829740 148.5208950 150.6994640  30.0112420 146.8795930 144.1825370
  30.9361730 146.7477110 143.9743660  29.9888210 146.9588750 145.1361820
  30.0850910 147.6506590 146.8082080  29.2902410 147.5851710 147.3374990
  30.2894190 148.5857230 146.7967430  26.5170840 145.9803470 153.2580910
  26.9578930 145.9248570 152.4102510  26.2478430 146.8961480 153.3291090
  28.3809410 145.6118710 151.2689730  28.3197810 144.6679930 151.1220750
  29.1601440 145.7198800 151.8143190  13.3090180 145.5827850 147.7345540
  14.0669540 145.6956730 147.1609570  12.8467350 146.4197050 147.6888970
  19.8503990 147.6967120 150.7247850  19.0378500 147.3224010 150.3843730
  20.3545630 146.9412200 151.0269040  24.3528970 144.3609570 151.9630920
  24.9558340 144.9329780 152.4379440  23.6121960 144.9249010 151.7404820
  27.4963570 144.7631130 147.2371200  27.6914200 145.6614580 147.5038630
  26.7093440 144.5318210 147.7304150  15.6815330 146.1091900 146.2747510
  16.2108090 145.3221700 146.1455460  16.3143650 146.7883090 146.5083040
  17.8753170 145.8467040 149.3292900  17.2455910 145.1454350 149.4963030
  17.3358310 146.6071170 149.1126060  23.5082340 152.5597070 132.7060600
  23.4276390 151.6451680 132.4352310  23.0946760 153.0564140 132.0000310
  21.6400380 154.3376090 134.5869870  20.8642480 153.8576530 134.8768440
  22.2913310 153.6581740 134.4126030  15.6566210 154.6495900 135.4645630
  14.8251090 154.3944610 135.8642140  16.2647190 154.7206670 136.2003550
  14.0658160 149.6097790 129.2488020  13.1774860 149.9513760 129.1467900
  14.3499350 149.4098110 128.3568850  12.0291170 152.2103440 135.1327720
  12.6007280 151.4425640 135.1331360  12.0292710 152.5092200 134.2234330
  13.2716040 147.6187800 136.9196650  13.0918880 146.7213550 137.1999410
  12.8696120 148.1659670 137.5943600  22.1114540 149.8203660 134.8208960
  22.4879360 148.9475540 134.7082630  22.0134050 150.1562360 133.9299400
  16.2419550 148.1929290 130.2826400  16.3486300 149.0933020 130.5895160
  15.3311910 148.1447260 129.9921050  25.8938660 147.3154100 131.7537300
  26.7148280 146.8250670 131.7962780  25.9272740 147.9051760 132.5069140
  13.8902710 150.1148300 135.5278990  14.5712820 150.3786670 136.1466390
  13.5750760 149.2749170 135.8617000  18.0827280 151.1615660 134.6151580
  18.5905500 151.6596630 135.2556600  18.6140520 150.3850860 134.4390940
  30.1838210 149.3320850 138.3180930  29.4790380 149.7202560 137.7996040
  30.4496130 150.0271140 138.9201860  16.3663380 145.8014220 138.8815000
  16.3681820 146.3186610 138.0760900  15.5367690 145.3244400 138.8584930
  26.1300140 149.2554480 134.5264840  25.4255710 149.5439370 135.1067950
  26.4912300 150.0654590 134.1664400  16.0478710 147.5124180 136.8885450
  16.3895520 148.3566230 136.5939320  15.1094520 147.6607920 137.0050790
  29.1987060 148.7009270 134.9174050  28.2511970 148.7348250 135.0489480
  29.5237050 149.5148220 135.3023410  19.7306600 145.0006450 133.2130040
  20.0381580 144.4453340 132.4965540  18.8007300 145.1350910 133.0303030
  22.1187360 153.0655280 129.9490160  21.1916640 152.9992660 130.1778630
  22.2712180 154.0035410 129.8345400  22.1056440 149.3372280 126.9457320
  21.1660110 149.4986240 127.0309780  22.4239700 150.0557960 126.3993310
  28.6269200 154.0190800 136.9236350  27.7987830 154.0883890 136.4486480
  29.2219680 154.6045110 136.4552180  26.1484650 154.6275580 130.4525410
  25.5297070 154.2895130 129.8051710  26.1309100 153.9835340 131.1604600
  25.5911210 150.8060120 137.8691220  25.1782390 151.6313830 138.1231210
  24.8587160 150.2205160 137.6767580  17.7244000 153.5920020 132.7309890
  17.3201000 152.8797270 132.2355790  17.8107120 153.2473260 133.6197930
  16.4372620 150.3663230 136.5108930  16.9887210 150.4758570 135.7362180
  16.9516130 150.7400830 137.2264160  24.3249350 153.8662390 127.4598160
  24.7642630 153.0284820 127.3135980  25.0377770 154.4991790 127.5462300
  16.1115350 153.8882590 140.1214270  15.9723120 154.7605390 140.4901670
  15.2296710 153.5455400 139.9762210  27.9066490 145.1205200 125.7739200
  27.5939150 145.2132030 126.6738270  28.6678960 145.6986230 125.7236630
  14.4248630 152.4865000 130.2316540  14.3046230 153.2127090 129.6197810
  14.1149520 151.7167910 129.7544450  29.1167780 149.8576700 141.7513340
  28.5012050 150.3656370 141.2228800  28.7964200 148.9575030 141.6939280
  16.8912290 145.8300070 133.6140210  16.4480440 146.6109610 133.2824730
  17.4497280 146.1529960 134.3211150  21.1782100 148.6968590 139.2175530
  20.7161470 148.9051610 140.0295470  20.7760210 147.8827940 138.9146200
  26.1786610 149.9177540 140.3472190  25.3280200 149.6183290 140.6681260
  26.0188400 150.1619550 139.4356010  23.2736320 151.4179290 142.4470980
  23.5989730 150.5843040 142.1073210  24.0616650 151.9407810 142.5949310
  20.0071110 145.4510770 128.4946040  19.3825290 145.4470640 129.2199350
  19.9201230 144.5841730 128.0982010  18.9288190 146.3747400 135.4729810
  19.2260520 147.2810230 135.3921830  19.4773750 145.8866180 134.8589380
  16.6826510 150.9533640 131.3421460  16.4567430 150.7370810 132.2468080
  15.9019040 151.3862100 130.9967430  23.9124270 150.9597010 129.9412110
  23.3133160 151.6832810 129.7575730  24.4603880 150.8973790 129.1588560
  19.1225720 151.8519220 142.0081730  19.0269320 150.9113950 141.8582130
  19.9657700 152.0734290 141.6129800  22.5189140 149.5960550 131.9715390
  22.9118710 149.9132750 131.1584080  22.8805990 148.7172430 132.0859910
  14.2536260 148.2632890 140.1615510  13.8599650 149.1108100 140.3688290
  13.5654660 147.6259260 140.3524150  20.8281310 148.3467860 143.2312250
  20.1379630 148.1540060 143.8658340  21.5713610 148.6302500 143.7636550
  11.5553310 146.1861350 134.1945590  11.2666360 146.7564210 134.9070570
  12.2999070 145.7065800 134.5576820  11.7423540 150.1281470 125.4048310
  11.6598210 151.0712230 125.5463300  11.3906600 149.9856380 124.5260660
  23.1044280 152.1866300 136.0666170  22.3725400 152.6953110 136.4156270
  22.7068620 151.3696280 135.7654950  19.5421670 148.8620500 134.4718660
  19.5457730 148.4210450 133.6223200  20.4372790 149.1837830 134.5790480
  15.3924050 148.7446990 133.4312870  15.0524100 149.2222220 134.1879920
  14.6301370 148.2912110 133.0713970  19.6041820 149.8632580 127.4625420
  19.7254640 149.8219060 128.4111240  19.2190330 150.7256730 127.3072150
  23.5670190 147.6399980 135.4789110  23.5842930 148.0908630 136.3230960
  23.3185770 146.7405620 135.6922550  18.6163320 152.1733720 126.8608720
  18.0480220 151.7251970 126.2344630  19.3252320 152.5326500 126.3273870
  26.9940940 145.0532160 141.3175490  27.3186710 144.3221820 141.8433470
  27.0297450 144.7345800 140.4156480  19.8429640 152.9222280 136.2184070
  20.2099770 152.4480850 136.9645410  19.6534700 153.7963850 136.5592410
  12.7070130 147.6665970 132.3477540  12.4217050 147.3021640 133.1856160
  12.6448990 146.9346430 131.7340680  17.6329010 151.9630920 138.5368280
  17.3286080 152.8422900 138.7618640  18.5875470 152.0230710 138.5725720
  22.3808720 146.5595230 129.0690910  21.5673330 146.0608400 128.9936220
  22.1870670 147.3993480 128.6527260  25.0957110 150.9314880 127.3653070
  25.9836730 151.2432110 127.1904410  25.0662200 150.0587130 126.9733650
  13.6892740 152.8033660 139.6839640  13.3307680 153.4687510 140.2712980
  13.3947300 151.9717210 140.0552260  16.8905860 153.2617900 142.5679190
  16.5906000 153.4075080 141.6707010  17.6617100 152.7023190 142.4752580
  27.3671380 152.2426720 126.8332930  27.2835100 152.6740940 125.9829370
  28.0865570 152.7025070 127.2659750  12.2000790 152.8024920 126.3074240
  13.0695640 153.0849720 126.5910160  11.7091110 153.6160790 126.1923050
  15.2647380 144.5335780 130.9005040  15.1362010 144.5253680 131.8489960
  14.4409400 144.8718870 130.5496050  12.2641310 146.2926900 140.3611740
  11.5499830 146.4923820 140.9664350  12.6836350 145.5166470 140.7326540
  23.7580090 148.7849210 138.1113190  24.1260910 147.9644420 138.4392760
  22.8978290 148.8451100 138.5268840  27.1242120 147.7406150 128.9200750
  26.4955280 147.8451820 128.2058980  26.6294040 147.9602930 129.7094630
  19.0926150 150.0192100 130.3358630  18.3842300 150.4878440 130.7772240
  19.3770630 149.3614110 130.9703820  20.7182080 151.4388800 138.3351160
  21.2167330 151.9134620 139.0003010  20.8605030 150.5152320 138.5421190
  23.1241580 146.7442760 131.7754420  23.0009360 146.7628890 130.8263930
  24.0726140 146.7921700 131.8952820  17.2961170 148.3277180 127.7109340
  18.1451700 148.7647330 127.6449530  16.9292440 148.6397440 128.5381400
  27.9248940 147.6556760 139.1779550  27.4222540 148.3962160 139.5173360
  28.7405600 148.0440760 138.8616340  26.2170950 152.8989940 132.6240910
  25.2761090 152.9140170 132.7988600  26.5315020 152.1125900 133.0701210
  16.1952590 154.5809540 126.1844870  16.9615860 154.4690900 126.7470300
  16.2727280 153.8847510 125.5321640  14.8899350 152.0134610 126.8677760
  14.9702940 151.0662120 126.9795160  15.7819100 152.3441490 126.9738420
  12.4170150 153.8349530 142.1033930  12.9209170 153.2556810 142.6750160
  11.6777570 154.1189760 142.6410300  14.4493230 151.9779120 142.9984000
  14.4898570 151.6792990 143.9069230  15.3038730 152.3786730 142.8391520
  18.2271620 154.5774670 128.1587510  18.6488040 154.4114540 129.0018900
  18.3522460 153.7674900 127.6642650  16.3899040 150.5571220 140.9658490
  15.8595500 150.0662170 140.3381830  17.0587110 150.9855420 140.4316420
  20.7399260 153.6012280 125.4064610  21.2604920 152.8861300 125.0405760
  21.3867660 154.2398150 125.7065120  25.7599270 152.3636840 142.7338830
  26.3420040 151.6089160 142.6459310  25.9361040 152.8944280 141.9570310
  16.8771340 147.5233590 141.0455780  16.7828210 146.9054340 140.3206650
  16.2968730 148.2499880 140.8185690  19.6432780 146.0806830 138.0783170
  19.1950080 146.1031090 137.2328720  19.0097980 145.6825850 138.6753470
  22.3856230 152.7077340 140.0833450  22.5052440 152.1118480 140.8228290
  23.2450230 152.7447030 139.6634750  24.7244130 153.2614530 138.6595960
  24.1979350 153.7857150 138.0561100  25.0675470 153.8941920 139.2905690
  17.1230520 150.6507900 125.1045670  16.9219580 149.7875260 125.4659010
  16.9522570 150.5641260 124.1667270  19.1525000 149.2498690 141.3409270
  19.7424690 148.9414540 142.0287090  18.3345240 148.7778440 141.4969170
  23.9718430 148.8664500 141.5742290  23.2833950 148.2046040 141.5092280
  24.6924450 148.4202770 142.0190750  24.6018830 145.4616130 127.6332550
  24.8821120 144.6184030 127.9891970  23.8284560 145.6939240 128.1471300
  15.9213320 147.7508520 125.0923550  16.2239220 147.7575950 124.1842700
  16.6607910 147.4006380 125.5891210  19.1398250 146.6943140 126.0779750
  18.7920250 146.0167130 125.4982200  19.3411020 146.2332650 126.8923140
  12.4803890 153.2230790 132.4744120  11.8252730 152.9542430 131.8303820
  13.3181840 153.1135270 132.0246100  25.4294330 148.0172080 126.6962610
  25.8479210 147.8303060 125.8559270  25.1230390 147.1651130 127.0065540
  28.9284060 152.9296220 130.3938410  28.5527660 152.1624150 129.9619700
  28.1987180 153.3118920 130.8813340  13.5179820 153.6083360 137.0147460
  13.8852860 153.5210760 137.8943480  12.9490640 152.8449910 136.9154320
  28.3183680 152.0767740 140.0277930  28.0869770 151.8480490 139.1275880
  28.5788230 152.9967290 139.9822820  13.0695820 150.5192450 140.9205880
  12.1751870 150.4859210 141.2599590  13.6093370 150.7179240 141.6857130
  26.7571750 147.3024170 142.8057630  27.6341930 147.3107570 143.1891630
  26.7692590 146.5655010 142.1949980  11.6941970 150.4329720 128.4169450
  10.7906050 150.6959920 128.2421110  12.1782590 150.7040890 127.6369410
  28.2035020 151.1553710 133.6945650  28.7272500 150.6616360 133.0635820
  28.7894440 151.2904070 134.4393220  28.3824740 151.2393580 137.2165200
  27.4327450 151.2057120 137.3310190  28.5637750 152.1493690 136.9814970
  14.2369180 149.4895260 126.3263830  14.9460880 149.0678480 125.8411110
  13.5209120 149.5570490 125.6947180  13.8843340 145.5434590 125.3666480
  14.6071470 146.0843530 125.6847700  14.1567860 145.2698010 124.4908020
  27.6934990 150.4127060 129.6338060  28.1894110 150.1797930 130.4186940
  27.4951060 149.5738900 129.2175700  13.5735530 144.7940780 135.2689100
  14.2211720 144.2438160 134.8284260  13.9937370 145.0483930 136.0904910
  29.1222150 149.0488010 132.1675740  29.0121430 148.8944050 133.1058010
  29.8829740 148.5208950 131.9251150  27.4687870 144.9882140 138.6258740
  28.1060090 145.6016280 138.9917930  27.6162760 145.0242800 137.6807970
  30.0112420 146.8795930 125.4081880  30.9361730 146.7477110 125.2000170
  29.9888210 146.9588750 126.3618330  30.0850910 147.6506590 128.0338590
  29.2902410 147.5851710 128.5631500  30.2894190 148.5857230 128.0223940
  13.3267530 144.9496450 138.0114420  12.9782350 145.4060270 138.7772600
  12.9955230 144.0553580 138.0936850  20.8392350 146.1408330 141.5333840
  20.7781240 146.7330160 142.2829250  21.7792730 146.0334290 141.3884100
  23.4766910 145.7978390 141.1726130  24.0907320 146.1157680 140.5107210
  24.0216470 145.3126980 141.7921990  13.9988170 144.4772650 141.2865190
  14.5471160 144.2960700 140.5231300  14.0643480 143.6866760 141.8221500
  24.2174950 144.3610530 137.4995420  23.3434790 144.6945640 137.2968350
  24.1085700 143.8883710 138.3247290  25.1246930 146.5681400 138.8837140
  24.7960290 145.7533160 138.5038870  26.0729230 146.5251210 138.7602830
  21.9649770 145.2780370 136.4388330  21.1821560 145.7525870 136.7185090
  21.6712700 144.3735200 136.3301510  26.5170840 145.9803470 134.4837420
  26.9578930 145.9248570 133.6359020  26.2478430 146.8961480 134.5547600
  28.3809410 145.6118710 132.4946240  28.3197810 144.6679930 132.3477260
  29.1601440 145.7198800 133.0399700  13.3090180 145.5827850 128.9602050
  14.0669540 145.6956730 128.3866080  12.8467350 146.4197050 128.9145480
  19.8503990 147.6967120 131.9504360  19.0378500 147.3224010 131.6100240
  20.3545630 146.9412200 132.2525550  24.3528970 144.3609570 133.1887430
  24.9558340 144.9329780 133.6635950  23.6121960 144.9249010 132.9661330
  27.4963570 144.7631130 128.4627710  27.6914200 145.6614580 128.7295140
  26.7093440 144.5318210 128.9560660  15.6815330 146.1091900 127.5004020
  16.2108090 145.3221700 127.3711970  16.3143650 146.7883090 127.7339550
  17.8753170 145.8467040 130.5549410  17.2455910 145.1454350 130.7219540
  17.3358310 146.6071170 130.3382570  18.0008730 145.1251020 142.9901900
  17.7193000 145.6284620 142.2262720  18.3828430 144.3272770 142.6244030
  24.6024190 144.5404600 143.5682370  24.4889640 144.8599210 144.4633890
  25.4193930 144.9417110 143.2719650  23.5082340 152.5597070 113.9317110
  23.4276390 151.6451680 113.6608820  23.0946760 153.0564140 113.2256820
  21.6400380 154.3376090 115.8126380  20.8642480 153.8576530 116.1024950
  22.2913310 153.6581740 115.6382540  15.6566210 154.6495900 116.6902140
  14.8251090 154.3944610 117.0898650  16.2647190 154.7206670 117.4260060
  14.0658160 149.6097790 110.4744530  13.1774860 149.9513760 110.3724410
  14.3499350 149.4098110 109.5825360  12.0291170 152.2103440 116.3584230
  12.6007280 151.4425640 116.3587870  12.0292710 152.5092200 115.4490840
  13.2716040 147.6187800 118.1453160  13.0918880 146.7213550 118.4255920
  12.8696120 148.1659670 118.8200110  22.1114540 149.8203660 116.0465470
  22.4879360 148.9475540 115.9339140  22.0134050 150.1562360 115.1555910
  16.2419550 148.1929290 111.5082910  16.3486300 149.0933020 111.8151670
  15.3311910 148.1447260 111.2177560  25.8938660 147.3154100 112.9793810
  26.7148280 146.8250670 113.0219290  25.9272740 147.9051760 113.7325650
  13.8902710 150.1148300 116.7535500  14.5712820 150.3786670 117.3722900
  13.5750760 149.2749170 117.0873510  18.0827280 151.1615660 115.8408090
  18.5905500 151.6596630 116.4813110  18.6140520 150.3850860 115.6647450
  30.1838210 149.3320850 119.5437440  29.4790380 149.7202560 119.0252550
  30.4496130 150.0271140 120.1458370  16.3663380 145.8014220 120.1071510
  16.3681820 146.3186610 119.3017410  15.5367690 145.3244400 120.0841440
  26.1300140 149.2554480 115.7521350  25.4255710 149.5439370 116.3324460
  26.4912300 150.0654590 115.3920910  16.0478710 147.5124180 118.1141960
  16.3895520 148.3566230 117.8195830  15.1094520 147.6607920 118.2307300
  29.1987060 148.7009270 116.1430560  28.2511970 148.7348250 116.2745990
  29.5237050 149.5148220 116.5279920  19.7306600 145.0006450 114.4386550
  20.0381580 144.4453340 113.7222050  18.8007300 145.1350910 114.2559540
  22.1187360 153.0655280 111.1746670  21.1916640 152.9992660 111.4035140
  22.2712180 154.0035410 111.0601910  22.1056440 149.3372280 108.1713830
  21.1660110 149.4986240 108.2566290  22.4239700 150.0557960 107.6249820
  28.6269200 154.0190800 118.1492860  27.7987830 154.0883890 117.6742990
  29.2219680 154.6045110 117.6808690  26.1484650 154.6275580 111.6781920
  25.5297070 154.2895130 111.0308220  26.1309100 153.9835340 112.3861110
  25.5911210 150.8060120 119.0947730  25.1782390 151.6313830 119.3487720
  24.8587160 150.2205160 118.9024090  17.7244000 153.5920020 113.9566400
  17.3201000 152.8797270 113.4612300  17.8107120 153.2473260 114.8454440
  16.4372620 150.3663230 117.7365440  16.9887210 150.4758570 116.9618690
  16.9516130 150.7400830 118.4520670  24.3249350 153.8662390 108.6854670
  24.7642630 153.0284820 108.5392490  25.0377770 154.4991790 108.7718810
  16.1115350 153.8882590 121.3470780  15.9723120 154.7605390 121.7158180
  15.2296710 153.5455400 121.2018720  27.9066490 145.1205200 106.9995710
  27.5939150 145.2132030 107.8994780  28.6678960 145.6986230 106.9493140
  14.4248630 152.4865000 111.4573050  14.3046230 153.2127090 110.8454320
  14.1149520 151.7167910 110.9800960  29.1167780 149.8576700 122.9769850
  28.5012050 150.3656370 122.4485310  28.7964200 148.9575030 122.9195790
  16.8912290 145.8300070 114.8396720  16.4480440 146.6109610 114.5081240
  17.4497280 146.1529960 115.5467660  21.1782100 148.6968590 120.4432040
  20.7161470 148.9051610 121.2551980  20.7760210 147.8827940 120.1402710
  26.1786610 149.9177540 121.5728700  25.3280200 149.6183290 121.8937770
  26.0188400 150.1619550 120.6612520  23.2736320 151.4179290 123.6727490
  23.5989730 150.5843040 123.3329720  24.0616650 151.9407810 123.8205820
  20.0071110 145.4510770 109.7202550  19.3825290 145.4470640 110.4455860
  19.9201230 144.5841730 109.3238520  18.9288190 146.3747400 116.6986320
  19.2260520 147.2810230 116.6178340  19.4773750 145.8866180 116.0845890
  16.6826510 150.9533640 112.5677970  16.4567430 150.7370810 113.4724590
  15.9019040 151.3862100 112.2223940  23.9124270 150.9597010 111.1668620
  23.3133160 151.6832810 110.9832240  24.4603880 150.8973790 110.3845070
  19.1225720 151.8519220 123.2338240  19.0269320 150.9113950 123.0838640
  19.9657700 152.0734290 122.8386310  22.5189140 149.5960550 113.1971900
  22.9118710 149.9132750 112.3840590  22.8805990 148.7172430 113.3116420
  14.2536260 148.2632890 121.3872020  13.8599650 149.1108100 121.5944800
  13.5654660 147.6259260 121.5780660  20.8281310 148.3467860 124.4568760
  20.1379630 148.1540060 125.0914850  21.5713610 148.6302500 124.9893060
  11.5553310 146.1861350 115.4202100  11.2666360 146.7564210 116.1327080
  12.2999070 145.7065800 115.7833330  11.7423540 150.1281470 106.6304820
  11.6598210 151.0712230 106.7719810  11.3906600 149.9856380 105.7517170
  23.1044280 152.1866300 117.2922680  22.3725400 152.6953110 117.6412780
  22.7068620 151.3696280 116.9911460  19.5421670 148.8620500 115.6975170
  19.5457730 148.4210450 114.8479710  20.4372790 149.1837830 115.8046990
  15.3924050 148.7446990 114.6569380  15.0524100 149.2222220 115.4136430
  14.6301370 148.2912110 114.2970480  19.6041820 149.8632580 108.6881930
  19.7254640 149.8219060 109.6367750  19.2190330 150.7256730 108.5328660
  23.5670190 147.6399980 116.7045620  23.5842930 148.0908630 117.5487470
  23.3185770 146.7405620 116.9179060  18.6163320 152.1733720 108.0865230
  18.0480220 151.7251970 107.4601140  19.3252320 152.5326500 107.5530380
  26.9940940 145.0532160 122.5432000  27.3186710 144.3221820 123.0689980
  27.0297450 144.7345800 121.6412990  19.8429640 152.9222280 117.4440580
  20.2099770 152.4480850 118.1901920  19.6534700 153.7963850 117.7848920
  12.7070130 147.6665970 113.5734050  12.4217050 147.3021640 114.4112670
  12.6448990 146.9346430 112.9597190  17.6329010 151.9630920 119.7624790
  17.3286080 152.8422900 119.9875150  18.5875470 152.0230710 119.7982230
  22.3808720 146.5595230 110.2947420  21.5673330 146.0608400 110.2192730
  22.1870670 147.3993480 109.8783770  25.0957110 150.9314880 108.5909580
  25.9836730 151.2432110 108.4160920  25.0662200 150.0587130 108.1990160
  13.6892740 152.8033660 120.9096150  13.3307680 153.4687510 121.4969490
  13.3947300 151.9717210 121.2808770  16.8905860 153.2617900 123.7935700
  16.5906000 153.4075080 122.8963520  17.6617100 152.7023190 123.7009090
  27.3671380 152.2426720 108.0589440  27.2835100 152.6740940 107.2085880
  28.0865570 152.7025070 108.4916260  12.2000790 152.8024920 107.5330750
  13.0695640 153.0849720 107.8166670  11.7091110 153.6160790 107.4179560
  15.2647380 144.5335780 112.1261550  15.1362010 144.5253680 113.0746470
  14.4409400 144.8718870 111.7752560  12.2641310 146.2926900 121.5868250
  11.5499830 146.4923820 122.1920860  12.6836350 145.5166470 121.9583050
  23.7580090 148.7849210 119.3369700  24.1260910 147.9644420 119.6649270
  22.8978290 148.8451100 119.7525350  27.1242120 147.7406150 110.1457260
  26.4955280 147.8451820 109.4315490  26.6294040 147.9602930 110.9351140
  19.0926150 150.0192100 111.5615140  18.3842300 150.4878440 112.0028750
  19.3770630 149.3614110 112.1960330  20.7182080 151.4388800 119.5607670
  21.2167330 151.9134620 120.2259520  20.8605030 150.5152320 119.7677700
  23.1241580 146.7442760 113.0010930  23.0009360 146.7628890 112.0520440
  24.0726140 146.7921700 113.1209330  17.2961170 148.3277180 108.9365850
  18.1451700 148.7647330 108.8706040  16.9292440 148.6397440 109.7637910
  27.9248940 147.6556760 120.4036060  27.4222540 148.3962160 120.7429870
  28.7405600 148.0440760 120.0872850  26.2170950 152.8989940 113.8497420
  25.2761090 152.9140170 114.0245110  26.5315020 152.1125900 114.2957720
  16.1952590 154.5809540 107.4101380  16.9615860 154.4690900 107.9726810
  16.2727280 153.8847510 106.7578150  14.8899350 152.0134610 108.0934270
  14.9702940 151.0662120 108.2051670  15.7819100 152.3441490 108.1994930
  12.4170150 153.8349530 123.3290440  12.9209170 153.2556810 123.9006670
  11.6777570 154.1189760 123.8666810  14.4493230 151.9779120 124.2240510
  14.4898570 151.6792990 125.1325740  15.3038730 152.3786730 124.0648030
  18.2271620 154.5774670 109.3844020  18.6488040 154.4114540 110.2275410
  18.3522460 153.7674900 108.8899160  16.3899040 150.5571220 122.1915000
  15.8595500 150.0662170 121.5638340  17.0587110 150.9855420 121.6572930
  20.7399260 153.6012280 106.6321120  21.2604920 152.8861300 106.2662270
  21.3867660 154.2398150 106.9321630  25.7599270 152.3636840 123.9595340
  26.3420040 151.6089160 123.8715820  25.9361040 152.8944280 123.1826820
  16.8771340 147.5233590 122.2712290  16.7828210 146.9054340 121.5463160
  16.2968730 148.2499880 122.0442200  19.6432780 146.0806830 119.3039680
  19.1950080 146.1031090 118.4585230  19.0097980 145.6825850 119.9009980
  22.3856230 152.7077340 121.3089960  22.5052440 152.1118480 122.0484800
  23.2450230 152.7447030 120.8891260  24.7244130 153.2614530 119.8852470
  24.1979350 153.7857150 119.2817610  25.0675470 153.8941920 120.5162200
  17.1230520 150.6507900 106.3302180  16.9219580 149.7875260 106.6915520
  16.9522570 150.5641260 105.3923780  19.1525000 149.2498690 122.5665780
  19.7424690 148.9414540 123.2543600  18.3345240 148.7778440 122.7225680
  23.9718430 148.8664500 122.7998800  23.2833950 148.2046040 122.7348790
  24.6924450 148.4202770 123.2447260  24.6018830 145.4616130 108.8589060
  24.8821120 144.6184030 109.2148480  23.8284560 145.6939240 109.3727810
  15.9213320 147.7508520 106.3180060  16.2239220 147.7575950 105.4099210
  16.6607910 147.4006380 106.8147720  19.1398250 146.6943140 107.3036260
  18.7920250 146.0167130 106.7238710  19.3411020 146.2332650 108.1179650
  12.4803890 153.2230790 113.7000630  11.8252730 152.9542430 113.0560330
  13.3181840 153.1135270 113.2502610  25.4294330 148.0172080 107.9219120
  25.8479210 147.8303060 107.0815780  25.1230390 147.1651130 108.2322050
  28.9284060 152.9296220 111.6194920  28.5527660 152.1624150 111.1876210
  28.1987180 153.3118920 112.1069850  13.5179820 153.6083360 118.2403970
  13.8852860 153.5210760 119.1199990  12.9490640 152.8449910 118.1410830
  28.3183680 152.0767740 121.2534440  28.0869770 151.8480490 120.3532390
  28.5788230 152.9967290 121.2079330  13.0695820 150.5192450 122.1462390
  12.1751870 150.4859210 122.4856100  13.6093370 150.7179240 122.9113640
  26.7571750 147.3024170 124.0314140  27.6341930 147.3107570 124.4148140
  26.7692590 146.5655010 123.4206490  11.6941970 150.4329720 109.6425960
  10.7906050 150.6959920 109.4677620  12.1782590 150.7040890 108.8625920
  28.2035020 151.1553710 114.9202160  28.7272500 150.6616360 114.2892330
  28.7894440 151.2904070 115.6649730  28.3824740 151.2393580 118.4421710
  27.4327450 151.2057120 118.5566700  28.5637750 152.1493690 118.2071480
  14.2369180 149.4895260 107.5520340  14.9460880 149.0678480 107.0667620
  13.5209120 149.5570490 106.9203690  13.8843340 145.5434590 106.5922990
  14.6071470 146.0843530 106.9104210  14.1567860 145.2698010 105.7164530
  27.6934990 150.4127060 110.8594570  28.1894110 150.1797930 111.6443450
  27.4951060 149.5738900 110.4432210  13.5735530 144.7940780 116.4945610
  14.2211720 144.2438160 116.0540770  13.9937370 145.0483930 117.3161420
  29.1222150 149.0488010 113.3932250  29.0121430 148.8944050 114.3314520
  29.8829740 148.5208950 113.1507660  27.4687870 144.9882140 119.8515250
  28.1060090 145.6016280 120.2174440  27.6162760 145.0242800 118.9064480
  30.0112420 146.8795930 106.6338390  30.9361730 146.7477110 106.4256680
  29.9888210 146.9588750 107.5874840  30.0850910 147.6506590 109.2595100
  29.2902410 147.5851710 109.7888010  30.2894190 148.5857230 109.2480450
  13.3267530 144.9496450 119.2370930  12.9782350 145.4060270 120.0029110
  12.9955230 144.0553580 119.3193360  20.8392350 146.1408330 122.7590350
  20.7781240 146.7330160 123.5085760  21.7792730 146.0334290 122.6140610
  23.4766910 145.7978390 122.3982640  24.0907320 146.1157680 121.7363720
  24.0216470 145.3126980 123.0178500  13.9988170 144.4772650 122.5121700
  14.5471160 144.2960700 121.7487810  14.0643480 143.6866760 123.0478010
  24.2174950 144.3610530 118.7251930  23.3434790 144.6945640 118.5224860
  24.1085700 143.8883710 119.5503800  25.1246930 146.5681400 120.1093650
  24.7960290 145.7533160 119.7295380  26.0729230 146.5251210 119.9859340
  21.9649770 145.2780370 117.6644840  21.1821560 145.7525870 117.9441600
  21.6712700 144.3735200 117.5558020  26.5170840 145.9803470 115.7093930
  26.9578930 145.9248570 114.8615530  26.2478430 146.8961480 115.7804110
  28.3809410 145.6118710 113.7202750  28.3197810 144.6679930 113.5733770
  29.1601440 145.7198800 114.2656210  13.3090180 145.5827850 110.1858560
  14.0669540 145.6956730 109.6122590  12.8467350 146.4197050 110.1401990
  19.8503990 147.6967120 113.1760870  19.0378500 147.3224010 112.8356750
  20.3545630 146.9412200 113.4782060  24.3528970 144.3609570 114.4143940
  24.9558340 144.9329780 114.8892460  23.6121960 144.9249010 114.1917840
  27.4963570 144.7631130 109.6884220  27.6914200 145.6614580 109.9551650
  26.7093440 144.5318210 110.1817170  15.6815330 146.1091900 108.7260530
  16.2108090 145.3221700 108.5968480  16.3143650 146.7883090 108.9596060
  17.8753170 145.8467040 111.7805920  17.2455910 145.1454350 111.9476050
  17.3358310 146.6071170 111.5639080  18.0008730 145.1251020 124.2158410
  17.7193000 145.6284620 123.4519230  18.3828430 144.3272770 123.8500540
  24.6024190 144.5404600 124.7938880  24.4889640 144.8599210 125.6890400
  25.4193930 144.9417110 124.4976160  23.5082340 152.5597070  95.1573620
  23.4276390 151.6451680  94.8865330  23.0946760 153.0564140  94.4513330
  21.6400380 154.3376090  97.0382890  20.8642480 153.8576530  97.3281460
  22.2913310 153.6581740  96.8639050  15.6566210 154.6495900  97.9158650
  14.8251090 154.3944610  98.3155160  16.2647190 154.7206670  98.6516570
  14.0658160 149.6097790  91.7001040  13.1774860 149.9513760  91.5980920
  14.3499350 149.4098110  90.8081870  12.0291170 152.2103440  97.5840740
  12.6007280 151.4425640  97.5844380  12.0292710 152.5092200  96.6747350
  13.2716040 147.6187800  99.3709670  13.0918880 146.7213550  99.6512430
  12.8696120 148.1659670 100.0456620  22.1114540 149.8203660  97.2721980
  22.4879360 148.9475540  97.1595650  22.0134050 150.1562360  96.3812420
  16.2419550 148.1929290  92.7339420  16.3486300 149.0933020  93.0408180
  15.3311910 148.1447260  92.4434070  25.8938660 147.3154100  94.2050320
  26.7148280 146.8250670  94.2475800  25.9272740 147.9051760  94.9582160
  13.8902710 150.1148300  97.9792010  14.5712820 150.3786670  98.5979410
  13.5750760 149.2749170  98.3130020  18.0827280 151.1615660  97.0664600
  18.5905500 151.6596630  97.7069620  18.6140520 150.3850860  96.8903960
  30.1838210 149.3320850 100.7693950  29.4790380 149.7202560 100.2509060
  30.4496130 150.0271140 101.3714880  16.3663380 145.8014220 101.3328020
  16.3681820 146.3186610 100.5273920  15.5367690 145.3244400 101.3097950
  26.1300140 149.2554480  96.9777860  25.4255710 149.5439370  97.5580970
  26.4912300 150.0654590  96.6177420  16.0478710 147.5124180  99.3398470
  16.3895520 148.3566230  99.0452340  15.1094520 147.6607920  99.4563810
  29.1987060 148.7009270  97.3687070  28.2511970 148.7348250  97.5002500
  29.5237050 149.5148220  97.7536430  19.7306600 145.0006450  95.6643060
  20.0381580 144.4453340  94.9478560  18.8007300 145.1350910  95.4816050
  22.1187360 153.0655280  92.4003180  21.1916640 152.9992660  92.6291650
  22.2712180 154.0035410  92.2858420  22.1056440 149.3372280  89.3970340
  21.1660110 149.4986240  89.4822800  22.4239700 150.0557960  88.8506330
  28.6269200 154.0190800  99.3749370  27.7987830 154.0883890  98.8999500
  29.2219680 154.6045110  98.9065200  26.1484650 154.6275580  92.9038430
  25.5297070 154.2895130  92.2564730  26.1309100 153.9835340  93.6117620
  25.5911210 150.8060120 100.3204240  25.1782390 151.6313830 100.5744230
  24.8587160 150.2205160 100.1280600  17.7244000 153.5920020  95.1822910
  17.3201000 152.8797270  94.6868810  17.8107120 153.2473260  96.0710950
  16.4372620 150.3663230  98.9621950  16.9887210 150.4758570  98.1875200
  16.9516130 150.7400830  99.6777180  24.3249350 153.8662390  89.9111180
  24.7642630 153.0284820  89.7649000  25.0377770 154.4991790  89.9975320
  16.1115350 153.8882590 102.5727290  15.9723120 154.7605390 102.9414690
  15.2296710 153.5455400 102.4275230  27.9066490 145.1205200  88.2252220
  27.5939150 145.2132030  89.1251290  28.6678960 145.6986230  88.1749650
  14.4248630 152.4865000  92.6829560  14.3046230 153.2127090  92.0710830
  14.1149520 151.7167910  92.2057470  29.1167780 149.8576700 104.2026360
  28.5012050 150.3656370 103.6741820  28.7964200 148.9575030 104.1452300
  16.8912290 145.8300070  96.0653230  16.4480440 146.6109610  95.7337750
  17.4497280 146.1529960  96.7724170  21.1782100 148.6968590 101.6688550
  20.7161470 148.9051610 102.4808490  20.7760210 147.8827940 101.3659220
  26.1786610 149.9177540 102.7985210  25.3280200 149.6183290 103.1194280
  26.0188400 150.1619550 101.8869030  23.2736320 151.4179290 104.8984000
  23.5989730 150.5843040 104.5586230  24.0616650 151.9407810 105.0462330
  20.0071110 145.4510770  90.9459060  19.3825290 145.4470640  91.6712370
  19.9201230 144.5841730  90.5495030  18.9288190 146.3747400  97.9242830
  19.2260520 147.2810230  97.8434850  19.4773750 145.8866180  97.3102400
  16.6826510 150.9533640  93.7934480  16.4567430 150.7370810  94.6981100
  15.9019040 151.3862100  93.4480450  23.9124270 150.9597010  92.3925130
  23.3133160 151.6832810  92.2088750  24.4603880 150.8973790  91.6101580
  19.1225720 151.8519220 104.4594750  19.0269320 150.9113950 104.3095150
  19.9657700 152.0734290 104.0642820  22.5189140 149.5960550  94.4228410
  22.9118710 149.9132750  93.6097100  22.8805990 148.7172430  94.5372930
  14.2536260 148.2632890 102.6128530  13.8599650 149.1108100 102.8201310
  13.5654660 147.6259260 102.8037170  20.8281310 148.3467860 105.6825270
  20.1379630 148.1540060 106.3171360  21.5713610 148.6302500 106.2149570
  11.5553310 146.1861350  96.6458610  11.2666360 146.7564210  97.3583590
  12.2999070 145.7065800  97.0089840  11.7423540 150.1281470  87.8561330
  11.6598210 151.0712230  87.9976320  11.3906600 149.9856380  86.9773680
  23.1044280 152.1866300  98.5179190  22.3725400 152.6953110  98.8669290
  22.7068620 151.3696280  98.2167970  19.5421670 148.8620500  96.9231680
  19.5457730 148.4210450  96.0736220  20.4372790 149.1837830  97.0303500
  15.3924050 148.7446990  95.8825890  15.0524100 149.2222220  96.6392940
  14.6301370 148.2912110  95.5226990  19.6041820 149.8632580  89.9138440
  19.7254640 149.8219060  90.8624260  19.2190330 150.7256730  89.7585170
  23.5670190 147.6399980  97.9302130  23.5842930 148.0908630  98.7743980
  23.3185770 146.7405620  98.1435570  18.6163320 152.1733720  89.3121740
  18.0480220 151.7251970  88.6857650  19.3252320 152.5326500  88.7786890
  26.9940940 145.0532160 103.7688510  27.3186710 144.3221820 104.2946490
  27.0297450 144.7345800 102.8669500  19.8429640 152.9222280  98.6697090
  20.2099770 152.4480850  99.4158430  19.6534700 153.7963850  99.0105430
  12.7070130 147.6665970  94.7990560  12.4217050 147.3021640  95.6369180
  12.6448990 146.9346430  94.1853700  17.6329010 151.9630920 100.9881300
  17.3286080 152.8422900 101.2131660  18.5875470 152.0230710 101.0238740
  22.3808720 146.5595230  91.5203930  21.5673330 146.0608400  91.4449240
  22.1870670 147.3993480  91.1040280  25.0957110 150.9314880  89.8166090
  25.9836730 151.2432110  89.6417430  25.0662200 150.0587130  89.4246670
  13.6892740 152.8033660 102.1352660  13.3307680 153.4687510 102.7226000
  13.3947300 151.9717210 102.5065280  16.8905860 153.2617900 105.0192210
  16.5906000 153.4075080 104.1220030  17.6617100 152.7023190 104.9265600
  27.3671380 152.2426720  89.2845950  27.2835100 152.6740940  88.4342390
  28.0865570 152.7025070  89.7172770  12.2000790 152.8024920  88.7587260
  13.0695640 153.0849720  89.0423180  11.7091110 153.6160790  88.6436070
  15.2647380 144.5335780  93.3518060  15.1362010 144.5253680  94.3002980
  14.4409400 144.8718870  93.0009070  12.2641310 146.2926900 102.8124760
  11.5499830 146.4923820 103.4177370  12.6836350 145.5166470 103.1839560
  23.7580090 148.7849210 100.5626210  24.1260910 147.9644420 100.8905780
  22.8978290 148.8451100 100.9781860  27.1242120 147.7406150  91.3713770
  26.4955280 147.8451820  90.6572000  26.6294040 147.9602930  92.1607650
  19.0926150 150.0192100  92.7871650  18.3842300 150.4878440  93.2285260
  19.3770630 149.3614110  93.4216840  20.7182080 151.4388800 100.7864180
  21.2167330 151.9134620 101.4516030  20.8605030 150.5152320 100.9934210
  23.1241580 146.7442760  94.2267440  23.0009360 146.7628890  93.2776950
  24.0726140 146.7921700  94.3465840  17.2961170 148.3277180  90.1622360
  18.1451700 148.7647330  90.0962550  16.9292440 148.6397440  90.9894420
  27.9248940 147.6556760 101.6292570  27.4222540 148.3962160 101.9686380
  28.7405600 148.0440760 101.3129360  26.2170950 152.8989940  95.0753930
  25.2761090 152.9140170  95.2501620  26.5315020 152.1125900  95.5214230
  16.1952590 154.5809540  88.6357890  16.9615860 154.4690900  89.1983320
  16.2727280 153.8847510  87.9834660  14.8899350 152.0134610  89.3190780
  14.9702940 151.0662120  89.4308180  15.7819100 152.3441490  89.4251440
  12.4170150 153.8349530 104.5546950  12.9209170 153.2556810 105.1263180
  11.6777570 154.1189760 105.0923320  14.4493230 151.9779120 105.4497020
  14.4898570 151.6792990 106.3582250  15.3038730 152.3786730 105.2904540
  18.2271620 154.5774670  90.6100530  18.6488040 154.4114540  91.4531920
  18.3522460 153.7674900  90.1155670  16.3899040 150.5571220 103.4171510
  15.8595500 150.0662170 102.7894850  17.0587110 150.9855420 102.8829440
  20.7399260 153.6012280  87.8577630  21.2604920 152.8861300  87.4918780
  21.3867660 154.2398150  88.1578140  25.7599270 152.3636840 105.1851850
  26.3420040 151.6089160 105.0972330  25.9361040 152.8944280 104.4083330
  16.8771340 147.5233590 103.4968800  16.7828210 146.9054340 102.7719670
  16.2968730 148.2499880 103.2698710  19.6432780 146.0806830 100.5296190
  19.1950080 146.1031090  99.6841740  19.0097980 145.6825850 101.1266490
  22.3856230 152.7077340 102.5346470  22.5052440 152.1118480 103.2741310
  23.2450230 152.7447030 102.1147770  24.7244130 153.2614530 101.1108980
  24.1979350 153.7857150 100.5074120  25.0675470 153.8941920 101.7418710
  17.1230520 150.6507900  87.5558690  16.9219580 149.7875260  87.9172030
  16.9522570 150.5641260  86.6180290  19.1525000 149.2498690 103.7922290
  19.7424690 148.9414540 104.4800110  18.3345240 148.7778440 103.9482190
  23.9718430 148.8664500 104.0255310  23.2833950 148.2046040 103.9605300
  24.6924450 148.4202770 104.4703770  24.6018830 145.4616130  90.0845570
  24.8821120 144.6184030  90.4404990  23.8284560 145.6939240  90.5984320
  15.9213320 147.7508520  87.5436570  16.2239220 147.7575950  86.6355720
  16.6607910 147.4006380  88.0404230  19.1398250 146.6943140  88.5292770
  18.7920250 146.0167130  87.9495220  19.3411020 146.2332650  89.3436160
  12.4803890 153.2230790  94.9257140  11.8252730 152.9542430  94.2816840
  13.3181840 153.1135270  94.4759120  25.4294330 148.0172080  89.1475630
  25.8479210 147.8303060  88.3072290  25.1230390 147.1651130  89.4578560
  28.9284060 152.9296220  92.8451430  28.5527660 152.1624150  92.4132720
  28.1987180 153.3118920  93.3326360  13.5179820 153.6083360  99.4660480
  13.8852860 153.5210760 100.3456500  12.9490640 152.8449910  99.3667340
  28.3183680 152.0767740 102.4790950  28.0869770 151.8480490 101.5788900
  28.5788230 152.9967290 102.4335840  13.0695820 150.5192450 103.3718900
  12.1751870 150.4859210 103.7112610  13.6093370 150.7179240 104.1370150
  26.7571750 147.3024170 105.2570650  27.6341930 147.3107570 105.6404650
  26.7692590 146.5655010 104.6463000  11.6941970 150.4329720  90.8682470
  10.7906050 150.6959920  90.6934130  12.1782590 150.7040890  90.0882430
  28.2035020 151.1553710  96.1458670  28.7272500 150.6616360  95.5148840
  28.7894440 151.2904070  96.8906240  28.3824740 151.2393580  99.6678220
  27.4327450 151.2057120  99.7823210  28.5637750 152.1493690  99.4327990
  14.2369180 149.4895260  88.7776850  14.9460880 149.0678480  88.2924130
  13.5209120 149.5570490  88.1460200  13.8843340 145.5434590  87.8179500
  14.6071470 146.0843530  88.1360720  14.1567860 145.2698010  86.9421040
  27.6934990 150.4127060  92.0851080  28.1894110 150.1797930  92.8699960
  27.4951060 149.5738900  91.6688720  13.5735530 144.7940780  97.7202120
  14.2211720 144.2438160  97.2797280  13.9937370 145.0483930  98.5417930
  29.1222150 149.0488010  94.6188760  29.0121430 148.8944050  95.5571030
  29.8829740 148.5208950  94.3764170  27.4687870 144.9882140 101.0771760
  28.1060090 145.6016280 101.4430950  27.6162760 145.0242800 100.1320990
  30.0112420 146.8795930  87.8594900  30.9361730 146.7477110  87.6513190
  29.9888210 146.9588750  88.8131350  30.0850910 147.6506590  90.4851610
  29.2902410 147.5851710  91.0144520  30.2894190 148.5857230  90.4736960
  13.3267530 144.9496450 100.4627440  12.9782350 145.4060270 101.2285620
  12.9955230 144.0553580 100.5449870  20.8392350 146.1408330 103.9846860
  20.7781240 146.7330160 104.7342270  21.7792730 146.0334290 103.8397120
  23.4766910 145.7978390 103.6239150  24.0907320 146.1157680 102.9620230
  24.0216470 145.3126980 104.2435010  13.9988170 144.4772650 103.7378210
  14.5471160 144.2960700 102.9744320  14.0643480 143.6866760 104.2734520
  24.2174950 144.3610530  99.9508440  23.3434790 144.6945640  99.7481370
  24.1085700 143.8883710 100.7760310  25.1246930 146.5681400 101.3350160
  24.7960290 145.7533160 100.9551890  26.0729230 146.5251210 101.2115850
  21.9649770 145.2780370  98.8901350  21.1821560 145.7525870  99.1698110
  21.6712700 144.3735200  98.7814530  26.5170840 145.9803470  96.9350440
  26.9578930 145.9248570  96.0872040  26.2478430 146.8961480  97.0060620
  28.3809410 145.6118710  94.9459260  28.3197810 144.6679930  94.7990280
  29.1601440 145.7198800  95.4912720  13.3090180 145.5827850  91.4115070
  14.0669540 145.6956730  90.8379100  12.8467350 146.4197050  91.3658500
  19.8503990 147.6967120  94.4017380  19.0378500 147.3224010  94.0613260
  20.3545630 146.9412200  94.7038570  24.3528970 144.3609570  95.6400450
  24.9558340 144.9329780  96.1148970  23.6121960 144.9249010  95.4174350
  27.4963570 144.7631130  90.9140730  27.6914200 145.6614580  91.1808160
  26.7093440 144.5318210  91.4073680  15.6815330 146.1091900  89.9517040
  16.2108090 145.3221700  89.8224990  16.3143650 146.7883090  90.1852570
  17.8753170 145.8467040  93.0062430  17.2455910 145.1454350  93.1732560
  17.3358310 146.6071170  92.7895590  18.0008730 145.1251020 105.4414920
  17.7193000 145.6284620 104.6775740  18.3828430 144.3272770 105.0757050
  24.6024190 144.5404600 106.0195390  24.4889640 144.8599210 106.9146910
  25.4193930 144.9417110 105.7232670  23.5082340 152.5597070  76.3830130
  23.4276390 151.6451680  76.1121840  23.0946760 153.0564140  75.6769840
  21.6400380 154.3376090  78.2639400  20.8642480 153.8576530  78.5537970
  22.2913310 153.6581740  78.0895560  15.6566210 154.6495900  79.1415160
  14.8251090 154.3944610  79.5411670  16.2647190 154.7206670  79.8773080
  14.0658160 149.6097790  72.9257550  13.1774860 149.9513760  72.8237430
  14.3499350 149.4098110  72.0338380  12.0291170 152.2103440  78.8097250
  12.6007280 151.4425640  78.8100890  12.0292710 152.5092200  77.9003860
  13.2716040 147.6187800  80.5966180  13.0918880 146.7213550  80.8768940
  12.8696120 148.1659670  81.2713130  22.1114540 149.8203660  78.4978490
  22.4879360 148.9475540  78.3852160  22.0134050 150.1562360  77.6068930
  16.2419550 148.1929290  73.9595930  16.3486300 149.0933020  74.2664690
  15.3311910 148.1447260  73.6690580  25.8938660 147.3154100  75.4306830
  26.7148280 146.8250670  75.4732310  25.9272740 147.9051760  76.1838670
  13.8902710 150.1148300  79.2048520  14.5712820 150.3786670  79.8235920
  13.5750760 149.2749170  79.5386530  18.0827280 151.1615660  78.2921110
  18.5905500 151.6596630  78.9326130  18.6140520 150.3850860  78.1160470
  30.1838210 149.3320850  81.9950460  29.4790380 149.7202560  81.4765570
  30.4496130 150.0271140  82.5971390  16.3663380 145.8014220  82.5584530
  16.3681820 146.3186610  81.7530430  15.5367690 145.3244400  82.5354460
  26.1300140 149.2554480  78.2034370  25.4255710 149.5439370  78.7837480
  26.4912300 150.0654590  77.8433930  16.0478710 147.5124180  80.5654980
  16.3895520 148.3566230  80.2708850  15.1094520 147.6607920  80.6820320
  29.1987060 148.7009270  78.5943580  28.2511970 148.7348250  78.7259010
  29.5237050 149.5148220  78.9792940  19.7306600 145.0006450  76.8899570
  20.0381580 144.4453340  76.1735070  18.8007300 145.1350910  76.7072560
  22.1187360 153.0655280  73.6259690  21.1916640 152.9992660  73.8548160
  22.2712180 154.0035410  73.5114930  22.1056440 149.3372280  70.6226850
  21.1660110 149.4986240  70.7079310  22.4239700 150.0557960  70.0762840
  28.6269200 154.0190800  80.6005880  27.7987830 154.0883890  80.1256010
  29.2219680 154.6045110  80.1321710  26.1484650 154.6275580  74.1294940
  25.5297070 154.2895130  73.4821240  26.1309100 153.9835340  74.8374130
  25.5911210 150.8060120  81.5460750  25.1782390 151.6313830  81.8000740
  24.8587160 150.2205160  81.3537110  17.7244000 153.5920020  76.4079420
  17.3201000 152.8797270  75.9125320  17.8107120 153.2473260  77.2967460
  16.4372620 150.3663230  80.1878460  16.9887210 150.4758570  79.4131710
  16.9516130 150.7400830  80.9033690  24.3249350 153.8662390  71.1367690
  24.7642630 153.0284820  70.9905510  25.0377770 154.4991790  71.2231830
  16.1115350 153.8882590  83.7983800  15.9723120 154.7605390  84.1671200
  15.2296710 153.5455400  83.6531740  27.9066490 145.1205200  69.4508730
  27.5939150 145.2132030  70.3507800  28.6678960 145.6986230  69.4006160
  14.4248630 152.4865000  73.9086070  14.3046230 153.2127090  73.2967340
  14.1149520 151.7167910  73.4313980  29.1167780 149.8576700  85.4282870
  28.5012050 150.3656370  84.8998330  28.7964200 148.9575030  85.3708810
  16.8912290 145.8300070  77.2909740  16.4480440 146.6109610  76.9594260
  17.4497280 146.1529960  77.9980680  21.1782100 148.6968590  82.8945060
  20.7161470 148.9051610  83.7065000  20.7760210 147.8827940  82.5915730
  26.1786610 149.9177540  84.0241720  25.3280200 149.6183290  84.3450790
  26.0188400 150.1619550  83.1125540  23.2736320 151.4179290  86.1240510
  23.5989730 150.5843040  85.7842740  24.0616650 151.9407810  86.2718840
  20.0071110 145.4510770  72.1715570  19.3825290 145.4470640  72.8968880
  19.9201230 144.5841730  71.7751540  18.9288190 146.3747400  79.1499340
  19.2260520 147.2810230  79.0691360  19.4773750 145.8866180  78.5358910
  16.6826510 150.9533640  75.0190990  16.4567430 150.7370810  75.9237610
  15.9019040 151.3862100  74.6736960  23.9124270 150.9597010  73.6181640
  23.3133160 151.6832810  73.4345260  24.4603880 150.8973790  72.8358090
  19.1225720 151.8519220  85.6851260  19.0269320 150.9113950  85.5351660
  19.9657700 152.0734290  85.2899330  22.5189140 149.5960550  75.6484920
  22.9118710 149.9132750  74.8353610  22.8805990 148.7172430  75.7629440
  14.2536260 148.2632890  83.8385040  13.8599650 149.1108100  84.0457820
  13.5654660 147.6259260  84.0293680  20.8281310 148.3467860  86.9081780
  20.1379630 148.1540060  87.5427870  21.5713610 148.6302500  87.4406080
  11.5553310 146.1861350  77.8715120  11.2666360 146.7564210  78.5840100
  12.2999070 145.7065800  78.2346350  11.7423540 150.1281470  69.0817840
  11.6598210 151.0712230  69.2232830  11.3906600 149.9856380  68.2030190
  23.1044280 152.1866300  79.7435700  22.3725400 152.6953110  80.0925800
  22.7068620 151.3696280  79.4424480  19.5421670 148.8620500  78.1488190
  19.5457730 148.4210450  77.2992730  20.4372790 149.1837830  78.2560010
  15.3924050 148.7446990  77.1082400  15.0524100 149.2222220  77.8649450
  14.6301370 148.2912110  76.7483500  19.6041820 149.8632580  71.1394950
  19.7254640 149.8219060  72.0880770  19.2190330 150.7256730  70.9841680
  23.5670190 147.6399980  79.1558640  23.5842930 148.0908630  80.0000490
  23.3185770 146.7405620  79.3692080  18.6163320 152.1733720  70.5378250
  18.0480220 151.7251970  69.9114160  19.3252320 152.5326500  70.0043400
  26.9940940 145.0532160  84.9945020  27.3186710 144.3221820  85.5203000
  27.0297450 144.7345800  84.0926010  19.8429640 152.9222280  79.8953600
  20.2099770 152.4480850  80.6414940  19.6534700 153.7963850  80.2361940
  12.7070130 147.6665970  76.0247070  12.4217050 147.3021640  76.8625690
  12.6448990 146.9346430  75.4110210  17.6329010 151.9630920  82.2137810
  17.3286080 152.8422900  82.4388170  18.5875470 152.0230710  82.2495250
  22.3808720 146.5595230  72.7460440  21.5673330 146.0608400  72.6705750
  22.1870670 147.3993480  72.3296790  25.0957110 150.9314880  71.0422600
  25.9836730 151.2432110  70.8673940  25.0662200 150.0587130  70.6503180
  13.6892740 152.8033660  83.3609170  13.3307680 153.4687510  83.9482510
  13.3947300 151.9717210  83.7321790  16.8905860 153.2617900  86.2448720
  16.5906000 153.4075080  85.3476540  17.6617100 152.7023190  86.1522110
  27.3671380 152.2426720  70.5102460  27.2835100 152.6740940  69.6598900
  28.0865570 152.7025070  70.9429280  12.2000790 152.8024920  69.9843770
  13.0695640 153.0849720  70.2679690  11.7091110 153.6160790  69.8692580
  15.2647380 144.5335780  74.5774570  15.1362010 144.5253680  75.5259490
  14.4409400 144.8718870  74.2265580  12.2641310 146.2926900  84.0381270
  11.5499830 146.4923820  84.6433880  12.6836350 145.5166470  84.4096070
  23.7580090 148.7849210  81.7882720  24.1260910 147.9644420  82.1162290
  22.8978290 148.8451100  82.2038370  27.1242120 147.7406150  72.5970280
  26.4955280 147.8451820  71.8828510  26.6294040 147.9602930  73.3864160
  19.0926150 150.0192100  74.0128160  18.3842300 150.4878440  74.4541770
  19.3770630 149.3614110  74.6473350  20.7182080 151.4388800  82.0120690
  21.2167330 151.9134620  82.6772540  20.8605030 150.5152320  82.2190720
  23.1241580 146.7442760  75.4523950  23.0009360 146.7628890  74.5033460
  24.0726140 146.7921700  75.5722350  17.2961170 148.3277180  71.3878870
  18.1451700 148.7647330  71.3219060  16.9292440 148.6397440  72.2150930
  27.9248940 147.6556760  82.8549080  27.4222540 148.3962160  83.1942890
  28.7405600 148.0440760  82.5385870  26.2170950 152.8989940  76.3010440
  25.2761090 152.9140170  76.4758130  26.5315020 152.1125900  76.7470740
  16.1952590 154.5809540  69.8614400  16.9615860 154.4690900  70.4239830
  16.2727280 153.8847510  69.2091170  14.8899350 152.0134610  70.5447290
  14.9702940 151.0662120  70.6564690  15.7819100 152.3441490  70.6507950
  12.4170150 153.8349530  85.7803460  12.9209170 153.2556810  86.3519690
  11.6777570 154.1189760  86.3179830  14.4493230 151.9779120  86.6753530
  14.4898570 151.6792990  87.5838760  15.3038730 152.3786730  86.5161050
  18.2271620 154.5774670  71.8357040  18.6488040 154.4114540  72.6788430
  18.3522460 153.7674900  71.3412180  16.3899040 150.5571220  84.6428020
  15.8595500 150.0662170  84.0151360  17.0587110 150.9855420  84.1085950
  20.7399260 153.6012280  69.0834140  21.2604920 152.8861300  68.7175290
  21.3867660 154.2398150  69.3834650  25.7599270 152.3636840  86.4108360
  26.3420040 151.6089160  86.3228840  25.9361040 152.8944280  85.6339840
  16.8771340 147.5233590  84.7225310  16.7828210 146.9054340  83.9976180
  16.2968730 148.2499880  84.4955220  19.6432780 146.0806830  81.7552700
  19.1950080 146.1031090  80.9098250  19.0097980 145.6825850  82.3523000
  22.3856230 152.7077340  83.7602980  22.5052440 152.1118480  84.4997820
  23.2450230 152.7447030  83.3404280  24.7244130 153.2614530  82.3365490
  24.1979350 153.7857150  81.7330630  25.0675470 153.8941920  82.9675220
  17.1230520 150.6507900  68.7815200  16.9219580 149.7875260  69.1428540
  16.9522570 150.5641260  67.8436800  19.1525000 149.2498690  85.0178800
  19.7424690 148.9414540  85.7056620  18.3345240 148.7778440  85.1738700
  23.9718430 148.8664500  85.2511820  23.2833950 148.2046040  85.1861810
  24.6924450 148.4202770  85.6960280  24.6018830 145.4616130  71.3102080
  24.8821120 144.6184030  71.6661500  23.8284560 145.6939240  71.8240830
  15.9213320 147.7508520  68.7693080  16.2239220 147.7575950  67.8612230
  16.6607910 147.4006380  69.2660740  19.1398250 146.6943140  69.7549280
  18.7920250 146.0167130  69.1751730  19.3411020 146.2332650  70.5692670
  12.4803890 153.2230790  76.1513650  11.8252730 152.9542430  75.5073350
  13.3181840 153.1135270  75.7015630  25.4294330 148.0172080  70.3732140
  25.8479210 147.8303060  69.5328800  25.1230390 147.1651130  70.6835070
  28.9284060 152.9296220  74.0707940  28.5527660 152.1624150  73.6389230
  28.1987180 153.3118920  74.5582870  13.5179820 153.6083360  80.6916990
  13.8852860 153.5210760  81.5713010  12.9490640 152.8449910  80.5923850
  28.3183680 152.0767740  83.7047460  28.0869770 151.8480490  82.8045410
  28.5788230 152.9967290  83.6592350  13.0695820 150.5192450  84.5975410
  12.1751870 150.4859210  84.9369120  13.6093370 150.7179240  85.3626660
  26.7571750 147.3024170  86.4827160  27.6341930 147.3107570  86.8661160
  26.7692590 146.5655010  85.8719510  11.6941970 150.4329720  72.0938980
  10.7906050 150.6959920  71.9190640  12.1782590 150.7040890  71.3138940
  28.2035020 151.1553710  77.3715180  28.7272500 150.6616360  76.7405350
  28.7894440 151.2904070  78.1162750  28.3824740 151.2393580  80.8934730
  27.4327450 151.2057120  81.0079720  28.5637750 152.1493690  80.6584500
  14.2369180 149.4895260  70.0033360  14.9460880 149.0678480  69.5180640
  13.5209120 149.5570490  69.3716710  13.8843340 145.5434590  69.0436010
  14.6071470 146.0843530  69.3617230  14.1567860 145.2698010  68.1677550
  27.6934990 150.4127060  73.3107590  28.1894110 150.1797930  74.0956470
  27.4951060 149.5738900  72.8945230  13.5735530 144.7940780  78.9458630
  14.2211720 144.2438160  78.5053790  13.9937370 145.0483930  79.7674440
  29.1222150 149.0488010  75.8445270  29.0121430 148.8944050  76.7827540
  29.8829740 148.5208950  75.6020680  27.4687870 144.9882140  82.3028270
  28.1060090 145.6016280  82.6687460  27.6162760 145.0242800  81.3577500
  30.0112420 146.8795930  69.0851410  30.9361730 146.7477110  68.8769700
  29.9888210 146.9588750  70.0387860  30.0850910 147.6506590  71.7108120
  29.2902410 147.5851710  72.2401030  30.2894190 148.5857230  71.6993470
  13.3267530 144.9496450  81.6883950  12.9782350 145.4060270  82.4542130
  12.9955230 144.0553580  81.7706380  20.8392350 146.1408330  85.2103370
  20.7781240 146.7330160  85.9598780  21.7792730 146.0334290  85.0653630
  23.4766910 145.7978390  84.8495660  24.0907320 146.1157680  84.1876740
  24.0216470 145.3126980  85.4691520  13.9988170 144.4772650  84.9634720
  14.5471160 144.2960700  84.2000830  14.0643480 143.6866760  85.4991030
  24.2174950 144.3610530  81.1764950  23.3434790 144.6945640  80.9737880
  24.1085700 143.8883710  82.0016820  25.1246930 146.5681400  82.5606670
  24.7960290 145.7533160  82.1808400  26.0729230 146.5251210  82.4372360
  21.9649770 145.2780370  80.1157860  21.1821560 145.7525870  80.3954620
  21.6712700 144.3735200  80.0071040  26.5170840 145.9803470  78.1606950
  26.9578930 145.9248570  77.3128550  26.2478430 146.8961480  78.2317130
  28.3809410 145.6118710  76.1715770  28.3197810 144.6679930  76.0246790
  29.1601440 145.7198800  76.7169230  13.3090180 145.5827850  72.6371580
  14.0669540 145.6956730  72.0635610  12.8467350 146.4197050  72.5915010
  19.8503990 147.6967120  75.6273890  19.0378500 147.3224010  75.2869770
  20.3545630 146.9412200  75.9295080  24.3528970 144.3609570  76.8656960
  24.9558340 144.9329780  77.3405480  23.6121960 144.9249010  76.6430860
  27.4963570 144.7631130  72.1397240  27.6914200 145.6614580  72.4064670
  26.7093440 144.5318210  72.6330190  15.6815330 146.1091900  71.1773550
  16.2108090 145.3221700  71.0481500  16.3143650 146.7883090  71.4109080
  17.8753170 145.8467040  74.2318940  17.2455910 145.1454350  74.3989070
  17.3358310 146.6071170  74.0152100  18.0008730 145.1251020  86.6671430
  17.7193000 145.6284620  85.9032250  18.3828430 144.3272770  86.3013560
  24.6024190 144.5404600  87.2451900  24.4889640 144.8599210  88.1403420
  25.4193930 144.9417110  86.9489180  23.5082340 152.5597070  57.6086640
  23.4276390 151.6451680  57.3378350  23.0946760 153.0564140  56.9026350
  21.6400380 154.3376090  59.4895910  20.8642480 153.8576530  59.7794480
  22.2913310 153.6581740  59.3152070  15.6566210 154.6495900  60.3671670
  14.8251090 154.3944610  60.7668180  16.2647190 154.7206670  61.1029590
  14.0658160 149.6097790  54.1514060  13.1774860 149.9513760  54.0493940
  14.3499350 149.4098110  53.2594890  12.0291170 152.2103440  60.0353760
  12.6007280 151.4425640  60.0357400  12.0292710 152.5092200  59.1260370
  13.2716040 147.6187800  61.8222690  13.0918880 146.7213550  62.1025450
  12.8696120 148.1659670  62.4969640  22.1114540 149.8203660  59.7235000
  22.4879360 148.9475540  59.6108670  22.0134050 150.1562360  58.8325440
  16.2419550 148.1929290  55.1852440  16.3486300 149.0933020  55.4921200
  15.3311910 148.1447260  54.8947090  25.8938660 147.3154100  56.6563340
  26.7148280 146.8250670  56.6988820  25.9272740 147.9051760  57.4095180
  13.8902710 150.1148300  60.4305030  14.5712820 150.3786670  61.0492430
  13.5750760 149.2749170  60.7643040  18.0827280 151.1615660  59.5177620
  18.5905500 151.6596630  60.1582640  18.6140520 150.3850860  59.3416980
  30.1838210 149.3320850  63.2206970  29.4790380 149.7202560  62.7022080
  30.4496130 150.0271140  63.8227900  16.3663380 145.8014220  63.7841040
  16.3681820 146.3186610  62.9786940  15.5367690 145.3244400  63.7610970
  26.1300140 149.2554480  59.4290880  25.4255710 149.5439370  60.0093990
  26.4912300 150.0654590  59.0690440  16.0478710 147.5124180  61.7911490
  16.3895520 148.3566230  61.4965360  15.1094520 147.6607920  61.9076830
  29.1987060 148.7009270  59.8200090  28.2511970 148.7348250  59.9515520
  29.5237050 149.5148220  60.2049450  19.7306600 145.0006450  58.1156080
  20.0381580 144.4453340  57.3991580  18.8007300 145.1350910  57.9329070
  22.1187360 153.0655280  54.8516200  21.1916640 152.9992660  55.0804670
  22.2712180 154.0035410  54.7371440  22.1056440 149.3372280  51.8483360
  21.1660110 149.4986240  51.9335820  22.4239700 150.0557960  51.3019350
  28.6269200 154.0190800  61.8262390  27.7987830 154.0883890  61.3512520
  29.2219680 154.6045110  61.3578220  26.1484650 154.6275580  55.3551450
  25.5297070 154.2895130  54.7077750  26.1309100 153.9835340  56.0630640
  25.5911210 150.8060120  62.7717260  25.1782390 151.6313830  63.0257250
  24.8587160 150.2205160  62.5793620  17.7244000 153.5920020  57.6335930
  17.3201000 152.8797270  57.1381830  17.8107120 153.2473260  58.5223970
  16.4372620 150.3663230  61.4134970  16.9887210 150.4758570  60.6388220
  16.9516130 150.7400830  62.1290200  24.3249350 153.8662390  52.3624200
  24.7642630 153.0284820  52.2162020  25.0377770 154.4991790  52.4488340
  16.1115350 153.8882590  65.0240310  15.9723120 154.7605390  65.3927710
  15.2296710 153.5455400  64.8788250  27.9066490 145.1205200  50.6765240
  27.5939150 145.2132030  51.5764310  28.6678960 145.6986230  50.6262670
  14.4248630 152.4865000  55.1342580  14.3046230 153.2127090  54.5223850
  14.1149520 151.7167910  54.6570490  29.1167780 149.8576700  66.6539380
  28.5012050 150.3656370  66.1254840  28.7964200 148.9575030  66.5965320
  16.8912290 145.8300070  58.5166250  16.4480440 146.6109610  58.1850770
  17.4497280 146.1529960  59.2237190  21.1782100 148.6968590  64.1201570
  20.7161470 148.9051610  64.9321510  20.7760210 147.8827940  63.8172240
  26.1786610 149.9177540  65.2498230  25.3280200 149.6183290  65.5707300
  26.0188400 150.1619550  64.3382050  23.2736320 151.4179290  67.3497020
  23.5989730 150.5843040  67.0099250  24.0616650 151.9407810  67.4975350
  20.0071110 145.4510770  53.3972080  19.3825290 145.4470640  54.1225390
  19.9201230 144.5841730  53.0008050  18.9288190 146.3747400  60.3755850
  19.2260520 147.2810230  60.2947870  19.4773750 145.8866180  59.7615420
  16.6826510 150.9533640  56.2447500  16.4567430 150.7370810  57.1494120
  15.9019040 151.3862100  55.8993470  23.9124270 150.9597010  54.8438150
  23.3133160 151.6832810  54.6601770  24.4603880 150.8973790  54.0614600
  19.1225720 151.8519220  66.9107770  19.0269320 150.9113950  66.7608170
  19.9657700 152.0734290  66.5155840  22.5189140 149.5960550  56.8741430
  22.9118710 149.9132750  56.0610120  22.8805990 148.7172430  56.9885950
  14.2536260 148.2632890  65.0641550  13.8599650 149.1108100  65.2714330
  13.5654660 147.6259260  65.2550190  20.8281310 148.3467860  68.1338290
  20.1379630 148.1540060  68.7684380  21.5713610 148.6302500  68.6662590
  11.5553310 146.1861350  59.0971630  11.2666360 146.7564210  59.8096610
  12.2999070 145.7065800  59.4602860  11.7423540 150.1281470  50.3074350
  11.6598210 151.0712230  50.4489340  11.3906600 149.9856380  49.4286700
  23.1044280 152.1866300  60.9692210  22.3725400 152.6953110  61.3182310
  22.7068620 151.3696280  60.6680990  19.5421670 148.8620500  59.3744700
  19.5457730 148.4210450  58.5249240  20.4372790 149.1837830  59.4816520
  15.3924050 148.7446990  58.3338910  15.0524100 149.2222220  59.0905960
  14.6301370 148.2912110  57.9740010  19.6041820 149.8632580  52.3651460
  19.7254640 149.8219060  53.3137280  19.2190330 150.7256730  52.2098190
  23.5670190 147.6399980  60.3815150  23.5842930 148.0908630  61.2257000
  23.3185770 146.7405620  60.5948590  18.6163320 152.1733720  51.7634760
  18.0480220 151.7251970  51.1370670  19.3252320 152.5326500  51.2299910
  26.9940940 145.0532160  66.2201530  27.3186710 144.3221820  66.7459510
  27.0297450 144.7345800  65.3182520  19.8429640 152.9222280  61.1210110
  20.2099770 152.4480850  61.8671450  19.6534700 153.7963850  61.4618450
  12.7070130 147.6665970  57.2503580  12.4217050 147.3021640  58.0882200
  12.6448990 146.9346430  56.6366720  17.6329010 151.9630920  63.4394320
  17.3286080 152.8422900  63.6644680  18.5875470 152.0230710  63.4751760
  22.3808720 146.5595230  53.9716950  21.5673330 146.0608400  53.8962260
  22.1870670 147.3993480  53.5553300  25.0957110 150.9314880  52.2679110
  25.9836730 151.2432110  52.0930450  25.0662200 150.0587130  51.8759690
  13.6892740 152.8033660  64.5865680  13.3307680 153.4687510  65.1739020
  13.3947300 151.9717210  64.9578300  16.8905860 153.2617900  67.4705230
  16.5906000 153.4075080  66.5733050  17.6617100 152.7023190  67.3778620
  27.3671380 152.2426720  51.7358970  27.2835100 152.6740940  50.8855410
  28.0865570 152.7025070  52.1685790  12.2000790 152.8024920  51.2100280
  13.0695640 153.0849720  51.4936200  11.7091110 153.6160790  51.0949090
  15.2647380 144.5335780  55.8031080  15.1362010 144.5253680  56.7516000
  14.4409400 144.8718870  55.4522090  12.2641310 146.2926900  65.2637780
  11.5499830 146.4923820  65.8690390  12.6836350 145.5166470  65.6352580
  23.7580090 148.7849210  63.0139230  24.1260910 147.9644420  63.3418800
  22.8978290 148.8451100  63.4294880  27.1242120 147.7406150  53.8226790
  26.4955280 147.8451820  53.1085020  26.6294040 147.9602930  54.6120670
  19.0926150 150.0192100  55.2384670  18.3842300 150.4878440  55.6798280
  19.3770630 149.3614110  55.8729860  20.7182080 151.4388800  63.2377200
  21.2167330 151.9134620  63.9029050  20.8605030 150.5152320  63.4447230
  23.1241580 146.7442760  56.6780460  23.0009360 146.7628890  55.7289970
  24.0726140 146.7921700  56.7978860  17.2961170 148.3277180  52.6135380
  18.1451700 148.7647330  52.5475570  16.9292440 148.6397440  53.4407440
  27.9248940 147.6556760  64.0805590  27.4222540 148.3962160  64.4199400
  28.7405600 148.0440760  63.7642380  26.2170950 152.8989940  57.5266950
  25.2761090 152.9140170  57.7014640  26.5315020 152.1125900  57.9727250
  16.1952590 154.5809540  51.0870910  16.9615860 154.4690900  51.6496340
  16.2727280 153.8847510  50.4347680  14.8899350 152.0134610  51.7703800
  14.9702940 151.0662120  51.8821200  15.7819100 152.3441490  51.8764460
  12.4170150 153.8349530  67.0059970  12.9209170 153.2556810  67.5776200
  11.6777570 154.1189760  67.5436340  14.4493230 151.9779120  67.9010040
  14.4898570 151.6792990  68.8095270  15.3038730 152.3786730  67.7417560
  18.2271620 154.5774670  53.0613550  18.6488040 154.4114540  53.9044940
  18.3522460 153.7674900  52.5668690  16.3899040 150.5571220  65.8684530
  15.8595500 150.0662170  65.2407870  17.0587110 150.9855420  65.3342460
  20.7399260 153.6012280  50.3090650  21.2604920 152.8861300  49.9431800
  21.3867660 154.2398150  50.6091160  25.7599270 152.3636840  67.6364870
  26.3420040 151.6089160  67.5485350  25.9361040 152.8944280  66.8596350
  16.8771340 147.5233590  65.9481820  16.7828210 146.9054340  65.2232690
  16.2968730 148.2499880  65.7211730  19.6432780 146.0806830  62.9809210
  19.1950080 146.1031090  62.1354760  19.0097980 145.6825850  63.5779510
  22.3856230 152.7077340  64.9859490  22.5052440 152.1118480  65.7254330
  23.2450230 152.7447030  64.5660790  24.7244130 153.2614530  63.5622000
  24.1979350 153.7857150  62.9587140  25.0675470 153.8941920  64.1931730
  17.1230520 150.6507900  50.0071710  16.9219580 149.7875260  50.3685050
  16.9522570 150.5641260  49.0693310  19.1525000 149.2498690  66.2435310
  19.7424690 148.9414540  66.9313130  18.3345240 148.7778440  66.3995210
  23.9718430 148.8664500  66.4768330  23.2833950 148.2046040  66.4118320
  24.6924450 148.4202770  66.9216790  24.6018830 145.4616130  52.5358590
  24.8821120 144.6184030  52.8918010  23.8284560 145.6939240  53.0497340
  15.9213320 147.7508520  49.9949590  16.2239220 147.7575950  49.0868740
  16.6607910 147.4006380  50.4917250  19.1398250 146.6943140  50.9805790
  18.7920250 146.0167130  50.4008240  19.3411020 146.2332650  51.7949180
  12.4803890 153.2230790  57.3770160  11.8252730 152.9542430  56.7329860
  13.3181840 153.1135270  56.9272140  25.4294330 148.0172080  51.5988650
  25.8479210 147.8303060  50.7585310  25.1230390 147.1651130  51.9091580
  28.9284060 152.9296220  55.2964450  28.5527660 152.1624150  54.8645740
  28.1987180 153.3118920  55.7839380  13.5179820 153.6083360  61.9173500
  13.8852860 153.5210760  62.7969520  12.9490640 152.8449910  61.8180360
  28.3183680 152.0767740  64.9303970  28.0869770 151.8480490  64.0301920
  28.5788230 152.9967290  64.8848860  13.0695820 150.5192450  65.8231920
  12.1751870 150.4859210  66.1625630  13.6093370 150.7179240  66.5883170
  26.7571750 147.3024170  67.7083670  27.6341930 147.3107570  68.0917670
  26.7692590 146.5655010  67.0976020  11.6941970 150.4329720  53.3195490
  10.7906050 150.6959920  53.1447150  12.1782590 150.7040890  52.5395450
  28.2035020 151.1553710  58.5971690  28.7272500 150.6616360  57.9661860
  28.7894440 151.2904070  59.3419260  28.3824740 151.2393580  62.1191240
  27.4327450 151.2057120  62.2336230  28.5637750 152.1493690  61.8841010
  14.2369180 149.4895260  51.2289870  14.9460880 149.0678480  50.7437150
  13.5209120 149.5570490  50.5973220  13.8843340 145.5434590  50.2692520
  14.6071470 146.0843530  50.5873740  14.1567860 145.2698010  49.3934060
  27.6934990 150.4127060  54.5364100  28.1894110 150.1797930  55.3212980
  27.4951060 149.5738900  54.1201740  13.5735530 144.7940780  60.1715140
  14.2211720 144.2438160  59.7310300  13.9937370 145.0483930  60.9930950
  29.1222150 149.0488010  57.0701780  29.0121430 148.8944050  58.0084050
  29.8829740 148.5208950  56.8277190  27.4687870 144.9882140  63.5284780
  28.1060090 145.6016280  63.8943970  27.6162760 145.0242800  62.5834010
  30.0112420 146.8795930  50.3107920  30.9361730 146.7477110  50.1026210
  29.9888210 146.9588750  51.2644370  30.0850910 147.6506590  52.9364630
  29.2902410 147.5851710  53.4657540  30.2894190 148.5857230  52.9249980
  13.3267530 144.9496450  62.9140460  12.9782350 145.4060270  63.6798640
  12.9955230 144.0553580  62.9962890  20.8392350 146.1408330  66.4359880
  20.7781240 146.7330160  67.1855290  21.7792730 146.0334290  66.2910140
  23.4766910 145.7978390  66.0752170  24.0907320 146.1157680  65.4133250
  24.0216470 145.3126980  66.6948030  13.9988170 144.4772650  66.1891230
  14.5471160 144.2960700  65.4257340  14.0643480 143.6866760  66.7247540
  24.2174950 144.3610530  62.4021460  23.3434790 144.6945640  62.1994390
  24.1085700 143.8883710  63.2273330  25.1246930 146.5681400  63.7863180
  24.7960290 145.7533160  63.4064910  26.0729230 146.5251210  63.6628870
  21.9649770 145.2780370  61.3414370  21.1821560 145.7525870  61.6211130
  21.6712700 144.3735200  61.2327550  26.5170840 145.9803470  59.3863460
  26.9578930 145.9248570  58.5385060  26.2478430 146.8961480  59.4573640
  28.3809410 145.6118710  57.3972280  28.3197810 144.6679930  57.2503300
  29.1601440 145.7198800  57.9425740  13.3090180 145.5827850  53.8628090
  14.0669540 145.6956730  53.2892120  12.8467350 146.4197050  53.8171520
  19.8503990 147.6967120  56.8530400  19.0378500 147.3224010  56.5126280
  20.3545630 146.9412200  57.1551590  24.3528970 144.3609570  58.0913470
  24.9558340 144.9329780  58.5661990  23.6121960 144.9249010  57.8687370
  27.4963570 144.7631130  53.3653750  27.6914200 145.6614580  53.6321180
  26.7093440 144.5318210  53.8586700  15.6815330 146.1091900  52.4030060
  16.2108090 145.3221700  52.2738010  16.3143650 146.7883090  52.6365590
  17.8753170 145.8467040  55.4575450  17.2455910 145.1454350  55.6245580
  17.3358310 146.6071170  55.2408610  18.0008730 145.1251020  67.8927940
  17.7193000 145.6284620  67.1288760  18.3828430 144.3272770  67.5270070
  24.6024190 144.5404600  68.4708410  24.4889640 144.8599210  69.3659930
  25.4193930 144.9417110  68.1745690  23.5082340 152.5597070  38.8343150
  23.4276390 151.6451680  38.5634860  23.0946760 153.0564140  38.1282860
  21.6400380 154.3376090  40.7152420  20.8642480 153.8576530  41.0050990
  22.2913310 153.6581740  40.5408580  15.6566210 154.6495900  41.5928180
  14.8251090 154.3944610  41.9924690  16.2647190 154.7206670  42.3286100
  14.0658160 149.6097790  35.3770570  13.1774860 149.9513760  35.2750450
  14.3499350 149.4098110  34.4851400  12.0291170 152.2103440  41.2610270
  12.6007280 151.4425640  41.2613910  12.0292710 152.5092200  40.3516880
  13.2716040 147.6187800  43.0479200  13.0918880 146.7213550  43.3281960
  12.8696120 148.1659670  43.7226150  22.1114540 149.8203660  40.9491510
  22.4879360 148.9475540  40.8365180  22.0134050 150.1562360  40.0581950
  16.2419550 148.1929290  36.4108950  16.3486300 149.0933020  36.7177710
  15.3311910 148.1447260  36.1203600  25.8938660 147.3154100  37.8819850
  26.7148280 146.8250670  37.9245330  25.9272740 147.9051760  38.6351690
  13.8902710 150.1148300  41.6561540  14.5712820 150.3786670  42.2748940
  13.5750760 149.2749170  41.9899550  18.0827280 151.1615660  40.7434130
  18.5905500 151.6596630  41.3839150  18.6140520 150.3850860  40.5673490
  30.1838210 149.3320850  44.4463480  29.4790380 149.7202560  43.9278590
  30.4496130 150.0271140  45.0484410  16.3663380 145.8014220  45.0097550
  16.3681820 146.3186610  44.2043450  15.5367690 145.3244400  44.9867480
  26.1300140 149.2554480  40.6547390  25.4255710 149.5439370  41.2350500
  26.4912300 150.0654590  40.2946950  16.0478710 147.5124180  43.0168000
  16.3895520 148.3566230  42.7221870  15.1094520 147.6607920  43.1333340
  29.1987060 148.7009270  41.0456600  28.2511970 148.7348250  41.1772030
  29.5237050 149.5148220  41.4305960  19.7306600 145.0006450  39.3412590
  20.0381580 144.4453340  38.6248090  18.8007300 145.1350910  39.1585580
  22.1187360 153.0655280  36.0772710  21.1916640 152.9992660  36.3061180
  22.2712180 154.0035410  35.9627950  22.1056440 149.3372280  33.0739870
  21.1660110 149.4986240  33.1592330  22.4239700 150.0557960  32.5275860
  28.6269200 154.0190800  43.0518900  27.7987830 154.0883890  42.5769030
  29.2219680 154.6045110  42.5834730  26.1484650 154.6275580  36.5807960
  25.5297070 154.2895130  35.9334260  26.1309100 153.9835340  37.2887150
  25.5911210 150.8060120  43.9973770  25.1782390 151.6313830  44.2513760
  24.8587160 150.2205160  43.8050130  17.7244000 153.5920020  38.8592440
  17.3201000 152.8797270  38.3638340  17.8107120 153.2473260  39.7480480
  16.4372620 150.3663230  42.6391480  16.9887210 150.4758570  41.8644730
  16.9516130 150.7400830  43.3546710  24.3249350 153.8662390  33.5880710
  24.7642630 153.0284820  33.4418530  25.0377770 154.4991790  33.6744850
  16.1115350 153.8882590  46.2496820  15.9723120 154.7605390  46.6184220
  15.2296710 153.5455400  46.1044760  27.9066490 145.1205200  31.9021750
  27.5939150 145.2132030  32.8020820  28.6678960 145.6986230  31.8519180
  14.4248630 152.4865000  36.3599090  14.3046230 153.2127090  35.7480360
  14.1149520 151.7167910  35.8827000  29.1167780 149.8576700  47.8795890
  28.5012050 150.3656370  47.3511350  28.7964200 148.9575030  47.8221830
  16.8912290 145.8300070  39.7422760  16.4480440 146.6109610  39.4107280
  17.4497280 146.1529960  40.4493700  21.1782100 148.6968590  45.3458080
  20.7161470 148.9051610  46.1578020  20.7760210 147.8827940  45.0428750
  26.1786610 149.9177540  46.4754740  25.3280200 149.6183290  46.7963810
  26.0188400 150.1619550  45.5638560  23.2736320 151.4179290  48.5753530
  23.5989730 150.5843040  48.2355760  24.0616650 151.9407810  48.7231860
  20.0071110 145.4510770  34.6228590  19.3825290 145.4470640  35.3481900
  19.9201230 144.5841730  34.2264560  18.9288190 146.3747400  41.6012360
  19.2260520 147.2810230  41.5204380  19.4773750 145.8866180  40.9871930
  16.6826510 150.9533640  37.4704010  16.4567430 150.7370810  38.3750630
  15.9019040 151.3862100  37.1249980  23.9124270 150.9597010  36.0694660
  23.3133160 151.6832810  35.8858280  24.4603880 150.8973790  35.2871110
  19.1225720 151.8519220  48.1364280  19.0269320 150.9113950  47.9864680
  19.9657700 152.0734290  47.7412350  22.5189140 149.5960550  38.0997940
  22.9118710 149.9132750  37.2866630  22.8805990 148.7172430  38.2142460
  14.2536260 148.2632890  46.2898060  13.8599650 149.1108100  46.4970840
  13.5654660 147.6259260  46.4806700  20.8281310 148.3467860  49.3594800
  20.1379630 148.1540060  49.9940890  21.5713610 148.6302500  49.8919100
  11.5553310 146.1861350  40.3228140  11.2666360 146.7564210  41.0353120
  12.2999070 145.7065800  40.6859370  11.7423540 150.1281470  31.5330860
  11.6598210 151.0712230  31.6745850  11.3906600 149.9856380  30.6543210
  23.1044280 152.1866300  42.1948720  22.3725400 152.6953110  42.5438820
  22.7068620 151.3696280  41.8937500  19.5421670 148.8620500  40.6001210
  19.5457730 148.4210450  39.7505750  20.4372790 149.1837830  40.7073030
  15.3924050 148.7446990  39.5595420  15.0524100 149.2222220  40.3162470
  14.6301370 148.2912110  39.1996520  19.6041820 149.8632580  33.5907970
  19.7254640 149.8219060  34.5393790  19.2190330 150.7256730  33.4354700
  23.5670190 147.6399980  41.6071660  23.5842930 148.0908630  42.4513510
  23.3185770 146.7405620  41.8205100  18.6163320 152.1733720  32.9891270
  18.0480220 151.7251970  32.3627180  19.3252320 152.5326500  32.4556420
  26.9940940 145.0532160  47.4458040  27.3186710 144.3221820  47.9716020
  27.0297450 144.7345800  46.5439030  19.8429640 152.9222280  42.3466620
  20.2099770 152.4480850  43.0927960  19.6534700 153.7963850  42.6874960
  12.7070130 147.6665970  38.4760090  12.4217050 147.3021640  39.3138710
  12.6448990 146.9346430  37.8623230  17.6329010 151.9630920  44.6650830
  17.3286080 152.8422900  44.8901190  18.5875470 152.0230710  44.7008270
  22.3808720 146.5595230  35.1973460  21.5673330 146.0608400  35.1218770
  22.1870670 147.3993480  34.7809810  25.0957110 150.9314880  33.4935620
  25.9836730 151.2432110  33.3186960  25.0662200 150.0587130  33.1016200
  13.6892740 152.8033660  45.8122190  13.3307680 153.4687510  46.3995530
  13.3947300 151.9717210  46.1834810  16.8905860 153.2617900  48.6961740
  16.5906000 153.4075080  47.7989560  17.6617100 152.7023190  48.6035130
  27.3671380 152.2426720  32.9615480  27.2835100 152.6740940  32.1111920
  28.0865570 152.7025070  33.3942300  12.2000790 152.8024920  32.4356790
  13.0695640 153.0849720  32.7192710  11.7091110 153.6160790  32.3205600
  15.2647380 144.5335780  37.0287590  15.1362010 144.5253680  37.9772510
  14.4409400 144.8718870  36.6778600  12.2641310 146.2926900  46.4894290
  11.5499830 146.4923820  47.0946900  12.6836350 145.5166470  46.8609090
  23.7580090 148.7849210  44.2395740  24.1260910 147.9644420  44.5675310
  22.8978290 148.8451100  44.6551390  27.1242120 147.7406150  35.0483300
  26.4955280 147.8451820  34.3341530  26.6294040 147.9602930  35.8377180
  19.0926150 150.0192100  36.4641180  18.3842300 150.4878440  36.9054790
  19.3770630 149.3614110  37.0986370  20.7182080 151.4388800  44.4633710
  21.2167330 151.9134620  45.1285560  20.8605030 150.5152320  44.6703740
  23.1241580 146.7442760  37.9036970  23.0009360 146.7628890  36.9546480
  24.0726140 146.7921700  38.0235370  17.2961170 148.3277180  33.8391890
  18.1451700 148.7647330  33.7732080  16.9292440 148.6397440  34.6663950
  27.9248940 147.6556760  45.3062100  27.4222540 148.3962160  45.6455910
  28.7405600 148.0440760  44.9898890  26.2170950 152.8989940  38.7523460
  25.2761090 152.9140170  38.9271150  26.5315020 152.1125900  39.1983760
  16.1952590 154.5809540  32.3127420  16.9615860 154.4690900  32.8752850
  16.2727280 153.8847510  31.6604190  14.8899350 152.0134610  32.9960310
  14.9702940 151.0662120  33.1077710  15.7819100 152.3441490  33.1020970
  12.4170150 153.8349530  48.2316480  12.9209170 153.2556810  48.8032710
  11.6777570 154.1189760  48.7692850  14.4493230 151.9779120  49.1266550
  14.4898570 151.6792990  50.0351780  15.3038730 152.3786730  48.9674070
  18.2271620 154.5774670  34.2870060  18.6488040 154.4114540  35.1301450
  18.3522460 153.7674900  33.7925200  16.3899040 150.5571220  47.0941040
  15.8595500 150.0662170  46.4664380  17.0587110 150.9855420  46.5598970
  20.7399260 153.6012280  31.5347160  21.2604920 152.8861300  31.1688310
  21.3867660 154.2398150  31.8347670  25.7599270 152.3636840  48.8621380
  26.3420040 151.6089160  48.7741860  25.9361040 152.8944280  48.0852860
  16.8771340 147.5233590  47.1738330  16.7828210 146.9054340  46.4489200
  16.2968730 148.2499880  46.9468240  19.6432780 146.0806830  44.2065720
  19.1950080 146.1031090  43.3611270  19.0097980 145.6825850  44.8036020
  22.3856230 152.7077340  46.2116000  22.5052440 152.1118480  46.9510840
  23.2450230 152.7447030  45.7917300  24.7244130 153.2614530  44.7878510
  24.1979350 153.7857150  44.1843650  25.0675470 153.8941920  45.4188240
  17.1230520 150.6507900  31.2328220  16.9219580 149.7875260  31.5941560
  16.9522570 150.5641260  30.2949820  19.1525000 149.2498690  47.4691820
  19.7424690 148.9414540  48.1569640  18.3345240 148.7778440  47.6251720
  23.9718430 148.8664500  47.7024840  23.2833950 148.2046040  47.6374830
  24.6924450 148.4202770  48.1473300  24.6018830 145.4616130  33.7615100
  24.8821120 144.6184030  34.1174520  23.8284560 145.6939240  34.2753850
  15.9213320 147.7508520  31.2206100  16.2239220 147.7575950  30.3125250
  16.6607910 147.4006380  31.7173760  19.1398250 146.6943140  32.2062300
  18.7920250 146.0167130  31.6264750  19.3411020 146.2332650  33.0205690
  12.4803890 153.2230790  38.6026670  11.8252730 152.9542430  37.9586370
  13.3181840 153.1135270  38.1528650  25.4294330 148.0172080  32.8245160
  25.8479210 147.8303060  31.9841820  25.1230390 147.1651130  33.1348090
  28.9284060 152.9296220  36.5220960  28.5527660 152.1624150  36.0902250
  28.1987180 153.3118920  37.0095890  13.5179820 153.6083360  43.1430010
  13.8852860 153.5210760  44.0226030  12.9490640 152.8449910  43.0436870
  28.3183680 152.0767740  46.1560480  28.0869770 151.8480490  45.2558430
  28.5788230 152.9967290  46.1105370  13.0695820 150.5192450  47.0488430
  12.1751870 150.4859210  47.3882140  13.6093370 150.7179240  47.8139680
  26.7571750 147.3024170  48.9340180  27.6341930 147.3107570  49.3174180
  26.7692590 146.5655010  48.3232530  11.6941970 150.4329720  34.5452000
  10.7906050 150.6959920  34.3703660  12.1782590 150.7040890  33.7651960
  28.2035020 151.1553710  39.8228200  28.7272500 150.6616360  39.1918370
  28.7894440 151.2904070  40.5675770  28.3824740 151.2393580  43.3447750
  27.4327450 151.2057120  43.4592740  28.5637750 152.1493690  43.1097520
  14.2369180 149.4895260  32.4546380  14.9460880 149.0678480  31.9693660
  13.5209120 149.5570490  31.8229730  13.8843340 145.5434590  31.4949030
  14.6071470 146.0843530  31.8130250  14.1567860 145.2698010  30.6190570
  27.6934990 150.4127060  35.7620610  28.1894110 150.1797930  36.5469490
  27.4951060 149.5738900  35.3458250  13.5735530 144.7940780  41.3971650
  14.2211720 144.2438160  40.9566810  13.9937370 145.0483930  42.2187460
  29.1222150 149.0488010  38.2958290  29.0121430 148.8944050  39.2340560
  29.8829740 148.5208950  38.0533700  27.4687870 144.9882140  44.7541290
  28.1060090 145.6016280  45.1200480  27.6162760 145.0242800  43.8090520
  30.0112420 146.8795930  31.5364430  30.9361730 146.7477110  31.3282720
  29.9888210 146.9588750  32.4900880  30.0850910 147.6506590  34.1621140
  29.2902410 147.5851710  34.6914050  30.2894190 148.5857230  34.1506490
  13.3267530 144.9496450  44.1396970  12.9782350 145.4060270  44.9055150
  12.9955230 144.0553580  44.2219400  20.8392350 146.1408330  47.6616390
  20.7781240 146.7330160  48.4111800  21.7792730 146.0334290  47.5166650
  23.4766910 145.7978390  47.3008680  24.0907320 146.1157680  46.6389760
  24.0216470 145.3126980  47.9204540  13.9988170 144.4772650  47.4147740
  14.5471160 144.2960700  46.6513850  14.0643480 143.6866760  47.9504050
  24.2174950 144.3610530  43.6277970  23.3434790 144.6945640  43.4250900
  24.1085700 143.8883710  44.4529840  25.1246930 146.5681400  45.0119690
  24.7960290 145.7533160  44.6321420  26.0729230 146.5251210  44.8885380
  21.9649770 145.2780370  42.5670880  21.1821560 145.7525870  42.8467640
  21.6712700 144.3735200  42.4584060  26.5170840 145.9803470  40.6119970
  26.9578930 145.9248570  39.7641570  26.2478430 146.8961480  40.6830150
  28.3809410 145.6118710  38.6228790  28.3197810 144.6679930  38.4759810
  29.1601440 145.7198800  39.1682250  13.3090180 145.5827850  35.0884600
  14.0669540 145.6956730  34.5148630  12.8467350 146.4197050  35.0428030
  19.8503990 147.6967120  38.0786910  19.0378500 147.3224010  37.7382790
  20.3545630 146.9412200  38.3808100  24.3528970 144.3609570  39.3169980
  24.9558340 144.9329780  39.7918500  23.6121960 144.9249010  39.0943880
  27.4963570 144.7631130  34.5910260  27.6914200 145.6614580  34.8577690
  26.7093440 144.5318210  35.0843210  15.6815330 146.1091900  33.6286570
  16.2108090 145.3221700  33.4994520  16.3143650 146.7883090  33.8622100
  17.8753170 145.8467040  36.6831960  17.2455910 145.1454350  36.8502090
  17.3358310 146.6071170  36.4665120  18.0008730 145.1251020  49.1184450
  17.7193000 145.6284620  48.3545270  18.3828430 144.3272770  48.7526580
  24.6024190 144.5404600  49.6964920  24.4889640 144.8599210  50.5916440
  25.4193930 144.9417110  49.4002200  23.5082340 152.5597070  20.0599660
  23.4276390 151.6451680  19.7891370  23.0946760 153.0564140  19.3539370
  21.6400380 154.3376090  21.9408930  20.8642480 153.8576530  22.2307500
  22.2913310 153.6581740  21.7665090  15.6566210 154.6495900  22.8184690
  14.8251090 154.3944610  23.2181200  16.2647190 154.7206670  23.5542610
  14.0658160 149.6097790  16.6027080  13.1774860 149.9513760  16.5006960
  14.3499350 149.4098110  15.7107910  12.0291170 152.2103440  22.4866780
  12.6007280 151.4425640  22.4870420  12.0292710 152.5092200  21.5773390
  13.2716040 147.6187800  24.2735710  13.0918880 146.7213550  24.5538470
  12.8696120 148.1659670  24.9482660  22.1114540 149.8203660  22.1748020
  22.4879360 148.9475540  22.0621690  22.0134050 150.1562360  21.2838460
  16.2419550 148.1929290  17.6365460  16.3486300 149.0933020  17.9434220
  15.3311910 148.1447260  17.3460110  25.8938660 147.3154100  19.1076360
  26.7148280 146.8250670  19.1501840  25.9272740 147.9051760  19.8608200
  13.8902710 150.1148300  22.8818050  14.5712820 150.3786670  23.5005450
  13.5750760 149.2749170  23.2156060  18.0827280 151.1615660  21.9690640
  18.5905500 151.6596630  22.6095660  18.6140520 150.3850860  21.7930000
  30.1838210 149.3320850  25.6719990  29.4790380 149.7202560  25.1535100
  30.4496130 150.0271140  26.2740920  16.3663380 145.8014220  26.2354060
  16.3681820 146.3186610  25.4299960  15.5367690 145.3244400  26.2123990
  26.1300140 149.2554480  21.8803900  25.4255710 149.5439370  22.4607010
  26.4912300 150.0654590  21.5203460  16.0478710 147.5124180  24.2424510
  16.3895520 148.3566230  23.9478380  15.1094520 147.6607920  24.3589850
  29.1987060 148.7009270  22.2713110  28.2511970 148.7348250  22.4028540
  29.5237050 149.5148220  22.6562470  19.7306600 145.0006450  20.5669100
  20.0381580 144.4453340  19.8504600  18.8007300 145.1350910  20.3842090
  22.1187360 153.0655280  17.3029220  21.1916640 152.9992660  17.5317690
  22.2712180 154.0035410  17.1884460  22.1056440 149.3372280  14.2996380
  21.1660110 149.4986240  14.3848840  22.4239700 150.0557960  13.7532370
  28.6269200 154.0190800  24.2775410  27.7987830 154.0883890  23.8025540
  29.2219680 154.6045110  23.8091240  26.1484650 154.6275580  17.8064470
  25.5297070 154.2895130  17.1590770  26.1309100 153.9835340  18.5143660
  25.5911210 150.8060120  25.2230280  25.1782390 151.6313830  25.4770270
  24.8587160 150.2205160  25.0306640  17.7244000 153.5920020  20.0848950
  17.3201000 152.8797270  19.5894850  17.8107120 153.2473260  20.9736990
  16.4372620 150.3663230  23.8647990  16.9887210 150.4758570  23.0901240
  16.9516130 150.7400830  24.5803220  24.3249350 153.8662390  14.8137220
  24.7642630 153.0284820  14.6675040  25.0377770 154.4991790  14.9001360
  16.1115350 153.8882590  27.4753330  15.9723120 154.7605390  27.8440730
  15.2296710 153.5455400  27.3301270  27.9066490 145.1205200  13.1278260
  27.5939150 145.2132030  14.0277330  28.6678960 145.6986230  13.0775690
  14.4248630 152.4865000  17.5855600  14.3046230 153.2127090  16.9736870
  14.1149520 151.7167910  17.1083510  29.1167780 149.8576700  29.1052400
  28.5012050 150.3656370  28.5767860  28.7964200 148.9575030  29.0478340
  16.8912290 145.8300070  20.9679270  16.4480440 146.6109610  20.6363790
  17.4497280 146.1529960  21.6750210  21.1782100 148.6968590  26.5714590
  20.7161470 148.9051610  27.3834530  20.7760210 147.8827940  26.2685260
  26.1786610 149.9177540  27.7011250  25.3280200 149.6183290  28.0220320
  26.0188400 150.1619550  26.7895070  23.2736320 151.4179290  29.8010040
  23.5989730 150.5843040  29.4612270  24.0616650 151.9407810  29.9488370
  20.0071110 145.4510770  15.8485100  19.3825290 145.4470640  16.5738410
  19.9201230 144.5841730  15.4521070  18.9288190 146.3747400  22.8268870
  19.2260520 147.2810230  22.7460890  19.4773750 145.8866180  22.2128440
  16.6826510 150.9533640  18.6960520  16.4567430 150.7370810  19.6007140
  15.9019040 151.3862100  18.3506490  23.9124270 150.9597010  17.2951170
  23.3133160 151.6832810  17.1114790  24.4603880 150.8973790  16.5127620
  19.1225720 151.8519220  29.3620790  19.0269320 150.9113950  29.2121190
  19.9657700 152.0734290  28.9668860  22.5189140 149.5960550  19.3254450
  22.9118710 149.9132750  18.5123140  22.8805990 148.7172430  19.4398970
  14.2536260 148.2632890  27.5154570  13.8599650 149.1108100  27.7227350
  13.5654660 147.6259260  27.7063210  20.8281310 148.3467860  30.5851310
  20.1379630 148.1540060  31.2197400  21.5713610 148.6302500  31.1175610
  11.5553310 146.1861350  21.5484650  11.2666360 146.7564210  22.2609630
  12.2999070 145.7065800  21.9115880  11.7423540 150.1281470  12.7587370
  11.6598210 151.0712230  12.9002360  11.3906600 149.9856380  11.8799720
  23.1044280 152.1866300  23.4205230  22.3725400 152.6953110  23.7695330
  22.7068620 151.3696280  23.1194010  19.5421670 148.8620500  21.8257720
  19.5457730 148.4210450  20.9762260  20.4372790 149.1837830  21.9329540
  15.3924050 148.7446990  20.7851930  15.0524100 149.2222220  21.5418980
  14.6301370 148.2912110  20.4253030  19.6041820 149.8632580  14.8164480
  19.7254640 149.8219060  15.7650300  19.2190330 150.7256730  14.6611210
  23.5670190 147.6399980  22.8328170  23.5842930 148.0908630  23.6770020
  23.3185770 146.7405620  23.0461610  18.6163320 152.1733720  14.2147780
  18.0480220 151.7251970  13.5883690  19.3252320 152.5326500  13.6812930
  26.9940940 145.0532160  28.6714550  27.3186710 144.3221820  29.1972530
  27.0297450 144.7345800  27.7695540  19.8429640 152.9222280  23.5723130
  20.2099770 152.4480850  24.3184470  19.6534700 153.7963850  23.9131470
  12.7070130 147.6665970  19.7016600  12.4217050 147.3021640  20.5395220
  12.6448990 146.9346430  19.0879740  17.6329010 151.9630920  25.8907340
  17.3286080 152.8422900  26.1157700  18.5875470 152.0230710  25.9264780
  22.3808720 146.5595230  16.4229970  21.5673330 146.0608400  16.3475280
  22.1870670 147.3993480  16.0066320  25.0957110 150.9314880  14.7192130
  25.9836730 151.2432110  14.5443470  25.0662200 150.0587130  14.3272710
  13.6892740 152.8033660  27.0378700  13.3307680 153.4687510  27.6252040
  13.3947300 151.9717210  27.4091320  16.8905860 153.2617900  29.9218250
  16.5906000 153.4075080  29.0246070  17.6617100 152.7023190  29.8291640
  27.3671380 152.2426720  14.1871990  27.2835100 152.6740940  13.3368430
  28.0865570 152.7025070  14.6198810  12.2000790 152.8024920  13.6613300
  13.0695640 153.0849720  13.9449220  11.7091110 153.6160790  13.5462110
  15.2647380 144.5335780  18.2544100  15.1362010 144.5253680  19.2029020
  14.4409400 144.8718870  17.9035110  12.2641310 146.2926900  27.7150800
  11.5499830 146.4923820  28.3203410  12.6836350 145.5166470  28.0865600
  23.7580090 148.7849210  25.4652250  24.1260910 147.9644420  25.7931820
  22.8978290 148.8451100  25.8807900  27.1242120 147.7406150  16.2739810
  26.4955280 147.8451820  15.5598040  26.6294040 147.9602930  17.0633690
  19.0926150 150.0192100  17.6897690  18.3842300 150.4878440  18.1311300
  19.3770630 149.3614110  18.3242880  20.7182080 151.4388800  25.6890220
  21.2167330 151.9134620  26.3542070  20.8605030 150.5152320  25.8960250
  23.1241580 146.7442760  19.1293480  23.0009360 146.7628890  18.1802990
  24.0726140 146.7921700  19.2491880  17.2961170 148.3277180  15.0648400
  18.1451700 148.7647330  14.9988590  16.9292440 148.6397440  15.8920460
  27.9248940 147.6556760  26.5318610  27.4222540 148.3962160  26.8712420
  28.7405600 148.0440760  26.2155400  26.2170950 152.8989940  19.9779970
  25.2761090 152.9140170  20.1527660  26.5315020 152.1125900  20.4240270
  16.1952590 154.5809540  13.5383930  16.9615860 154.4690900  14.1009360
  16.2727280 153.8847510  12.8860700  14.8899350 152.0134610  14.2216820
  14.9702940 151.0662120  14.3334220  15.7819100 152.3441490  14.3277480
  12.4170150 153.8349530  29.4572990  12.9209170 153.2556810  30.0289220
  11.6777570 154.1189760  29.9949360  14.4493230 151.9779120  30.3523060
  14.4898570 151.6792990  31.2608290  15.3038730 152.3786730  30.1930580
  18.2271620 154.5774670  15.5126570  18.6488040 154.4114540  16.3557960
  18.3522460 153.7674900  15.0181710  16.3899040 150.5571220  28.3197550
  15.8595500 150.0662170  27.6920890  17.0587110 150.9855420  27.7855480
  20.7399260 153.6012280  12.7603670  21.2604920 152.8861300  12.3944820
  21.3867660 154.2398150  13.0604180  25.7599270 152.3636840  30.0877890
  26.3420040 151.6089160  29.9998370  25.9361040 152.8944280  29.3109370
  16.8771340 147.5233590  28.3994840  16.7828210 146.9054340  27.6745710
  16.2968730 148.2499880  28.1724750  19.6432780 146.0806830  25.4322230
  19.1950080 146.1031090  24.5867780  19.0097980 145.6825850  26.0292530
  22.3856230 152.7077340  27.4372510  22.5052440 152.1118480  28.1767350
  23.2450230 152.7447030  27.0173810  24.7244130 153.2614530  26.0135020
  24.1979350 153.7857150  25.4100160  25.0675470 153.8941920  26.6444750
  17.1230520 150.6507900  12.4584730  16.9219580 149.7875260  12.8198070
  16.9522570 150.5641260  11.5206330  19.1525000 149.2498690  28.6948330
  19.7424690 148.9414540  29.3826150  18.3345240 148.7778440  28.8508230
  23.9718430 148.8664500  28.9281350  23.2833950 148.2046040  28.8631340
  24.6924450 148.4202770  29.3729810  24.6018830 145.4616130  14.9871610
  24.8821120 144.6184030  15.3431030  23.8284560 145.6939240  15.5010360
  15.9213320 147.7508520  12.4462610  16.2239220 147.7575950  11.5381760
  16.6607910 147.4006380  12.9430270  19.1398250 146.6943140  13.4318810
  18.7920250 146.0167130  12.8521260  19.3411020 146.2332650  14.2462200
  12.4803890 153.2230790  19.8283180  11.8252730 152.9542430  19.1842880
  13.3181840 153.1135270  19.3785160  25.4294330 148.0172080  14.0501670
  25.8479210 147.8303060  13.2098330  25.1230390 147.1651130  14.3604600
  28.9284060 152.9296220  17.7477470  28.5527660 152.1624150  17.3158760
  28.1987180 153.3118920  18.2352400  13.5179820 153.6083360  24.3686520
  13.8852860 153.5210760  25.2482540  12.9490640 152.8449910  24.2693380
  28.3183680 152.0767740  27.3816990  28.0869770 151.8480490  26.4814940
  28.5788230 152.9967290  27.3361880  13.0695820 150.5192450  28.2744940
  12.1751870 150.4859210  28.6138650  13.6093370 150.7179240  29.0396190
  26.7571750 147.3024170  30.1596690  27.6341930 147.3107570  30.5430690
  26.7692590 146.5655010  29.5489040  11.6941970 150.4329720  15.7708510
  10.7906050 150.6959920  15.5960170  12.1782590 150.7040890  14.9908470
  28.2035020 151.1553710  21.0484710  28.7272500 150.6616360  20.4174880
  28.7894440 151.2904070  21.7932280  28.3824740 151.2393580  24.5704260
  27.4327450 151.2057120  24.6849250  28.5637750 152.1493690  24.3354030
  14.2369180 149.4895260  13.6802890  14.9460880 149.0678480  13.1950170
  13.5209120 149.5570490  13.0486240  13.8843340 145.5434590  12.7205540
  14.6071470 146.0843530  13.0386760  14.1567860 145.2698010  11.8447080
  27.6934990 150.4127060  16.9877120  28.1894110 150.1797930  17.7726000
  27.4951060 149.5738900  16.5714760  13.5735530 144.7940780  22.6228160
  14.2211720 144.2438160  22.1823320  13.9937370 145.0483930  23.4443970
  29.1222150 149.0488010  19.5214800  29.0121430 148.8944050  20.4597070
  29.8829740 148.5208950  19.2790210  27.4687870 144.9882140  25.9797800
  28.1060090 145.6016280  26.3456990  27.6162760 145.0242800  25.0347030
  30.0112420 146.8795930  12.7620940  30.9361730 146.7477110  12.5539230
  29.9888210 146.9588750  13.7157390  30.0850910 147.6506590  15.3877650
  29.2902410 147.5851710  15.9170560  30.2894190 148.5857230  15.3763000
  13.3267530 144.9496450  25.3653480  12.9782350 145.4060270  26.1311660
  12.9955230 144.0553580  25.4475910  20.8392350 146.1408330  28.8872900
  20.7781240 146.7330160  29.6368310  21.7792730 146.0334290  28.7423160
  23.4766910 145.7978390  28.5265190  24.0907320 146.1157680  27.8646270
  24.0216470 145.3126980  29.1461050  13.9988170 144.4772650  28.6404250
  14.5471160 144.2960700  27.8770360  14.0643480 143.6866760  29.1760560
  24.2174950 144.3610530  24.8534480  23.3434790 144.6945640  24.6507410
  24.1085700 143.8883710  25.6786350  25.1246930 146.5681400  26.2376200
  24.7960290 145.7533160  25.8577930  26.0729230 146.5251210  26.1141890
  21.9649770 145.2780370  23.7927390  21.1821560 145.7525870  24.0724150
  21.6712700 144.3735200  23.6840570  26.5170840 145.9803470  21.8376480
  26.9578930 145.9248570  20.9898080  26.2478430 146.8961480  21.9086660
  28.3809410 145.6118710  19.8485300  28.3197810 144.6679930  19.7016320
  29.1601440 145.7198800  20.3938760  13.3090180 145.5827850  16.3141110
  14.0669540 145.6956730  15.7405140  12.8467350 146.4197050  16.2684540
  19.8503990 147.6967120  19.3043420  19.0378500 147.3224010  18.9639300
  20.3545630 146.9412200  19.6064610  24.3528970 144.3609570  20.5426490
  24.9558340 144.9329780  21.0175010  23.6121960 144.9249010  20.3200390
  27.4963570 144.7631130  15.8166770  27.6914200 145.6614580  16.0834200
  26.7093440 144.5318210  16.3099720  15.6815330 146.1091900  14.8543080
  16.2108090 145.3221700  14.7251030  16.3143650 146.7883090  15.0878610
  17.8753170 145.8467040  17.9088470  17.2455910 145.1454350  18.0758600
  17.3358310 146.6071170  17.6921630  18.0008730 145.1251020  30.3440960
  17.7193000 145.6284620  29.5801780  18.3828430 144.3272770  29.9783090
  24.6024190 144.5404600  30.9221430  24.4889640 144.8599210  31.8172950
  25.4193930 144.9417110  30.6258710  21.6400380 154.3376090   3.1665440
  20.8642480 153.8576530   3.4564010  22.2913310 153.6581740   2.9921600
  15.6566210 154.6495900   4.0441200  14.8251090 154.3944610   4.4437710
  16.2647190 154.7206670   4.7799120  12.0291170 152.2103440   3.7123290
  12.6007280 151.4425640   3.7126930  12.0292710 152.5092200   2.8029900
  13.2716040 147.6187800   5.4992220  13.0918880 146.7213550   5.7794980
  12.8696120 148.1659670   6.1739170  22.1114540 149.8203660   3.4004530
  22.4879360 148.9475540   3.2878200  22.0134050 150.1562360   2.5094970
  13.8902710 150.1148300   4.1074560  14.5712820 150.3786670   4.7261960
  13.5750760 149.2749170   4.4412570  18.0827280 151.1615660   3.1947150
  18.5905500 151.6596630   3.8352170  18.6140520 150.3850860   3.0186510
  30.1838210 149.3320850   6.8976500  29.4790380 149.7202560   6.3791610
  30.4496130 150.0271140   7.4997430  16.3663380 145.8014220   7.4610570
  16.3681820 146.3186610   6.6556470  15.5367690 145.3244400   7.4380500
  26.1300140 149.2554480   3.1060410  25.4255710 149.5439370   3.6863520
  26.4912300 150.0654590   2.7459970  16.0478710 147.5124180   5.4681020
  16.3895520 148.3566230   5.1734890  15.1094520 147.6607920   5.5846360
  29.1987060 148.7009270   3.4969620  28.2511970 148.7348250   3.6285050
  29.5237050 149.5148220   3.8818980  28.6269200 154.0190800   5.5031920
  27.7987830 154.0883890   5.0282050  29.2219680 154.6045110   5.0347750
  25.5911210 150.8060120   6.4486790  25.1782390 151.6313830   6.7026780
  24.8587160 150.2205160   6.2563150  16.4372620 150.3663230   5.0904500
  16.9887210 150.4758570   4.3157750  16.9516130 150.7400830   5.8059730
  16.1115350 153.8882590   8.7009840  15.9723120 154.7605390   9.0697240
  15.2296710 153.5455400   8.5557780  29.1167780 149.8576700  10.3308910
  28.5012050 150.3656370   9.8024370  28.7964200 148.9575030  10.2734850
  16.8912290 145.8300070   2.1935780  16.4480440 146.6109610   1.8620300
  17.4497280 146.1529960   2.9006720  21.1782100 148.6968590   7.7971100
  20.7161470 148.9051610   8.6091040  20.7760210 147.8827940   7.4941770
  26.1786610 149.9177540   8.9267760  25.3280200 149.6183290   9.2476830
  26.0188400 150.1619550   8.0151580  23.2736320 151.4179290  11.0266550
  23.5989730 150.5843040  10.6868780  24.0616650 151.9407810  11.1744880
  18.9288190 146.3747400   4.0525380  19.2260520 147.2810230   3.9717400
  19.4773750 145.8866180   3.4384950  19.1225720 151.8519220  10.5877300
  19.0269320 150.9113950  10.4377700  19.9657700 152.0734290  10.1925370
  14.2536260 148.2632890   8.7411080  13.8599650 149.1108100   8.9483860
  13.5654660 147.6259260   8.9319720  20.8281310 148.3467860  11.8107820
  20.1379630 148.1540060  12.4453910  21.5713610 148.6302500  12.3432120
  11.5553310 146.1861350   2.7741160  11.2666360 146.7564210   3.4866140
  12.2999070 145.7065800   3.1372390  23.1044280 152.1866300   4.6461740
  22.3725400 152.6953110   4.9951840  22.7068620 151.3696280   4.3450520
  19.5421670 148.8620500   3.0514230  19.5457730 148.4210450   2.2018770
  20.4372790 149.1837830   3.1586050  15.3924050 148.7446990   2.0108440
  15.0524100 149.2222220   2.7675490  14.6301370 148.2912110   1.6509540
  23.5670190 147.6399980   4.0584680  23.5842930 148.0908630   4.9026530
  23.3185770 146.7405620   4.2718120  26.9940940 145.0532160   9.8971060
  27.3186710 144.3221820  10.4229040  27.0297450 144.7345800   8.9952050
  19.8429640 152.9222280   4.7979640  20.2099770 152.4480850   5.5440980
  19.6534700 153.7963850   5.1387980  17.6329010 151.9630920   7.1163850
  17.3286080 152.8422900   7.3414210  18.5875470 152.0230710   7.1521290
  13.6892740 152.8033660   8.2635210  13.3307680 153.4687510   8.8508550
  13.3947300 151.9717210   8.6347830  16.8905860 153.2617900  11.1474760
  16.5906000 153.4075080  10.2502580  17.6617100 152.7023190  11.0548150
  12.2641310 146.2926900   8.9407310  11.5499830 146.4923820   9.5459920
  12.6836350 145.5166470   9.3122110  23.7580090 148.7849210   6.6908760
  24.1260910 147.9644420   7.0188330  22.8978290 148.8451100   7.1064410
  20.7182080 151.4388800   6.9146730  21.2167330 151.9134620   7.5798580
  20.8605030 150.5152320   7.1216760  27.9248940 147.6556760   7.7575120
  27.4222540 148.3962160   8.0968930  28.7405600 148.0440760   7.4411910
  12.4170150 153.8349530  10.6829500  12.9209170 153.2556810  11.2545730
  11.6777570 154.1189760  11.2205870  14.4493230 151.9779120  11.5779570
  14.4898570 151.6792990  12.4864800  15.3038730 152.3786730  11.4187090
  16.3899040 150.5571220   9.5454060  15.8595500 150.0662170   8.9177400
  17.0587110 150.9855420   9.0111990  25.7599270 152.3636840  11.3134400
  26.3420040 151.6089160  11.2254880  25.9361040 152.8944280  10.5365880
  16.8771340 147.5233590   9.6251350  16.7828210 146.9054340   8.9002220
  16.2968730 148.2499880   9.3981260  19.6432780 146.0806830   6.6578740
  19.1950080 146.1031090   5.8124290  19.0097980 145.6825850   7.2549040
  22.3856230 152.7077340   8.6629020  22.5052440 152.1118480   9.4023860
  23.2450230 152.7447030   8.2430320  24.7244130 153.2614530   7.2391530
  24.1979350 153.7857150   6.6356670  25.0675470 153.8941920   7.8701260
  19.1525000 149.2498690   9.9204840  19.7424690 148.9414540  10.6082660
  18.3345240 148.7778440  10.0764740  23.9718430 148.8664500  10.1537860
  23.2833950 148.2046040  10.0887850  24.6924450 148.4202770  10.5986320
  13.5179820 153.6083360   5.5943030  13.8852860 153.5210760   6.4739050
  12.9490640 152.8449910   5.4949890  28.3183680 152.0767740   8.6073500
  28.0869770 151.8480490   7.7071450  28.5788230 152.9967290   8.5618390
  13.0695820 150.5192450   9.5001450  12.1751870 150.4859210   9.8395160
  13.6093370 150.7179240  10.2652700  26.7571750 147.3024170  11.3853200
  27.6341930 147.3107570  11.7687200  26.7692590 146.5655010  10.7745550
  28.2035020 151.1553710   2.2741220  28.7272500 150.6616360   1.6431390
  28.7894440 151.2904070   3.0188790  28.3824740 151.2393580   5.7960770
  27.4327450 151.2057120   5.9105760  28.5637750 152.1493690   5.5610540
  13.5735530 144.7940780   3.8484670  14.2211720 144.2438160   3.4079830
  13.9937370 145.0483930   4.6700480  27.4687870 144.9882140   7.2054310
  28.1060090 145.6016280   7.5713500  27.6162760 145.0242800   6.2603540
  13.3267530 144.9496450   6.5909990  12.9782350 145.4060270   7.3568170
  12.9955230 144.0553580   6.6732420  20.8392350 146.1408330  10.1129410
  20.7781240 146.7330160  10.8624820  21.7792730 146.0334290   9.9679670
  23.4766910 145.7978390   9.7521700  24.0907320 146.1157680   9.0902780
  24.0216470 145.3126980  10.3717560  13.9988170 144.4772650   9.8660760
  14.5471160 144.2960700   9.1026870  14.0643480 143.6866760  10.4017070
  24.2174950 144.3610530   6.0790990  23.3434790 144.6945640   5.8763920
  24.1085700 143.8883710   6.9042860  25.1246930 146.5681400   7.4632710
  24.7960290 145.7533160   7.0834440  26.0729230 146.5251210   7.3398400
  21.9649770 145.2780370   5.0183900  21.1821560 145.7525870   5.2980660
  21.6712700 144.3735200   4.9097080  26.5170840 145.9803470   3.0632990
  26.9578930 145.9248570   2.2154590  26.2478430 146.8961480   3.1343170
  24.3528970 144.3609570   1.7683000  24.9558340 144.9329780   2.2431520
  23.6121960 144.9249010   1.5456900  18.0008730 145.1251020  11.5697470
  17.7193000 145.6284620  10.8058290  18.3828430 144.3272770  11.2039600
  24.6024190 144.5404600  12.1477940  24.4889640 144.8599210  13.0429460
  25.4193930 144.9417110  11.8515220  23.5082340 133.7853580 151.4804090
  23.4276390 132.8708190 151.2095800  23.0946760 134.2820650 150.7743800
  21.6400380 135.5632600 153.3613360  20.8642480 135.0833040 153.6511930
  22.2913310 134.8838250 153.1869520  25.6607810 139.9692790 152.1412490
  25.1989340 139.1980030 152.4699660  26.4733360 139.9958860 152.6464940
  15.6367470 139.9092500 154.4347140  15.9395510 139.0190240 154.2557360
  16.3811060 140.4662720 154.2069390  14.0658160 130.8354300 148.0231510
  13.1774860 131.1770270 147.9211390  14.3499350 130.6354620 147.1312340
  12.0291170 133.4359950 153.9071210  12.6007280 132.6682150 153.9074850
  12.0292710 133.7348710 152.9977820  21.8871120 142.2550800 151.7616480
  21.2682560 142.7108300 151.1910920  22.7422900 142.4102260 151.3606180
  21.0809370 138.2389790 153.3683520  21.0117650 137.2979730 153.2072650
  21.8429230 138.3291200 153.9406090  22.1114540 131.0460170 153.5952450
  22.4879360 130.1732050 153.4826120  22.0134050 131.3818870 152.7042890
  16.2419550 129.4185800 149.0569890  16.3486300 130.3189530 149.3638650
  15.3311910 129.3703770 148.7664540  25.8938660 128.5410610 150.5280790
  26.7148280 128.0507180 150.5706270  25.9272740 129.1308270 151.2812630
  18.0827280 132.3872170 153.3895070  18.5905500 132.8853140 154.0300090
  18.6140520 131.6107370 153.2134430  22.7534470 137.1390040 149.1548390
  22.1351740 137.6039490 148.5911110  23.2657720 137.8317520 149.5717900
  26.1300140 130.4810990 153.3008330  25.4255710 130.7695880 153.8811440
  26.4912300 131.2911100 152.9407890  12.1217670 137.8246570 146.5288020
  11.7445650 138.3133670 145.7972920  12.3790740 138.4971850 147.1594550
  29.1987060 129.9265780 153.6917540  28.2511970 129.9604760 153.8232970
  29.5237050 130.7404730 154.0766900  19.7306600 126.2262960 151.9873530
  20.0381580 125.6709850 151.2709030  18.8007300 126.3607420 151.8046520
  25.2821660 141.9430250 154.2780990  25.2948820 141.5392540 153.4103250
  24.7296880 142.7177540 154.1742420  26.5767080 138.6646470 149.3671160
  26.4663410 137.7220800 149.4920580  26.5735330 139.0262110 150.2533920
  22.1187360 134.2911790 148.7233650  21.1916640 134.2249170 148.9522120
  22.2712180 135.2291920 148.6088890  22.1056440 130.5628790 145.7200810
  21.1660110 130.7242750 145.8053270  22.4239700 131.2814470 145.1736800
  26.1484650 135.8532090 149.2268900  25.5297070 135.5151640 148.5795200
  26.1309100 135.2091850 149.9348090  17.7244000 134.8176530 151.5053380
  17.3201000 134.1053780 151.0099280  17.8107120 134.4729770 152.3941420
  18.1925700 138.5044090 153.6692590  17.8953990 137.8989560 152.9900370
  19.1425520 138.5421400 153.5581950  24.3249350 135.0918900 146.2341650
  24.7642630 134.2541330 146.0879470  25.0377770 135.7248300 146.3205790
  22.4344730 140.0314970 150.2022890  22.8740640 140.7739300 149.7878280
  22.3731620 140.2741540 151.1261850  27.9066490 126.3461710 144.5482690
  27.5939150 126.4388540 145.4481760  28.6678960 126.9242740 144.4980120
  14.4248630 133.7121510 149.0060030  14.3046230 134.4383600 148.3941300
  14.1149520 132.9424420 148.5287940  13.3081630 138.5836840 151.2234850
  12.9009710 138.7251430 150.3688450  14.1994640 138.2997000 151.0206060
  25.1014910 143.0184090 147.5585900  24.9416050 142.7287030 148.4567730
  24.9361620 142.2424220 147.0231130  17.5803290 142.7982620 149.3357520
  17.4045770 141.8818160 149.1225320  16.7259030 143.1569910 149.5755320
  24.8041040 140.5271650 146.1183900  24.1106200 140.5248940 145.4586180
  25.5463900 140.1030970 145.6878070  24.3690970 142.1534360 150.1932390
  24.8247920 141.3723740 150.5071010  24.7083490 142.8641180 150.7373570
  16.8912290 127.0556580 152.3883700  16.4480440 127.8366120 152.0568220
  17.4497280 127.3786470 153.0954640  20.0071110 126.6767280 147.2689530
  19.3825290 126.6727150 147.9942840  19.9201230 125.8098240 146.8725500
  18.9288190 127.6003910 154.2473300  19.2260520 128.5066740 154.1665320
  19.4773750 127.1122690 153.6332870  16.6826510 132.1790150 150.1164950
  16.4567430 131.9627320 151.0211570  15.9019040 132.6118610 149.7710920
  23.9124270 132.1853520 148.7155600  23.3133160 132.9089320 148.5319220
  24.4603880 132.1230300 147.9332050  22.5189140 130.8217060 150.7458880
  22.9118710 131.1389260 149.9327570  22.8805990 129.9428940 150.8603400
  11.5553310 127.4117860 152.9689080  11.2666360 127.9820720 153.6814060
  12.2999070 126.9322310 153.3320310  11.7423540 131.3537980 144.1791800
  11.6598210 132.2968740 144.3206790  11.3906600 131.2112890 143.3004150
  19.5421670 130.0877010 153.2462150  19.5457730 129.6466960 152.3966690
  20.4372790 130.4094340 153.3533970  15.3924050 129.9703500 152.2056360
  15.0524100 130.4478730 152.9623410  14.6301370 129.5168620 151.8457460
  19.6041820 131.0889090 146.2368910  19.7254640 131.0475570 147.1854730
  19.2190330 131.9513240 146.0815640  18.6163320 133.3990230 145.6352210
  18.0480220 132.9508480 145.0088120  19.3252320 133.7583010 145.1017360
  12.7070130 128.8922480 151.1221030  12.4217050 128.5278150 151.9599650
  12.6448990 128.1602940 150.5084170  16.1610800 137.3948420 147.9078620
  15.3873060 136.8546040 147.7477340  16.8905430 136.8755030 147.5696380
  26.9198780 136.3913780 153.7005010  27.6397900 136.8869070 153.3101120
  26.7180600 135.7131670 153.0558880  22.3808720 127.7851740 147.8434400
  21.5673330 127.2864910 147.7679710  22.1870670 128.6249990 147.4270750
  25.0957110 132.1571390 146.1396560  25.9836730 132.4688620 145.9647900
  25.0662200 131.2843640 145.7477140  16.2048200 137.0628800 151.5457430
  16.7226870 136.2597060 151.4914320  15.7532220 137.0007940 152.3874260
  21.0917700 138.3295080 146.8184730  21.4333400 139.0737310 146.3228050
  20.2630410 138.6426200 147.1809560  27.3671380 133.4683230 145.6076420
  27.2835100 133.8997450 144.7572860  28.0865570 133.9281580 146.0403240
  28.3958630 140.3225490 148.3358550  27.7534790 139.6681110 148.6102270
  28.0089290 140.7280580 147.5599220  23.9745110 137.6510920 152.1830240
  24.3268930 137.0539050 151.5231610  23.0907440 137.3255150 152.3538490
  20.0608390 138.4108610 149.5900650  20.7479520 138.9577820 149.9708240
  19.2740810 138.9549340 149.6250260  12.2000790 134.0281430 145.0817730
  13.0695640 134.3106230 145.3653650  11.7091110 134.8417300 144.9666540
  19.3635600 135.4154640 149.2026010  19.8198380 136.2259890 149.4286200
  19.0123810 135.0977780 150.0344500  15.2647380 125.7592290 149.6748530
  15.1362010 125.7510190 150.6233450  14.4409400 126.0975380 149.3239540
  26.7856010 139.2141950 144.8734900  26.5593590 138.4972390 145.4659540
  26.3952210 138.9654390 144.0356650  12.5672040 143.2408810 145.6479360
  12.9269680 143.8398150 144.9936630  12.4264380 143.7868700 146.4214390
  26.3672260 137.1313890 146.5349060  26.0793960 137.5926580 147.3226940
  27.1624430 136.6711660 146.8033280  18.5840660 140.6240010 146.4653030
  18.5750760 141.3569700 145.8497540  17.6639020 140.3771590 146.5579990
  14.1847300 135.8454900 147.2099790  13.5775250 136.5853800 147.2195090
  14.6596650 135.9354260 146.3837990  27.1242120 128.9662660 147.6944240
  26.4955280 129.0708330 146.9802470  26.6294040 129.1859440 148.4838120
  21.5700260 140.6868250 145.1278220  21.6712240 140.4832240 144.1980200
  20.6702000 140.4326530 145.3326000  19.0926150 131.2448610 149.1102120
  18.3842300 131.7134950 149.5515730  19.3770630 130.5870620 149.7447310
  23.1241580 127.9699270 150.5497910  23.0009360 127.9885400 149.6007420
  24.0726140 128.0178210 150.6696310  20.2118370 143.2054570 149.8225890
  20.4659870 143.1675960 148.9005260  19.2630850 143.0787900 149.8154140
  17.2961170 129.5533690 146.4852830  18.1451700 129.9903840 146.4193020
  16.9292440 129.8653950 147.3124890  26.2170950 134.1246450 151.3984400
  25.2761090 134.1396680 151.5732090  26.5315020 133.3382410 151.8444700
  16.1952590 135.8066050 144.9588360  16.9615860 135.6947410 145.5213790
  16.2727280 135.1104020 144.3065130  14.8899350 133.2391120 145.6421250
  14.9702940 132.2918630 145.7538650  15.7819100 133.5698000 145.7481910
  28.2196530 141.2955300 153.0738660  28.3443950 142.1186470 153.5462470
  29.0862090 141.0846030 152.7262810  15.6914060 143.3886510 152.7455790
  16.4276540 142.8401970 153.0164360  16.0754980 144.2542520 152.6061780
  12.5759540 139.4560080 148.6197300  11.6499320 139.6981220 148.6102710
  13.0415970 140.2834340 148.4982050  18.8016370 142.5616820 144.5681360
  19.5944980 142.8505650 144.1163150  18.2820720 142.1308990 143.8893840
  27.8546540 141.7886950 145.9918100  27.5688050 141.3752090 145.1772280
  27.6566090 142.7174660 145.8718620  19.3193770 137.7820230 144.4323710
  19.2144410 137.1672580 145.1585090  19.1517990 137.2586120 143.6486720
  22.5596500 136.8440260 145.0365700  22.0106600 137.2909560 145.6808440
  23.1815760 136.3389510 145.5603370  18.2271620 135.8031180 146.9331000
  18.6488040 135.6371050 147.7762390  18.3522460 134.9931410 146.4386140
  20.7399260 134.8268790 144.1808100  21.2604920 134.1117810 143.8149250
  21.3867660 135.4654660 144.4808610  17.1230520 131.8764410 143.8789160
  16.9219580 131.0131770 144.2402500  16.9522570 131.7897770 142.9410760
  24.6018830 126.6872640 146.4076040  24.8821120 125.8440540 146.7635460
  23.8284560 126.9195750 146.9214790  15.9213320 128.9765030 143.8667040
  16.2239220 128.9832460 142.9586190  16.6607910 128.6262890 144.3634700
  19.1398250 127.9199650 144.8523240  18.7920250 127.2423640 144.2725690
  19.3411020 127.4589160 145.6666630  21.3047290 142.9080400 146.4709840
  22.1998080 143.2465370 146.4928600  21.3364920 142.1859810 145.8434120
  14.9443450 138.2807450 144.6996840  15.3818320 138.8237120 145.3554420
  15.4291180 137.4554400 144.7093180  12.1589250 141.0696480 152.1517100
  12.4892260 140.2017540 151.9195740  12.5880250 141.2755000 152.9822060
  16.7551170 139.4005490 149.8119070  16.4546710 139.2770460 150.7122980
  16.6488660 138.5414080 149.4034800  29.5243090 139.1801890 144.5145750
  28.6936050 139.2478540 144.9852980  29.7014920 140.0706010 144.2112610
  28.9799550 135.9249370 147.0179950  29.7418460 136.4946020 147.1239640
  28.9953920 135.3576570 147.7888260  12.4803890 134.4487300 151.2487610
  11.8252730 134.1798940 150.6047310  13.3181840 134.3391780 150.7989590
  29.9859520 136.7799470 151.8621880  30.3568350 135.9966790 151.4557850
  30.6261450 137.4688570 151.6839180  29.0318720 136.2183740 144.1752470
  29.3067560 137.1262620 144.0471690  28.8429460 136.1546270 145.1114460
  25.4294330 129.2428590 145.4706100  25.8479210 129.0559570 144.6302760
  25.1230390 128.3907640 145.7809030  28.9284060 134.1552730 149.1681900
  28.5527660 133.3880660 148.7363190  28.1987180 134.5375430 149.6556830
  11.6941970 131.6586230 147.1912940  10.7906050 131.9216430 147.0164600
  12.1782590 131.9297400 146.4112900  28.2035020 132.3810220 152.4689140
  28.7272500 131.8872870 151.8379310  28.7894440 132.5160580 153.2136710
  14.2369180 130.7151770 145.1007320  14.9460880 130.2934990 144.6154600
  13.5209120 130.7827000 144.4690670  13.8843340 126.7691100 144.1409970
  14.6071470 127.3100040 144.4591190  14.1567860 126.4954520 143.2651510
  27.6934990 131.6383570 148.4081550  28.1894110 131.4054440 149.1930430
  27.4951060 130.7995410 147.9919190  29.1222150 130.2744520 150.9419230
  29.0121430 130.1200560 151.8801500  29.8829740 129.7465460 150.6994640
  30.0112420 128.1052440 144.1825370  30.9361730 127.9733620 143.9743660
  29.9888210 128.1845260 145.1361820  30.0850910 128.8763100 146.8082080
  29.2902410 128.8108220 147.3374990  30.2894190 129.8113740 146.7967430
  27.0269330 142.9154650 150.8020470  27.6228400 142.5939220 150.1254890
  27.2847480 142.4426470 151.5933740  18.0077260 141.8738190 153.8066330
  18.5242280 141.2625550 153.2814590  18.6574640 142.3766970 154.2977340
  26.5170840 127.2059980 153.2580910  26.9578930 127.1505080 152.4102510
  26.2478430 128.1217990 153.3291090  28.3809410 126.8375220 151.2689730
  28.3197810 125.8936440 151.1220750  29.1601440 126.9455310 151.8143190
  12.6862160 142.9767580 150.2313680  12.5184200 142.3438260 150.9295570
  11.8196670 143.1826980 149.8807870  13.3090180 126.8084360 147.7345540
  14.0669540 126.9213240 147.1609570  12.8467350 127.6453560 147.6888970
  19.8503990 128.9223630 150.7247850  19.0378500 128.5480520 150.3843730
  20.3545630 128.1668710 151.0269040  24.3528970 125.5866080 151.9630920
  24.9558340 126.1586290 152.4379440  23.6121960 126.1505520 151.7404820
  27.4963570 125.9887640 147.2371200  27.6914200 126.8871090 147.5038630
  26.7093440 125.7574720 147.7304150  14.2924860 141.6700810 147.6763820
  13.7672480 142.0508840 146.9725780  14.2169440 142.2951580 148.3973530
  15.6815330 127.3348410 146.2747510  16.2108090 126.5478210 146.1455460
  16.3143650 128.0139600 146.5083040  17.8753170 127.0723550 149.3292900
  17.2455910 126.3710860 149.4963030  17.3358310 127.8327680 149.1126060
  29.0490180 143.2288350 148.9977760  29.2242370 142.5426090 148.3538680
  28.3511750 143.7535400 148.6054430  16.8917830 143.6183190 146.5513070
  17.6236650 143.3342470 146.0036960  17.1511500 143.3796470 147.4412450
  16.0532620 139.7347920 146.5559400  15.4241500 140.2033020 147.1045230
  16.1680450 138.8897140 146.9905590  23.5082340 133.7853580 132.7060600
  23.4276390 132.8708190 132.4352310  23.0946760 134.2820650 132.0000310
  21.6400380 135.5632600 134.5869870  20.8642480 135.0833040 134.8768440
  22.2913310 134.8838250 134.4126030  15.6566210 135.8752410 135.4645630
  14.8251090 135.6201120 135.8642140  16.2647190 135.9463180 136.2003550
  25.6607810 139.9692790 133.3669000  25.1989340 139.1980030 133.6956170
  26.4733360 139.9958860 133.8721450  15.6367470 139.9092500 135.6603650
  15.9395510 139.0190240 135.4813870  16.3811060 140.4662720 135.4325900
  14.0658160 130.8354300 129.2488020  13.1774860 131.1770270 129.1467900
  14.3499350 130.6354620 128.3568850  12.0291170 133.4359950 135.1327720
  12.6007280 132.6682150 135.1331360  12.0292710 133.7348710 134.2234330
  21.8871120 142.2550800 132.9872990  21.2682560 142.7108300 132.4167430
  22.7422900 142.4102260 132.5862690  21.0809370 138.2389790 134.5940030
  21.0117650 137.2979730 134.4329160  21.8429230 138.3291200 135.1662600
  13.2716040 128.8444310 136.9196650  13.0918880 127.9470060 137.1999410
  12.8696120 129.3916180 137.5943600  22.1114540 131.0460170 134.8208960
  22.4879360 130.1732050 134.7082630  22.0134050 131.3818870 133.9299400
  16.2419550 129.4185800 130.2826400  16.3486300 130.3189530 130.5895160
  15.3311910 129.3703770 129.9921050  25.8938660 128.5410610 131.7537300
  26.7148280 128.0507180 131.7962780  25.9272740 129.1308270 132.5069140
  13.8902710 131.3404810 135.5278990  14.5712820 131.6043180 136.1466390
  13.5750760 130.5005680 135.8617000  18.0827280 132.3872170 134.6151580
  18.5905500 132.8853140 135.2556600  18.6140520 131.6107370 134.4390940
  30.1838210 130.5577360 138.3180930  29.4790380 130.9459070 137.7996040
  30.4496130 131.2527650 138.9201860  16.3663380 127.0270730 138.8815000
  16.3681820 127.5443120 138.0760900  15.5367690 126.5500910 138.8584930
  22.7534470 137.1390040 130.3804900  22.1351740 137.6039490 129.8167620
  23.2657720 137.8317520 130.7974410  17.6166230 136.6665910 137.0588500
  17.2835610 137.2934830 137.7009570  17.7932910 137.1927790 136.2790170
  26.1300140 130.4810990 134.5264840  25.4255710 130.7695880 135.1067950
  26.4912300 131.2911100 134.1664400  16.0478710 128.7380690 136.8885450
  16.3895520 129.5822740 136.5939320  15.1094520 128.8864430 137.0050790
  16.8285330 138.6346710 138.8737680  17.4459330 139.3097790 138.5922130
  15.9678450 139.0434690 138.7825180  12.1217670 137.8246570 127.7544530
  11.7445650 138.3133670 127.0229430  12.3790740 138.4971850 128.3851060
  27.7462920 140.0986120 136.7892320  27.0626440 140.7685230 136.7808990
  28.2857210 140.2966770 136.0237180  29.1987060 129.9265780 134.9174050
  28.2511970 129.9604760 135.0489480  29.5237050 130.7404730 135.3023410
  19.7306600 126.2262960 133.2130040  20.0381580 125.6709850 132.4965540
  18.8007300 126.3607420 133.0303030  25.2821660 141.9430250 135.5037500
  25.2948820 141.5392540 134.6359760  24.7296880 142.7177540 135.3998930
  26.5767080 138.6646470 130.5927670  26.4663410 137.7220800 130.7177090
  26.5735330 139.0262110 131.4790430  24.6807100 136.8460090 136.8320110
  25.0975890 136.6320200 135.9973570  25.4046920 137.1032880 137.4028730
  22.1187360 134.2911790 129.9490160  21.1916640 134.2249170 130.1778630
  22.2712180 135.2291920 129.8345400  22.1056440 130.5628790 126.9457320
  21.1660110 130.7242750 127.0309780  22.4239700 131.2814470 126.3993310
  28.6269200 135.2447310 136.9236350  27.7987830 135.3140400 136.4486480
  29.2219680 135.8301620 136.4552180  26.1484650 135.8532090 130.4525410
  25.5297070 135.5151640 129.8051710  26.1309100 135.2091850 131.1604600
  25.5911210 132.0316630 137.8691220  25.1782390 132.8570340 138.1231210
  24.8587160 131.4461670 137.6767580  17.7244000 134.8176530 132.7309890
  17.3201000 134.1053780 132.2355790  17.8107120 134.4729770 133.6197930
  18.1925700 138.5044090 134.8949100  17.8953990 137.8989560 134.2156880
  19.1425520 138.5421400 134.7838460  16.4372620 131.5919740 136.5108930
  16.9887210 131.7015080 135.7362180  16.9516130 131.9657340 137.2264160
  26.2811310 142.0775960 138.5572200  25.8041870 142.8848150 138.3644810
  25.5973100 141.4254290 138.7098410  17.2844130 138.2425780 141.5456900
  16.3872660 138.4665750 141.7930300  17.3097000 138.3660720 140.5968300
  24.3249350 135.0918900 127.4598160  24.7642630 134.2541330 127.3135980
  25.0377770 135.7248300 127.5462300  16.1115350 135.1139100 140.1214270
  15.9723120 135.9861900 140.4901670  15.2296710 134.7711910 139.9762210
  22.4344730 140.0314970 131.4279400  22.8740640 140.7739300 131.0134790
  22.3731620 140.2741540 132.3518360  17.9095700 141.0560800 142.3299420
  17.8811130 141.4603750 141.4627850  17.7460670 140.1271160 142.1671020
  27.9066490 126.3461710 125.7739200  27.5939150 126.4388540 126.6738270
  28.6678960 126.9242740 125.7236630  14.4248630 133.7121510 130.2316540
  14.3046230 134.4383600 129.6197810  14.1149520 132.9424420 129.7544450
  29.8610520 141.8387900 143.6263590  30.3370240 142.3170790 144.3052670
  30.4817680 141.7705390 142.9009090  12.0634000 136.8836650 136.0385180
  12.1414420 137.0185420 135.0940900  12.6775680 136.1752540 136.2313300
  13.3081630 138.5836840 132.4491360  12.9009710 138.7251430 131.5944960
  14.1994640 138.2997000 132.2462570  29.2643770 139.0300750 140.7863600
  29.3906830 138.7912630 139.8680780  29.3065150 138.1985290 141.2585680
  23.1260510 142.7328750 139.3558410  23.6405180 142.6436760 140.1580840
  22.2829590 143.0788450 139.6486320  25.1014910 143.0184090 128.7842410
  24.9416050 142.7287030 129.6824240  24.9361620 142.2424220 128.2487640
  17.5803290 142.7982620 130.5614030  17.4045770 141.8818160 130.3481830
  16.7259030 143.1569910 130.8011830  24.8041040 140.5271650 127.3440410
  24.1106200 140.5248940 126.6842690  25.5463900 140.1030970 126.9134580
  24.3690970 142.1534360 131.4188900  24.8247920 141.3723740 131.7327520
  24.7083490 142.8641180 131.9630080  29.1167780 131.0833210 141.7513340
  28.5012050 131.5912880 141.2228800  28.7964200 130.1831540 141.6939280
  12.1193520 137.9250820 138.5779640  12.2824560 137.4556180 137.7599010
  12.5845970 137.4174380 139.2428480  16.8912290 127.0556580 133.6140210
  16.4480440 127.8366120 133.2824730  17.4497280 127.3786470 134.3211150
  21.1782100 129.9225100 139.2175530  20.7161470 130.1308120 140.0295470
  20.7760210 129.1084450 138.9146200  26.1786610 131.1434050 140.3472190
  25.3280200 130.8439800 140.6681260  26.0188400 131.3876060 139.4356010
  23.2736320 132.6435800 142.4470980  23.5989730 131.8099550 142.1073210
  24.0616650 133.1664320 142.5949310  20.0071110 126.6767280 128.4946040
  19.3825290 126.6727150 129.2199350  19.9201230 125.8098240 128.0982010
  18.9288190 127.6003910 135.4729810  19.2260520 128.5066740 135.3921830
  19.4773750 127.1122690 134.8589380  16.6826510 132.1790150 131.3421460
  16.4567430 131.9627320 132.2468080  15.9019040 132.6118610 130.9967430
  23.9124270 132.1853520 129.9412110  23.3133160 132.9089320 129.7575730
  24.4603880 132.1230300 129.1588560  19.1225720 133.0775730 142.0081730
  19.0269320 132.1370460 141.8582130  19.9657700 133.2990800 141.6129800
  22.5189140 130.8217060 131.9715390  22.9118710 131.1389260 131.1584080
  22.8805990 129.9428940 132.0859910  14.2536260 129.4889400 140.1615510
  13.8599650 130.3364610 140.3688290  13.5654660 128.8515770 140.3524150
  20.8281310 129.5724370 143.2312250  20.1379630 129.3796570 143.8658340
  21.5713610 129.8559010 143.7636550  11.5553310 127.4117860 134.1945590
  11.2666360 127.9820720 134.9070570  12.2999070 126.9322310 134.5576820
  11.7423540 131.3537980 125.4048310  11.6598210 132.2968740 125.5463300
  11.3906600 131.2112890 124.5260660  23.1044280 133.4122810 136.0666170
  22.3725400 133.9209620 136.4156270  22.7068620 132.5952790 135.7654950
  19.5421670 130.0877010 134.4718660  19.5457730 129.6466960 133.6223200
  20.4372790 130.4094340 134.5790480  15.3924050 129.9703500 133.4312870
  15.0524100 130.4478730 134.1879920  14.6301370 129.5168620 133.0713970
  19.6041820 131.0889090 127.4625420  19.7254640 131.0475570 128.4111240
  19.2190330 131.9513240 127.3072150  23.5670190 128.8656490 135.4789110
  23.5842930 129.3165140 136.3230960  23.3185770 127.9662130 135.6922550
  18.6163320 133.3990230 126.8608720  18.0480220 132.9508480 126.2344630
  19.3252320 133.7583010 126.3273870  26.9940940 126.2788670 141.3175490
  27.3186710 125.5478330 141.8433470  27.0297450 125.9602310 140.4156480
  13.6932500 137.3002250 140.7375450  13.3087290 136.6595920 141.3358410
  14.0044690 138.0038370 141.3070180  19.8429640 134.1478790 136.2184070
  20.2099770 133.6737360 136.9645410  19.6534700 135.0220360 136.5592410
  12.7070130 128.8922480 132.3477540  12.4217050 128.5278150 133.1856160
  12.6448990 128.1602940 131.7340680  17.6329010 133.1887430 138.5368280
  17.3286080 134.0679410 138.7618640  18.5875470 133.2487220 138.5725720
  16.1610800 137.3948420 129.1335130  15.3873060 136.8546040 128.9733850
  16.8905430 136.8755030 128.7952890  26.9198780 136.3913780 134.9261520
  27.6397900 136.8869070 134.5357630  26.7180600 135.7131670 134.2815390
  22.3808720 127.7851740 129.0690910  21.5673330 127.2864910 128.9936220
  22.1870670 128.6249990 128.6527260  22.3017580 136.4622840 140.8130520
  22.2354890 135.5418510 140.5588110  21.6722720 136.5598280 141.5275160
  25.0957110 132.1571390 127.3653070  25.9836730 132.4688620 127.1904410
  25.0662200 131.2843640 126.9733650  16.2048200 137.0628800 132.7713940
  16.7226870 136.2597060 132.7170830  15.7532220 137.0007940 133.6130770
  21.0917700 138.3295080 128.0441240  21.4333400 139.0737310 127.5484560
  20.2630410 138.6426200 128.4066070  13.6892740 134.0290170 139.6839640
  13.3307680 134.6944020 140.2712980  13.3947300 133.1973720 140.0552260
  16.8905860 134.4874410 142.5679190  16.5906000 134.6331590 141.6707010
  17.6617100 133.9279700 142.4752580  22.2334310 139.2843410 140.5634320
  22.2478850 138.3524370 140.3453230  21.5259410 139.3703170 141.2024090
  27.3671380 133.4683230 126.8332930  27.2835100 133.8997450 125.9829370
  28.0865570 133.9281580 127.2659750  28.4445520 135.9250750 139.9102900
  27.7193710 136.5179530 139.7132290  28.9720980 135.9174290 139.1116270
  28.3958630 140.3225490 129.5615060  27.7534790 139.6681110 129.8358780
  28.0089290 140.7280580 128.7855730  23.9745110 137.6510920 133.4086750
  24.3268930 137.0539050 132.7488120  23.0907440 137.3255150 133.5795000
  20.0608390 138.4108610 130.8157160  20.7479520 138.9577820 131.1964750
  19.2740810 138.9549340 130.8506770  12.2000790 134.0281430 126.3074240
  13.0695640 134.3106230 126.5910160  11.7091110 134.8417300 126.1923050
  19.3635600 135.4154640 130.4282520  19.8198380 136.2259890 130.6542710
  19.0123810 135.0977780 131.2601010  21.6668210 140.9260980 137.6574820
  22.3110430 141.1320360 138.3348240  22.0297650 140.1649380 137.2045670
  15.2647380 125.7592290 130.9005040  15.1362010 125.7510190 131.8489960
  14.4409400 126.0975380 130.5496050  22.9400290 138.9293330 136.3752270
  23.5822520 138.2286490 136.4884440  23.4649640 139.7091770 136.1949160
  26.7856010 139.2141950 126.0991410  26.5593590 138.4972390 126.6916050
  26.3952210 138.9654390 125.2613160  24.7137910 139.7288230 139.5788330
  25.0494150 140.3154920 140.2566250  23.7938250 139.5980940 139.8086120
  12.5672040 143.2408810 126.8735870  12.9269680 143.8398150 126.2193140
  12.4264380 143.7868700 127.6470900  12.2641310 127.5183410 140.3611740
  11.5499830 127.7180330 140.9664350  12.6836350 126.7422980 140.7326540
  26.3672260 137.1313890 127.7605570  26.0793960 137.5926580 128.5483450
  27.1624430 136.6711660 128.0289790  12.5513900 141.5063670 141.3478270
  12.6605020 140.5658410 141.2073660  11.8994460 141.7718420 140.6992000
  20.5426490 139.7779560 142.7476390  20.2223360 139.0588800 143.2922080
  19.8684850 140.4534630 142.8212450  18.5840660 140.6240010 127.6909540
  18.5750760 141.3569700 127.0754050  17.6639020 140.3771590 127.7836500
  14.1847300 135.8454900 128.4356300  13.5775250 136.5853800 128.4451600
  14.6596650 135.9354260 127.6094500  23.7580090 130.0105720 138.1113190
  24.1260910 129.1900930 138.4392760  22.8978290 130.0707610 138.5268840
  27.1242120 128.9662660 128.9200750  26.4955280 129.0708330 128.2058980
  26.6294040 129.1859440 129.7094630  21.5700260 140.6868250 126.3534730
  21.6712240 140.4832240 125.4236710  20.6702000 140.4326530 126.5582510
  19.0926150 131.2448610 130.3358630  18.3842300 131.7134950 130.7772240
  19.3770630 130.5870620 130.9703820  20.7182080 132.6645310 138.3351160
  21.2167330 133.1391130 139.0003010  20.8605030 131.7408830 138.5421190
  23.1241580 127.9699270 131.7754420  23.0009360 127.9885400 130.8263930
  24.0726140 128.0178210 131.8952820  20.2118370 143.2054570 131.0482400
  20.4659870 143.1675960 130.1261770  19.2630850 143.0787900 131.0410650
  17.2961170 129.5533690 127.7109340  18.1451700 129.9903840 127.6449530
  16.9292440 129.8653950 128.5381400  27.9248940 128.8813270 139.1779550
  27.4222540 129.6218670 139.5173360  28.7405600 129.2697270 138.8616340
  26.2170950 134.1246450 132.6240910  25.2761090 134.1396680 132.7988600
  26.5315020 133.3382410 133.0701210  16.1952590 135.8066050 126.1844870
  16.9615860 135.6947410 126.7470300  16.2727280 135.1104020 125.5321640
  14.8899350 133.2391120 126.8677760  14.9702940 132.2918630 126.9795160
  15.7819100 133.5698000 126.9738420  28.2196530 141.2955300 134.2995170
  28.3443950 142.1186470 134.7718980  29.0862090 141.0846030 133.9519320
  15.6914060 143.3886510 133.9712300  16.4276540 142.8401970 134.2420870
  16.0754980 144.2542520 133.8318290  12.5759540 139.4560080 129.8453810
  11.6499320 139.6981220 129.8359220  13.0415970 140.2834340 129.7238560
  14.6972340 142.5732580 143.1597880  15.4985070 142.8944630 143.5733280
  14.1824160 142.2128160 143.8817790  18.8016370 142.5616820 125.7937870
  19.5944980 142.8505650 125.3419660  18.2820720 142.1308990 125.1150350
  23.5336970 138.6812450 143.1073290  22.9275130 138.7044050 142.3669040
  23.2291080 137.9495490 143.6440540  24.9637340 142.4092740 141.7182700
  25.9159090 142.3250760 141.6682940  24.8165560 143.0734450 142.3916490
  27.8546540 141.7886950 127.2174610  27.5688050 141.3752090 126.4028790
  27.6566090 142.7174660 127.0975130  12.4170150 135.0606040 142.1033930
  12.9209170 134.4813320 142.6750160  11.6777570 135.3446270 142.6410300
  19.3193770 137.7820230 125.6580220  19.2144410 137.1672580 126.3841600
  19.1517990 137.2586120 124.8743230  19.4708090 136.4677030 141.6369450
  18.7053760 137.0362030 141.5524120  19.6524050 136.1753240 140.7437680
  22.5596500 136.8440260 126.2622210  22.0106600 137.2909560 126.9064950
  23.1815760 136.3389510 126.7859880  26.6131440 138.1982360 142.1944470
  27.3540910 138.5358120 141.6911930  25.8504120 138.3674420 141.6414240
  14.4493230 133.2035630 142.9984000  14.4898570 132.9049500 143.9069230
  15.3038730 133.6043240 142.8391520  18.2271620 135.8031180 128.1587510
  18.6488040 135.6371050 129.0018900  18.3522460 134.9931410 127.6642650
  16.3899040 131.7827730 140.9658490  15.8595500 131.2918680 140.3381830
  17.0587110 132.2111930 140.4316420  20.7399260 134.8268790 125.4064610
  21.2604920 134.1117810 125.0405760  21.3867660 135.4654660 125.7065120
  25.2877100 136.2497190 140.7299680  25.7018120 136.4042270 141.5790100
  24.3528100 136.3752410 140.8925460  25.7599270 133.5893350 142.7338830
  26.3420040 132.8345670 142.6459310  25.9361040 134.1200790 141.9570310
  16.8771340 128.7490100 141.0455780  16.7828210 128.1310850 140.3206650
  16.2968730 129.4756390 140.8185690  19.6432780 127.3063340 138.0783170
  19.1950080 127.3287600 137.2328720  19.0097980 126.9082360 138.6753470
  20.0492330 136.2017670 138.6995610  20.4680440 137.0450400 138.5271850
  19.1300960 136.3389710 138.4702390  22.3856230 133.9333850 140.0833450
  22.5052440 133.3374990 140.8228290  23.2450230 133.9703540 139.6634750
  24.7244130 134.4871040 138.6595960  24.1979350 135.0113660 138.0561100
  25.0675470 135.1198430 139.2905690  17.1230520 131.8764410 125.1045670
  16.9219580 131.0131770 125.4659010  16.9522570 131.7897770 124.1667270
  17.8999750 142.5070680 139.8153340  17.3620840 143.2316740 139.4962040
  18.1533710 142.0301020 139.0250680  19.1525000 130.4755200 141.3409270
  19.7424690 130.1671050 142.0287090  18.3345240 130.0034950 141.4969170
  23.9718430 130.0921010 141.5742290  23.2833950 129.4302550 141.5092280
  24.6924450 129.6459280 142.0190750  24.6018830 126.6872640 127.6332550
  24.8821120 125.8440540 127.9891970  23.8284560 126.9195750 128.1471300
  15.9213320 128.9765030 125.0923550  16.2239220 128.9832460 124.1842700
  16.6607910 128.6262890 125.5891210  20.7561960 143.7421890 140.0739990
  20.6820660 144.6457030 140.3812360  19.8540800 143.4233790 140.0462060
  19.1398250 127.9199650 126.0779750  18.7920250 127.2423640 125.4982200
  19.3411020 127.4589160 126.8923140  21.3047290 142.9080400 127.6966350
  22.1998080 143.2465370 127.7185110  21.3364920 142.1859810 127.0690630
  14.9443450 138.2807450 125.9253350  15.3818320 138.8237120 126.5810930
  15.4291180 137.4554400 125.9349690  12.1589250 141.0696480 133.3773610
  12.4892260 140.2017540 133.1452250  12.5880250 141.2755000 134.2078570
  16.7551170 139.4005490 131.0375580  16.4546710 139.2770460 131.9379490
  16.6488660 138.5414080 130.6291310  12.6479460 141.9367070 136.1155240
  12.2110450 142.1167870 136.9479390  13.2157140 142.6941690 135.9736960
  28.2841640 141.4384070 140.4032550  27.6843630 141.4976630 139.6596470
  28.4135540 140.4989050 140.5329400  29.5243090 139.1801890 125.7402260
  28.6936050 139.2478540 126.2109490  29.7014920 140.0706010 125.4369120
  28.9799550 135.9249370 128.2436460  29.7418460 136.4946020 128.3496150
  28.9953920 135.3576570 129.0144770  12.4803890 134.4487300 132.4744120
  11.8252730 134.1798940 131.8303820  13.3181840 134.3391780 132.0246100
  29.9859520 136.7799470 133.0878390  30.3568350 135.9966790 132.6814360
  30.6261450 137.4688570 132.9095690  26.9693280 138.1636050 138.5008710
  26.1553120 138.5933210 138.7634500  27.3767480 138.7754460 137.8877760
  29.0318720 136.2183740 125.4008980  29.3067560 137.1262620 125.2728200
  28.8429460 136.1546270 126.3370970  25.4294330 129.2428590 126.6962610
  25.8479210 129.0559570 125.8559270  25.1230390 128.3907640 127.0065540
  28.9284060 134.1552730 130.3938410  28.5527660 133.3880660 129.9619700
  28.1987180 134.5375430 130.8813340  13.5179820 134.8339870 137.0147460
  13.8852860 134.7467270 137.8943480  12.9490640 134.0706420 136.9154320
  28.3183680 133.3024250 140.0277930  28.0869770 133.0737000 139.1275880
  28.5788230 134.2223800 139.9822820  13.0695820 131.7448960 140.9205880
  12.1751870 131.7115720 141.2599590  13.6093370 131.9435750 141.6857130
  26.7571750 128.5280680 142.8057630  27.6341930 128.5364080 143.1891630
  26.7692590 127.7911520 142.1949980  11.6941970 131.6586230 128.4169450
  10.7906050 131.9216430 128.2421110  12.1782590 131.9297400 127.6369410
  28.2035020 132.3810220 133.6945650  28.7272500 131.8872870 133.0635820
  28.7894440 132.5160580 134.4393220  28.3824740 132.4650090 137.2165200
  27.4327450 132.4313630 137.3310190  28.5637750 133.3750200 136.9814970
  14.2369180 130.7151770 126.3263830  14.9460880 130.2934990 125.8411110
  13.5209120 130.7827000 125.6947180  13.8843340 126.7691100 125.3666480
  14.6071470 127.3100040 125.6847700  14.1567860 126.4954520 124.4908020
  27.6934990 131.6383570 129.6338060  28.1894110 131.4054440 130.4186940
  27.4951060 130.7995410 129.2175700  13.5735530 126.0197290 135.2689100
  14.2211720 125.4694670 134.8284260  13.9937370 126.2740440 136.0904910
  29.1222150 130.2744520 132.1675740  29.0121430 130.1200560 133.1058010
  29.8829740 129.7465460 131.9251150  27.4687870 126.2138650 138.6258740
  28.1060090 126.8272790 138.9917930  27.6162760 126.2499310 137.6807970
  30.0112420 128.1052440 125.4081880  30.9361730 127.9733620 125.2000170
  29.9888210 128.1845260 126.3618330  30.0850910 128.8763100 128.0338590
  29.2902410 128.8108220 128.5631500  30.2894190 129.8113740 128.0223940
  27.0269330 142.9154650 132.0276980  27.6228400 142.5939220 131.3511400
  27.2847480 142.4426470 132.8190250  13.3267530 126.1752960 138.0114420
  12.9782350 126.6316780 138.7772600  12.9955230 125.2810090 138.0936850
  14.9331900 139.3472560 142.1767610  14.8901530 138.9765470 143.0582070
  15.0642910 140.2850130 142.3169430  18.6337930 140.9032150 137.7777330
  18.3929290 141.1706710 136.8907850  19.5740570 141.0737880 137.8328190
  20.8392350 127.3664840 141.5333840  20.7781240 127.9586670 142.2829250
  21.7792730 127.2590800 141.3884100  23.4766910 127.0234900 141.1726130
  24.0907320 127.3414190 140.5107210  24.0216470 126.5383490 141.7921990
  29.8942090 142.9226530 138.5787970  29.4000370 143.3195400 137.8615100
  29.2855380 142.2975740 138.9725250  13.9988170 125.7029160 141.2865190
  14.5471160 125.5217210 140.5231300  14.0643480 124.9123270 141.8221500
  14.7719930 142.2934810 139.2965390  14.1780250 142.1619510 140.0355430
  14.7643770 141.4572950 138.8307490  24.2174950 125.5867040 137.4995420
  23.3434790 125.9202150 137.2968350  24.1085700 125.1140220 138.3247290
  25.1246930 127.7937910 138.8837140  24.7960290 126.9789670 138.5038870
  26.0729230 127.7507720 138.7602830  27.5781540 143.5649950 135.8574710
  27.1184510 144.3165760 135.4832730  26.9494000 142.8456420 135.7989510
  14.4032160 139.6593190 138.2473430  13.6766220 139.0398480 138.1799380
  14.4641310 140.0533800 137.3771510  18.0077260 141.8738190 135.0322840
  18.5242280 141.2625550 134.5071100  18.6574640 142.3766970 135.5233850
  20.7472760 142.7646680 135.8591820  21.0350570 142.5100980 134.9824830
  21.2595980 142.2124040 136.4497390  21.9649770 126.5036880 136.4388330
  21.1821560 126.9782380 136.7185090  21.6712700 125.5991710 136.3301510
  26.5170840 127.2059980 134.4837420  26.9578930 127.1505080 133.6359020
  26.2478430 128.1217990 134.5547600  28.3809410 126.8375220 132.4946240
  28.3197810 125.8936440 132.3477260  29.1601440 126.9455310 133.0399700
  12.6862160 142.9767580 131.4570190  12.5184200 142.3438260 132.1552080
  11.8196670 143.1826980 131.1064380  13.3090180 126.8084360 128.9602050
  14.0669540 126.9213240 128.3866080  12.8467350 127.6453560 128.9145480
  19.8503990 128.9223630 131.9504360  19.0378500 128.5480520 131.6100240
  20.3545630 128.1668710 132.2525550  24.3528970 125.5866080 133.1887430
  24.9558340 126.1586290 133.6635950  23.6121960 126.1505520 132.9661330
  27.4963570 125.9887640 128.4627710  27.6914200 126.8871090 128.7295140
  26.7093440 125.7574720 128.9560660  14.2924860 141.6700810 128.9020330
  13.7672480 142.0508840 128.1982290  14.2169440 142.2951580 129.6230040
  15.6815330 127.3348410 127.5004020  16.2108090 126.5478210 127.3711970
  16.3143650 128.0139600 127.7339550  17.8753170 127.0723550 130.5549410
  17.2455910 126.3710860 130.7219540  17.3358310 127.8327680 130.3382570
  20.8145120 143.6862780 143.2260020  21.7412430 143.4507050 143.2695980
  20.7995550 144.5134780 142.7446050  29.0490180 143.2288350 130.2234270
  29.2242370 142.5426090 129.5795190  28.3511750 143.7535400 129.8310940
  18.0008730 126.3507530 142.9901900  17.7193000 126.8541130 142.2262720
  18.3828430 125.5529280 142.6244030  16.8917830 143.6183190 127.7769580
  17.6236650 143.3342470 127.2293470  17.1511500 143.3796470 128.6668960
  16.0532620 139.7347920 127.7815910  15.4241500 140.2033020 128.3301740
  16.1680450 138.8897140 128.2162100  24.6024190 125.7661110 143.5682370
  24.4889640 126.0855720 144.4633890  25.4193930 126.1673620 143.2719650
  27.3822680 142.9132640 143.0501060  28.1748000 142.4181870 142.8427020
  27.6755830 143.5922780 143.6576670  23.5082340 133.7853580 113.9317110
  23.4276390 132.8708190 113.6608820  23.0946760 134.2820650 113.2256820
  21.6400380 135.5632600 115.8126380  20.8642480 135.0833040 116.1024950
  22.2913310 134.8838250 115.6382540  15.6566210 135.8752410 116.6902140
  14.8251090 135.6201120 117.0898650  16.2647190 135.9463180 117.4260060
  25.6607810 139.9692790 114.5925510  25.1989340 139.1980030 114.9212680
  26.4733360 139.9958860 115.0977960  15.6367470 139.9092500 116.8860160
  15.9395510 139.0190240 116.7070380  16.3811060 140.4662720 116.6582410
  14.0658160 130.8354300 110.4744530  13.1774860 131.1770270 110.3724410
  14.3499350 130.6354620 109.5825360  12.0291170 133.4359950 116.3584230
  12.6007280 132.6682150 116.3587870  12.0292710 133.7348710 115.4490840
  21.8871120 142.2550800 114.2129500  21.2682560 142.7108300 113.6423940
  22.7422900 142.4102260 113.8119200  21.0809370 138.2389790 115.8196540
  21.0117650 137.2979730 115.6585670  21.8429230 138.3291200 116.3919110
  13.2716040 128.8444310 118.1453160  13.0918880 127.9470060 118.4255920
  12.8696120 129.3916180 118.8200110  22.1114540 131.0460170 116.0465470
  22.4879360 130.1732050 115.9339140  22.0134050 131.3818870 115.1555910
  16.2419550 129.4185800 111.5082910  16.3486300 130.3189530 111.8151670
  15.3311910 129.3703770 111.2177560  25.8938660 128.5410610 112.9793810
  26.7148280 128.0507180 113.0219290  25.9272740 129.1308270 113.7325650
  13.8902710 131.3404810 116.7535500  14.5712820 131.6043180 117.3722900
  13.5750760 130.5005680 117.0873510  18.0827280 132.3872170 115.8408090
  18.5905500 132.8853140 116.4813110  18.6140520 131.6107370 115.6647450
  30.1838210 130.5577360 119.5437440  29.4790380 130.9459070 119.0252550
  30.4496130 131.2527650 120.1458370  16.3663380 127.0270730 120.1071510
  16.3681820 127.5443120 119.3017410  15.5367690 126.5500910 120.0841440
  22.7534470 137.1390040 111.6061410  22.1351740 137.6039490 111.0424130
  23.2657720 137.8317520 112.0230920  17.6166230 136.6665910 118.2845010
  17.2835610 137.2934830 118.9266080  17.7932910 137.1927790 117.5046680
  26.1300140 130.4810990 115.7521350  25.4255710 130.7695880 116.3324460
  26.4912300 131.2911100 115.3920910  16.0478710 128.7380690 118.1141960
  16.3895520 129.5822740 117.8195830  15.1094520 128.8864430 118.2307300
  16.8285330 138.6346710 120.0994190  17.4459330 139.3097790 119.8178640
  15.9678450 139.0434690 120.0081690  12.1217670 137.8246570 108.9801040
  11.7445650 138.3133670 108.2485940  12.3790740 138.4971850 109.6107570
  27.7462920 140.0986120 118.0148830  27.0626440 140.7685230 118.0065500
  28.2857210 140.2966770 117.2493690  29.1987060 129.9265780 116.1430560
  28.2511970 129.9604760 116.2745990  29.5237050 130.7404730 116.5279920
  19.7306600 126.2262960 114.4386550  20.0381580 125.6709850 113.7222050
  18.8007300 126.3607420 114.2559540  25.2821660 141.9430250 116.7294010
  25.2948820 141.5392540 115.8616270  24.7296880 142.7177540 116.6255440
  26.5767080 138.6646470 111.8184180  26.4663410 137.7220800 111.9433600
  26.5735330 139.0262110 112.7046940  24.6807100 136.8460090 118.0576620
  25.0975890 136.6320200 117.2230080  25.4046920 137.1032880 118.6285240
  22.1187360 134.2911790 111.1746670  21.1916640 134.2249170 111.4035140
  22.2712180 135.2291920 111.0601910  22.1056440 130.5628790 108.1713830
  21.1660110 130.7242750 108.2566290  22.4239700 131.2814470 107.6249820
  28.6269200 135.2447310 118.1492860  27.7987830 135.3140400 117.6742990
  29.2219680 135.8301620 117.6808690  26.1484650 135.8532090 111.6781920
  25.5297070 135.5151640 111.0308220  26.1309100 135.2091850 112.3861110
  25.5911210 132.0316630 119.0947730  25.1782390 132.8570340 119.3487720
  24.8587160 131.4461670 118.9024090  17.7244000 134.8176530 113.9566400
  17.3201000 134.1053780 113.4612300  17.8107120 134.4729770 114.8454440
  18.1925700 138.5044090 116.1205610  17.8953990 137.8989560 115.4413390
  19.1425520 138.5421400 116.0094970  16.4372620 131.5919740 117.7365440
  16.9887210 131.7015080 116.9618690  16.9516130 131.9657340 118.4520670
  26.2811310 142.0775960 119.7828710  25.8041870 142.8848150 119.5901320
  25.5973100 141.4254290 119.9354920  17.2844130 138.2425780 122.7713410
  16.3872660 138.4665750 123.0186810  17.3097000 138.3660720 121.8224810
  24.3249350 135.0918900 108.6854670  24.7642630 134.2541330 108.5392490
  25.0377770 135.7248300 108.7718810  16.1115350 135.1139100 121.3470780
  15.9723120 135.9861900 121.7158180  15.2296710 134.7711910 121.2018720
  22.4344730 140.0314970 112.6535910  22.8740640 140.7739300 112.2391300
  22.3731620 140.2741540 113.5774870  17.9095700 141.0560800 123.5555930
  17.8811130 141.4603750 122.6884360  17.7460670 140.1271160 123.3927530
  27.9066490 126.3461710 106.9995710  27.5939150 126.4388540 107.8994780
  28.6678960 126.9242740 106.9493140  14.4248630 133.7121510 111.4573050
  14.3046230 134.4383600 110.8454320  14.1149520 132.9424420 110.9800960
  29.8610520 141.8387900 124.8520100  30.3370240 142.3170790 125.5309180
  30.4817680 141.7705390 124.1265600  12.0634000 136.8836650 117.2641690
  12.1414420 137.0185420 116.3197410  12.6775680 136.1752540 117.4569810
  13.3081630 138.5836840 113.6747870  12.9009710 138.7251430 112.8201470
  14.1994640 138.2997000 113.4719080  29.2643770 139.0300750 122.0120110
  29.3906830 138.7912630 121.0937290  29.3065150 138.1985290 122.4842190
  23.1260510 142.7328750 120.5814920  23.6405180 142.6436760 121.3837350
  22.2829590 143.0788450 120.8742830  25.1014910 143.0184090 110.0098920
  24.9416050 142.7287030 110.9080750  24.9361620 142.2424220 109.4744150
  17.5803290 142.7982620 111.7870540  17.4045770 141.8818160 111.5738340
  16.7259030 143.1569910 112.0268340  24.8041040 140.5271650 108.5696920
  24.1106200 140.5248940 107.9099200  25.5463900 140.1030970 108.1391090
  24.3690970 142.1534360 112.6445410  24.8247920 141.3723740 112.9584030
  24.7083490 142.8641180 113.1886590  29.1167780 131.0833210 122.9769850
  28.5012050 131.5912880 122.4485310  28.7964200 130.1831540 122.9195790
  12.1193520 137.9250820 119.8036150  12.2824560 137.4556180 118.9855520
  12.5845970 137.4174380 120.4684990  16.8912290 127.0556580 114.8396720
  16.4480440 127.8366120 114.5081240  17.4497280 127.3786470 115.5467660
  21.1782100 129.9225100 120.4432040  20.7161470 130.1308120 121.2551980
  20.7760210 129.1084450 120.1402710  26.1786610 131.1434050 121.5728700
  25.3280200 130.8439800 121.8937770  26.0188400 131.3876060 120.6612520
  23.2736320 132.6435800 123.6727490  23.5989730 131.8099550 123.3329720
  24.0616650 133.1664320 123.8205820  20.0071110 126.6767280 109.7202550
  19.3825290 126.6727150 110.4455860  19.9201230 125.8098240 109.3238520
  18.9288190 127.6003910 116.6986320  19.2260520 128.5066740 116.6178340
  19.4773750 127.1122690 116.0845890  16.6826510 132.1790150 112.5677970
  16.4567430 131.9627320 113.4724590  15.9019040 132.6118610 112.2223940
  23.9124270 132.1853520 111.1668620  23.3133160 132.9089320 110.9832240
  24.4603880 132.1230300 110.3845070  19.1225720 133.0775730 123.2338240
  19.0269320 132.1370460 123.0838640  19.9657700 133.2990800 122.8386310
  22.5189140 130.8217060 113.1971900  22.9118710 131.1389260 112.3840590
  22.8805990 129.9428940 113.3116420  14.2536260 129.4889400 121.3872020
  13.8599650 130.3364610 121.5944800  13.5654660 128.8515770 121.5780660
  20.8281310 129.5724370 124.4568760  20.1379630 129.3796570 125.0914850
  21.5713610 129.8559010 124.9893060  11.5553310 127.4117860 115.4202100
  11.2666360 127.9820720 116.1327080  12.2999070 126.9322310 115.7833330
  11.7423540 131.3537980 106.6304820  11.6598210 132.2968740 106.7719810
  11.3906600 131.2112890 105.7517170  23.1044280 133.4122810 117.2922680
  22.3725400 133.9209620 117.6412780  22.7068620 132.5952790 116.9911460
  19.5421670 130.0877010 115.6975170  19.5457730 129.6466960 114.8479710
  20.4372790 130.4094340 115.8046990  15.3924050 129.9703500 114.6569380
  15.0524100 130.4478730 115.4136430  14.6301370 129.5168620 114.2970480
  19.6041820 131.0889090 108.6881930  19.7254640 131.0475570 109.6367750
  19.2190330 131.9513240 108.5328660  23.5670190 128.8656490 116.7045620
  23.5842930 129.3165140 117.5487470  23.3185770 127.9662130 116.9179060
  18.6163320 133.3990230 108.0865230  18.0480220 132.9508480 107.4601140
  19.3252320 133.7583010 107.5530380  26.9940940 126.2788670 122.5432000
  27.3186710 125.5478330 123.0689980  27.0297450 125.9602310 121.6412990
  13.6932500 137.3002250 121.9631960  13.3087290 136.6595920 122.5614920
  14.0044690 138.0038370 122.5326690  19.8429640 134.1478790 117.4440580
  20.2099770 133.6737360 118.1901920  19.6534700 135.0220360 117.7848920
  12.7070130 128.8922480 113.5734050  12.4217050 128.5278150 114.4112670
  12.6448990 128.1602940 112.9597190  17.6329010 133.1887430 119.7624790
  17.3286080 134.0679410 119.9875150  18.5875470 133.2487220 119.7982230
  16.1610800 137.3948420 110.3591640  15.3873060 136.8546040 110.1990360
  16.8905430 136.8755030 110.0209400  26.9198780 136.3913780 116.1518030
  27.6397900 136.8869070 115.7614140  26.7180600 135.7131670 115.5071900
  22.3808720 127.7851740 110.2947420  21.5673330 127.2864910 110.2192730
  22.1870670 128.6249990 109.8783770  22.3017580 136.4622840 122.0387030
  22.2354890 135.5418510 121.7844620  21.6722720 136.5598280 122.7531670
  25.0957110 132.1571390 108.5909580  25.9836730 132.4688620 108.4160920
  25.0662200 131.2843640 108.1990160  16.2048200 137.0628800 113.9970450
  16.7226870 136.2597060 113.9427340  15.7532220 137.0007940 114.8387280
  21.0917700 138.3295080 109.2697750  21.4333400 139.0737310 108.7741070
  20.2630410 138.6426200 109.6322580  13.6892740 134.0290170 120.9096150
  13.3307680 134.6944020 121.4969490  13.3947300 133.1973720 121.2808770
  16.8905860 134.4874410 123.7935700  16.5906000 134.6331590 122.8963520
  17.6617100 133.9279700 123.7009090  22.2334310 139.2843410 121.7890830
  22.2478850 138.3524370 121.5709740  21.5259410 139.3703170 122.4280600
  27.3671380 133.4683230 108.0589440  27.2835100 133.8997450 107.2085880
  28.0865570 133.9281580 108.4916260  28.4445520 135.9250750 121.1359410
  27.7193710 136.5179530 120.9388800  28.9720980 135.9174290 120.3372780
  28.3958630 140.3225490 110.7871570  27.7534790 139.6681110 111.0615290
  28.0089290 140.7280580 110.0112240  23.9745110 137.6510920 114.6343260
  24.3268930 137.0539050 113.9744630  23.0907440 137.3255150 114.8051510
  20.0608390 138.4108610 112.0413670  20.7479520 138.9577820 112.4221260
  19.2740810 138.9549340 112.0763280  12.2000790 134.0281430 107.5330750
  13.0695640 134.3106230 107.8166670  11.7091110 134.8417300 107.4179560
  19.3635600 135.4154640 111.6539030  19.8198380 136.2259890 111.8799220
  19.0123810 135.0977780 112.4857520  21.6668210 140.9260980 118.8831330
  22.3110430 141.1320360 119.5604750  22.0297650 140.1649380 118.4302180
  15.2647380 125.7592290 112.1261550  15.1362010 125.7510190 113.0746470
  14.4409400 126.0975380 111.7752560  22.9400290 138.9293330 117.6008780
  23.5822520 138.2286490 117.7140950  23.4649640 139.7091770 117.4205670
  26.7856010 139.2141950 107.3247920  26.5593590 138.4972390 107.9172560
  26.3952210 138.9654390 106.4869670  24.7137910 139.7288230 120.8044840
  25.0494150 140.3154920 121.4822760  23.7938250 139.5980940 121.0342630
  12.5672040 143.2408810 108.0992380  12.9269680 143.8398150 107.4449650
  12.4264380 143.7868700 108.8727410  12.2641310 127.5183410 121.5868250
  11.5499830 127.7180330 122.1920860  12.6836350 126.7422980 121.9583050
  26.3672260 137.1313890 108.9862080  26.0793960 137.5926580 109.7739960
  27.1624430 136.6711660 109.2546300  12.5513900 141.5063670 122.5734780
  12.6605020 140.5658410 122.4330170  11.8994460 141.7718420 121.9248510
  20.5426490 139.7779560 123.9732900  20.2223360 139.0588800 124.5178590
  19.8684850 140.4534630 124.0468960  18.5840660 140.6240010 108.9166050
  18.5750760 141.3569700 108.3010560  17.6639020 140.3771590 109.0093010
  14.1847300 135.8454900 109.6612810  13.5775250 136.5853800 109.6708110
  14.6596650 135.9354260 108.8351010  23.7580090 130.0105720 119.3369700
  24.1260910 129.1900930 119.6649270  22.8978290 130.0707610 119.7525350
  27.1242120 128.9662660 110.1457260  26.4955280 129.0708330 109.4315490
  26.6294040 129.1859440 110.9351140  21.5700260 140.6868250 107.5791240
  21.6712240 140.4832240 106.6493220  20.6702000 140.4326530 107.7839020
  19.0926150 131.2448610 111.5615140  18.3842300 131.7134950 112.0028750
  19.3770630 130.5870620 112.1960330  20.7182080 132.6645310 119.5607670
  21.2167330 133.1391130 120.2259520  20.8605030 131.7408830 119.7677700
  23.1241580 127.9699270 113.0010930  23.0009360 127.9885400 112.0520440
  24.0726140 128.0178210 113.1209330  20.2118370 143.2054570 112.2738910
  20.4659870 143.1675960 111.3518280  19.2630850 143.0787900 112.2667160
  17.2961170 129.5533690 108.9365850  18.1451700 129.9903840 108.8706040
  16.9292440 129.8653950 109.7637910  27.9248940 128.8813270 120.4036060
  27.4222540 129.6218670 120.7429870  28.7405600 129.2697270 120.0872850
  26.2170950 134.1246450 113.8497420  25.2761090 134.1396680 114.0245110
  26.5315020 133.3382410 114.2957720  16.1952590 135.8066050 107.4101380
  16.9615860 135.6947410 107.9726810  16.2727280 135.1104020 106.7578150
  14.8899350 133.2391120 108.0934270  14.9702940 132.2918630 108.2051670
  15.7819100 133.5698000 108.1994930  28.2196530 141.2955300 115.5251680
  28.3443950 142.1186470 115.9975490  29.0862090 141.0846030 115.1775830
  15.6914060 143.3886510 115.1968810  16.4276540 142.8401970 115.4677380
  16.0754980 144.2542520 115.0574800  12.5759540 139.4560080 111.0710320
  11.6499320 139.6981220 111.0615730  13.0415970 140.2834340 110.9495070
  14.6972340 142.5732580 124.3854390  15.4985070 142.8944630 124.7989790
  14.1824160 142.2128160 125.1074300  18.8016370 142.5616820 107.0194380
  19.5944980 142.8505650 106.5676170  18.2820720 142.1308990 106.3406860
  23.5336970 138.6812450 124.3329800  22.9275130 138.7044050 123.5925550
  23.2291080 137.9495490 124.8697050  24.9637340 142.4092740 122.9439210
  25.9159090 142.3250760 122.8939450  24.8165560 143.0734450 123.6173000
  27.8546540 141.7886950 108.4431120  27.5688050 141.3752090 107.6285300
  27.6566090 142.7174660 108.3231640  12.4170150 135.0606040 123.3290440
  12.9209170 134.4813320 123.9006670  11.6777570 135.3446270 123.8666810
  19.3193770 137.7820230 106.8836730  19.2144410 137.1672580 107.6098110
  19.1517990 137.2586120 106.0999740  19.4708090 136.4677030 122.8625960
  18.7053760 137.0362030 122.7780630  19.6524050 136.1753240 121.9694190
  22.5596500 136.8440260 107.4878720  22.0106600 137.2909560 108.1321460
  23.1815760 136.3389510 108.0116390  26.6131440 138.1982360 123.4200980
  27.3540910 138.5358120 122.9168440  25.8504120 138.3674420 122.8670750
  14.4493230 133.2035630 124.2240510  14.4898570 132.9049500 125.1325740
  15.3038730 133.6043240 124.0648030  18.2271620 135.8031180 109.3844020
  18.6488040 135.6371050 110.2275410  18.3522460 134.9931410 108.8899160
  16.3899040 131.7827730 122.1915000  15.8595500 131.2918680 121.5638340
  17.0587110 132.2111930 121.6572930  20.7399260 134.8268790 106.6321120
  21.2604920 134.1117810 106.2662270  21.3867660 135.4654660 106.9321630
  25.2877100 136.2497190 121.9556190  25.7018120 136.4042270 122.8046610
  24.3528100 136.3752410 122.1181970  25.7599270 133.5893350 123.9595340
  26.3420040 132.8345670 123.8715820  25.9361040 134.1200790 123.1826820
  16.8771340 128.7490100 122.2712290  16.7828210 128.1310850 121.5463160
  16.2968730 129.4756390 122.0442200  19.6432780 127.3063340 119.3039680
  19.1950080 127.3287600 118.4585230  19.0097980 126.9082360 119.9009980
  20.0492330 136.2017670 119.9252120  20.4680440 137.0450400 119.7528360
  19.1300960 136.3389710 119.6958900  22.3856230 133.9333850 121.3089960
  22.5052440 133.3374990 122.0484800  23.2450230 133.9703540 120.8891260
  24.7244130 134.4871040 119.8852470  24.1979350 135.0113660 119.2817610
  25.0675470 135.1198430 120.5162200  17.1230520 131.8764410 106.3302180
  16.9219580 131.0131770 106.6915520  16.9522570 131.7897770 105.3923780
  17.8999750 142.5070680 121.0409850  17.3620840 143.2316740 120.7218550
  18.1533710 142.0301020 120.2507190  19.1525000 130.4755200 122.5665780
  19.7424690 130.1671050 123.2543600  18.3345240 130.0034950 122.7225680
  23.9718430 130.0921010 122.7998800  23.2833950 129.4302550 122.7348790
  24.6924450 129.6459280 123.2447260  24.6018830 126.6872640 108.8589060
  24.8821120 125.8440540 109.2148480  23.8284560 126.9195750 109.3727810
  15.9213320 128.9765030 106.3180060  16.2239220 128.9832460 105.4099210
  16.6607910 128.6262890 106.8147720  20.7561960 143.7421890 121.2996500
  20.6820660 144.6457030 121.6068870  19.8540800 143.4233790 121.2718570
  19.1398250 127.9199650 107.3036260  18.7920250 127.2423640 106.7238710
  19.3411020 127.4589160 108.1179650  21.3047290 142.9080400 108.9222860
  22.1998080 143.2465370 108.9441620  21.3364920 142.1859810 108.2947140
  14.9443450 138.2807450 107.1509860  15.3818320 138.8237120 107.8067440
  15.4291180 137.4554400 107.1606200  12.1589250 141.0696480 114.6030120
  12.4892260 140.2017540 114.3708760  12.5880250 141.2755000 115.4335080
  16.7551170 139.4005490 112.2632090  16.4546710 139.2770460 113.1636000
  16.6488660 138.5414080 111.8547820  12.6479460 141.9367070 117.3411750
  12.2110450 142.1167870 118.1735900  13.2157140 142.6941690 117.1993470
  28.2841640 141.4384070 121.6289060  27.6843630 141.4976630 120.8852980
  28.4135540 140.4989050 121.7585910  29.5243090 139.1801890 106.9658770
  28.6936050 139.2478540 107.4366000  29.7014920 140.0706010 106.6625630
  28.9799550 135.9249370 109.4692970  29.7418460 136.4946020 109.5752660
  28.9953920 135.3576570 110.2401280  12.4803890 134.4487300 113.7000630
  11.8252730 134.1798940 113.0560330  13.3181840 134.3391780 113.2502610
  29.9859520 136.7799470 114.3134900  30.3568350 135.9966790 113.9070870
  30.6261450 137.4688570 114.1352200  26.9693280 138.1636050 119.7265220
  26.1553120 138.5933210 119.9891010  27.3767480 138.7754460 119.1134270
  29.0318720 136.2183740 106.6265490  29.3067560 137.1262620 106.4984710
  28.8429460 136.1546270 107.5627480  25.4294330 129.2428590 107.9219120
  25.8479210 129.0559570 107.0815780  25.1230390 128.3907640 108.2322050
  28.9284060 134.1552730 111.6194920  28.5527660 133.3880660 111.1876210
  28.1987180 134.5375430 112.1069850  13.5179820 134.8339870 118.2403970
  13.8852860 134.7467270 119.1199990  12.9490640 134.0706420 118.1410830
  28.3183680 133.3024250 121.2534440  28.0869770 133.0737000 120.3532390
  28.5788230 134.2223800 121.2079330  13.0695820 131.7448960 122.1462390
  12.1751870 131.7115720 122.4856100  13.6093370 131.9435750 122.9113640
  26.7571750 128.5280680 124.0314140  27.6341930 128.5364080 124.4148140
  26.7692590 127.7911520 123.4206490  11.6941970 131.6586230 109.6425960
  10.7906050 131.9216430 109.4677620  12.1782590 131.9297400 108.8625920
  28.2035020 132.3810220 114.9202160  28.7272500 131.8872870 114.2892330
  28.7894440 132.5160580 115.6649730  28.3824740 132.4650090 118.4421710
  27.4327450 132.4313630 118.5566700  28.5637750 133.3750200 118.2071480
  14.2369180 130.7151770 107.5520340  14.9460880 130.2934990 107.0667620
  13.5209120 130.7827000 106.9203690  13.8843340 126.7691100 106.5922990
  14.6071470 127.3100040 106.9104210  14.1567860 126.4954520 105.7164530
  27.6934990 131.6383570 110.8594570  28.1894110 131.4054440 111.6443450
  27.4951060 130.7995410 110.4432210  13.5735530 126.0197290 116.4945610
  14.2211720 125.4694670 116.0540770  13.9937370 126.2740440 117.3161420
  29.1222150 130.2744520 113.3932250  29.0121430 130.1200560 114.3314520
  29.8829740 129.7465460 113.1507660  27.4687870 126.2138650 119.8515250
  28.1060090 126.8272790 120.2174440  27.6162760 126.2499310 118.9064480
  30.0112420 128.1052440 106.6338390  30.9361730 127.9733620 106.4256680
  29.9888210 128.1845260 107.5874840  30.0850910 128.8763100 109.2595100
  29.2902410 128.8108220 109.7888010  30.2894190 129.8113740 109.2480450
  27.0269330 142.9154650 113.2533490  27.6228400 142.5939220 112.5767910
  27.2847480 142.4426470 114.0446760  13.3267530 126.1752960 119.2370930
  12.9782350 126.6316780 120.0029110  12.9955230 125.2810090 119.3193360
  14.9331900 139.3472560 123.4024120  14.8901530 138.9765470 124.2838580
  15.0642910 140.2850130 123.5425940  18.6337930 140.9032150 119.0033840
  18.3929290 141.1706710 118.1164360  19.5740570 141.0737880 119.0584700
  20.8392350 127.3664840 122.7590350  20.7781240 127.9586670 123.5085760
  21.7792730 127.2590800 122.6140610  23.4766910 127.0234900 122.3982640
  24.0907320 127.3414190 121.7363720  24.0216470 126.5383490 123.0178500
  29.8942090 142.9226530 119.8044480  29.4000370 143.3195400 119.0871610
  29.2855380 142.2975740 120.1981760  13.9988170 125.7029160 122.5121700
  14.5471160 125.5217210 121.7487810  14.0643480 124.9123270 123.0478010
  14.7719930 142.2934810 120.5221900  14.1780250 142.1619510 121.2611940
  14.7643770 141.4572950 120.0564000  24.2174950 125.5867040 118.7251930
  23.3434790 125.9202150 118.5224860  24.1085700 125.1140220 119.5503800
  25.1246930 127.7937910 120.1093650  24.7960290 126.9789670 119.7295380
  26.0729230 127.7507720 119.9859340  27.5781540 143.5649950 117.0831220
  27.1184510 144.3165760 116.7089240  26.9494000 142.8456420 117.0246020
  14.4032160 139.6593190 119.4729940  13.6766220 139.0398480 119.4055890
  14.4641310 140.0533800 118.6028020  18.0077260 141.8738190 116.2579350
  18.5242280 141.2625550 115.7327610  18.6574640 142.3766970 116.7490360
  20.7472760 142.7646680 117.0848330  21.0350570 142.5100980 116.2081340
  21.2595980 142.2124040 117.6753900  21.9649770 126.5036880 117.6644840
  21.1821560 126.9782380 117.9441600  21.6712700 125.5991710 117.5558020
  26.5170840 127.2059980 115.7093930  26.9578930 127.1505080 114.8615530
  26.2478430 128.1217990 115.7804110  28.3809410 126.8375220 113.7202750
  28.3197810 125.8936440 113.5733770  29.1601440 126.9455310 114.2656210
  12.6862160 142.9767580 112.6826700  12.5184200 142.3438260 113.3808590
  11.8196670 143.1826980 112.3320890  13.3090180 126.8084360 110.1858560
  14.0669540 126.9213240 109.6122590  12.8467350 127.6453560 110.1401990
  19.8503990 128.9223630 113.1760870  19.0378500 128.5480520 112.8356750
  20.3545630 128.1668710 113.4782060  24.3528970 125.5866080 114.4143940
  24.9558340 126.1586290 114.8892460  23.6121960 126.1505520 114.1917840
  27.4963570 125.9887640 109.6884220  27.6914200 126.8871090 109.9551650
  26.7093440 125.7574720 110.1817170  14.2924860 141.6700810 110.1276840
  13.7672480 142.0508840 109.4238800  14.2169440 142.2951580 110.8486550
  15.6815330 127.3348410 108.7260530  16.2108090 126.5478210 108.5968480
  16.3143650 128.0139600 108.9596060  17.8753170 127.0723550 111.7805920
  17.2455910 126.3710860 111.9476050  17.3358310 127.8327680 111.5639080
  20.8145120 143.6862780 124.4516530  21.7412430 143.4507050 124.4952490
  20.7995550 144.5134780 123.9702560  29.0490180 143.2288350 111.4490780
  29.2242370 142.5426090 110.8051700  28.3511750 143.7535400 111.0567450
  18.0008730 126.3507530 124.2158410  17.7193000 126.8541130 123.4519230
  18.3828430 125.5529280 123.8500540  16.8917830 143.6183190 109.0026090
  17.6236650 143.3342470 108.4549980  17.1511500 143.3796470 109.8925470
  16.0532620 139.7347920 109.0072420  15.4241500 140.2033020 109.5558250
  16.1680450 138.8897140 109.4418610  24.6024190 125.7661110 124.7938880
  24.4889640 126.0855720 125.6890400  25.4193930 126.1673620 124.4976160
  27.3822680 142.9132640 124.2757570  28.1748000 142.4181870 124.0683530
  27.6755830 143.5922780 124.8833180  23.5082340 133.7853580  95.1573620
  23.4276390 132.8708190  94.8865330  23.0946760 134.2820650  94.4513330
  21.6400380 135.5632600  97.0382890  20.8642480 135.0833040  97.3281460
  22.2913310 134.8838250  96.8639050  15.6566210 135.8752410  97.9158650
  14.8251090 135.6201120  98.3155160  16.2647190 135.9463180  98.6516570
  25.6607810 139.9692790  95.8182020  25.1989340 139.1980030  96.1469190
  26.4733360 139.9958860  96.3234470  15.6367470 139.9092500  98.1116670
  15.9395510 139.0190240  97.9326890  16.3811060 140.4662720  97.8838920
  14.0658160 130.8354300  91.7001040  13.1774860 131.1770270  91.5980920
  14.3499350 130.6354620  90.8081870  12.0291170 133.4359950  97.5840740
  12.6007280 132.6682150  97.5844380  12.0292710 133.7348710  96.6747350
  21.8871120 142.2550800  95.4386010  21.2682560 142.7108300  94.8680450
  22.7422900 142.4102260  95.0375710  21.0809370 138.2389790  97.0453050
  21.0117650 137.2979730  96.8842180  21.8429230 138.3291200  97.6175620
  13.2716040 128.8444310  99.3709670  13.0918880 127.9470060  99.6512430
  12.8696120 129.3916180 100.0456620  22.1114540 131.0460170  97.2721980
  22.4879360 130.1732050  97.1595650  22.0134050 131.3818870  96.3812420
  16.2419550 129.4185800  92.7339420  16.3486300 130.3189530  93.0408180
  15.3311910 129.3703770  92.4434070  25.8938660 128.5410610  94.2050320
  26.7148280 128.0507180  94.2475800  25.9272740 129.1308270  94.9582160
  13.8902710 131.3404810  97.9792010  14.5712820 131.6043180  98.5979410
  13.5750760 130.5005680  98.3130020  18.0827280 132.3872170  97.0664600
  18.5905500 132.8853140  97.7069620  18.6140520 131.6107370  96.8903960
  30.1838210 130.5577360 100.7693950  29.4790380 130.9459070 100.2509060
  30.4496130 131.2527650 101.3714880  16.3663380 127.0270730 101.3328020
  16.3681820 127.5443120 100.5273920  15.5367690 126.5500910 101.3097950
  22.7534470 137.1390040  92.8317920  22.1351740 137.6039490  92.2680640
  23.2657720 137.8317520  93.2487430  17.6166230 136.6665910  99.5101520
  17.2835610 137.2934830 100.1522590  17.7932910 137.1927790  98.7303190
  26.1300140 130.4810990  96.9777860  25.4255710 130.7695880  97.5580970
  26.4912300 131.2911100  96.6177420  16.0478710 128.7380690  99.3398470
  16.3895520 129.5822740  99.0452340  15.1094520 128.8864430  99.4563810
  16.8285330 138.6346710 101.3250700  17.4459330 139.3097790 101.0435150
  15.9678450 139.0434690 101.2338200  12.1217670 137.8246570  90.2057550
  11.7445650 138.3133670  89.4742450  12.3790740 138.4971850  90.8364080
  27.7462920 140.0986120  99.2405340  27.0626440 140.7685230  99.2322010
  28.2857210 140.2966770  98.4750200  29.1987060 129.9265780  97.3687070
  28.2511970 129.9604760  97.5002500  29.5237050 130.7404730  97.7536430
  19.7306600 126.2262960  95.6643060  20.0381580 125.6709850  94.9478560
  18.8007300 126.3607420  95.4816050  25.2821660 141.9430250  97.9550520
  25.2948820 141.5392540  97.0872780  24.7296880 142.7177540  97.8511950
  26.5767080 138.6646470  93.0440690  26.4663410 137.7220800  93.1690110
  26.5735330 139.0262110  93.9303450  24.6807100 136.8460090  99.2833130
  25.0975890 136.6320200  98.4486590  25.4046920 137.1032880  99.8541750
  22.1187360 134.2911790  92.4003180  21.1916640 134.2249170  92.6291650
  22.2712180 135.2291920  92.2858420  22.1056440 130.5628790  89.3970340
  21.1660110 130.7242750  89.4822800  22.4239700 131.2814470  88.8506330
  28.6269200 135.2447310  99.3749370  27.7987830 135.3140400  98.8999500
  29.2219680 135.8301620  98.9065200  26.1484650 135.8532090  92.9038430
  25.5297070 135.5151640  92.2564730  26.1309100 135.2091850  93.6117620
  25.5911210 132.0316630 100.3204240  25.1782390 132.8570340 100.5744230
  24.8587160 131.4461670 100.1280600  17.7244000 134.8176530  95.1822910
  17.3201000 134.1053780  94.6868810  17.8107120 134.4729770  96.0710950
  18.1925700 138.5044090  97.3462120  17.8953990 137.8989560  96.6669900
  19.1425520 138.5421400  97.2351480  16.4372620 131.5919740  98.9621950
  16.9887210 131.7015080  98.1875200  16.9516130 131.9657340  99.6777180
  26.2811310 142.0775960 101.0085220  25.8041870 142.8848150 100.8157830
  25.5973100 141.4254290 101.1611430  17.2844130 138.2425780 103.9969920
  16.3872660 138.4665750 104.2443320  17.3097000 138.3660720 103.0481320
  24.3249350 135.0918900  89.9111180  24.7642630 134.2541330  89.7649000
  25.0377770 135.7248300  89.9975320  16.1115350 135.1139100 102.5727290
  15.9723120 135.9861900 102.9414690  15.2296710 134.7711910 102.4275230
  22.4344730 140.0314970  93.8792420  22.8740640 140.7739300  93.4647810
  22.3731620 140.2741540  94.8031380  17.9095700 141.0560800 104.7812440
  17.8811130 141.4603750 103.9140870  17.7460670 140.1271160 104.6184040
  27.9066490 126.3461710  88.2252220  27.5939150 126.4388540  89.1251290
  28.6678960 126.9242740  88.1749650  14.4248630 133.7121510  92.6829560
  14.3046230 134.4383600  92.0710830  14.1149520 132.9424420  92.2057470
  29.8610520 141.8387900 106.0776610  30.3370240 142.3170790 106.7565690
  30.4817680 141.7705390 105.3522110  12.0634000 136.8836650  98.4898200
  12.1414420 137.0185420  97.5453920  12.6775680 136.1752540  98.6826320
  13.3081630 138.5836840  94.9004380  12.9009710 138.7251430  94.0457980
  14.1994640 138.2997000  94.6975590  29.2643770 139.0300750 103.2376620
  29.3906830 138.7912630 102.3193800  29.3065150 138.1985290 103.7098700
  23.1260510 142.7328750 101.8071430  23.6405180 142.6436760 102.6093860
  22.2829590 143.0788450 102.0999340  25.1014910 143.0184090  91.2355430
  24.9416050 142.7287030  92.1337260  24.9361620 142.2424220  90.7000660
  17.5803290 142.7982620  93.0127050  17.4045770 141.8818160  92.7994850
  16.7259030 143.1569910  93.2524850  24.8041040 140.5271650  89.7953430
  24.1106200 140.5248940  89.1355710  25.5463900 140.1030970  89.3647600
  24.3690970 142.1534360  93.8701920  24.8247920 141.3723740  94.1840540
  24.7083490 142.8641180  94.4143100  29.1167780 131.0833210 104.2026360
  28.5012050 131.5912880 103.6741820  28.7964200 130.1831540 104.1452300
  12.1193520 137.9250820 101.0292660  12.2824560 137.4556180 100.2112030
  12.5845970 137.4174380 101.6941500  16.8912290 127.0556580  96.0653230
  16.4480440 127.8366120  95.7337750  17.4497280 127.3786470  96.7724170
  21.1782100 129.9225100 101.6688550  20.7161470 130.1308120 102.4808490
  20.7760210 129.1084450 101.3659220  26.1786610 131.1434050 102.7985210
  25.3280200 130.8439800 103.1194280  26.0188400 131.3876060 101.8869030
  23.2736320 132.6435800 104.8984000  23.5989730 131.8099550 104.5586230
  24.0616650 133.1664320 105.0462330  20.0071110 126.6767280  90.9459060
  19.3825290 126.6727150  91.6712370  19.9201230 125.8098240  90.5495030
  18.9288190 127.6003910  97.9242830  19.2260520 128.5066740  97.8434850
  19.4773750 127.1122690  97.3102400  16.6826510 132.1790150  93.7934480
  16.4567430 131.9627320  94.6981100  15.9019040 132.6118610  93.4480450
  23.9124270 132.1853520  92.3925130  23.3133160 132.9089320  92.2088750
  24.4603880 132.1230300  91.6101580  19.1225720 133.0775730 104.4594750
  19.0269320 132.1370460 104.3095150  19.9657700 133.2990800 104.0642820
  22.5189140 130.8217060  94.4228410  22.9118710 131.1389260  93.6097100
  22.8805990 129.9428940  94.5372930  14.2536260 129.4889400 102.6128530
  13.8599650 130.3364610 102.8201310  13.5654660 128.8515770 102.8037170
  20.8281310 129.5724370 105.6825270  20.1379630 129.3796570 106.3171360
  21.5713610 129.8559010 106.2149570  11.5553310 127.4117860  96.6458610
  11.2666360 127.9820720  97.3583590  12.2999070 126.9322310  97.0089840
  11.7423540 131.3537980  87.8561330  11.6598210 132.2968740  87.9976320
  11.3906600 131.2112890  86.9773680  23.1044280 133.4122810  98.5179190
  22.3725400 133.9209620  98.8669290  22.7068620 132.5952790  98.2167970
  19.5421670 130.0877010  96.9231680  19.5457730 129.6466960  96.0736220
  20.4372790 130.4094340  97.0303500  15.3924050 129.9703500  95.8825890
  15.0524100 130.4478730  96.6392940  14.6301370 129.5168620  95.5226990
  19.6041820 131.0889090  89.9138440  19.7254640 131.0475570  90.8624260
  19.2190330 131.9513240  89.7585170  23.5670190 128.8656490  97.9302130
  23.5842930 129.3165140  98.7743980  23.3185770 127.9662130  98.1435570
  18.6163320 133.3990230  89.3121740  18.0480220 132.9508480  88.6857650
  19.3252320 133.7583010  88.7786890  26.9940940 126.2788670 103.7688510
  27.3186710 125.5478330 104.2946490  27.0297450 125.9602310 102.8669500
  13.6932500 137.3002250 103.1888470  13.3087290 136.6595920 103.7871430
  14.0044690 138.0038370 103.7583200  19.8429640 134.1478790  98.6697090
  20.2099770 133.6737360  99.4158430  19.6534700 135.0220360  99.0105430
  12.7070130 128.8922480  94.7990560  12.4217050 128.5278150  95.6369180
  12.6448990 128.1602940  94.1853700  17.6329010 133.1887430 100.9881300
  17.3286080 134.0679410 101.2131660  18.5875470 133.2487220 101.0238740
  16.1610800 137.3948420  91.5848150  15.3873060 136.8546040  91.4246870
  16.8905430 136.8755030  91.2465910  26.9198780 136.3913780  97.3774540
  27.6397900 136.8869070  96.9870650  26.7180600 135.7131670  96.7328410
  22.3808720 127.7851740  91.5203930  21.5673330 127.2864910  91.4449240
  22.1870670 128.6249990  91.1040280  22.3017580 136.4622840 103.2643540
  22.2354890 135.5418510 103.0101130  21.6722720 136.5598280 103.9788180
  25.0957110 132.1571390  89.8166090  25.9836730 132.4688620  89.6417430
  25.0662200 131.2843640  89.4246670  16.2048200 137.0628800  95.2226960
  16.7226870 136.2597060  95.1683850  15.7532220 137.0007940  96.0643790
  21.0917700 138.3295080  90.4954260  21.4333400 139.0737310  89.9997580
  20.2630410 138.6426200  90.8579090  13.6892740 134.0290170 102.1352660
  13.3307680 134.6944020 102.7226000  13.3947300 133.1973720 102.5065280
  16.8905860 134.4874410 105.0192210  16.5906000 134.6331590 104.1220030
  17.6617100 133.9279700 104.9265600  22.2334310 139.2843410 103.0147340
  22.2478850 138.3524370 102.7966250  21.5259410 139.3703170 103.6537110
  27.3671380 133.4683230  89.2845950  27.2835100 133.8997450  88.4342390
  28.0865570 133.9281580  89.7172770  28.4445520 135.9250750 102.3615920
  27.7193710 136.5179530 102.1645310  28.9720980 135.9174290 101.5629290
  28.3958630 140.3225490  92.0128080  27.7534790 139.6681110  92.2871800
  28.0089290 140.7280580  91.2368750  23.9745110 137.6510920  95.8599770
  24.3268930 137.0539050  95.2001140  23.0907440 137.3255150  96.0308020
  20.0608390 138.4108610  93.2670180  20.7479520 138.9577820  93.6477770
  19.2740810 138.9549340  93.3019790  12.2000790 134.0281430  88.7587260
  13.0695640 134.3106230  89.0423180  11.7091110 134.8417300  88.6436070
  19.3635600 135.4154640  92.8795540  19.8198380 136.2259890  93.1055730
  19.0123810 135.0977780  93.7114030  21.6668210 140.9260980 100.1087840
  22.3110430 141.1320360 100.7861260  22.0297650 140.1649380  99.6558690
  15.2647380 125.7592290  93.3518060  15.1362010 125.7510190  94.3002980
  14.4409400 126.0975380  93.0009070  22.9400290 138.9293330  98.8265290
  23.5822520 138.2286490  98.9397460  23.4649640 139.7091770  98.6462180
  26.7856010 139.2141950  88.5504430  26.5593590 138.4972390  89.1429070
  26.3952210 138.9654390  87.7126180  24.7137910 139.7288230 102.0301350
  25.0494150 140.3154920 102.7079270  23.7938250 139.5980940 102.2599140
  12.5672040 143.2408810  89.3248890  12.9269680 143.8398150  88.6706160
  12.4264380 143.7868700  90.0983920  12.2641310 127.5183410 102.8124760
  11.5499830 127.7180330 103.4177370  12.6836350 126.7422980 103.1839560
  26.3672260 137.1313890  90.2118590  26.0793960 137.5926580  90.9996470
  27.1624430 136.6711660  90.4802810  12.5513900 141.5063670 103.7991290
  12.6605020 140.5658410 103.6586680  11.8994460 141.7718420 103.1505020
  20.5426490 139.7779560 105.1989410  20.2223360 139.0588800 105.7435100
  19.8684850 140.4534630 105.2725470  18.5840660 140.6240010  90.1422560
  18.5750760 141.3569700  89.5267070  17.6639020 140.3771590  90.2349520
  14.1847300 135.8454900  90.8869320  13.5775250 136.5853800  90.8964620
  14.6596650 135.9354260  90.0607520  23.7580090 130.0105720 100.5626210
  24.1260910 129.1900930 100.8905780  22.8978290 130.0707610 100.9781860
  27.1242120 128.9662660  91.3713770  26.4955280 129.0708330  90.6572000
  26.6294040 129.1859440  92.1607650  21.5700260 140.6868250  88.8047750
  21.6712240 140.4832240  87.8749730  20.6702000 140.4326530  89.0095530
  19.0926150 131.2448610  92.7871650  18.3842300 131.7134950  93.2285260
  19.3770630 130.5870620  93.4216840  20.7182080 132.6645310 100.7864180
  21.2167330 133.1391130 101.4516030  20.8605030 131.7408830 100.9934210
  23.1241580 127.9699270  94.2267440  23.0009360 127.9885400  93.2776950
  24.0726140 128.0178210  94.3465840  20.2118370 143.2054570  93.4995420
  20.4659870 143.1675960  92.5774790  19.2630850 143.0787900  93.4923670
  17.2961170 129.5533690  90.1622360  18.1451700 129.9903840  90.0962550
  16.9292440 129.8653950  90.9894420  27.9248940 128.8813270 101.6292570
  27.4222540 129.6218670 101.9686380  28.7405600 129.2697270 101.3129360
  26.2170950 134.1246450  95.0753930  25.2761090 134.1396680  95.2501620
  26.5315020 133.3382410  95.5214230  16.1952590 135.8066050  88.6357890
  16.9615860 135.6947410  89.1983320  16.2727280 135.1104020  87.9834660
  14.8899350 133.2391120  89.3190780  14.9702940 132.2918630  89.4308180
  15.7819100 133.5698000  89.4251440  28.2196530 141.2955300  96.7508190
  28.3443950 142.1186470  97.2232000  29.0862090 141.0846030  96.4032340
  15.6914060 143.3886510  96.4225320  16.4276540 142.8401970  96.6933890
  16.0754980 144.2542520  96.2831310  12.5759540 139.4560080  92.2966830
  11.6499320 139.6981220  92.2872240  13.0415970 140.2834340  92.1751580
  14.6972340 142.5732580 105.6110900  15.4985070 142.8944630 106.0246300
  14.1824160 142.2128160 106.3330810  18.8016370 142.5616820  88.2450890
  19.5944980 142.8505650  87.7932680  18.2820720 142.1308990  87.5663370
  23.5336970 138.6812450 105.5586310  22.9275130 138.7044050 104.8182060
  23.2291080 137.9495490 106.0953560  24.9637340 142.4092740 104.1695720
  25.9159090 142.3250760 104.1195960  24.8165560 143.0734450 104.8429510
  27.8546540 141.7886950  89.6687630  27.5688050 141.3752090  88.8541810
  27.6566090 142.7174660  89.5488150  12.4170150 135.0606040 104.5546950
  12.9209170 134.4813320 105.1263180  11.6777570 135.3446270 105.0923320
  19.3193770 137.7820230  88.1093240  19.2144410 137.1672580  88.8354620
  19.1517990 137.2586120  87.3256250  19.4708090 136.4677030 104.0882470
  18.7053760 137.0362030 104.0037140  19.6524050 136.1753240 103.1950700
  22.5596500 136.8440260  88.7135230  22.0106600 137.2909560  89.3577970
  23.1815760 136.3389510  89.2372900  26.6131440 138.1982360 104.6457490
  27.3540910 138.5358120 104.1424950  25.8504120 138.3674420 104.0927260
  14.4493230 133.2035630 105.4497020  14.4898570 132.9049500 106.3582250
  15.3038730 133.6043240 105.2904540  18.2271620 135.8031180  90.6100530
  18.6488040 135.6371050  91.4531920  18.3522460 134.9931410  90.1155670
  16.3899040 131.7827730 103.4171510  15.8595500 131.2918680 102.7894850
  17.0587110 132.2111930 102.8829440  20.7399260 134.8268790  87.8577630
  21.2604920 134.1117810  87.4918780  21.3867660 135.4654660  88.1578140
  25.2877100 136.2497190 103.1812700  25.7018120 136.4042270 104.0303120
  24.3528100 136.3752410 103.3438480  25.7599270 133.5893350 105.1851850
  26.3420040 132.8345670 105.0972330  25.9361040 134.1200790 104.4083330
  16.8771340 128.7490100 103.4968800  16.7828210 128.1310850 102.7719670
  16.2968730 129.4756390 103.2698710  19.6432780 127.3063340 100.5296190
  19.1950080 127.3287600  99.6841740  19.0097980 126.9082360 101.1266490
  20.0492330 136.2017670 101.1508630  20.4680440 137.0450400 100.9784870
  19.1300960 136.3389710 100.9215410  22.3856230 133.9333850 102.5346470
  22.5052440 133.3374990 103.2741310  23.2450230 133.9703540 102.1147770
  24.7244130 134.4871040 101.1108980  24.1979350 135.0113660 100.5074120
  25.0675470 135.1198430 101.7418710  17.1230520 131.8764410  87.5558690
  16.9219580 131.0131770  87.9172030  16.9522570 131.7897770  86.6180290
  17.8999750 142.5070680 102.2666360  17.3620840 143.2316740 101.9475060
  18.1533710 142.0301020 101.4763700  19.1525000 130.4755200 103.7922290
  19.7424690 130.1671050 104.4800110  18.3345240 130.0034950 103.9482190
  23.9718430 130.0921010 104.0255310  23.2833950 129.4302550 103.9605300
  24.6924450 129.6459280 104.4703770  24.6018830 126.6872640  90.0845570
  24.8821120 125.8440540  90.4404990  23.8284560 126.9195750  90.5984320
  15.9213320 128.9765030  87.5436570  16.2239220 128.9832460  86.6355720
  16.6607910 128.6262890  88.0404230  20.7561960 143.7421890 102.5253010
  20.6820660 144.6457030 102.8325380  19.8540800 143.4233790 102.4975080
  19.1398250 127.9199650  88.5292770  18.7920250 127.2423640  87.9495220
  19.3411020 127.4589160  89.3436160  21.3047290 142.9080400  90.1479370
  22.1998080 143.2465370  90.1698130  21.3364920 142.1859810  89.5203650
  14.9443450 138.2807450  88.3766370  15.3818320 138.8237120  89.0323950
  15.4291180 137.4554400  88.3862710  12.1589250 141.0696480  95.8286630
  12.4892260 140.2017540  95.5965270  12.5880250 141.2755000  96.6591590
  16.7551170 139.4005490  93.4888600  16.4546710 139.2770460  94.3892510
  16.6488660 138.5414080  93.0804330  12.6479460 141.9367070  98.5668260
  12.2110450 142.1167870  99.3992410  13.2157140 142.6941690  98.4249980
  28.2841640 141.4384070 102.8545570  27.6843630 141.4976630 102.1109490
  28.4135540 140.4989050 102.9842420  29.5243090 139.1801890  88.1915280
  28.6936050 139.2478540  88.6622510  29.7014920 140.0706010  87.8882140
  28.9799550 135.9249370  90.6949480  29.7418460 136.4946020  90.8009170
  28.9953920 135.3576570  91.4657790  12.4803890 134.4487300  94.9257140
  11.8252730 134.1798940  94.2816840  13.3181840 134.3391780  94.4759120
  29.9859520 136.7799470  95.5391410  30.3568350 135.9966790  95.1327380
  30.6261450 137.4688570  95.3608710  26.9693280 138.1636050 100.9521730
  26.1553120 138.5933210 101.2147520  27.3767480 138.7754460 100.3390780
  29.0318720 136.2183740  87.8522000  29.3067560 137.1262620  87.7241220
  28.8429460 136.1546270  88.7883990  25.4294330 129.2428590  89.1475630
  25.8479210 129.0559570  88.3072290  25.1230390 128.3907640  89.4578560
  28.9284060 134.1552730  92.8451430  28.5527660 133.3880660  92.4132720
  28.1987180 134.5375430  93.3326360  13.5179820 134.8339870  99.4660480
  13.8852860 134.7467270 100.3456500  12.9490640 134.0706420  99.3667340
  28.3183680 133.3024250 102.4790950  28.0869770 133.0737000 101.5788900
  28.5788230 134.2223800 102.4335840  13.0695820 131.7448960 103.3718900
  12.1751870 131.7115720 103.7112610  13.6093370 131.9435750 104.1370150
  26.7571750 128.5280680 105.2570650  27.6341930 128.5364080 105.6404650
  26.7692590 127.7911520 104.6463000  11.6941970 131.6586230  90.8682470
  10.7906050 131.9216430  90.6934130  12.1782590 131.9297400  90.0882430
  28.2035020 132.3810220  96.1458670  28.7272500 131.8872870  95.5148840
  28.7894440 132.5160580  96.8906240  28.3824740 132.4650090  99.6678220
  27.4327450 132.4313630  99.7823210  28.5637750 133.3750200  99.4327990
  14.2369180 130.7151770  88.7776850  14.9460880 130.2934990  88.2924130
  13.5209120 130.7827000  88.1460200  13.8843340 126.7691100  87.8179500
  14.6071470 127.3100040  88.1360720  14.1567860 126.4954520  86.9421040
  27.6934990 131.6383570  92.0851080  28.1894110 131.4054440  92.8699960
  27.4951060 130.7995410  91.6688720  13.5735530 126.0197290  97.7202120
  14.2211720 125.4694670  97.2797280  13.9937370 126.2740440  98.5417930
  29.1222150 130.2744520  94.6188760  29.0121430 130.1200560  95.5571030
  29.8829740 129.7465460  94.3764170  27.4687870 126.2138650 101.0771760
  28.1060090 126.8272790 101.4430950  27.6162760 126.2499310 100.1320990
  30.0112420 128.1052440  87.8594900  30.9361730 127.9733620  87.6513190
  29.9888210 128.1845260  88.8131350  30.0850910 128.8763100  90.4851610
  29.2902410 128.8108220  91.0144520  30.2894190 129.8113740  90.4736960
  27.0269330 142.9154650  94.4790000  27.6228400 142.5939220  93.8024420
  27.2847480 142.4426470  95.2703270  13.3267530 126.1752960 100.4627440
  12.9782350 126.6316780 101.2285620  12.9955230 125.2810090 100.5449870
  14.9331900 139.3472560 104.6280630  14.8901530 138.9765470 105.5095090
  15.0642910 140.2850130 104.7682450  18.6337930 140.9032150 100.2290350
  18.3929290 141.1706710  99.3420870  19.5740570 141.0737880 100.2841210
  20.8392350 127.3664840 103.9846860  20.7781240 127.9586670 104.7342270
  21.7792730 127.2590800 103.8397120  23.4766910 127.0234900 103.6239150
  24.0907320 127.3414190 102.9620230  24.0216470 126.5383490 104.2435010
  29.8942090 142.9226530 101.0300990  29.4000370 143.3195400 100.3128120
  29.2855380 142.2975740 101.4238270  13.9988170 125.7029160 103.7378210
  14.5471160 125.5217210 102.9744320  14.0643480 124.9123270 104.2734520
  14.7719930 142.2934810 101.7478410  14.1780250 142.1619510 102.4868450
  14.7643770 141.4572950 101.2820510  24.2174950 125.5867040  99.9508440
  23.3434790 125.9202150  99.7481370  24.1085700 125.1140220 100.7760310
  25.1246930 127.7937910 101.3350160  24.7960290 126.9789670 100.9551890
  26.0729230 127.7507720 101.2115850  27.5781540 143.5649950  98.3087730
  27.1184510 144.3165760  97.9345750  26.9494000 142.8456420  98.2502530
  14.4032160 139.6593190 100.6986450  13.6766220 139.0398480 100.6312400
  14.4641310 140.0533800  99.8284530  18.0077260 141.8738190  97.4835860
  18.5242280 141.2625550  96.9584120  18.6574640 142.3766970  97.9746870
  20.7472760 142.7646680  98.3104840  21.0350570 142.5100980  97.4337850
  21.2595980 142.2124040  98.9010410  21.9649770 126.5036880  98.8901350
  21.1821560 126.9782380  99.1698110  21.6712700 125.5991710  98.7814530
  26.5170840 127.2059980  96.9350440  26.9578930 127.1505080  96.0872040
  26.2478430 128.1217990  97.0060620  28.3809410 126.8375220  94.9459260
  28.3197810 125.8936440  94.7990280  29.1601440 126.9455310  95.4912720
  12.6862160 142.9767580  93.9083210  12.5184200 142.3438260  94.6065100
  11.8196670 143.1826980  93.5577400  13.3090180 126.8084360  91.4115070
  14.0669540 126.9213240  90.8379100  12.8467350 127.6453560  91.3658500
  19.8503990 128.9223630  94.4017380  19.0378500 128.5480520  94.0613260
  20.3545630 128.1668710  94.7038570  24.3528970 125.5866080  95.6400450
  24.9558340 126.1586290  96.1148970  23.6121960 126.1505520  95.4174350
  27.4963570 125.9887640  90.9140730  27.6914200 126.8871090  91.1808160
  26.7093440 125.7574720  91.4073680  14.2924860 141.6700810  91.3533350
  13.7672480 142.0508840  90.6495310  14.2169440 142.2951580  92.0743060
  15.6815330 127.3348410  89.9517040  16.2108090 126.5478210  89.8224990
  16.3143650 128.0139600  90.1852570  17.8753170 127.0723550  93.0062430
  17.2455910 126.3710860  93.1732560  17.3358310 127.8327680  92.7895590
  20.8145120 143.6862780 105.6773040  21.7412430 143.4507050 105.7209000
  20.7995550 144.5134780 105.1959070  29.0490180 143.2288350  92.6747290
  29.2242370 142.5426090  92.0308210  28.3511750 143.7535400  92.2823960
  18.0008730 126.3507530 105.4414920  17.7193000 126.8541130 104.6775740
  18.3828430 125.5529280 105.0757050  16.8917830 143.6183190  90.2282600
  17.6236650 143.3342470  89.6806490  17.1511500 143.3796470  91.1181980
  16.0532620 139.7347920  90.2328930  15.4241500 140.2033020  90.7814760
  16.1680450 138.8897140  90.6675120  24.6024190 125.7661110 106.0195390
  24.4889640 126.0855720 106.9146910  25.4193930 126.1673620 105.7232670
  27.3822680 142.9132640 105.5014080  28.1748000 142.4181870 105.2940040
  27.6755830 143.5922780 106.1089690  23.5082340 133.7853580  76.3830130
  23.4276390 132.8708190  76.1121840  23.0946760 134.2820650  75.6769840
  21.6400380 135.5632600  78.2639400  20.8642480 135.0833040  78.5537970
  22.2913310 134.8838250  78.0895560  15.6566210 135.8752410  79.1415160
  14.8251090 135.6201120  79.5411670  16.2647190 135.9463180  79.8773080
  25.6607810 139.9692790  77.0438530  25.1989340 139.1980030  77.3725700
  26.4733360 139.9958860  77.5490980  15.6367470 139.9092500  79.3373180
  15.9395510 139.0190240  79.1583400  16.3811060 140.4662720  79.1095430
  14.0658160 130.8354300  72.9257550  13.1774860 131.1770270  72.8237430
  14.3499350 130.6354620  72.0338380  12.0291170 133.4359950  78.8097250
  12.6007280 132.6682150  78.8100890  12.0292710 133.7348710  77.9003860
  21.8871120 142.2550800  76.6642520  21.2682560 142.7108300  76.0936960
  22.7422900 142.4102260  76.2632220  21.0809370 138.2389790  78.2709560
  21.0117650 137.2979730  78.1098690  21.8429230 138.3291200  78.8432130
  13.2716040 128.8444310  80.5966180  13.0918880 127.9470060  80.8768940
  12.8696120 129.3916180  81.2713130  22.1114540 131.0460170  78.4978490
  22.4879360 130.1732050  78.3852160  22.0134050 131.3818870  77.6068930
  16.2419550 129.4185800  73.9595930  16.3486300 130.3189530  74.2664690
  15.3311910 129.3703770  73.6690580  25.8938660 128.5410610  75.4306830
  26.7148280 128.0507180  75.4732310  25.9272740 129.1308270  76.1838670
  13.8902710 131.3404810  79.2048520  14.5712820 131.6043180  79.8235920
  13.5750760 130.5005680  79.5386530  18.0827280 132.3872170  78.2921110
  18.5905500 132.8853140  78.9326130  18.6140520 131.6107370  78.1160470
  30.1838210 130.5577360  81.9950460  29.4790380 130.9459070  81.4765570
  30.4496130 131.2527650  82.5971390  16.3663380 127.0270730  82.5584530
  16.3681820 127.5443120  81.7530430  15.5367690 126.5500910  82.5354460
  22.7534470 137.1390040  74.0574430  22.1351740 137.6039490  73.4937150
  23.2657720 137.8317520  74.4743940  17.6166230 136.6665910  80.7358030
  17.2835610 137.2934830  81.3779100  17.7932910 137.1927790  79.9559700
  26.1300140 130.4810990  78.2034370  25.4255710 130.7695880  78.7837480
  26.4912300 131.2911100  77.8433930  16.0478710 128.7380690  80.5654980
  16.3895520 129.5822740  80.2708850  15.1094520 128.8864430  80.6820320
  16.8285330 138.6346710  82.5507210  17.4459330 139.3097790  82.2691660
  15.9678450 139.0434690  82.4594710  12.1217670 137.8246570  71.4314060
  11.7445650 138.3133670  70.6998960  12.3790740 138.4971850  72.0620590
  27.7462920 140.0986120  80.4661850  27.0626440 140.7685230  80.4578520
  28.2857210 140.2966770  79.7006710  29.1987060 129.9265780  78.5943580
  28.2511970 129.9604760  78.7259010  29.5237050 130.7404730  78.9792940
  19.7306600 126.2262960  76.8899570  20.0381580 125.6709850  76.1735070
  18.8007300 126.3607420  76.7072560  25.2821660 141.9430250  79.1807030
  25.2948820 141.5392540  78.3129290  24.7296880 142.7177540  79.0768460
  26.5767080 138.6646470  74.2697200  26.4663410 137.7220800  74.3946620
  26.5735330 139.0262110  75.1559960  24.6807100 136.8460090  80.5089640
  25.0975890 136.6320200  79.6743100  25.4046920 137.1032880  81.0798260
  22.1187360 134.2911790  73.6259690  21.1916640 134.2249170  73.8548160
  22.2712180 135.2291920  73.5114930  22.1056440 130.5628790  70.6226850
  21.1660110 130.7242750  70.7079310  22.4239700 131.2814470  70.0762840
  28.6269200 135.2447310  80.6005880  27.7987830 135.3140400  80.1256010
  29.2219680 135.8301620  80.1321710  26.1484650 135.8532090  74.1294940
  25.5297070 135.5151640  73.4821240  26.1309100 135.2091850  74.8374130
  25.5911210 132.0316630  81.5460750  25.1782390 132.8570340  81.8000740
  24.8587160 131.4461670  81.3537110  17.7244000 134.8176530  76.4079420
  17.3201000 134.1053780  75.9125320  17.8107120 134.4729770  77.2967460
  18.1925700 138.5044090  78.5718630  17.8953990 137.8989560  77.8926410
  19.1425520 138.5421400  78.4607990  16.4372620 131.5919740  80.1878460
  16.9887210 131.7015080  79.4131710  16.9516130 131.9657340  80.9033690
  26.2811310 142.0775960  82.2341730  25.8041870 142.8848150  82.0414340
  25.5973100 141.4254290  82.3867940  17.2844130 138.2425780  85.2226430
  16.3872660 138.4665750  85.4699830  17.3097000 138.3660720  84.2737830
  24.3249350 135.0918900  71.1367690  24.7642630 134.2541330  70.9905510
  25.0377770 135.7248300  71.2231830  16.1115350 135.1139100  83.7983800
  15.9723120 135.9861900  84.1671200  15.2296710 134.7711910  83.6531740
  22.4344730 140.0314970  75.1048930  22.8740640 140.7739300  74.6904320
  22.3731620 140.2741540  76.0287890  17.9095700 141.0560800  86.0068950
  17.8811130 141.4603750  85.1397380  17.7460670 140.1271160  85.8440550
  27.9066490 126.3461710  69.4508730  27.5939150 126.4388540  70.3507800
  28.6678960 126.9242740  69.4006160  14.4248630 133.7121510  73.9086070
  14.3046230 134.4383600  73.2967340  14.1149520 132.9424420  73.4313980
  29.8610520 141.8387900  87.3033120  30.3370240 142.3170790  87.9822200
  30.4817680 141.7705390  86.5778620  12.0634000 136.8836650  79.7154710
  12.1414420 137.0185420  78.7710430  12.6775680 136.1752540  79.9082830
  13.3081630 138.5836840  76.1260890  12.9009710 138.7251430  75.2714490
  14.1994640 138.2997000  75.9232100  29.2643770 139.0300750  84.4633130
  29.3906830 138.7912630  83.5450310  29.3065150 138.1985290  84.9355210
  23.1260510 142.7328750  83.0327940  23.6405180 142.6436760  83.8350370
  22.2829590 143.0788450  83.3255850  25.1014910 143.0184090  72.4611940
  24.9416050 142.7287030  73.3593770  24.9361620 142.2424220  71.9257170
  17.5803290 142.7982620  74.2383560  17.4045770 141.8818160  74.0251360
  16.7259030 143.1569910  74.4781360  24.8041040 140.5271650  71.0209940
  24.1106200 140.5248940  70.3612220  25.5463900 140.1030970  70.5904110
  24.3690970 142.1534360  75.0958430  24.8247920 141.3723740  75.4097050
  24.7083490 142.8641180  75.6399610  29.1167780 131.0833210  85.4282870
  28.5012050 131.5912880  84.8998330  28.7964200 130.1831540  85.3708810
  12.1193520 137.9250820  82.2549170  12.2824560 137.4556180  81.4368540
  12.5845970 137.4174380  82.9198010  16.8912290 127.0556580  77.2909740
  16.4480440 127.8366120  76.9594260  17.4497280 127.3786470  77.9980680
  21.1782100 129.9225100  82.8945060  20.7161470 130.1308120  83.7065000
  20.7760210 129.1084450  82.5915730  26.1786610 131.1434050  84.0241720
  25.3280200 130.8439800  84.3450790  26.0188400 131.3876060  83.1125540
  23.2736320 132.6435800  86.1240510  23.5989730 131.8099550  85.7842740
  24.0616650 133.1664320  86.2718840  20.0071110 126.6767280  72.1715570
  19.3825290 126.6727150  72.8968880  19.9201230 125.8098240  71.7751540
  18.9288190 127.6003910  79.1499340  19.2260520 128.5066740  79.0691360
  19.4773750 127.1122690  78.5358910  16.6826510 132.1790150  75.0190990
  16.4567430 131.9627320  75.9237610  15.9019040 132.6118610  74.6736960
  23.9124270 132.1853520  73.6181640  23.3133160 132.9089320  73.4345260
  24.4603880 132.1230300  72.8358090  19.1225720 133.0775730  85.6851260
  19.0269320 132.1370460  85.5351660  19.9657700 133.2990800  85.2899330
  22.5189140 130.8217060  75.6484920  22.9118710 131.1389260  74.8353610
  22.8805990 129.9428940  75.7629440  14.2536260 129.4889400  83.8385040
  13.8599650 130.3364610  84.0457820  13.5654660 128.8515770  84.0293680
  20.8281310 129.5724370  86.9081780  20.1379630 129.3796570  87.5427870
  21.5713610 129.8559010  87.4406080  11.5553310 127.4117860  77.8715120
  11.2666360 127.9820720  78.5840100  12.2999070 126.9322310  78.2346350
  11.7423540 131.3537980  69.0817840  11.6598210 132.2968740  69.2232830
  11.3906600 131.2112890  68.2030190  23.1044280 133.4122810  79.7435700
  22.3725400 133.9209620  80.0925800  22.7068620 132.5952790  79.4424480
  19.5421670 130.0877010  78.1488190  19.5457730 129.6466960  77.2992730
  20.4372790 130.4094340  78.2560010  15.3924050 129.9703500  77.1082400
  15.0524100 130.4478730  77.8649450  14.6301370 129.5168620  76.7483500
  19.6041820 131.0889090  71.1394950  19.7254640 131.0475570  72.0880770
  19.2190330 131.9513240  70.9841680  23.5670190 128.8656490  79.1558640
  23.5842930 129.3165140  80.0000490  23.3185770 127.9662130  79.3692080
  18.6163320 133.3990230  70.5378250  18.0480220 132.9508480  69.9114160
  19.3252320 133.7583010  70.0043400  26.9940940 126.2788670  84.9945020
  27.3186710 125.5478330  85.5203000  27.0297450 125.9602310  84.0926010
  13.6932500 137.3002250  84.4144980  13.3087290 136.6595920  85.0127940
  14.0044690 138.0038370  84.9839710  19.8429640 134.1478790  79.8953600
  20.2099770 133.6737360  80.6414940  19.6534700 135.0220360  80.2361940
  12.7070130 128.8922480  76.0247070  12.4217050 128.5278150  76.8625690
  12.6448990 128.1602940  75.4110210  17.6329010 133.1887430  82.2137810
  17.3286080 134.0679410  82.4388170  18.5875470 133.2487220  82.2495250
  16.1610800 137.3948420  72.8104660  15.3873060 136.8546040  72.6503380
  16.8905430 136.8755030  72.4722420  26.9198780 136.3913780  78.6031050
  27.6397900 136.8869070  78.2127160  26.7180600 135.7131670  77.9584920
  22.3808720 127.7851740  72.7460440  21.5673330 127.2864910  72.6705750
  22.1870670 128.6249990  72.3296790  22.3017580 136.4622840  84.4900050
  22.2354890 135.5418510  84.2357640  21.6722720 136.5598280  85.2044690
  25.0957110 132.1571390  71.0422600  25.9836730 132.4688620  70.8673940
  25.0662200 131.2843640  70.6503180  16.2048200 137.0628800  76.4483470
  16.7226870 136.2597060  76.3940360  15.7532220 137.0007940  77.2900300
  21.0917700 138.3295080  71.7210770  21.4333400 139.0737310  71.2254090
  20.2630410 138.6426200  72.0835600  13.6892740 134.0290170  83.3609170
  13.3307680 134.6944020  83.9482510  13.3947300 133.1973720  83.7321790
  16.8905860 134.4874410  86.2448720  16.5906000 134.6331590  85.3476540
  17.6617100 133.9279700  86.1522110  22.2334310 139.2843410  84.2403850
  22.2478850 138.3524370  84.0222760  21.5259410 139.3703170  84.8793620
  27.3671380 133.4683230  70.5102460  27.2835100 133.8997450  69.6598900
  28.0865570 133.9281580  70.9429280  28.4445520 135.9250750  83.5872430
  27.7193710 136.5179530  83.3901820  28.9720980 135.9174290  82.7885800
  28.3958630 140.3225490  73.2384590  27.7534790 139.6681110  73.5128310
  28.0089290 140.7280580  72.4625260  23.9745110 137.6510920  77.0856280
  24.3268930 137.0539050  76.4257650  23.0907440 137.3255150  77.2564530
  20.0608390 138.4108610  74.4926690  20.7479520 138.9577820  74.8734280
  19.2740810 138.9549340  74.5276300  12.2000790 134.0281430  69.9843770
  13.0695640 134.3106230  70.2679690  11.7091110 134.8417300  69.8692580
  19.3635600 135.4154640  74.1052050  19.8198380 136.2259890  74.3312240
  19.0123810 135.0977780  74.9370540  21.6668210 140.9260980  81.3344350
  22.3110430 141.1320360  82.0117770  22.0297650 140.1649380  80.8815200
  15.2647380 125.7592290  74.5774570  15.1362010 125.7510190  75.5259490
  14.4409400 126.0975380  74.2265580  22.9400290 138.9293330  80.0521800
  23.5822520 138.2286490  80.1653970  23.4649640 139.7091770  79.8718690
  26.7856010 139.2141950  69.7760940  26.5593590 138.4972390  70.3685580
  26.3952210 138.9654390  68.9382690  24.7137910 139.7288230  83.2557860
  25.0494150 140.3154920  83.9335780  23.7938250 139.5980940  83.4855650
  12.5672040 143.2408810  70.5505400  12.9269680 143.8398150  69.8962670
  12.4264380 143.7868700  71.3240430  12.2641310 127.5183410  84.0381270
  11.5499830 127.7180330  84.6433880  12.6836350 126.7422980  84.4096070
  26.3672260 137.1313890  71.4375100  26.0793960 137.5926580  72.2252980
  27.1624430 136.6711660  71.7059320  12.5513900 141.5063670  85.0247800
  12.6605020 140.5658410  84.8843190  11.8994460 141.7718420  84.3761530
  20.5426490 139.7779560  86.4245920  20.2223360 139.0588800  86.9691610
  19.8684850 140.4534630  86.4981980  18.5840660 140.6240010  71.3679070
  18.5750760 141.3569700  70.7523580  17.6639020 140.3771590  71.4606030
  14.1847300 135.8454900  72.1125830  13.5775250 136.5853800  72.1221130
  14.6596650 135.9354260  71.2864030  23.7580090 130.0105720  81.7882720
  24.1260910 129.1900930  82.1162290  22.8978290 130.0707610  82.2038370
  27.1242120 128.9662660  72.5970280  26.4955280 129.0708330  71.8828510
  26.6294040 129.1859440  73.3864160  21.5700260 140.6868250  70.0304260
  21.6712240 140.4832240  69.1006240  20.6702000 140.4326530  70.2352040
  19.0926150 131.2448610  74.0128160  18.3842300 131.7134950  74.4541770
  19.3770630 130.5870620  74.6473350  20.7182080 132.6645310  82.0120690
  21.2167330 133.1391130  82.6772540  20.8605030 131.7408830  82.2190720
  23.1241580 127.9699270  75.4523950  23.0009360 127.9885400  74.5033460
  24.0726140 128.0178210  75.5722350  20.2118370 143.2054570  74.7251930
  20.4659870 143.1675960  73.8031300  19.2630850 143.0787900  74.7180180
  17.2961170 129.5533690  71.3878870  18.1451700 129.9903840  71.3219060
  16.9292440 129.8653950  72.2150930  27.9248940 128.8813270  82.8549080
  27.4222540 129.6218670  83.1942890  28.7405600 129.2697270  82.5385870
  26.2170950 134.1246450  76.3010440  25.2761090 134.1396680  76.4758130
  26.5315020 133.3382410  76.7470740  16.1952590 135.8066050  69.8614400
  16.9615860 135.6947410  70.4239830  16.2727280 135.1104020  69.2091170
  14.8899350 133.2391120  70.5447290  14.9702940 132.2918630  70.6564690
  15.7819100 133.5698000  70.6507950  28.2196530 141.2955300  77.9764700
  28.3443950 142.1186470  78.4488510  29.0862090 141.0846030  77.6288850
  15.6914060 143.3886510  77.6481830  16.4276540 142.8401970  77.9190400
  16.0754980 144.2542520  77.5087820  12.5759540 139.4560080  73.5223340
  11.6499320 139.6981220  73.5128750  13.0415970 140.2834340  73.4008090
  14.6972340 142.5732580  86.8367410  15.4985070 142.8944630  87.2502810
  14.1824160 142.2128160  87.5587320  18.8016370 142.5616820  69.4707400
  19.5944980 142.8505650  69.0189190  18.2820720 142.1308990  68.7919880
  23.5336970 138.6812450  86.7842820  22.9275130 138.7044050  86.0438570
  23.2291080 137.9495490  87.3210070  24.9637340 142.4092740  85.3952230
  25.9159090 142.3250760  85.3452470  24.8165560 143.0734450  86.0686020
  27.8546540 141.7886950  70.8944140  27.5688050 141.3752090  70.0798320
  27.6566090 142.7174660  70.7744660  12.4170150 135.0606040  85.7803460
  12.9209170 134.4813320  86.3519690  11.6777570 135.3446270  86.3179830
  19.3193770 137.7820230  69.3349750  19.2144410 137.1672580  70.0611130
  19.1517990 137.2586120  68.5512760  19.4708090 136.4677030  85.3138980
  18.7053760 137.0362030  85.2293650  19.6524050 136.1753240  84.4207210
  22.5596500 136.8440260  69.9391740  22.0106600 137.2909560  70.5834480
  23.1815760 136.3389510  70.4629410  26.6131440 138.1982360  85.8714000
  27.3540910 138.5358120  85.3681460  25.8504120 138.3674420  85.3183770
  14.4493230 133.2035630  86.6753530  14.4898570 132.9049500  87.5838760
  15.3038730 133.6043240  86.5161050  18.2271620 135.8031180  71.8357040
  18.6488040 135.6371050  72.6788430  18.3522460 134.9931410  71.3412180
  16.3899040 131.7827730  84.6428020  15.8595500 131.2918680  84.0151360
  17.0587110 132.2111930  84.1085950  20.7399260 134.8268790  69.0834140
  21.2604920 134.1117810  68.7175290  21.3867660 135.4654660  69.3834650
  25.2877100 136.2497190  84.4069210  25.7018120 136.4042270  85.2559630
  24.3528100 136.3752410  84.5694990  25.7599270 133.5893350  86.4108360
  26.3420040 132.8345670  86.3228840  25.9361040 134.1200790  85.6339840
  16.8771340 128.7490100  84.7225310  16.7828210 128.1310850  83.9976180
  16.2968730 129.4756390  84.4955220  19.6432780 127.3063340  81.7552700
  19.1950080 127.3287600  80.9098250  19.0097980 126.9082360  82.3523000
  20.0492330 136.2017670  82.3765140  20.4680440 137.0450400  82.2041380
  19.1300960 136.3389710  82.1471920  22.3856230 133.9333850  83.7602980
  22.5052440 133.3374990  84.4997820  23.2450230 133.9703540  83.3404280
  24.7244130 134.4871040  82.3365490  24.1979350 135.0113660  81.7330630
  25.0675470 135.1198430  82.9675220  17.1230520 131.8764410  68.7815200
  16.9219580 131.0131770  69.1428540  16.9522570 131.7897770  67.8436800
  17.8999750 142.5070680  83.4922870  17.3620840 143.2316740  83.1731570
  18.1533710 142.0301020  82.7020210  19.1525000 130.4755200  85.0178800
  19.7424690 130.1671050  85.7056620  18.3345240 130.0034950  85.1738700
  23.9718430 130.0921010  85.2511820  23.2833950 129.4302550  85.1861810
  24.6924450 129.6459280  85.6960280  24.6018830 126.6872640  71.3102080
  24.8821120 125.8440540  71.6661500  23.8284560 126.9195750  71.8240830
  15.9213320 128.9765030  68.7693080  16.2239220 128.9832460  67.8612230
  16.6607910 128.6262890  69.2660740  20.7561960 143.7421890  83.7509520
  20.6820660 144.6457030  84.0581890  19.8540800 143.4233790  83.7231590
  19.1398250 127.9199650  69.7549280  18.7920250 127.2423640  69.1751730
  19.3411020 127.4589160  70.5692670  21.3047290 142.9080400  71.3735880
  22.1998080 143.2465370  71.3954640  21.3364920 142.1859810  70.7460160
  14.9443450 138.2807450  69.6022880  15.3818320 138.8237120  70.2580460
  15.4291180 137.4554400  69.6119220  12.1589250 141.0696480  77.0543140
  12.4892260 140.2017540  76.8221780  12.5880250 141.2755000  77.8848100
  16.7551170 139.4005490  74.7145110  16.4546710 139.2770460  75.6149020
  16.6488660 138.5414080  74.3060840  12.6479460 141.9367070  79.7924770
  12.2110450 142.1167870  80.6248920  13.2157140 142.6941690  79.6506490
  28.2841640 141.4384070  84.0802080  27.6843630 141.4976630  83.3366000
  28.4135540 140.4989050  84.2098930  29.5243090 139.1801890  69.4171790
  28.6936050 139.2478540  69.8879020  29.7014920 140.0706010  69.1138650
  28.9799550 135.9249370  71.9205990  29.7418460 136.4946020  72.0265680
  28.9953920 135.3576570  72.6914300  12.4803890 134.4487300  76.1513650
  11.8252730 134.1798940  75.5073350  13.3181840 134.3391780  75.7015630
  29.9859520 136.7799470  76.7647920  30.3568350 135.9966790  76.3583890
  30.6261450 137.4688570  76.5865220  26.9693280 138.1636050  82.1778240
  26.1553120 138.5933210  82.4404030  27.3767480 138.7754460  81.5647290
  29.0318720 136.2183740  69.0778510  29.3067560 137.1262620  68.9497730
  28.8429460 136.1546270  70.0140500  25.4294330 129.2428590  70.3732140
  25.8479210 129.0559570  69.5328800  25.1230390 128.3907640  70.6835070
  28.9284060 134.1552730  74.0707940  28.5527660 133.3880660  73.6389230
  28.1987180 134.5375430  74.5582870  13.5179820 134.8339870  80.6916990
  13.8852860 134.7467270  81.5713010  12.9490640 134.0706420  80.5923850
  28.3183680 133.3024250  83.7047460  28.0869770 133.0737000  82.8045410
  28.5788230 134.2223800  83.6592350  13.0695820 131.7448960  84.5975410
  12.1751870 131.7115720  84.9369120  13.6093370 131.9435750  85.3626660
  26.7571750 128.5280680  86.4827160  27.6341930 128.5364080  86.8661160
  26.7692590 127.7911520  85.8719510  11.6941970 131.6586230  72.0938980
  10.7906050 131.9216430  71.9190640  12.1782590 131.9297400  71.3138940
  28.2035020 132.3810220  77.3715180  28.7272500 131.8872870  76.7405350
  28.7894440 132.5160580  78.1162750  28.3824740 132.4650090  80.8934730
  27.4327450 132.4313630  81.0079720  28.5637750 133.3750200  80.6584500
  14.2369180 130.7151770  70.0033360  14.9460880 130.2934990  69.5180640
  13.5209120 130.7827000  69.3716710  13.8843340 126.7691100  69.0436010
  14.6071470 127.3100040  69.3617230  14.1567860 126.4954520  68.1677550
  27.6934990 131.6383570  73.3107590  28.1894110 131.4054440  74.0956470
  27.4951060 130.7995410  72.8945230  13.5735530 126.0197290  78.9458630
  14.2211720 125.4694670  78.5053790  13.9937370 126.2740440  79.7674440
  29.1222150 130.2744520  75.8445270  29.0121430 130.1200560  76.7827540
  29.8829740 129.7465460  75.6020680  27.4687870 126.2138650  82.3028270
  28.1060090 126.8272790  82.6687460  27.6162760 126.2499310  81.3577500
  30.0112420 128.1052440  69.0851410  30.9361730 127.9733620  68.8769700
  29.9888210 128.1845260  70.0387860  30.0850910 128.8763100  71.7108120
  29.2902410 128.8108220  72.2401030  30.2894190 129.8113740  71.6993470
  27.0269330 142.9154650  75.7046510  27.6228400 142.5939220  75.0280930
  27.2847480 142.4426470  76.4959780  13.3267530 126.1752960  81.6883950
  12.9782350 126.6316780  82.4542130  12.9955230 125.2810090  81.7706380
  14.9331900 139.3472560  85.8537140  14.8901530 138.9765470  86.7351600
  15.0642910 140.2850130  85.9938960  18.6337930 140.9032150  81.4546860
  18.3929290 141.1706710  80.5677380  19.5740570 141.0737880  81.5097720
  20.8392350 127.3664840  85.2103370  20.7781240 127.9586670  85.9598780
  21.7792730 127.2590800  85.0653630  23.4766910 127.0234900  84.8495660
  24.0907320 127.3414190  84.1876740  24.0216470 126.5383490  85.4691520
  29.8942090 142.9226530  82.2557500  29.4000370 143.3195400  81.5384630
  29.2855380 142.2975740  82.6494780  13.9988170 125.7029160  84.9634720
  14.5471160 125.5217210  84.2000830  14.0643480 124.9123270  85.4991030
  14.7719930 142.2934810  82.9734920  14.1780250 142.1619510  83.7124960
  14.7643770 141.4572950  82.5077020  24.2174950 125.5867040  81.1764950
  23.3434790 125.9202150  80.9737880  24.1085700 125.1140220  82.0016820
  25.1246930 127.7937910  82.5606670  24.7960290 126.9789670  82.1808400
  26.0729230 127.7507720  82.4372360  27.5781540 143.5649950  79.5344240
  27.1184510 144.3165760  79.1602260  26.9494000 142.8456420  79.4759040
  14.4032160 139.6593190  81.9242960  13.6766220 139.0398480  81.8568910
  14.4641310 140.0533800  81.0541040  18.0077260 141.8738190  78.7092370
  18.5242280 141.2625550  78.1840630  18.6574640 142.3766970  79.2003380
  20.7472760 142.7646680  79.5361350  21.0350570 142.5100980  78.6594360
  21.2595980 142.2124040  80.1266920  21.9649770 126.5036880  80.1157860
  21.1821560 126.9782380  80.3954620  21.6712700 125.5991710  80.0071040
  26.5170840 127.2059980  78.1606950  26.9578930 127.1505080  77.3128550
  26.2478430 128.1217990  78.2317130  28.3809410 126.8375220  76.1715770
  28.3197810 125.8936440  76.0246790  29.1601440 126.9455310  76.7169230
  12.6862160 142.9767580  75.1339720  12.5184200 142.3438260  75.8321610
  11.8196670 143.1826980  74.7833910  13.3090180 126.8084360  72.6371580
  14.0669540 126.9213240  72.0635610  12.8467350 127.6453560  72.5915010
  19.8503990 128.9223630  75.6273890  19.0378500 128.5480520  75.2869770
  20.3545630 128.1668710  75.9295080  24.3528970 125.5866080  76.8656960
  24.9558340 126.1586290  77.3405480  23.6121960 126.1505520  76.6430860
  27.4963570 125.9887640  72.1397240  27.6914200 126.8871090  72.4064670
  26.7093440 125.7574720  72.6330190  14.2924860 141.6700810  72.5789860
  13.7672480 142.0508840  71.8751820  14.2169440 142.2951580  73.2999570
  15.6815330 127.3348410  71.1773550  16.2108090 126.5478210  71.0481500
  16.3143650 128.0139600  71.4109080  17.8753170 127.0723550  74.2318940
  17.2455910 126.3710860  74.3989070  17.3358310 127.8327680  74.0152100
  20.8145120 143.6862780  86.9029550  21.7412430 143.4507050  86.9465510
  20.7995550 144.5134780  86.4215580  29.0490180 143.2288350  73.9003800
  29.2242370 142.5426090  73.2564720  28.3511750 143.7535400  73.5080470
  18.0008730 126.3507530  86.6671430  17.7193000 126.8541130  85.9032250
  18.3828430 125.5529280  86.3013560  16.8917830 143.6183190  71.4539110
  17.6236650 143.3342470  70.9063000  17.1511500 143.3796470  72.3438490
  16.0532620 139.7347920  71.4585440  15.4241500 140.2033020  72.0071270
  16.1680450 138.8897140  71.8931630  24.6024190 125.7661110  87.2451900
  24.4889640 126.0855720  88.1403420  25.4193930 126.1673620  86.9489180
  27.3822680 142.9132640  86.7270590  28.1748000 142.4181870  86.5196550
  27.6755830 143.5922780  87.3346200  23.5082340 133.7853580  57.6086640
  23.4276390 132.8708190  57.3378350  23.0946760 134.2820650  56.9026350
  21.6400380 135.5632600  59.4895910  20.8642480 135.0833040  59.7794480
  22.2913310 134.8838250  59.3152070  15.6566210 135.8752410  60.3671670
  14.8251090 135.6201120  60.7668180  16.2647190 135.9463180  61.1029590
  25.6607810 139.9692790  58.2695040  25.1989340 139.1980030  58.5982210
  26.4733360 139.9958860  58.7747490  15.6367470 139.9092500  60.5629690
  15.9395510 139.0190240  60.3839910  16.3811060 140.4662720  60.3351940
  14.0658160 130.8354300  54.1514060  13.1774860 131.1770270  54.0493940
  14.3499350 130.6354620  53.2594890  12.0291170 133.4359950  60.0353760
  12.6007280 132.6682150  60.0357400  12.0292710 133.7348710  59.1260370
  21.8871120 142.2550800  57.8899030  21.2682560 142.7108300  57.3193470
  22.7422900 142.4102260  57.4888730  21.0809370 138.2389790  59.4966070
  21.0117650 137.2979730  59.3355200  21.8429230 138.3291200  60.0688640
  13.2716040 128.8444310  61.8222690  13.0918880 127.9470060  62.1025450
  12.8696120 129.3916180  62.4969640  22.1114540 131.0460170  59.7235000
  22.4879360 130.1732050  59.6108670  22.0134050 131.3818870  58.8325440
  16.2419550 129.4185800  55.1852440  16.3486300 130.3189530  55.4921200
  15.3311910 129.3703770  54.8947090  25.8938660 128.5410610  56.6563340
  26.7148280 128.0507180  56.6988820  25.9272740 129.1308270  57.4095180
  13.8902710 131.3404810  60.4305030  14.5712820 131.6043180  61.0492430
  13.5750760 130.5005680  60.7643040  18.0827280 132.3872170  59.5177620
  18.5905500 132.8853140  60.1582640  18.6140520 131.6107370  59.3416980
  30.1838210 130.5577360  63.2206970  29.4790380 130.9459070  62.7022080
  30.4496130 131.2527650  63.8227900  16.3663380 127.0270730  63.7841040
  16.3681820 127.5443120  62.9786940  15.5367690 126.5500910  63.7610970
  22.7534470 137.1390040  55.2830940  22.1351740 137.6039490  54.7193660
  23.2657720 137.8317520  55.7000450  17.6166230 136.6665910  61.9614540
  17.2835610 137.2934830  62.6035610  17.7932910 137.1927790  61.1816210
  26.1300140 130.4810990  59.4290880  25.4255710 130.7695880  60.0093990
  26.4912300 131.2911100  59.0690440  16.0478710 128.7380690  61.7911490
  16.3895520 129.5822740  61.4965360  15.1094520 128.8864430  61.9076830
  16.8285330 138.6346710  63.7763720  17.4459330 139.3097790  63.4948170
  15.9678450 139.0434690  63.6851220  12.1217670 137.8246570  52.6570570
  11.7445650 138.3133670  51.9255470  12.3790740 138.4971850  53.2877100
  27.7462920 140.0986120  61.6918360  27.0626440 140.7685230  61.6835030
  28.2857210 140.2966770  60.9263220  29.1987060 129.9265780  59.8200090
  28.2511970 129.9604760  59.9515520  29.5237050 130.7404730  60.2049450
  19.7306600 126.2262960  58.1156080  20.0381580 125.6709850  57.3991580
  18.8007300 126.3607420  57.9329070  25.2821660 141.9430250  60.4063540
  25.2948820 141.5392540  59.5385800  24.7296880 142.7177540  60.3024970
  26.5767080 138.6646470  55.4953710  26.4663410 137.7220800  55.6203130
  26.5735330 139.0262110  56.3816470  24.6807100 136.8460090  61.7346150
  25.0975890 136.6320200  60.8999610  25.4046920 137.1032880  62.3054770
  22.1187360 134.2911790  54.8516200  21.1916640 134.2249170  55.0804670
  22.2712180 135.2291920  54.7371440  22.1056440 130.5628790  51.8483360
  21.1660110 130.7242750  51.9335820  22.4239700 131.2814470  51.3019350
  28.6269200 135.2447310  61.8262390  27.7987830 135.3140400  61.3512520
  29.2219680 135.8301620  61.3578220  26.1484650 135.8532090  55.3551450
  25.5297070 135.5151640  54.7077750  26.1309100 135.2091850  56.0630640
  25.5911210 132.0316630  62.7717260  25.1782390 132.8570340  63.0257250
  24.8587160 131.4461670  62.5793620  17.7244000 134.8176530  57.6335930
  17.3201000 134.1053780  57.1381830  17.8107120 134.4729770  58.5223970
  18.1925700 138.5044090  59.7975140  17.8953990 137.8989560  59.1182920
  19.1425520 138.5421400  59.6864500  16.4372620 131.5919740  61.4134970
  16.9887210 131.7015080  60.6388220  16.9516130 131.9657340  62.1290200
  26.2811310 142.0775960  63.4598240  25.8041870 142.8848150  63.2670850
  25.5973100 141.4254290  63.6124450  17.2844130 138.2425780  66.4482940
  16.3872660 138.4665750  66.6956340  17.3097000 138.3660720  65.4994340
  24.3249350 135.0918900  52.3624200  24.7642630 134.2541330  52.2162020
  25.0377770 135.7248300  52.4488340  16.1115350 135.1139100  65.0240310
  15.9723120 135.9861900  65.3927710  15.2296710 134.7711910  64.8788250
  22.4344730 140.0314970  56.3305440  22.8740640 140.7739300  55.9160830
  22.3731620 140.2741540  57.2544400  17.9095700 141.0560800  67.2325460
  17.8811130 141.4603750  66.3653890  17.7460670 140.1271160  67.0697060
  27.9066490 126.3461710  50.6765240  27.5939150 126.4388540  51.5764310
  28.6678960 126.9242740  50.6262670  14.4248630 133.7121510  55.1342580
  14.3046230 134.4383600  54.5223850  14.1149520 132.9424420  54.6570490
  29.8610520 141.8387900  68.5289630  30.3370240 142.3170790  69.2078710
  30.4817680 141.7705390  67.8035130  12.0634000 136.8836650  60.9411220
  12.1414420 137.0185420  59.9966940  12.6775680 136.1752540  61.1339340
  13.3081630 138.5836840  57.3517400  12.9009710 138.7251430  56.4971000
  14.1994640 138.2997000  57.1488610  29.2643770 139.0300750  65.6889640
  29.3906830 138.7912630  64.7706820  29.3065150 138.1985290  66.1611720
  23.1260510 142.7328750  64.2584450  23.6405180 142.6436760  65.0606880
  22.2829590 143.0788450  64.5512360  25.1014910 143.0184090  53.6868450
  24.9416050 142.7287030  54.5850280  24.9361620 142.2424220  53.1513680
  17.5803290 142.7982620  55.4640070  17.4045770 141.8818160  55.2507870
  16.7259030 143.1569910  55.7037870  24.8041040 140.5271650  52.2466450
  24.1106200 140.5248940  51.5868730  25.5463900 140.1030970  51.8160620
  24.3690970 142.1534360  56.3214940  24.8247920 141.3723740  56.6353560
  24.7083490 142.8641180  56.8656120  29.1167780 131.0833210  66.6539380
  28.5012050 131.5912880  66.1254840  28.7964200 130.1831540  66.5965320
  12.1193520 137.9250820  63.4805680  12.2824560 137.4556180  62.6625050
  12.5845970 137.4174380  64.1454520  16.8912290 127.0556580  58.5166250
  16.4480440 127.8366120  58.1850770  17.4497280 127.3786470  59.2237190
  21.1782100 129.9225100  64.1201570  20.7161470 130.1308120  64.9321510
  20.7760210 129.1084450  63.8172240  26.1786610 131.1434050  65.2498230
  25.3280200 130.8439800  65.5707300  26.0188400 131.3876060  64.3382050
  23.2736320 132.6435800  67.3497020  23.5989730 131.8099550  67.0099250
  24.0616650 133.1664320  67.4975350  20.0071110 126.6767280  53.3972080
  19.3825290 126.6727150  54.1225390  19.9201230 125.8098240  53.0008050
  18.9288190 127.6003910  60.3755850  19.2260520 128.5066740  60.2947870
  19.4773750 127.1122690  59.7615420  16.6826510 132.1790150  56.2447500
  16.4567430 131.9627320  57.1494120  15.9019040 132.6118610  55.8993470
  23.9124270 132.1853520  54.8438150  23.3133160 132.9089320  54.6601770
  24.4603880 132.1230300  54.0614600  19.1225720 133.0775730  66.9107770
  19.0269320 132.1370460  66.7608170  19.9657700 133.2990800  66.5155840
  22.5189140 130.8217060  56.8741430  22.9118710 131.1389260  56.0610120
  22.8805990 129.9428940  56.9885950  14.2536260 129.4889400  65.0641550
  13.8599650 130.3364610  65.2714330  13.5654660 128.8515770  65.2550190
  20.8281310 129.5724370  68.1338290  20.1379630 129.3796570  68.7684380
  21.5713610 129.8559010  68.6662590  11.5553310 127.4117860  59.0971630
  11.2666360 127.9820720  59.8096610  12.2999070 126.9322310  59.4602860
  11.7423540 131.3537980  50.3074350  11.6598210 132.2968740  50.4489340
  11.3906600 131.2112890  49.4286700  23.1044280 133.4122810  60.9692210
  22.3725400 133.9209620  61.3182310  22.7068620 132.5952790  60.6680990
  19.5421670 130.0877010  59.3744700  19.5457730 129.6466960  58.5249240
  20.4372790 130.4094340  59.4816520  15.3924050 129.9703500  58.3338910
  15.0524100 130.4478730  59.0905960  14.6301370 129.5168620  57.9740010
  19.6041820 131.0889090  52.3651460  19.7254640 131.0475570  53.3137280
  19.2190330 131.9513240  52.2098190  23.5670190 128.8656490  60.3815150
  23.5842930 129.3165140  61.2257000  23.3185770 127.9662130  60.5948590
  18.6163320 133.3990230  51.7634760  18.0480220 132.9508480  51.1370670
  19.3252320 133.7583010  51.2299910  26.9940940 126.2788670  66.2201530
  27.3186710 125.5478330  66.7459510  27.0297450 125.9602310  65.3182520
  13.6932500 137.3002250  65.6401490  13.3087290 136.6595920  66.2384450
  14.0044690 138.0038370  66.2096220  19.8429640 134.1478790  61.1210110
  20.2099770 133.6737360  61.8671450  19.6534700 135.0220360  61.4618450
  12.7070130 128.8922480  57.2503580  12.4217050 128.5278150  58.0882200
  12.6448990 128.1602940  56.6366720  17.6329010 133.1887430  63.4394320
  17.3286080 134.0679410  63.6644680  18.5875470 133.2487220  63.4751760
  16.1610800 137.3948420  54.0361170  15.3873060 136.8546040  53.8759890
  16.8905430 136.8755030  53.6978930  26.9198780 136.3913780  59.8287560
  27.6397900 136.8869070  59.4383670  26.7180600 135.7131670  59.1841430
  22.3808720 127.7851740  53.9716950  21.5673330 127.2864910  53.8962260
  22.1870670 128.6249990  53.5553300  22.3017580 136.4622840  65.7156560
  22.2354890 135.5418510  65.4614150  21.6722720 136.5598280  66.4301200
  25.0957110 132.1571390  52.2679110  25.9836730 132.4688620  52.0930450
  25.0662200 131.2843640  51.8759690  16.2048200 137.0628800  57.6739980
  16.7226870 136.2597060  57.6196870  15.7532220 137.0007940  58.5156810
  21.0917700 138.3295080  52.9467280  21.4333400 139.0737310  52.4510600
  20.2630410 138.6426200  53.3092110  13.6892740 134.0290170  64.5865680
  13.3307680 134.6944020  65.1739020  13.3947300 133.1973720  64.9578300
  16.8905860 134.4874410  67.4705230  16.5906000 134.6331590  66.5733050
  17.6617100 133.9279700  67.3778620  22.2334310 139.2843410  65.4660360
  22.2478850 138.3524370  65.2479270  21.5259410 139.3703170  66.1050130
  27.3671380 133.4683230  51.7358970  27.2835100 133.8997450  50.8855410
  28.0865570 133.9281580  52.1685790  28.4445520 135.9250750  64.8128940
  27.7193710 136.5179530  64.6158330  28.9720980 135.9174290  64.0142310
  28.3958630 140.3225490  54.4641100  27.7534790 139.6681110  54.7384820
  28.0089290 140.7280580  53.6881770  23.9745110 137.6510920  58.3112790
  24.3268930 137.0539050  57.6514160  23.0907440 137.3255150  58.4821040
  20.0608390 138.4108610  55.7183200  20.7479520 138.9577820  56.0990790
  19.2740810 138.9549340  55.7532810  12.2000790 134.0281430  51.2100280
  13.0695640 134.3106230  51.4936200  11.7091110 134.8417300  51.0949090
  19.3635600 135.4154640  55.3308560  19.8198380 136.2259890  55.5568750
  19.0123810 135.0977780  56.1627050  21.6668210 140.9260980  62.5600860
  22.3110430 141.1320360  63.2374280  22.0297650 140.1649380  62.1071710
  15.2647380 125.7592290  55.8031080  15.1362010 125.7510190  56.7516000
  14.4409400 126.0975380  55.4522090  22.9400290 138.9293330  61.2778310
  23.5822520 138.2286490  61.3910480  23.4649640 139.7091770  61.0975200
  26.7856010 139.2141950  51.0017450  26.5593590 138.4972390  51.5942090
  26.3952210 138.9654390  50.1639200  24.7137910 139.7288230  64.4814370
  25.0494150 140.3154920  65.1592290  23.7938250 139.5980940  64.7112160
  12.5672040 143.2408810  51.7761910  12.9269680 143.8398150  51.1219180
  12.4264380 143.7868700  52.5496940  12.2641310 127.5183410  65.2637780
  11.5499830 127.7180330  65.8690390  12.6836350 126.7422980  65.6352580
  26.3672260 137.1313890  52.6631610  26.0793960 137.5926580  53.4509490
  27.1624430 136.6711660  52.9315830  12.5513900 141.5063670  66.2504310
  12.6605020 140.5658410  66.1099700  11.8994460 141.7718420  65.6018040
  20.5426490 139.7779560  67.6502430  20.2223360 139.0588800  68.1948120
  19.8684850 140.4534630  67.7238490  18.5840660 140.6240010  52.5935580
  18.5750760 141.3569700  51.9780090  17.6639020 140.3771590  52.6862540
  14.1847300 135.8454900  53.3382340  13.5775250 136.5853800  53.3477640
  14.6596650 135.9354260  52.5120540  23.7580090 130.0105720  63.0139230
  24.1260910 129.1900930  63.3418800  22.8978290 130.0707610  63.4294880
  27.1242120 128.9662660  53.8226790  26.4955280 129.0708330  53.1085020
  26.6294040 129.1859440  54.6120670  21.5700260 140.6868250  51.2560770
  21.6712240 140.4832240  50.3262750  20.6702000 140.4326530  51.4608550
  19.0926150 131.2448610  55.2384670  18.3842300 131.7134950  55.6798280
  19.3770630 130.5870620  55.8729860  20.7182080 132.6645310  63.2377200
  21.2167330 133.1391130  63.9029050  20.8605030 131.7408830  63.4447230
  23.1241580 127.9699270  56.6780460  23.0009360 127.9885400  55.7289970
  24.0726140 128.0178210  56.7978860  20.2118370 143.2054570  55.9508440
  20.4659870 143.1675960  55.0287810  19.2630850 143.0787900  55.9436690
  17.2961170 129.5533690  52.6135380  18.1451700 129.9903840  52.5475570
  16.9292440 129.8653950  53.4407440  27.9248940 128.8813270  64.0805590
  27.4222540 129.6218670  64.4199400  28.7405600 129.2697270  63.7642380
  26.2170950 134.1246450  57.5266950  25.2761090 134.1396680  57.7014640
  26.5315020 133.3382410  57.9727250  16.1952590 135.8066050  51.0870910
  16.9615860 135.6947410  51.6496340  16.2727280 135.1104020  50.4347680
  14.8899350 133.2391120  51.7703800  14.9702940 132.2918630  51.8821200
  15.7819100 133.5698000  51.8764460  28.2196530 141.2955300  59.2021210
  28.3443950 142.1186470  59.6745020  29.0862090 141.0846030  58.8545360
  15.6914060 143.3886510  58.8738340  16.4276540 142.8401970  59.1446910
  16.0754980 144.2542520  58.7344330  12.5759540 139.4560080  54.7479850
  11.6499320 139.6981220  54.7385260  13.0415970 140.2834340  54.6264600
  14.6972340 142.5732580  68.0623920  15.4985070 142.8944630  68.4759320
  14.1824160 142.2128160  68.7843830  18.8016370 142.5616820  50.6963910
  19.5944980 142.8505650  50.2445700  18.2820720 142.1308990  50.0176390
  23.5336970 138.6812450  68.0099330  22.9275130 138.7044050  67.2695080
  23.2291080 137.9495490  68.5466580  24.9637340 142.4092740  66.6208740
  25.9159090 142.3250760  66.5708980  24.8165560 143.0734450  67.2942530
  27.8546540 141.7886950  52.1200650  27.5688050 141.3752090  51.3054830
  27.6566090 142.7174660  52.0001170  12.4170150 135.0606040  67.0059970
  12.9209170 134.4813320  67.5776200  11.6777570 135.3446270  67.5436340
  19.3193770 137.7820230  50.5606260  19.2144410 137.1672580  51.2867640
  19.1517990 137.2586120  49.7769270  19.4708090 136.4677030  66.5395490
  18.7053760 137.0362030  66.4550160  19.6524050 136.1753240  65.6463720
  22.5596500 136.8440260  51.1648250  22.0106600 137.2909560  51.8090990
  23.1815760 136.3389510  51.6885920  26.6131440 138.1982360  67.0970510
  27.3540910 138.5358120  66.5937970  25.8504120 138.3674420  66.5440280
  14.4493230 133.2035630  67.9010040  14.4898570 132.9049500  68.8095270
  15.3038730 133.6043240  67.7417560  18.2271620 135.8031180  53.0613550
  18.6488040 135.6371050  53.9044940  18.3522460 134.9931410  52.5668690
  16.3899040 131.7827730  65.8684530  15.8595500 131.2918680  65.2407870
  17.0587110 132.2111930  65.3342460  20.7399260 134.8268790  50.3090650
  21.2604920 134.1117810  49.9431800  21.3867660 135.4654660  50.6091160
  25.2877100 136.2497190  65.6325720  25.7018120 136.4042270  66.4816140
  24.3528100 136.3752410  65.7951500  25.7599270 133.5893350  67.6364870
  26.3420040 132.8345670  67.5485350  25.9361040 134.1200790  66.8596350
  16.8771340 128.7490100  65.9481820  16.7828210 128.1310850  65.2232690
  16.2968730 129.4756390  65.7211730  19.6432780 127.3063340  62.9809210
  19.1950080 127.3287600  62.1354760  19.0097980 126.9082360  63.5779510
  20.0492330 136.2017670  63.6021650  20.4680440 137.0450400  63.4297890
  19.1300960 136.3389710  63.3728430  22.3856230 133.9333850  64.9859490
  22.5052440 133.3374990  65.7254330  23.2450230 133.9703540  64.5660790
  24.7244130 134.4871040  63.5622000  24.1979350 135.0113660  62.9587140
  25.0675470 135.1198430  64.1931730  17.1230520 131.8764410  50.0071710
  16.9219580 131.0131770  50.3685050  16.9522570 131.7897770  49.0693310
  17.8999750 142.5070680  64.7179380  17.3620840 143.2316740  64.3988080
  18.1533710 142.0301020  63.9276720  19.1525000 130.4755200  66.2435310
  19.7424690 130.1671050  66.9313130  18.3345240 130.0034950  66.3995210
  23.9718430 130.0921010  66.4768330  23.2833950 129.4302550  66.4118320
  24.6924450 129.6459280  66.9216790  24.6018830 126.6872640  52.5358590
  24.8821120 125.8440540  52.8918010  23.8284560 126.9195750  53.0497340
  15.9213320 128.9765030  49.9949590  16.2239220 128.9832460  49.0868740
  16.6607910 128.6262890  50.4917250  20.7561960 143.7421890  64.9766030
  20.6820660 144.6457030  65.2838400  19.8540800 143.4233790  64.9488100
  19.1398250 127.9199650  50.9805790  18.7920250 127.2423640  50.4008240
  19.3411020 127.4589160  51.7949180  21.3047290 142.9080400  52.5992390
  22.1998080 143.2465370  52.6211150  21.3364920 142.1859810  51.9716670
  14.9443450 138.2807450  50.8279390  15.3818320 138.8237120  51.4836970
  15.4291180 137.4554400  50.8375730  12.1589250 141.0696480  58.2799650
  12.4892260 140.2017540  58.0478290  12.5880250 141.2755000  59.1104610
  16.7551170 139.4005490  55.9401620  16.4546710 139.2770460  56.8405530
  16.6488660 138.5414080  55.5317350  12.6479460 141.9367070  61.0181280
  12.2110450 142.1167870  61.8505430  13.2157140 142.6941690  60.8763000
  28.2841640 141.4384070  65.3058590  27.6843630 141.4976630  64.5622510
  28.4135540 140.4989050  65.4355440  29.5243090 139.1801890  50.6428300
  28.6936050 139.2478540  51.1135530  29.7014920 140.0706010  50.3395160
  28.9799550 135.9249370  53.1462500  29.7418460 136.4946020  53.2522190
  28.9953920 135.3576570  53.9170810  12.4803890 134.4487300  57.3770160
  11.8252730 134.1798940  56.7329860  13.3181840 134.3391780  56.9272140
  29.9859520 136.7799470  57.9904430  30.3568350 135.9966790  57.5840400
  30.6261450 137.4688570  57.8121730  26.9693280 138.1636050  63.4034750
  26.1553120 138.5933210  63.6660540  27.3767480 138.7754460  62.7903800
  29.0318720 136.2183740  50.3035020  29.3067560 137.1262620  50.1754240
  28.8429460 136.1546270  51.2397010  25.4294330 129.2428590  51.5988650
  25.8479210 129.0559570  50.7585310  25.1230390 128.3907640  51.9091580
  28.9284060 134.1552730  55.2964450  28.5527660 133.3880660  54.8645740
  28.1987180 134.5375430  55.7839380  13.5179820 134.8339870  61.9173500
  13.8852860 134.7467270  62.7969520  12.9490640 134.0706420  61.8180360
  28.3183680 133.3024250  64.9303970  28.0869770 133.0737000  64.0301920
  28.5788230 134.2223800  64.8848860  13.0695820 131.7448960  65.8231920
  12.1751870 131.7115720  66.1625630  13.6093370 131.9435750  66.5883170
  26.7571750 128.5280680  67.7083670  27.6341930 128.5364080  68.0917670
  26.7692590 127.7911520  67.0976020  11.6941970 131.6586230  53.3195490
  10.7906050 131.9216430  53.1447150  12.1782590 131.9297400  52.5395450
  28.2035020 132.3810220  58.5971690  28.7272500 131.8872870  57.9661860
  28.7894440 132.5160580  59.3419260  28.3824740 132.4650090  62.1191240
  27.4327450 132.4313630  62.2336230  28.5637750 133.3750200  61.8841010
  14.2369180 130.7151770  51.2289870  14.9460880 130.2934990  50.7437150
  13.5209120 130.7827000  50.5973220  13.8843340 126.7691100  50.2692520
  14.6071470 127.3100040  50.5873740  14.1567860 126.4954520  49.3934060
  27.6934990 131.6383570  54.5364100  28.1894110 131.4054440  55.3212980
  27.4951060 130.7995410  54.1201740  13.5735530 126.0197290  60.1715140
  14.2211720 125.4694670  59.7310300  13.9937370 126.2740440  60.9930950
  29.1222150 130.2744520  57.0701780  29.0121430 130.1200560  58.0084050
  29.8829740 129.7465460  56.8277190  27.4687870 126.2138650  63.5284780
  28.1060090 126.8272790  63.8943970  27.6162760 126.2499310  62.5834010
  30.0112420 128.1052440  50.3107920  30.9361730 127.9733620  50.1026210
  29.9888210 128.1845260  51.2644370  30.0850910 128.8763100  52.9364630
  29.2902410 128.8108220  53.4657540  30.2894190 129.8113740  52.9249980
  27.0269330 142.9154650  56.9303020  27.6228400 142.5939220  56.2537440
  27.2847480 142.4426470  57.7216290  13.3267530 126.1752960  62.9140460
  12.9782350 126.6316780  63.6798640  12.9955230 125.2810090  62.9962890
  14.9331900 139.3472560  67.0793650  14.8901530 138.9765470  67.9608110
  15.0642910 140.2850130  67.2195470  18.6337930 140.9032150  62.6803370
  18.3929290 141.1706710  61.7933890  19.5740570 141.0737880  62.7354230
  20.8392350 127.3664840  66.4359880  20.7781240 127.9586670  67.1855290
  21.7792730 127.2590800  66.2910140  23.4766910 127.0234900  66.0752170
  24.0907320 127.3414190  65.4133250  24.0216470 126.5383490  66.6948030
  29.8942090 142.9226530  63.4814010  29.4000370 143.3195400  62.7641140
  29.2855380 142.2975740  63.8751290  13.9988170 125.7029160  66.1891230
  14.5471160 125.5217210  65.4257340  14.0643480 124.9123270  66.7247540
  14.7719930 142.2934810  64.1991430  14.1780250 142.1619510  64.9381470
  14.7643770 141.4572950  63.7333530  24.2174950 125.5867040  62.4021460
  23.3434790 125.9202150  62.1994390  24.1085700 125.1140220  63.2273330
  25.1246930 127.7937910  63.7863180  24.7960290 126.9789670  63.4064910
  26.0729230 127.7507720  63.6628870  27.5781540 143.5649950  60.7600750
  27.1184510 144.3165760  60.3858770  26.9494000 142.8456420  60.7015550
  14.4032160 139.6593190  63.1499470  13.6766220 139.0398480  63.0825420
  14.4641310 140.0533800  62.2797550  18.0077260 141.8738190  59.9348880
  18.5242280 141.2625550  59.4097140  18.6574640 142.3766970  60.4259890
  20.7472760 142.7646680  60.7617860  21.0350570 142.5100980  59.8850870
  21.2595980 142.2124040  61.3523430  21.9649770 126.5036880  61.3414370
  21.1821560 126.9782380  61.6211130  21.6712700 125.5991710  61.2327550
  26.5170840 127.2059980  59.3863460  26.9578930 127.1505080  58.5385060
  26.2478430 128.1217990  59.4573640  28.3809410 126.8375220  57.3972280
  28.3197810 125.8936440  57.2503300  29.1601440 126.9455310  57.9425740
  12.6862160 142.9767580  56.3596230  12.5184200 142.3438260  57.0578120
  11.8196670 143.1826980  56.0090420  13.3090180 126.8084360  53.8628090
  14.0669540 126.9213240  53.2892120  12.8467350 127.6453560  53.8171520
  19.8503990 128.9223630  56.8530400  19.0378500 128.5480520  56.5126280
  20.3545630 128.1668710  57.1551590  24.3528970 125.5866080  58.0913470
  24.9558340 126.1586290  58.5661990  23.6121960 126.1505520  57.8687370
  27.4963570 125.9887640  53.3653750  27.6914200 126.8871090  53.6321180
  26.7093440 125.7574720  53.8586700  14.2924860 141.6700810  53.8046370
  13.7672480 142.0508840  53.1008330  14.2169440 142.2951580  54.5256080
  15.6815330 127.3348410  52.4030060  16.2108090 126.5478210  52.2738010
  16.3143650 128.0139600  52.6365590  17.8753170 127.0723550  55.4575450
  17.2455910 126.3710860  55.6245580  17.3358310 127.8327680  55.2408610
  20.8145120 143.6862780  68.1286060  21.7412430 143.4507050  68.1722020
  20.7995550 144.5134780  67.6472090  29.0490180 143.2288350  55.1260310
  29.2242370 142.5426090  54.4821230  28.3511750 143.7535400  54.7336980
  18.0008730 126.3507530  67.8927940  17.7193000 126.8541130  67.1288760
  18.3828430 125.5529280  67.5270070  16.8917830 143.6183190  52.6795620
  17.6236650 143.3342470  52.1319510  17.1511500 143.3796470  53.5695000
  16.0532620 139.7347920  52.6841950  15.4241500 140.2033020  53.2327780
  16.1680450 138.8897140  53.1188140  24.6024190 125.7661110  68.4708410
  24.4889640 126.0855720  69.3659930  25.4193930 126.1673620  68.1745690
  27.3822680 142.9132640  67.9527100  28.1748000 142.4181870  67.7453060
  27.6755830 143.5922780  68.5602710  23.5082340 133.7853580  38.8343150
  23.4276390 132.8708190  38.5634860  23.0946760 134.2820650  38.1282860
  21.6400380 135.5632600  40.7152420  20.8642480 135.0833040  41.0050990
  22.2913310 134.8838250  40.5408580  15.6566210 135.8752410  41.5928180
  14.8251090 135.6201120  41.9924690  16.2647190 135.9463180  42.3286100
  25.6607810 139.9692790  39.4951550  25.1989340 139.1980030  39.8238720
  26.4733360 139.9958860  40.0004000  15.6367470 139.9092500  41.7886200
  15.9395510 139.0190240  41.6096420  16.3811060 140.4662720  41.5608450
  14.0658160 130.8354300  35.3770570  13.1774860 131.1770270  35.2750450
  14.3499350 130.6354620  34.4851400  12.0291170 133.4359950  41.2610270
  12.6007280 132.6682150  41.2613910  12.0292710 133.7348710  40.3516880
  21.8871120 142.2550800  39.1155540  21.2682560 142.7108300  38.5449980
  22.7422900 142.4102260  38.7145240  21.0809370 138.2389790  40.7222580
  21.0117650 137.2979730  40.5611710  21.8429230 138.3291200  41.2945150
  13.2716040 128.8444310  43.0479200  13.0918880 127.9470060  43.3281960
  12.8696120 129.3916180  43.7226150  22.1114540 131.0460170  40.9491510
  22.4879360 130.1732050  40.8365180  22.0134050 131.3818870  40.0581950
  16.2419550 129.4185800  36.4108950  16.3486300 130.3189530  36.7177710
  15.3311910 129.3703770  36.1203600  25.8938660 128.5410610  37.8819850
  26.7148280 128.0507180  37.9245330  25.9272740 129.1308270  38.6351690
  13.8902710 131.3404810  41.6561540  14.5712820 131.6043180  42.2748940
  13.5750760 130.5005680  41.9899550  18.0827280 132.3872170  40.7434130
  18.5905500 132.8853140  41.3839150  18.6140520 131.6107370  40.5673490
  30.1838210 130.5577360  44.4463480  29.4790380 130.9459070  43.9278590
  30.4496130 131.2527650  45.0484410  16.3663380 127.0270730  45.0097550
  16.3681820 127.5443120  44.2043450  15.5367690 126.5500910  44.9867480
  22.7534470 137.1390040  36.5087450  22.1351740 137.6039490  35.9450170
  23.2657720 137.8317520  36.9256960  17.6166230 136.6665910  43.1871050
  17.2835610 137.2934830  43.8292120  17.7932910 137.1927790  42.4072720
  26.1300140 130.4810990  40.6547390  25.4255710 130.7695880  41.2350500
  26.4912300 131.2911100  40.2946950  16.0478710 128.7380690  43.0168000
  16.3895520 129.5822740  42.7221870  15.1094520 128.8864430  43.1333340
  16.8285330 138.6346710  45.0020230  17.4459330 139.3097790  44.7204680
  15.9678450 139.0434690  44.9107730  12.1217670 137.8246570  33.8827080
  11.7445650 138.3133670  33.1511980  12.3790740 138.4971850  34.5133610
  27.7462920 140.0986120  42.9174870  27.0626440 140.7685230  42.9091540
  28.2857210 140.2966770  42.1519730  29.1987060 129.9265780  41.0456600
  28.2511970 129.9604760  41.1772030  29.5237050 130.7404730  41.4305960
  19.7306600 126.2262960  39.3412590  20.0381580 125.6709850  38.6248090
  18.8007300 126.3607420  39.1585580  25.2821660 141.9430250  41.6320050
  25.2948820 141.5392540  40.7642310  24.7296880 142.7177540  41.5281480
  26.5767080 138.6646470  36.7210220  26.4663410 137.7220800  36.8459640
  26.5735330 139.0262110  37.6072980  24.6807100 136.8460090  42.9602660
  25.0975890 136.6320200  42.1256120  25.4046920 137.1032880  43.5311280
  22.1187360 134.2911790  36.0772710  21.1916640 134.2249170  36.3061180
  22.2712180 135.2291920  35.9627950  22.1056440 130.5628790  33.0739870
  21.1660110 130.7242750  33.1592330  22.4239700 131.2814470  32.5275860
  28.6269200 135.2447310  43.0518900  27.7987830 135.3140400  42.5769030
  29.2219680 135.8301620  42.5834730  26.1484650 135.8532090  36.5807960
  25.5297070 135.5151640  35.9334260  26.1309100 135.2091850  37.2887150
  25.5911210 132.0316630  43.9973770  25.1782390 132.8570340  44.2513760
  24.8587160 131.4461670  43.8050130  17.7244000 134.8176530  38.8592440
  17.3201000 134.1053780  38.3638340  17.8107120 134.4729770  39.7480480
  18.1925700 138.5044090  41.0231650  17.8953990 137.8989560  40.3439430
  19.1425520 138.5421400  40.9121010  16.4372620 131.5919740  42.6391480
  16.9887210 131.7015080  41.8644730  16.9516130 131.9657340  43.3546710
  26.2811310 142.0775960  44.6854750  25.8041870 142.8848150  44.4927360
  25.5973100 141.4254290  44.8380960  17.2844130 138.2425780  47.6739450
  16.3872660 138.4665750  47.9212850  17.3097000 138.3660720  46.7250850
  24.3249350 135.0918900  33.5880710  24.7642630 134.2541330  33.4418530
  25.0377770 135.7248300  33.6744850  16.1115350 135.1139100  46.2496820
  15.9723120 135.9861900  46.6184220  15.2296710 134.7711910  46.1044760
  22.4344730 140.0314970  37.5561950  22.8740640 140.7739300  37.1417340
  22.3731620 140.2741540  38.4800910  17.9095700 141.0560800  48.4581970
  17.8811130 141.4603750  47.5910400  17.7460670 140.1271160  48.2953570
  27.9066490 126.3461710  31.9021750  27.5939150 126.4388540  32.8020820
  28.6678960 126.9242740  31.8519180  14.4248630 133.7121510  36.3599090
  14.3046230 134.4383600  35.7480360  14.1149520 132.9424420  35.8827000
  29.8610520 141.8387900  49.7546140  30.3370240 142.3170790  50.4335220
  30.4817680 141.7705390  49.0291640  12.0634000 136.8836650  42.1667730
  12.1414420 137.0185420  41.2223450  12.6775680 136.1752540  42.3595850
  13.3081630 138.5836840  38.5773910  12.9009710 138.7251430  37.7227510
  14.1994640 138.2997000  38.3745120  29.2643770 139.0300750  46.9146150
  29.3906830 138.7912630  45.9963330  29.3065150 138.1985290  47.3868230
  23.1260510 142.7328750  45.4840960  23.6405180 142.6436760  46.2863390
  22.2829590 143.0788450  45.7768870  25.1014910 143.0184090  34.9124960
  24.9416050 142.7287030  35.8106790  24.9361620 142.2424220  34.3770190
  17.5803290 142.7982620  36.6896580  17.4045770 141.8818160  36.4764380
  16.7259030 143.1569910  36.9294380  24.8041040 140.5271650  33.4722960
  24.1106200 140.5248940  32.8125240  25.5463900 140.1030970  33.0417130
  24.3690970 142.1534360  37.5471450  24.8247920 141.3723740  37.8610070
  24.7083490 142.8641180  38.0912630  29.1167780 131.0833210  47.8795890
  28.5012050 131.5912880  47.3511350  28.7964200 130.1831540  47.8221830
  12.1193520 137.9250820  44.7062190  12.2824560 137.4556180  43.8881560
  12.5845970 137.4174380  45.3711030  16.8912290 127.0556580  39.7422760
  16.4480440 127.8366120  39.4107280  17.4497280 127.3786470  40.4493700
  21.1782100 129.9225100  45.3458080  20.7161470 130.1308120  46.1578020
  20.7760210 129.1084450  45.0428750  26.1786610 131.1434050  46.4754740
  25.3280200 130.8439800  46.7963810  26.0188400 131.3876060  45.5638560
  23.2736320 132.6435800  48.5753530  23.5989730 131.8099550  48.2355760
  24.0616650 133.1664320  48.7231860  20.0071110 126.6767280  34.6228590
  19.3825290 126.6727150  35.3481900  19.9201230 125.8098240  34.2264560
  18.9288190 127.6003910  41.6012360  19.2260520 128.5066740  41.5204380
  19.4773750 127.1122690  40.9871930  16.6826510 132.1790150  37.4704010
  16.4567430 131.9627320  38.3750630  15.9019040 132.6118610  37.1249980
  23.9124270 132.1853520  36.0694660  23.3133160 132.9089320  35.8858280
  24.4603880 132.1230300  35.2871110  19.1225720 133.0775730  48.1364280
  19.0269320 132.1370460  47.9864680  19.9657700 133.2990800  47.7412350
  22.5189140 130.8217060  38.0997940  22.9118710 131.1389260  37.2866630
  22.8805990 129.9428940  38.2142460  14.2536260 129.4889400  46.2898060
  13.8599650 130.3364610  46.4970840  13.5654660 128.8515770  46.4806700
  20.8281310 129.5724370  49.3594800  20.1379630 129.3796570  49.9940890
  21.5713610 129.8559010  49.8919100  11.5553310 127.4117860  40.3228140
  11.2666360 127.9820720  41.0353120  12.2999070 126.9322310  40.6859370
  11.7423540 131.3537980  31.5330860  11.6598210 132.2968740  31.6745850
  11.3906600 131.2112890  30.6543210  23.1044280 133.4122810  42.1948720
  22.3725400 133.9209620  42.5438820  22.7068620 132.5952790  41.8937500
  19.5421670 130.0877010  40.6001210  19.5457730 129.6466960  39.7505750
  20.4372790 130.4094340  40.7073030  15.3924050 129.9703500  39.5595420
  15.0524100 130.4478730  40.3162470  14.6301370 129.5168620  39.1996520
  19.6041820 131.0889090  33.5907970  19.7254640 131.0475570  34.5393790
  19.2190330 131.9513240  33.4354700  23.5670190 128.8656490  41.6071660
  23.5842930 129.3165140  42.4513510  23.3185770 127.9662130  41.8205100
  18.6163320 133.3990230  32.9891270  18.0480220 132.9508480  32.3627180
  19.3252320 133.7583010  32.4556420  26.9940940 126.2788670  47.4458040
  27.3186710 125.5478330  47.9716020  27.0297450 125.9602310  46.5439030
  13.6932500 137.3002250  46.8658000  13.3087290 136.6595920  47.4640960
  14.0044690 138.0038370  47.4352730  19.8429640 134.1478790  42.3466620
  20.2099770 133.6737360  43.0927960  19.6534700 135.0220360  42.6874960
  12.7070130 128.8922480  38.4760090  12.4217050 128.5278150  39.3138710
  12.6448990 128.1602940  37.8623230  17.6329010 133.1887430  44.6650830
  17.3286080 134.0679410  44.8901190  18.5875470 133.2487220  44.7008270
  16.1610800 137.3948420  35.2617680  15.3873060 136.8546040  35.1016400
  16.8905430 136.8755030  34.9235440  26.9198780 136.3913780  41.0544070
  27.6397900 136.8869070  40.6640180  26.7180600 135.7131670  40.4097940
  22.3808720 127.7851740  35.1973460  21.5673330 127.2864910  35.1218770
  22.1870670 128.6249990  34.7809810  22.3017580 136.4622840  46.9413070
  22.2354890 135.5418510  46.6870660  21.6722720 136.5598280  47.6557710
  25.0957110 132.1571390  33.4935620  25.9836730 132.4688620  33.3186960
  25.0662200 131.2843640  33.1016200  16.2048200 137.0628800  38.8996490
  16.7226870 136.2597060  38.8453380  15.7532220 137.0007940  39.7413320
  21.0917700 138.3295080  34.1723790  21.4333400 139.0737310  33.6767110
  20.2630410 138.6426200  34.5348620  13.6892740 134.0290170  45.8122190
  13.3307680 134.6944020  46.3995530  13.3947300 133.1973720  46.1834810
  16.8905860 134.4874410  48.6961740  16.5906000 134.6331590  47.7989560
  17.6617100 133.9279700  48.6035130  22.2334310 139.2843410  46.6916870
  22.2478850 138.3524370  46.4735780  21.5259410 139.3703170  47.3306640
  27.3671380 133.4683230  32.9615480  27.2835100 133.8997450  32.1111920
  28.0865570 133.9281580  33.3942300  28.4445520 135.9250750  46.0385450
  27.7193710 136.5179530  45.8414840  28.9720980 135.9174290  45.2398820
  28.3958630 140.3225490  35.6897610  27.7534790 139.6681110  35.9641330
  28.0089290 140.7280580  34.9138280  23.9745110 137.6510920  39.5369300
  24.3268930 137.0539050  38.8770670  23.0907440 137.3255150  39.7077550
  20.0608390 138.4108610  36.9439710  20.7479520 138.9577820  37.3247300
  19.2740810 138.9549340  36.9789320  12.2000790 134.0281430  32.4356790
  13.0695640 134.3106230  32.7192710  11.7091110 134.8417300  32.3205600
  19.3635600 135.4154640  36.5565070  19.8198380 136.2259890  36.7825260
  19.0123810 135.0977780  37.3883560  21.6668210 140.9260980  43.7857370
  22.3110430 141.1320360  44.4630790  22.0297650 140.1649380  43.3328220
  15.2647380 125.7592290  37.0287590  15.1362010 125.7510190  37.9772510
  14.4409400 126.0975380  36.6778600  22.9400290 138.9293330  42.5034820
  23.5822520 138.2286490  42.6166990  23.4649640 139.7091770  42.3231710
  26.7856010 139.2141950  32.2273960  26.5593590 138.4972390  32.8198600
  26.3952210 138.9654390  31.3895710  24.7137910 139.7288230  45.7070880
  25.0494150 140.3154920  46.3848800  23.7938250 139.5980940  45.9368670
  12.5672040 143.2408810  33.0018420  12.9269680 143.8398150  32.3475690
  12.4264380 143.7868700  33.7753450  12.2641310 127.5183410  46.4894290
  11.5499830 127.7180330  47.0946900  12.6836350 126.7422980  46.8609090
  26.3672260 137.1313890  33.8888120  26.0793960 137.5926580  34.6766000
  27.1624430 136.6711660  34.1572340  12.5513900 141.5063670  47.4760820
  12.6605020 140.5658410  47.3356210  11.8994460 141.7718420  46.8274550
  20.5426490 139.7779560  48.8758940  20.2223360 139.0588800  49.4204630
  19.8684850 140.4534630  48.9495000  18.5840660 140.6240010  33.8192090
  18.5750760 141.3569700  33.2036600  17.6639020 140.3771590  33.9119050
  14.1847300 135.8454900  34.5638850  13.5775250 136.5853800  34.5734150
  14.6596650 135.9354260  33.7377050  23.7580090 130.0105720  44.2395740
  24.1260910 129.1900930  44.5675310  22.8978290 130.0707610  44.6551390
  27.1242120 128.9662660  35.0483300  26.4955280 129.0708330  34.3341530
  26.6294040 129.1859440  35.8377180  21.5700260 140.6868250  32.4817280
  21.6712240 140.4832240  31.5519260  20.6702000 140.4326530  32.6865060
  19.0926150 131.2448610  36.4641180  18.3842300 131.7134950  36.9054790
  19.3770630 130.5870620  37.0986370  20.7182080 132.6645310  44.4633710
  21.2167330 133.1391130  45.1285560  20.8605030 131.7408830  44.6703740
  23.1241580 127.9699270  37.9036970  23.0009360 127.9885400  36.9546480
  24.0726140 128.0178210  38.0235370  20.2118370 143.2054570  37.1764950
  20.4659870 143.1675960  36.2544320  19.2630850 143.0787900  37.1693200
  17.2961170 129.5533690  33.8391890  18.1451700 129.9903840  33.7732080
  16.9292440 129.8653950  34.6663950  27.9248940 128.8813270  45.3062100
  27.4222540 129.6218670  45.6455910  28.7405600 129.2697270  44.9898890
  26.2170950 134.1246450  38.7523460  25.2761090 134.1396680  38.9271150
  26.5315020 133.3382410  39.1983760  16.1952590 135.8066050  32.3127420
  16.9615860 135.6947410  32.8752850  16.2727280 135.1104020  31.6604190
  14.8899350 133.2391120  32.9960310  14.9702940 132.2918630  33.1077710
  15.7819100 133.5698000  33.1020970  28.2196530 141.2955300  40.4277720
  28.3443950 142.1186470  40.9001530  29.0862090 141.0846030  40.0801870
  15.6914060 143.3886510  40.0994850  16.4276540 142.8401970  40.3703420
  16.0754980 144.2542520  39.9600840  12.5759540 139.4560080  35.9736360
  11.6499320 139.6981220  35.9641770  13.0415970 140.2834340  35.8521110
  14.6972340 142.5732580  49.2880430  15.4985070 142.8944630  49.7015830
  14.1824160 142.2128160  50.0100340  18.8016370 142.5616820  31.9220420
  19.5944980 142.8505650  31.4702210  18.2820720 142.1308990  31.2432900
  23.5336970 138.6812450  49.2355840  22.9275130 138.7044050  48.4951590
  23.2291080 137.9495490  49.7723090  24.9637340 142.4092740  47.8465250
  25.9159090 142.3250760  47.7965490  24.8165560 143.0734450  48.5199040
  27.8546540 141.7886950  33.3457160  27.5688050 141.3752090  32.5311340
  27.6566090 142.7174660  33.2257680  12.4170150 135.0606040  48.2316480
  12.9209170 134.4813320  48.8032710  11.6777570 135.3446270  48.7692850
  19.3193770 137.7820230  31.7862770  19.2144410 137.1672580  32.5124150
  19.1517990 137.2586120  31.0025780  19.4708090 136.4677030  47.7652000
  18.7053760 137.0362030  47.6806670  19.6524050 136.1753240  46.8720230
  22.5596500 136.8440260  32.3904760  22.0106600 137.2909560  33.0347500
  23.1815760 136.3389510  32.9142430  26.6131440 138.1982360  48.3227020
  27.3540910 138.5358120  47.8194480  25.8504120 138.3674420  47.7696790
  14.4493230 133.2035630  49.1266550  14.4898570 132.9049500  50.0351780
  15.3038730 133.6043240  48.9674070  18.2271620 135.8031180  34.2870060
  18.6488040 135.6371050  35.1301450  18.3522460 134.9931410  33.7925200
  16.3899040 131.7827730  47.0941040  15.8595500 131.2918680  46.4664380
  17.0587110 132.2111930  46.5598970  20.7399260 134.8268790  31.5347160
  21.2604920 134.1117810  31.1688310  21.3867660 135.4654660  31.8347670
  25.2877100 136.2497190  46.8582230  25.7018120 136.4042270  47.7072650
  24.3528100 136.3752410  47.0208010  25.7599270 133.5893350  48.8621380
  26.3420040 132.8345670  48.7741860  25.9361040 134.1200790  48.0852860
  16.8771340 128.7490100  47.1738330  16.7828210 128.1310850  46.4489200
  16.2968730 129.4756390  46.9468240  19.6432780 127.3063340  44.2065720
  19.1950080 127.3287600  43.3611270  19.0097980 126.9082360  44.8036020
  20.0492330 136.2017670  44.8278160  20.4680440 137.0450400  44.6554400
  19.1300960 136.3389710  44.5984940  22.3856230 133.9333850  46.2116000
  22.5052440 133.3374990  46.9510840  23.2450230 133.9703540  45.7917300
  24.7244130 134.4871040  44.7878510  24.1979350 135.0113660  44.1843650
  25.0675470 135.1198430  45.4188240  17.1230520 131.8764410  31.2328220
  16.9219580 131.0131770  31.5941560  16.9522570 131.7897770  30.2949820
  17.8999750 142.5070680  45.9435890  17.3620840 143.2316740  45.6244590
  18.1533710 142.0301020  45.1533230  19.1525000 130.4755200  47.4691820
  19.7424690 130.1671050  48.1569640  18.3345240 130.0034950  47.6251720
  23.9718430 130.0921010  47.7024840  23.2833950 129.4302550  47.6374830
  24.6924450 129.6459280  48.1473300  24.6018830 126.6872640  33.7615100
  24.8821120 125.8440540  34.1174520  23.8284560 126.9195750  34.2753850
  15.9213320 128.9765030  31.2206100  16.2239220 128.9832460  30.3125250
  16.6607910 128.6262890  31.7173760  20.7561960 143.7421890  46.2022540
  20.6820660 144.6457030  46.5094910  19.8540800 143.4233790  46.1744610
  19.1398250 127.9199650  32.2062300  18.7920250 127.2423640  31.6264750
  19.3411020 127.4589160  33.0205690  21.3047290 142.9080400  33.8248900
  22.1998080 143.2465370  33.8467660  21.3364920 142.1859810  33.1973180
  14.9443450 138.2807450  32.0535900  15.3818320 138.8237120  32.7093480
  15.4291180 137.4554400  32.0632240  12.1589250 141.0696480  39.5056160
  12.4892260 140.2017540  39.2734800  12.5880250 141.2755000  40.3361120
  16.7551170 139.4005490  37.1658130  16.4546710 139.2770460  38.0662040
  16.6488660 138.5414080  36.7573860  12.6479460 141.9367070  42.2437790
  12.2110450 142.1167870  43.0761940  13.2157140 142.6941690  42.1019510
  28.2841640 141.4384070  46.5315100  27.6843630 141.4976630  45.7879020
  28.4135540 140.4989050  46.6611950  29.5243090 139.1801890  31.8684810
  28.6936050 139.2478540  32.3392040  29.7014920 140.0706010  31.5651670
  28.9799550 135.9249370  34.3719010  29.7418460 136.4946020  34.4778700
  28.9953920 135.3576570  35.1427320  12.4803890 134.4487300  38.6026670
  11.8252730 134.1798940  37.9586370  13.3181840 134.3391780  38.1528650
  29.9859520 136.7799470  39.2160940  30.3568350 135.9966790  38.8096910
  30.6261450 137.4688570  39.0378240  26.9693280 138.1636050  44.6291260
  26.1553120 138.5933210  44.8917050  27.3767480 138.7754460  44.0160310
  29.0318720 136.2183740  31.5291530  29.3067560 137.1262620  31.4010750
  28.8429460 136.1546270  32.4653520  25.4294330 129.2428590  32.8245160
  25.8479210 129.0559570  31.9841820  25.1230390 128.3907640  33.1348090
  28.9284060 134.1552730  36.5220960  28.5527660 133.3880660  36.0902250
  28.1987180 134.5375430  37.0095890  13.5179820 134.8339870  43.1430010
  13.8852860 134.7467270  44.0226030  12.9490640 134.0706420  43.0436870
  28.3183680 133.3024250  46.1560480  28.0869770 133.0737000  45.2558430
  28.5788230 134.2223800  46.1105370  13.0695820 131.7448960  47.0488430
  12.1751870 131.7115720  47.3882140  13.6093370 131.9435750  47.8139680
  26.7571750 128.5280680  48.9340180  27.6341930 128.5364080  49.3174180
  26.7692590 127.7911520  48.3232530  11.6941970 131.6586230  34.5452000
  10.7906050 131.9216430  34.3703660  12.1782590 131.9297400  33.7651960
  28.2035020 132.3810220  39.8228200  28.7272500 131.8872870  39.1918370
  28.7894440 132.5160580  40.5675770  28.3824740 132.4650090  43.3447750
  27.4327450 132.4313630  43.4592740  28.5637750 133.3750200  43.1097520
  14.2369180 130.7151770  32.4546380  14.9460880 130.2934990  31.9693660
  13.5209120 130.7827000  31.8229730  13.8843340 126.7691100  31.4949030
  14.6071470 127.3100040  31.8130250  14.1567860 126.4954520  30.6190570
  27.6934990 131.6383570  35.7620610  28.1894110 131.4054440  36.5469490
  27.4951060 130.7995410  35.3458250  13.5735530 126.0197290  41.3971650
  14.2211720 125.4694670  40.9566810  13.9937370 126.2740440  42.2187460
  29.1222150 130.2744520  38.2958290  29.0121430 130.1200560  39.2340560
  29.8829740 129.7465460  38.0533700  27.4687870 126.2138650  44.7541290
  28.1060090 126.8272790  45.1200480  27.6162760 126.2499310  43.8090520
  30.0112420 128.1052440  31.5364430  30.9361730 127.9733620  31.3282720
  29.9888210 128.1845260  32.4900880  30.0850910 128.8763100  34.1621140
  29.2902410 128.8108220  34.6914050  30.2894190 129.8113740  34.1506490
  27.0269330 142.9154650  38.1559530  27.6228400 142.5939220  37.4793950
  27.2847480 142.4426470  38.9472800  13.3267530 126.1752960  44.1396970
  12.9782350 126.6316780  44.9055150  12.9955230 125.2810090  44.2219400
  14.9331900 139.3472560  48.3050160  14.8901530 138.9765470  49.1864620
  15.0642910 140.2850130  48.4451980  18.6337930 140.9032150  43.9059880
  18.3929290 141.1706710  43.0190400  19.5740570 141.0737880  43.9610740
  20.8392350 127.3664840  47.6616390  20.7781240 127.9586670  48.4111800
  21.7792730 127.2590800  47.5166650  23.4766910 127.0234900  47.3008680
  24.0907320 127.3414190  46.6389760  24.0216470 126.5383490  47.9204540
  29.8942090 142.9226530  44.7070520  29.4000370 143.3195400  43.9897650
  29.2855380 142.2975740  45.1007800  13.9988170 125.7029160  47.4147740
  14.5471160 125.5217210  46.6513850  14.0643480 124.9123270  47.9504050
  14.7719930 142.2934810  45.4247940  14.1780250 142.1619510  46.1637980
  14.7643770 141.4572950  44.9590040  24.2174950 125.5867040  43.6277970
  23.3434790 125.9202150  43.4250900  24.1085700 125.1140220  44.4529840
  25.1246930 127.7937910  45.0119690  24.7960290 126.9789670  44.6321420
  26.0729230 127.7507720  44.8885380  27.5781540 143.5649950  41.9857260
  27.1184510 144.3165760  41.6115280  26.9494000 142.8456420  41.9272060
  14.4032160 139.6593190  44.3755980  13.6766220 139.0398480  44.3081930
  14.4641310 140.0533800  43.5054060  18.0077260 141.8738190  41.1605390
  18.5242280 141.2625550  40.6353650  18.6574640 142.3766970  41.6516400
  20.7472760 142.7646680  41.9874370  21.0350570 142.5100980  41.1107380
  21.2595980 142.2124040  42.5779940  21.9649770 126.5036880  42.5670880
  21.1821560 126.9782380  42.8467640  21.6712700 125.5991710  42.4584060
  26.5170840 127.2059980  40.6119970  26.9578930 127.1505080  39.7641570
  26.2478430 128.1217990  40.6830150  28.3809410 126.8375220  38.6228790
  28.3197810 125.8936440  38.4759810  29.1601440 126.9455310  39.1682250
  12.6862160 142.9767580  37.5852740  12.5184200 142.3438260  38.2834630
  11.8196670 143.1826980  37.2346930  13.3090180 126.8084360  35.0884600
  14.0669540 126.9213240  34.5148630  12.8467350 127.6453560  35.0428030
  19.8503990 128.9223630  38.0786910  19.0378500 128.5480520  37.7382790
  20.3545630 128.1668710  38.3808100  24.3528970 125.5866080  39.3169980
  24.9558340 126.1586290  39.7918500  23.6121960 126.1505520  39.0943880
  27.4963570 125.9887640  34.5910260  27.6914200 126.8871090  34.8577690
  26.7093440 125.7574720  35.0843210  14.2924860 141.6700810  35.0302880
  13.7672480 142.0508840  34.3264840  14.2169440 142.2951580  35.7512590
  15.6815330 127.3348410  33.6286570  16.2108090 126.5478210  33.4994520
  16.3143650 128.0139600  33.8622100  17.8753170 127.0723550  36.6831960
  17.2455910 126.3710860  36.8502090  17.3358310 127.8327680  36.4665120
  20.8145120 143.6862780  49.3542570  21.7412430 143.4507050  49.3978530
  20.7995550 144.5134780  48.8728600  29.0490180 143.2288350  36.3516820
  29.2242370 142.5426090  35.7077740  28.3511750 143.7535400  35.9593490
  18.0008730 126.3507530  49.1184450  17.7193000 126.8541130  48.3545270
  18.3828430 125.5529280  48.7526580  16.8917830 143.6183190  33.9052130
  17.6236650 143.3342470  33.3576020  17.1511500 143.3796470  34.7951510
  16.0532620 139.7347920  33.9098460  15.4241500 140.2033020  34.4584290
  16.1680450 138.8897140  34.3444650  24.6024190 125.7661110  49.6964920
  24.4889640 126.0855720  50.5916440  25.4193930 126.1673620  49.4002200
  27.3822680 142.9132640  49.1783610  28.1748000 142.4181870  48.9709570
  27.6755830 143.5922780  49.7859220  23.5082340 133.7853580  20.0599660
  23.4276390 132.8708190  19.7891370  23.0946760 134.2820650  19.3539370
  21.6400380 135.5632600  21.9408930  20.8642480 135.0833040  22.2307500
  22.2913310 134.8838250  21.7665090  15.6566210 135.8752410  22.8184690
  14.8251090 135.6201120  23.2181200  16.2647190 135.9463180  23.5542610
  25.6607810 139.9692790  20.7208060  25.1989340 139.1980030  21.0495230
  26.4733360 139.9958860  21.2260510  15.6367470 139.9092500  23.0142710
  15.9395510 139.0190240  22.8352930  16.3811060 140.4662720  22.7864960
  14.0658160 130.8354300  16.6027080  13.1774860 131.1770270  16.5006960
  14.3499350 130.6354620  15.7107910  12.0291170 133.4359950  22.4866780
  12.6007280 132.6682150  22.4870420  12.0292710 133.7348710  21.5773390
  21.8871120 142.2550800  20.3412050  21.2682560 142.7108300  19.7706490
  22.7422900 142.4102260  19.9401750  21.0809370 138.2389790  21.9479090
  21.0117650 137.2979730  21.7868220  21.8429230 138.3291200  22.5201660
  13.2716040 128.8444310  24.2735710  13.0918880 127.9470060  24.5538470
  12.8696120 129.3916180  24.9482660  22.1114540 131.0460170  22.1748020
  22.4879360 130.1732050  22.0621690  22.0134050 131.3818870  21.2838460
  16.2419550 129.4185800  17.6365460  16.3486300 130.3189530  17.9434220
  15.3311910 129.3703770  17.3460110  25.8938660 128.5410610  19.1076360
  26.7148280 128.0507180  19.1501840  25.9272740 129.1308270  19.8608200
  13.8902710 131.3404810  22.8818050  14.5712820 131.6043180  23.5005450
  13.5750760 130.5005680  23.2156060  18.0827280 132.3872170  21.9690640
  18.5905500 132.8853140  22.6095660  18.6140520 131.6107370  21.7930000
  30.1838210 130.5577360  25.6719990  29.4790380 130.9459070  25.1535100
  30.4496130 131.2527650  26.2740920  16.3663380 127.0270730  26.2354060
  16.3681820 127.5443120  25.4299960  15.5367690 126.5500910  26.2123990
  22.7534470 137.1390040  17.7343960  22.1351740 137.6039490  17.1706680
  23.2657720 137.8317520  18.1513470  17.6166230 136.6665910  24.4127560
  17.2835610 137.2934830  25.0548630  17.7932910 137.1927790  23.6329230
  26.1300140 130.4810990  21.8803900  25.4255710 130.7695880  22.4607010
  26.4912300 131.2911100  21.5203460  16.0478710 128.7380690  24.2424510
  16.3895520 129.5822740  23.9478380  15.1094520 128.8864430  24.3589850
  16.8285330 138.6346710  26.2276740  17.4459330 139.3097790  25.9461190
  15.9678450 139.0434690  26.1364240  12.1217670 137.8246570  15.1083590
  11.7445650 138.3133670  14.3768490  12.3790740 138.4971850  15.7390120
  27.7462920 140.0986120  24.1431380  27.0626440 140.7685230  24.1348050
  28.2857210 140.2966770  23.3776240  29.1987060 129.9265780  22.2713110
  28.2511970 129.9604760  22.4028540  29.5237050 130.7404730  22.6562470
  19.7306600 126.2262960  20.5669100  20.0381580 125.6709850  19.8504600
  18.8007300 126.3607420  20.3842090  25.2821660 141.9430250  22.8576560
  25.2948820 141.5392540  21.9898820  24.7296880 142.7177540  22.7537990
  26.5767080 138.6646470  17.9466730  26.4663410 137.7220800  18.0716150
  26.5735330 139.0262110  18.8329490  24.6807100 136.8460090  24.1859170
  25.0975890 136.6320200  23.3512630  25.4046920 137.1032880  24.7567790
  22.1187360 134.2911790  17.3029220  21.1916640 134.2249170  17.5317690
  22.2712180 135.2291920  17.1884460  22.1056440 130.5628790  14.2996380
  21.1660110 130.7242750  14.3848840  22.4239700 131.2814470  13.7532370
  28.6269200 135.2447310  24.2775410  27.7987830 135.3140400  23.8025540
  29.2219680 135.8301620  23.8091240  26.1484650 135.8532090  17.8064470
  25.5297070 135.5151640  17.1590770  26.1309100 135.2091850  18.5143660
  25.5911210 132.0316630  25.2230280  25.1782390 132.8570340  25.4770270
  24.8587160 131.4461670  25.0306640  17.7244000 134.8176530  20.0848950
  17.3201000 134.1053780  19.5894850  17.8107120 134.4729770  20.9736990
  18.1925700 138.5044090  22.2488160  17.8953990 137.8989560  21.5695940
  19.1425520 138.5421400  22.1377520  16.4372620 131.5919740  23.8647990
  16.9887210 131.7015080  23.0901240  16.9516130 131.9657340  24.5803220
  26.2811310 142.0775960  25.9111260  25.8041870 142.8848150  25.7183870
  25.5973100 141.4254290  26.0637470  17.2844130 138.2425780  28.8995960
  16.3872660 138.4665750  29.1469360  17.3097000 138.3660720  27.9507360
  24.3249350 135.0918900  14.8137220  24.7642630 134.2541330  14.6675040
  25.0377770 135.7248300  14.9001360  16.1115350 135.1139100  27.4753330
  15.9723120 135.9861900  27.8440730  15.2296710 134.7711910  27.3301270
  22.4344730 140.0314970  18.7818460  22.8740640 140.7739300  18.3673850
  22.3731620 140.2741540  19.7057420  17.9095700 141.0560800  29.6838480
  17.8811130 141.4603750  28.8166910  17.7460670 140.1271160  29.5210080
  27.9066490 126.3461710  13.1278260  27.5939150 126.4388540  14.0277330
  28.6678960 126.9242740  13.0775690  14.4248630 133.7121510  17.5855600
  14.3046230 134.4383600  16.9736870  14.1149520 132.9424420  17.1083510
  29.8610520 141.8387900  30.9802650  30.3370240 142.3170790  31.6591730
  30.4817680 141.7705390  30.2548150  12.0634000 136.8836650  23.3924240
  12.1414420 137.0185420  22.4479960  12.6775680 136.1752540  23.5852360
  13.3081630 138.5836840  19.8030420  12.9009710 138.7251430  18.9484020
  14.1994640 138.2997000  19.6001630  29.2643770 139.0300750  28.1402660
  29.3906830 138.7912630  27.2219840  29.3065150 138.1985290  28.6124740
  23.1260510 142.7328750  26.7097470  23.6405180 142.6436760  27.5119900
  22.2829590 143.0788450  27.0025380  25.1014910 143.0184090  16.1381470
  24.9416050 142.7287030  17.0363300  24.9361620 142.2424220  15.6026700
  17.5803290 142.7982620  17.9153090  17.4045770 141.8818160  17.7020890
  16.7259030 143.1569910  18.1550890  24.8041040 140.5271650  14.6979470
  24.1106200 140.5248940  14.0381750  25.5463900 140.1030970  14.2673640
  24.3690970 142.1534360  18.7727960  24.8247920 141.3723740  19.0866580
  24.7083490 142.8641180  19.3169140  29.1167780 131.0833210  29.1052400
  28.5012050 131.5912880  28.5767860  28.7964200 130.1831540  29.0478340
  12.1193520 137.9250820  25.9318700  12.2824560 137.4556180  25.1138070
  12.5845970 137.4174380  26.5967540  16.8912290 127.0556580  20.9679270
  16.4480440 127.8366120  20.6363790  17.4497280 127.3786470  21.6750210
  21.1782100 129.9225100  26.5714590  20.7161470 130.1308120  27.3834530
  20.7760210 129.1084450  26.2685260  26.1786610 131.1434050  27.7011250
  25.3280200 130.8439800  28.0220320  26.0188400 131.3876060  26.7895070
  23.2736320 132.6435800  29.8010040  23.5989730 131.8099550  29.4612270
  24.0616650 133.1664320  29.9488370  20.0071110 126.6767280  15.8485100
  19.3825290 126.6727150  16.5738410  19.9201230 125.8098240  15.4521070
  18.9288190 127.6003910  22.8268870  19.2260520 128.5066740  22.7460890
  19.4773750 127.1122690  22.2128440  16.6826510 132.1790150  18.6960520
  16.4567430 131.9627320  19.6007140  15.9019040 132.6118610  18.3506490
  23.9124270 132.1853520  17.2951170  23.3133160 132.9089320  17.1114790
  24.4603880 132.1230300  16.5127620  19.1225720 133.0775730  29.3620790
  19.0269320 132.1370460  29.2121190  19.9657700 133.2990800  28.9668860
  22.5189140 130.8217060  19.3254450  22.9118710 131.1389260  18.5123140
  22.8805990 129.9428940  19.4398970  14.2536260 129.4889400  27.5154570
  13.8599650 130.3364610  27.7227350  13.5654660 128.8515770  27.7063210
  20.8281310 129.5724370  30.5851310  20.1379630 129.3796570  31.2197400
  21.5713610 129.8559010  31.1175610  11.5553310 127.4117860  21.5484650
  11.2666360 127.9820720  22.2609630  12.2999070 126.9322310  21.9115880
  11.7423540 131.3537980  12.7587370  11.6598210 132.2968740  12.9002360
  11.3906600 131.2112890  11.8799720  23.1044280 133.4122810  23.4205230
  22.3725400 133.9209620  23.7695330  22.7068620 132.5952790  23.1194010
  19.5421670 130.0877010  21.8257720  19.5457730 129.6466960  20.9762260
  20.4372790 130.4094340  21.9329540  15.3924050 129.9703500  20.7851930
  15.0524100 130.4478730  21.5418980  14.6301370 129.5168620  20.4253030
  19.6041820 131.0889090  14.8164480  19.7254640 131.0475570  15.7650300
  19.2190330 131.9513240  14.6611210  23.5670190 128.8656490  22.8328170
  23.5842930 129.3165140  23.6770020  23.3185770 127.9662130  23.0461610
  18.6163320 133.3990230  14.2147780  18.0480220 132.9508480  13.5883690
  19.3252320 133.7583010  13.6812930  26.9940940 126.2788670  28.6714550
  27.3186710 125.5478330  29.1972530  27.0297450 125.9602310  27.7695540
  13.6932500 137.3002250  28.0914510  13.3087290 136.6595920  28.6897470
  14.0044690 138.0038370  28.6609240  19.8429640 134.1478790  23.5723130
  20.2099770 133.6737360  24.3184470  19.6534700 135.0220360  23.9131470
  12.7070130 128.8922480  19.7016600  12.4217050 128.5278150  20.5395220
  12.6448990 128.1602940  19.0879740  17.6329010 133.1887430  25.8907340
  17.3286080 134.0679410  26.1157700  18.5875470 133.2487220  25.9264780
  16.1610800 137.3948420  16.4874190  15.3873060 136.8546040  16.3272910
  16.8905430 136.8755030  16.1491950  26.9198780 136.3913780  22.2800580
  27.6397900 136.8869070  21.8896690  26.7180600 135.7131670  21.6354450
  22.3808720 127.7851740  16.4229970  21.5673330 127.2864910  16.3475280
  22.1870670 128.6249990  16.0066320  22.3017580 136.4622840  28.1669580
  22.2354890 135.5418510  27.9127170  21.6722720 136.5598280  28.8814220
  25.0957110 132.1571390  14.7192130  25.9836730 132.4688620  14.5443470
  25.0662200 131.2843640  14.3272710  16.2048200 137.0628800  20.1253000
  16.7226870 136.2597060  20.0709890  15.7532220 137.0007940  20.9669830
  21.0917700 138.3295080  15.3980300  21.4333400 139.0737310  14.9023620
  20.2630410 138.6426200  15.7605130  13.6892740 134.0290170  27.0378700
  13.3307680 134.6944020  27.6252040  13.3947300 133.1973720  27.4091320
  16.8905860 134.4874410  29.9218250  16.5906000 134.6331590  29.0246070
  17.6617100 133.9279700  29.8291640  22.2334310 139.2843410  27.9173380
  22.2478850 138.3524370  27.6992290  21.5259410 139.3703170  28.5563150
  27.3671380 133.4683230  14.1871990  27.2835100 133.8997450  13.3368430
  28.0865570 133.9281580  14.6198810  28.4445520 135.9250750  27.2641960
  27.7193710 136.5179530  27.0671350  28.9720980 135.9174290  26.4655330
  28.3958630 140.3225490  16.9154120  27.7534790 139.6681110  17.1897840
  28.0089290 140.7280580  16.1394790  23.9745110 137.6510920  20.7625810
  24.3268930 137.0539050  20.1027180  23.0907440 137.3255150  20.9334060
  20.0608390 138.4108610  18.1696220  20.7479520 138.9577820  18.5503810
  19.2740810 138.9549340  18.2045830  12.2000790 134.0281430  13.6613300
  13.0695640 134.3106230  13.9449220  11.7091110 134.8417300  13.5462110
  19.3635600 135.4154640  17.7821580  19.8198380 136.2259890  18.0081770
  19.0123810 135.0977780  18.6140070  21.6668210 140.9260980  25.0113880
  22.3110430 141.1320360  25.6887300  22.0297650 140.1649380  24.5584730
  15.2647380 125.7592290  18.2544100  15.1362010 125.7510190  19.2029020
  14.4409400 126.0975380  17.9035110  22.9400290 138.9293330  23.7291330
  23.5822520 138.2286490  23.8423500  23.4649640 139.7091770  23.5488220
  26.7856010 139.2141950  13.4530470  26.5593590 138.4972390  14.0455110
  26.3952210 138.9654390  12.6152220  24.7137910 139.7288230  26.9327390
  25.0494150 140.3154920  27.6105310  23.7938250 139.5980940  27.1625180
  12.5672040 143.2408810  14.2274930  12.9269680 143.8398150  13.5732200
  12.4264380 143.7868700  15.0009960  12.2641310 127.5183410  27.7150800
  11.5499830 127.7180330  28.3203410  12.6836350 126.7422980  28.0865600
  26.3672260 137.1313890  15.1144630  26.0793960 137.5926580  15.9022510
  27.1624430 136.6711660  15.3828850  12.5513900 141.5063670  28.7017330
  12.6605020 140.5658410  28.5612720  11.8994460 141.7718420  28.0531060
  20.5426490 139.7779560  30.1015450  20.2223360 139.0588800  30.6461140
  19.8684850 140.4534630  30.1751510  18.5840660 140.6240010  15.0448600
  18.5750760 141.3569700  14.4293110  17.6639020 140.3771590  15.1375560
  14.1847300 135.8454900  15.7895360  13.5775250 136.5853800  15.7990660
  14.6596650 135.9354260  14.9633560  23.7580090 130.0105720  25.4652250
  24.1260910 129.1900930  25.7931820  22.8978290 130.0707610  25.8807900
  27.1242120 128.9662660  16.2739810  26.4955280 129.0708330  15.5598040
  26.6294040 129.1859440  17.0633690  21.5700260 140.6868250  13.7073790
  21.6712240 140.4832240  12.7775770  20.6702000 140.4326530  13.9121570
  19.0926150 131.2448610  17.6897690  18.3842300 131.7134950  18.1311300
  19.3770630 130.5870620  18.3242880  20.7182080 132.6645310  25.6890220
  21.2167330 133.1391130  26.3542070  20.8605030 131.7408830  25.8960250
  23.1241580 127.9699270  19.1293480  23.0009360 127.9885400  18.1802990
  24.0726140 128.0178210  19.2491880  20.2118370 143.2054570  18.4021460
  20.4659870 143.1675960  17.4800830  19.2630850 143.0787900  18.3949710
  17.2961170 129.5533690  15.0648400  18.1451700 129.9903840  14.9988590
  16.9292440 129.8653950  15.8920460  27.9248940 128.8813270  26.5318610
  27.4222540 129.6218670  26.8712420  28.7405600 129.2697270  26.2155400
  26.2170950 134.1246450  19.9779970  25.2761090 134.1396680  20.1527660
  26.5315020 133.3382410  20.4240270  16.1952590 135.8066050  13.5383930
  16.9615860 135.6947410  14.1009360  16.2727280 135.1104020  12.8860700
  14.8899350 133.2391120  14.2216820  14.9702940 132.2918630  14.3334220
  15.7819100 133.5698000  14.3277480  28.2196530 141.2955300  21.6534230
  28.3443950 142.1186470  22.1258040  29.0862090 141.0846030  21.3058380
  15.6914060 143.3886510  21.3251360  16.4276540 142.8401970  21.5959930
  16.0754980 144.2542520  21.1857350  12.5759540 139.4560080  17.1992870
  11.6499320 139.6981220  17.1898280  13.0415970 140.2834340  17.0777620
  14.6972340 142.5732580  30.5136940  15.4985070 142.8944630  30.9272340
  14.1824160 142.2128160  31.2356850  18.8016370 142.5616820  13.1476930
  19.5944980 142.8505650  12.6958720  18.2820720 142.1308990  12.4689410
  23.5336970 138.6812450  30.4612350  22.9275130 138.7044050  29.7208100
  23.2291080 137.9495490  30.9979600  24.9637340 142.4092740  29.0721760
  25.9159090 142.3250760  29.0222000  24.8165560 143.0734450  29.7455550
  27.8546540 141.7886950  14.5713670  27.5688050 141.3752090  13.7567850
  27.6566090 142.7174660  14.4514190  12.4170150 135.0606040  29.4572990
  12.9209170 134.4813320  30.0289220  11.6777570 135.3446270  29.9949360
  19.3193770 137.7820230  13.0119280  19.2144410 137.1672580  13.7380660
  19.1517990 137.2586120  12.2282290  19.4708090 136.4677030  28.9908510
  18.7053760 137.0362030  28.9063180  19.6524050 136.1753240  28.0976740
  22.5596500 136.8440260  13.6161270  22.0106600 137.2909560  14.2604010
  23.1815760 136.3389510  14.1398940  26.6131440 138.1982360  29.5483530
  27.3540910 138.5358120  29.0450990  25.8504120 138.3674420  28.9953300
  14.4493230 133.2035630  30.3523060  14.4898570 132.9049500  31.2608290
  15.3038730 133.6043240  30.1930580  18.2271620 135.8031180  15.5126570
  18.6488040 135.6371050  16.3557960  18.3522460 134.9931410  15.0181710
  16.3899040 131.7827730  28.3197550  15.8595500 131.2918680  27.6920890
  17.0587110 132.2111930  27.7855480  20.7399260 134.8268790  12.7603670
  21.2604920 134.1117810  12.3944820  21.3867660 135.4654660  13.0604180
  25.2877100 136.2497190  28.0838740  25.7018120 136.4042270  28.9329160
  24.3528100 136.3752410  28.2464520  25.7599270 133.5893350  30.0877890
  26.3420040 132.8345670  29.9998370  25.9361040 134.1200790  29.3109370
  16.8771340 128.7490100  28.3994840  16.7828210 128.1310850  27.6745710
  16.2968730 129.4756390  28.1724750  19.6432780 127.3063340  25.4322230
  19.1950080 127.3287600  24.5867780  19.0097980 126.9082360  26.0292530
  20.0492330 136.2017670  26.0534670  20.4680440 137.0450400  25.8810910
  19.1300960 136.3389710  25.8241450  22.3856230 133.9333850  27.4372510
  22.5052440 133.3374990  28.1767350  23.2450230 133.9703540  27.0173810
  24.7244130 134.4871040  26.0135020  24.1979350 135.0113660  25.4100160
  25.0675470 135.1198430  26.6444750  17.1230520 131.8764410  12.4584730
  16.9219580 131.0131770  12.8198070  16.9522570 131.7897770  11.5206330
  17.8999750 142.5070680  27.1692400  17.3620840 143.2316740  26.8501100
  18.1533710 142.0301020  26.3789740  19.1525000 130.4755200  28.6948330
  19.7424690 130.1671050  29.3826150  18.3345240 130.0034950  28.8508230
  23.9718430 130.0921010  28.9281350  23.2833950 129.4302550  28.8631340
  24.6924450 129.6459280  29.3729810  24.6018830 126.6872640  14.9871610
  24.8821120 125.8440540  15.3431030  23.8284560 126.9195750  15.5010360
  15.9213320 128.9765030  12.4462610  16.2239220 128.9832460  11.5381760
  16.6607910 128.6262890  12.9430270  20.7561960 143.7421890  27.4279050
  20.6820660 144.6457030  27.7351420  19.8540800 143.4233790  27.4001120
  19.1398250 127.9199650  13.4318810  18.7920250 127.2423640  12.8521260
  19.3411020 127.4589160  14.2462200  21.3047290 142.9080400  15.0505410
  22.1998080 143.2465370  15.0724170  21.3364920 142.1859810  14.4229690
  14.9443450 138.2807450  13.2792410  15.3818320 138.8237120  13.9349990
  15.4291180 137.4554400  13.2888750  12.1589250 141.0696480  20.7312670
  12.4892260 140.2017540  20.4991310  12.5880250 141.2755000  21.5617630
  16.7551170 139.4005490  18.3914640  16.4546710 139.2770460  19.2918550
  16.6488660 138.5414080  17.9830370  12.6479460 141.9367070  23.4694300
  12.2110450 142.1167870  24.3018450  13.2157140 142.6941690  23.3276020
  28.2841640 141.4384070  27.7571610  27.6843630 141.4976630  27.0135530
  28.4135540 140.4989050  27.8868460  29.5243090 139.1801890  13.0941320
  28.6936050 139.2478540  13.5648550  29.7014920 140.0706010  12.7908180
  28.9799550 135.9249370  15.5975520  29.7418460 136.4946020  15.7035210
  28.9953920 135.3576570  16.3683830  12.4803890 134.4487300  19.8283180
  11.8252730 134.1798940  19.1842880  13.3181840 134.3391780  19.3785160
  29.9859520 136.7799470  20.4417450  30.3568350 135.9966790  20.0353420
  30.6261450 137.4688570  20.2634750  26.9693280 138.1636050  25.8547770
  26.1553120 138.5933210  26.1173560  27.3767480 138.7754460  25.2416820
  29.0318720 136.2183740  12.7548040  29.3067560 137.1262620  12.6267260
  28.8429460 136.1546270  13.6910030  25.4294330 129.2428590  14.0501670
  25.8479210 129.0559570  13.2098330  25.1230390 128.3907640  14.3604600
  28.9284060 134.1552730  17.7477470  28.5527660 133.3880660  17.3158760
  28.1987180 134.5375430  18.2352400  13.5179820 134.8339870  24.3686520
  13.8852860 134.7467270  25.2482540  12.9490640 134.0706420  24.2693380
  28.3183680 133.3024250  27.3816990  28.0869770 133.0737000  26.4814940
  28.5788230 134.2223800  27.3361880  13.0695820 131.7448960  28.2744940
  12.1751870 131.7115720  28.6138650  13.6093370 131.9435750  29.0396190
  26.7571750 128.5280680  30.1596690  27.6341930 128.5364080  30.5430690
  26.7692590 127.7911520  29.5489040  11.6941970 131.6586230  15.7708510
  10.7906050 131.9216430  15.5960170  12.1782590 131.9297400  14.9908470
  28.2035020 132.3810220  21.0484710  28.7272500 131.8872870  20.4174880
  28.7894440 132.5160580  21.7932280  28.3824740 132.4650090  24.5704260
  27.4327450 132.4313630  24.6849250  28.5637750 133.3750200  24.3354030
  14.2369180 130.7151770  13.6802890  14.9460880 130.2934990  13.1950170
  13.5209120 130.7827000  13.0486240  13.8843340 126.7691100  12.7205540
  14.6071470 127.3100040  13.0386760  14.1567860 126.4954520  11.8447080
  27.6934990 131.6383570  16.9877120  28.1894110 131.4054440  17.7726000
  27.4951060 130.7995410  16.5714760  13.5735530 126.0197290  22.6228160
  14.2211720 125.4694670  22.1823320  13.9937370 126.2740440  23.4443970
  29.1222150 130.2744520  19.5214800  29.0121430 130.1200560  20.4597070
  29.8829740 129.7465460  19.2790210  27.4687870 126.2138650  25.9797800
  28.1060090 126.8272790  26.3456990  27.6162760 126.2499310  25.0347030
  30.0112420 128.1052440  12.7620940  30.9361730 127.9733620  12.5539230
  29.9888210 128.1845260  13.7157390  30.0850910 128.8763100  15.3877650
  29.2902410 128.8108220  15.9170560  30.2894190 129.8113740  15.3763000
  27.0269330 142.9154650  19.3816040  27.6228400 142.5939220  18.7050460
  27.2847480 142.4426470  20.1729310  13.3267530 126.1752960  25.3653480
  12.9782350 126.6316780  26.1311660  12.9955230 125.2810090  25.4475910
  14.9331900 139.3472560  29.5306670  14.8901530 138.9765470  30.4121130
  15.0642910 140.2850130  29.6708490  18.6337930 140.9032150  25.1316390
  18.3929290 141.1706710  24.2446910  19.5740570 141.0737880  25.1867250
  20.8392350 127.3664840  28.8872900  20.7781240 127.9586670  29.6368310
  21.7792730 127.2590800  28.7423160  23.4766910 127.0234900  28.5265190
  24.0907320 127.3414190  27.8646270  24.0216470 126.5383490  29.1461050
  29.8942090 142.9226530  25.9327030  29.4000370 143.3195400  25.2154160
  29.2855380 142.2975740  26.3264310  13.9988170 125.7029160  28.6404250
  14.5471160 125.5217210  27.8770360  14.0643480 124.9123270  29.1760560
  14.7719930 142.2934810  26.6504450  14.1780250 142.1619510  27.3894490
  14.7643770 141.4572950  26.1846550  24.2174950 125.5867040  24.8534480
  23.3434790 125.9202150  24.6507410  24.1085700 125.1140220  25.6786350
  25.1246930 127.7937910  26.2376200  24.7960290 126.9789670  25.8577930
  26.0729230 127.7507720  26.1141890  27.5781540 143.5649950  23.2113770
  27.1184510 144.3165760  22.8371790  26.9494000 142.8456420  23.1528570
  14.4032160 139.6593190  25.6012490  13.6766220 139.0398480  25.5338440
  14.4641310 140.0533800  24.7310570  18.0077260 141.8738190  22.3861900
  18.5242280 141.2625550  21.8610160  18.6574640 142.3766970  22.8772910
  20.7472760 142.7646680  23.2130880  21.0350570 142.5100980  22.3363890
  21.2595980 142.2124040  23.8036450  21.9649770 126.5036880  23.7927390
  21.1821560 126.9782380  24.0724150  21.6712700 125.5991710  23.6840570
  26.5170840 127.2059980  21.8376480  26.9578930 127.1505080  20.9898080
  26.2478430 128.1217990  21.9086660  28.3809410 126.8375220  19.8485300
  28.3197810 125.8936440  19.7016320  29.1601440 126.9455310  20.3938760
  12.6862160 142.9767580  18.8109250  12.5184200 142.3438260  19.5091140
  11.8196670 143.1826980  18.4603440  13.3090180 126.8084360  16.3141110
  14.0669540 126.9213240  15.7405140  12.8467350 127.6453560  16.2684540
  19.8503990 128.9223630  19.3043420  19.0378500 128.5480520  18.9639300
  20.3545630 128.1668710  19.6064610  24.3528970 125.5866080  20.5426490
  24.9558340 126.1586290  21.0175010  23.6121960 126.1505520  20.3200390
  27.4963570 125.9887640  15.8166770  27.6914200 126.8871090  16.0834200
  26.7093440 125.7574720  16.3099720  14.2924860 141.6700810  16.2559390
  13.7672480 142.0508840  15.5521350  14.2169440 142.2951580  16.9769100
  15.6815330 127.3348410  14.8543080  16.2108090 126.5478210  14.7251030
  16.3143650 128.0139600  15.0878610  17.8753170 127.0723550  17.9088470
  17.2455910 126.3710860  18.0758600  17.3358310 127.8327680  17.6921630
  20.8145120 143.6862780  30.5799080  21.7412430 143.4507050  30.6235040
  20.7995550 144.5134780  30.0985110  29.0490180 143.2288350  17.5773330
  29.2242370 142.5426090  16.9334250  28.3511750 143.7535400  17.1850000
  18.0008730 126.3507530  30.3440960  17.7193000 126.8541130  29.5801780
  18.3828430 125.5529280  29.9783090  16.8917830 143.6183190  15.1308640
  17.6236650 143.3342470  14.5832530  17.1511500 143.3796470  16.0208020
  16.0532620 139.7347920  15.1354970  15.4241500 140.2033020  15.6840800
  16.1680450 138.8897140  15.5701160  24.6024190 125.7661110  30.9221430
  24.4889640 126.0855720  31.8172950  25.4193930 126.1673620  30.6258710
  27.3822680 142.9132640  30.4040120  28.1748000 142.4181870  30.1966080
  27.6755830 143.5922780  31.0115730  21.6400380 135.5632600   3.1665440
  20.8642480 135.0833040   3.4564010  22.2913310 134.8838250   2.9921600
  15.6566210 135.8752410   4.0441200  14.8251090 135.6201120   4.4437710
  16.2647190 135.9463180   4.7799120  25.6607810 139.9692790   1.9464570
  25.1989340 139.1980030   2.2751740  26.4733360 139.9958860   2.4517020
  15.6367470 139.9092500   4.2399220  15.9395510 139.0190240   4.0609440
  16.3811060 140.4662720   4.0121470  12.0291170 133.4359950   3.7123290
  12.6007280 132.6682150   3.7126930  12.0292710 133.7348710   2.8029900
  21.0809370 138.2389790   3.1735600  21.0117650 137.2979730   3.0124730
  21.8429230 138.3291200   3.7458170  13.2716040 128.8444310   5.4992220
  13.0918880 127.9470060   5.7794980  12.8696120 129.3916180   6.1739170
  22.1114540 131.0460170   3.4004530  22.4879360 130.1732050   3.2878200
  22.0134050 131.3818870   2.5094970  13.8902710 131.3404810   4.1074560
  14.5712820 131.6043180   4.7261960  13.5750760 130.5005680   4.4412570
  18.0827280 132.3872170   3.1947150  18.5905500 132.8853140   3.8352170
  18.6140520 131.6107370   3.0186510  30.1838210 130.5577360   6.8976500
  29.4790380 130.9459070   6.3791610  30.4496130 131.2527650   7.4997430
  16.3663380 127.0270730   7.4610570  16.3681820 127.5443120   6.6556470
  15.5367690 126.5500910   7.4380500  17.6166230 136.6665910   5.6384070
  17.2835610 137.2934830   6.2805140  17.7932910 137.1927790   4.8585740
  26.1300140 130.4810990   3.1060410  25.4255710 130.7695880   3.6863520
  26.4912300 131.2911100   2.7459970  16.0478710 128.7380690   5.4681020
  16.3895520 129.5822740   5.1734890  15.1094520 128.8864430   5.5846360
  16.8285330 138.6346710   7.4533250  17.4459330 139.3097790   7.1717700
  15.9678450 139.0434690   7.3620750  27.7462920 140.0986120   5.3687890
  27.0626440 140.7685230   5.3604560  28.2857210 140.2966770   4.6032750
  29.1987060 129.9265780   3.4969620  28.2511970 129.9604760   3.6285050
  29.5237050 130.7404730   3.8818980  25.2821660 141.9430250   4.0833070
  25.2948820 141.5392540   3.2155330  24.7296880 142.7177540   3.9794500
  24.6807100 136.8460090   5.4115680  25.0975890 136.6320200   4.5769140
  25.4046920 137.1032880   5.9824300  28.6269200 135.2447310   5.5031920
  27.7987830 135.3140400   5.0282050  29.2219680 135.8301620   5.0347750
  25.5911210 132.0316630   6.4486790  25.1782390 132.8570340   6.7026780
  24.8587160 131.4461670   6.2563150  18.1925700 138.5044090   3.4744670
  17.8953990 137.8989560   2.7952450  19.1425520 138.5421400   3.3634030
  16.4372620 131.5919740   5.0904500  16.9887210 131.7015080   4.3157750
  16.9516130 131.9657340   5.8059730  26.2811310 142.0775960   7.1367770
  25.8041870 142.8848150   6.9440380  25.5973100 141.4254290   7.2893980
  17.2844130 138.2425780  10.1252470  16.3872660 138.4665750  10.3725870
  17.3097000 138.3660720   9.1763870  16.1115350 135.1139100   8.7009840
  15.9723120 135.9861900   9.0697240  15.2296710 134.7711910   8.5557780
  17.9095700 141.0560800  10.9094990  17.8811130 141.4603750  10.0423420
  17.7460670 140.1271160  10.7466590  29.8610520 141.8387900  12.2059160
  30.3370240 142.3170790  12.8848240  30.4817680 141.7705390  11.4804660
  12.0634000 136.8836650   4.6180750  12.1414420 137.0185420   3.6736470
  12.6775680 136.1752540   4.8108870  29.2643770 139.0300750   9.3659170
  29.3906830 138.7912630   8.4476350  29.3065150 138.1985290   9.8381250
  23.1260510 142.7328750   7.9353980  23.6405180 142.6436760   8.7376410
  22.2829590 143.0788450   8.2281890  29.1167780 131.0833210  10.3308910
  28.5012050 131.5912880   9.8024370  28.7964200 130.1831540  10.2734850
  12.1193520 137.9250820   7.1575210  12.2824560 137.4556180   6.3394580
  12.5845970 137.4174380   7.8224050  16.8912290 127.0556580   2.1935780
  16.4480440 127.8366120   1.8620300  17.4497280 127.3786470   2.9006720
  21.1782100 129.9225100   7.7971100  20.7161470 130.1308120   8.6091040
  20.7760210 129.1084450   7.4941770  26.1786610 131.1434050   8.9267760
  25.3280200 130.8439800   9.2476830  26.0188400 131.3876060   8.0151580
  23.2736320 132.6435800  11.0266550  23.5989730 131.8099550  10.6868780
  24.0616650 133.1664320  11.1744880  18.9288190 127.6003910   4.0525380
  19.2260520 128.5066740   3.9717400  19.4773750 127.1122690   3.4384950
  19.1225720 133.0775730  10.5877300  19.0269320 132.1370460  10.4377700
  19.9657700 133.2990800  10.1925370  14.2536260 129.4889400   8.7411080
  13.8599650 130.3364610   8.9483860  13.5654660 128.8515770   8.9319720
  20.8281310 129.5724370  11.8107820  20.1379630 129.3796570  12.4453910
  21.5713610 129.8559010  12.3432120  11.5553310 127.4117860   2.7741160
  11.2666360 127.9820720   3.4866140  12.2999070 126.9322310   3.1372390
  23.1044280 133.4122810   4.6461740  22.3725400 133.9209620   4.9951840
  22.7068620 132.5952790   4.3450520  19.5421670 130.0877010   3.0514230
  19.5457730 129.6466960   2.2018770  20.4372790 130.4094340   3.1586050
  15.3924050 129.9703500   2.0108440  15.0524100 130.4478730   2.7675490
  14.6301370 129.5168620   1.6509540  23.5670190 128.8656490   4.0584680
  23.5842930 129.3165140   4.9026530  23.3185770 127.9662130   4.2718120
  26.9940940 126.2788670   9.8971060  27.3186710 125.5478330  10.4229040
  27.0297450 125.9602310   8.9952050  13.6932500 137.3002250   9.3171020
  13.3087290 136.6595920   9.9153980  14.0044690 138.0038370   9.8865750
  19.8429640 134.1478790   4.7979640  20.2099770 133.6737360   5.5440980
  19.6534700 135.0220360   5.1387980  17.6329010 133.1887430   7.1163850
  17.3286080 134.0679410   7.3414210  18.5875470 133.2487220   7.1521290
  26.9198780 136.3913780   3.5057090  27.6397900 136.8869070   3.1153200
  26.7180600 135.7131670   2.8610960  22.3017580 136.4622840   9.3926090
  22.2354890 135.5418510   9.1383680  21.6722720 136.5598280  10.1070730
  13.6892740 134.0290170   8.2635210  13.3307680 134.6944020   8.8508550
  13.3947300 133.1973720   8.6347830  16.8905860 134.4874410  11.1474760
  16.5906000 134.6331590  10.2502580  17.6617100 133.9279700  11.0548150
  22.2334310 139.2843410   9.1429890  22.2478850 138.3524370   8.9248800
  21.5259410 139.3703170   9.7819660  28.4445520 135.9250750   8.4898470
  27.7193710 136.5179530   8.2927860  28.9720980 135.9174290   7.6911840
  21.6668210 140.9260980   6.2370390  22.3110430 141.1320360   6.9143810
  22.0297650 140.1649380   5.7841240  22.9400290 138.9293330   4.9547840
  23.5822520 138.2286490   5.0680010  23.4649640 139.7091770   4.7744730
  24.7137910 139.7288230   8.1583900  25.0494150 140.3154920   8.8361820
  23.7938250 139.5980940   8.3881690  12.2641310 127.5183410   8.9407310
  11.5499830 127.7180330   9.5459920  12.6836350 126.7422980   9.3122110
  12.5513900 141.5063670   9.9273840  12.6605020 140.5658410   9.7869230
  11.8994460 141.7718420   9.2787570  20.5426490 139.7779560  11.3271960
  20.2223360 139.0588800  11.8717650  19.8684850 140.4534630  11.4008020
  23.7580090 130.0105720   6.6908760  24.1260910 129.1900930   7.0188330
  22.8978290 130.0707610   7.1064410  20.7182080 132.6645310   6.9146730
  21.2167330 133.1391130   7.5798580  20.8605030 131.7408830   7.1216760
  27.9248940 128.8813270   7.7575120  27.4222540 129.6218670   8.0968930
  28.7405600 129.2697270   7.4411910  28.2196530 141.2955300   2.8790740
  28.3443950 142.1186470   3.3514550  29.0862090 141.0846030   2.5314890
  15.6914060 143.3886510   2.5507870  16.4276540 142.8401970   2.8216440
  16.0754980 144.2542520   2.4113860  14.6972340 142.5732580  11.7393450
  15.4985070 142.8944630  12.1528850  14.1824160 142.2128160  12.4613360
  23.5336970 138.6812450  11.6868860  22.9275130 138.7044050  10.9464610
  23.2291080 137.9495490  12.2236110  24.9637340 142.4092740  10.2978270
  25.9159090 142.3250760  10.2478510  24.8165560 143.0734450  10.9712060
  12.4170150 135.0606040  10.6829500  12.9209170 134.4813320  11.2545730
  11.6777570 135.3446270  11.2205870  19.4708090 136.4677030  10.2165020
  18.7053760 137.0362030  10.1319690  19.6524050 136.1753240   9.3233250
  26.6131440 138.1982360  10.7740040  27.3540910 138.5358120  10.2707500
  25.8504120 138.3674420  10.2209810  14.4493230 133.2035630  11.5779570
  14.4898570 132.9049500  12.4864800  15.3038730 133.6043240  11.4187090
  16.3899040 131.7827730   9.5454060  15.8595500 131.2918680   8.9177400
  17.0587110 132.2111930   9.0111990  25.2877100 136.2497190   9.3095250
  25.7018120 136.4042270  10.1585670  24.3528100 136.3752410   9.4721030
  25.7599270 133.5893350  11.3134400  26.3420040 132.8345670  11.2254880
  25.9361040 134.1200790  10.5365880  16.8771340 128.7490100   9.6251350
  16.7828210 128.1310850   8.9002220  16.2968730 129.4756390   9.3981260
  19.6432780 127.3063340   6.6578740  19.1950080 127.3287600   5.8124290
  19.0097980 126.9082360   7.2549040  20.0492330 136.2017670   7.2791180
  20.4680440 137.0450400   7.1067420  19.1300960 136.3389710   7.0497960
  22.3856230 133.9333850   8.6629020  22.5052440 133.3374990   9.4023860
  23.2450230 133.9703540   8.2430320  24.7244130 134.4871040   7.2391530
  24.1979350 135.0113660   6.6356670  25.0675470 135.1198430   7.8701260
  17.8999750 142.5070680   8.3948910  17.3620840 143.2316740   8.0757610
  18.1533710 142.0301020   7.6046250  19.1525000 130.4755200   9.9204840
  19.7424690 130.1671050  10.6082660  18.3345240 130.0034950  10.0764740
  23.9718430 130.0921010  10.1537860  23.2833950 129.4302550  10.0887850
  24.6924450 129.6459280  10.5986320  20.7561960 143.7421890   8.6535560
  20.6820660 144.6457030   8.9607930  19.8540800 143.4233790   8.6257630
  12.1589250 141.0696480   1.9569180  12.4892260 140.2017540   1.7247820
  12.5880250 141.2755000   2.7874140  12.6479460 141.9367070   4.6950810
  12.2110450 142.1167870   5.5274960  13.2157140 142.6941690   4.5532530
  28.2841640 141.4384070   8.9828120  27.6843630 141.4976630   8.2392040
  28.4135540 140.4989050   9.1124970  26.9693280 138.1636050   7.0804280
  26.1553120 138.5933210   7.3430070  27.3767480 138.7754460   6.4673330
  13.5179820 134.8339870   5.5943030  13.8852860 134.7467270   6.4739050
  12.9490640 134.0706420   5.4949890  28.3183680 133.3024250   8.6073500
  28.0869770 133.0737000   7.7071450  28.5788230 134.2223800   8.5618390
  13.0695820 131.7448960   9.5001450  12.1751870 131.7115720   9.8395160
  13.6093370 131.9435750  10.2652700  26.7571750 128.5280680  11.3853200
  27.6341930 128.5364080  11.7687200  26.7692590 127.7911520  10.7745550
  28.2035020 132.3810220   2.2741220  28.7272500 131.8872870   1.6431390
  28.7894440 132.5160580   3.0188790  28.3824740 132.4650090   5.7960770
  27.4327450 132.4313630   5.9105760  28.5637750 133.3750200   5.5610540
  13.5735530 126.0197290   3.8484670  14.2211720 125.4694670   3.4079830
  13.9937370 126.2740440   4.6700480  27.4687870 126.2138650   7.2054310
  28.1060090 126.8272790   7.5713500  27.6162760 126.2499310   6.2603540
  13.3267530 126.1752960   6.5909990  12.9782350 126.6316780   7.3568170
  12.9955230 125.2810090   6.6732420  14.9331900 139.3472560  10.7563180
  14.8901530 138.9765470  11.6377640  15.0642910 140.2850130  10.8965000
  18.6337930 140.9032150   6.3572900  18.3929290 141.1706710   5.4703420
  19.5740570 141.0737880   6.4123760  20.8392350 127.3664840  10.1129410
  20.7781240 127.9586670  10.8624820  21.7792730 127.2590800   9.9679670
  23.4766910 127.0234900   9.7521700  24.0907320 127.3414190   9.0902780
  24.0216470 126.5383490  10.3717560  29.8942090 142.9226530   7.1583540
  29.4000370 143.3195400   6.4410670  29.2855380 142.2975740   7.5520820
  13.9988170 125.7029160   9.8660760  14.5471160 125.5217210   9.1026870
  14.0643480 124.9123270  10.4017070  14.7719930 142.2934810   7.8760960
  14.1780250 142.1619510   8.6151000  14.7643770 141.4572950   7.4103060
  24.2174950 125.5867040   6.0790990  23.3434790 125.9202150   5.8763920
  24.1085700 125.1140220   6.9042860  25.1246930 127.7937910   7.4632710
  24.7960290 126.9789670   7.0834440  26.0729230 127.7507720   7.3398400
  27.5781540 143.5649950   4.4370280  27.1184510 144.3165760   4.0628300
  26.9494000 142.8456420   4.3785080  14.4032160 139.6593190   6.8269000
  13.6766220 139.0398480   6.7594950  14.4641310 140.0533800   5.9567080
  18.0077260 141.8738190   3.6118410  18.5242280 141.2625550   3.0866670
  18.6574640 142.3766970   4.1029420  20.7472760 142.7646680   4.4387390
  21.0350570 142.5100980   3.5620400  21.2595980 142.2124040   5.0292960
  21.9649770 126.5036880   5.0183900  21.1821560 126.9782380   5.2980660
  21.6712700 125.5991710   4.9097080  26.5170840 127.2059980   3.0632990
  26.9578930 127.1505080   2.2154590  26.2478430 128.1217990   3.1343170
  24.3528970 125.5866080   1.7683000  24.9558340 126.1586290   2.2431520
  23.6121960 126.1505520   1.5456900  20.8145120 143.6862780  11.8055590
  21.7412430 143.4507050  11.8491550  20.7995550 144.5134780  11.3241620
  18.0008730 126.3507530  11.5697470  17.7193000 126.8541130  10.8058290
  18.3828430 125.5529280  11.2039600  24.6024190 125.7661110  12.1477940
  24.4889640 126.0855720  13.0429460  25.4193930 126.1673620  11.8515220
  27.3822680 142.9132640  11.6296630  28.1748000 142.4181870  11.4222590
  27.6755830 143.5922780  12.2372240  23.5082340 115.0110090 151.4804090
  23.4276390 114.0964700 151.2095800  23.0946760 115.5077160 150.7743800
  21.6400380 116.7889110 153.3613360  20.8642480 116.3089550 153.6511930
  22.2913310 116.1094760 153.1869520  25.6607810 121.1949300 152.1412490
  25.1989340 120.4236540 152.4699660  26.4733360 121.2215370 152.6464940
  15.6367470 121.1349010 154.4347140  15.9395510 120.2446750 154.2557360
  16.3811060 121.6919230 154.2069390  14.0658160 112.0610810 148.0231510
  13.1774860 112.4026780 147.9211390  14.3499350 111.8611130 147.1312340
  12.0291170 114.6616460 153.9071210  12.6007280 113.8938660 153.9074850
  12.0292710 114.9605220 152.9977820  21.8871120 123.4807310 151.7616480
  21.2682560 123.9364810 151.1910920  22.7422900 123.6358770 151.3606180
  21.0809370 119.4646300 153.3683520  21.0117650 118.5236240 153.2072650
  21.8429230 119.5547710 153.9406090  22.1114540 112.2716680 153.5952450
  22.4879360 111.3988560 153.4826120  22.0134050 112.6075380 152.7042890
  16.2419550 110.6442310 149.0569890  16.3486300 111.5446040 149.3638650
  15.3311910 110.5960280 148.7664540  25.8938660 109.7667120 150.5280790
  26.7148280 109.2763690 150.5706270  25.9272740 110.3564780 151.2812630
  18.0827280 113.6128680 153.3895070  18.5905500 114.1109650 154.0300090
  18.6140520 112.8363880 153.2134430  22.7534470 118.3646550 149.1548390
  22.1351740 118.8296000 148.5911110  23.2657720 119.0574030 149.5717900
  26.1300140 111.7067500 153.3008330  25.4255710 111.9952390 153.8811440
  26.4912300 112.5167610 152.9407890  12.1217670 119.0503080 146.5288020
  11.7445650 119.5390180 145.7972920  12.3790740 119.7228360 147.1594550
  29.1987060 111.1522290 153.6917540  28.2511970 111.1861270 153.8232970
  29.5237050 111.9661240 154.0766900  19.7306600 107.4519470 151.9873530
  20.0381580 106.8966360 151.2709030  18.8007300 107.5863930 151.8046520
  25.2821660 123.1686760 154.2780990  25.2948820 122.7649050 153.4103250
  24.7296880 123.9434050 154.1742420  26.5767080 119.8902980 149.3671160
  26.4663410 118.9477310 149.4920580  26.5735330 120.2518620 150.2533920
  22.1187360 115.5168300 148.7233650  21.1916640 115.4505680 148.9522120
  22.2712180 116.4548430 148.6088890  22.1056440 111.7885300 145.7200810
  21.1660110 111.9499260 145.8053270  22.4239700 112.5070980 145.1736800
  26.1484650 117.0788600 149.2268900  25.5297070 116.7408150 148.5795200
  26.1309100 116.4348360 149.9348090  17.7244000 116.0433040 151.5053380
  17.3201000 115.3310290 151.0099280  17.8107120 115.6986280 152.3941420
  18.1925700 119.7300600 153.6692590  17.8953990 119.1246070 152.9900370
  19.1425520 119.7677910 153.5581950  24.3249350 116.3175410 146.2341650
  24.7642630 115.4797840 146.0879470  25.0377770 116.9504810 146.3205790
  22.4344730 121.2571480 150.2022890  22.8740640 121.9995810 149.7878280
  22.3731620 121.4998050 151.1261850  27.9066490 107.5718220 144.5482690
  27.5939150 107.6645050 145.4481760  28.6678960 108.1499250 144.4980120
  14.4248630 114.9378020 149.0060030  14.3046230 115.6640110 148.3941300
  14.1149520 114.1680930 148.5287940  13.3081630 119.8093350 151.2234850
  12.9009710 119.9507940 150.3688450  14.1994640 119.5253510 151.0206060
  25.1014910 124.2440600 147.5585900  24.9416050 123.9543540 148.4567730
  24.9361620 123.4680730 147.0231130  17.5803290 124.0239130 149.3357520
  17.4045770 123.1074670 149.1225320  16.7259030 124.3826420 149.5755320
  24.8041040 121.7528160 146.1183900  24.1106200 121.7505450 145.4586180
  25.5463900 121.3287480 145.6878070  24.3690970 123.3790870 150.1932390
  24.8247920 122.5980250 150.5071010  24.7083490 124.0897690 150.7373570
  16.8912290 108.2813090 152.3883700  16.4480440 109.0622630 152.0568220
  17.4497280 108.6042980 153.0954640  20.0071110 107.9023790 147.2689530
  19.3825290 107.8983660 147.9942840  19.9201230 107.0354750 146.8725500
  18.9288190 108.8260420 154.2473300  19.2260520 109.7323250 154.1665320
  19.4773750 108.3379200 153.6332870  16.6826510 113.4046660 150.1164950
  16.4567430 113.1883830 151.0211570  15.9019040 113.8375120 149.7710920
  23.9124270 113.4110030 148.7155600  23.3133160 114.1345830 148.5319220
  24.4603880 113.3486810 147.9332050  22.5189140 112.0473570 150.7458880
  22.9118710 112.3645770 149.9327570  22.8805990 111.1685450 150.8603400
  11.5553310 108.6374370 152.9689080  11.2666360 109.2077230 153.6814060
  12.2999070 108.1578820 153.3320310  11.7423540 112.5794490 144.1791800
  11.6598210 113.5225250 144.3206790  11.3906600 112.4369400 143.3004150
  19.5421670 111.3133520 153.2462150  19.5457730 110.8723470 152.3966690
  20.4372790 111.6350850 153.3533970  15.3924050 111.1960010 152.2056360
  15.0524100 111.6735240 152.9623410  14.6301370 110.7425130 151.8457460
  19.6041820 112.3145600 146.2368910  19.7254640 112.2732080 147.1854730
  19.2190330 113.1769750 146.0815640  18.6163320 114.6246740 145.6352210
  18.0480220 114.1764990 145.0088120  19.3252320 114.9839520 145.1017360
  12.7070130 110.1178990 151.1221030  12.4217050 109.7534660 151.9599650
  12.6448990 109.3859450 150.5084170  16.1610800 118.6204930 147.9078620
  15.3873060 118.0802550 147.7477340  16.8905430 118.1011540 147.5696380
  26.9198780 117.6170290 153.7005010  27.6397900 118.1125580 153.3101120
  26.7180600 116.9388180 153.0558880  22.3808720 109.0108250 147.8434400
  21.5673330 108.5121420 147.7679710  22.1870670 109.8506500 147.4270750
  25.0957110 113.3827900 146.1396560  25.9836730 113.6945130 145.9647900
  25.0662200 112.5100150 145.7477140  16.2048200 118.2885310 151.5457430
  16.7226870 117.4853570 151.4914320  15.7532220 118.2264450 152.3874260
  21.0917700 119.5551590 146.8184730  21.4333400 120.2993820 146.3228050
  20.2630410 119.8682710 147.1809560  27.3671380 114.6939740 145.6076420
  27.2835100 115.1253960 144.7572860  28.0865570 115.1538090 146.0403240
  28.3958630 121.5482000 148.3358550  27.7534790 120.8937620 148.6102270
  28.0089290 121.9537090 147.5599220  23.9745110 118.8767430 152.1830240
  24.3268930 118.2795560 151.5231610  23.0907440 118.5511660 152.3538490
  20.0608390 119.6365120 149.5900650  20.7479520 120.1834330 149.9708240
  19.2740810 120.1805850 149.6250260  12.2000790 115.2537940 145.0817730
  13.0695640 115.5362740 145.3653650  11.7091110 116.0673810 144.9666540
  19.3635600 116.6411150 149.2026010  19.8198380 117.4516400 149.4286200
  19.0123810 116.3234290 150.0344500  15.2647380 106.9848800 149.6748530
  15.1362010 106.9766700 150.6233450  14.4409400 107.3231890 149.3239540
  26.7856010 120.4398460 144.8734900  26.5593590 119.7228900 145.4659540
  26.3952210 120.1910900 144.0356650  12.5672040 124.4665320 145.6479360
  12.9269680 125.0654660 144.9936630  12.4264380 125.0125210 146.4214390
  26.3672260 118.3570400 146.5349060  26.0793960 118.8183090 147.3226940
  27.1624430 117.8968170 146.8033280  18.5840660 121.8496520 146.4653030
  18.5750760 122.5826210 145.8497540  17.6639020 121.6028100 146.5579990
  14.1847300 117.0711410 147.2099790  13.5775250 117.8110310 147.2195090
  14.6596650 117.1610770 146.3837990  27.1242120 110.1919170 147.6944240
  26.4955280 110.2964840 146.9802470  26.6294040 110.4115950 148.4838120
  21.5700260 121.9124760 145.1278220  21.6712240 121.7088750 144.1980200
  20.6702000 121.6583040 145.3326000  19.0926150 112.4705120 149.1102120
  18.3842300 112.9391460 149.5515730  19.3770630 111.8127130 149.7447310
  23.1241580 109.1955780 150.5497910  23.0009360 109.2141910 149.6007420
  24.0726140 109.2434720 150.6696310  20.2118370 124.4311080 149.8225890
  20.4659870 124.3932470 148.9005260  19.2630850 124.3044410 149.8154140
  17.2961170 110.7790200 146.4852830  18.1451700 111.2160350 146.4193020
  16.9292440 111.0910460 147.3124890  26.2170950 115.3502960 151.3984400
  25.2761090 115.3653190 151.5732090  26.5315020 114.5638920 151.8444700
  16.1952590 117.0322560 144.9588360  16.9615860 116.9203920 145.5213790
  16.2727280 116.3360530 144.3065130  14.8899350 114.4647630 145.6421250
  14.9702940 113.5175140 145.7538650  15.7819100 114.7954510 145.7481910
  28.2196530 122.5211810 153.0738660  28.3443950 123.3442980 153.5462470
  29.0862090 122.3102540 152.7262810  15.6914060 124.6143020 152.7455790
  16.4276540 124.0658480 153.0164360  16.0754980 125.4799030 152.6061780
  12.5759540 120.6816590 148.6197300  11.6499320 120.9237730 148.6102710
  13.0415970 121.5090850 148.4982050  18.8016370 123.7873330 144.5681360
  19.5944980 124.0762160 144.1163150  18.2820720 123.3565500 143.8893840
  27.8546540 123.0143460 145.9918100  27.5688050 122.6008600 145.1772280
  27.6566090 123.9431170 145.8718620  19.3193770 119.0076740 144.4323710
  19.2144410 118.3929090 145.1585090  19.1517990 118.4842630 143.6486720
  22.5596500 118.0696770 145.0365700  22.0106600 118.5166070 145.6808440
  23.1815760 117.5646020 145.5603370  18.2271620 117.0287690 146.9331000
  18.6488040 116.8627560 147.7762390  18.3522460 116.2187920 146.4386140
  20.7399260 116.0525300 144.1808100  21.2604920 115.3374320 143.8149250
  21.3867660 116.6911170 144.4808610  17.1230520 113.1020920 143.8789160
  16.9219580 112.2388280 144.2402500  16.9522570 113.0154280 142.9410760
  24.6018830 107.9129150 146.4076040  24.8821120 107.0697050 146.7635460
  23.8284560 108.1452260 146.9214790  15.9213320 110.2021540 143.8667040
  16.2239220 110.2088970 142.9586190  16.6607910 109.8519400 144.3634700
  19.1398250 109.1456160 144.8523240  18.7920250 108.4680150 144.2725690
  19.3411020 108.6845670 145.6666630  21.3047290 124.1336910 146.4709840
  22.1998080 124.4721880 146.4928600  21.3364920 123.4116320 145.8434120
  14.9443450 119.5063960 144.6996840  15.3818320 120.0493630 145.3554420
  15.4291180 118.6810910 144.7093180  12.1589250 122.2952990 152.1517100
  12.4892260 121.4274050 151.9195740  12.5880250 122.5011510 152.9822060
  16.7551170 120.6262000 149.8119070  16.4546710 120.5026970 150.7122980
  16.6488660 119.7670590 149.4034800  29.5243090 120.4058400 144.5145750
  28.6936050 120.4735050 144.9852980  29.7014920 121.2962520 144.2112610
  28.9799550 117.1505880 147.0179950  29.7418460 117.7202530 147.1239640
  28.9953920 116.5833080 147.7888260  12.4803890 115.6743810 151.2487610
  11.8252730 115.4055450 150.6047310  13.3181840 115.5648290 150.7989590
  29.9859520 118.0055980 151.8621880  30.3568350 117.2223300 151.4557850
  30.6261450 118.6945080 151.6839180  29.0318720 117.4440250 144.1752470
  29.3067560 118.3519130 144.0471690  28.8429460 117.3802780 145.1114460
  25.4294330 110.4685100 145.4706100  25.8479210 110.2816080 144.6302760
  25.1230390 109.6164150 145.7809030  28.9284060 115.3809240 149.1681900
  28.5527660 114.6137170 148.7363190  28.1987180 115.7631940 149.6556830
  11.6941970 112.8842740 147.1912940  10.7906050 113.1472940 147.0164600
  12.1782590 113.1553910 146.4112900  28.2035020 113.6066730 152.4689140
  28.7272500 113.1129380 151.8379310  28.7894440 113.7417090 153.2136710
  14.2369180 111.9408280 145.1007320  14.9460880 111.5191500 144.6154600
  13.5209120 112.0083510 144.4690670  13.8843340 107.9947610 144.1409970
  14.6071470 108.5356550 144.4591190  14.1567860 107.7211030 143.2651510
  27.6934990 112.8640080 148.4081550  28.1894110 112.6310950 149.1930430
  27.4951060 112.0251920 147.9919190  29.1222150 111.5001030 150.9419230
  29.0121430 111.3457070 151.8801500  29.8829740 110.9721970 150.6994640
  30.0112420 109.3308950 144.1825370  30.9361730 109.1990130 143.9743660
  29.9888210 109.4101770 145.1361820  30.0850910 110.1019610 146.8082080
  29.2902410 110.0364730 147.3374990  30.2894190 111.0370250 146.7967430
  27.0269330 124.1411160 150.8020470  27.6228400 123.8195730 150.1254890
  27.2847480 123.6682980 151.5933740  18.0077260 123.0994700 153.8066330
  18.5242280 122.4882060 153.2814590  18.6574640 123.6023480 154.2977340
  26.5170840 108.4316490 153.2580910  26.9578930 108.3761590 152.4102510
  26.2478430 109.3474500 153.3291090  28.3809410 108.0631730 151.2689730
  28.3197810 107.1192950 151.1220750  29.1601440 108.1711820 151.8143190
  12.6862160 124.2024090 150.2313680  12.5184200 123.5694770 150.9295570
  11.8196670 124.4083490 149.8807870  13.3090180 108.0340870 147.7345540
  14.0669540 108.1469750 147.1609570  12.8467350 108.8710070 147.6888970
  19.8503990 110.1480140 150.7247850  19.0378500 109.7737030 150.3843730
  20.3545630 109.3925220 151.0269040  24.3528970 106.8122590 151.9630920
  24.9558340 107.3842800 152.4379440  23.6121960 107.3762030 151.7404820
  27.4963570 107.2144150 147.2371200  27.6914200 108.1127600 147.5038630
  26.7093440 106.9831230 147.7304150  14.2924860 122.8957320 147.6763820
  13.7672480 123.2765350 146.9725780  14.2169440 123.5208090 148.3973530
  15.6815330 108.5604920 146.2747510  16.2108090 107.7734720 146.1455460
  16.3143650 109.2396110 146.5083040  17.8753170 108.2980060 149.3292900
  17.2455910 107.5967370 149.4963030  17.3358310 109.0584190 149.1126060
  29.0490180 124.4544860 148.9977760  29.2242370 123.7682600 148.3538680
  28.3511750 124.9791910 148.6054430  16.8917830 124.8439700 146.5513070
  17.6236650 124.5598980 146.0036960  17.1511500 124.6052980 147.4412450
  16.0532620 120.9604430 146.5559400  15.4241500 121.4289530 147.1045230
  16.1680450 120.1153650 146.9905590  23.5082340 115.0110090 132.7060600
  23.4276390 114.0964700 132.4352310  23.0946760 115.5077160 132.0000310
  21.6400380 116.7889110 134.5869870  20.8642480 116.3089550 134.8768440
  22.2913310 116.1094760 134.4126030  15.6566210 117.1008920 135.4645630
  14.8251090 116.8457630 135.8642140  16.2647190 117.1719690 136.2003550
  25.6607810 121.1949300 133.3669000  25.1989340 120.4236540 133.6956170
  26.4733360 121.2215370 133.8721450  15.6367470 121.1349010 135.6603650
  15.9395510 120.2446750 135.4813870  16.3811060 121.6919230 135.4325900
  14.0658160 112.0610810 129.2488020  13.1774860 112.4026780 129.1467900
  14.3499350 111.8611130 128.3568850  12.0291170 114.6616460 135.1327720
  12.6007280 113.8938660 135.1331360  12.0292710 114.9605220 134.2234330
  21.8871120 123.4807310 132.9872990  21.2682560 123.9364810 132.4167430
  22.7422900 123.6358770 132.5862690  21.0809370 119.4646300 134.5940030
  21.0117650 118.5236240 134.4329160  21.8429230 119.5547710 135.1662600
  13.2716040 110.0700820 136.9196650  13.0918880 109.1726570 137.1999410
  12.8696120 110.6172690 137.5943600  22.1114540 112.2716680 134.8208960
  22.4879360 111.3988560 134.7082630  22.0134050 112.6075380 133.9299400
  16.2419550 110.6442310 130.2826400  16.3486300 111.5446040 130.5895160
  15.3311910 110.5960280 129.9921050  25.8938660 109.7667120 131.7537300
  26.7148280 109.2763690 131.7962780  25.9272740 110.3564780 132.5069140
  13.8902710 112.5661320 135.5278990  14.5712820 112.8299690 136.1466390
  13.5750760 111.7262190 135.8617000  18.0827280 113.6128680 134.6151580
  18.5905500 114.1109650 135.2556600  18.6140520 112.8363880 134.4390940
  30.1838210 111.7833870 138.3180930  29.4790380 112.1715580 137.7996040
  30.4496130 112.4784160 138.9201860  16.3663380 108.2527240 138.8815000
  16.3681820 108.7699630 138.0760900  15.5367690 107.7757420 138.8584930
  22.7534470 118.3646550 130.3804900  22.1351740 118.8296000 129.8167620
  23.2657720 119.0574030 130.7974410  17.6166230 117.8922420 137.0588500
  17.2835610 118.5191340 137.7009570  17.7932910 118.4184300 136.2790170
  26.1300140 111.7067500 134.5264840  25.4255710 111.9952390 135.1067950
  26.4912300 112.5167610 134.1664400  16.0478710 109.9637200 136.8885450
  16.3895520 110.8079250 136.5939320  15.1094520 110.1120940 137.0050790
  16.8285330 119.8603220 138.8737680  17.4459330 120.5354300 138.5922130
  15.9678450 120.2691200 138.7825180  12.1217670 119.0503080 127.7544530
  11.7445650 119.5390180 127.0229430  12.3790740 119.7228360 128.3851060
  27.7462920 121.3242630 136.7892320  27.0626440 121.9941740 136.7808990
  28.2857210 121.5223280 136.0237180  29.1987060 111.1522290 134.9174050
  28.2511970 111.1861270 135.0489480  29.5237050 111.9661240 135.3023410
  19.7306600 107.4519470 133.2130040  20.0381580 106.8966360 132.4965540
  18.8007300 107.5863930 133.0303030  25.2821660 123.1686760 135.5037500
  25.2948820 122.7649050 134.6359760  24.7296880 123.9434050 135.3998930
  26.5767080 119.8902980 130.5927670  26.4663410 118.9477310 130.7177090
  26.5735330 120.2518620 131.4790430  24.6807100 118.0716600 136.8320110
  25.0975890 117.8576710 135.9973570  25.4046920 118.3289390 137.4028730
  22.1187360 115.5168300 129.9490160  21.1916640 115.4505680 130.1778630
  22.2712180 116.4548430 129.8345400  22.1056440 111.7885300 126.9457320
  21.1660110 111.9499260 127.0309780  22.4239700 112.5070980 126.3993310
  28.6269200 116.4703820 136.9236350  27.7987830 116.5396910 136.4486480
  29.2219680 117.0558130 136.4552180  26.1484650 117.0788600 130.4525410
  25.5297070 116.7408150 129.8051710  26.1309100 116.4348360 131.1604600
  25.5911210 113.2573140 137.8691220  25.1782390 114.0826850 138.1231210
  24.8587160 112.6718180 137.6767580  17.7244000 116.0433040 132.7309890
  17.3201000 115.3310290 132.2355790  17.8107120 115.6986280 133.6197930
  18.1925700 119.7300600 134.8949100  17.8953990 119.1246070 134.2156880
  19.1425520 119.7677910 134.7838460  16.4372620 112.8176250 136.5108930
  16.9887210 112.9271590 135.7362180  16.9516130 113.1913850 137.2264160
  26.2811310 123.3032470 138.5572200  25.8041870 124.1104660 138.3644810
  25.5973100 122.6510800 138.7098410  17.2844130 119.4682290 141.5456900
  16.3872660 119.6922260 141.7930300  17.3097000 119.5917230 140.5968300
  24.3249350 116.3175410 127.4598160  24.7642630 115.4797840 127.3135980
  25.0377770 116.9504810 127.5462300  16.1115350 116.3395610 140.1214270
  15.9723120 117.2118410 140.4901670  15.2296710 115.9968420 139.9762210
  22.4344730 121.2571480 131.4279400  22.8740640 121.9995810 131.0134790
  22.3731620 121.4998050 132.3518360  17.9095700 122.2817310 142.3299420
  17.8811130 122.6860260 141.4627850  17.7460670 121.3527670 142.1671020
  27.9066490 107.5718220 125.7739200  27.5939150 107.6645050 126.6738270
  28.6678960 108.1499250 125.7236630  14.4248630 114.9378020 130.2316540
  14.3046230 115.6640110 129.6197810  14.1149520 114.1680930 129.7544450
  29.8610520 123.0644410 143.6263590  30.3370240 123.5427300 144.3052670
  30.4817680 122.9961900 142.9009090  12.0634000 118.1093160 136.0385180
  12.1414420 118.2441930 135.0940900  12.6775680 117.4009050 136.2313300
  13.3081630 119.8093350 132.4491360  12.9009710 119.9507940 131.5944960
  14.1994640 119.5253510 132.2462570  29.2643770 120.2557260 140.7863600
  29.3906830 120.0169140 139.8680780  29.3065150 119.4241800 141.2585680
  23.1260510 123.9585260 139.3558410  23.6405180 123.8693270 140.1580840
  22.2829590 124.3044960 139.6486320  25.1014910 124.2440600 128.7842410
  24.9416050 123.9543540 129.6824240  24.9361620 123.4680730 128.2487640
  17.5803290 124.0239130 130.5614030  17.4045770 123.1074670 130.3481830
  16.7259030 124.3826420 130.8011830  24.8041040 121.7528160 127.3440410
  24.1106200 121.7505450 126.6842690  25.5463900 121.3287480 126.9134580
  24.3690970 123.3790870 131.4188900  24.8247920 122.5980250 131.7327520
  24.7083490 124.0897690 131.9630080  29.1167780 112.3089720 141.7513340
  28.5012050 112.8169390 141.2228800  28.7964200 111.4088050 141.6939280
  12.1193520 119.1507330 138.5779640  12.2824560 118.6812690 137.7599010
  12.5845970 118.6430890 139.2428480  16.8912290 108.2813090 133.6140210
  16.4480440 109.0622630 133.2824730  17.4497280 108.6042980 134.3211150
  21.1782100 111.1481610 139.2175530  20.7161470 111.3564630 140.0295470
  20.7760210 110.3340960 138.9146200  26.1786610 112.3690560 140.3472190
  25.3280200 112.0696310 140.6681260  26.0188400 112.6132570 139.4356010
  23.2736320 113.8692310 142.4470980  23.5989730 113.0356060 142.1073210
  24.0616650 114.3920830 142.5949310  20.0071110 107.9023790 128.4946040
  19.3825290 107.8983660 129.2199350  19.9201230 107.0354750 128.0982010
  18.9288190 108.8260420 135.4729810  19.2260520 109.7323250 135.3921830
  19.4773750 108.3379200 134.8589380  16.6826510 113.4046660 131.3421460
  16.4567430 113.1883830 132.2468080  15.9019040 113.8375120 130.9967430
  23.9124270 113.4110030 129.9412110  23.3133160 114.1345830 129.7575730
  24.4603880 113.3486810 129.1588560  19.1225720 114.3032240 142.0081730
  19.0269320 113.3626970 141.8582130  19.9657700 114.5247310 141.6129800
  22.5189140 112.0473570 131.9715390  22.9118710 112.3645770 131.1584080
  22.8805990 111.1685450 132.0859910  14.2536260 110.7145910 140.1615510
  13.8599650 111.5621120 140.3688290  13.5654660 110.0772280 140.3524150
  20.8281310 110.7980880 143.2312250  20.1379630 110.6053080 143.8658340
  21.5713610 111.0815520 143.7636550  11.5553310 108.6374370 134.1945590
  11.2666360 109.2077230 134.9070570  12.2999070 108.1578820 134.5576820
  11.7423540 112.5794490 125.4048310  11.6598210 113.5225250 125.5463300
  11.3906600 112.4369400 124.5260660  23.1044280 114.6379320 136.0666170
  22.3725400 115.1466130 136.4156270  22.7068620 113.8209300 135.7654950
  19.5421670 111.3133520 134.4718660  19.5457730 110.8723470 133.6223200
  20.4372790 111.6350850 134.5790480  15.3924050 111.1960010 133.4312870
  15.0524100 111.6735240 134.1879920  14.6301370 110.7425130 133.0713970
  19.6041820 112.3145600 127.4625420  19.7254640 112.2732080 128.4111240
  19.2190330 113.1769750 127.3072150  23.5670190 110.0913000 135.4789110
  23.5842930 110.5421650 136.3230960  23.3185770 109.1918640 135.6922550
  18.6163320 114.6246740 126.8608720  18.0480220 114.1764990 126.2344630
  19.3252320 114.9839520 126.3273870  26.9940940 107.5045180 141.3175490
  27.3186710 106.7734840 141.8433470  27.0297450 107.1858820 140.4156480
  13.6932500 118.5258760 140.7375450  13.3087290 117.8852430 141.3358410
  14.0044690 119.2294880 141.3070180  19.8429640 115.3735300 136.2184070
  20.2099770 114.8993870 136.9645410  19.6534700 116.2476870 136.5592410
  12.7070130 110.1178990 132.3477540  12.4217050 109.7534660 133.1856160
  12.6448990 109.3859450 131.7340680  17.6329010 114.4143940 138.5368280
  17.3286080 115.2935920 138.7618640  18.5875470 114.4743730 138.5725720
  16.1610800 118.6204930 129.1335130  15.3873060 118.0802550 128.9733850
  16.8905430 118.1011540 128.7952890  26.9198780 117.6170290 134.9261520
  27.6397900 118.1125580 134.5357630  26.7180600 116.9388180 134.2815390
  22.3808720 109.0108250 129.0690910  21.5673330 108.5121420 128.9936220
  22.1870670 109.8506500 128.6527260  22.3017580 117.6879350 140.8130520
  22.2354890 116.7675020 140.5588110  21.6722720 117.7854790 141.5275160
  25.0957110 113.3827900 127.3653070  25.9836730 113.6945130 127.1904410
  25.0662200 112.5100150 126.9733650  16.2048200 118.2885310 132.7713940
  16.7226870 117.4853570 132.7170830  15.7532220 118.2264450 133.6130770
  21.0917700 119.5551590 128.0441240  21.4333400 120.2993820 127.5484560
  20.2630410 119.8682710 128.4066070  13.6892740 115.2546680 139.6839640
  13.3307680 115.9200530 140.2712980  13.3947300 114.4230230 140.0552260
  16.8905860 115.7130920 142.5679190  16.5906000 115.8588100 141.6707010
  17.6617100 115.1536210 142.4752580  22.2334310 120.5099920 140.5634320
  22.2478850 119.5780880 140.3453230  21.5259410 120.5959680 141.2024090
  27.3671380 114.6939740 126.8332930  27.2835100 115.1253960 125.9829370
  28.0865570 115.1538090 127.2659750  28.4445520 117.1507260 139.9102900
  27.7193710 117.7436040 139.7132290  28.9720980 117.1430800 139.1116270
  28.3958630 121.5482000 129.5615060  27.7534790 120.8937620 129.8358780
  28.0089290 121.9537090 128.7855730  23.9745110 118.8767430 133.4086750
  24.3268930 118.2795560 132.7488120  23.0907440 118.5511660 133.5795000
  20.0608390 119.6365120 130.8157160  20.7479520 120.1834330 131.1964750
  19.2740810 120.1805850 130.8506770  12.2000790 115.2537940 126.3074240
  13.0695640 115.5362740 126.5910160  11.7091110 116.0673810 126.1923050
  19.3635600 116.6411150 130.4282520  19.8198380 117.4516400 130.6542710
  19.0123810 116.3234290 131.2601010  21.6668210 122.1517490 137.6574820
  22.3110430 122.3576870 138.3348240  22.0297650 121.3905890 137.2045670
  15.2647380 106.9848800 130.9005040  15.1362010 106.9766700 131.8489960
  14.4409400 107.3231890 130.5496050  22.9400290 120.1549840 136.3752270
  23.5822520 119.4543000 136.4884440  23.4649640 120.9348280 136.1949160
  26.7856010 120.4398460 126.0991410  26.5593590 119.7228900 126.6916050
  26.3952210 120.1910900 125.2613160  24.7137910 120.9544740 139.5788330
  25.0494150 121.5411430 140.2566250  23.7938250 120.8237450 139.8086120
  12.5672040 124.4665320 126.8735870  12.9269680 125.0654660 126.2193140
  12.4264380 125.0125210 127.6470900  12.2641310 108.7439920 140.3611740
  11.5499830 108.9436840 140.9664350  12.6836350 107.9679490 140.7326540
  26.3672260 118.3570400 127.7605570  26.0793960 118.8183090 128.5483450
  27.1624430 117.8968170 128.0289790  12.5513900 122.7320180 141.3478270
  12.6605020 121.7914920 141.2073660  11.8994460 122.9974930 140.6992000
  20.5426490 121.0036070 142.7476390  20.2223360 120.2845310 143.2922080
  19.8684850 121.6791140 142.8212450  18.5840660 121.8496520 127.6909540
  18.5750760 122.5826210 127.0754050  17.6639020 121.6028100 127.7836500
  14.1847300 117.0711410 128.4356300  13.5775250 117.8110310 128.4451600
  14.6596650 117.1610770 127.6094500  23.7580090 111.2362230 138.1113190
  24.1260910 110.4157440 138.4392760  22.8978290 111.2964120 138.5268840
  27.1242120 110.1919170 128.9200750  26.4955280 110.2964840 128.2058980
  26.6294040 110.4115950 129.7094630  21.5700260 121.9124760 126.3534730
  21.6712240 121.7088750 125.4236710  20.6702000 121.6583040 126.5582510
  19.0926150 112.4705120 130.3358630  18.3842300 112.9391460 130.7772240
  19.3770630 111.8127130 130.9703820  20.7182080 113.8901820 138.3351160
  21.2167330 114.3647640 139.0003010  20.8605030 112.9665340 138.5421190
  23.1241580 109.1955780 131.7754420  23.0009360 109.2141910 130.8263930
  24.0726140 109.2434720 131.8952820  20.2118370 124.4311080 131.0482400
  20.4659870 124.3932470 130.1261770  19.2630850 124.3044410 131.0410650
  17.2961170 110.7790200 127.7109340  18.1451700 111.2160350 127.6449530
  16.9292440 111.0910460 128.5381400  27.9248940 110.1069780 139.1779550
  27.4222540 110.8475180 139.5173360  28.7405600 110.4953780 138.8616340
  26.2170950 115.3502960 132.6240910  25.2761090 115.3653190 132.7988600
  26.5315020 114.5638920 133.0701210  16.1952590 117.0322560 126.1844870
  16.9615860 116.9203920 126.7470300  16.2727280 116.3360530 125.5321640
  14.8899350 114.4647630 126.8677760  14.9702940 113.5175140 126.9795160
  15.7819100 114.7954510 126.9738420  28.2196530 122.5211810 134.2995170
  28.3443950 123.3442980 134.7718980  29.0862090 122.3102540 133.9519320
  15.6914060 124.6143020 133.9712300  16.4276540 124.0658480 134.2420870
  16.0754980 125.4799030 133.8318290  12.5759540 120.6816590 129.8453810
  11.6499320 120.9237730 129.8359220  13.0415970 121.5090850 129.7238560
  14.6972340 123.7989090 143.1597880  15.4985070 124.1201140 143.5733280
  14.1824160 123.4384670 143.8817790  18.8016370 123.7873330 125.7937870
  19.5944980 124.0762160 125.3419660  18.2820720 123.3565500 125.1150350
  23.5336970 119.9068960 143.1073290  22.9275130 119.9300560 142.3669040
  23.2291080 119.1752000 143.6440540  24.9637340 123.6349250 141.7182700
  25.9159090 123.5507270 141.6682940  24.8165560 124.2990960 142.3916490
  27.8546540 123.0143460 127.2174610  27.5688050 122.6008600 126.4028790
  27.6566090 123.9431170 127.0975130  12.4170150 116.2862550 142.1033930
  12.9209170 115.7069830 142.6750160  11.6777570 116.5702780 142.6410300
  19.3193770 119.0076740 125.6580220  19.2144410 118.3929090 126.3841600
  19.1517990 118.4842630 124.8743230  19.4708090 117.6933540 141.6369450
  18.7053760 118.2618540 141.5524120  19.6524050 117.4009750 140.7437680
  22.5596500 118.0696770 126.2622210  22.0106600 118.5166070 126.9064950
  23.1815760 117.5646020 126.7859880  26.6131440 119.4238870 142.1944470
  27.3540910 119.7614630 141.6911930  25.8504120 119.5930930 141.6414240
  14.4493230 114.4292140 142.9984000  14.4898570 114.1306010 143.9069230
  15.3038730 114.8299750 142.8391520  18.2271620 117.0287690 128.1587510
  18.6488040 116.8627560 129.0018900  18.3522460 116.2187920 127.6642650
  16.3899040 113.0084240 140.9658490  15.8595500 112.5175190 140.3381830
  17.0587110 113.4368440 140.4316420  20.7399260 116.0525300 125.4064610
  21.2604920 115.3374320 125.0405760  21.3867660 116.6911170 125.7065120
  25.2877100 117.4753700 140.7299680  25.7018120 117.6298780 141.5790100
  24.3528100 117.6008920 140.8925460  25.7599270 114.8149860 142.7338830
  26.3420040 114.0602180 142.6459310  25.9361040 115.3457300 141.9570310
  16.8771340 109.9746610 141.0455780  16.7828210 109.3567360 140.3206650
  16.2968730 110.7012900 140.8185690  19.6432780 108.5319850 138.0783170
  19.1950080 108.5544110 137.2328720  19.0097980 108.1338870 138.6753470
  20.0492330 117.4274180 138.6995610  20.4680440 118.2706910 138.5271850
  19.1300960 117.5646220 138.4702390  22.3856230 115.1590360 140.0833450
  22.5052440 114.5631500 140.8228290  23.2450230 115.1960050 139.6634750
  24.7244130 115.7127550 138.6595960  24.1979350 116.2370170 138.0561100
  25.0675470 116.3454940 139.2905690  17.1230520 113.1020920 125.1045670
  16.9219580 112.2388280 125.4659010  16.9522570 113.0154280 124.1667270
  17.8999750 123.7327190 139.8153340  17.3620840 124.4573250 139.4962040
  18.1533710 123.2557530 139.0250680  19.1525000 111.7011710 141.3409270
  19.7424690 111.3927560 142.0287090  18.3345240 111.2291460 141.4969170
  23.9718430 111.3177520 141.5742290  23.2833950 110.6559060 141.5092280
  24.6924450 110.8715790 142.0190750  24.6018830 107.9129150 127.6332550
  24.8821120 107.0697050 127.9891970  23.8284560 108.1452260 128.1471300
  15.9213320 110.2021540 125.0923550  16.2239220 110.2088970 124.1842700
  16.6607910 109.8519400 125.5891210  20.7561960 124.9678400 140.0739990
  20.6820660 125.8713540 140.3812360  19.8540800 124.6490300 140.0462060
  19.1398250 109.1456160 126.0779750  18.7920250 108.4680150 125.4982200
  19.3411020 108.6845670 126.8923140  21.3047290 124.1336910 127.6966350
  22.1998080 124.4721880 127.7185110  21.3364920 123.4116320 127.0690630
  14.9443450 119.5063960 125.9253350  15.3818320 120.0493630 126.5810930
  15.4291180 118.6810910 125.9349690  12.1589250 122.2952990 133.3773610
  12.4892260 121.4274050 133.1452250  12.5880250 122.5011510 134.2078570
  16.7551170 120.6262000 131.0375580  16.4546710 120.5026970 131.9379490
  16.6488660 119.7670590 130.6291310  12.6479460 123.1623580 136.1155240
  12.2110450 123.3424380 136.9479390  13.2157140 123.9198200 135.9736960
  28.2841640 122.6640580 140.4032550  27.6843630 122.7233140 139.6596470
  28.4135540 121.7245560 140.5329400  29.5243090 120.4058400 125.7402260
  28.6936050 120.4735050 126.2109490  29.7014920 121.2962520 125.4369120
  28.9799550 117.1505880 128.2436460  29.7418460 117.7202530 128.3496150
  28.9953920 116.5833080 129.0144770  12.4803890 115.6743810 132.4744120
  11.8252730 115.4055450 131.8303820  13.3181840 115.5648290 132.0246100
  29.9859520 118.0055980 133.0878390  30.3568350 117.2223300 132.6814360
  30.6261450 118.6945080 132.9095690  26.9693280 119.3892560 138.5008710
  26.1553120 119.8189720 138.7634500  27.3767480 120.0010970 137.8877760
  29.0318720 117.4440250 125.4008980  29.3067560 118.3519130 125.2728200
  28.8429460 117.3802780 126.3370970  25.4294330 110.4685100 126.6962610
  25.8479210 110.2816080 125.8559270  25.1230390 109.6164150 127.0065540
  28.9284060 115.3809240 130.3938410  28.5527660 114.6137170 129.9619700
  28.1987180 115.7631940 130.8813340  13.5179820 116.0596380 137.0147460
  13.8852860 115.9723780 137.8943480  12.9490640 115.2962930 136.9154320
  28.3183680 114.5280760 140.0277930  28.0869770 114.2993510 139.1275880
  28.5788230 115.4480310 139.9822820  13.0695820 112.9705470 140.9205880
  12.1751870 112.9372230 141.2599590  13.6093370 113.1692260 141.6857130
  26.7571750 109.7537190 142.8057630  27.6341930 109.7620590 143.1891630
  26.7692590 109.0168030 142.1949980  11.6941970 112.8842740 128.4169450
  10.7906050 113.1472940 128.2421110  12.1782590 113.1553910 127.6369410
  28.2035020 113.6066730 133.6945650  28.7272500 113.1129380 133.0635820
  28.7894440 113.7417090 134.4393220  28.3824740 113.6906600 137.2165200
  27.4327450 113.6570140 137.3310190  28.5637750 114.6006710 136.9814970
  14.2369180 111.9408280 126.3263830  14.9460880 111.5191500 125.8411110
  13.5209120 112.0083510 125.6947180  13.8843340 107.9947610 125.3666480
  14.6071470 108.5356550 125.6847700  14.1567860 107.7211030 124.4908020
  27.6934990 112.8640080 129.6338060  28.1894110 112.6310950 130.4186940
  27.4951060 112.0251920 129.2175700  13.5735530 107.2453800 135.2689100
  14.2211720 106.6951180 134.8284260  13.9937370 107.4996950 136.0904910
  29.1222150 111.5001030 132.1675740  29.0121430 111.3457070 133.1058010
  29.8829740 110.9721970 131.9251150  27.4687870 107.4395160 138.6258740
  28.1060090 108.0529300 138.9917930  27.6162760 107.4755820 137.6807970
  30.0112420 109.3308950 125.4081880  30.9361730 109.1990130 125.2000170
  29.9888210 109.4101770 126.3618330  30.0850910 110.1019610 128.0338590
  29.2902410 110.0364730 128.5631500  30.2894190 111.0370250 128.0223940
  27.0269330 124.1411160 132.0276980  27.6228400 123.8195730 131.3511400
  27.2847480 123.6682980 132.8190250  13.3267530 107.4009470 138.0114420
  12.9782350 107.8573290 138.7772600  12.9955230 106.5066600 138.0936850
  14.9331900 120.5729070 142.1767610  14.8901530 120.2021980 143.0582070
  15.0642910 121.5106640 142.3169430  18.6337930 122.1288660 137.7777330
  18.3929290 122.3963220 136.8907850  19.5740570 122.2994390 137.8328190
  20.8392350 108.5921350 141.5333840  20.7781240 109.1843180 142.2829250
  21.7792730 108.4847310 141.3884100  23.4766910 108.2491410 141.1726130
  24.0907320 108.5670700 140.5107210  24.0216470 107.7640000 141.7921990
  29.8942090 124.1483040 138.5787970  29.4000370 124.5451910 137.8615100
  29.2855380 123.5232250 138.9725250  13.9988170 106.9285670 141.2865190
  14.5471160 106.7473720 140.5231300  14.0643480 106.1379780 141.8221500
  14.7719930 123.5191320 139.2965390  14.1780250 123.3876020 140.0355430
  14.7643770 122.6829460 138.8307490  24.2174950 106.8123550 137.4995420
  23.3434790 107.1458660 137.2968350  24.1085700 106.3396730 138.3247290
  25.1246930 109.0194420 138.8837140  24.7960290 108.2046180 138.5038870
  26.0729230 108.9764230 138.7602830  27.5781540 124.7906460 135.8574710
  27.1184510 125.5422270 135.4832730  26.9494000 124.0712930 135.7989510
  14.4032160 120.8849700 138.2473430  13.6766220 120.2654990 138.1799380
  14.4641310 121.2790310 137.3771510  18.0077260 123.0994700 135.0322840
  18.5242280 122.4882060 134.5071100  18.6574640 123.6023480 135.5233850
  20.7472760 123.9903190 135.8591820  21.0350570 123.7357490 134.9824830
  21.2595980 123.4380550 136.4497390  21.9649770 107.7293390 136.4388330
  21.1821560 108.2038890 136.7185090  21.6712700 106.8248220 136.3301510
  26.5170840 108.4316490 134.4837420  26.9578930 108.3761590 133.6359020
  26.2478430 109.3474500 134.5547600  28.3809410 108.0631730 132.4946240
  28.3197810 107.1192950 132.3477260  29.1601440 108.1711820 133.0399700
  12.6862160 124.2024090 131.4570190  12.5184200 123.5694770 132.1552080
  11.8196670 124.4083490 131.1064380  13.3090180 108.0340870 128.9602050
  14.0669540 108.1469750 128.3866080  12.8467350 108.8710070 128.9145480
  19.8503990 110.1480140 131.9504360  19.0378500 109.7737030 131.6100240
  20.3545630 109.3925220 132.2525550  24.3528970 106.8122590 133.1887430
  24.9558340 107.3842800 133.6635950  23.6121960 107.3762030 132.9661330
  27.4963570 107.2144150 128.4627710  27.6914200 108.1127600 128.7295140
  26.7093440 106.9831230 128.9560660  14.2924860 122.8957320 128.9020330
  13.7672480 123.2765350 128.1982290  14.2169440 123.5208090 129.6230040
  15.6815330 108.5604920 127.5004020  16.2108090 107.7734720 127.3711970
  16.3143650 109.2396110 127.7339550  17.8753170 108.2980060 130.5549410
  17.2455910 107.5967370 130.7219540  17.3358310 109.0584190 130.3382570
  20.8145120 124.9119290 143.2260020  21.7412430 124.6763560 143.2695980
  20.7995550 125.7391290 142.7446050  29.0490180 124.4544860 130.2234270
  29.2242370 123.7682600 129.5795190  28.3511750 124.9791910 129.8310940
  18.0008730 107.5764040 142.9901900  17.7193000 108.0797640 142.2262720
  18.3828430 106.7785790 142.6244030  16.8917830 124.8439700 127.7769580
  17.6236650 124.5598980 127.2293470  17.1511500 124.6052980 128.6668960
  16.0532620 120.9604430 127.7815910  15.4241500 121.4289530 128.3301740
  16.1680450 120.1153650 128.2162100  24.6024190 106.9917620 143.5682370
  24.4889640 107.3112230 144.4633890  25.4193930 107.3930130 143.2719650
  27.3822680 124.1389150 143.0501060  28.1748000 123.6438380 142.8427020
  27.6755830 124.8179290 143.6576670  23.5082340 115.0110090 113.9317110
  23.4276390 114.0964700 113.6608820  23.0946760 115.5077160 113.2256820
  21.6400380 116.7889110 115.8126380  20.8642480 116.3089550 116.1024950
  22.2913310 116.1094760 115.6382540  15.6566210 117.1008920 116.6902140
  14.8251090 116.8457630 117.0898650  16.2647190 117.1719690 117.4260060
  25.6607810 121.1949300 114.5925510  25.1989340 120.4236540 114.9212680
  26.4733360 121.2215370 115.0977960  15.6367470 121.1349010 116.8860160
  15.9395510 120.2446750 116.7070380  16.3811060 121.6919230 116.6582410
  14.0658160 112.0610810 110.4744530  13.1774860 112.4026780 110.3724410
  14.3499350 111.8611130 109.5825360  12.0291170 114.6616460 116.3584230
  12.6007280 113.8938660 116.3587870  12.0292710 114.9605220 115.4490840
  21.8871120 123.4807310 114.2129500  21.2682560 123.9364810 113.6423940
  22.7422900 123.6358770 113.8119200  21.0809370 119.4646300 115.8196540
  21.0117650 118.5236240 115.6585670  21.8429230 119.5547710 116.3919110
  13.2716040 110.0700820 118.1453160  13.0918880 109.1726570 118.4255920
  12.8696120 110.6172690 118.8200110  22.1114540 112.2716680 116.0465470
  22.4879360 111.3988560 115.9339140  22.0134050 112.6075380 115.1555910
  16.2419550 110.6442310 111.5082910  16.3486300 111.5446040 111.8151670
  15.3311910 110.5960280 111.2177560  25.8938660 109.7667120 112.9793810
  26.7148280 109.2763690 113.0219290  25.9272740 110.3564780 113.7325650
  13.8902710 112.5661320 116.7535500  14.5712820 112.8299690 117.3722900
  13.5750760 111.7262190 117.0873510  18.0827280 113.6128680 115.8408090
  18.5905500 114.1109650 116.4813110  18.6140520 112.8363880 115.6647450
  30.1838210 111.7833870 119.5437440  29.4790380 112.1715580 119.0252550
  30.4496130 112.4784160 120.1458370  16.3663380 108.2527240 120.1071510
  16.3681820 108.7699630 119.3017410  15.5367690 107.7757420 120.0841440
  22.7534470 118.3646550 111.6061410  22.1351740 118.8296000 111.0424130
  23.2657720 119.0574030 112.0230920  17.6166230 117.8922420 118.2845010
  17.2835610 118.5191340 118.9266080  17.7932910 118.4184300 117.5046680
  26.1300140 111.7067500 115.7521350  25.4255710 111.9952390 116.3324460
  26.4912300 112.5167610 115.3920910  16.0478710 109.9637200 118.1141960
  16.3895520 110.8079250 117.8195830  15.1094520 110.1120940 118.2307300
  16.8285330 119.8603220 120.0994190  17.4459330 120.5354300 119.8178640
  15.9678450 120.2691200 120.0081690  12.1217670 119.0503080 108.9801040
  11.7445650 119.5390180 108.2485940  12.3790740 119.7228360 109.6107570
  27.7462920 121.3242630 118.0148830  27.0626440 121.9941740 118.0065500
  28.2857210 121.5223280 117.2493690  29.1987060 111.1522290 116.1430560
  28.2511970 111.1861270 116.2745990  29.5237050 111.9661240 116.5279920
  19.7306600 107.4519470 114.4386550  20.0381580 106.8966360 113.7222050
  18.8007300 107.5863930 114.2559540  25.2821660 123.1686760 116.7294010
  25.2948820 122.7649050 115.8616270  24.7296880 123.9434050 116.6255440
  26.5767080 119.8902980 111.8184180  26.4663410 118.9477310 111.9433600
  26.5735330 120.2518620 112.7046940  24.6807100 118.0716600 118.0576620
  25.0975890 117.8576710 117.2230080  25.4046920 118.3289390 118.6285240
  22.1187360 115.5168300 111.1746670  21.1916640 115.4505680 111.4035140
  22.2712180 116.4548430 111.0601910  22.1056440 111.7885300 108.1713830
  21.1660110 111.9499260 108.2566290  22.4239700 112.5070980 107.6249820
  28.6269200 116.4703820 118.1492860  27.7987830 116.5396910 117.6742990
  29.2219680 117.0558130 117.6808690  26.1484650 117.0788600 111.6781920
  25.5297070 116.7408150 111.0308220  26.1309100 116.4348360 112.3861110
  25.5911210 113.2573140 119.0947730  25.1782390 114.0826850 119.3487720
  24.8587160 112.6718180 118.9024090  17.7244000 116.0433040 113.9566400
  17.3201000 115.3310290 113.4612300  17.8107120 115.6986280 114.8454440
  18.1925700 119.7300600 116.1205610  17.8953990 119.1246070 115.4413390
  19.1425520 119.7677910 116.0094970  16.4372620 112.8176250 117.7365440
  16.9887210 112.9271590 116.9618690  16.9516130 113.1913850 118.4520670
  26.2811310 123.3032470 119.7828710  25.8041870 124.1104660 119.5901320
  25.5973100 122.6510800 119.9354920  17.2844130 119.4682290 122.7713410
  16.3872660 119.6922260 123.0186810  17.3097000 119.5917230 121.8224810
  24.3249350 116.3175410 108.6854670  24.7642630 115.4797840 108.5392490
  25.0377770 116.9504810 108.7718810  16.1115350 116.3395610 121.3470780
  15.9723120 117.2118410 121.7158180  15.2296710 115.9968420 121.2018720
  22.4344730 121.2571480 112.6535910  22.8740640 121.9995810 112.2391300
  22.3731620 121.4998050 113.5774870  17.9095700 122.2817310 123.5555930
  17.8811130 122.6860260 122.6884360  17.7460670 121.3527670 123.3927530
  27.9066490 107.5718220 106.9995710  27.5939150 107.6645050 107.8994780
  28.6678960 108.1499250 106.9493140  14.4248630 114.9378020 111.4573050
  14.3046230 115.6640110 110.8454320  14.1149520 114.1680930 110.9800960
  29.8610520 123.0644410 124.8520100  30.3370240 123.5427300 125.5309180
  30.4817680 122.9961900 124.1265600  12.0634000 118.1093160 117.2641690
  12.1414420 118.2441930 116.3197410  12.6775680 117.4009050 117.4569810
  13.3081630 119.8093350 113.6747870  12.9009710 119.9507940 112.8201470
  14.1994640 119.5253510 113.4719080  29.2643770 120.2557260 122.0120110
  29.3906830 120.0169140 121.0937290  29.3065150 119.4241800 122.4842190
  23.1260510 123.9585260 120.5814920  23.6405180 123.8693270 121.3837350
  22.2829590 124.3044960 120.8742830  25.1014910 124.2440600 110.0098920
  24.9416050 123.9543540 110.9080750  24.9361620 123.4680730 109.4744150
  17.5803290 124.0239130 111.7870540  17.4045770 123.1074670 111.5738340
  16.7259030 124.3826420 112.0268340  24.8041040 121.7528160 108.5696920
  24.1106200 121.7505450 107.9099200  25.5463900 121.3287480 108.1391090
  24.3690970 123.3790870 112.6445410  24.8247920 122.5980250 112.9584030
  24.7083490 124.0897690 113.1886590  29.1167780 112.3089720 122.9769850
  28.5012050 112.8169390 122.4485310  28.7964200 111.4088050 122.9195790
  12.1193520 119.1507330 119.8036150  12.2824560 118.6812690 118.9855520
  12.5845970 118.6430890 120.4684990  16.8912290 108.2813090 114.8396720
  16.4480440 109.0622630 114.5081240  17.4497280 108.6042980 115.5467660
  21.1782100 111.1481610 120.4432040  20.7161470 111.3564630 121.2551980
  20.7760210 110.3340960 120.1402710  26.1786610 112.3690560 121.5728700
  25.3280200 112.0696310 121.8937770  26.0188400 112.6132570 120.6612520
  23.2736320 113.8692310 123.6727490  23.5989730 113.0356060 123.3329720
  24.0616650 114.3920830 123.8205820  20.0071110 107.9023790 109.7202550
  19.3825290 107.8983660 110.4455860  19.9201230 107.0354750 109.3238520
  18.9288190 108.8260420 116.6986320  19.2260520 109.7323250 116.6178340
  19.4773750 108.3379200 116.0845890  16.6826510 113.4046660 112.5677970
  16.4567430 113.1883830 113.4724590  15.9019040 113.8375120 112.2223940
  23.9124270 113.4110030 111.1668620  23.3133160 114.1345830 110.9832240
  24.4603880 113.3486810 110.3845070  19.1225720 114.3032240 123.2338240
  19.0269320 113.3626970 123.0838640  19.9657700 114.5247310 122.8386310
  22.5189140 112.0473570 113.1971900  22.9118710 112.3645770 112.3840590
  22.8805990 111.1685450 113.3116420  14.2536260 110.7145910 121.3872020
  13.8599650 111.5621120 121.5944800  13.5654660 110.0772280 121.5780660
  20.8281310 110.7980880 124.4568760  20.1379630 110.6053080 125.0914850
  21.5713610 111.0815520 124.9893060  11.5553310 108.6374370 115.4202100
  11.2666360 109.2077230 116.1327080  12.2999070 108.1578820 115.7833330
  11.7423540 112.5794490 106.6304820  11.6598210 113.5225250 106.7719810
  11.3906600 112.4369400 105.7517170  23.1044280 114.6379320 117.2922680
  22.3725400 115.1466130 117.6412780  22.7068620 113.8209300 116.9911460
  19.5421670 111.3133520 115.6975170  19.5457730 110.8723470 114.8479710
  20.4372790 111.6350850 115.8046990  15.3924050 111.1960010 114.6569380
  15.0524100 111.6735240 115.4136430  14.6301370 110.7425130 114.2970480
  19.6041820 112.3145600 108.6881930  19.7254640 112.2732080 109.6367750
  19.2190330 113.1769750 108.5328660  23.5670190 110.0913000 116.7045620
  23.5842930 110.5421650 117.5487470  23.3185770 109.1918640 116.9179060
  18.6163320 114.6246740 108.0865230  18.0480220 114.1764990 107.4601140
  19.3252320 114.9839520 107.5530380  26.9940940 107.5045180 122.5432000
  27.3186710 106.7734840 123.0689980  27.0297450 107.1858820 121.6412990
  13.6932500 118.5258760 121.9631960  13.3087290 117.8852430 122.5614920
  14.0044690 119.2294880 122.5326690  19.8429640 115.3735300 117.4440580
  20.2099770 114.8993870 118.1901920  19.6534700 116.2476870 117.7848920
  12.7070130 110.1178990 113.5734050  12.4217050 109.7534660 114.4112670
  12.6448990 109.3859450 112.9597190  17.6329010 114.4143940 119.7624790
  17.3286080 115.2935920 119.9875150  18.5875470 114.4743730 119.7982230
  16.1610800 118.6204930 110.3591640  15.3873060 118.0802550 110.1990360
  16.8905430 118.1011540 110.0209400  26.9198780 117.6170290 116.1518030
  27.6397900 118.1125580 115.7614140  26.7180600 116.9388180 115.5071900
  22.3808720 109.0108250 110.2947420  21.5673330 108.5121420 110.2192730
  22.1870670 109.8506500 109.8783770  22.3017580 117.6879350 122.0387030
  22.2354890 116.7675020 121.7844620  21.6722720 117.7854790 122.7531670
  25.0957110 113.3827900 108.5909580  25.9836730 113.6945130 108.4160920
  25.0662200 112.5100150 108.1990160  16.2048200 118.2885310 113.9970450
  16.7226870 117.4853570 113.9427340  15.7532220 118.2264450 114.8387280
  21.0917700 119.5551590 109.2697750  21.4333400 120.2993820 108.7741070
  20.2630410 119.8682710 109.6322580  13.6892740 115.2546680 120.9096150
  13.3307680 115.9200530 121.4969490  13.3947300 114.4230230 121.2808770
  16.8905860 115.7130920 123.7935700  16.5906000 115.8588100 122.8963520
  17.6617100 115.1536210 123.7009090  22.2334310 120.5099920 121.7890830
  22.2478850 119.5780880 121.5709740  21.5259410 120.5959680 122.4280600
  27.3671380 114.6939740 108.0589440  27.2835100 115.1253960 107.2085880
  28.0865570 115.1538090 108.4916260  28.4445520 117.1507260 121.1359410
  27.7193710 117.7436040 120.9388800  28.9720980 117.1430800 120.3372780
  28.3958630 121.5482000 110.7871570  27.7534790 120.8937620 111.0615290
  28.0089290 121.9537090 110.0112240  23.9745110 118.8767430 114.6343260
  24.3268930 118.2795560 113.9744630  23.0907440 118.5511660 114.8051510
  20.0608390 119.6365120 112.0413670  20.7479520 120.1834330 112.4221260
  19.2740810 120.1805850 112.0763280  12.2000790 115.2537940 107.5330750
  13.0695640 115.5362740 107.8166670  11.7091110 116.0673810 107.4179560
  19.3635600 116.6411150 111.6539030  19.8198380 117.4516400 111.8799220
  19.0123810 116.3234290 112.4857520  21.6668210 122.1517490 118.8831330
  22.3110430 122.3576870 119.5604750  22.0297650 121.3905890 118.4302180
  15.2647380 106.9848800 112.1261550  15.1362010 106.9766700 113.0746470
  14.4409400 107.3231890 111.7752560  22.9400290 120.1549840 117.6008780
  23.5822520 119.4543000 117.7140950  23.4649640 120.9348280 117.4205670
  26.7856010 120.4398460 107.3247920  26.5593590 119.7228900 107.9172560
  26.3952210 120.1910900 106.4869670  24.7137910 120.9544740 120.8044840
  25.0494150 121.5411430 121.4822760  23.7938250 120.8237450 121.0342630
  12.5672040 124.4665320 108.0992380  12.9269680 125.0654660 107.4449650
  12.4264380 125.0125210 108.8727410  12.2641310 108.7439920 121.5868250
  11.5499830 108.9436840 122.1920860  12.6836350 107.9679490 121.9583050
  26.3672260 118.3570400 108.9862080  26.0793960 118.8183090 109.7739960
  27.1624430 117.8968170 109.2546300  12.5513900 122.7320180 122.5734780
  12.6605020 121.7914920 122.4330170  11.8994460 122.9974930 121.9248510
  20.5426490 121.0036070 123.9732900  20.2223360 120.2845310 124.5178590
  19.8684850 121.6791140 124.0468960  18.5840660 121.8496520 108.9166050
  18.5750760 122.5826210 108.3010560  17.6639020 121.6028100 109.0093010
  14.1847300 117.0711410 109.6612810  13.5775250 117.8110310 109.6708110
  14.6596650 117.1610770 108.8351010  23.7580090 111.2362230 119.3369700
  24.1260910 110.4157440 119.6649270  22.8978290 111.2964120 119.7525350
  27.1242120 110.1919170 110.1457260  26.4955280 110.2964840 109.4315490
  26.6294040 110.4115950 110.9351140  21.5700260 121.9124760 107.5791240
  21.6712240 121.7088750 106.6493220  20.6702000 121.6583040 107.7839020
  19.0926150 112.4705120 111.5615140  18.3842300 112.9391460 112.0028750
  19.3770630 111.8127130 112.1960330  20.7182080 113.8901820 119.5607670
  21.2167330 114.3647640 120.2259520  20.8605030 112.9665340 119.7677700
  23.1241580 109.1955780 113.0010930  23.0009360 109.2141910 112.0520440
  24.0726140 109.2434720 113.1209330  20.2118370 124.4311080 112.2738910
  20.4659870 124.3932470 111.3518280  19.2630850 124.3044410 112.2667160
  17.2961170 110.7790200 108.9365850  18.1451700 111.2160350 108.8706040
  16.9292440 111.0910460 109.7637910  27.9248940 110.1069780 120.4036060
  27.4222540 110.8475180 120.7429870  28.7405600 110.4953780 120.0872850
  26.2170950 115.3502960 113.8497420  25.2761090 115.3653190 114.0245110
  26.5315020 114.5638920 114.2957720  16.1952590 117.0322560 107.4101380
  16.9615860 116.9203920 107.9726810  16.2727280 116.3360530 106.7578150
  14.8899350 114.4647630 108.0934270  14.9702940 113.5175140 108.2051670
  15.7819100 114.7954510 108.1994930  28.2196530 122.5211810 115.5251680
  28.3443950 123.3442980 115.9975490  29.0862090 122.3102540 115.1775830
  15.6914060 124.6143020 115.1968810  16.4276540 124.0658480 115.4677380
  16.0754980 125.4799030 115.0574800  12.5759540 120.6816590 111.0710320
  11.6499320 120.9237730 111.0615730  13.0415970 121.5090850 110.9495070
  14.6972340 123.7989090 124.3854390  15.4985070 124.1201140 124.7989790
  14.1824160 123.4384670 125.1074300  18.8016370 123.7873330 107.0194380
  19.5944980 124.0762160 106.5676170  18.2820720 123.3565500 106.3406860
  23.5336970 119.9068960 124.3329800  22.9275130 119.9300560 123.5925550
  23.2291080 119.1752000 124.8697050  24.9637340 123.6349250 122.9439210
  25.9159090 123.5507270 122.8939450  24.8165560 124.2990960 123.6173000
  27.8546540 123.0143460 108.4431120  27.5688050 122.6008600 107.6285300
  27.6566090 123.9431170 108.3231640  12.4170150 116.2862550 123.3290440
  12.9209170 115.7069830 123.9006670  11.6777570 116.5702780 123.8666810
  19.3193770 119.0076740 106.8836730  19.2144410 118.3929090 107.6098110
  19.1517990 118.4842630 106.0999740  19.4708090 117.6933540 122.8625960
  18.7053760 118.2618540 122.7780630  19.6524050 117.4009750 121.9694190
  22.5596500 118.0696770 107.4878720  22.0106600 118.5166070 108.1321460
  23.1815760 117.5646020 108.0116390  26.6131440 119.4238870 123.4200980
  27.3540910 119.7614630 122.9168440  25.8504120 119.5930930 122.8670750
  14.4493230 114.4292140 124.2240510  14.4898570 114.1306010 125.1325740
  15.3038730 114.8299750 124.0648030  18.2271620 117.0287690 109.3844020
  18.6488040 116.8627560 110.2275410  18.3522460 116.2187920 108.8899160
  16.3899040 113.0084240 122.1915000  15.8595500 112.5175190 121.5638340
  17.0587110 113.4368440 121.6572930  20.7399260 116.0525300 106.6321120
  21.2604920 115.3374320 106.2662270  21.3867660 116.6911170 106.9321630
  25.2877100 117.4753700 121.9556190  25.7018120 117.6298780 122.8046610
  24.3528100 117.6008920 122.1181970  25.7599270 114.8149860 123.9595340
  26.3420040 114.0602180 123.8715820  25.9361040 115.3457300 123.1826820
  16.8771340 109.9746610 122.2712290  16.7828210 109.3567360 121.5463160
  16.2968730 110.7012900 122.0442200  19.6432780 108.5319850 119.3039680
  19.1950080 108.5544110 118.4585230  19.0097980 108.1338870 119.9009980
  20.0492330 117.4274180 119.9252120  20.4680440 118.2706910 119.7528360
  19.1300960 117.5646220 119.6958900  22.3856230 115.1590360 121.3089960
  22.5052440 114.5631500 122.0484800  23.2450230 115.1960050 120.8891260
  24.7244130 115.7127550 119.8852470  24.1979350 116.2370170 119.2817610
  25.0675470 116.3454940 120.5162200  17.1230520 113.1020920 106.3302180
  16.9219580 112.2388280 106.6915520  16.9522570 113.0154280 105.3923780
  17.8999750 123.7327190 121.0409850  17.3620840 124.4573250 120.7218550
  18.1533710 123.2557530 120.2507190  19.1525000 111.7011710 122.5665780
  19.7424690 111.3927560 123.2543600  18.3345240 111.2291460 122.7225680
  23.9718430 111.3177520 122.7998800  23.2833950 110.6559060 122.7348790
  24.6924450 110.8715790 123.2447260  24.6018830 107.9129150 108.8589060
  24.8821120 107.0697050 109.2148480  23.8284560 108.1452260 109.3727810
  15.9213320 110.2021540 106.3180060  16.2239220 110.2088970 105.4099210
  16.6607910 109.8519400 106.8147720  20.7561960 124.9678400 121.2996500
  20.6820660 125.8713540 121.6068870  19.8540800 124.6490300 121.2718570
  19.1398250 109.1456160 107.3036260  18.7920250 108.4680150 106.7238710
  19.3411020 108.6845670 108.1179650  21.3047290 124.1336910 108.9222860
  22.1998080 124.4721880 108.9441620  21.3364920 123.4116320 108.2947140
  14.9443450 119.5063960 107.1509860  15.3818320 120.0493630 107.8067440
  15.4291180 118.6810910 107.1606200  12.1589250 122.2952990 114.6030120
  12.4892260 121.4274050 114.3708760  12.5880250 122.5011510 115.4335080
  16.7551170 120.6262000 112.2632090  16.4546710 120.5026970 113.1636000
  16.6488660 119.7670590 111.8547820  12.6479460 123.1623580 117.3411750
  12.2110450 123.3424380 118.1735900  13.2157140 123.9198200 117.1993470
  28.2841640 122.6640580 121.6289060  27.6843630 122.7233140 120.8852980
  28.4135540 121.7245560 121.7585910  29.5243090 120.4058400 106.9658770
  28.6936050 120.4735050 107.4366000  29.7014920 121.2962520 106.6625630
  28.9799550 117.1505880 109.4692970  29.7418460 117.7202530 109.5752660
  28.9953920 116.5833080 110.2401280  12.4803890 115.6743810 113.7000630
  11.8252730 115.4055450 113.0560330  13.3181840 115.5648290 113.2502610
  29.9859520 118.0055980 114.3134900  30.3568350 117.2223300 113.9070870
  30.6261450 118.6945080 114.1352200  26.9693280 119.3892560 119.7265220
  26.1553120 119.8189720 119.9891010  27.3767480 120.0010970 119.1134270
  29.0318720 117.4440250 106.6265490  29.3067560 118.3519130 106.4984710
  28.8429460 117.3802780 107.5627480  25.4294330 110.4685100 107.9219120
  25.8479210 110.2816080 107.0815780  25.1230390 109.6164150 108.2322050
  28.9284060 115.3809240 111.6194920  28.5527660 114.6137170 111.1876210
  28.1987180 115.7631940 112.1069850  13.5179820 116.0596380 118.2403970
  13.8852860 115.9723780 119.1199990  12.9490640 115.2962930 118.1410830
  28.3183680 114.5280760 121.2534440  28.0869770 114.2993510 120.3532390
  28.5788230 115.4480310 121.2079330  13.0695820 112.9705470 122.1462390
  12.1751870 112.9372230 122.4856100  13.6093370 113.1692260 122.9113640
  26.7571750 109.7537190 124.0314140  27.6341930 109.7620590 124.4148140
  26.7692590 109.0168030 123.4206490  11.6941970 112.8842740 109.6425960
  10.7906050 113.1472940 109.4677620  12.1782590 113.1553910 108.8625920
  28.2035020 113.6066730 114.9202160  28.7272500 113.1129380 114.2892330
  28.7894440 113.7417090 115.6649730  28.3824740 113.6906600 118.4421710
  27.4327450 113.6570140 118.5566700  28.5637750 114.6006710 118.2071480
  14.2369180 111.9408280 107.5520340  14.9460880 111.5191500 107.0667620
  13.5209120 112.0083510 106.9203690  13.8843340 107.9947610 106.5922990
  14.6071470 108.5356550 106.9104210  14.1567860 107.7211030 105.7164530
  27.6934990 112.8640080 110.8594570  28.1894110 112.6310950 111.6443450
  27.4951060 112.0251920 110.4432210  13.5735530 107.2453800 116.4945610
  14.2211720 106.6951180 116.0540770  13.9937370 107.4996950 117.3161420
  29.1222150 111.5001030 113.3932250  29.0121430 111.3457070 114.3314520
  29.8829740 110.9721970 113.1507660  27.4687870 107.4395160 119.8515250
  28.1060090 108.0529300 120.2174440  27.6162760 107.4755820 118.9064480
  30.0112420 109.3308950 106.6338390  30.9361730 109.1990130 106.4256680
  29.9888210 109.4101770 107.5874840  30.0850910 110.1019610 109.2595100
  29.2902410 110.0364730 109.7888010  30.2894190 111.0370250 109.2480450
  27.0269330 124.1411160 113.2533490  27.6228400 123.8195730 112.5767910
  27.2847480 123.6682980 114.0446760  13.3267530 107.4009470 119.2370930
  12.9782350 107.8573290 120.0029110  12.9955230 106.5066600 119.3193360
  14.9331900 120.5729070 123.4024120  14.8901530 120.2021980 124.2838580
  15.0642910 121.5106640 123.5425940  18.6337930 122.1288660 119.0033840
  18.3929290 122.3963220 118.1164360  19.5740570 122.2994390 119.0584700
  20.8392350 108.5921350 122.7590350  20.7781240 109.1843180 123.5085760
  21.7792730 108.4847310 122.6140610  23.4766910 108.2491410 122.3982640
  24.0907320 108.5670700 121.7363720  24.0216470 107.7640000 123.0178500
  29.8942090 124.1483040 119.8044480  29.4000370 124.5451910 119.0871610
  29.2855380 123.5232250 120.1981760  13.9988170 106.9285670 122.5121700
  14.5471160 106.7473720 121.7487810  14.0643480 106.1379780 123.0478010
  14.7719930 123.5191320 120.5221900  14.1780250 123.3876020 121.2611940
  14.7643770 122.6829460 120.0564000  24.2174950 106.8123550 118.7251930
  23.3434790 107.1458660 118.5224860  24.1085700 106.3396730 119.5503800
  25.1246930 109.0194420 120.1093650  24.7960290 108.2046180 119.7295380
  26.0729230 108.9764230 119.9859340  27.5781540 124.7906460 117.0831220
  27.1184510 125.5422270 116.7089240  26.9494000 124.0712930 117.0246020
  14.4032160 120.8849700 119.4729940  13.6766220 120.2654990 119.4055890
  14.4641310 121.2790310 118.6028020  18.0077260 123.0994700 116.2579350
  18.5242280 122.4882060 115.7327610  18.6574640 123.6023480 116.7490360
  20.7472760 123.9903190 117.0848330  21.0350570 123.7357490 116.2081340
  21.2595980 123.4380550 117.6753900  21.9649770 107.7293390 117.6644840
  21.1821560 108.2038890 117.9441600  21.6712700 106.8248220 117.5558020
  26.5170840 108.4316490 115.7093930  26.9578930 108.3761590 114.8615530
  26.2478430 109.3474500 115.7804110  28.3809410 108.0631730 113.7202750
  28.3197810 107.1192950 113.5733770  29.1601440 108.1711820 114.2656210
  12.6862160 124.2024090 112.6826700  12.5184200 123.5694770 113.3808590
  11.8196670 124.4083490 112.3320890  13.3090180 108.0340870 110.1858560
  14.0669540 108.1469750 109.6122590  12.8467350 108.8710070 110.1401990
  19.8503990 110.1480140 113.1760870  19.0378500 109.7737030 112.8356750
  20.3545630 109.3925220 113.4782060  24.3528970 106.8122590 114.4143940
  24.9558340 107.3842800 114.8892460  23.6121960 107.3762030 114.1917840
  27.4963570 107.2144150 109.6884220  27.6914200 108.1127600 109.9551650
  26.7093440 106.9831230 110.1817170  14.2924860 122.8957320 110.1276840
  13.7672480 123.2765350 109.4238800  14.2169440 123.5208090 110.8486550
  15.6815330 108.5604920 108.7260530  16.2108090 107.7734720 108.5968480
  16.3143650 109.2396110 108.9596060  17.8753170 108.2980060 111.7805920
  17.2455910 107.5967370 111.9476050  17.3358310 109.0584190 111.5639080
  20.8145120 124.9119290 124.4516530  21.7412430 124.6763560 124.4952490
  20.7995550 125.7391290 123.9702560  29.0490180 124.4544860 111.4490780
  29.2242370 123.7682600 110.8051700  28.3511750 124.9791910 111.0567450
  18.0008730 107.5764040 124.2158410  17.7193000 108.0797640 123.4519230
  18.3828430 106.7785790 123.8500540  16.8917830 124.8439700 109.0026090
  17.6236650 124.5598980 108.4549980  17.1511500 124.6052980 109.8925470
  16.0532620 120.9604430 109.0072420  15.4241500 121.4289530 109.5558250
  16.1680450 120.1153650 109.4418610  24.6024190 106.9917620 124.7938880
  24.4889640 107.3112230 125.6890400  25.4193930 107.3930130 124.4976160
  27.3822680 124.1389150 124.2757570  28.1748000 123.6438380 124.0683530
  27.6755830 124.8179290 124.8833180  23.5082340 115.0110090  95.1573620
  23.4276390 114.0964700  94.8865330  23.0946760 115.5077160  94.4513330
  21.6400380 116.7889110  97.0382890  20.8642480 116.3089550  97.3281460
  22.2913310 116.1094760  96.8639050  15.6566210 117.1008920  97.9158650
  14.8251090 116.8457630  98.3155160  16.2647190 117.1719690  98.6516570
  25.6607810 121.1949300  95.8182020  25.1989340 120.4236540  96.1469190
  26.4733360 121.2215370  96.3234470  15.6367470 121.1349010  98.1116670
  15.9395510 120.2446750  97.9326890  16.3811060 121.6919230  97.8838920
  14.0658160 112.0610810  91.7001040  13.1774860 112.4026780  91.5980920
  14.3499350 111.8611130  90.8081870  12.0291170 114.6616460  97.5840740
  12.6007280 113.8938660  97.5844380  12.0292710 114.9605220  96.6747350
  21.8871120 123.4807310  95.4386010  21.2682560 123.9364810  94.8680450
  22.7422900 123.6358770  95.0375710  21.0809370 119.4646300  97.0453050
  21.0117650 118.5236240  96.8842180  21.8429230 119.5547710  97.6175620
  13.2716040 110.0700820  99.3709670  13.0918880 109.1726570  99.6512430
  12.8696120 110.6172690 100.0456620  22.1114540 112.2716680  97.2721980
  22.4879360 111.3988560  97.1595650  22.0134050 112.6075380  96.3812420
  16.2419550 110.6442310  92.7339420  16.3486300 111.5446040  93.0408180
  15.3311910 110.5960280  92.4434070  13.8902710 112.5661320  97.9792010
  14.5712820 112.8299690  98.5979410  13.5750760 111.7262190  98.3130020
  18.0827280 113.6128680  97.0664600  18.5905500 114.1109650  97.7069620
  18.6140520 112.8363880  96.8903960  30.1838210 111.7833870 100.7693950
  29.4790380 112.1715580 100.2509060  30.4496130 112.4784160 101.3714880
  16.3663380 108.2527240 101.3328020  16.3681820 108.7699630 100.5273920
  15.5367690 107.7757420 101.3097950  22.7534470 118.3646550  92.8317920
  22.1351740 118.8296000  92.2680640  23.2657720 119.0574030  93.2487430
  17.6166230 117.8922420  99.5101520  17.2835610 118.5191340 100.1522590
  17.7932910 118.4184300  98.7303190  26.1300140 111.7067500  96.9777860
  25.4255710 111.9952390  97.5580970  26.4912300 112.5167610  96.6177420
  16.0478710 109.9637200  99.3398470  16.3895520 110.8079250  99.0452340
  15.1094520 110.1120940  99.4563810  16.8285330 119.8603220 101.3250700
  17.4459330 120.5354300 101.0435150  15.9678450 120.2691200 101.2338200
  12.1217670 119.0503080  90.2057550  11.7445650 119.5390180  89.4742450
  12.3790740 119.7228360  90.8364080  27.7462920 121.3242630  99.2405340
  27.0626440 121.9941740  99.2322010  28.2857210 121.5223280  98.4750200
  19.7306600 107.4519470  95.6643060  20.0381580 106.8966360  94.9478560
  18.8007300 107.5863930  95.4816050  25.2821660 123.1686760  97.9550520
  25.2948820 122.7649050  97.0872780  24.7296880 123.9434050  97.8511950
  26.5767080 119.8902980  93.0440690  26.4663410 118.9477310  93.1690110
  26.5735330 120.2518620  93.9303450  24.6807100 118.0716600  99.2833130
  25.0975890 117.8576710  98.4486590  25.4046920 118.3289390  99.8541750
  22.1187360 115.5168300  92.4003180  21.1916640 115.4505680  92.6291650
  22.2712180 116.4548430  92.2858420  22.1056440 111.7885300  89.3970340
  21.1660110 111.9499260  89.4822800  22.4239700 112.5070980  88.8506330
  28.6269200 116.4703820  99.3749370  27.7987830 116.5396910  98.8999500
  29.2219680 117.0558130  98.9065200  26.1484650 117.0788600  92.9038430
  25.5297070 116.7408150  92.2564730  26.1309100 116.4348360  93.6117620
  25.5911210 113.2573140 100.3204240  25.1782390 114.0826850 100.5744230
  24.8587160 112.6718180 100.1280600  17.7244000 116.0433040  95.1822910
  17.3201000 115.3310290  94.6868810  17.8107120 115.6986280  96.0710950
  18.1925700 119.7300600  97.3462120  17.8953990 119.1246070  96.6669900
  19.1425520 119.7677910  97.2351480  16.4372620 112.8176250  98.9621950
  16.9887210 112.9271590  98.1875200  16.9516130 113.1913850  99.6777180
  26.2811310 123.3032470 101.0085220  25.8041870 124.1104660 100.8157830
  25.5973100 122.6510800 101.1611430  17.2844130 119.4682290 103.9969920
  16.3872660 119.6922260 104.2443320  17.3097000 119.5917230 103.0481320
  24.3249350 116.3175410  89.9111180  24.7642630 115.4797840  89.7649000
  25.0377770 116.9504810  89.9975320  16.1115350 116.3395610 102.5727290
  15.9723120 117.2118410 102.9414690  15.2296710 115.9968420 102.4275230
  22.4344730 121.2571480  93.8792420  22.8740640 121.9995810  93.4647810
  22.3731620 121.4998050  94.8031380  17.9095700 122.2817310 104.7812440
  17.8811130 122.6860260 103.9140870  17.7460670 121.3527670 104.6184040
  27.9066490 107.5718220  88.2252220  27.5939150 107.6645050  89.1251290
  28.6678960 108.1499250  88.1749650  14.4248630 114.9378020  92.6829560
  14.3046230 115.6640110  92.0710830  14.1149520 114.1680930  92.2057470
  29.8610520 123.0644410 106.0776610  30.3370240 123.5427300 106.7565690
  30.4817680 122.9961900 105.3522110  12.0634000 118.1093160  98.4898200
  12.1414420 118.2441930  97.5453920  12.6775680 117.4009050  98.6826320
  13.3081630 119.8093350  94.9004380  12.9009710 119.9507940  94.0457980
  14.1994640 119.5253510  94.6975590  29.2643770 120.2557260 103.2376620
  29.3906830 120.0169140 102.3193800  29.3065150 119.4241800 103.7098700
  23.1260510 123.9585260 101.8071430  23.6405180 123.8693270 102.6093860
  22.2829590 124.3044960 102.0999340  25.1014910 124.2440600  91.2355430
  24.9416050 123.9543540  92.1337260  24.9361620 123.4680730  90.7000660
  17.5803290 124.0239130  93.0127050  17.4045770 123.1074670  92.7994850
  16.7259030 124.3826420  93.2524850  24.8041040 121.7528160  89.7953430
  24.1106200 121.7505450  89.1355710  25.5463900 121.3287480  89.3647600
  24.3690970 123.3790870  93.8701920  24.8247920 122.5980250  94.1840540
  24.7083490 124.0897690  94.4143100  29.1167780 112.3089720 104.2026360
  28.5012050 112.8169390 103.6741820  28.7964200 111.4088050 104.1452300
  12.1193520 119.1507330 101.0292660  12.2824560 118.6812690 100.2112030
  12.5845970 118.6430890 101.6941500  16.8912290 108.2813090  96.0653230
  16.4480440 109.0622630  95.7337750  17.4497280 108.6042980  96.7724170
  21.1782100 111.1481610 101.6688550  20.7161470 111.3564630 102.4808490
  20.7760210 110.3340960 101.3659220  26.1786610 112.3690560 102.7985210
  25.3280200 112.0696310 103.1194280  26.0188400 112.6132570 101.8869030
  23.2736320 113.8692310 104.8984000  23.5989730 113.0356060 104.5586230
  24.0616650 114.3920830 105.0462330  18.9288190 108.8260420  97.9242830
  19.2260520 109.7323250  97.8434850  19.4773750 108.3379200  97.3102400
  16.6826510 113.4046660  93.7934480  16.4567430 113.1883830  94.6981100
  15.9019040 113.8375120  93.4480450  23.9124270 113.4110030  92.3925130
  23.3133160 114.1345830  92.2088750  24.4603880 113.3486810  91.6101580
  19.1225720 114.3032240 104.4594750  19.0269320 113.3626970 104.3095150
  19.9657700 114.5247310 104.0642820  22.5189140 112.0473570  94.4228410
  22.9118710 112.3645770  93.6097100  22.8805990 111.1685450  94.5372930
  14.2536260 110.7145910 102.6128530  13.8599650 111.5621120 102.8201310
  13.5654660 110.0772280 102.8037170  20.8281310 110.7980880 105.6825270
  20.1379630 110.6053080 106.3171360  21.5713610 111.0815520 106.2149570
  11.5553310 108.6374370  96.6458610  11.2666360 109.2077230  97.3583590
  12.2999070 108.1578820  97.0089840  11.7423540 112.5794490  87.8561330
  11.6598210 113.5225250  87.9976320  11.3906600 112.4369400  86.9773680
  23.1044280 114.6379320  98.5179190  22.3725400 115.1466130  98.8669290
  22.7068620 113.8209300  98.2167970  19.5421670 111.3133520  96.9231680
  19.5457730 110.8723470  96.0736220  20.4372790 111.6350850  97.0303500
  15.3924050 111.1960010  95.8825890  15.0524100 111.6735240  96.6392940
  14.6301370 110.7425130  95.5226990  19.6041820 112.3145600  89.9138440
  19.7254640 112.2732080  90.8624260  19.2190330 113.1769750  89.7585170
  23.5670190 110.0913000  97.9302130  23.5842930 110.5421650  98.7743980
  23.3185770 109.1918640  98.1435570  18.6163320 114.6246740  89.3121740
  18.0480220 114.1764990  88.6857650  19.3252320 114.9839520  88.7786890
  26.9940940 107.5045180 103.7688510  27.3186710 106.7734840 104.2946490
  27.0297450 107.1858820 102.8669500  13.6932500 118.5258760 103.1888470
  13.3087290 117.8852430 103.7871430  14.0044690 119.2294880 103.7583200
  19.8429640 115.3735300  98.6697090  20.2099770 114.8993870  99.4158430
  19.6534700 116.2476870  99.0105430  12.7070130 110.1178990  94.7990560
  12.4217050 109.7534660  95.6369180  12.6448990 109.3859450  94.1853700
  17.6329010 114.4143940 100.9881300  17.3286080 115.2935920 101.2131660
  18.5875470 114.4743730 101.0238740  16.1610800 118.6204930  91.5848150
  15.3873060 118.0802550  91.4246870  16.8905430 118.1011540  91.2465910
  26.9198780 117.6170290  97.3774540  27.6397900 118.1125580  96.9870650
  26.7180600 116.9388180  96.7328410  22.3017580 117.6879350 103.2643540
  22.2354890 116.7675020 103.0101130  21.6722720 117.7854790 103.9788180
  25.0957110 113.3827900  89.8166090  25.9836730 113.6945130  89.6417430
  25.0662200 112.5100150  89.4246670  16.2048200 118.2885310  95.2226960
  16.7226870 117.4853570  95.1683850  15.7532220 118.2264450  96.0643790
  21.0917700 119.5551590  90.4954260  21.4333400 120.2993820  89.9997580
  20.2630410 119.8682710  90.8579090  13.6892740 115.2546680 102.1352660
  13.3307680 115.9200530 102.7226000  13.3947300 114.4230230 102.5065280
  16.8905860 115.7130920 105.0192210  16.5906000 115.8588100 104.1220030
  17.6617100 115.1536210 104.9265600  22.2334310 120.5099920 103.0147340
  22.2478850 119.5780880 102.7966250  21.5259410 120.5959680 103.6537110
  27.3671380 114.6939740  89.2845950  27.2835100 115.1253960  88.4342390
  28.0865570 115.1538090  89.7172770  28.4445520 117.1507260 102.3615920
  27.7193710 117.7436040 102.1645310  28.9720980 117.1430800 101.5629290
  23.9745110 118.8767430  95.8599770  24.3268930 118.2795560  95.2001140
  23.0907440 118.5511660  96.0308020  20.0608390 119.6365120  93.2670180
  20.7479520 120.1834330  93.6477770  19.2740810 120.1805850  93.3019790
  12.2000790 115.2537940  88.7587260  13.0695640 115.5362740  89.0423180
  11.7091110 116.0673810  88.6436070  19.3635600 116.6411150  92.8795540
  19.8198380 117.4516400  93.1055730  19.0123810 116.3234290  93.7114030
  21.6668210 122.1517490 100.1087840  22.3110430 122.3576870 100.7861260
  22.0297650 121.3905890  99.6558690  15.2647380 106.9848800  93.3518060
  15.1362010 106.9766700  94.3002980  14.4409400 107.3231890  93.0009070
  22.9400290 120.1549840  98.8265290  23.5822520 119.4543000  98.9397460
  23.4649640 120.9348280  98.6462180  24.7137910 120.9544740 102.0301350
  25.0494150 121.5411430 102.7079270  23.7938250 120.8237450 102.2599140
  12.5672040 124.4665320  89.3248890  12.9269680 125.0654660  88.6706160
  12.4264380 125.0125210  90.0983920  12.2641310 108.7439920 102.8124760
  11.5499830 108.9436840 103.4177370  12.6836350 107.9679490 103.1839560
  12.5513900 122.7320180 103.7991290  12.6605020 121.7914920 103.6586680
  11.8994460 122.9974930 103.1505020  20.5426490 121.0036070 105.1989410
  20.2223360 120.2845310 105.7435100  19.8684850 121.6791140 105.2725470
  18.5840660 121.8496520  90.1422560  18.5750760 122.5826210  89.5267070
  17.6639020 121.6028100  90.2349520  14.1847300 117.0711410  90.8869320
  13.5775250 117.8110310  90.8964620  14.6596650 117.1610770  90.0607520
  23.7580090 111.2362230 100.5626210  24.1260910 110.4157440 100.8905780
  22.8978290 111.2964120 100.9781860  21.5700260 121.9124760  88.8047750
  21.6712240 121.7088750  87.8749730  20.6702000 121.6583040  89.0095530
  19.0926150 112.4705120  92.7871650  18.3842300 112.9391460  93.2285260
  19.3770630 111.8127130  93.4216840  20.7182080 113.8901820 100.7864180
  21.2167330 114.3647640 101.4516030  20.8605030 112.9665340 100.9934210
  23.1241580 109.1955780  94.2267440  23.0009360 109.2141910  93.2776950
  24.0726140 109.2434720  94.3465840  20.2118370 124.4311080  93.4995420
  20.4659870 124.3932470  92.5774790  19.2630850 124.3044410  93.4923670
  17.2961170 110.7790200  90.1622360  18.1451700 111.2160350  90.0962550
  16.9292440 111.0910460  90.9894420  27.9248940 110.1069780 101.6292570
  27.4222540 110.8475180 101.9686380  28.7405600 110.4953780 101.3129360
  26.2170950 115.3502960  95.0753930  25.2761090 115.3653190  95.2501620
  26.5315020 114.5638920  95.5214230  16.1952590 117.0322560  88.6357890
  16.9615860 116.9203920  89.1983320  16.2727280 116.3360530  87.9834660
  14.8899350 114.4647630  89.3190780  14.9702940 113.5175140  89.4308180
  15.7819100 114.7954510  89.4251440  28.2196530 122.5211810  96.7508190
  28.3443950 123.3442980  97.2232000  29.0862090 122.3102540  96.4032340
  15.6914060 124.6143020  96.4225320  16.4276540 124.0658480  96.6933890
  16.0754980 125.4799030  96.2831310  12.5759540 120.6816590  92.2966830
  11.6499320 120.9237730  92.2872240  13.0415970 121.5090850  92.1751580
  14.6972340 123.7989090 105.6110900  15.4985070 124.1201140 106.0246300
  14.1824160 123.4384670 106.3330810  18.8016370 123.7873330  88.2450890
  19.5944980 124.0762160  87.7932680  18.2820720 123.3565500  87.5663370
  23.5336970 119.9068960 105.5586310  22.9275130 119.9300560 104.8182060
  23.2291080 119.1752000 106.0953560  24.9637340 123.6349250 104.1695720
  25.9159090 123.5507270 104.1195960  24.8165560 124.2990960 104.8429510
  27.8546540 123.0143460  89.6687630  27.5688050 122.6008600  88.8541810
  27.6566090 123.9431170  89.5488150  12.4170150 116.2862550 104.5546950
  12.9209170 115.7069830 105.1263180  11.6777570 116.5702780 105.0923320
  19.3193770 119.0076740  88.1093240  19.2144410 118.3929090  88.8354620
  19.1517990 118.4842630  87.3256250  19.4708090 117.6933540 104.0882470
  18.7053760 118.2618540 104.0037140  19.6524050 117.4009750 103.1950700
  22.5596500 118.0696770  88.7135230  22.0106600 118.5166070  89.3577970
  23.1815760 117.5646020  89.2372900  26.6131440 119.4238870 104.6457490
  27.3540910 119.7614630 104.1424950  25.8504120 119.5930930 104.0927260
  14.4493230 114.4292140 105.4497020  14.4898570 114.1306010 106.3582250
  15.3038730 114.8299750 105.2904540  18.2271620 117.0287690  90.6100530
  18.6488040 116.8627560  91.4531920  18.3522460 116.2187920  90.1155670
  16.3899040 113.0084240 103.4171510  15.8595500 112.5175190 102.7894850
  17.0587110 113.4368440 102.8829440  20.7399260 116.0525300  87.8577630
  21.2604920 115.3374320  87.4918780  21.3867660 116.6911170  88.1578140
  25.2877100 117.4753700 103.1812700  25.7018120 117.6298780 104.0303120
  24.3528100 117.6008920 103.3438480  25.7599270 114.8149860 105.1851850
  26.3420040 114.0602180 105.0972330  25.9361040 115.3457300 104.4083330
  16.8771340 109.9746610 103.4968800  16.7828210 109.3567360 102.7719670
  16.2968730 110.7012900 103.2698710  19.6432780 108.5319850 100.5296190
  19.1950080 108.5544110  99.6841740  19.0097980 108.1338870 101.1266490
  20.0492330 117.4274180 101.1508630  20.4680440 118.2706910 100.9784870
  19.1300960 117.5646220 100.9215410  22.3856230 115.1590360 102.5346470
  22.5052440 114.5631500 103.2741310  23.2450230 115.1960050 102.1147770
  24.7244130 115.7127550 101.1108980  24.1979350 116.2370170 100.5074120
  25.0675470 116.3454940 101.7418710  17.1230520 113.1020920  87.5558690
  16.9219580 112.2388280  87.9172030  16.9522570 113.0154280  86.6180290
  17.8999750 123.7327190 102.2666360  17.3620840 124.4573250 101.9475060
  18.1533710 123.2557530 101.4763700  19.1525000 111.7011710 103.7922290
  19.7424690 111.3927560 104.4800110  18.3345240 111.2291460 103.9482190
  23.9718430 111.3177520 104.0255310  23.2833950 110.6559060 103.9605300
  24.6924450 110.8715790 104.4703770  15.9213320 110.2021540  87.5436570
  16.2239220 110.2088970  86.6355720  16.6607910 109.8519400  88.0404230
  20.7561960 124.9678400 102.5253010  20.6820660 125.8713540 102.8325380
  19.8540800 124.6490300 102.4975080  21.3047290 124.1336910  90.1479370
  22.1998080 124.4721880  90.1698130  21.3364920 123.4116320  89.5203650
  14.9443450 119.5063960  88.3766370  15.3818320 120.0493630  89.0323950
  15.4291180 118.6810910  88.3862710  12.1589250 122.2952990  95.8286630
  12.4892260 121.4274050  95.5965270  12.5880250 122.5011510  96.6591590
  16.7551170 120.6262000  93.4888600  16.4546710 120.5026970  94.3892510
  16.6488660 119.7670590  93.0804330  12.6479460 123.1623580  98.5668260
  12.2110450 123.3424380  99.3992410  13.2157140 123.9198200  98.4249980
  28.2841640 122.6640580 102.8545570  27.6843630 122.7233140 102.1109490
  28.4135540 121.7245560 102.9842420  12.4803890 115.6743810  94.9257140
  11.8252730 115.4055450  94.2816840  13.3181840 115.5648290  94.4759120
  29.9859520 118.0055980  95.5391410  30.3568350 117.2223300  95.1327380
  30.6261450 118.6945080  95.3608710  26.9693280 119.3892560 100.9521730
  26.1553120 119.8189720 101.2147520  27.3767480 120.0010970 100.3390780
  25.4294330 110.4685100  89.1475630  25.8479210 110.2816080  88.3072290
  25.1230390 109.6164150  89.4578560  28.9284060 115.3809240  92.8451430
  28.5527660 114.6137170  92.4132720  28.1987180 115.7631940  93.3326360
  13.5179820 116.0596380  99.4660480  13.8852860 115.9723780 100.3456500
  12.9490640 115.2962930  99.3667340  28.3183680 114.5280760 102.4790950
  28.0869770 114.2993510 101.5788900  28.5788230 115.4480310 102.4335840
  13.0695820 112.9705470 103.3718900  12.1751870 112.9372230 103.7112610
  13.6093370 113.1692260 104.1370150  26.7571750 109.7537190 105.2570650
  27.6341930 109.7620590 105.6404650  26.7692590 109.0168030 104.6463000
  11.6941970 112.8842740  90.8682470  10.7906050 113.1472940  90.6934130
  12.1782590 113.1553910  90.0882430  28.2035020 113.6066730  96.1458670
  28.7272500 113.1129380  95.5148840  28.7894440 113.7417090  96.8906240
  28.3824740 113.6906600  99.6678220  27.4327450 113.6570140  99.7823210
  28.5637750 114.6006710  99.4327990  14.2369180 111.9408280  88.7776850
  14.9460880 111.5191500  88.2924130  13.5209120 112.0083510  88.1460200
  13.8843340 107.9947610  87.8179500  14.6071470 108.5356550  88.1360720
  14.1567860 107.7211030  86.9421040  27.6934990 112.8640080  92.0851080
  28.1894110 112.6310950  92.8699960  27.4951060 112.0251920  91.6688720
  13.5735530 107.2453800  97.7202120  14.2211720 106.6951180  97.2797280
  13.9937370 107.4996950  98.5417930  27.4687870 107.4395160 101.0771760
  28.1060090 108.0529300 101.4430950  27.6162760 107.4755820 100.1320990
  30.0112420 109.3308950  87.8594900  30.9361730 109.1990130  87.6513190
  29.9888210 109.4101770  88.8131350  30.0850910 110.1019610  90.4851610
  29.2902410 110.0364730  91.0144520  30.2894190 111.0370250  90.4736960
  27.0269330 124.1411160  94.4790000  27.6228400 123.8195730  93.8024420
  27.2847480 123.6682980  95.2703270  13.3267530 107.4009470 100.4627440
  12.9782350 107.8573290 101.2285620  12.9955230 106.5066600 100.5449870
  14.9331900 120.5729070 104.6280630  14.8901530 120.2021980 105.5095090
  15.0642910 121.5106640 104.7682450  18.6337930 122.1288660 100.2290350
  18.3929290 122.3963220  99.3420870  19.5740570 122.2994390 100.2841210
  20.8392350 108.5921350 103.9846860  20.7781240 109.1843180 104.7342270
  21.7792730 108.4847310 103.8397120  23.4766910 108.2491410 103.6239150
  24.0907320 108.5670700 102.9620230  24.0216470 107.7640000 104.2435010
  29.8942090 124.1483040 101.0300990  29.4000370 124.5451910 100.3128120
  29.2855380 123.5232250 101.4238270  13.9988170 106.9285670 103.7378210
  14.5471160 106.7473720 102.9744320  14.0643480 106.1379780 104.2734520
  14.7719930 123.5191320 101.7478410  14.1780250 123.3876020 102.4868450
  14.7643770 122.6829460 101.2820510  24.2174950 106.8123550  99.9508440
  23.3434790 107.1458660  99.7481370  24.1085700 106.3396730 100.7760310
  25.1246930 109.0194420 101.3350160  24.7960290 108.2046180 100.9551890
  26.0729230 108.9764230 101.2115850  27.5781540 124.7906460  98.3087730
  27.1184510 125.5422270  97.9345750  26.9494000 124.0712930  98.2502530
  14.4032160 120.8849700 100.6986450  13.6766220 120.2654990 100.6312400
  14.4641310 121.2790310  99.8284530  18.0077260 123.0994700  97.4835860
  18.5242280 122.4882060  96.9584120  18.6574640 123.6023480  97.9746870
  20.7472760 123.9903190  98.3104840  21.0350570 123.7357490  97.4337850
  21.2595980 123.4380550  98.9010410  21.9649770 107.7293390  98.8901350
  21.1821560 108.2038890  99.1698110  21.6712700 106.8248220  98.7814530
  12.6862160 124.2024090  93.9083210  12.5184200 123.5694770  94.6065100
  11.8196670 124.4083490  93.5577400  13.3090180 108.0340870  91.4115070
  14.0669540 108.1469750  90.8379100  12.8467350 108.8710070  91.3658500
  19.8503990 110.1480140  94.4017380  19.0378500 109.7737030  94.0613260
  20.3545630 109.3925220  94.7038570  14.2924860 122.8957320  91.3533350
  13.7672480 123.2765350  90.6495310  14.2169440 123.5208090  92.0743060
  15.6815330 108.5604920  89.9517040  16.2108090 107.7734720  89.8224990
  16.3143650 109.2396110  90.1852570  20.8145120 124.9119290 105.6773040
  21.7412430 124.6763560 105.7209000  20.7995550 125.7391290 105.1959070
  29.0490180 124.4544860  92.6747290  29.2242370 123.7682600  92.0308210
  28.3511750 124.9791910  92.2823960  18.0008730 107.5764040 105.4414920
  17.7193000 108.0797640 104.6775740  18.3828430 106.7785790 105.0757050
  16.8917830 124.8439700  90.2282600  17.6236650 124.5598980  89.6806490
  17.1511500 124.6052980  91.1181980  16.0532620 120.9604430  90.2328930
  15.4241500 121.4289530  90.7814760  16.1680450 120.1153650  90.6675120
  24.6024190 106.9917620 106.0195390  24.4889640 107.3112230 106.9146910
  25.4193930 107.3930130 105.7232670  27.3822680 124.1389150 105.5014080
  28.1748000 123.6438380 105.2940040  27.6755830 124.8179290 106.1089690
  23.5082340 115.0110090  76.3830130  23.4276390 114.0964700  76.1121840
  23.0946760 115.5077160  75.6769840  21.6400380 116.7889110  78.2639400
  20.8642480 116.3089550  78.5537970  22.2913310 116.1094760  78.0895560
  15.6566210 117.1008920  79.1415160  14.8251090 116.8457630  79.5411670
  16.2647190 117.1719690  79.8773080  25.6607810 121.1949300  77.0438530
  25.1989340 120.4236540  77.3725700  26.4733360 121.2215370  77.5490980
  15.6367470 121.1349010  79.3373180  15.9395510 120.2446750  79.1583400
  16.3811060 121.6919230  79.1095430  14.0658160 112.0610810  72.9257550
  13.1774860 112.4026780  72.8237430  14.3499350 111.8611130  72.0338380
  12.0291170 114.6616460  78.8097250  12.6007280 113.8938660  78.8100890
  12.0292710 114.9605220  77.9003860  21.8871120 123.4807310  76.6642520
  21.2682560 123.9364810  76.0936960  22.7422900 123.6358770  76.2632220
  21.0809370 119.4646300  78.2709560  21.0117650 118.5236240  78.1098690
  21.8429230 119.5547710  78.8432130  13.2716040 110.0700820  80.5966180
  13.0918880 109.1726570  80.8768940  12.8696120 110.6172690  81.2713130
  22.1114540 112.2716680  78.4978490  22.4879360 111.3988560  78.3852160
  22.0134050 112.6075380  77.6068930  16.2419550 110.6442310  73.9595930
  16.3486300 111.5446040  74.2664690  15.3311910 110.5960280  73.6690580
  13.8902710 112.5661320  79.2048520  14.5712820 112.8299690  79.8235920
  13.5750760 111.7262190  79.5386530  18.0827280 113.6128680  78.2921110
  18.5905500 114.1109650  78.9326130  18.6140520 112.8363880  78.1160470
  30.1838210 111.7833870  81.9950460  29.4790380 112.1715580  81.4765570
  30.4496130 112.4784160  82.5971390  16.3663380 108.2527240  82.5584530
  16.3681820 108.7699630  81.7530430  15.5367690 107.7757420  82.5354460
  22.7534470 118.3646550  74.0574430  22.1351740 118.8296000  73.4937150
  23.2657720 119.0574030  74.4743940  17.6166230 117.8922420  80.7358030
  17.2835610 118.5191340  81.3779100  17.7932910 118.4184300  79.9559700
  26.1300140 111.7067500  78.2034370  25.4255710 111.9952390  78.7837480
  26.4912300 112.5167610  77.8433930  16.0478710 109.9637200  80.5654980
  16.3895520 110.8079250  80.2708850  15.1094520 110.1120940  80.6820320
  16.8285330 119.8603220  82.5507210  17.4459330 120.5354300  82.2691660
  15.9678450 120.2691200  82.4594710  12.1217670 119.0503080  71.4314060
  11.7445650 119.5390180  70.6998960  12.3790740 119.7228360  72.0620590
  27.7462920 121.3242630  80.4661850  27.0626440 121.9941740  80.4578520
  28.2857210 121.5223280  79.7006710  19.7306600 107.4519470  76.8899570
  20.0381580 106.8966360  76.1735070  18.8007300 107.5863930  76.7072560
  25.2821660 123.1686760  79.1807030  25.2948820 122.7649050  78.3129290
  24.7296880 123.9434050  79.0768460  26.5767080 119.8902980  74.2697200
  26.4663410 118.9477310  74.3946620  26.5735330 120.2518620  75.1559960
  22.1187360 115.5168300  73.6259690  21.1916640 115.4505680  73.8548160
  22.2712180 116.4548430  73.5114930  22.1056440 111.7885300  70.6226850
  21.1660110 111.9499260  70.7079310  22.4239700 112.5070980  70.0762840
  26.1484650 117.0788600  74.1294940  25.5297070 116.7408150  73.4821240
  26.1309100 116.4348360  74.8374130  25.5911210 113.2573140  81.5460750
  25.1782390 114.0826850  81.8000740  24.8587160 112.6718180  81.3537110
  17.7244000 116.0433040  76.4079420  17.3201000 115.3310290  75.9125320
  17.8107120 115.6986280  77.2967460  18.1925700 119.7300600  78.5718630
  17.8953990 119.1246070  77.8926410  19.1425520 119.7677910  78.4607990
  16.4372620 112.8176250  80.1878460  16.9887210 112.9271590  79.4131710
  16.9516130 113.1913850  80.9033690  26.2811310 123.3032470  82.2341730
  25.8041870 124.1104660  82.0414340  25.5973100 122.6510800  82.3867940
  17.2844130 119.4682290  85.2226430  16.3872660 119.6922260  85.4699830
  17.3097000 119.5917230  84.2737830  24.3249350 116.3175410  71.1367690
  24.7642630 115.4797840  70.9905510  25.0377770 116.9504810  71.2231830
  16.1115350 116.3395610  83.7983800  15.9723120 117.2118410  84.1671200
  15.2296710 115.9968420  83.6531740  22.4344730 121.2571480  75.1048930
  22.8740640 121.9995810  74.6904320  22.3731620 121.4998050  76.0287890
  17.9095700 122.2817310  86.0068950  17.8811130 122.6860260  85.1397380
  17.7460670 121.3527670  85.8440550  27.9066490 107.5718220  69.4508730
  27.5939150 107.6645050  70.3507800  28.6678960 108.1499250  69.4006160
  14.4248630 114.9378020  73.9086070  14.3046230 115.6640110  73.2967340
  14.1149520 114.1680930  73.4313980  29.8610520 123.0644410  87.3033120
  30.3370240 123.5427300  87.9822200  30.4817680 122.9961900  86.5778620
  12.0634000 118.1093160  79.7154710  12.1414420 118.2441930  78.7710430
  12.6775680 117.4009050  79.9082830  13.3081630 119.8093350  76.1260890
  12.9009710 119.9507940  75.2714490  14.1994640 119.5253510  75.9232100
  23.1260510 123.9585260  83.0327940  23.6405180 123.8693270  83.8350370
  22.2829590 124.3044960  83.3255850  25.1014910 124.2440600  72.4611940
  24.9416050 123.9543540  73.3593770  24.9361620 123.4680730  71.9257170
  17.5803290 124.0239130  74.2383560  17.4045770 123.1074670  74.0251360
  16.7259030 124.3826420  74.4781360  24.8041040 121.7528160  71.0209940
  24.1106200 121.7505450  70.3612220  25.5463900 121.3287480  70.5904110
  24.3690970 123.3790870  75.0958430  24.8247920 122.5980250  75.4097050
  24.7083490 124.0897690  75.6399610  29.1167780 112.3089720  85.4282870
  28.5012050 112.8169390  84.8998330  28.7964200 111.4088050  85.3708810
  12.1193520 119.1507330  82.2549170  12.2824560 118.6812690  81.4368540
  12.5845970 118.6430890  82.9198010  16.8912290 108.2813090  77.2909740
  16.4480440 109.0622630  76.9594260  17.4497280 108.6042980  77.9980680
  21.1782100 111.1481610  82.8945060  20.7161470 111.3564630  83.7065000
  20.7760210 110.3340960  82.5915730  26.1786610 112.3690560  84.0241720
  25.3280200 112.0696310  84.3450790  26.0188400 112.6132570  83.1125540
  23.2736320 113.8692310  86.1240510  23.5989730 113.0356060  85.7842740
  24.0616650 114.3920830  86.2718840  20.0071110 107.9023790  72.1715570
  19.3825290 107.8983660  72.8968880  19.9201230 107.0354750  71.7751540
  18.9288190 108.8260420  79.1499340  19.2260520 109.7323250  79.0691360
  19.4773750 108.3379200  78.5358910  16.6826510 113.4046660  75.0190990
  16.4567430 113.1883830  75.9237610  15.9019040 113.8375120  74.6736960
  23.9124270 113.4110030  73.6181640  23.3133160 114.1345830  73.4345260
  24.4603880 113.3486810  72.8358090  19.1225720 114.3032240  85.6851260
  19.0269320 113.3626970  85.5351660  19.9657700 114.5247310  85.2899330
  22.5189140 112.0473570  75.6484920  22.9118710 112.3645770  74.8353610
  22.8805990 111.1685450  75.7629440  14.2536260 110.7145910  83.8385040
  13.8599650 111.5621120  84.0457820  13.5654660 110.0772280  84.0293680
  20.8281310 110.7980880  86.9081780  20.1379630 110.6053080  87.5427870
  21.5713610 111.0815520  87.4406080  11.5553310 108.6374370  77.8715120
  11.2666360 109.2077230  78.5840100  12.2999070 108.1578820  78.2346350
  11.7423540 112.5794490  69.0817840  11.6598210 113.5225250  69.2232830
  11.3906600 112.4369400  68.2030190  23.1044280 114.6379320  79.7435700
  22.3725400 115.1466130  80.0925800  22.7068620 113.8209300  79.4424480
  19.5421670 111.3133520  78.1488190  19.5457730 110.8723470  77.2992730
  20.4372790 111.6350850  78.2560010  15.3924050 111.1960010  77.1082400
  15.0524100 111.6735240  77.8649450  14.6301370 110.7425130  76.7483500
  19.6041820 112.3145600  71.1394950  19.7254640 112.2732080  72.0880770
  19.2190330 113.1769750  70.9841680  23.5670190 110.0913000  79.1558640
  23.5842930 110.5421650  80.0000490  23.3185770 109.1918640  79.3692080
  18.6163320 114.6246740  70.5378250  18.0480220 114.1764990  69.9114160
  19.3252320 114.9839520  70.0043400  26.9940940 107.5045180  84.9945020
  27.3186710 106.7734840  85.5203000  27.0297450 107.1858820  84.0926010
  13.6932500 118.5258760  84.4144980  13.3087290 117.8852430  85.0127940
  14.0044690 119.2294880  84.9839710  19.8429640 115.3735300  79.8953600
  20.2099770 114.8993870  80.6414940  19.6534700 116.2476870  80.2361940
  12.7070130 110.1178990  76.0247070  12.4217050 109.7534660  76.8625690
  12.6448990 109.3859450  75.4110210  17.6329010 114.4143940  82.2137810
  17.3286080 115.2935920  82.4388170  18.5875470 114.4743730  82.2495250
  16.1610800 118.6204930  72.8104660  15.3873060 118.0802550  72.6503380
  16.8905430 118.1011540  72.4722420  22.3808720 109.0108250  72.7460440
  21.5673330 108.5121420  72.6705750  22.1870670 109.8506500  72.3296790
  22.3017580 117.6879350  84.4900050  22.2354890 116.7675020  84.2357640
  21.6722720 117.7854790  85.2044690  16.2048200 118.2885310  76.4483470
  16.7226870 117.4853570  76.3940360  15.7532220 118.2264450  77.2900300
  21.0917700 119.5551590  71.7210770  21.4333400 120.2993820  71.2254090
  20.2630410 119.8682710  72.0835600  13.6892740 115.2546680  83.3609170
  13.3307680 115.9200530  83.9482510  13.3947300 114.4230230  83.7321790
  16.8905860 115.7130920  86.2448720  16.5906000 115.8588100  85.3476540
  17.6617100 115.1536210  86.1522110  22.2334310 120.5099920  84.2403850
  22.2478850 119.5780880  84.0222760  21.5259410 120.5959680  84.8793620
  28.3958630 121.5482000  73.2384590  27.7534790 120.8937620  73.5128310
  28.0089290 121.9537090  72.4625260  23.9745110 118.8767430  77.0856280
  24.3268930 118.2795560  76.4257650  23.0907440 118.5511660  77.2564530
  20.0608390 119.6365120  74.4926690  20.7479520 120.1834330  74.8734280
  19.2740810 120.1805850  74.5276300  12.2000790 115.2537940  69.9843770
  13.0695640 115.5362740  70.2679690  11.7091110 116.0673810  69.8692580
  19.3635600 116.6411150  74.1052050  19.8198380 117.4516400  74.3312240
  19.0123810 116.3234290  74.9370540  21.6668210 122.1517490  81.3344350
  22.3110430 122.3576870  82.0117770  22.0297650 121.3905890  80.8815200
  15.2647380 106.9848800  74.5774570  15.1362010 106.9766700  75.5259490
  14.4409400 107.3231890  74.2265580  22.9400290 120.1549840  80.0521800
  23.5822520 119.4543000  80.1653970  23.4649640 120.9348280  79.8718690
  26.7856010 120.4398460  69.7760940  26.5593590 119.7228900  70.3685580
  26.3952210 120.1910900  68.9382690  12.5672040 124.4665320  70.5505400
  12.9269680 125.0654660  69.8962670  12.4264380 125.0125210  71.3240430
  12.2641310 108.7439920  84.0381270  11.5499830 108.9436840  84.6433880
  12.6836350 107.9679490  84.4096070  12.5513900 122.7320180  85.0247800
  12.6605020 121.7914920  84.8843190  11.8994460 122.9974930  84.3761530
  20.5426490 121.0036070  86.4245920  20.2223360 120.2845310  86.9691610
  19.8684850 121.6791140  86.4981980  18.5840660 121.8496520  71.3679070
  18.5750760 122.5826210  70.7523580  17.6639020 121.6028100  71.4606030
  14.1847300 117.0711410  72.1125830  13.5775250 117.8110310  72.1221130
  14.6596650 117.1610770  71.2864030  23.7580090 111.2362230  81.7882720
  24.1260910 110.4157440  82.1162290  22.8978290 111.2964120  82.2038370
  27.1242120 110.1919170  72.5970280  26.4955280 110.2964840  71.8828510
  26.6294040 110.4115950  73.3864160  21.5700260 121.9124760  70.0304260
  21.6712240 121.7088750  69.1006240  20.6702000 121.6583040  70.2352040
  19.0926150 112.4705120  74.0128160  18.3842300 112.9391460  74.4541770
  19.3770630 111.8127130  74.6473350  20.7182080 113.8901820  82.0120690
  21.2167330 114.3647640  82.6772540  20.8605030 112.9665340  82.2190720
  20.2118370 124.4311080  74.7251930  20.4659870 124.3932470  73.8031300
  19.2630850 124.3044410  74.7180180  17.2961170 110.7790200  71.3878870
  18.1451700 111.2160350  71.3219060  16.9292440 111.0910460  72.2150930
  26.2170950 115.3502960  76.3010440  25.2761090 115.3653190  76.4758130
  26.5315020 114.5638920  76.7470740  16.1952590 117.0322560  69.8614400
  16.9615860 116.9203920  70.4239830  16.2727280 116.3360530  69.2091170
  14.8899350 114.4647630  70.5447290  14.9702940 113.5175140  70.6564690
  15.7819100 114.7954510  70.6507950  28.2196530 122.5211810  77.9764700
  28.3443950 123.3442980  78.4488510  29.0862090 122.3102540  77.6288850
  15.6914060 124.6143020  77.6481830  16.4276540 124.0658480  77.9190400
  16.0754980 125.4799030  77.5087820  12.5759540 120.6816590  73.5223340
  11.6499320 120.9237730  73.5128750  13.0415970 121.5090850  73.4008090
  14.6972340 123.7989090  86.8367410  15.4985070 124.1201140  87.2502810
  14.1824160 123.4384670  87.5587320  18.8016370 123.7873330  69.4707400
  19.5944980 124.0762160  69.0189190  18.2820720 123.3565500  68.7919880
  23.5336970 119.9068960  86.7842820  22.9275130 119.9300560  86.0438570
  23.2291080 119.1752000  87.3210070  24.9637340 123.6349250  85.3952230
  25.9159090 123.5507270  85.3452470  24.8165560 124.2990960  86.0686020
  27.8546540 123.0143460  70.8944140  27.5688050 122.6008600  70.0798320
  27.6566090 123.9431170  70.7744660  12.4170150 116.2862550  85.7803460
  12.9209170 115.7069830  86.3519690  11.6777570 116.5702780  86.3179830
  19.3193770 119.0076740  69.3349750  19.2144410 118.3929090  70.0611130
  19.1517990 118.4842630  68.5512760  19.4708090 117.6933540  85.3138980
  18.7053760 118.2618540  85.2293650  19.6524050 117.4009750  84.4207210
  22.5596500 118.0696770  69.9391740  22.0106600 118.5166070  70.5834480
  23.1815760 117.5646020  70.4629410  14.4493230 114.4292140  86.6753530
  14.4898570 114.1306010  87.5838760  15.3038730 114.8299750  86.5161050
  18.2271620 117.0287690  71.8357040  18.6488040 116.8627560  72.6788430
  18.3522460 116.2187920  71.3412180  16.3899040 113.0084240  84.6428020
  15.8595500 112.5175190  84.0151360  17.0587110 113.4368440  84.1085950
  20.7399260 116.0525300  69.0834140  21.2604920 115.3374320  68.7175290
  21.3867660 116.6911170  69.3834650  25.7599270 114.8149860  86.4108360
  26.3420040 114.0602180  86.3228840  25.9361040 115.3457300  85.6339840
  16.8771340 109.9746610  84.7225310  16.7828210 109.3567360  83.9976180
  16.2968730 110.7012900  84.4955220  19.6432780 108.5319850  81.7552700
  19.1950080 108.5544110  80.9098250  19.0097980 108.1338870  82.3523000
  20.0492330 117.4274180  82.3765140  20.4680440 118.2706910  82.2041380
  19.1300960 117.5646220  82.1471920  22.3856230 115.1590360  83.7602980
  22.5052440 114.5631500  84.4997820  23.2450230 115.1960050  83.3404280
  17.1230520 113.1020920  68.7815200  16.9219580 112.2388280  69.1428540
  16.9522570 113.0154280  67.8436800  17.8999750 123.7327190  83.4922870
  17.3620840 124.4573250  83.1731570  18.1533710 123.2557530  82.7020210
  19.1525000 111.7011710  85.0178800  19.7424690 111.3927560  85.7056620
  18.3345240 111.2291460  85.1738700  23.9718430 111.3177520  85.2511820
  23.2833950 110.6559060  85.1861810  24.6924450 110.8715790  85.6960280
  24.6018830 107.9129150  71.3102080  24.8821120 107.0697050  71.6661500
  23.8284560 108.1452260  71.8240830  15.9213320 110.2021540  68.7693080
  16.2239220 110.2088970  67.8612230  16.6607910 109.8519400  69.2660740
  20.7561960 124.9678400  83.7509520  20.6820660 125.8713540  84.0581890
  19.8540800 124.6490300  83.7231590  19.1398250 109.1456160  69.7549280
  18.7920250 108.4680150  69.1751730  19.3411020 108.6845670  70.5692670
  21.3047290 124.1336910  71.3735880  22.1998080 124.4721880  71.3954640
  21.3364920 123.4116320  70.7460160  14.9443450 119.5063960  69.6022880
  15.3818320 120.0493630  70.2580460  15.4291180 118.6810910  69.6119220
  12.1589250 122.2952990  77.0543140  12.4892260 121.4274050  76.8221780
  12.5880250 122.5011510  77.8848100  16.7551170 120.6262000  74.7145110
  16.4546710 120.5026970  75.6149020  16.6488660 119.7670590  74.3060840
  12.6479460 123.1623580  79.7924770  12.2110450 123.3424380  80.6248920
  13.2157140 123.9198200  79.6506490  28.2841640 122.6640580  84.0802080
  27.6843630 122.7233140  83.3366000  28.4135540 121.7245560  84.2098930
  29.5243090 120.4058400  69.4171790  28.6936050 120.4735050  69.8879020
  29.7014920 121.2962520  69.1138650  12.4803890 115.6743810  76.1513650
  11.8252730 115.4055450  75.5073350  13.3181840 115.5648290  75.7015630
  29.9859520 118.0055980  76.7647920  30.3568350 117.2223300  76.3583890
  30.6261450 118.6945080  76.5865220  25.4294330 110.4685100  70.3732140
  25.8479210 110.2816080  69.5328800  25.1230390 109.6164150  70.6835070
  13.5179820 116.0596380  80.6916990  13.8852860 115.9723780  81.5713010
  12.9490640 115.2962930  80.5923850  13.0695820 112.9705470  84.5975410
  12.1751870 112.9372230  84.9369120  13.6093370 113.1692260  85.3626660
  26.7571750 109.7537190  86.4827160  27.6341930 109.7620590  86.8661160
  26.7692590 109.0168030  85.8719510  11.6941970 112.8842740  72.0938980
  10.7906050 113.1472940  71.9190640  12.1782590 113.1553910  71.3138940
  28.2035020 113.6066730  77.3715180  28.7272500 113.1129380  76.7405350
  28.7894440 113.7417090  78.1162750  28.3824740 113.6906600  80.8934730
  27.4327450 113.6570140  81.0079720  28.5637750 114.6006710  80.6584500
  14.2369180 111.9408280  70.0033360  14.9460880 111.5191500  69.5180640
  13.5209120 112.0083510  69.3716710  13.8843340 107.9947610  69.0436010
  14.6071470 108.5356550  69.3617230  14.1567860 107.7211030  68.1677550
  13.5735530 107.2453800  78.9458630  14.2211720 106.6951180  78.5053790
  13.9937370 107.4996950  79.7674440  29.1222150 111.5001030  75.8445270
  29.0121430 111.3457070  76.7827540  29.8829740 110.9721970  75.6020680
  27.0269330 124.1411160  75.7046510  27.6228400 123.8195730  75.0280930
  27.2847480 123.6682980  76.4959780  13.3267530 107.4009470  81.6883950
  12.9782350 107.8573290  82.4542130  12.9955230 106.5066600  81.7706380
  14.9331900 120.5729070  85.8537140  14.8901530 120.2021980  86.7351600
  15.0642910 121.5106640  85.9938960  18.6337930 122.1288660  81.4546860
  18.3929290 122.3963220  80.5677380  19.5740570 122.2994390  81.5097720
  20.8392350 108.5921350  85.2103370  20.7781240 109.1843180  85.9598780
  21.7792730 108.4847310  85.0653630  23.4766910 108.2491410  84.8495660
  24.0907320 108.5670700  84.1876740  24.0216470 107.7640000  85.4691520
  29.8942090 124.1483040  82.2557500  29.4000370 124.5451910  81.5384630
  29.2855380 123.5232250  82.6494780  13.9988170 106.9285670  84.9634720
  14.5471160 106.7473720  84.2000830  14.0643480 106.1379780  85.4991030
  14.7719930 123.5191320  82.9734920  14.1780250 123.3876020  83.7124960
  14.7643770 122.6829460  82.5077020  25.1246930 109.0194420  82.5606670
  24.7960290 108.2046180  82.1808400  26.0729230 108.9764230  82.4372360
  27.5781540 124.7906460  79.5344240  27.1184510 125.5422270  79.1602260
  26.9494000 124.0712930  79.4759040  14.4032160 120.8849700  81.9242960
  13.6766220 120.2654990  81.8568910  14.4641310 121.2790310  81.0541040
  18.0077260 123.0994700  78.7092370  18.5242280 122.4882060  78.1840630
  18.6574640 123.6023480  79.2003380  20.7472760 123.9903190  79.5361350
  21.0350570 123.7357490  78.6594360  21.2595980 123.4380550  80.1266920
  21.9649770 107.7293390  80.1157860  21.1821560 108.2038890  80.3954620
  21.6712700 106.8248220  80.0071040  28.3809410 108.0631730  76.1715770
  28.3197810 107.1192950  76.0246790  29.1601440 108.1711820  76.7169230
  12.6862160 124.2024090  75.1339720  12.5184200 123.5694770  75.8321610
  11.8196670 124.4083490  74.7833910  13.3090180 108.0340870  72.6371580
  14.0669540 108.1469750  72.0635610  12.8467350 108.8710070  72.5915010
  19.8503990 110.1480140  75.6273890  19.0378500 109.7737030  75.2869770
  20.3545630 109.3925220  75.9295080  27.4963570 107.2144150  72.1397240
  27.6914200 108.1127600  72.4064670  26.7093440 106.9831230  72.6330190
  14.2924860 122.8957320  72.5789860  13.7672480 123.2765350  71.8751820
  14.2169440 123.5208090  73.2999570  15.6815330 108.5604920  71.1773550
  16.2108090 107.7734720  71.0481500  16.3143650 109.2396110  71.4109080
  17.8753170 108.2980060  74.2318940  17.2455910 107.5967370  74.3989070
  17.3358310 109.0584190  74.0152100  20.8145120 124.9119290  86.9029550
  21.7412430 124.6763560  86.9465510  20.7995550 125.7391290  86.4215580
  29.0490180 124.4544860  73.9003800  29.2242370 123.7682600  73.2564720
  28.3511750 124.9791910  73.5080470  16.8917830 124.8439700  71.4539110
  17.6236650 124.5598980  70.9063000  17.1511500 124.6052980  72.3438490
  16.0532620 120.9604430  71.4585440  15.4241500 121.4289530  72.0071270
  16.1680450 120.1153650  71.8931630  24.6024190 106.9917620  87.2451900
  24.4889640 107.3112230  88.1403420  25.4193930 107.3930130  86.9489180
  27.3822680 124.1389150  86.7270590  28.1748000 123.6438380  86.5196550
  27.6755830 124.8179290  87.3346200  21.6400380 116.7889110  59.4895910
  20.8642480 116.3089550  59.7794480  22.2913310 116.1094760  59.3152070
  15.6566210 117.1008920  60.3671670  14.8251090 116.8457630  60.7668180
  16.2647190 117.1719690  61.1029590  25.6607810 121.1949300  58.2695040
  25.1989340 120.4236540  58.5982210  26.4733360 121.2215370  58.7747490
  15.6367470 121.1349010  60.5629690  15.9395510 120.2446750  60.3839910
  16.3811060 121.6919230  60.3351940  14.0658160 112.0610810  54.1514060
  13.1774860 112.4026780  54.0493940  14.3499350 111.8611130  53.2594890
  12.0291170 114.6616460  60.0353760  12.6007280 113.8938660  60.0357400
  12.0292710 114.9605220  59.1260370  21.8871120 123.4807310  57.8899030
  21.2682560 123.9364810  57.3193470  22.7422900 123.6358770  57.4888730
  21.0809370 119.4646300  59.4966070  21.0117650 118.5236240  59.3355200
  21.8429230 119.5547710  60.0688640  13.2716040 110.0700820  61.8222690
  13.0918880 109.1726570  62.1025450  12.8696120 110.6172690  62.4969640
  22.1114540 112.2716680  59.7235000  22.4879360 111.3988560  59.6108670
  22.0134050 112.6075380  58.8325440  16.2419550 110.6442310  55.1852440
  16.3486300 111.5446040  55.4921200  15.3311910 110.5960280  54.8947090
  13.8902710 112.5661320  60.4305030  14.5712820 112.8299690  61.0492430
  13.5750760 111.7262190  60.7643040  18.0827280 113.6128680  59.5177620
  18.5905500 114.1109650  60.1582640  18.6140520 112.8363880  59.3416980
  16.3663380 108.2527240  63.7841040  16.3681820 108.7699630  62.9786940
  15.5367690 107.7757420  63.7610970  22.7534470 118.3646550  55.2830940
  22.1351740 118.8296000  54.7193660  23.2657720 119.0574030  55.7000450
  17.6166230 117.8922420  61.9614540  17.2835610 118.5191340  62.6035610
  17.7932910 118.4184300  61.1816210  16.0478710 109.9637200  61.7911490
  16.3895520 110.8079250  61.4965360  15.1094520 110.1120940  61.9076830
  16.8285330 119.8603220  63.7763720  17.4459330 120.5354300  63.4948170
  15.9678450 120.2691200  63.6851220  12.1217670 119.0503080  52.6570570
  11.7445650 119.5390180  51.9255470  12.3790740 119.7228360  53.2877100
  27.7462920 121.3242630  61.6918360  27.0626440 121.9941740  61.6835030
  28.2857210 121.5223280  60.9263220  19.7306600 107.4519470  58.1156080
  20.0381580 106.8966360  57.3991580  18.8007300 107.5863930  57.9329070
  25.2821660 123.1686760  60.4063540  25.2948820 122.7649050  59.5385800
  24.7296880 123.9434050  60.3024970  26.5767080 119.8902980  55.4953710
  26.4663410 118.9477310  55.6203130  26.5735330 120.2518620  56.3816470
  24.6807100 118.0716600  61.7346150  25.0975890 117.8576710  60.8999610
  25.4046920 118.3289390  62.3054770  22.1187360 115.5168300  54.8516200
  21.1916640 115.4505680  55.0804670  22.2712180 116.4548430  54.7371440
  22.1056440 111.7885300  51.8483360  21.1660110 111.9499260  51.9335820
  22.4239700 112.5070980  51.3019350  25.5911210 113.2573140  62.7717260
  25.1782390 114.0826850  63.0257250  24.8587160 112.6718180  62.5793620
  17.7244000 116.0433040  57.6335930  17.3201000 115.3310290  57.1381830
  17.8107120 115.6986280  58.5223970  18.1925700 119.7300600  59.7975140
  17.8953990 119.1246070  59.1182920  19.1425520 119.7677910  59.6864500
  16.4372620 112.8176250  61.4134970  16.9887210 112.9271590  60.6388220
  16.9516130 113.1913850  62.1290200  26.2811310 123.3032470  63.4598240
  25.8041870 124.1104660  63.2670850  25.5973100 122.6510800  63.6124450
  17.2844130 119.4682290  66.4482940  16.3872660 119.6922260  66.6956340
  17.3097000 119.5917230  65.4994340  24.3249350 116.3175410  52.3624200
  24.7642630 115.4797840  52.2162020  25.0377770 116.9504810  52.4488340
  16.1115350 116.3395610  65.0240310  15.9723120 117.2118410  65.3927710
  15.2296710 115.9968420  64.8788250  22.4344730 121.2571480  56.3305440
  22.8740640 121.9995810  55.9160830  22.3731620 121.4998050  57.2544400
  17.9095700 122.2817310  67.2325460  17.8811130 122.6860260  66.3653890
  17.7460670 121.3527670  67.0697060  14.4248630 114.9378020  55.1342580
  14.3046230 115.6640110  54.5223850  14.1149520 114.1680930  54.6570490
  29.8610520 123.0644410  68.5289630  30.3370240 123.5427300  69.2078710
  30.4817680 122.9961900  67.8035130  12.0634000 118.1093160  60.9411220
  12.1414420 118.2441930  59.9966940  12.6775680 117.4009050  61.1339340
  13.3081630 119.8093350  57.3517400  12.9009710 119.9507940  56.4971000
  14.1994640 119.5253510  57.1488610  29.2643770 120.2557260  65.6889640
  29.3906830 120.0169140  64.7706820  29.3065150 119.4241800  66.1611720
  23.1260510 123.9585260  64.2584450  23.6405180 123.8693270  65.0606880
  22.2829590 124.3044960  64.5512360  25.1014910 124.2440600  53.6868450
  24.9416050 123.9543540  54.5850280  24.9361620 123.4680730  53.1513680
  17.5803290 124.0239130  55.4640070  17.4045770 123.1074670  55.2507870
  16.7259030 124.3826420  55.7037870  24.8041040 121.7528160  52.2466450
  24.1106200 121.7505450  51.5868730  25.5463900 121.3287480  51.8160620
  24.3690970 123.3790870  56.3214940  24.8247920 122.5980250  56.6353560
  24.7083490 124.0897690  56.8656120  12.1193520 119.1507330  63.4805680
  12.2824560 118.6812690  62.6625050  12.5845970 118.6430890  64.1454520
  16.8912290 108.2813090  58.5166250  16.4480440 109.0622630  58.1850770
  17.4497280 108.6042980  59.2237190  21.1782100 111.1481610  64.1201570
  20.7161470 111.3564630  64.9321510  20.7760210 110.3340960  63.8172240
  26.1786610 112.3690560  65.2498230  25.3280200 112.0696310  65.5707300
  26.0188400 112.6132570  64.3382050  23.2736320 113.8692310  67.3497020
  23.5989730 113.0356060  67.0099250  24.0616650 114.3920830  67.4975350
  20.0071110 107.9023790  53.3972080  19.3825290 107.8983660  54.1225390
  19.9201230 107.0354750  53.0008050  18.9288190 108.8260420  60.3755850
  19.2260520 109.7323250  60.2947870  19.4773750 108.3379200  59.7615420
  16.6826510 113.4046660  56.2447500  16.4567430 113.1883830  57.1494120
  15.9019040 113.8375120  55.8993470  23.9124270 113.4110030  54.8438150
  23.3133160 114.1345830  54.6601770  24.4603880 113.3486810  54.0614600
  19.1225720 114.3032240  66.9107770  19.0269320 113.3626970  66.7608170
  19.9657700 114.5247310  66.5155840  22.5189140 112.0473570  56.8741430
  22.9118710 112.3645770  56.0610120  22.8805990 111.1685450  56.9885950
  14.2536260 110.7145910  65.0641550  13.8599650 111.5621120  65.2714330
  13.5654660 110.0772280  65.2550190  20.8281310 110.7980880  68.1338290
  20.1379630 110.6053080  68.7684380  21.5713610 111.0815520  68.6662590
  11.5553310 108.6374370  59.0971630  11.2666360 109.2077230  59.8096610
  12.2999070 108.1578820  59.4602860  11.7423540 112.5794490  50.3074350
  11.6598210 113.5225250  50.4489340  11.3906600 112.4369400  49.4286700
  23.1044280 114.6379320  60.9692210  22.3725400 115.1466130  61.3182310
  22.7068620 113.8209300  60.6680990  19.5421670 111.3133520  59.3744700
  19.5457730 110.8723470  58.5249240  20.4372790 111.6350850  59.4816520
  15.3924050 111.1960010  58.3338910  15.0524100 111.6735240  59.0905960
  14.6301370 110.7425130  57.9740010  19.6041820 112.3145600  52.3651460
  19.7254640 112.2732080  53.3137280  19.2190330 113.1769750  52.2098190
  18.6163320 114.6246740  51.7634760  18.0480220 114.1764990  51.1370670
  19.3252320 114.9839520  51.2299910  13.6932500 118.5258760  65.6401490
  13.3087290 117.8852430  66.2384450  14.0044690 119.2294880  66.2096220
  19.8429640 115.3735300  61.1210110  20.2099770 114.8993870  61.8671450
  19.6534700 116.2476870  61.4618450  12.7070130 110.1178990  57.2503580
  12.4217050 109.7534660  58.0882200  12.6448990 109.3859450  56.6366720
  17.6329010 114.4143940  63.4394320  17.3286080 115.2935920  63.6644680
  18.5875470 114.4743730  63.4751760  16.1610800 118.6204930  54.0361170
  15.3873060 118.0802550  53.8759890  16.8905430 118.1011540  53.6978930
  22.3808720 109.0108250  53.9716950  21.5673330 108.5121420  53.8962260
  22.1870670 109.8506500  53.5553300  22.3017580 117.6879350  65.7156560
  22.2354890 116.7675020  65.4614150  21.6722720 117.7854790  66.4301200
  25.0957110 113.3827900  52.2679110  25.9836730 113.6945130  52.0930450
  25.0662200 112.5100150  51.8759690  16.2048200 118.2885310  57.6739980
  16.7226870 117.4853570  57.6196870  15.7532220 118.2264450  58.5156810
  21.0917700 119.5551590  52.9467280  21.4333400 120.2993820  52.4510600
  20.2630410 119.8682710  53.3092110  13.6892740 115.2546680  64.5865680
  13.3307680 115.9200530  65.1739020  13.3947300 114.4230230  64.9578300
  16.8905860 115.7130920  67.4705230  16.5906000 115.8588100  66.5733050
  17.6617100 115.1536210  67.3778620  22.2334310 120.5099920  65.4660360
  22.2478850 119.5780880  65.2479270  21.5259410 120.5959680  66.1050130
  27.3671380 114.6939740  51.7358970  27.2835100 115.1253960  50.8855410
  28.0865570 115.1538090  52.1685790  28.3958630 121.5482000  54.4641100
  27.7534790 120.8937620  54.7384820  28.0089290 121.9537090  53.6881770
  23.9745110 118.8767430  58.3112790  24.3268930 118.2795560  57.6514160
  23.0907440 118.5511660  58.4821040  20.0608390 119.6365120  55.7183200
  20.7479520 120.1834330  56.0990790  19.2740810 120.1805850  55.7532810
  12.2000790 115.2537940  51.2100280  13.0695640 115.5362740  51.4936200
  11.7091110 116.0673810  51.0949090  19.3635600 116.6411150  55.3308560
  19.8198380 117.4516400  55.5568750  19.0123810 116.3234290  56.1627050
  21.6668210 122.1517490  62.5600860  22.3110430 122.3576870  63.2374280
  22.0297650 121.3905890  62.1071710  15.2647380 106.9848800  55.8031080
  15.1362010 106.9766700  56.7516000  14.4409400 107.3231890  55.4522090
  22.9400290 120.1549840  61.2778310  23.5822520 119.4543000  61.3910480
  23.4649640 120.9348280  61.0975200  26.7856010 120.4398460  51.0017450
  26.5593590 119.7228900  51.5942090  26.3952210 120.1910900  50.1639200
  24.7137910 120.9544740  64.4814370  25.0494150 121.5411430  65.1592290
  23.7938250 120.8237450  64.7112160  12.5672040 124.4665320  51.7761910
  12.9269680 125.0654660  51.1219180  12.4264380 125.0125210  52.5496940
  12.2641310 108.7439920  65.2637780  11.5499830 108.9436840  65.8690390
  12.6836350 107.9679490  65.6352580  26.3672260 118.3570400  52.6631610
  26.0793960 118.8183090  53.4509490  27.1624430 117.8968170  52.9315830
  12.5513900 122.7320180  66.2504310  12.6605020 121.7914920  66.1099700
  11.8994460 122.9974930  65.6018040  20.5426490 121.0036070  67.6502430
  20.2223360 120.2845310  68.1948120  19.8684850 121.6791140  67.7238490
  18.5840660 121.8496520  52.5935580  18.5750760 122.5826210  51.9780090
  17.6639020 121.6028100  52.6862540  14.1847300 117.0711410  53.3382340
  13.5775250 117.8110310  53.3477640  14.6596650 117.1610770  52.5120540
  27.1242120 110.1919170  53.8226790  26.4955280 110.2964840  53.1085020
  26.6294040 110.4115950  54.6120670  21.5700260 121.9124760  51.2560770
  21.6712240 121.7088750  50.3262750  20.6702000 121.6583040  51.4608550
  19.0926150 112.4705120  55.2384670  18.3842300 112.9391460  55.6798280
  19.3770630 111.8127130  55.8729860  20.7182080 113.8901820  63.2377200
  21.2167330 114.3647640  63.9029050  20.8605030 112.9665340  63.4447230
  23.1241580 109.1955780  56.6780460  23.0009360 109.2141910  55.7289970
  24.0726140 109.2434720  56.7978860  20.2118370 124.4311080  55.9508440
  20.4659870 124.3932470  55.0287810  19.2630850 124.3044410  55.9436690
  17.2961170 110.7790200  52.6135380  18.1451700 111.2160350  52.5475570
  16.9292440 111.0910460  53.4407440  16.1952590 117.0322560  51.0870910
  16.9615860 116.9203920  51.6496340  16.2727280 116.3360530  50.4347680
  14.8899350 114.4647630  51.7703800  14.9702940 113.5175140  51.8821200
  15.7819100 114.7954510  51.8764460  28.2196530 122.5211810  59.2021210
  28.3443950 123.3442980  59.6745020  29.0862090 122.3102540  58.8545360
  15.6914060 124.6143020  58.8738340  16.4276540 124.0658480  59.1446910
  16.0754980 125.4799030  58.7344330  12.5759540 120.6816590  54.7479850
  11.6499320 120.9237730  54.7385260  13.0415970 121.5090850  54.6264600
  14.6972340 123.7989090  68.0623920  15.4985070 124.1201140  68.4759320
  14.1824160 123.4384670  68.7843830  18.8016370 123.7873330  50.6963910
  19.5944980 124.0762160  50.2445700  18.2820720 123.3565500  50.0176390
  23.5336970 119.9068960  68.0099330  22.9275130 119.9300560  67.2695080
  23.2291080 119.1752000  68.5466580  24.9637340 123.6349250  66.6208740
  25.9159090 123.5507270  66.5708980  24.8165560 124.2990960  67.2942530
  27.8546540 123.0143460  52.1200650  27.5688050 122.6008600  51.3054830
  27.6566090 123.9431170  52.0001170  12.4170150 116.2862550  67.0059970
  12.9209170 115.7069830  67.5776200  11.6777570 116.5702780  67.5436340
  19.3193770 119.0076740  50.5606260  19.2144410 118.3929090  51.2867640
  19.1517990 118.4842630  49.7769270  19.4708090 117.6933540  66.5395490
  18.7053760 118.2618540  66.4550160  19.6524050 117.4009750  65.6463720
  22.5596500 118.0696770  51.1648250  22.0106600 118.5166070  51.8090990
  23.1815760 117.5646020  51.6885920  26.6131440 119.4238870  67.0970510
  27.3540910 119.7614630  66.5937970  25.8504120 119.5930930  66.5440280
  14.4493230 114.4292140  67.9010040  14.4898570 114.1306010  68.8095270
  15.3038730 114.8299750  67.7417560  18.2271620 117.0287690  53.0613550
  18.6488040 116.8627560  53.9044940  18.3522460 116.2187920  52.5668690
  16.3899040 113.0084240  65.8684530  15.8595500 112.5175190  65.2407870
  17.0587110 113.4368440  65.3342460  20.7399260 116.0525300  50.3090650
  21.2604920 115.3374320  49.9431800  21.3867660 116.6911170  50.6091160
  25.2877100 117.4753700  65.6325720  25.7018120 117.6298780  66.4816140
  24.3528100 117.6008920  65.7951500  16.8771340 109.9746610  65.9481820
  16.7828210 109.3567360  65.2232690  16.2968730 110.7012900  65.7211730
  20.0492330 117.4274180  63.6021650  20.4680440 118.2706910  63.4297890
  19.1300960 117.5646220  63.3728430  22.3856230 115.1590360  64.9859490
  22.5052440 114.5631500  65.7254330  23.2450230 115.1960050  64.5660790
  24.7244130 115.7127550  63.5622000  24.1979350 116.2370170  62.9587140
  25.0675470 116.3454940  64.1931730  17.1230520 113.1020920  50.0071710
  16.9219580 112.2388280  50.3685050  16.9522570 113.0154280  49.0693310
  17.8999750 123.7327190  64.7179380  17.3620840 124.4573250  64.3988080
  18.1533710 123.2557530  63.9276720  19.1525000 111.7011710  66.2435310
  19.7424690 111.3927560  66.9313130  18.3345240 111.2291460  66.3995210
  23.9718430 111.3177520  66.4768330  23.2833950 110.6559060  66.4118320
  24.6924450 110.8715790  66.9216790  24.6018830 107.9129150  52.5358590
  24.8821120 107.0697050  52.8918010  23.8284560 108.1452260  53.0497340
  15.9213320 110.2021540  49.9949590  16.2239220 110.2088970  49.0868740
  16.6607910 109.8519400  50.4917250  20.7561960 124.9678400  64.9766030
  20.6820660 125.8713540  65.2838400  19.8540800 124.6490300  64.9488100
  19.1398250 109.1456160  50.9805790  18.7920250 108.4680150  50.4008240
  19.3411020 108.6845670  51.7949180  21.3047290 124.1336910  52.5992390
  22.1998080 124.4721880  52.6211150  21.3364920 123.4116320  51.9716670
  14.9443450 119.5063960  50.8279390  15.3818320 120.0493630  51.4836970
  15.4291180 118.6810910  50.8375730  12.1589250 122.2952990  58.2799650
  12.4892260 121.4274050  58.0478290  12.5880250 122.5011510  59.1104610
  16.7551170 120.6262000  55.9401620  16.4546710 120.5026970  56.8405530
  16.6488660 119.7670590  55.5317350  12.6479460 123.1623580  61.0181280
  12.2110450 123.3424380  61.8505430  13.2157140 123.9198200  60.8763000
  28.2841640 122.6640580  65.3058590  27.6843630 122.7233140  64.5622510
  28.4135540 121.7245560  65.4355440  29.5243090 120.4058400  50.6428300
  28.6936050 120.4735050  51.1135530  29.7014920 121.2962520  50.3395160
  28.9799550 117.1505880  53.1462500  29.7418460 117.7202530  53.2522190
  28.9953920 116.5833080  53.9170810  12.4803890 115.6743810  57.3770160
  11.8252730 115.4055450  56.7329860  13.3181840 115.5648290  56.9272140
  29.9859520 118.0055980  57.9904430  30.3568350 117.2223300  57.5840400
  30.6261450 118.6945080  57.8121730  26.9693280 119.3892560  63.4034750
  26.1553120 119.8189720  63.6660540  27.3767480 120.0010970  62.7903800
  29.0318720 117.4440250  50.3035020  29.3067560 118.3519130  50.1754240
  28.8429460 117.3802780  51.2397010  25.4294330 110.4685100  51.5988650
  25.8479210 110.2816080  50.7585310  25.1230390 109.6164150  51.9091580
  13.5179820 116.0596380  61.9173500  13.8852860 115.9723780  62.7969520
  12.9490640 115.2962930  61.8180360  28.3183680 114.5280760  64.9303970
  28.0869770 114.2993510  64.0301920  28.5788230 115.4480310  64.8848860
  13.0695820 112.9705470  65.8231920  12.1751870 112.9372230  66.1625630
  13.6093370 113.1692260  66.5883170  26.7571750 109.7537190  67.7083670
  27.6341930 109.7620590  68.0917670  26.7692590 109.0168030  67.0976020
  11.6941970 112.8842740  53.3195490  10.7906050 113.1472940  53.1447150
  12.1782590 113.1553910  52.5395450  14.2369180 111.9408280  51.2289870
  14.9460880 111.5191500  50.7437150  13.5209120 112.0083510  50.5973220
  13.8843340 107.9947610  50.2692520  14.6071470 108.5356550  50.5873740
  14.1567860 107.7211030  49.3934060  13.5735530 107.2453800  60.1715140
  14.2211720 106.6951180  59.7310300  13.9937370 107.4996950  60.9930950
  27.0269330 124.1411160  56.9303020  27.6228400 123.8195730  56.2537440
  27.2847480 123.6682980  57.7216290  13.3267530 107.4009470  62.9140460
  12.9782350 107.8573290  63.6798640  12.9955230 106.5066600  62.9962890
  14.9331900 120.5729070  67.0793650  14.8901530 120.2021980  67.9608110
  15.0642910 121.5106640  67.2195470  18.6337930 122.1288660  62.6803370
  18.3929290 122.3963220  61.7933890  19.5740570 122.2994390  62.7354230
  20.8392350 108.5921350  66.4359880  20.7781240 109.1843180  67.1855290
  21.7792730 108.4847310  66.2910140  23.4766910 108.2491410  66.0752170
  24.0907320 108.5670700  65.4133250  24.0216470 107.7640000  66.6948030
  29.8942090 124.1483040  63.4814010  29.4000370 124.5451910  62.7641140
  29.2855380 123.5232250  63.8751290  13.9988170 106.9285670  66.1891230
  14.5471160 106.7473720  65.4257340  14.0643480 106.1379780  66.7247540
  14.7719930 123.5191320  64.1991430  14.1780250 123.3876020  64.9381470
  14.7643770 122.6829460  63.7333530  27.5781540 124.7906460  60.7600750
  27.1184510 125.5422270  60.3858770  26.9494000 124.0712930  60.7015550
  14.4032160 120.8849700  63.1499470  13.6766220 120.2654990  63.0825420
  14.4641310 121.2790310  62.2797550  18.0077260 123.0994700  59.9348880
  18.5242280 122.4882060  59.4097140  18.6574640 123.6023480  60.4259890
  20.7472760 123.9903190  60.7617860  21.0350570 123.7357490  59.8850870
  21.2595980 123.4380550  61.3523430  12.6862160 124.2024090  56.3596230
  12.5184200 123.5694770  57.0578120  11.8196670 124.4083490  56.0090420
  13.3090180 108.0340870  53.8628090  14.0669540 108.1469750  53.2892120
  12.8467350 108.8710070  53.8171520  19.8503990 110.1480140  56.8530400
  19.0378500 109.7737030  56.5126280  20.3545630 109.3925220  57.1551590
  27.4963570 107.2144150  53.3653750  27.6914200 108.1127600  53.6321180
  26.7093440 106.9831230  53.8586700  14.2924860 122.8957320  53.8046370
  13.7672480 123.2765350  53.1008330  14.2169440 123.5208090  54.5256080
  15.6815330 108.5604920  52.4030060  16.2108090 107.7734720  52.2738010
  16.3143650 109.2396110  52.6365590  17.8753170 108.2980060  55.4575450
  17.2455910 107.5967370  55.6245580  17.3358310 109.0584190  55.2408610
  20.8145120 124.9119290  68.1286060  21.7412430 124.6763560  68.1722020
  20.7995550 125.7391290  67.6472090  29.0490180 124.4544860  55.1260310
  29.2242370 123.7682600  54.4821230  28.3511750 124.9791910  54.7336980
  18.0008730 107.5764040  67.8927940  17.7193000 108.0797640  67.1288760
  18.3828430 106.7785790  67.5270070  16.8917830 124.8439700  52.6795620
  17.6236650 124.5598980  52.1319510  17.1511500 124.6052980  53.5695000
  16.0532620 120.9604430  52.6841950  15.4241500 121.4289530  53.2327780
  16.1680450 120.1153650  53.1188140  27.3822680 124.1389150  67.9527100
  28.1748000 123.6438380  67.7453060  27.6755830 124.8179290  68.5602710
  23.5082340 115.0110090  38.8343150  23.4276390 114.0964700  38.5634860
  23.0946760 115.5077160  38.1282860  21.6400380 116.7889110  40.7152420
  20.8642480 116.3089550  41.0050990  22.2913310 116.1094760  40.5408580
  15.6566210 117.1008920  41.5928180  14.8251090 116.8457630  41.9924690
  16.2647190 117.1719690  42.3286100  25.6607810 121.1949300  39.4951550
  25.1989340 120.4236540  39.8238720  26.4733360 121.2215370  40.0004000
  15.6367470 121.1349010  41.7886200  15.9395510 120.2446750  41.6096420
  16.3811060 121.6919230  41.5608450  14.0658160 112.0610810  35.3770570
  13.1774860 112.4026780  35.2750450  14.3499350 111.8611130  34.4851400
  12.0291170 114.6616460  41.2610270  12.6007280 113.8938660  41.2613910
  12.0292710 114.9605220  40.3516880  21.8871120 123.4807310  39.1155540
  21.2682560 123.9364810  38.5449980  22.7422900 123.6358770  38.7145240
  21.0809370 119.4646300  40.7222580  21.0117650 118.5236240  40.5611710
  21.8429230 119.5547710  41.2945150  13.2716040 110.0700820  43.0479200
  13.0918880 109.1726570  43.3281960  12.8696120 110.6172690  43.7226150
  22.1114540 112.2716680  40.9491510  22.4879360 111.3988560  40.8365180
  22.0134050 112.6075380  40.0581950  16.2419550 110.6442310  36.4108950
  16.3486300 111.5446040  36.7177710  15.3311910 110.5960280  36.1203600
  25.8938660 109.7667120  37.8819850  26.7148280 109.2763690  37.9245330
  25.9272740 110.3564780  38.6351690  13.8902710 112.5661320  41.6561540
  14.5712820 112.8299690  42.2748940  13.5750760 111.7262190  41.9899550
  18.0827280 113.6128680  40.7434130  18.5905500 114.1109650  41.3839150
  18.6140520 112.8363880  40.5673490  30.1838210 111.7833870  44.4463480
  29.4790380 112.1715580  43.9278590  30.4496130 112.4784160  45.0484410
  16.3663380 108.2527240  45.0097550  16.3681820 108.7699630  44.2043450
  15.5367690 107.7757420  44.9867480  22.7534470 118.3646550  36.5087450
  22.1351740 118.8296000  35.9450170  23.2657720 119.0574030  36.9256960
  17.6166230 117.8922420  43.1871050  17.2835610 118.5191340  43.8292120
  17.7932910 118.4184300  42.4072720  26.1300140 111.7067500  40.6547390
  25.4255710 111.9952390  41.2350500  26.4912300 112.5167610  40.2946950
  16.0478710 109.9637200  43.0168000  16.3895520 110.8079250  42.7221870
  15.1094520 110.1120940  43.1333340  16.8285330 119.8603220  45.0020230
  17.4459330 120.5354300  44.7204680  15.9678450 120.2691200  44.9107730
  12.1217670 119.0503080  33.8827080  11.7445650 119.5390180  33.1511980
  12.3790740 119.7228360  34.5133610  27.7462920 121.3242630  42.9174870
  27.0626440 121.9941740  42.9091540  28.2857210 121.5223280  42.1519730
  29.1987060 111.1522290  41.0456600  28.2511970 111.1861270  41.1772030
  29.5237050 111.9661240  41.4305960  19.7306600 107.4519470  39.3412590
  20.0381580 106.8966360  38.6248090  18.8007300 107.5863930  39.1585580
  25.2821660 123.1686760  41.6320050  25.2948820 122.7649050  40.7642310
  24.7296880 123.9434050  41.5281480  26.5767080 119.8902980  36.7210220
  26.4663410 118.9477310  36.8459640  26.5735330 120.2518620  37.6072980
  24.6807100 118.0716600  42.9602660  25.0975890 117.8576710  42.1256120
  25.4046920 118.3289390  43.5311280  22.1187360 115.5168300  36.0772710
  21.1916640 115.4505680  36.3061180  22.2712180 116.4548430  35.9627950
  22.1056440 111.7885300  33.0739870  21.1660110 111.9499260  33.1592330
  22.4239700 112.5070980  32.5275860  28.6269200 116.4703820  43.0518900
  27.7987830 116.5396910  42.5769030  29.2219680 117.0558130  42.5834730
  26.1484650 117.0788600  36.5807960  25.5297070 116.7408150  35.9334260
  26.1309100 116.4348360  37.2887150  25.5911210 113.2573140  43.9973770
  25.1782390 114.0826850  44.2513760  24.8587160 112.6718180  43.8050130
  17.7244000 116.0433040  38.8592440  17.3201000 115.3310290  38.3638340
  17.8107120 115.6986280  39.7480480  18.1925700 119.7300600  41.0231650
  17.8953990 119.1246070  40.3439430  19.1425520 119.7677910  40.9121010
  16.4372620 112.8176250  42.6391480  16.9887210 112.9271590  41.8644730
  16.9516130 113.1913850  43.3546710  26.2811310 123.3032470  44.6854750
  25.8041870 124.1104660  44.4927360  25.5973100 122.6510800  44.8380960
  17.2844130 119.4682290  47.6739450  16.3872660 119.6922260  47.9212850
  17.3097000 119.5917230  46.7250850  24.3249350 116.3175410  33.5880710
  24.7642630 115.4797840  33.4418530  25.0377770 116.9504810  33.6744850
  16.1115350 116.3395610  46.2496820  15.9723120 117.2118410  46.6184220
  15.2296710 115.9968420  46.1044760  22.4344730 121.2571480  37.5561950
  22.8740640 121.9995810  37.1417340  22.3731620 121.4998050  38.4800910
  17.9095700 122.2817310  48.4581970  17.8811130 122.6860260  47.5910400
  17.7460670 121.3527670  48.2953570  27.9066490 107.5718220  31.9021750
  27.5939150 107.6645050  32.8020820  28.6678960 108.1499250  31.8519180
  14.4248630 114.9378020  36.3599090  14.3046230 115.6640110  35.7480360
  14.1149520 114.1680930  35.8827000  29.8610520 123.0644410  49.7546140
  30.3370240 123.5427300  50.4335220  30.4817680 122.9961900  49.0291640
  12.0634000 118.1093160  42.1667730  12.1414420 118.2441930  41.2223450
  12.6775680 117.4009050  42.3595850  13.3081630 119.8093350  38.5773910
  12.9009710 119.9507940  37.7227510  14.1994640 119.5253510  38.3745120
  29.2643770 120.2557260  46.9146150  29.3906830 120.0169140  45.9963330
  29.3065150 119.4241800  47.3868230  23.1260510 123.9585260  45.4840960
  23.6405180 123.8693270  46.2863390  22.2829590 124.3044960  45.7768870
  25.1014910 124.2440600  34.9124960  24.9416050 123.9543540  35.8106790
  24.9361620 123.4680730  34.3770190  17.5803290 124.0239130  36.6896580
  17.4045770 123.1074670  36.4764380  16.7259030 124.3826420  36.9294380
  24.8041040 121.7528160  33.4722960  24.1106200 121.7505450  32.8125240
  25.5463900 121.3287480  33.0417130  24.3690970 123.3790870  37.5471450
  24.8247920 122.5980250  37.8610070  24.7083490 124.0897690  38.0912630
  29.1167780 112.3089720  47.8795890  28.5012050 112.8169390  47.3511350
  28.7964200 111.4088050  47.8221830  12.1193520 119.1507330  44.7062190
  12.2824560 118.6812690  43.8881560  12.5845970 118.6430890  45.3711030
  16.8912290 108.2813090  39.7422760  16.4480440 109.0622630  39.4107280
  17.4497280 108.6042980  40.4493700  21.1782100 111.1481610  45.3458080
  20.7161470 111.3564630  46.1578020  20.7760210 110.3340960  45.0428750
  26.1786610 112.3690560  46.4754740  25.3280200 112.0696310  46.7963810
  26.0188400 112.6132570  45.5638560  23.2736320 113.8692310  48.5753530
  23.5989730 113.0356060  48.2355760  24.0616650 114.3920830  48.7231860
  20.0071110 107.9023790  34.6228590  19.3825290 107.8983660  35.3481900
  19.9201230 107.0354750  34.2264560  18.9288190 108.8260420  41.6012360
  19.2260520 109.7323250  41.5204380  19.4773750 108.3379200  40.9871930
  16.6826510 113.4046660  37.4704010  16.4567430 113.1883830  38.3750630
  15.9019040 113.8375120  37.1249980  23.9124270 113.4110030  36.0694660
  23.3133160 114.1345830  35.8858280  24.4603880 113.3486810  35.2871110
  19.1225720 114.3032240  48.1364280  19.0269320 113.3626970  47.9864680
  19.9657700 114.5247310  47.7412350  22.5189140 112.0473570  38.0997940
  22.9118710 112.3645770  37.2866630  22.8805990 111.1685450  38.2142460
  14.2536260 110.7145910  46.2898060  13.8599650 111.5621120  46.4970840
  13.5654660 110.0772280  46.4806700  20.8281310 110.7980880  49.3594800
  20.1379630 110.6053080  49.9940890  21.5713610 111.0815520  49.8919100
  11.5553310 108.6374370  40.3228140  11.2666360 109.2077230  41.0353120
  12.2999070 108.1578820  40.6859370  11.7423540 112.5794490  31.5330860
  11.6598210 113.5225250  31.6745850  11.3906600 112.4369400  30.6543210
  23.1044280 114.6379320  42.1948720  22.3725400 115.1466130  42.5438820
  22.7068620 113.8209300  41.8937500  19.5421670 111.3133520  40.6001210
  19.5457730 110.8723470  39.7505750  20.4372790 111.6350850  40.7073030
  15.3924050 111.1960010  39.5595420  15.0524100 111.6735240  40.3162470
  14.6301370 110.7425130  39.1996520  19.6041820 112.3145600  33.5907970
  19.7254640 112.2732080  34.5393790  19.2190330 113.1769750  33.4354700
  23.5670190 110.0913000  41.6071660  23.5842930 110.5421650  42.4513510
  23.3185770 109.1918640  41.8205100  18.6163320 114.6246740  32.9891270
  18.0480220 114.1764990  32.3627180  19.3252320 114.9839520  32.4556420
  26.9940940 107.5045180  47.4458040  27.3186710 106.7734840  47.9716020
  27.0297450 107.1858820  46.5439030  13.6932500 118.5258760  46.8658000
  13.3087290 117.8852430  47.4640960  14.0044690 119.2294880  47.4352730
  19.8429640 115.3735300  42.3466620  20.2099770 114.8993870  43.0927960
  19.6534700 116.2476870  42.6874960  12.7070130 110.1178990  38.4760090
  12.4217050 109.7534660  39.3138710  12.6448990 109.3859450  37.8623230
  17.6329010 114.4143940  44.6650830  17.3286080 115.2935920  44.8901190
  18.5875470 114.4743730  44.7008270  16.1610800 118.6204930  35.2617680
  15.3873060 118.0802550  35.1016400  16.8905430 118.1011540  34.9235440
  26.9198780 117.6170290  41.0544070  27.6397900 118.1125580  40.6640180
  26.7180600 116.9388180  40.4097940  22.3808720 109.0108250  35.1973460
  21.5673330 108.5121420  35.1218770  22.1870670 109.8506500  34.7809810
  22.3017580 117.6879350  46.9413070  22.2354890 116.7675020  46.6870660
  21.6722720 117.7854790  47.6557710  25.0957110 113.3827900  33.4935620
  25.9836730 113.6945130  33.3186960  25.0662200 112.5100150  33.1016200
  16.2048200 118.2885310  38.8996490  16.7226870 117.4853570  38.8453380
  15.7532220 118.2264450  39.7413320  21.0917700 119.5551590  34.1723790
  21.4333400 120.2993820  33.6767110  20.2630410 119.8682710  34.5348620
  13.6892740 115.2546680  45.8122190  13.3307680 115.9200530  46.3995530
  13.3947300 114.4230230  46.1834810  16.8905860 115.7130920  48.6961740
  16.5906000 115.8588100  47.7989560  17.6617100 115.1536210  48.6035130
  22.2334310 120.5099920  46.6916870  22.2478850 119.5780880  46.4735780
  21.5259410 120.5959680  47.3306640  27.3671380 114.6939740  32.9615480
  27.2835100 115.1253960  32.1111920  28.0865570 115.1538090  33.3942300
  28.4445520 117.1507260  46.0385450  27.7193710 117.7436040  45.8414840
  28.9720980 117.1430800  45.2398820  28.3958630 121.5482000  35.6897610
  27.7534790 120.8937620  35.9641330  28.0089290 121.9537090  34.9138280
  23.9745110 118.8767430  39.5369300  24.3268930 118.2795560  38.8770670
  23.0907440 118.5511660  39.7077550  20.0608390 119.6365120  36.9439710
  20.7479520 120.1834330  37.3247300  19.2740810 120.1805850  36.9789320
  12.2000790 115.2537940  32.4356790  13.0695640 115.5362740  32.7192710
  11.7091110 116.0673810  32.3205600  19.3635600 116.6411150  36.5565070
  19.8198380 117.4516400  36.7825260  19.0123810 116.3234290  37.3883560
  21.6668210 122.1517490  43.7857370  22.3110430 122.3576870  44.4630790
  22.0297650 121.3905890  43.3328220  15.2647380 106.9848800  37.0287590
  15.1362010 106.9766700  37.9772510  14.4409400 107.3231890  36.6778600
  22.9400290 120.1549840  42.5034820  23.5822520 119.4543000  42.6166990
  23.4649640 120.9348280  42.3231710  26.7856010 120.4398460  32.2273960
  26.5593590 119.7228900  32.8198600  26.3952210 120.1910900  31.3895710
  24.7137910 120.9544740  45.7070880  25.0494150 121.5411430  46.3848800
  23.7938250 120.8237450  45.9368670  12.5672040 124.4665320  33.0018420
  12.9269680 125.0654660  32.3475690  12.4264380 125.0125210  33.7753450
  12.2641310 108.7439920  46.4894290  11.5499830 108.9436840  47.0946900
  12.6836350 107.9679490  46.8609090  26.3672260 118.3570400  33.8888120
  26.0793960 118.8183090  34.6766000  27.1624430 117.8968170  34.1572340
  12.5513900 122.7320180  47.4760820  12.6605020 121.7914920  47.3356210
  11.8994460 122.9974930  46.8274550  20.5426490 121.0036070  48.8758940
  20.2223360 120.2845310  49.4204630  19.8684850 121.6791140  48.9495000
  18.5840660 121.8496520  33.8192090  18.5750760 122.5826210  33.2036600
  17.6639020 121.6028100  33.9119050  14.1847300 117.0711410  34.5638850
  13.5775250 117.8110310  34.5734150  14.6596650 117.1610770  33.7377050
  23.7580090 111.2362230  44.2395740  24.1260910 110.4157440  44.5675310
  22.8978290 111.2964120  44.6551390  27.1242120 110.1919170  35.0483300
  26.4955280 110.2964840  34.3341530  26.6294040 110.4115950  35.8377180
  21.5700260 121.9124760  32.4817280  21.6712240 121.7088750  31.5519260
  20.6702000 121.6583040  32.6865060  19.0926150 112.4705120  36.4641180
  18.3842300 112.9391460  36.9054790  19.3770630 111.8127130  37.0986370
  20.7182080 113.8901820  44.4633710  21.2167330 114.3647640  45.1285560
  20.8605030 112.9665340  44.6703740  23.1241580 109.1955780  37.9036970
  23.0009360 109.2141910  36.9546480  24.0726140 109.2434720  38.0235370
  20.2118370 124.4311080  37.1764950  20.4659870 124.3932470  36.2544320
  19.2630850 124.3044410  37.1693200  17.2961170 110.7790200  33.8391890
  18.1451700 111.2160350  33.7732080  16.9292440 111.0910460  34.6663950
  27.9248940 110.1069780  45.3062100  27.4222540 110.8475180  45.6455910
  28.7405600 110.4953780  44.9898890  26.2170950 115.3502960  38.7523460
  25.2761090 115.3653190  38.9271150  26.5315020 114.5638920  39.1983760
  16.1952590 117.0322560  32.3127420  16.9615860 116.9203920  32.8752850
  16.2727280 116.3360530  31.6604190  14.8899350 114.4647630  32.9960310
  14.9702940 113.5175140  33.1077710  15.7819100 114.7954510  33.1020970
  28.2196530 122.5211810  40.4277720  28.3443950 123.3442980  40.9001530
  29.0862090 122.3102540  40.0801870  15.6914060 124.6143020  40.0994850
  16.4276540 124.0658480  40.3703420  16.0754980 125.4799030  39.9600840
  12.5759540 120.6816590  35.9736360  11.6499320 120.9237730  35.9641770
  13.0415970 121.5090850  35.8521110  14.6972340 123.7989090  49.2880430
  15.4985070 124.1201140  49.7015830  14.1824160 123.4384670  50.0100340
  18.8016370 123.7873330  31.9220420  19.5944980 124.0762160  31.4702210
  18.2820720 123.3565500  31.2432900  23.5336970 119.9068960  49.2355840
  22.9275130 119.9300560  48.4951590  23.2291080 119.1752000  49.7723090
  24.9637340 123.6349250  47.8465250  25.9159090 123.5507270  47.7965490
  24.8165560 124.2990960  48.5199040  27.8546540 123.0143460  33.3457160
  27.5688050 122.6008600  32.5311340  27.6566090 123.9431170  33.2257680
  12.4170150 116.2862550  48.2316480  12.9209170 115.7069830  48.8032710
  11.6777570 116.5702780  48.7692850  19.3193770 119.0076740  31.7862770
  19.2144410 118.3929090  32.5124150  19.1517990 118.4842630  31.0025780
  19.4708090 117.6933540  47.7652000  18.7053760 118.2618540  47.6806670
  19.6524050 117.4009750  46.8720230  22.5596500 118.0696770  32.3904760
  22.0106600 118.5166070  33.0347500  23.1815760 117.5646020  32.9142430
  26.6131440 119.4238870  48.3227020  27.3540910 119.7614630  47.8194480
  25.8504120 119.5930930  47.7696790  14.4493230 114.4292140  49.1266550
  14.4898570 114.1306010  50.0351780  15.3038730 114.8299750  48.9674070
  18.2271620 117.0287690  34.2870060  18.6488040 116.8627560  35.1301450
  18.3522460 116.2187920  33.7925200  16.3899040 113.0084240  47.0941040
  15.8595500 112.5175190  46.4664380  17.0587110 113.4368440  46.5598970
  20.7399260 116.0525300  31.5347160  21.2604920 115.3374320  31.1688310
  21.3867660 116.6911170  31.8347670  25.2877100 117.4753700  46.8582230
  25.7018120 117.6298780  47.7072650  24.3528100 117.6008920  47.0208010
  25.7599270 114.8149860  48.8621380  26.3420040 114.0602180  48.7741860
  25.9361040 115.3457300  48.0852860  16.8771340 109.9746610  47.1738330
  16.7828210 109.3567360  46.4489200  16.2968730 110.7012900  46.9468240
  19.6432780 108.5319850  44.2065720  19.1950080 108.5544110  43.3611270
  19.0097980 108.1338870  44.8036020  20.0492330 117.4274180  44.8278160
  20.4680440 118.2706910  44.6554400  19.1300960 117.5646220  44.5984940
  22.3856230 115.1590360  46.2116000  22.5052440 114.5631500  46.9510840
  23.2450230 115.1960050  45.7917300  24.7244130 115.7127550  44.7878510
  24.1979350 116.2370170  44.1843650  25.0675470 116.3454940  45.4188240
  17.1230520 113.1020920  31.2328220  16.9219580 112.2388280  31.5941560
  16.9522570 113.0154280  30.2949820  17.8999750 123.7327190  45.9435890
  17.3620840 124.4573250  45.6244590  18.1533710 123.2557530  45.1533230
  19.1525000 111.7011710  47.4691820  19.7424690 111.3927560  48.1569640
  18.3345240 111.2291460  47.6251720  23.9718430 111.3177520  47.7024840
  23.2833950 110.6559060  47.6374830  24.6924450 110.8715790  48.1473300
  24.6018830 107.9129150  33.7615100  24.8821120 107.0697050  34.1174520
  23.8284560 108.1452260  34.2753850  15.9213320 110.2021540  31.2206100
  16.2239220 110.2088970  30.3125250  16.6607910 109.8519400  31.7173760
  20.7561960 124.9678400  46.2022540  20.6820660 125.8713540  46.5094910
  19.8540800 124.6490300  46.1744610  19.1398250 109.1456160  32.2062300
  18.7920250 108.4680150  31.6264750  19.3411020 108.6845670  33.0205690
  21.3047290 124.1336910  33.8248900  22.1998080 124.4721880  33.8467660
  21.3364920 123.4116320  33.1973180  14.9443450 119.5063960  32.0535900
  15.3818320 120.0493630  32.7093480  15.4291180 118.6810910  32.0632240
  12.1589250 122.2952990  39.5056160  12.4892260 121.4274050  39.2734800
  12.5880250 122.5011510  40.3361120  16.7551170 120.6262000  37.1658130
  16.4546710 120.5026970  38.0662040  16.6488660 119.7670590  36.7573860
  12.6479460 123.1623580  42.2437790  12.2110450 123.3424380  43.0761940
  13.2157140 123.9198200  42.1019510  28.2841640 122.6640580  46.5315100
  27.6843630 122.7233140  45.7879020  28.4135540 121.7245560  46.6611950
  29.5243090 120.4058400  31.8684810  28.6936050 120.4735050  32.3392040
  29.7014920 121.2962520  31.5651670  28.9799550 117.1505880  34.3719010
  29.7418460 117.7202530  34.4778700  28.9953920 116.5833080  35.1427320
  12.4803890 115.6743810  38.6026670  11.8252730 115.4055450  37.9586370
  13.3181840 115.5648290  38.1528650  29.9859520 118.0055980  39.2160940
  30.3568350 117.2223300  38.8096910  30.6261450 118.6945080  39.0378240
  26.9693280 119.3892560  44.6291260  26.1553120 119.8189720  44.8917050
  27.3767480 120.0010970  44.0160310  29.0318720 117.4440250  31.5291530
  29.3067560 118.3519130  31.4010750  28.8429460 117.3802780  32.4653520
  25.4294330 110.4685100  32.8245160  25.8479210 110.2816080  31.9841820
  25.1230390 109.6164150  33.1348090  28.9284060 115.3809240  36.5220960
  28.5527660 114.6137170  36.0902250  28.1987180 115.7631940  37.0095890
  13.5179820 116.0596380  43.1430010  13.8852860 115.9723780  44.0226030
  12.9490640 115.2962930  43.0436870  28.3183680 114.5280760  46.1560480
  28.0869770 114.2993510  45.2558430  28.5788230 115.4480310  46.1105370
  13.0695820 112.9705470  47.0488430  12.1751870 112.9372230  47.3882140
  13.6093370 113.1692260  47.8139680  26.7571750 109.7537190  48.9340180
  27.6341930 109.7620590  49.3174180  26.7692590 109.0168030  48.3232530
  11.6941970 112.8842740  34.5452000  10.7906050 113.1472940  34.3703660
  12.1782590 113.1553910  33.7651960  28.2035020 113.6066730  39.8228200
  28.7272500 113.1129380  39.1918370  28.7894440 113.7417090  40.5675770
  28.3824740 113.6906600  43.3447750  27.4327450 113.6570140  43.4592740
  28.5637750 114.6006710  43.1097520  14.2369180 111.9408280  32.4546380
  14.9460880 111.5191500  31.9693660  13.5209120 112.0083510  31.8229730
  13.8843340 107.9947610  31.4949030  14.6071470 108.5356550  31.8130250
  14.1567860 107.7211030  30.6190570  27.6934990 112.8640080  35.7620610
  28.1894110 112.6310950  36.5469490  27.4951060 112.0251920  35.3458250
  13.5735530 107.2453800  41.3971650  14.2211720 106.6951180  40.9566810
  13.9937370 107.4996950  42.2187460  29.1222150 111.5001030  38.2958290
  29.0121430 111.3457070  39.2340560  29.8829740 110.9721970  38.0533700
  27.4687870 107.4395160  44.7541290  28.1060090 108.0529300  45.1200480
  27.6162760 107.4755820  43.8090520  30.0112420 109.3308950  31.5364430
  30.9361730 109.1990130  31.3282720  29.9888210 109.4101770  32.4900880
  30.0850910 110.1019610  34.1621140  29.2902410 110.0364730  34.6914050
  30.2894190 111.0370250  34.1506490  27.0269330 124.1411160  38.1559530
  27.6228400 123.8195730  37.4793950  27.2847480 123.6682980  38.9472800
  13.3267530 107.4009470  44.1396970  12.9782350 107.8573290  44.9055150
  12.9955230 106.5066600  44.2219400  14.9331900 120.5729070  48.3050160
  14.8901530 120.2021980  49.1864620  15.0642910 121.5106640  48.4451980
  18.6337930 122.1288660  43.9059880  18.3929290 122.3963220  43.0190400
  19.5740570 122.2994390  43.9610740  20.8392350 108.5921350  47.6616390
  20.7781240 109.1843180  48.4111800  21.7792730 108.4847310  47.5166650
  23.4766910 108.2491410  47.3008680  24.0907320 108.5670700  46.6389760
  24.0216470 107.7640000  47.9204540  29.8942090 124.1483040  44.7070520
  29.4000370 124.5451910  43.9897650  29.2855380 123.5232250  45.1007800
  13.9988170 106.9285670  47.4147740  14.5471160 106.7473720  46.6513850
  14.0643480 106.1379780  47.9504050  14.7719930 123.5191320  45.4247940
  14.1780250 123.3876020  46.1637980  14.7643770 122.6829460  44.9590040
  24.2174950 106.8123550  43.6277970  23.3434790 107.1458660  43.4250900
  24.1085700 106.3396730  44.4529840  25.1246930 109.0194420  45.0119690
  24.7960290 108.2046180  44.6321420  26.0729230 108.9764230  44.8885380
  27.5781540 124.7906460  41.9857260  27.1184510 125.5422270  41.6115280
  26.9494000 124.0712930  41.9272060  14.4032160 120.8849700  44.3755980
  13.6766220 120.2654990  44.3081930  14.4641310 121.2790310  43.5054060
  18.0077260 123.0994700  41.1605390  18.5242280 122.4882060  40.6353650
  18.6574640 123.6023480  41.6516400  20.7472760 123.9903190  41.9874370
  21.0350570 123.7357490  41.1107380  21.2595980 123.4380550  42.5779940
  21.9649770 107.7293390  42.5670880  21.1821560 108.2038890  42.8467640
  21.6712700 106.8248220  42.4584060  26.5170840 108.4316490  40.6119970
  26.9578930 108.3761590  39.7641570  26.2478430 109.3474500  40.6830150
  28.3809410 108.0631730  38.6228790  28.3197810 107.1192950  38.4759810
  29.1601440 108.1711820  39.1682250  12.6862160 124.2024090  37.5852740
  12.5184200 123.5694770  38.2834630  11.8196670 124.4083490  37.2346930
  13.3090180 108.0340870  35.0884600  14.0669540 108.1469750  34.5148630
  12.8467350 108.8710070  35.0428030  19.8503990 110.1480140  38.0786910
  19.0378500 109.7737030  37.7382790  20.3545630 109.3925220  38.3808100
  24.3528970 106.8122590  39.3169980  24.9558340 107.3842800  39.7918500
  23.6121960 107.3762030  39.0943880  27.4963570 107.2144150  34.5910260
  27.6914200 108.1127600  34.8577690  26.7093440 106.9831230  35.0843210
  14.2924860 122.8957320  35.0302880  13.7672480 123.2765350  34.3264840
  14.2169440 123.5208090  35.7512590  15.6815330 108.5604920  33.6286570
  16.2108090 107.7734720  33.4994520  16.3143650 109.2396110  33.8622100
  17.8753170 108.2980060  36.6831960  17.2455910 107.5967370  36.8502090
  17.3358310 109.0584190  36.4665120  20.8145120 124.9119290  49.3542570
  21.7412430 124.6763560  49.3978530  20.7995550 125.7391290  48.8728600
  29.0490180 124.4544860  36.3516820  29.2242370 123.7682600  35.7077740
  28.3511750 124.9791910  35.9593490  18.0008730 107.5764040  49.1184450
  17.7193000 108.0797640  48.3545270  18.3828430 106.7785790  48.7526580
  16.8917830 124.8439700  33.9052130  17.6236650 124.5598980  33.3576020
  17.1511500 124.6052980  34.7951510  16.0532620 120.9604430  33.9098460
  15.4241500 121.4289530  34.4584290  16.1680450 120.1153650  34.3444650
  24.6024190 106.9917620  49.6964920  24.4889640 107.3112230  50.5916440
  25.4193930 107.3930130  49.4002200  27.3822680 124.1389150  49.1783610
  28.1748000 123.6438380  48.9709570  27.6755830 124.8179290  49.7859220
  23.5082340 115.0110090  20.0599660  23.4276390 114.0964700  19.7891370
  23.0946760 115.5077160  19.3539370  21.6400380 116.7889110  21.9408930
  20.8642480 116.3089550  22.2307500  22.2913310 116.1094760  21.7665090
  15.6566210 117.1008920  22.8184690  14.8251090 116.8457630  23.2181200
  16.2647190 117.1719690  23.5542610  25.6607810 121.1949300  20.7208060
  25.1989340 120.4236540  21.0495230  26.4733360 121.2215370  21.2260510
  15.6367470 121.1349010  23.0142710  15.9395510 120.2446750  22.8352930
  16.3811060 121.6919230  22.7864960  14.0658160 112.0610810  16.6027080
  13.1774860 112.4026780  16.5006960  14.3499350 111.8611130  15.7107910
  12.0291170 114.6616460  22.4866780  12.6007280 113.8938660  22.4870420
  12.0292710 114.9605220  21.5773390  21.8871120 123.4807310  20.3412050
  21.2682560 123.9364810  19.7706490  22.7422900 123.6358770  19.9401750
  21.0809370 119.4646300  21.9479090  21.0117650 118.5236240  21.7868220
  21.8429230 119.5547710  22.5201660  13.2716040 110.0700820  24.2735710
  13.0918880 109.1726570  24.5538470  12.8696120 110.6172690  24.9482660
  22.1114540 112.2716680  22.1748020  22.4879360 111.3988560  22.0621690
  22.0134050 112.6075380  21.2838460  16.2419550 110.6442310  17.6365460
  16.3486300 111.5446040  17.9434220  15.3311910 110.5960280  17.3460110
  25.8938660 109.7667120  19.1076360  26.7148280 109.2763690  19.1501840
  25.9272740 110.3564780  19.8608200  13.8902710 112.5661320  22.8818050
  14.5712820 112.8299690  23.5005450  13.5750760 111.7262190  23.2156060
  18.0827280 113.6128680  21.9690640  18.5905500 114.1109650  22.6095660
  18.6140520 112.8363880  21.7930000  30.1838210 111.7833870  25.6719990
  29.4790380 112.1715580  25.1535100  30.4496130 112.4784160  26.2740920
  16.3663380 108.2527240  26.2354060  16.3681820 108.7699630  25.4299960
  15.5367690 107.7757420  26.2123990  22.7534470 118.3646550  17.7343960
  22.1351740 118.8296000  17.1706680  23.2657720 119.0574030  18.1513470
  17.6166230 117.8922420  24.4127560  17.2835610 118.5191340  25.0548630
  17.7932910 118.4184300  23.6329230  26.1300140 111.7067500  21.8803900
  25.4255710 111.9952390  22.4607010  26.4912300 112.5167610  21.5203460
  16.0478710 109.9637200  24.2424510  16.3895520 110.8079250  23.9478380
  15.1094520 110.1120940  24.3589850  16.8285330 119.8603220  26.2276740
  17.4459330 120.5354300  25.9461190  15.9678450 120.2691200  26.1364240
  12.1217670 119.0503080  15.1083590  11.7445650 119.5390180  14.3768490
  12.3790740 119.7228360  15.7390120  27.7462920 121.3242630  24.1431380
  27.0626440 121.9941740  24.1348050  28.2857210 121.5223280  23.3776240
  29.1987060 111.1522290  22.2713110  28.2511970 111.1861270  22.4028540
  29.5237050 111.9661240  22.6562470  19.7306600 107.4519470  20.5669100
  20.0381580 106.8966360  19.8504600  18.8007300 107.5863930  20.3842090
  25.2821660 123.1686760  22.8576560  25.2948820 122.7649050  21.9898820
  24.7296880 123.9434050  22.7537990  26.5767080 119.8902980  17.9466730
  26.4663410 118.9477310  18.0716150  26.5735330 120.2518620  18.8329490
  24.6807100 118.0716600  24.1859170  25.0975890 117.8576710  23.3512630
  25.4046920 118.3289390  24.7567790  22.1187360 115.5168300  17.3029220
  21.1916640 115.4505680  17.5317690  22.2712180 116.4548430  17.1884460
  22.1056440 111.7885300  14.2996380  21.1660110 111.9499260  14.3848840
  22.4239700 112.5070980  13.7532370  28.6269200 116.4703820  24.2775410
  27.7987830 116.5396910  23.8025540  29.2219680 117.0558130  23.8091240
  26.1484650 117.0788600  17.8064470  25.5297070 116.7408150  17.1590770
  26.1309100 116.4348360  18.5143660  25.5911210 113.2573140  25.2230280
  25.1782390 114.0826850  25.4770270  24.8587160 112.6718180  25.0306640
  17.7244000 116.0433040  20.0848950  17.3201000 115.3310290  19.5894850
  17.8107120 115.6986280  20.9736990  18.1925700 119.7300600  22.2488160
  17.8953990 119.1246070  21.5695940  19.1425520 119.7677910  22.1377520
  16.4372620 112.8176250  23.8647990  16.9887210 112.9271590  23.0901240
  16.9516130 113.1913850  24.5803220  26.2811310 123.3032470  25.9111260
  25.8041870 124.1104660  25.7183870  25.5973100 122.6510800  26.0637470
  17.2844130 119.4682290  28.8995960  16.3872660 119.6922260  29.1469360
  17.3097000 119.5917230  27.9507360  24.3249350 116.3175410  14.8137220
  24.7642630 115.4797840  14.6675040  25.0377770 116.9504810  14.9001360
  16.1115350 116.3395610  27.4753330  15.9723120 117.2118410  27.8440730
  15.2296710 115.9968420  27.3301270  22.4344730 121.2571480  18.7818460
  22.8740640 121.9995810  18.3673850  22.3731620 121.4998050  19.7057420
  17.9095700 122.2817310  29.6838480  17.8811130 122.6860260  28.8166910
  17.7460670 121.3527670  29.5210080  27.9066490 107.5718220  13.1278260
  27.5939150 107.6645050  14.0277330  28.6678960 108.1499250  13.0775690
  14.4248630 114.9378020  17.5855600  14.3046230 115.6640110  16.9736870
  14.1149520 114.1680930  17.1083510  29.8610520 123.0644410  30.9802650
  30.3370240 123.5427300  31.6591730  30.4817680 122.9961900  30.2548150
  12.0634000 118.1093160  23.3924240  12.1414420 118.2441930  22.4479960
  12.6775680 117.4009050  23.5852360  13.3081630 119.8093350  19.8030420
  12.9009710 119.9507940  18.9484020  14.1994640 119.5253510  19.6001630
  29.2643770 120.2557260  28.1402660  29.3906830 120.0169140  27.2219840
  29.3065150 119.4241800  28.6124740  23.1260510 123.9585260  26.7097470
  23.6405180 123.8693270  27.5119900  22.2829590 124.3044960  27.0025380
  25.1014910 124.2440600  16.1381470  24.9416050 123.9543540  17.0363300
  24.9361620 123.4680730  15.6026700  17.5803290 124.0239130  17.9153090
  17.4045770 123.1074670  17.7020890  16.7259030 124.3826420  18.1550890
  24.8041040 121.7528160  14.6979470  24.1106200 121.7505450  14.0381750
  25.5463900 121.3287480  14.2673640  24.3690970 123.3790870  18.7727960
  24.8247920 122.5980250  19.0866580  24.7083490 124.0897690  19.3169140
  29.1167780 112.3089720  29.1052400  28.5012050 112.8169390  28.5767860
  28.7964200 111.4088050  29.0478340  12.1193520 119.1507330  25.9318700
  12.2824560 118.6812690  25.1138070  12.5845970 118.6430890  26.5967540
  16.8912290 108.2813090  20.9679270  16.4480440 109.0622630  20.6363790
  17.4497280 108.6042980  21.6750210  21.1782100 111.1481610  26.5714590
  20.7161470 111.3564630  27.3834530  20.7760210 110.3340960  26.2685260
  26.1786610 112.3690560  27.7011250  25.3280200 112.0696310  28.0220320
  26.0188400 112.6132570  26.7895070  23.2736320 113.8692310  29.8010040
  23.5989730 113.0356060  29.4612270  24.0616650 114.3920830  29.9488370
  20.0071110 107.9023790  15.8485100  19.3825290 107.8983660  16.5738410
  19.9201230 107.0354750  15.4521070  18.9288190 108.8260420  22.8268870
  19.2260520 109.7323250  22.7460890  19.4773750 108.3379200  22.2128440
  16.6826510 113.4046660  18.6960520  16.4567430 113.1883830  19.6007140
  15.9019040 113.8375120  18.3506490  23.9124270 113.4110030  17.2951170
  23.3133160 114.1345830  17.1114790  24.4603880 113.3486810  16.5127620
  19.1225720 114.3032240  29.3620790  19.0269320 113.3626970  29.2121190
  19.9657700 114.5247310  28.9668860  22.5189140 112.0473570  19.3254450
  22.9118710 112.3645770  18.5123140  22.8805990 111.1685450  19.4398970
  14.2536260 110.7145910  27.5154570  13.8599650 111.5621120  27.7227350
  13.5654660 110.0772280  27.7063210  20.8281310 110.7980880  30.5851310
  20.1379630 110.6053080  31.2197400  21.5713610 111.0815520  31.1175610
  11.5553310 108.6374370  21.5484650  11.2666360 109.2077230  22.2609630
  12.2999070 108.1578820  21.9115880  11.7423540 112.5794490  12.7587370
  11.6598210 113.5225250  12.9002360  11.3906600 112.4369400  11.8799720
  23.1044280 114.6379320  23.4205230  22.3725400 115.1466130  23.7695330
  22.7068620 113.8209300  23.1194010  19.5421670 111.3133520  21.8257720
  19.5457730 110.8723470  20.9762260  20.4372790 111.6350850  21.9329540
  15.3924050 111.1960010  20.7851930  15.0524100 111.6735240  21.5418980
  14.6301370 110.7425130  20.4253030  19.6041820 112.3145600  14.8164480
  19.7254640 112.2732080  15.7650300  19.2190330 113.1769750  14.6611210
  23.5670190 110.0913000  22.8328170  23.5842930 110.5421650  23.6770020
  23.3185770 109.1918640  23.0461610  18.6163320 114.6246740  14.2147780
  18.0480220 114.1764990  13.5883690  19.3252320 114.9839520  13.6812930
  26.9940940 107.5045180  28.6714550  27.3186710 106.7734840  29.1972530
  27.0297450 107.1858820  27.7695540  13.6932500 118.5258760  28.0914510
  13.3087290 117.8852430  28.6897470  14.0044690 119.2294880  28.6609240
  19.8429640 115.3735300  23.5723130  20.2099770 114.8993870  24.3184470
  19.6534700 116.2476870  23.9131470  12.7070130 110.1178990  19.7016600
  12.4217050 109.7534660  20.5395220  12.6448990 109.3859450  19.0879740
  17.6329010 114.4143940  25.8907340  17.3286080 115.2935920  26.1157700
  18.5875470 114.4743730  25.9264780  16.1610800 118.6204930  16.4874190
  15.3873060 118.0802550  16.3272910  16.8905430 118.1011540  16.1491950
  26.9198780 117.6170290  22.2800580  27.6397900 118.1125580  21.8896690
  26.7180600 116.9388180  21.6354450  22.3808720 109.0108250  16.4229970
  21.5673330 108.5121420  16.3475280  22.1870670 109.8506500  16.0066320
  22.3017580 117.6879350  28.1669580  22.2354890 116.7675020  27.9127170
  21.6722720 117.7854790  28.8814220  25.0957110 113.3827900  14.7192130
  25.9836730 113.6945130  14.5443470  25.0662200 112.5100150  14.3272710
  16.2048200 118.2885310  20.1253000  16.7226870 117.4853570  20.0709890
  15.7532220 118.2264450  20.9669830  21.0917700 119.5551590  15.3980300
  21.4333400 120.2993820  14.9023620  20.2630410 119.8682710  15.7605130
  13.6892740 115.2546680  27.0378700  13.3307680 115.9200530  27.6252040
  13.3947300 114.4230230  27.4091320  16.8905860 115.7130920  29.9218250
  16.5906000 115.8588100  29.0246070  17.6617100 115.1536210  29.8291640
  22.2334310 120.5099920  27.9173380  22.2478850 119.5780880  27.6992290
  21.5259410 120.5959680  28.5563150  27.3671380 114.6939740  14.1871990
  27.2835100 115.1253960  13.3368430  28.0865570 115.1538090  14.6198810
  28.4445520 117.1507260  27.2641960  27.7193710 117.7436040  27.0671350
  28.9720980 117.1430800  26.4655330  28.3958630 121.5482000  16.9154120
  27.7534790 120.8937620  17.1897840  28.0089290 121.9537090  16.1394790
  23.9745110 118.8767430  20.7625810  24.3268930 118.2795560  20.1027180
  23.0907440 118.5511660  20.9334060  20.0608390 119.6365120  18.1696220
  20.7479520 120.1834330  18.5503810  19.2740810 120.1805850  18.2045830
  12.2000790 115.2537940  13.6613300  13.0695640 115.5362740  13.9449220
  11.7091110 116.0673810  13.5462110  19.3635600 116.6411150  17.7821580
  19.8198380 117.4516400  18.0081770  19.0123810 116.3234290  18.6140070
  21.6668210 122.1517490  25.0113880  22.3110430 122.3576870  25.6887300
  22.0297650 121.3905890  24.5584730  15.2647380 106.9848800  18.2544100
  15.1362010 106.9766700  19.2029020  14.4409400 107.3231890  17.9035110
  22.9400290 120.1549840  23.7291330  23.5822520 119.4543000  23.8423500
  23.4649640 120.9348280  23.5488220  26.7856010 120.4398460  13.4530470
  26.5593590 119.7228900  14.0455110  26.3952210 120.1910900  12.6152220
  24.7137910 120.9544740  26.9327390  25.0494150 121.5411430  27.6105310
  23.7938250 120.8237450  27.1625180  12.5672040 124.4665320  14.2274930
  12.9269680 125.0654660  13.5732200  12.4264380 125.0125210  15.0009960
  12.2641310 108.7439920  27.7150800  11.5499830 108.9436840  28.3203410
  12.6836350 107.9679490  28.0865600  26.3672260 118.3570400  15.1144630
  26.0793960 118.8183090  15.9022510  27.1624430 117.8968170  15.3828850
  12.5513900 122.7320180  28.7017330  12.6605020 121.7914920  28.5612720
  11.8994460 122.9974930  28.0531060  20.5426490 121.0036070  30.1015450
  20.2223360 120.2845310  30.6461140  19.8684850 121.6791140  30.1751510
  18.5840660 121.8496520  15.0448600  18.5750760 122.5826210  14.4293110
  17.6639020 121.6028100  15.1375560  14.1847300 117.0711410  15.7895360
  13.5775250 117.8110310  15.7990660  14.6596650 117.1610770  14.9633560
  23.7580090 111.2362230  25.4652250  24.1260910 110.4157440  25.7931820
  22.8978290 111.2964120  25.8807900  27.1242120 110.1919170  16.2739810
  26.4955280 110.2964840  15.5598040  26.6294040 110.4115950  17.0633690
  21.5700260 121.9124760  13.7073790  21.6712240 121.7088750  12.7775770
  20.6702000 121.6583040  13.9121570  19.0926150 112.4705120  17.6897690
  18.3842300 112.9391460  18.1311300  19.3770630 111.8127130  18.3242880
  20.7182080 113.8901820  25.6890220  21.2167330 114.3647640  26.3542070
  20.8605030 112.9665340  25.8960250  23.1241580 109.1955780  19.1293480
  23.0009360 109.2141910  18.1802990  24.0726140 109.2434720  19.2491880
  20.2118370 124.4311080  18.4021460  20.4659870 124.3932470  17.4800830
  19.2630850 124.3044410  18.3949710  17.2961170 110.7790200  15.0648400
  18.1451700 111.2160350  14.9988590  16.9292440 111.0910460  15.8920460
  27.9248940 110.1069780  26.5318610  27.4222540 110.8475180  26.8712420
  28.7405600 110.4953780  26.2155400  26.2170950 115.3502960  19.9779970
  25.2761090 115.3653190  20.1527660  26.5315020 114.5638920  20.4240270
  16.1952590 117.0322560  13.5383930  16.9615860 116.9203920  14.1009360
  16.2727280 116.3360530  12.8860700  14.8899350 114.4647630  14.2216820
  14.9702940 113.5175140  14.3334220  15.7819100 114.7954510  14.3277480
  28.2196530 122.5211810  21.6534230  28.3443950 123.3442980  22.1258040
  29.0862090 122.3102540  21.3058380  15.6914060 124.6143020  21.3251360
  16.4276540 124.0658480  21.5959930  16.0754980 125.4799030  21.1857350
  12.5759540 120.6816590  17.1992870  11.6499320 120.9237730  17.1898280
  13.0415970 121.5090850  17.0777620  14.6972340 123.7989090  30.5136940
  15.4985070 124.1201140  30.9272340  14.1824160 123.4384670  31.2356850
  18.8016370 123.7873330  13.1476930  19.5944980 124.0762160  12.6958720
  18.2820720 123.3565500  12.4689410  23.5336970 119.9068960  30.4612350
  22.9275130 119.9300560  29.7208100  23.2291080 119.1752000  30.9979600
  24.9637340 123.6349250  29.0721760  25.9159090 123.5507270  29.0222000
  24.8165560 124.2990960  29.7455550  27.8546540 123.0143460  14.5713670
  27.5688050 122.6008600  13.7567850  27.6566090 123.9431170  14.4514190
  12.4170150 116.2862550  29.4572990  12.9209170 115.7069830  30.0289220
  11.6777570 116.5702780  29.9949360  19.3193770 119.0076740  13.0119280
  19.2144410 118.3929090  13.7380660  19.1517990 118.4842630  12.2282290
  19.4708090 117.6933540  28.9908510  18.7053760 118.2618540  28.9063180
  19.6524050 117.4009750  28.0976740  22.5596500 118.0696770  13.6161270
  22.0106600 118.5166070  14.2604010  23.1815760 117.5646020  14.1398940
  26.6131440 119.4238870  29.5483530  27.3540910 119.7614630  29.0450990
  25.8504120 119.5930930  28.9953300  14.4493230 114.4292140  30.3523060
  14.4898570 114.1306010  31.2608290  15.3038730 114.8299750  30.1930580
  18.2271620 117.0287690  15.5126570  18.6488040 116.8627560  16.3557960
  18.3522460 116.2187920  15.0181710  16.3899040 113.0084240  28.3197550
  15.8595500 112.5175190  27.6920890  17.0587110 113.4368440  27.7855480
  20.7399260 116.0525300  12.7603670  21.2604920 115.3374320  12.3944820
  21.3867660 116.6911170  13.0604180  25.2877100 117.4753700  28.0838740
  25.7018120 117.6298780  28.9329160  24.3528100 117.6008920  28.2464520
  25.7599270 114.8149860  30.0877890  26.3420040 114.0602180  29.9998370
  25.9361040 115.3457300  29.3109370  16.8771340 109.9746610  28.3994840
  16.7828210 109.3567360  27.6745710  16.2968730 110.7012900  28.1724750
  19.6432780 108.5319850  25.4322230  19.1950080 108.5544110  24.5867780
  19.0097980 108.1338870  26.0292530  20.0492330 117.4274180  26.0534670
  20.4680440 118.2706910  25.8810910  19.1300960 117.5646220  25.8241450
  22.3856230 115.1590360  27.4372510  22.5052440 114.5631500  28.1767350
  23.2450230 115.1960050  27.0173810  24.7244130 115.7127550  26.0135020
  24.1979350 116.2370170  25.4100160  25.0675470 116.3454940  26.6444750
  17.1230520 113.1020920  12.4584730  16.9219580 112.2388280  12.8198070
  16.9522570 113.0154280  11.5206330  17.8999750 123.7327190  27.1692400
  17.3620840 124.4573250  26.8501100  18.1533710 123.2557530  26.3789740
  19.1525000 111.7011710  28.6948330  19.7424690 111.3927560  29.3826150
  18.3345240 111.2291460  28.8508230  23.9718430 111.3177520  28.9281350
  23.2833950 110.6559060  28.8631340  24.6924450 110.8715790  29.3729810
  24.6018830 107.9129150  14.9871610  24.8821120 107.0697050  15.3431030
  23.8284560 108.1452260  15.5010360  15.9213320 110.2021540  12.4462610
  16.2239220 110.2088970  11.5381760  16.6607910 109.8519400  12.9430270
  20.7561960 124.9678400  27.4279050  20.6820660 125.8713540  27.7351420
  19.8540800 124.6490300  27.4001120  19.1398250 109.1456160  13.4318810
  18.7920250 108.4680150  12.8521260  19.3411020 108.6845670  14.2462200
  21.3047290 124.1336910  15.0505410  22.1998080 124.4721880  15.0724170
  21.3364920 123.4116320  14.4229690  14.9443450 119.5063960  13.2792410
  15.3818320 120.0493630  13.9349990  15.4291180 118.6810910  13.2888750
  12.1589250 122.2952990  20.7312670  12.4892260 121.4274050  20.4991310
  12.5880250 122.5011510  21.5617630  16.7551170 120.6262000  18.3914640
  16.4546710 120.5026970  19.2918550  16.6488660 119.7670590  17.9830370
  12.6479460 123.1623580  23.4694300  12.2110450 123.3424380  24.3018450
  13.2157140 123.9198200  23.3276020  28.2841640 122.6640580  27.7571610
  27.6843630 122.7233140  27.0135530  28.4135540 121.7245560  27.8868460
  29.5243090 120.4058400  13.0941320  28.6936050 120.4735050  13.5648550
  29.7014920 121.2962520  12.7908180  28.9799550 117.1505880  15.5975520
  29.7418460 117.7202530  15.7035210  28.9953920 116.5833080  16.3683830
  12.4803890 115.6743810  19.8283180  11.8252730 115.4055450  19.1842880
  13.3181840 115.5648290  19.3785160  29.9859520 118.0055980  20.4417450
  30.3568350 117.2223300  20.0353420  30.6261450 118.6945080  20.2634750
  26.9693280 119.3892560  25.8547770  26.1553120 119.8189720  26.1173560
  27.3767480 120.0010970  25.2416820  29.0318720 117.4440250  12.7548040
  29.3067560 118.3519130  12.6267260  28.8429460 117.3802780  13.6910030
  25.4294330 110.4685100  14.0501670  25.8479210 110.2816080  13.2098330
  25.1230390 109.6164150  14.3604600  28.9284060 115.3809240  17.7477470
  28.5527660 114.6137170  17.3158760  28.1987180 115.7631940  18.2352400
  13.5179820 116.0596380  24.3686520  13.8852860 115.9723780  25.2482540
  12.9490640 115.2962930  24.2693380  28.3183680 114.5280760  27.3816990
  28.0869770 114.2993510  26.4814940  28.5788230 115.4480310  27.3361880
  13.0695820 112.9705470  28.2744940  12.1751870 112.9372230  28.6138650
  13.6093370 113.1692260  29.0396190  26.7571750 109.7537190  30.1596690
  27.6341930 109.7620590  30.5430690  26.7692590 109.0168030  29.5489040
  11.6941970 112.8842740  15.7708510  10.7906050 113.1472940  15.5960170
  12.1782590 113.1553910  14.9908470  28.2035020 113.6066730  21.0484710
  28.7272500 113.1129380  20.4174880  28.7894440 113.7417090  21.7932280
  28.3824740 113.6906600  24.5704260  27.4327450 113.6570140  24.6849250
  28.5637750 114.6006710  24.3354030  14.2369180 111.9408280  13.6802890
  14.9460880 111.5191500  13.1950170  13.5209120 112.0083510  13.0486240
  13.8843340 107.9947610  12.7205540  14.6071470 108.5356550  13.0386760
  14.1567860 107.7211030  11.8447080  27.6934990 112.8640080  16.9877120
  28.1894110 112.6310950  17.7726000  27.4951060 112.0251920  16.5714760
  13.5735530 107.2453800  22.6228160  14.2211720 106.6951180  22.1823320
  13.9937370 107.4996950  23.4443970  29.1222150 111.5001030  19.5214800
  29.0121430 111.3457070  20.4597070  29.8829740 110.9721970  19.2790210
  27.4687870 107.4395160  25.9797800  28.1060090 108.0529300  26.3456990
  27.6162760 107.4755820  25.0347030  30.0112420 109.3308950  12.7620940
  30.9361730 109.1990130  12.5539230  29.9888210 109.4101770  13.7157390
  30.0850910 110.1019610  15.3877650  29.2902410 110.0364730  15.9170560
  30.2894190 111.0370250  15.3763000  27.0269330 124.1411160  19.3816040
  27.6228400 123.8195730  18.7050460  27.2847480 123.6682980  20.1729310
  13.3267530 107.4009470  25.3653480  12.9782350 107.8573290  26.1311660
  12.9955230 106.5066600  25.4475910  14.9331900 120.5729070  29.5306670
  14.8901530 120.2021980  30.4121130  15.0642910 121.5106640  29.6708490
  18.6337930 122.1288660  25.1316390  18.3929290 122.3963220  24.2446910
  19.5740570 122.2994390  25.1867250  20.8392350 108.5921350  28.8872900
  20.7781240 109.1843180  29.6368310  21.7792730 108.4847310  28.7423160
  23.4766910 108.2491410  28.5265190  24.0907320 108.5670700  27.8646270
  24.0216470 107.7640000  29.1461050  29.8942090 124.1483040  25.9327030
  29.4000370 124.5451910  25.2154160  29.2855380 123.5232250  26.3264310
  13.9988170 106.9285670  28.6404250  14.5471160 106.7473720  27.8770360
  14.0643480 106.1379780  29.1760560  14.7719930 123.5191320  26.6504450
  14.1780250 123.3876020  27.3894490  14.7643770 122.6829460  26.1846550
  24.2174950 106.8123550  24.8534480  23.3434790 107.1458660  24.6507410
  24.1085700 106.3396730  25.6786350  25.1246930 109.0194420  26.2376200
  24.7960290 108.2046180  25.8577930  26.0729230 108.9764230  26.1141890
  27.5781540 124.7906460  23.2113770  27.1184510 125.5422270  22.8371790
  26.9494000 124.0712930  23.1528570  14.4032160 120.8849700  25.6012490
  13.6766220 120.2654990  25.5338440  14.4641310 121.2790310  24.7310570
  18.0077260 123.0994700  22.3861900  18.5242280 122.4882060  21.8610160
  18.6574640 123.6023480  22.8772910  20.7472760 123.9903190  23.2130880
  21.0350570 123.7357490  22.3363890  21.2595980 123.4380550  23.8036450
  21.9649770 107.7293390  23.7927390  21.1821560 108.2038890  24.0724150
  21.6712700 106.8248220  23.6840570  26.5170840 108.4316490  21.8376480
  26.9578930 108.3761590  20.9898080  26.2478430 109.3474500  21.9086660
  28.3809410 108.0631730  19.8485300  28.3197810 107.1192950  19.7016320
  29.1601440 108.1711820  20.3938760  12.6862160 124.2024090  18.8109250
  12.5184200 123.5694770  19.5091140  11.8196670 124.4083490  18.4603440
  13.3090180 108.0340870  16.3141110  14.0669540 108.1469750  15.7405140
  12.8467350 108.8710070  16.2684540  19.8503990 110.1480140  19.3043420
  19.0378500 109.7737030  18.9639300  20.3545630 109.3925220  19.6064610
  24.3528970 106.8122590  20.5426490  24.9558340 107.3842800  21.0175010
  23.6121960 107.3762030  20.3200390  27.4963570 107.2144150  15.8166770
  27.6914200 108.1127600  16.0834200  26.7093440 106.9831230  16.3099720
  14.2924860 122.8957320  16.2559390  13.7672480 123.2765350  15.5521350
  14.2169440 123.5208090  16.9769100  15.6815330 108.5604920  14.8543080
  16.2108090 107.7734720  14.7251030  16.3143650 109.2396110  15.0878610
  17.8753170 108.2980060  17.9088470  17.2455910 107.5967370  18.0758600
  17.3358310 109.0584190  17.6921630  20.8145120 124.9119290  30.5799080
  21.7412430 124.6763560  30.6235040  20.7995550 125.7391290  30.0985110
  29.0490180 124.4544860  17.5773330  29.2242370 123.7682600  16.9334250
  28.3511750 124.9791910  17.1850000  18.0008730 107.5764040  30.3440960
  17.7193000 108.0797640  29.5801780  18.3828430 106.7785790  29.9783090
  16.8917830 124.8439700  15.1308640  17.6236650 124.5598980  14.5832530
  17.1511500 124.6052980  16.0208020  16.0532620 120.9604430  15.1354970
  15.4241500 121.4289530  15.6840800  16.1680450 120.1153650  15.5701160
  24.6024190 106.9917620  30.9221430  24.4889640 107.3112230  31.8172950
  25.4193930 107.3930130  30.6258710  27.3822680 124.1389150  30.4040120
  28.1748000 123.6438380  30.1966080  27.6755830 124.8179290  31.0115730
  21.6400380 116.7889110   3.1665440  20.8642480 116.3089550   3.4564010
  22.2913310 116.1094760   2.9921600  15.6566210 117.1008920   4.0441200
  14.8251090 116.8457630   4.4437710  16.2647190 117.1719690   4.7799120
  25.6607810 121.1949300   1.9464570  25.1989340 120.4236540   2.2751740
  26.4733360 121.2215370   2.4517020  15.6367470 121.1349010   4.2399220
  15.9395510 120.2446750   4.0609440  16.3811060 121.6919230   4.0121470
  12.0291170 114.6616460   3.7123290  12.6007280 113.8938660   3.7126930
  12.0292710 114.9605220   2.8029900  21.0809370 119.4646300   3.1735600
  21.0117650 118.5236240   3.0124730  21.8429230 119.5547710   3.7458170
  13.2716040 110.0700820   5.4992220  13.0918880 109.1726570   5.7794980
  12.8696120 110.6172690   6.1739170  22.1114540 112.2716680   3.4004530
  22.4879360 111.3988560   3.2878200  22.0134050 112.6075380   2.5094970
  13.8902710 112.5661320   4.1074560  14.5712820 112.8299690   4.7261960
  13.5750760 111.7262190   4.4412570  18.0827280 113.6128680   3.1947150
  18.5905500 114.1109650   3.8352170  18.6140520 112.8363880   3.0186510
  30.1838210 111.7833870   6.8976500  29.4790380 112.1715580   6.3791610
  30.4496130 112.4784160   7.4997430  16.3663380 108.2527240   7.4610570
  16.3681820 108.7699630   6.6556470  15.5367690 107.7757420   7.4380500
  17.6166230 117.8922420   5.6384070  17.2835610 118.5191340   6.2805140
  17.7932910 118.4184300   4.8585740  26.1300140 111.7067500   3.1060410
  25.4255710 111.9952390   3.6863520  26.4912300 112.5167610   2.7459970
  16.0478710 109.9637200   5.4681020  16.3895520 110.8079250   5.1734890
  15.1094520 110.1120940   5.5846360  16.8285330 119.8603220   7.4533250
  17.4459330 120.5354300   7.1717700  15.9678450 120.2691200   7.3620750
  27.7462920 121.3242630   5.3687890  27.0626440 121.9941740   5.3604560
  28.2857210 121.5223280   4.6032750  29.1987060 111.1522290   3.4969620
  28.2511970 111.1861270   3.6285050  29.5237050 111.9661240   3.8818980
  25.2821660 123.1686760   4.0833070  25.2948820 122.7649050   3.2155330
  24.7296880 123.9434050   3.9794500  24.6807100 118.0716600   5.4115680
  25.0975890 117.8576710   4.5769140  25.4046920 118.3289390   5.9824300
  28.6269200 116.4703820   5.5031920  27.7987830 116.5396910   5.0282050
  29.2219680 117.0558130   5.0347750  25.5911210 113.2573140   6.4486790
  25.1782390 114.0826850   6.7026780  24.8587160 112.6718180   6.2563150
  18.1925700 119.7300600   3.4744670  17.8953990 119.1246070   2.7952450
  19.1425520 119.7677910   3.3634030  16.4372620 112.8176250   5.0904500
  16.9887210 112.9271590   4.3157750  16.9516130 113.1913850   5.8059730
  26.2811310 123.3032470   7.1367770  25.8041870 124.1104660   6.9440380
  25.5973100 122.6510800   7.2893980  17.2844130 119.4682290  10.1252470
  16.3872660 119.6922260  10.3725870  17.3097000 119.5917230   9.1763870
  16.1115350 116.3395610   8.7009840  15.9723120 117.2118410   9.0697240
  15.2296710 115.9968420   8.5557780  17.9095700 122.2817310  10.9094990
  17.8811130 122.6860260  10.0423420  17.7460670 121.3527670  10.7466590
  29.8610520 123.0644410  12.2059160  30.3370240 123.5427300  12.8848240
  30.4817680 122.9961900  11.4804660  12.0634000 118.1093160   4.6180750
  12.1414420 118.2441930   3.6736470  12.6775680 117.4009050   4.8108870
  29.2643770 120.2557260   9.3659170  29.3906830 120.0169140   8.4476350
  29.3065150 119.4241800   9.8381250  23.1260510 123.9585260   7.9353980
  23.6405180 123.8693270   8.7376410  22.2829590 124.3044960   8.2281890
  29.1167780 112.3089720  10.3308910  28.5012050 112.8169390   9.8024370
  28.7964200 111.4088050  10.2734850  12.1193520 119.1507330   7.1575210
  12.2824560 118.6812690   6.3394580  12.5845970 118.6430890   7.8224050
  16.8912290 108.2813090   2.1935780  16.4480440 109.0622630   1.8620300
  17.4497280 108.6042980   2.9006720  21.1782100 111.1481610   7.7971100
  20.7161470 111.3564630   8.6091040  20.7760210 110.3340960   7.4941770
  26.1786610 112.3690560   8.9267760  25.3280200 112.0696310   9.2476830
  26.0188400 112.6132570   8.0151580  23.2736320 113.8692310  11.0266550
  23.5989730 113.0356060  10.6868780  24.0616650 114.3920830  11.1744880
  18.9288190 108.8260420   4.0525380  19.2260520 109.7323250   3.9717400
  19.4773750 108.3379200   3.4384950  19.1225720 114.3032240  10.5877300
  19.0269320 113.3626970  10.4377700  19.9657700 114.5247310  10.1925370
  14.2536260 110.7145910   8.7411080  13.8599650 111.5621120   8.9483860
  13.5654660 110.0772280   8.9319720  20.8281310 110.7980880  11.8107820
  20.1379630 110.6053080  12.4453910  21.5713610 111.0815520  12.3432120
  11.5553310 108.6374370   2.7741160  11.2666360 109.2077230   3.4866140
  12.2999070 108.1578820   3.1372390  23.1044280 114.6379320   4.6461740
  22.3725400 115.1466130   4.9951840  22.7068620 113.8209300   4.3450520
  19.5421670 111.3133520   3.0514230  19.5457730 110.8723470   2.2018770
  20.4372790 111.6350850   3.1586050  15.3924050 111.1960010   2.0108440
  15.0524100 111.6735240   2.7675490  14.6301370 110.7425130   1.6509540
  23.5670190 110.0913000   4.0584680  23.5842930 110.5421650   4.9026530
  23.3185770 109.1918640   4.2718120  26.9940940 107.5045180   9.8971060
  27.3186710 106.7734840  10.4229040  27.0297450 107.1858820   8.9952050
  13.6932500 118.5258760   9.3171020  13.3087290 117.8852430   9.9153980
  14.0044690 119.2294880   9.8865750  19.8429640 115.3735300   4.7979640
  20.2099770 114.8993870   5.5440980  19.6534700 116.2476870   5.1387980
  17.6329010 114.4143940   7.1163850  17.3286080 115.2935920   7.3414210
  18.5875470 114.4743730   7.1521290  26.9198780 117.6170290   3.5057090
  27.6397900 118.1125580   3.1153200  26.7180600 116.9388180   2.8610960
  22.3017580 117.6879350   9.3926090  22.2354890 116.7675020   9.1383680
  21.6722720 117.7854790  10.1070730  13.6892740 115.2546680   8.2635210
  13.3307680 115.9200530   8.8508550  13.3947300 114.4230230   8.6347830
  16.8905860 115.7130920  11.1474760  16.5906000 115.8588100  10.2502580
  17.6617100 115.1536210  11.0548150  22.2334310 120.5099920   9.1429890
  22.2478850 119.5780880   8.9248800  21.5259410 120.5959680   9.7819660
  28.4445520 117.1507260   8.4898470  27.7193710 117.7436040   8.2927860
  28.9720980 117.1430800   7.6911840  21.6668210 122.1517490   6.2370390
  22.3110430 122.3576870   6.9143810  22.0297650 121.3905890   5.7841240
  22.9400290 120.1549840   4.9547840  23.5822520 119.4543000   5.0680010
  23.4649640 120.9348280   4.7744730  24.7137910 120.9544740   8.1583900
  25.0494150 121.5411430   8.8361820  23.7938250 120.8237450   8.3881690
  12.2641310 108.7439920   8.9407310  11.5499830 108.9436840   9.5459920
  12.6836350 107.9679490   9.3122110  12.5513900 122.7320180   9.9273840
  12.6605020 121.7914920   9.7869230  11.8994460 122.9974930   9.2787570
  20.5426490 121.0036070  11.3271960  20.2223360 120.2845310  11.8717650
  19.8684850 121.6791140  11.4008020  23.7580090 111.2362230   6.6908760
  24.1260910 110.4157440   7.0188330  22.8978290 111.2964120   7.1064410
  20.7182080 113.8901820   6.9146730  21.2167330 114.3647640   7.5798580
  20.8605030 112.9665340   7.1216760  27.9248940 110.1069780   7.7575120
  27.4222540 110.8475180   8.0968930  28.7405600 110.4953780   7.4411910
  28.2196530 122.5211810   2.8790740  28.3443950 123.3442980   3.3514550
  29.0862090 122.3102540   2.5314890  15.6914060 124.6143020   2.5507870
  16.4276540 124.0658480   2.8216440  16.0754980 125.4799030   2.4113860
  14.6972340 123.7989090  11.7393450  15.4985070 124.1201140  12.1528850
  14.1824160 123.4384670  12.4613360  23.5336970 119.9068960  11.6868860
  22.9275130 119.9300560  10.9464610  23.2291080 119.1752000  12.2236110
  24.9637340 123.6349250  10.2978270  25.9159090 123.5507270  10.2478510
  24.8165560 124.2990960  10.9712060  12.4170150 116.2862550  10.6829500
  12.9209170 115.7069830  11.2545730  11.6777570 116.5702780  11.2205870
  19.4708090 117.6933540  10.2165020  18.7053760 118.2618540  10.1319690
  19.6524050 117.4009750   9.3233250  26.6131440 119.4238870  10.7740040
  27.3540910 119.7614630  10.2707500  25.8504120 119.5930930  10.2209810
  14.4493230 114.4292140  11.5779570  14.4898570 114.1306010  12.4864800
  15.3038730 114.8299750  11.4187090  16.3899040 113.0084240   9.5454060
  15.8595500 112.5175190   8.9177400  17.0587110 113.4368440   9.0111990
  25.2877100 117.4753700   9.3095250  25.7018120 117.6298780  10.1585670
  24.3528100 117.6008920   9.4721030  25.7599270 114.8149860  11.3134400
  26.3420040 114.0602180  11.2254880  25.9361040 115.3457300  10.5365880
  16.8771340 109.9746610   9.6251350  16.7828210 109.3567360   8.9002220
  16.2968730 110.7012900   9.3981260  19.6432780 108.5319850   6.6578740
  19.1950080 108.5544110   5.8124290  19.0097980 108.1338870   7.2549040
  20.0492330 117.4274180   7.2791180  20.4680440 118.2706910   7.1067420
  19.1300960 117.5646220   7.0497960  22.3856230 115.1590360   8.6629020
  22.5052440 114.5631500   9.4023860  23.2450230 115.1960050   8.2430320
  24.7244130 115.7127550   7.2391530  24.1979350 116.2370170   6.6356670
  25.0675470 116.3454940   7.8701260  17.8999750 123.7327190   8.3948910
  17.3620840 124.4573250   8.0757610  18.1533710 123.2557530   7.6046250
  19.1525000 111.7011710   9.9204840  19.7424690 111.3927560  10.6082660
  18.3345240 111.2291460  10.0764740  23.9718430 111.3177520  10.1537860
  23.2833950 110.6559060  10.0887850  24.6924450 110.8715790  10.5986320
  20.7561960 124.9678400   8.6535560  20.6820660 125.8713540   8.9607930
  19.8540800 124.6490300   8.6257630  12.1589250 122.2952990   1.9569180
  12.4892260 121.4274050   1.7247820  12.5880250 122.5011510   2.7874140
  12.6479460 123.1623580   4.6950810  12.2110450 123.3424380   5.5274960
  13.2157140 123.9198200   4.5532530  28.2841640 122.6640580   8.9828120
  27.6843630 122.7233140   8.2392040  28.4135540 121.7245560   9.1124970
  26.9693280 119.3892560   7.0804280  26.1553120 119.8189720   7.3430070
  27.3767480 120.0010970   6.4673330  13.5179820 116.0596380   5.5943030
  13.8852860 115.9723780   6.4739050  12.9490640 115.2962930   5.4949890
  28.3183680 114.5280760   8.6073500  28.0869770 114.2993510   7.7071450
  28.5788230 115.4480310   8.5618390  13.0695820 112.9705470   9.5001450
  12.1751870 112.9372230   9.8395160  13.6093370 113.1692260  10.2652700
  26.7571750 109.7537190  11.3853200  27.6341930 109.7620590  11.7687200
  26.7692590 109.0168030  10.7745550  28.2035020 113.6066730   2.2741220
  28.7272500 113.1129380   1.6431390  28.7894440 113.7417090   3.0188790
  28.3824740 113.6906600   5.7960770  27.4327450 113.6570140   5.9105760
  28.5637750 114.6006710   5.5610540  13.5735530 107.2453800   3.8484670
  14.2211720 106.6951180   3.4079830  13.9937370 107.4996950   4.6700480
  27.4687870 107.4395160   7.2054310  28.1060090 108.0529300   7.5713500
  27.6162760 107.4755820   6.2603540  13.3267530 107.4009470   6.5909990
  12.9782350 107.8573290   7.3568170  12.9955230 106.5066600   6.6732420
  14.9331900 120.5729070  10.7563180  14.8901530 120.2021980  11.6377640
  15.0642910 121.5106640  10.8965000  18.6337930 122.1288660   6.3572900
  18.3929290 122.3963220   5.4703420  19.5740570 122.2994390   6.4123760
  20.8392350 108.5921350  10.1129410  20.7781240 109.1843180  10.8624820
  21.7792730 108.4847310   9.9679670  23.4766910 108.2491410   9.7521700
  24.0907320 108.5670700   9.0902780  24.0216470 107.7640000  10.3717560
  29.8942090 124.1483040   7.1583540  29.4000370 124.5451910   6.4410670
  29.2855380 123.5232250   7.5520820  13.9988170 106.9285670   9.8660760
  14.5471160 106.7473720   9.1026870  14.0643480 106.1379780  10.4017070
  14.7719930 123.5191320   7.8760960  14.1780250 123.3876020   8.6151000
  14.7643770 122.6829460   7.4103060  24.2174950 106.8123550   6.0790990
  23.3434790 107.1458660   5.8763920  24.1085700 106.3396730   6.9042860
  25.1246930 109.0194420   7.4632710  24.7960290 108.2046180   7.0834440
  26.0729230 108.9764230   7.3398400  27.5781540 124.7906460   4.4370280
  27.1184510 125.5422270   4.0628300  26.9494000 124.0712930   4.3785080
  14.4032160 120.8849700   6.8269000  13.6766220 120.2654990   6.7594950
  14.4641310 121.2790310   5.9567080  18.0077260 123.0994700   3.6118410
  18.5242280 122.4882060   3.0866670  18.6574640 123.6023480   4.1029420
  20.7472760 123.9903190   4.4387390  21.0350570 123.7357490   3.5620400
  21.2595980 123.4380550   5.0292960  21.9649770 107.7293390   5.0183900
  21.1821560 108.2038890   5.2980660  21.6712700 106.8248220   4.9097080
  26.5170840 108.4316490   3.0632990  26.9578930 108.3761590   2.2154590
  26.2478430 109.3474500   3.1343170  24.3528970 106.8122590   1.7683000
  24.9558340 107.3842800   2.2431520  23.6121960 107.3762030   1.5456900
  20.8145120 124.9119290  11.8055590  21.7412430 124.6763560  11.8491550
  20.7995550 125.7391290  11.3241620  18.0008730 107.5764040  11.5697470
  17.7193000 108.0797640  10.8058290  18.3828430 106.7785790  11.2039600
  24.6024190 106.9917620  12.1477940  24.4889640 107.3112230  13.0429460
  25.4193930 107.3930130  11.8515220  27.3822680 124.1389150  11.6296630
  28.1748000 123.6438380  11.4222590  27.6755830 124.8179290  12.2372240
  23.5082340  96.2366600 151.4804090  23.4276390  95.3221210 151.2095800
  23.0946760  96.7333670 150.7743800  21.6400380  98.0145620 153.3613360
  20.8642480  97.5346060 153.6511930  22.2913310  97.3351270 153.1869520
  25.6607810 102.4205810 152.1412490  25.1989340 101.6493050 152.4699660
  26.4733360 102.4471880 152.6464940  15.6367470 102.3605520 154.4347140
  15.9395510 101.4703260 154.2557360  16.3811060 102.9175740 154.2069390
  14.0658160  93.2867320 148.0231510  13.1774860  93.6283290 147.9211390
  14.3499350  93.0867640 147.1312340  12.0291170  95.8872970 153.9071210
  12.6007280  95.1195170 153.9074850  12.0292710  96.1861730 152.9977820
  21.8871120 104.7063820 151.7616480  21.2682560 105.1621320 151.1910920
  22.7422900 104.8615280 151.3606180  21.0809370 100.6902810 153.3683520
  21.0117650  99.7492750 153.2072650  21.8429230 100.7804220 153.9406090
  22.1114540  93.4973190 153.5952450  22.4879360  92.6245070 153.4826120
  22.0134050  93.8331890 152.7042890  16.2419550  91.8698820 149.0569890
  16.3486300  92.7702550 149.3638650  15.3311910  91.8216790 148.7664540
  25.8938660  90.9923630 150.5280790  26.7148280  90.5020200 150.5706270
  25.9272740  91.5821290 151.2812630  18.0827280  94.8385190 153.3895070
  18.5905500  95.3366160 154.0300090  18.6140520  94.0620390 153.2134430
  22.7534470  99.5903060 149.1548390  22.1351740 100.0552510 148.5911110
  23.2657720 100.2830540 149.5717900  26.1300140  92.9324010 153.3008330
  25.4255710  93.2208900 153.8811440  26.4912300  93.7424120 152.9407890
  12.1217670 100.2759590 146.5288020  11.7445650 100.7646690 145.7972920
  12.3790740 100.9484870 147.1594550  29.1987060  92.3778800 153.6917540
  28.2511970  92.4117780 153.8232970  29.5237050  93.1917750 154.0766900
  19.7306600  88.6775980 151.9873530  20.0381580  88.1222870 151.2709030
  18.8007300  88.8120440 151.8046520  25.2821660 104.3943270 154.2780990
  25.2948820 103.9905560 153.4103250  24.7296880 105.1690560 154.1742420
  26.5767080 101.1159490 149.3671160  26.4663410 100.1733820 149.4920580
  26.5735330 101.4775130 150.2533920  22.1187360  96.7424810 148.7233650
  21.1916640  96.6762190 148.9522120  22.2712180  97.6804940 148.6088890
  22.1056440  93.0141810 145.7200810  21.1660110  93.1755770 145.8053270
  22.4239700  93.7327490 145.1736800  26.1484650  98.3045110 149.2268900
  25.5297070  97.9664660 148.5795200  26.1309100  97.6604870 149.9348090
  17.7244000  97.2689550 151.5053380  17.3201000  96.5566800 151.0099280
  17.8107120  96.9242790 152.3941420  18.1925700 100.9557110 153.6692590
  17.8953990 100.3502580 152.9900370  19.1425520 100.9934420 153.5581950
  24.3249350  97.5431920 146.2341650  24.7642630  96.7054350 146.0879470
  25.0377770  98.1761320 146.3205790  22.4344730 102.4827990 150.2022890
  22.8740640 103.2252320 149.7878280  22.3731620 102.7254560 151.1261850
  27.9066490  88.7974730 144.5482690  27.5939150  88.8901560 145.4481760
  28.6678960  89.3755760 144.4980120  14.4248630  96.1634530 149.0060030
  14.3046230  96.8896620 148.3941300  14.1149520  95.3937440 148.5287940
  13.3081630 101.0349860 151.2234850  12.9009710 101.1764450 150.3688450
  14.1994640 100.7510020 151.0206060  25.1014910 105.4697110 147.5585900
  24.9416050 105.1800050 148.4567730  24.9361620 104.6937240 147.0231130
  17.5803290 105.2495640 149.3357520  17.4045770 104.3331180 149.1225320
  16.7259030 105.6082930 149.5755320  24.8041040 102.9784670 146.1183900
  24.1106200 102.9761960 145.4586180  25.5463900 102.5543990 145.6878070
  24.3690970 104.6047380 150.1932390  24.8247920 103.8236760 150.5071010
  24.7083490 105.3154200 150.7373570  16.8912290  89.5069600 152.3883700
  16.4480440  90.2879140 152.0568220  17.4497280  89.8299490 153.0954640
  20.0071110  89.1280300 147.2689530  19.3825290  89.1240170 147.9942840
  19.9201230  88.2611260 146.8725500  18.9288190  90.0516930 154.2473300
  19.2260520  90.9579760 154.1665320  19.4773750  89.5635710 153.6332870
  16.6826510  94.6303170 150.1164950  16.4567430  94.4140340 151.0211570
  15.9019040  95.0631630 149.7710920  23.9124270  94.6366540 148.7155600
  23.3133160  95.3602340 148.5319220  24.4603880  94.5743320 147.9332050
  22.5189140  93.2730080 150.7458880  22.9118710  93.5902280 149.9327570
  22.8805990  92.3941960 150.8603400  11.5553310  89.8630880 152.9689080
  11.2666360  90.4333740 153.6814060  12.2999070  89.3835330 153.3320310
  11.7423540  93.8051000 144.1791800  11.6598210  94.7481760 144.3206790
  11.3906600  93.6625910 143.3004150  19.5421670  92.5390030 153.2462150
  19.5457730  92.0979980 152.3966690  20.4372790  92.8607360 153.3533970
  15.3924050  92.4216520 152.2056360  15.0524100  92.8991750 152.9623410
  14.6301370  91.9681640 151.8457460  19.6041820  93.5402110 146.2368910
  19.7254640  93.4988590 147.1854730  19.2190330  94.4026260 146.0815640
  18.6163320  95.8503250 145.6352210  18.0480220  95.4021500 145.0088120
  19.3252320  96.2096030 145.1017360  12.7070130  91.3435500 151.1221030
  12.4217050  90.9791170 151.9599650  12.6448990  90.6115960 150.5084170
  16.1610800  99.8461440 147.9078620  15.3873060  99.3059060 147.7477340
  16.8905430  99.3268050 147.5696380  26.9198780  98.8426800 153.7005010
  27.6397900  99.3382090 153.3101120  26.7180600  98.1644690 153.0558880
  22.3808720  90.2364760 147.8434400  21.5673330  89.7377930 147.7679710
  22.1870670  91.0763010 147.4270750  25.0957110  94.6084410 146.1396560
  25.9836730  94.9201640 145.9647900  25.0662200  93.7356660 145.7477140
  16.2048200  99.5141820 151.5457430  16.7226870  98.7110080 151.4914320
  15.7532220  99.4520960 152.3874260  21.0917700 100.7808100 146.8184730
  21.4333400 101.5250330 146.3228050  20.2630410 101.0939220 147.1809560
  27.3671380  95.9196250 145.6076420  27.2835100  96.3510470 144.7572860
  28.0865570  96.3794600 146.0403240  28.3958630 102.7738510 148.3358550
  27.7534790 102.1194130 148.6102270  28.0089290 103.1793600 147.5599220
  23.9745110 100.1023940 152.1830240  24.3268930  99.5052070 151.5231610
  23.0907440  99.7768170 152.3538490  20.0608390 100.8621630 149.5900650
  20.7479520 101.4090840 149.9708240  19.2740810 101.4062360 149.6250260
  12.2000790  96.4794450 145.0817730  13.0695640  96.7619250 145.3653650
  11.7091110  97.2930320 144.9666540  19.3635600  97.8667660 149.2026010
  19.8198380  98.6772910 149.4286200  19.0123810  97.5490800 150.0344500
  15.2647380  88.2105310 149.6748530  15.1362010  88.2023210 150.6233450
  14.4409400  88.5488400 149.3239540  26.7856010 101.6654970 144.8734900
  26.5593590 100.9485410 145.4659540  26.3952210 101.4167410 144.0356650
  12.5672040 105.6921830 145.6479360  12.9269680 106.2911170 144.9936630
  12.4264380 106.2381720 146.4214390  26.3672260  99.5826910 146.5349060
  26.0793960 100.0439600 147.3226940  27.1624430  99.1224680 146.8033280
  18.5840660 103.0753030 146.4653030  18.5750760 103.8082720 145.8497540
  17.6639020 102.8284610 146.5579990  14.1847300  98.2967920 147.2099790
  13.5775250  99.0366820 147.2195090  14.6596650  98.3867280 146.3837990
  27.1242120  91.4175680 147.6944240  26.4955280  91.5221350 146.9802470
  26.6294040  91.6372460 148.4838120  21.5700260 103.1381270 145.1278220
  21.6712240 102.9345260 144.1980200  20.6702000 102.8839550 145.3326000
  19.0926150  93.6961630 149.1102120  18.3842300  94.1647970 149.5515730
  19.3770630  93.0383640 149.7447310  23.1241580  90.4212290 150.5497910
  23.0009360  90.4398420 149.6007420  24.0726140  90.4691230 150.6696310
  20.2118370 105.6567590 149.8225890  20.4659870 105.6188980 148.9005260
  19.2630850 105.5300920 149.8154140  17.2961170  92.0046710 146.4852830
  18.1451700  92.4416860 146.4193020  16.9292440  92.3166970 147.3124890
  26.2170950  96.5759470 151.3984400  25.2761090  96.5909700 151.5732090
  26.5315020  95.7895430 151.8444700  16.1952590  98.2579070 144.9588360
  16.9615860  98.1460430 145.5213790  16.2727280  97.5617040 144.3065130
  14.8899350  95.6904140 145.6421250  14.9702940  94.7431650 145.7538650
  15.7819100  96.0211020 145.7481910  28.2196530 103.7468320 153.0738660
  28.3443950 104.5699490 153.5462470  29.0862090 103.5359050 152.7262810
  15.6914060 105.8399530 152.7455790  16.4276540 105.2914990 153.0164360
  16.0754980 106.7055540 152.6061780  12.5759540 101.9073100 148.6197300
  11.6499320 102.1494240 148.6102710  13.0415970 102.7347360 148.4982050
  18.8016370 105.0129840 144.5681360  19.5944980 105.3018670 144.1163150
  18.2820720 104.5822010 143.8893840  27.8546540 104.2399970 145.9918100
  27.5688050 103.8265110 145.1772280  27.6566090 105.1687680 145.8718620
  19.3193770 100.2333250 144.4323710  19.2144410  99.6185600 145.1585090
  19.1517990  99.7099140 143.6486720  22.5596500  99.2953280 145.0365700
  22.0106600  99.7422580 145.6808440  23.1815760  98.7902530 145.5603370
  18.2271620  98.2544200 146.9331000  18.6488040  98.0884070 147.7762390
  18.3522460  97.4444430 146.4386140  20.7399260  97.2781810 144.1808100
  21.2604920  96.5630830 143.8149250  21.3867660  97.9167680 144.4808610
  17.1230520  94.3277430 143.8789160  16.9219580  93.4644790 144.2402500
  16.9522570  94.2410790 142.9410760  24.6018830  89.1385660 146.4076040
  24.8821120  88.2953560 146.7635460  23.8284560  89.3708770 146.9214790
  15.9213320  91.4278050 143.8667040  16.2239220  91.4345480 142.9586190
  16.6607910  91.0775910 144.3634700  19.1398250  90.3712670 144.8523240
  18.7920250  89.6936660 144.2725690  19.3411020  89.9102180 145.6666630
  21.3047290 105.3593420 146.4709840  22.1998080 105.6978390 146.4928600
  21.3364920 104.6372830 145.8434120  14.9443450 100.7320470 144.6996840
  15.3818320 101.2750140 145.3554420  15.4291180  99.9067420 144.7093180
  12.1589250 103.5209500 152.1517100  12.4892260 102.6530560 151.9195740
  12.5880250 103.7268020 152.9822060  16.7551170 101.8518510 149.8119070
  16.4546710 101.7283480 150.7122980  16.6488660 100.9927100 149.4034800
  29.5243090 101.6314910 144.5145750  28.6936050 101.6991560 144.9852980
  29.7014920 102.5219030 144.2112610  28.9799550  98.3762390 147.0179950
  29.7418460  98.9459040 147.1239640  28.9953920  97.8089590 147.7888260
  12.4803890  96.9000320 151.2487610  11.8252730  96.6311960 150.6047310
  13.3181840  96.7904800 150.7989590  29.9859520  99.2312490 151.8621880
  30.3568350  98.4479810 151.4557850  30.6261450  99.9201590 151.6839180
  29.0318720  98.6696760 144.1752470  29.3067560  99.5775640 144.0471690
  28.8429460  98.6059290 145.1114460  25.4294330  91.6941610 145.4706100
  25.8479210  91.5072590 144.6302760  25.1230390  90.8420660 145.7809030
  28.9284060  96.6065750 149.1681900  28.5527660  95.8393680 148.7363190
  28.1987180  96.9888450 149.6556830  11.6941970  94.1099250 147.1912940
  10.7906050  94.3729450 147.0164600  12.1782590  94.3810420 146.4112900
  28.2035020  94.8323240 152.4689140  28.7272500  94.3385890 151.8379310
  28.7894440  94.9673600 153.2136710  14.2369180  93.1664790 145.1007320
  14.9460880  92.7448010 144.6154600  13.5209120  93.2340020 144.4690670
  13.8843340  89.2204120 144.1409970  14.6071470  89.7613060 144.4591190
  14.1567860  88.9467540 143.2651510  27.6934990  94.0896590 148.4081550
  28.1894110  93.8567460 149.1930430  27.4951060  93.2508430 147.9919190
  29.1222150  92.7257540 150.9419230  29.0121430  92.5713580 151.8801500
  29.8829740  92.1978480 150.6994640  30.0112420  90.5565460 144.1825370
  30.9361730  90.4246640 143.9743660  29.9888210  90.6358280 145.1361820
  30.0850910  91.3276120 146.8082080  29.2902410  91.2621240 147.3374990
  30.2894190  92.2626760 146.7967430  27.0269330 105.3667670 150.8020470
  27.6228400 105.0452240 150.1254890  27.2847480 104.8939490 151.5933740
  18.0077260 104.3251210 153.8066330  18.5242280 103.7138570 153.2814590
  18.6574640 104.8279990 154.2977340  26.5170840  89.6573000 153.2580910
  26.9578930  89.6018100 152.4102510  26.2478430  90.5731010 153.3291090
  28.3809410  89.2888240 151.2689730  28.3197810  88.3449460 151.1220750
  29.1601440  89.3968330 151.8143190  12.6862160 105.4280600 150.2313680
  12.5184200 104.7951280 150.9295570  11.8196670 105.6340000 149.8807870
  13.3090180  89.2597380 147.7345540  14.0669540  89.3726260 147.1609570
  12.8467350  90.0966580 147.6888970  19.8503990  91.3736650 150.7247850
  19.0378500  90.9993540 150.3843730  20.3545630  90.6181730 151.0269040
  24.3528970  88.0379100 151.9630920  24.9558340  88.6099310 152.4379440
  23.6121960  88.6018540 151.7404820  27.4963570  88.4400660 147.2371200
  27.6914200  89.3384110 147.5038630  26.7093440  88.2087740 147.7304150
  14.2924860 104.1213830 147.6763820  13.7672480 104.5021860 146.9725780
  14.2169440 104.7464600 148.3973530  15.6815330  89.7861430 146.2747510
  16.2108090  88.9991230 146.1455460  16.3143650  90.4652620 146.5083040
  17.8753170  89.5236570 149.3292900  17.2455910  88.8223880 149.4963030
  17.3358310  90.2840700 149.1126060  29.0490180 105.6801370 148.9977760
  29.2242370 104.9939110 148.3538680  28.3511750 106.2048420 148.6054430
  16.8917830 106.0696210 146.5513070  17.6236650 105.7855490 146.0036960
  17.1511500 105.8309490 147.4412450  16.0532620 102.1860940 146.5559400
  15.4241500 102.6546040 147.1045230  16.1680450 101.3410160 146.9905590
  23.5082340  96.2366600 132.7060600  23.4276390  95.3221210 132.4352310
  23.0946760  96.7333670 132.0000310  21.6400380  98.0145620 134.5869870
  20.8642480  97.5346060 134.8768440  22.2913310  97.3351270 134.4126030
  15.6566210  98.3265430 135.4645630  14.8251090  98.0714140 135.8642140
  16.2647190  98.3976200 136.2003550  25.6607810 102.4205810 133.3669000
  25.1989340 101.6493050 133.6956170  26.4733360 102.4471880 133.8721450
  15.6367470 102.3605520 135.6603650  15.9395510 101.4703260 135.4813870
  16.3811060 102.9175740 135.4325900  14.0658160  93.2867320 129.2488020
  13.1774860  93.6283290 129.1467900  14.3499350  93.0867640 128.3568850
  12.0291170  95.8872970 135.1327720  12.6007280  95.1195170 135.1331360
  12.0292710  96.1861730 134.2234330  21.8871120 104.7063820 132.9872990
  21.2682560 105.1621320 132.4167430  22.7422900 104.8615280 132.5862690
  21.0809370 100.6902810 134.5940030  21.0117650  99.7492750 134.4329160
  21.8429230 100.7804220 135.1662600  13.2716040  91.2957330 136.9196650
  13.0918880  90.3983080 137.1999410  12.8696120  91.8429200 137.5943600
  22.1114540  93.4973190 134.8208960  22.4879360  92.6245070 134.7082630
  22.0134050  93.8331890 133.9299400  16.2419550  91.8698820 130.2826400
  16.3486300  92.7702550 130.5895160  15.3311910  91.8216790 129.9921050
  25.8938660  90.9923630 131.7537300  26.7148280  90.5020200 131.7962780
  25.9272740  91.5821290 132.5069140  13.8902710  93.7917830 135.5278990
  14.5712820  94.0556200 136.1466390  13.5750760  92.9518700 135.8617000
  18.0827280  94.8385190 134.6151580  18.5905500  95.3366160 135.2556600
  18.6140520  94.0620390 134.4390940  30.1838210  93.0090380 138.3180930
  29.4790380  93.3972090 137.7996040  30.4496130  93.7040670 138.9201860
  16.3663380  89.4783750 138.8815000  16.3681820  89.9956140 138.0760900
  15.5367690  89.0013930 138.8584930  22.7534470  99.5903060 130.3804900
  22.1351740 100.0552510 129.8167620  23.2657720 100.2830540 130.7974410
  17.6166230  99.1178930 137.0588500  17.2835610  99.7447850 137.7009570
  17.7932910  99.6440810 136.2790170  26.1300140  92.9324010 134.5264840
  25.4255710  93.2208900 135.1067950  26.4912300  93.7424120 134.1664400
  16.0478710  91.1893710 136.8885450  16.3895520  92.0335760 136.5939320
  15.1094520  91.3377450 137.0050790  16.8285330 101.0859730 138.8737680
  17.4459330 101.7610810 138.5922130  15.9678450 101.4947710 138.7825180
  12.1217670 100.2759590 127.7544530  11.7445650 100.7646690 127.0229430
  12.3790740 100.9484870 128.3851060  27.7462920 102.5499140 136.7892320
  27.0626440 103.2198250 136.7808990  28.2857210 102.7479790 136.0237180
  29.1987060  92.3778800 134.9174050  28.2511970  92.4117780 135.0489480
  29.5237050  93.1917750 135.3023410  19.7306600  88.6775980 133.2130040
  20.0381580  88.1222870 132.4965540  18.8007300  88.8120440 133.0303030
  25.2821660 104.3943270 135.5037500  25.2948820 103.9905560 134.6359760
  24.7296880 105.1690560 135.3998930  26.5767080 101.1159490 130.5927670
  26.4663410 100.1733820 130.7177090  26.5735330 101.4775130 131.4790430
  24.6807100  99.2973110 136.8320110  25.0975890  99.0833220 135.9973570
  25.4046920  99.5545900 137.4028730  22.1187360  96.7424810 129.9490160
  21.1916640  96.6762190 130.1778630  22.2712180  97.6804940 129.8345400
  22.1056440  93.0141810 126.9457320  21.1660110  93.1755770 127.0309780
  22.4239700  93.7327490 126.3993310  28.6269200  97.6960330 136.9236350
  27.7987830  97.7653420 136.4486480  29.2219680  98.2814640 136.4552180
  26.1484650  98.3045110 130.4525410  25.5297070  97.9664660 129.8051710
  26.1309100  97.6604870 131.1604600  25.5911210  94.4829650 137.8691220
  25.1782390  95.3083360 138.1231210  24.8587160  93.8974690 137.6767580
  17.7244000  97.2689550 132.7309890  17.3201000  96.5566800 132.2355790
  17.8107120  96.9242790 133.6197930  18.1925700 100.9557110 134.8949100
  17.8953990 100.3502580 134.2156880  19.1425520 100.9934420 134.7838460
  16.4372620  94.0432760 136.5108930  16.9887210  94.1528100 135.7362180
  16.9516130  94.4170360 137.2264160  26.2811310 104.5288980 138.5572200
  25.8041870 105.3361170 138.3644810  25.5973100 103.8767310 138.7098410
  17.2844130 100.6938800 141.5456900  16.3872660 100.9178770 141.7930300
  17.3097000 100.8173740 140.5968300  24.3249350  97.5431920 127.4598160
  24.7642630  96.7054350 127.3135980  25.0377770  98.1761320 127.5462300
  16.1115350  97.5652120 140.1214270  15.9723120  98.4374920 140.4901670
  15.2296710  97.2224930 139.9762210  22.4344730 102.4827990 131.4279400
  22.8740640 103.2252320 131.0134790  22.3731620 102.7254560 132.3518360
  17.9095700 103.5073820 142.3299420  17.8811130 103.9116770 141.4627850
  17.7460670 102.5784180 142.1671020  27.9066490  88.7974730 125.7739200
  27.5939150  88.8901560 126.6738270  28.6678960  89.3755760 125.7236630
  14.4248630  96.1634530 130.2316540  14.3046230  96.8896620 129.6197810
  14.1149520  95.3937440 129.7544450  29.8610520 104.2900920 143.6263590
  30.3370240 104.7683810 144.3052670  30.4817680 104.2218410 142.9009090
  12.0634000  99.3349670 136.0385180  12.1414420  99.4698440 135.0940900
  12.6775680  98.6265560 136.2313300  13.3081630 101.0349860 132.4491360
  12.9009710 101.1764450 131.5944960  14.1994640 100.7510020 132.2462570
  29.2643770 101.4813770 140.7863600  29.3906830 101.2425650 139.8680780
  29.3065150 100.6498310 141.2585680  23.1260510 105.1841770 139.3558410
  23.6405180 105.0949780 140.1580840  22.2829590 105.5301470 139.6486320
  25.1014910 105.4697110 128.7842410  24.9416050 105.1800050 129.6824240
  24.9361620 104.6937240 128.2487640  17.5803290 105.2495640 130.5614030
  17.4045770 104.3331180 130.3481830  16.7259030 105.6082930 130.8011830
  24.8041040 102.9784670 127.3440410  24.1106200 102.9761960 126.6842690
  25.5463900 102.5543990 126.9134580  24.3690970 104.6047380 131.4188900
  24.8247920 103.8236760 131.7327520  24.7083490 105.3154200 131.9630080
  29.1167780  93.5346230 141.7513340  28.5012050  94.0425900 141.2228800
  28.7964200  92.6344560 141.6939280  12.1193520 100.3763840 138.5779640
  12.2824560  99.9069200 137.7599010  12.5845970  99.8687400 139.2428480
  16.8912290  89.5069600 133.6140210  16.4480440  90.2879140 133.2824730
  17.4497280  89.8299490 134.3211150  21.1782100  92.3738120 139.2175530
  20.7161470  92.5821140 140.0295470  20.7760210  91.5597470 138.9146200
  26.1786610  93.5947070 140.3472190  25.3280200  93.2952820 140.6681260
  26.0188400  93.8389080 139.4356010  23.2736320  95.0948820 142.4470980
  23.5989730  94.2612570 142.1073210  24.0616650  95.6177340 142.5949310
  20.0071110  89.1280300 128.4946040  19.3825290  89.1240170 129.2199350
  19.9201230  88.2611260 128.0982010  18.9288190  90.0516930 135.4729810
  19.2260520  90.9579760 135.3921830  19.4773750  89.5635710 134.8589380
  16.6826510  94.6303170 131.3421460  16.4567430  94.4140340 132.2468080
  15.9019040  95.0631630 130.9967430  23.9124270  94.6366540 129.9412110
  23.3133160  95.3602340 129.7575730  24.4603880  94.5743320 129.1588560
  19.1225720  95.5288750 142.0081730  19.0269320  94.5883480 141.8582130
  19.9657700  95.7503820 141.6129800  22.5189140  93.2730080 131.9715390
  22.9118710  93.5902280 131.1584080  22.8805990  92.3941960 132.0859910
  14.2536260  91.9402420 140.1615510  13.8599650  92.7877630 140.3688290
  13.5654660  91.3028790 140.3524150  20.8281310  92.0237390 143.2312250
  20.1379630  91.8309590 143.8658340  21.5713610  92.3072030 143.7636550
  11.5553310  89.8630880 134.1945590  11.2666360  90.4333740 134.9070570
  12.2999070  89.3835330 134.5576820  11.7423540  93.8051000 125.4048310
  11.6598210  94.7481760 125.5463300  11.3906600  93.6625910 124.5260660
  23.1044280  95.8635830 136.0666170  22.3725400  96.3722640 136.4156270
  22.7068620  95.0465810 135.7654950  19.5421670  92.5390030 134.4718660
  19.5457730  92.0979980 133.6223200  20.4372790  92.8607360 134.5790480
  15.3924050  92.4216520 133.4312870  15.0524100  92.8991750 134.1879920
  14.6301370  91.9681640 133.0713970  19.6041820  93.5402110 127.4625420
  19.7254640  93.4988590 128.4111240  19.2190330  94.4026260 127.3072150
  23.5670190  91.3169510 135.4789110  23.5842930  91.7678160 136.3230960
  23.3185770  90.4175150 135.6922550  18.6163320  95.8503250 126.8608720
  18.0480220  95.4021500 126.2344630  19.3252320  96.2096030 126.3273870
  26.9940940  88.7301690 141.3175490  27.3186710  87.9991350 141.8433470
  27.0297450  88.4115330 140.4156480  13.6932500  99.7515270 140.7375450
  13.3087290  99.1108940 141.3358410  14.0044690 100.4551390 141.3070180
  19.8429640  96.5991810 136.2184070  20.2099770  96.1250380 136.9645410
  19.6534700  97.4733380 136.5592410  12.7070130  91.3435500 132.3477540
  12.4217050  90.9791170 133.1856160  12.6448990  90.6115960 131.7340680
  17.6329010  95.6400450 138.5368280  17.3286080  96.5192430 138.7618640
  18.5875470  95.7000240 138.5725720  16.1610800  99.8461440 129.1335130
  15.3873060  99.3059060 128.9733850  16.8905430  99.3268050 128.7952890
  26.9198780  98.8426800 134.9261520  27.6397900  99.3382090 134.5357630
  26.7180600  98.1644690 134.2815390  22.3808720  90.2364760 129.0690910
  21.5673330  89.7377930 128.9936220  22.1870670  91.0763010 128.6527260
  22.3017580  98.9135860 140.8130520  22.2354890  97.9931530 140.5588110
  21.6722720  99.0111300 141.5275160  25.0957110  94.6084410 127.3653070
  25.9836730  94.9201640 127.1904410  25.0662200  93.7356660 126.9733650
  16.2048200  99.5141820 132.7713940  16.7226870  98.7110080 132.7170830
  15.7532220  99.4520960 133.6130770  21.0917700 100.7808100 128.0441240
  21.4333400 101.5250330 127.5484560  20.2630410 101.0939220 128.4066070
  13.6892740  96.4803190 139.6839640  13.3307680  97.1457040 140.2712980
  13.3947300  95.6486740 140.0552260  16.8905860  96.9387430 142.5679190
  16.5906000  97.0844610 141.6707010  17.6617100  96.3792720 142.4752580
  22.2334310 101.7356430 140.5634320  22.2478850 100.8037390 140.3453230
  21.5259410 101.8216190 141.2024090  27.3671380  95.9196250 126.8332930
  27.2835100  96.3510470 125.9829370  28.0865570  96.3794600 127.2659750
  28.4445520  98.3763770 139.9102900  27.7193710  98.9692550 139.7132290
  28.9720980  98.3687310 139.1116270  28.3958630 102.7738510 129.5615060
  27.7534790 102.1194130 129.8358780  28.0089290 103.1793600 128.7855730
  23.9745110 100.1023940 133.4086750  24.3268930  99.5052070 132.7488120
  23.0907440  99.7768170 133.5795000  20.0608390 100.8621630 130.8157160
  20.7479520 101.4090840 131.1964750  19.2740810 101.4062360 130.8506770
  12.2000790  96.4794450 126.3074240  13.0695640  96.7619250 126.5910160
  11.7091110  97.2930320 126.1923050  19.3635600  97.8667660 130.4282520
  19.8198380  98.6772910 130.6542710  19.0123810  97.5490800 131.2601010
  21.6668210 103.3774000 137.6574820  22.3110430 103.5833380 138.3348240
  22.0297650 102.6162400 137.2045670  15.2647380  88.2105310 130.9005040
  15.1362010  88.2023210 131.8489960  14.4409400  88.5488400 130.5496050
  22.9400290 101.3806350 136.3752270  23.5822520 100.6799510 136.4884440
  23.4649640 102.1604790 136.1949160  26.7856010 101.6654970 126.0991410
  26.5593590 100.9485410 126.6916050  26.3952210 101.4167410 125.2613160
  24.7137910 102.1801250 139.5788330  25.0494150 102.7667940 140.2566250
  23.7938250 102.0493960 139.8086120  12.5672040 105.6921830 126.8735870
  12.9269680 106.2911170 126.2193140  12.4264380 106.2381720 127.6470900
  12.2641310  89.9696430 140.3611740  11.5499830  90.1693350 140.9664350
  12.6836350  89.1936000 140.7326540  26.3672260  99.5826910 127.7605570
  26.0793960 100.0439600 128.5483450  27.1624430  99.1224680 128.0289790
  12.5513900 103.9576690 141.3478270  12.6605020 103.0171430 141.2073660
  11.8994460 104.2231440 140.6992000  20.5426490 102.2292580 142.7476390
  20.2223360 101.5101820 143.2922080  19.8684850 102.9047650 142.8212450
  18.5840660 103.0753030 127.6909540  18.5750760 103.8082720 127.0754050
  17.6639020 102.8284610 127.7836500  14.1847300  98.2967920 128.4356300
  13.5775250  99.0366820 128.4451600  14.6596650  98.3867280 127.6094500
  23.7580090  92.4618740 138.1113190  24.1260910  91.6413950 138.4392760
  22.8978290  92.5220630 138.5268840  27.1242120  91.4175680 128.9200750
  26.4955280  91.5221350 128.2058980  26.6294040  91.6372460 129.7094630
  21.5700260 103.1381270 126.3534730  21.6712240 102.9345260 125.4236710
  20.6702000 102.8839550 126.5582510  19.0926150  93.6961630 130.3358630
  18.3842300  94.1647970 130.7772240  19.3770630  93.0383640 130.9703820
  20.7182080  95.1158330 138.3351160  21.2167330  95.5904150 139.0003010
  20.8605030  94.1921850 138.5421190  23.1241580  90.4212290 131.7754420
  23.0009360  90.4398420 130.8263930  24.0726140  90.4691230 131.8952820
  20.2118370 105.6567590 131.0482400  20.4659870 105.6188980 130.1261770
  19.2630850 105.5300920 131.0410650  17.2961170  92.0046710 127.7109340
  18.1451700  92.4416860 127.6449530  16.9292440  92.3166970 128.5381400
  27.9248940  91.3326290 139.1779550  27.4222540  92.0731690 139.5173360
  28.7405600  91.7210290 138.8616340  26.2170950  96.5759470 132.6240910
  25.2761090  96.5909700 132.7988600  26.5315020  95.7895430 133.0701210
  16.1952590  98.2579070 126.1844870  16.9615860  98.1460430 126.7470300
  16.2727280  97.5617040 125.5321640  14.8899350  95.6904140 126.8677760
  14.9702940  94.7431650 126.9795160  15.7819100  96.0211020 126.9738420
  28.2196530 103.7468320 134.2995170  28.3443950 104.5699490 134.7718980
  29.0862090 103.5359050 133.9519320  15.6914060 105.8399530 133.9712300
  16.4276540 105.2914990 134.2420870  16.0754980 106.7055540 133.8318290
  12.5759540 101.9073100 129.8453810  11.6499320 102.1494240 129.8359220
  13.0415970 102.7347360 129.7238560  14.6972340 105.0245600 143.1597880
  15.4985070 105.3457650 143.5733280  14.1824160 104.6641180 143.8817790
  18.8016370 105.0129840 125.7937870  19.5944980 105.3018670 125.3419660
  18.2820720 104.5822010 125.1150350  23.5336970 101.1325470 143.1073290
  22.9275130 101.1557070 142.3669040  23.2291080 100.4008510 143.6440540
  24.9637340 104.8605760 141.7182700  25.9159090 104.7763780 141.6682940
  24.8165560 105.5247470 142.3916490  27.8546540 104.2399970 127.2174610
  27.5688050 103.8265110 126.4028790  27.6566090 105.1687680 127.0975130
  12.4170150  97.5119060 142.1033930  12.9209170  96.9326340 142.6750160
  11.6777570  97.7959290 142.6410300  19.3193770 100.2333250 125.6580220
  19.2144410  99.6185600 126.3841600  19.1517990  99.7099140 124.8743230
  19.4708090  98.9190050 141.6369450  18.7053760  99.4875050 141.5524120
  19.6524050  98.6266260 140.7437680  22.5596500  99.2953280 126.2622210
  22.0106600  99.7422580 126.9064950  23.1815760  98.7902530 126.7859880
  26.6131440 100.6495380 142.1944470  27.3540910 100.9871140 141.6911930
  25.8504120 100.8187440 141.6414240  14.4493230  95.6548650 142.9984000
  14.4898570  95.3562520 143.9069230  15.3038730  96.0556260 142.8391520
  18.2271620  98.2544200 128.1587510  18.6488040  98.0884070 129.0018900
  18.3522460  97.4444430 127.6642650  16.3899040  94.2340750 140.9658490
  15.8595500  93.7431700 140.3381830  17.0587110  94.6624950 140.4316420
  20.7399260  97.2781810 125.4064610  21.2604920  96.5630830 125.0405760
  21.3867660  97.9167680 125.7065120  25.2877100  98.7010210 140.7299680
  25.7018120  98.8555290 141.5790100  24.3528100  98.8265430 140.8925460
  25.7599270  96.0406370 142.7338830  26.3420040  95.2858690 142.6459310
  25.9361040  96.5713810 141.9570310  16.8771340  91.2003120 141.0455780
  16.7828210  90.5823870 140.3206650  16.2968730  91.9269410 140.8185690
  19.6432780  89.7576360 138.0783170  19.1950080  89.7800620 137.2328720
  19.0097980  89.3595380 138.6753470  20.0492330  98.6530690 138.6995610
  20.4680440  99.4963420 138.5271850  19.1300960  98.7902730 138.4702390
  22.3856230  96.3846870 140.0833450  22.5052440  95.7888010 140.8228290
  23.2450230  96.4216560 139.6634750  24.7244130  96.9384060 138.6595960
  24.1979350  97.4626680 138.0561100  25.0675470  97.5711450 139.2905690
  17.1230520  94.3277430 125.1045670  16.9219580  93.4644790 125.4659010
  16.9522570  94.2410790 124.1667270  17.8999750 104.9583700 139.8153340
  17.3620840 105.6829760 139.4962040  18.1533710 104.4814040 139.0250680
  19.1525000  92.9268220 141.3409270  19.7424690  92.6184070 142.0287090
  18.3345240  92.4547970 141.4969170  23.9718430  92.5434030 141.5742290
  23.2833950  91.8815570 141.5092280  24.6924450  92.0972300 142.0190750
  24.6018830  89.1385660 127.6332550  24.8821120  88.2953560 127.9891970
  23.8284560  89.3708770 128.1471300  15.9213320  91.4278050 125.0923550
  16.2239220  91.4345480 124.1842700  16.6607910  91.0775910 125.5891210
  20.7561960 106.1934910 140.0739990  20.6820660 107.0970050 140.3812360
  19.8540800 105.8746810 140.0462060  19.1398250  90.3712670 126.0779750
  18.7920250  89.6936660 125.4982200  19.3411020  89.9102180 126.8923140
  21.3047290 105.3593420 127.6966350  22.1998080 105.6978390 127.7185110
  21.3364920 104.6372830 127.0690630  14.9443450 100.7320470 125.9253350
  15.3818320 101.2750140 126.5810930  15.4291180  99.9067420 125.9349690
  12.1589250 103.5209500 133.3773610  12.4892260 102.6530560 133.1452250
  12.5880250 103.7268020 134.2078570  16.7551170 101.8518510 131.0375580
  16.4546710 101.7283480 131.9379490  16.6488660 100.9927100 130.6291310
  12.6479460 104.3880090 136.1155240  12.2110450 104.5680890 136.9479390
  13.2157140 105.1454710 135.9736960  28.2841640 103.8897090 140.4032550
  27.6843630 103.9489650 139.6596470  28.4135540 102.9502070 140.5329400
  29.5243090 101.6314910 125.7402260  28.6936050 101.6991560 126.2109490
  29.7014920 102.5219030 125.4369120  28.9799550  98.3762390 128.2436460
  29.7418460  98.9459040 128.3496150  28.9953920  97.8089590 129.0144770
  12.4803890  96.9000320 132.4744120  11.8252730  96.6311960 131.8303820
  13.3181840  96.7904800 132.0246100  29.9859520  99.2312490 133.0878390
  30.3568350  98.4479810 132.6814360  30.6261450  99.9201590 132.9095690
  26.9693280 100.6149070 138.5008710  26.1553120 101.0446230 138.7634500
  27.3767480 101.2267480 137.8877760  29.0318720  98.6696760 125.4008980
  29.3067560  99.5775640 125.2728200  28.8429460  98.6059290 126.3370970
  25.4294330  91.6941610 126.6962610  25.8479210  91.5072590 125.8559270
  25.1230390  90.8420660 127.0065540  28.9284060  96.6065750 130.3938410
  28.5527660  95.8393680 129.9619700  28.1987180  96.9888450 130.8813340
  13.5179820  97.2852890 137.0147460  13.8852860  97.1980290 137.8943480
  12.9490640  96.5219440 136.9154320  28.3183680  95.7537270 140.0277930
  28.0869770  95.5250020 139.1275880  28.5788230  96.6736820 139.9822820
  13.0695820  94.1961980 140.9205880  12.1751870  94.1628740 141.2599590
  13.6093370  94.3948770 141.6857130  26.7571750  90.9793700 142.8057630
  27.6341930  90.9877100 143.1891630  26.7692590  90.2424540 142.1949980
  11.6941970  94.1099250 128.4169450  10.7906050  94.3729450 128.2421110
  12.1782590  94.3810420 127.6369410  28.2035020  94.8323240 133.6945650
  28.7272500  94.3385890 133.0635820  28.7894440  94.9673600 134.4393220
  28.3824740  94.9163110 137.2165200  27.4327450  94.8826650 137.3310190
  28.5637750  95.8263220 136.9814970  14.2369180  93.1664790 126.3263830
  14.9460880  92.7448010 125.8411110  13.5209120  93.2340020 125.6947180
  13.8843340  89.2204120 125.3666480  14.6071470  89.7613060 125.6847700
  14.1567860  88.9467540 124.4908020  27.6934990  94.0896590 129.6338060
  28.1894110  93.8567460 130.4186940  27.4951060  93.2508430 129.2175700
  13.5735530  88.4710310 135.2689100  14.2211720  87.9207690 134.8284260
  13.9937370  88.7253460 136.0904910  29.1222150  92.7257540 132.1675740
  29.0121430  92.5713580 133.1058010  29.8829740  92.1978480 131.9251150
  27.4687870  88.6651670 138.6258740  28.1060090  89.2785810 138.9917930
  27.6162760  88.7012330 137.6807970  30.0112420  90.5565460 125.4081880
  30.9361730  90.4246640 125.2000170  29.9888210  90.6358280 126.3618330
  30.0850910  91.3276120 128.0338590  29.2902410  91.2621240 128.5631500
  30.2894190  92.2626760 128.0223940  27.0269330 105.3667670 132.0276980
  27.6228400 105.0452240 131.3511400  27.2847480 104.8939490 132.8190250
  13.3267530  88.6265980 138.0114420  12.9782350  89.0829800 138.7772600
  12.9955230  87.7323110 138.0936850  14.9331900 101.7985580 142.1767610
  14.8901530 101.4278490 143.0582070  15.0642910 102.7363150 142.3169430
  18.6337930 103.3545170 137.7777330  18.3929290 103.6219730 136.8907850
  19.5740570 103.5250900 137.8328190  20.8392350  89.8177860 141.5333840
  20.7781240  90.4099690 142.2829250  21.7792730  89.7103820 141.3884100
  23.4766910  89.4747920 141.1726130  24.0907320  89.7927210 140.5107210
  24.0216470  88.9896510 141.7921990  29.8942090 105.3739550 138.5787970
  29.4000370 105.7708420 137.8615100  29.2855380 104.7488760 138.9725250
  13.9988170  88.1542180 141.2865190  14.5471160  87.9730230 140.5231300
  14.0643480  87.3636290 141.8221500  14.7719930 104.7447830 139.2965390
  14.1780250 104.6132530 140.0355430  14.7643770 103.9085970 138.8307490
  24.2174950  88.0380060 137.4995420  23.3434790  88.3715170 137.2968350
  24.1085700  87.5653240 138.3247290  25.1246930  90.2450930 138.8837140
  24.7960290  89.4302690 138.5038870  26.0729230  90.2020740 138.7602830
  27.5781540 106.0162970 135.8574710  27.1184510 106.7678780 135.4832730
  26.9494000 105.2969440 135.7989510  14.4032160 102.1106210 138.2473430
  13.6766220 101.4911500 138.1799380  14.4641310 102.5046820 137.3771510
  18.0077260 104.3251210 135.0322840  18.5242280 103.7138570 134.5071100
  18.6574640 104.8279990 135.5233850  20.7472760 105.2159700 135.8591820
  21.0350570 104.9614000 134.9824830  21.2595980 104.6637060 136.4497390
  21.9649770  88.9549900 136.4388330  21.1821560  89.4295400 136.7185090
  21.6712700  88.0504730 136.3301510  26.5170840  89.6573000 134.4837420
  26.9578930  89.6018100 133.6359020  26.2478430  90.5731010 134.5547600
  28.3809410  89.2888240 132.4946240  28.3197810  88.3449460 132.3477260
  29.1601440  89.3968330 133.0399700  12.6862160 105.4280600 131.4570190
  12.5184200 104.7951280 132.1552080  11.8196670 105.6340000 131.1064380
  13.3090180  89.2597380 128.9602050  14.0669540  89.3726260 128.3866080
  12.8467350  90.0966580 128.9145480  19.8503990  91.3736650 131.9504360
  19.0378500  90.9993540 131.6100240  20.3545630  90.6181730 132.2525550
  24.3528970  88.0379100 133.1887430  24.9558340  88.6099310 133.6635950
  23.6121960  88.6018540 132.9661330  27.4963570  88.4400660 128.4627710
  27.6914200  89.3384110 128.7295140  26.7093440  88.2087740 128.9560660
  14.2924860 104.1213830 128.9020330  13.7672480 104.5021860 128.1982290
  14.2169440 104.7464600 129.6230040  15.6815330  89.7861430 127.5004020
  16.2108090  88.9991230 127.3711970  16.3143650  90.4652620 127.7339550
  17.8753170  89.5236570 130.5549410  17.2455910  88.8223880 130.7219540
  17.3358310  90.2840700 130.3382570  20.8145120 106.1375800 143.2260020
  21.7412430 105.9020070 143.2695980  20.7995550 106.9647800 142.7446050
  29.0490180 105.6801370 130.2234270  29.2242370 104.9939110 129.5795190
  28.3511750 106.2048420 129.8310940  18.0008730  88.8020550 142.9901900
  17.7193000  89.3054150 142.2262720  18.3828430  88.0042300 142.6244030
  16.8917830 106.0696210 127.7769580  17.6236650 105.7855490 127.2293470
  17.1511500 105.8309490 128.6668960  16.0532620 102.1860940 127.7815910
  15.4241500 102.6546040 128.3301740  16.1680450 101.3410160 128.2162100
  24.6024190  88.2174130 143.5682370  24.4889640  88.5368740 144.4633890
  25.4193930  88.6186640 143.2719650  27.3822680 105.3645660 143.0501060
  28.1748000 104.8694890 142.8427020  27.6755830 106.0435800 143.6576670
  23.5082340  96.2366600 113.9317110  23.4276390  95.3221210 113.6608820
  23.0946760  96.7333670 113.2256820  21.6400380  98.0145620 115.8126380
  20.8642480  97.5346060 116.1024950  22.2913310  97.3351270 115.6382540
  15.6566210  98.3265430 116.6902140  14.8251090  98.0714140 117.0898650
  16.2647190  98.3976200 117.4260060  25.6607810 102.4205810 114.5925510
  25.1989340 101.6493050 114.9212680  26.4733360 102.4471880 115.0977960
  15.6367470 102.3605520 116.8860160  15.9395510 101.4703260 116.7070380
  16.3811060 102.9175740 116.6582410  14.0658160  93.2867320 110.4744530
  13.1774860  93.6283290 110.3724410  14.3499350  93.0867640 109.5825360
  12.0291170  95.8872970 116.3584230  12.6007280  95.1195170 116.3587870
  12.0292710  96.1861730 115.4490840  21.8871120 104.7063820 114.2129500
  21.2682560 105.1621320 113.6423940  22.7422900 104.8615280 113.8119200
  21.0809370 100.6902810 115.8196540  21.0117650  99.7492750 115.6585670
  21.8429230 100.7804220 116.3919110  13.2716040  91.2957330 118.1453160
  13.0918880  90.3983080 118.4255920  12.8696120  91.8429200 118.8200110
  22.1114540  93.4973190 116.0465470  22.4879360  92.6245070 115.9339140
  22.0134050  93.8331890 115.1555910  16.2419550  91.8698820 111.5082910
  16.3486300  92.7702550 111.8151670  15.3311910  91.8216790 111.2177560
  25.8938660  90.9923630 112.9793810  26.7148280  90.5020200 113.0219290
  25.9272740  91.5821290 113.7325650  13.8902710  93.7917830 116.7535500
  14.5712820  94.0556200 117.3722900  13.5750760  92.9518700 117.0873510
  18.0827280  94.8385190 115.8408090  18.5905500  95.3366160 116.4813110
  18.6140520  94.0620390 115.6647450  16.3663380  89.4783750 120.1071510
  16.3681820  89.9956140 119.3017410  15.5367690  89.0013930 120.0841440
  22.7534470  99.5903060 111.6061410  22.1351740 100.0552510 111.0424130
  23.2657720 100.2830540 112.0230920  17.6166230  99.1178930 118.2845010
  17.2835610  99.7447850 118.9266080  17.7932910  99.6440810 117.5046680
  26.1300140  92.9324010 115.7521350  25.4255710  93.2208900 116.3324460
  26.4912300  93.7424120 115.3920910  16.0478710  91.1893710 118.1141960
  16.3895520  92.0335760 117.8195830  15.1094520  91.3377450 118.2307300
  16.8285330 101.0859730 120.0994190  17.4459330 101.7610810 119.8178640
  15.9678450 101.4947710 120.0081690  12.1217670 100.2759590 108.9801040
  11.7445650 100.7646690 108.2485940  12.3790740 100.9484870 109.6107570
  27.7462920 102.5499140 118.0148830  27.0626440 103.2198250 118.0065500
  28.2857210 102.7479790 117.2493690  29.1987060  92.3778800 116.1430560
  28.2511970  92.4117780 116.2745990  29.5237050  93.1917750 116.5279920
  19.7306600  88.6775980 114.4386550  20.0381580  88.1222870 113.7222050
  18.8007300  88.8120440 114.2559540  25.2821660 104.3943270 116.7294010
  25.2948820 103.9905560 115.8616270  24.7296880 105.1690560 116.6255440
  26.5767080 101.1159490 111.8184180  26.4663410 100.1733820 111.9433600
  26.5735330 101.4775130 112.7046940  24.6807100  99.2973110 118.0576620
  25.0975890  99.0833220 117.2230080  25.4046920  99.5545900 118.6285240
  22.1187360  96.7424810 111.1746670  21.1916640  96.6762190 111.4035140
  22.2712180  97.6804940 111.0601910  22.1056440  93.0141810 108.1713830
  21.1660110  93.1755770 108.2566290  22.4239700  93.7327490 107.6249820
  28.6269200  97.6960330 118.1492860  27.7987830  97.7653420 117.6742990
  29.2219680  98.2814640 117.6808690  26.1484650  98.3045110 111.6781920
  25.5297070  97.9664660 111.0308220  26.1309100  97.6604870 112.3861110
  25.5911210  94.4829650 119.0947730  25.1782390  95.3083360 119.3487720
  24.8587160  93.8974690 118.9024090  17.7244000  97.2689550 113.9566400
  17.3201000  96.5566800 113.4612300  17.8107120  96.9242790 114.8454440
  18.1925700 100.9557110 116.1205610  17.8953990 100.3502580 115.4413390
  19.1425520 100.9934420 116.0094970  16.4372620  94.0432760 117.7365440
  16.9887210  94.1528100 116.9618690  16.9516130  94.4170360 118.4520670
  26.2811310 104.5288980 119.7828710  25.8041870 105.3361170 119.5901320
  25.5973100 103.8767310 119.9354920  17.2844130 100.6938800 122.7713410
  16.3872660 100.9178770 123.0186810  17.3097000 100.8173740 121.8224810
  24.3249350  97.5431920 108.6854670  24.7642630  96.7054350 108.5392490
  25.0377770  98.1761320 108.7718810  16.1115350  97.5652120 121.3470780
  15.9723120  98.4374920 121.7158180  15.2296710  97.2224930 121.2018720
  22.4344730 102.4827990 112.6535910  22.8740640 103.2252320 112.2391300
  22.3731620 102.7254560 113.5774870  17.9095700 103.5073820 123.5555930
  17.8811130 103.9116770 122.6884360  17.7460670 102.5784180 123.3927530
  14.4248630  96.1634530 111.4573050  14.3046230  96.8896620 110.8454320
  14.1149520  95.3937440 110.9800960  29.8610520 104.2900920 124.8520100
  30.3370240 104.7683810 125.5309180  30.4817680 104.2218410 124.1265600
  12.0634000  99.3349670 117.2641690  12.1414420  99.4698440 116.3197410
  12.6775680  98.6265560 117.4569810  13.3081630 101.0349860 113.6747870
  12.9009710 101.1764450 112.8201470  14.1994640 100.7510020 113.4719080
  29.2643770 101.4813770 122.0120110  29.3906830 101.2425650 121.0937290
  29.3065150 100.6498310 122.4842190  23.1260510 105.1841770 120.5814920
  23.6405180 105.0949780 121.3837350  22.2829590 105.5301470 120.8742830
  25.1014910 105.4697110 110.0098920  24.9416050 105.1800050 110.9080750
  24.9361620 104.6937240 109.4744150  17.5803290 105.2495640 111.7870540
  17.4045770 104.3331180 111.5738340  16.7259030 105.6082930 112.0268340
  24.8041040 102.9784670 108.5696920  24.1106200 102.9761960 107.9099200
  25.5463900 102.5543990 108.1391090  24.3690970 104.6047380 112.6445410
  24.8247920 103.8236760 112.9584030  24.7083490 105.3154200 113.1886590
  29.1167780  93.5346230 122.9769850  28.5012050  94.0425900 122.4485310
  28.7964200  92.6344560 122.9195790  12.1193520 100.3763840 119.8036150
  12.2824560  99.9069200 118.9855520  12.5845970  99.8687400 120.4684990
  16.8912290  89.5069600 114.8396720  16.4480440  90.2879140 114.5081240
  17.4497280  89.8299490 115.5467660  21.1782100  92.3738120 120.4432040
  20.7161470  92.5821140 121.2551980  20.7760210  91.5597470 120.1402710
  26.1786610  93.5947070 121.5728700  25.3280200  93.2952820 121.8937770
  26.0188400  93.8389080 120.6612520  23.2736320  95.0948820 123.6727490
  23.5989730  94.2612570 123.3329720  24.0616650  95.6177340 123.8205820
  20.0071110  89.1280300 109.7202550  19.3825290  89.1240170 110.4455860
  19.9201230  88.2611260 109.3238520  18.9288190  90.0516930 116.6986320
  19.2260520  90.9579760 116.6178340  19.4773750  89.5635710 116.0845890
  16.6826510  94.6303170 112.5677970  16.4567430  94.4140340 113.4724590
  15.9019040  95.0631630 112.2223940  23.9124270  94.6366540 111.1668620
  23.3133160  95.3602340 110.9832240  24.4603880  94.5743320 110.3845070
  19.1225720  95.5288750 123.2338240  19.0269320  94.5883480 123.0838640
  19.9657700  95.7503820 122.8386310  22.5189140  93.2730080 113.1971900
  22.9118710  93.5902280 112.3840590  22.8805990  92.3941960 113.3116420
  14.2536260  91.9402420 121.3872020  13.8599650  92.7877630 121.5944800
  13.5654660  91.3028790 121.5780660  20.8281310  92.0237390 124.4568760
  20.1379630  91.8309590 125.0914850  21.5713610  92.3072030 124.9893060
  11.5553310  89.8630880 115.4202100  11.2666360  90.4333740 116.1327080
  12.2999070  89.3835330 115.7833330  11.7423540  93.8051000 106.6304820
  11.6598210  94.7481760 106.7719810  11.3906600  93.6625910 105.7517170
  23.1044280  95.8635830 117.2922680  22.3725400  96.3722640 117.6412780
  22.7068620  95.0465810 116.9911460  19.5421670  92.5390030 115.6975170
  19.5457730  92.0979980 114.8479710  20.4372790  92.8607360 115.8046990
  15.3924050  92.4216520 114.6569380  15.0524100  92.8991750 115.4136430
  14.6301370  91.9681640 114.2970480  19.6041820  93.5402110 108.6881930
  19.7254640  93.4988590 109.6367750  19.2190330  94.4026260 108.5328660
  23.5670190  91.3169510 116.7045620  23.5842930  91.7678160 117.5487470
  23.3185770  90.4175150 116.9179060  18.6163320  95.8503250 108.0865230
  18.0480220  95.4021500 107.4601140  19.3252320  96.2096030 107.5530380
  26.9940940  88.7301690 122.5432000  27.3186710  87.9991350 123.0689980
  27.0297450  88.4115330 121.6412990  13.6932500  99.7515270 121.9631960
  13.3087290  99.1108940 122.5614920  14.0044690 100.4551390 122.5326690
  19.8429640  96.5991810 117.4440580  20.2099770  96.1250380 118.1901920
  19.6534700  97.4733380 117.7848920  12.7070130  91.3435500 113.5734050
  12.4217050  90.9791170 114.4112670  12.6448990  90.6115960 112.9597190
  17.6329010  95.6400450 119.7624790  17.3286080  96.5192430 119.9875150
  18.5875470  95.7000240 119.7982230  16.1610800  99.8461440 110.3591640
  15.3873060  99.3059060 110.1990360  16.8905430  99.3268050 110.0209400
  26.9198780  98.8426800 116.1518030  27.6397900  99.3382090 115.7614140
  26.7180600  98.1644690 115.5071900  22.3808720  90.2364760 110.2947420
  21.5673330  89.7377930 110.2192730  22.1870670  91.0763010 109.8783770
  22.3017580  98.9135860 122.0387030  22.2354890  97.9931530 121.7844620
  21.6722720  99.0111300 122.7531670  25.0957110  94.6084410 108.5909580
  25.9836730  94.9201640 108.4160920  25.0662200  93.7356660 108.1990160
  16.2048200  99.5141820 113.9970450  16.7226870  98.7110080 113.9427340
  15.7532220  99.4520960 114.8387280  21.0917700 100.7808100 109.2697750
  21.4333400 101.5250330 108.7741070  20.2630410 101.0939220 109.6322580
  13.6892740  96.4803190 120.9096150  13.3307680  97.1457040 121.4969490
  13.3947300  95.6486740 121.2808770  16.8905860  96.9387430 123.7935700
  16.5906000  97.0844610 122.8963520  17.6617100  96.3792720 123.7009090
  22.2334310 101.7356430 121.7890830  22.2478850 100.8037390 121.5709740
  21.5259410 101.8216190 122.4280600  27.3671380  95.9196250 108.0589440
  27.2835100  96.3510470 107.2085880  28.0865570  96.3794600 108.4916260
  28.4445520  98.3763770 121.1359410  27.7193710  98.9692550 120.9388800
  28.9720980  98.3687310 120.3372780  28.3958630 102.7738510 110.7871570
  27.7534790 102.1194130 111.0615290  28.0089290 103.1793600 110.0112240
  23.9745110 100.1023940 114.6343260  24.3268930  99.5052070 113.9744630
  23.0907440  99.7768170 114.8051510  20.0608390 100.8621630 112.0413670
  20.7479520 101.4090840 112.4221260  19.2740810 101.4062360 112.0763280
  12.2000790  96.4794450 107.5330750  13.0695640  96.7619250 107.8166670
  11.7091110  97.2930320 107.4179560  19.3635600  97.8667660 111.6539030
  19.8198380  98.6772910 111.8799220  19.0123810  97.5490800 112.4857520
  21.6668210 103.3774000 118.8831330  22.3110430 103.5833380 119.5604750
  22.0297650 102.6162400 118.4302180  15.2647380  88.2105310 112.1261550
  15.1362010  88.2023210 113.0746470  14.4409400  88.5488400 111.7752560
  22.9400290 101.3806350 117.6008780  23.5822520 100.6799510 117.7140950
  23.4649640 102.1604790 117.4205670  26.7856010 101.6654970 107.3247920
  26.5593590 100.9485410 107.9172560  26.3952210 101.4167410 106.4869670
  24.7137910 102.1801250 120.8044840  25.0494150 102.7667940 121.4822760
  23.7938250 102.0493960 121.0342630  12.5672040 105.6921830 108.0992380
  12.9269680 106.2911170 107.4449650  12.4264380 106.2381720 108.8727410
  12.2641310  89.9696430 121.5868250  11.5499830  90.1693350 122.1920860
  12.6836350  89.1936000 121.9583050  26.3672260  99.5826910 108.9862080
  26.0793960 100.0439600 109.7739960  27.1624430  99.1224680 109.2546300
  12.5513900 103.9576690 122.5734780  12.6605020 103.0171430 122.4330170
  11.8994460 104.2231440 121.9248510  20.5426490 102.2292580 123.9732900
  20.2223360 101.5101820 124.5178590  19.8684850 102.9047650 124.0468960
  18.5840660 103.0753030 108.9166050  18.5750760 103.8082720 108.3010560
  17.6639020 102.8284610 109.0093010  14.1847300  98.2967920 109.6612810
  13.5775250  99.0366820 109.6708110  14.6596650  98.3867280 108.8351010
  23.7580090  92.4618740 119.3369700  24.1260910  91.6413950 119.6649270
  22.8978290  92.5220630 119.7525350  27.1242120  91.4175680 110.1457260
  26.4955280  91.5221350 109.4315490  26.6294040  91.6372460 110.9351140
  21.5700260 103.1381270 107.5791240  21.6712240 102.9345260 106.6493220
  20.6702000 102.8839550 107.7839020  19.0926150  93.6961630 111.5615140
  18.3842300  94.1647970 112.0028750  19.3770630  93.0383640 112.1960330
  20.7182080  95.1158330 119.5607670  21.2167330  95.5904150 120.2259520
  20.8605030  94.1921850 119.7677700  23.1241580  90.4212290 113.0010930
  23.0009360  90.4398420 112.0520440  24.0726140  90.4691230 113.1209330
  20.2118370 105.6567590 112.2738910  20.4659870 105.6188980 111.3518280
  19.2630850 105.5300920 112.2667160  17.2961170  92.0046710 108.9365850
  18.1451700  92.4416860 108.8706040  16.9292440  92.3166970 109.7637910
  27.9248940  91.3326290 120.4036060  27.4222540  92.0731690 120.7429870
  28.7405600  91.7210290 120.0872850  26.2170950  96.5759470 113.8497420
  25.2761090  96.5909700 114.0245110  26.5315020  95.7895430 114.2957720
  16.1952590  98.2579070 107.4101380  16.9615860  98.1460430 107.9726810
  16.2727280  97.5617040 106.7578150  14.8899350  95.6904140 108.0934270
  14.9702940  94.7431650 108.2051670  15.7819100  96.0211020 108.1994930
  28.2196530 103.7468320 115.5251680  28.3443950 104.5699490 115.9975490
  29.0862090 103.5359050 115.1775830  15.6914060 105.8399530 115.1968810
  16.4276540 105.2914990 115.4677380  16.0754980 106.7055540 115.0574800
  12.5759540 101.9073100 111.0710320  11.6499320 102.1494240 111.0615730
  13.0415970 102.7347360 110.9495070  14.6972340 105.0245600 124.3854390
  15.4985070 105.3457650 124.7989790  14.1824160 104.6641180 125.1074300
  18.8016370 105.0129840 107.0194380  19.5944980 105.3018670 106.5676170
  18.2820720 104.5822010 106.3406860  23.5336970 101.1325470 124.3329800
  22.9275130 101.1557070 123.5925550  23.2291080 100.4008510 124.8697050
  24.9637340 104.8605760 122.9439210  25.9159090 104.7763780 122.8939450
  24.8165560 105.5247470 123.6173000  27.8546540 104.2399970 108.4431120
  27.5688050 103.8265110 107.6285300  27.6566090 105.1687680 108.3231640
  12.4170150  97.5119060 123.3290440  12.9209170  96.9326340 123.9006670
  11.6777570  97.7959290 123.8666810  19.3193770 100.2333250 106.8836730
  19.2144410  99.6185600 107.6098110  19.1517990  99.7099140 106.0999740
  19.4708090  98.9190050 122.8625960  18.7053760  99.4875050 122.7780630
  19.6524050  98.6266260 121.9694190  22.5596500  99.2953280 107.4878720
  22.0106600  99.7422580 108.1321460  23.1815760  98.7902530 108.0116390
  26.6131440 100.6495380 123.4200980  27.3540910 100.9871140 122.9168440
  25.8504120 100.8187440 122.8670750  14.4493230  95.6548650 124.2240510
  14.4898570  95.3562520 125.1325740  15.3038730  96.0556260 124.0648030
  18.2271620  98.2544200 109.3844020  18.6488040  98.0884070 110.2275410
  18.3522460  97.4444430 108.8899160  16.3899040  94.2340750 122.1915000
  15.8595500  93.7431700 121.5638340  17.0587110  94.6624950 121.6572930
  20.7399260  97.2781810 106.6321120  21.2604920  96.5630830 106.2662270
  21.3867660  97.9167680 106.9321630  25.2877100  98.7010210 121.9556190
  25.7018120  98.8555290 122.8046610  24.3528100  98.8265430 122.1181970
  25.7599270  96.0406370 123.9595340  26.3420040  95.2858690 123.8715820
  25.9361040  96.5713810 123.1826820  16.8771340  91.2003120 122.2712290
  16.7828210  90.5823870 121.5463160  16.2968730  91.9269410 122.0442200
  19.6432780  89.7576360 119.3039680  19.1950080  89.7800620 118.4585230
  19.0097980  89.3595380 119.9009980  20.0492330  98.6530690 119.9252120
  20.4680440  99.4963420 119.7528360  19.1300960  98.7902730 119.6958900
  22.3856230  96.3846870 121.3089960  22.5052440  95.7888010 122.0484800
  23.2450230  96.4216560 120.8891260  24.7244130  96.9384060 119.8852470
  24.1979350  97.4626680 119.2817610  25.0675470  97.5711450 120.5162200
  17.1230520  94.3277430 106.3302180  16.9219580  93.4644790 106.6915520
  16.9522570  94.2410790 105.3923780  17.8999750 104.9583700 121.0409850
  17.3620840 105.6829760 120.7218550  18.1533710 104.4814040 120.2507190
  19.1525000  92.9268220 122.5665780  19.7424690  92.6184070 123.2543600
  18.3345240  92.4547970 122.7225680  23.9718430  92.5434030 122.7998800
  23.2833950  91.8815570 122.7348790  24.6924450  92.0972300 123.2447260
  24.6018830  89.1385660 108.8589060  24.8821120  88.2953560 109.2148480
  23.8284560  89.3708770 109.3727810  15.9213320  91.4278050 106.3180060
  16.2239220  91.4345480 105.4099210  16.6607910  91.0775910 106.8147720
  20.7561960 106.1934910 121.2996500  20.6820660 107.0970050 121.6068870
  19.8540800 105.8746810 121.2718570  19.1398250  90.3712670 107.3036260
  18.7920250  89.6936660 106.7238710  19.3411020  89.9102180 108.1179650
  21.3047290 105.3593420 108.9222860  22.1998080 105.6978390 108.9441620
  21.3364920 104.6372830 108.2947140  14.9443450 100.7320470 107.1509860
  15.3818320 101.2750140 107.8067440  15.4291180  99.9067420 107.1606200
  12.1589250 103.5209500 114.6030120  12.4892260 102.6530560 114.3708760
  12.5880250 103.7268020 115.4335080  16.7551170 101.8518510 112.2632090
  16.4546710 101.7283480 113.1636000  16.6488660 100.9927100 111.8547820
  12.6479460 104.3880090 117.3411750  12.2110450 104.5680890 118.1735900
  13.2157140 105.1454710 117.1993470  28.2841640 103.8897090 121.6289060
  27.6843630 103.9489650 120.8852980  28.4135540 102.9502070 121.7585910
  29.5243090 101.6314910 106.9658770  28.6936050 101.6991560 107.4366000
  29.7014920 102.5219030 106.6625630  28.9799550  98.3762390 109.4692970
  29.7418460  98.9459040 109.5752660  28.9953920  97.8089590 110.2401280
  12.4803890  96.9000320 113.7000630  11.8252730  96.6311960 113.0560330
  13.3181840  96.7904800 113.2502610  29.9859520  99.2312490 114.3134900
  30.3568350  98.4479810 113.9070870  30.6261450  99.9201590 114.1352200
  26.9693280 100.6149070 119.7265220  26.1553120 101.0446230 119.9891010
  27.3767480 101.2267480 119.1134270  29.0318720  98.6696760 106.6265490
  29.3067560  99.5775640 106.4984710  28.8429460  98.6059290 107.5627480
  25.4294330  91.6941610 107.9219120  25.8479210  91.5072590 107.0815780
  25.1230390  90.8420660 108.2322050  28.9284060  96.6065750 111.6194920
  28.5527660  95.8393680 111.1876210  28.1987180  96.9888450 112.1069850
  13.5179820  97.2852890 118.2403970  13.8852860  97.1980290 119.1199990
  12.9490640  96.5219440 118.1410830  28.3183680  95.7537270 121.2534440
  28.0869770  95.5250020 120.3532390  28.5788230  96.6736820 121.2079330
  13.0695820  94.1961980 122.1462390  12.1751870  94.1628740 122.4856100
  13.6093370  94.3948770 122.9113640  26.7571750  90.9793700 124.0314140
  27.6341930  90.9877100 124.4148140  26.7692590  90.2424540 123.4206490
  11.6941970  94.1099250 109.6425960  10.7906050  94.3729450 109.4677620
  12.1782590  94.3810420 108.8625920  28.2035020  94.8323240 114.9202160
  28.7272500  94.3385890 114.2892330  28.7894440  94.9673600 115.6649730
  28.3824740  94.9163110 118.4421710  27.4327450  94.8826650 118.5566700
  28.5637750  95.8263220 118.2071480  14.2369180  93.1664790 107.5520340
  14.9460880  92.7448010 107.0667620  13.5209120  93.2340020 106.9203690
  13.8843340  89.2204120 106.5922990  14.6071470  89.7613060 106.9104210
  14.1567860  88.9467540 105.7164530  27.6934990  94.0896590 110.8594570
  28.1894110  93.8567460 111.6443450  27.4951060  93.2508430 110.4432210
  13.5735530  88.4710310 116.4945610  14.2211720  87.9207690 116.0540770
  13.9937370  88.7253460 117.3161420  29.1222150  92.7257540 113.3932250
  29.0121430  92.5713580 114.3314520  29.8829740  92.1978480 113.1507660
  27.4687870  88.6651670 119.8515250  28.1060090  89.2785810 120.2174440
  27.6162760  88.7012330 118.9064480  27.0269330 105.3667670 113.2533490
  27.6228400 105.0452240 112.5767910  27.2847480 104.8939490 114.0446760
  13.3267530  88.6265980 119.2370930  12.9782350  89.0829800 120.0029110
  12.9955230  87.7323110 119.3193360  14.9331900 101.7985580 123.4024120
  14.8901530 101.4278490 124.2838580  15.0642910 102.7363150 123.5425940
  18.6337930 103.3545170 119.0033840  18.3929290 103.6219730 118.1164360
  19.5740570 103.5250900 119.0584700  20.8392350  89.8177860 122.7590350
  20.7781240  90.4099690 123.5085760  21.7792730  89.7103820 122.6140610
  23.4766910  89.4747920 122.3982640  24.0907320  89.7927210 121.7363720
  24.0216470  88.9896510 123.0178500  29.8942090 105.3739550 119.8044480
  29.4000370 105.7708420 119.0871610  29.2855380 104.7488760 120.1981760
  13.9988170  88.1542180 122.5121700  14.5471160  87.9730230 121.7487810
  14.0643480  87.3636290 123.0478010  14.7719930 104.7447830 120.5221900
  14.1780250 104.6132530 121.2611940  14.7643770 103.9085970 120.0564000
  24.2174950  88.0380060 118.7251930  23.3434790  88.3715170 118.5224860
  24.1085700  87.5653240 119.5503800  25.1246930  90.2450930 120.1093650
  24.7960290  89.4302690 119.7295380  26.0729230  90.2020740 119.9859340
  27.5781540 106.0162970 117.0831220  27.1184510 106.7678780 116.7089240
  26.9494000 105.2969440 117.0246020  14.4032160 102.1106210 119.4729940
  13.6766220 101.4911500 119.4055890  14.4641310 102.5046820 118.6028020
  18.0077260 104.3251210 116.2579350  18.5242280 103.7138570 115.7327610
  18.6574640 104.8279990 116.7490360  20.7472760 105.2159700 117.0848330
  21.0350570 104.9614000 116.2081340  21.2595980 104.6637060 117.6753900
  21.9649770  88.9549900 117.6644840  21.1821560  89.4295400 117.9441600
  21.6712700  88.0504730 117.5558020  26.5170840  89.6573000 115.7093930
  26.9578930  89.6018100 114.8615530  26.2478430  90.5731010 115.7804110
  28.3809410  89.2888240 113.7202750  28.3197810  88.3449460 113.5733770
  29.1601440  89.3968330 114.2656210  12.6862160 105.4280600 112.6826700
  12.5184200 104.7951280 113.3808590  11.8196670 105.6340000 112.3320890
  13.3090180  89.2597380 110.1858560  14.0669540  89.3726260 109.6122590
  12.8467350  90.0966580 110.1401990  19.8503990  91.3736650 113.1760870
  19.0378500  90.9993540 112.8356750  20.3545630  90.6181730 113.4782060
  24.3528970  88.0379100 114.4143940  24.9558340  88.6099310 114.8892460
  23.6121960  88.6018540 114.1917840  14.2924860 104.1213830 110.1276840
  13.7672480 104.5021860 109.4238800  14.2169440 104.7464600 110.8486550
  15.6815330  89.7861430 108.7260530  16.2108090  88.9991230 108.5968480
  16.3143650  90.4652620 108.9596060  17.8753170  89.5236570 111.7805920
  17.2455910  88.8223880 111.9476050  17.3358310  90.2840700 111.5639080
  20.8145120 106.1375800 124.4516530  21.7412430 105.9020070 124.4952490
  20.7995550 106.9647800 123.9702560  18.0008730  88.8020550 124.2158410
  17.7193000  89.3054150 123.4519230  18.3828430  88.0042300 123.8500540
  16.8917830 106.0696210 109.0026090  17.6236650 105.7855490 108.4549980
  17.1511500 105.8309490 109.8925470  16.0532620 102.1860940 109.0072420
  15.4241500 102.6546040 109.5558250  16.1680450 101.3410160 109.4418610
  24.6024190  88.2174130 124.7938880  24.4889640  88.5368740 125.6890400
  25.4193930  88.6186640 124.4976160  27.3822680 105.3645660 124.2757570
  28.1748000 104.8694890 124.0683530  27.6755830 106.0435800 124.8833180
  15.6566210  98.3265430  97.9158650  14.8251090  98.0714140  98.3155160
  16.2647190  98.3976200  98.6516570  15.6367470 102.3605520  98.1116670
  15.9395510 101.4703260  97.9326890  16.3811060 102.9175740  97.8838920
  12.0291170  95.8872970  97.5840740  12.6007280  95.1195170  97.5844380
  12.0292710  96.1861730  96.6747350  13.2716040  91.2957330  99.3709670
  13.0918880  90.3983080  99.6512430  12.8696120  91.8429200 100.0456620
  13.8902710  93.7917830  97.9792010  14.5712820  94.0556200  98.5979410
  13.5750760  92.9518700  98.3130020  18.0827280  94.8385190  97.0664600
  18.5905500  95.3366160  97.7069620  18.6140520  94.0620390  96.8903960
  16.3663380  89.4783750 101.3328020  16.3681820  89.9956140 100.5273920
  15.5367690  89.0013930 101.3097950  17.6166230  99.1178930  99.5101520
  17.2835610  99.7447850 100.1522590  17.7932910  99.6440810  98.7303190
  16.0478710  91.1893710  99.3398470  16.3895520  92.0335760  99.0452340
  15.1094520  91.3377450  99.4563810  16.8285330 101.0859730 101.3250700
  17.4459330 101.7610810 101.0435150  15.9678450 101.4947710 101.2338200
  12.1217670 100.2759590  90.2057550  11.7445650 100.7646690  89.4742450
  12.3790740 100.9484870  90.8364080  19.7306600  88.6775980  95.6643060
  20.0381580  88.1222870  94.9478560  18.8007300  88.8120440  95.4816050
  25.2821660 104.3943270  97.9550520  25.2948820 103.9905560  97.0872780
  24.7296880 105.1690560  97.8511950  26.5767080 101.1159490  93.0440690
  26.4663410 100.1733820  93.1690110  26.5735330 101.4775130  93.9303450
  26.1484650  98.3045110  92.9038430  25.5297070  97.9664660  92.2564730
  26.1309100  97.6604870  93.6117620  17.7244000  97.2689550  95.1822910
  17.3201000  96.5566800  94.6868810  17.8107120  96.9242790  96.0710950
  16.4372620  94.0432760  98.9621950  16.9887210  94.1528100  98.1875200
  16.9516130  94.4170360  99.6777180  17.2844130 100.6938800 103.9969920
  16.3872660 100.9178770 104.2443320  17.3097000 100.8173740 103.0481320
  24.3249350  97.5431920  89.9111180  24.7642630  96.7054350  89.7649000
  25.0377770  98.1761320  89.9975320  16.1115350  97.5652120 102.5727290
  15.9723120  98.4374920 102.9414690  15.2296710  97.2224930 102.4275230
  17.9095700 103.5073820 104.7812440  17.8811130 103.9116770 103.9140870
  17.7460670 102.5784180 104.6184040  14.4248630  96.1634530  92.6829560
  14.3046230  96.8896620  92.0710830  14.1149520  95.3937440  92.2057470
  29.8610520 104.2900920 106.0776610  30.3370240 104.7683810 106.7565690
  30.4817680 104.2218410 105.3522110  12.0634000  99.3349670  98.4898200
  12.1414420  99.4698440  97.5453920  12.6775680  98.6265560  98.6826320
  13.3081630 101.0349860  94.9004380  12.9009710 101.1764450  94.0457980
  14.1994640 100.7510020  94.6975590  29.2643770 101.4813770 103.2376620
  29.3906830 101.2425650 102.3193800  29.3065150 100.6498310 103.7098700
  17.5803290 105.2495640  93.0127050  17.4045770 104.3331180  92.7994850
  16.7259030 105.6082930  93.2524850  24.8041040 102.9784670  89.7953430
  24.1106200 102.9761960  89.1355710  25.5463900 102.5543990  89.3647600
  12.1193520 100.3763840 101.0292660  12.2824560  99.9069200 100.2112030
  12.5845970  99.8687400 101.6941500  16.8912290  89.5069600  96.0653230
  16.4480440  90.2879140  95.7337750  17.4497280  89.8299490  96.7724170
  21.1782100  92.3738120 101.6688550  20.7161470  92.5821140 102.4808490
  20.7760210  91.5597470 101.3659220  18.9288190  90.0516930  97.9242830
  19.2260520  90.9579760  97.8434850  19.4773750  89.5635710  97.3102400
  19.1225720  95.5288750 104.4594750  19.0269320  94.5883480 104.3095150
  19.9657700  95.7503820 104.0642820  14.2536260  91.9402420 102.6128530
  13.8599650  92.7877630 102.8201310  13.5654660  91.3028790 102.8037170
  20.8281310  92.0237390 105.6825270  20.1379630  91.8309590 106.3171360
  21.5713610  92.3072030 106.2149570  11.5553310  89.8630880  96.6458610
  11.2666360  90.4333740  97.3583590  12.2999070  89.3835330  97.0089840
  11.7423540  93.8051000  87.8561330  11.6598210  94.7481760  87.9976320
  11.3906600  93.6625910  86.9773680  19.5421670  92.5390030  96.9231680
  19.5457730  92.0979980  96.0736220  20.4372790  92.8607360  97.0303500
  15.3924050  92.4216520  95.8825890  15.0524100  92.8991750  96.6392940
  14.6301370  91.9681640  95.5226990  18.6163320  95.8503250  89.3121740
  18.0480220  95.4021500  88.6857650  19.3252320  96.2096030  88.7786890
  13.6932500  99.7515270 103.1888470  13.3087290  99.1108940 103.7871430
  14.0044690 100.4551390 103.7583200  19.8429640  96.5991810  98.6697090
  20.2099770  96.1250380  99.4158430  19.6534700  97.4733380  99.0105430
  12.7070130  91.3435500  94.7990560  12.4217050  90.9791170  95.6369180
  12.6448990  90.6115960  94.1853700  17.6329010  95.6400450 100.9881300
  17.3286080  96.5192430 101.2131660  18.5875470  95.7000240 101.0238740
  16.1610800  99.8461440  91.5848150  15.3873060  99.3059060  91.4246870
  16.8905430  99.3268050  91.2465910  16.2048200  99.5141820  95.2226960
  16.7226870  98.7110080  95.1683850  15.7532220  99.4520960  96.0643790
  13.6892740  96.4803190 102.1352660  13.3307680  97.1457040 102.7226000
  13.3947300  95.6486740 102.5065280  16.8905860  96.9387430 105.0192210
  16.5906000  97.0844610 104.1220030  17.6617100  96.3792720 104.9265600
  12.2000790  96.4794450  88.7587260  13.0695640  96.7619250  89.0423180
  11.7091110  97.2930320  88.6436070  15.2647380  88.2105310  93.3518060
  15.1362010  88.2023210  94.3002980  14.4409400  88.5488400  93.0009070
  26.7856010 101.6654970  88.5504430  26.5593590 100.9485410  89.1429070
  26.3952210 101.4167410  87.7126180  12.5672040 105.6921830  89.3248890
  12.9269680 106.2911170  88.6706160  12.4264380 106.2381720  90.0983920
  12.2641310  89.9696430 102.8124760  11.5499830  90.1693350 103.4177370
  12.6836350  89.1936000 103.1839560  26.3672260  99.5826910  90.2118590
  26.0793960 100.0439600  90.9996470  27.1624430  99.1224680  90.4802810
  12.5513900 103.9576690 103.7991290  12.6605020 103.0171430 103.6586680
  11.8994460 104.2231440 103.1505020  14.1847300  98.2967920  90.8869320
  13.5775250  99.0366820  90.8964620  14.6596650  98.3867280  90.0607520
  16.1952590  98.2579070  88.6357890  16.9615860  98.1460430  89.1983320
  16.2727280  97.5617040  87.9834660  14.8899350  95.6904140  89.3190780
  14.9702940  94.7431650  89.4308180  15.7819100  96.0211020  89.4251440
  15.6914060 105.8399530  96.4225320  16.4276540 105.2914990  96.6933890
  16.0754980 106.7055540  96.2831310  12.5759540 101.9073100  92.2966830
  11.6499320 102.1494240  92.2872240  13.0415970 102.7347360  92.1751580
  14.6972340 105.0245600 105.6110900  15.4985070 105.3457650 106.0246300
  14.1824160 104.6641180 106.3330810  12.4170150  97.5119060 104.5546950
  12.9209170  96.9326340 105.1263180  11.6777570  97.7959290 105.0923320
  19.3193770 100.2333250  88.1093240  19.2144410  99.6185600  88.8354620
  19.1517990  99.7099140  87.3256250  14.4493230  95.6548650 105.4497020
  14.4898570  95.3562520 106.3582250  15.3038730  96.0556260 105.2904540
  18.2271620  98.2544200  90.6100530  18.6488040  98.0884070  91.4531920
  18.3522460  97.4444430  90.1155670  16.3899040  94.2340750 103.4171510
  15.8595500  93.7431700 102.7894850  17.0587110  94.6624950 102.8829440
  20.7399260  97.2781810  87.8577630  21.2604920  96.5630830  87.4918780
  21.3867660  97.9167680  88.1578140  25.7599270  96.0406370 105.1851850
  26.3420040  95.2858690 105.0972330  25.9361040  96.5713810 104.4083330
  16.8771340  91.2003120 103.4968800  16.7828210  90.5823870 102.7719670
  16.2968730  91.9269410 103.2698710  19.6432780  89.7576360 100.5296190
  19.1950080  89.7800620  99.6841740  19.0097980  89.3595380 101.1266490
  17.1230520  94.3277430  87.5558690  16.9219580  93.4644790  87.9172030
  16.9522570  94.2410790  86.6180290  17.8999750 104.9583700 102.2666360
  17.3620840 105.6829760 101.9475060  18.1533710 104.4814040 101.4763700
  19.1525000  92.9268220 103.7922290  19.7424690  92.6184070 104.4800110
  18.3345240  92.4547970 103.9482190  23.9718430  92.5434030 104.0255310
  23.2833950  91.8815570 103.9605300  24.6924450  92.0972300 104.4703770
  20.7561960 106.1934910 102.5253010  20.6820660 107.0970050 102.8325380
  19.8540800 105.8746810 102.4975080  14.9443450 100.7320470  88.3766370
  15.3818320 101.2750140  89.0323950  15.4291180  99.9067420  88.3862710
  12.1589250 103.5209500  95.8286630  12.4892260 102.6530560  95.5965270
  12.5880250 103.7268020  96.6591590  16.7551170 101.8518510  93.4888600
  16.4546710 101.7283480  94.3892510  16.6488660 100.9927100  93.0804330
  12.6479460 104.3880090  98.5668260  12.2110450 104.5680890  99.3992410
  13.2157140 105.1454710  98.4249980  28.2841640 103.8897090 102.8545570
  27.6843630 103.9489650 102.1109490  28.4135540 102.9502070 102.9842420
  29.5243090 101.6314910  88.1915280  28.6936050 101.6991560  88.6622510
  29.7014920 102.5219030  87.8882140  28.9799550  98.3762390  90.6949480
  29.7418460  98.9459040  90.8009170  28.9953920  97.8089590  91.4657790
  12.4803890  96.9000320  94.9257140  11.8252730  96.6311960  94.2816840
  13.3181840  96.7904800  94.4759120  29.0318720  98.6696760  87.8522000
  29.3067560  99.5775640  87.7241220  28.8429460  98.6059290  88.7883990
  13.5179820  97.2852890  99.4660480  13.8852860  97.1980290 100.3456500
  12.9490640  96.5219440  99.3667340  13.0695820  94.1961980 103.3718900
  12.1751870  94.1628740 103.7112610  13.6093370  94.3948770 104.1370150
  11.6941970  94.1099250  90.8682470  10.7906050  94.3729450  90.6934130
  12.1782590  94.3810420  90.0882430  14.2369180  93.1664790  88.7776850
  14.9460880  92.7448010  88.2924130  13.5209120  93.2340020  88.1460200
  13.8843340  89.2204120  87.8179500  14.6071470  89.7613060  88.1360720
  14.1567860  88.9467540  86.9421040  13.5735530  88.4710310  97.7202120
  14.2211720  87.9207690  97.2797280  13.9937370  88.7253460  98.5417930
  13.3267530  88.6265980 100.4627440  12.9782350  89.0829800 101.2285620
  12.9955230  87.7323110 100.5449870  14.9331900 101.7985580 104.6280630
  14.8901530 101.4278490 105.5095090  15.0642910 102.7363150 104.7682450
  18.6337930 103.3545170 100.2290350  18.3929290 103.6219730  99.3420870
  19.5740570 103.5250900 100.2841210  20.8392350  89.8177860 103.9846860
  20.7781240  90.4099690 104.7342270  21.7792730  89.7103820 103.8397120
  23.4766910  89.4747920 103.6239150  24.0907320  89.7927210 102.9620230
  24.0216470  88.9896510 104.2435010  29.8942090 105.3739550 101.0300990
  29.4000370 105.7708420 100.3128120  29.2855380 104.7488760 101.4238270
  13.9988170  88.1542180 103.7378210  14.5471160  87.9730230 102.9744320
  14.0643480  87.3636290 104.2734520  14.7719930 104.7447830 101.7478410
  14.1780250 104.6132530 102.4868450  14.7643770 103.9085970 101.2820510
  14.4032160 102.1106210 100.6986450  13.6766220 101.4911500 100.6312400
  14.4641310 102.5046820  99.8284530  18.0077260 104.3251210  97.4835860
  18.5242280 103.7138570  96.9584120  18.6574640 104.8279990  97.9746870
  20.7472760 105.2159700  98.3104840  21.0350570 104.9614000  97.4337850
  21.2595980 104.6637060  98.9010410  21.9649770  88.9549900  98.8901350
  21.1821560  89.4295400  99.1698110  21.6712700  88.0504730  98.7814530
  12.6862160 105.4280600  93.9083210  12.5184200 104.7951280  94.6065100
  11.8196670 105.6340000  93.5577400  13.3090180  89.2597380  91.4115070
  14.0669540  89.3726260  90.8379100  12.8467350  90.0966580  91.3658500
  14.2924860 104.1213830  91.3533350  13.7672480 104.5021860  90.6495310
  14.2169440 104.7464600  92.0743060  20.8145120 106.1375800 105.6773040
  21.7412430 105.9020070 105.7209000  20.7995550 106.9647800 105.1959070
  18.0008730  88.8020550 105.4414920  17.7193000  89.3054150 104.6775740
  18.3828430  88.0042300 105.0757050  16.0532620 102.1860940  90.2328930
  15.4241500 102.6546040  90.7814760  16.1680450 101.3410160  90.6675120
  24.6024190  88.2174130 106.0195390  24.4889640  88.5368740 106.9146910
  25.4193930  88.6186640 105.7232670  27.3822680 105.3645660 105.5014080
  28.1748000 104.8694890 105.2940040  27.6755830 106.0435800 106.1089690
  15.6566210  98.3265430  79.1415160  14.8251090  98.0714140  79.5411670
  16.2647190  98.3976200  79.8773080  15.6367470 102.3605520  79.3373180
  15.9395510 101.4703260  79.1583400  16.3811060 102.9175740  79.1095430
  14.0658160  93.2867320  72.9257550  13.1774860  93.6283290  72.8237430
  14.3499350  93.0867640  72.0338380  12.0291170  95.8872970  78.8097250
  12.6007280  95.1195170  78.8100890  12.0292710  96.1861730  77.9003860
  13.2716040  91.2957330  80.5966180  13.0918880  90.3983080  80.8768940
  12.8696120  91.8429200  81.2713130  16.2419550  91.8698820  73.9595930
  16.3486300  92.7702550  74.2664690  15.3311910  91.8216790  73.6690580
  13.8902710  93.7917830  79.2048520  14.5712820  94.0556200  79.8235920
  13.5750760  92.9518700  79.5386530  18.0827280  94.8385190  78.2921110
  18.5905500  95.3366160  78.9326130  18.6140520  94.0620390  78.1160470
  22.7534470  99.5903060  74.0574430  22.1351740 100.0552510  73.4937150
  23.2657720 100.2830540  74.4743940  17.6166230  99.1178930  80.7358030
  17.2835610  99.7447850  81.3779100  17.7932910  99.6440810  79.9559700
  16.8285330 101.0859730  82.5507210  17.4459330 101.7610810  82.2691660
  15.9678450 101.4947710  82.4594710  12.1217670 100.2759590  71.4314060
  11.7445650 100.7646690  70.6998960  12.3790740 100.9484870  72.0620590
  29.1987060  92.3778800  78.5943580  28.2511970  92.4117780  78.7259010
  29.5237050  93.1917750  78.9792940  17.7244000  97.2689550  76.4079420
  17.3201000  96.5566800  75.9125320  17.8107120  96.9242790  77.2967460
  18.1925700 100.9557110  78.5718630  17.8953990 100.3502580  77.8926410
  19.1425520 100.9934420  78.4607990  16.4372620  94.0432760  80.1878460
  16.9887210  94.1528100  79.4131710  16.9516130  94.4170360  80.9033690
  26.2811310 104.5288980  82.2341730  25.8041870 105.3361170  82.0414340
  25.5973100 103.8767310  82.3867940  17.2844130 100.6938800  85.2226430
  16.3872660 100.9178770  85.4699830  17.3097000 100.8173740  84.2737830
  16.1115350  97.5652120  83.7983800  15.9723120  98.4374920  84.1671200
  15.2296710  97.2224930  83.6531740  22.4344730 102.4827990  75.1048930
  22.8740640 103.2252320  74.6904320  22.3731620 102.7254560  76.0287890
  17.9095700 103.5073820  86.0068950  17.8811130 103.9116770  85.1397380
  17.7460670 102.5784180  85.8440550  14.4248630  96.1634530  73.9086070
  14.3046230  96.8896620  73.2967340  14.1149520  95.3937440  73.4313980
  29.8610520 104.2900920  87.3033120  30.3370240 104.7683810  87.9822200
  30.4817680 104.2218410  86.5778620  12.0634000  99.3349670  79.7154710
  12.1414420  99.4698440  78.7710430  12.6775680  98.6265560  79.9082830
  13.3081630 101.0349860  76.1260890  12.9009710 101.1764450  75.2714490
  14.1994640 100.7510020  75.9232100  29.2643770 101.4813770  84.4633130
  29.3906830 101.2425650  83.5450310  29.3065150 100.6498310  84.9355210
  23.1260510 105.1841770  83.0327940  23.6405180 105.0949780  83.8350370
  22.2829590 105.5301470  83.3255850  25.1014910 105.4697110  72.4611940
  24.9416050 105.1800050  73.3593770  24.9361620 104.6937240  71.9257170
  17.5803290 105.2495640  74.2383560  17.4045770 104.3331180  74.0251360
  16.7259030 105.6082930  74.4781360  12.1193520 100.3763840  82.2549170
  12.2824560  99.9069200  81.4368540  12.5845970  99.8687400  82.9198010
  26.1786610  93.5947070  84.0241720  25.3280200  93.2952820  84.3450790
  26.0188400  93.8389080  83.1125540  23.2736320  95.0948820  86.1240510
  23.5989730  94.2612570  85.7842740  24.0616650  95.6177340  86.2718840
  16.6826510  94.6303170  75.0190990  16.4567430  94.4140340  75.9237610
  15.9019040  95.0631630  74.6736960  19.1225720  95.5288750  85.6851260
  19.0269320  94.5883480  85.5351660  19.9657700  95.7503820  85.2899330
  14.2536260  91.9402420  83.8385040  13.8599650  92.7877630  84.0457820
  13.5654660  91.3028790  84.0293680  20.8281310  92.0237390  86.9081780
  20.1379630  91.8309590  87.5427870  21.5713610  92.3072030  87.4406080
  11.5553310  89.8630880  77.8715120  11.2666360  90.4333740  78.5840100
  12.2999070  89.3835330  78.2346350  11.7423540  93.8051000  69.0817840
  11.6598210  94.7481760  69.2232830  11.3906600  93.6625910  68.2030190
  15.3924050  92.4216520  77.1082400  15.0524100  92.8991750  77.8649450
  14.6301370  91.9681640  76.7483500  26.9940940  88.7301690  84.9945020
  27.3186710  87.9991350  85.5203000  27.0297450  88.4115330  84.0926010
  13.6932500  99.7515270  84.4144980  13.3087290  99.1108940  85.0127940
  14.0044690 100.4551390  84.9839710  12.7070130  91.3435500  76.0247070
  12.4217050  90.9791170  76.8625690  12.6448990  90.6115960  75.4110210
  17.6329010  95.6400450  82.2137810  17.3286080  96.5192430  82.4388170
  18.5875470  95.7000240  82.2495250  16.1610800  99.8461440  72.8104660
  15.3873060  99.3059060  72.6503380  16.8905430  99.3268050  72.4722420
  16.2048200  99.5141820  76.4483470  16.7226870  98.7110080  76.3940360
  15.7532220  99.4520960  77.2900300  13.6892740  96.4803190  83.3609170
  13.3307680  97.1457040  83.9482510  13.3947300  95.6486740  83.7321790
  16.8905860  96.9387430  86.2448720  16.5906000  97.0844610  85.3476540
  17.6617100  96.3792720  86.1522110  20.0608390 100.8621630  74.4926690
  20.7479520 101.4090840  74.8734280  19.2740810 101.4062360  74.5276300
  12.2000790  96.4794450  69.9843770  13.0695640  96.7619250  70.2679690
  11.7091110  97.2930320  69.8692580  21.6668210 103.3774000  81.3344350
  22.3110430 103.5833380  82.0117770  22.0297650 102.6162400  80.8815200
  15.2647380  88.2105310  74.5774570  15.1362010  88.2023210  75.5259490
  14.4409400  88.5488400  74.2265580  24.7137910 102.1801250  83.2557860
  25.0494150 102.7667940  83.9335780  23.7938250 102.0493960  83.4855650
  12.5672040 105.6921830  70.5505400  12.9269680 106.2911170  69.8962670
  12.4264380 106.2381720  71.3240430  12.2641310  89.9696430  84.0381270
  11.5499830  90.1693350  84.6433880  12.6836350  89.1936000  84.4096070
  12.5513900 103.9576690  85.0247800  12.6605020 103.0171430  84.8843190
  11.8994460 104.2231440  84.3761530  20.5426490 102.2292580  86.4245920
  20.2223360 101.5101820  86.9691610  19.8684850 102.9047650  86.4981980
  18.5840660 103.0753030  71.3679070  18.5750760 103.8082720  70.7523580
  17.6639020 102.8284610  71.4606030  14.1847300  98.2967920  72.1125830
  13.5775250  99.0366820  72.1221130  14.6596650  98.3867280  71.2864030
  20.2118370 105.6567590  74.7251930  20.4659870 105.6188980  73.8031300
  19.2630850 105.5300920  74.7180180  17.2961170  92.0046710  71.3878870
  18.1451700  92.4416860  71.3219060  16.9292440  92.3166970  72.2150930
  27.9248940  91.3326290  82.8549080  27.4222540  92.0731690  83.1942890
  28.7405600  91.7210290  82.5385870  16.1952590  98.2579070  69.8614400
  16.9615860  98.1460430  70.4239830  16.2727280  97.5617040  69.2091170
  14.8899350  95.6904140  70.5447290  14.9702940  94.7431650  70.6564690
  15.7819100  96.0211020  70.6507950  15.6914060 105.8399530  77.6481830
  16.4276540 105.2914990  77.9190400  16.0754980 106.7055540  77.5087820
  12.5759540 101.9073100  73.5223340  11.6499320 102.1494240  73.5128750
  13.0415970 102.7347360  73.4008090  14.6972340 105.0245600  86.8367410
  15.4985070 105.3457650  87.2502810  14.1824160 104.6641180  87.5587320
  18.8016370 105.0129840  69.4707400  19.5944980 105.3018670  69.0189190
  18.2820720 104.5822010  68.7919880  23.5336970 101.1325470  86.7842820
  22.9275130 101.1557070  86.0438570  23.2291080 100.4008510  87.3210070
  24.9637340 104.8605760  85.3952230  25.9159090 104.7763780  85.3452470
  24.8165560 105.5247470  86.0686020  27.8546540 104.2399970  70.8944140
  27.5688050 103.8265110  70.0798320  27.6566090 105.1687680  70.7744660
  12.4170150  97.5119060  85.7803460  12.9209170  96.9326340  86.3519690
  11.6777570  97.7959290  86.3179830  26.6131440 100.6495380  85.8714000
  27.3540910 100.9871140  85.3681460  25.8504120 100.8187440  85.3183770
  14.4493230  95.6548650  86.6753530  14.4898570  95.3562520  87.5838760
  15.3038730  96.0556260  86.5161050  16.3899040  94.2340750  84.6428020
  15.8595500  93.7431700  84.0151360  17.0587110  94.6624950  84.1085950
  25.7599270  96.0406370  86.4108360  26.3420040  95.2858690  86.3228840
  25.9361040  96.5713810  85.6339840  16.8771340  91.2003120  84.7225310
  16.7828210  90.5823870  83.9976180  16.2968730  91.9269410  84.4955220
  19.6432780  89.7576360  81.7552700  19.1950080  89.7800620  80.9098250
  19.0097980  89.3595380  82.3523000  17.8999750 104.9583700  83.4922870
  17.3620840 105.6829760  83.1731570  18.1533710 104.4814040  82.7020210
  19.1525000  92.9268220  85.0178800  19.7424690  92.6184070  85.7056620
  18.3345240  92.4547970  85.1738700  23.9718430  92.5434030  85.2511820
  23.2833950  91.8815570  85.1861810  24.6924450  92.0972300  85.6960280
  15.9213320  91.4278050  68.7693080  16.2239220  91.4345480  67.8612230
  16.6607910  91.0775910  69.2660740  20.7561960 106.1934910  83.7509520
  20.6820660 107.0970050  84.0581890  19.8540800 105.8746810  83.7231590
  19.1398250  90.3712670  69.7549280  18.7920250  89.6936660  69.1751730
  19.3411020  89.9102180  70.5692670  21.3047290 105.3593420  71.3735880
  22.1998080 105.6978390  71.3954640  21.3364920 104.6372830  70.7460160
  14.9443450 100.7320470  69.6022880  15.3818320 101.2750140  70.2580460
  15.4291180  99.9067420  69.6119220  12.1589250 103.5209500  77.0543140
  12.4892260 102.6530560  76.8221780  12.5880250 103.7268020  77.8848100
  16.7551170 101.8518510  74.7145110  16.4546710 101.7283480  75.6149020
  16.6488660 100.9927100  74.3060840  12.6479460 104.3880090  79.7924770
  12.2110450 104.5680890  80.6248920  13.2157140 105.1454710  79.6506490
  12.4803890  96.9000320  76.1513650  11.8252730  96.6311960  75.5073350
  13.3181840  96.7904800  75.7015630  13.5179820  97.2852890  80.6916990
  13.8852860  97.1980290  81.5713010  12.9490640  96.5219440  80.5923850
  13.0695820  94.1961980  84.5975410  12.1751870  94.1628740  84.9369120
  13.6093370  94.3948770  85.3626660  26.7571750  90.9793700  86.4827160
  27.6341930  90.9877100  86.8661160  26.7692590  90.2424540  85.8719510
  11.6941970  94.1099250  72.0938980  10.7906050  94.3729450  71.9190640
  12.1782590  94.3810420  71.3138940  28.2035020  94.8323240  77.3715180
  28.7272500  94.3385890  76.7405350  28.7894440  94.9673600  78.1162750
  14.2369180  93.1664790  70.0033360  14.9460880  92.7448010  69.5180640
  13.5209120  93.2340020  69.3716710  13.8843340  89.2204120  69.0436010
  14.6071470  89.7613060  69.3617230  14.1567860  88.9467540  68.1677550
  27.4687870  88.6651670  82.3028270  28.1060090  89.2785810  82.6687460
  27.6162760  88.7012330  81.3577500  13.3267530  88.6265980  81.6883950
  12.9782350  89.0829800  82.4542130  12.9955230  87.7323110  81.7706380
  14.9331900 101.7985580  85.8537140  14.8901530 101.4278490  86.7351600
  15.0642910 102.7363150  85.9938960  18.6337930 103.3545170  81.4546860
  18.3929290 103.6219730  80.5677380  19.5740570 103.5250900  81.5097720
  20.8392350  89.8177860  85.2103370  20.7781240  90.4099690  85.9598780
  21.7792730  89.7103820  85.0653630  23.4766910  89.4747920  84.8495660
  24.0907320  89.7927210  84.1876740  24.0216470  88.9896510  85.4691520
  13.9988170  88.1542180  84.9634720  14.5471160  87.9730230  84.2000830
  14.0643480  87.3636290  85.4991030  14.7719930 104.7447830  82.9734920
  14.1780250 104.6132530  83.7124960  14.7643770 103.9085970  82.5077020
  24.2174950  88.0380060  81.1764950  23.3434790  88.3715170  80.9737880
  24.1085700  87.5653240  82.0016820  25.1246930  90.2450930  82.5606670
  24.7960290  89.4302690  82.1808400  26.0729230  90.2020740  82.4372360
  14.4032160 102.1106210  81.9242960  13.6766220 101.4911500  81.8568910
  14.4641310 102.5046820  81.0541040  18.0077260 104.3251210  78.7092370
  18.5242280 103.7138570  78.1840630  18.6574640 104.8279990  79.2003380
  20.7472760 105.2159700  79.5361350  21.0350570 104.9614000  78.6594360
  21.2595980 104.6637060  80.1266920  21.9649770  88.9549900  80.1157860
  21.1821560  89.4295400  80.3954620  21.6712700  88.0504730  80.0071040
  26.5170840  89.6573000  78.1606950  26.9578930  89.6018100  77.3128550
  26.2478430  90.5731010  78.2317130  12.6862160 105.4280600  75.1339720
  12.5184200 104.7951280  75.8321610  11.8196670 105.6340000  74.7833910
  13.3090180  89.2597380  72.6371580  14.0669540  89.3726260  72.0635610
  12.8467350  90.0966580  72.5915010  24.3528970  88.0379100  76.8656960
  24.9558340  88.6099310  77.3405480  23.6121960  88.6018540  76.6430860
  14.2924860 104.1213830  72.5789860  13.7672480 104.5021860  71.8751820
  14.2169440 104.7464600  73.2999570  15.6815330  89.7861430  71.1773550
  16.2108090  88.9991230  71.0481500  16.3143650  90.4652620  71.4109080
  17.8753170  89.5236570  74.2318940  17.2455910  88.8223880  74.3989070
  17.3358310  90.2840700  74.0152100  29.0490180 105.6801370  73.9003800
  29.2242370 104.9939110  73.2564720  28.3511750 106.2048420  73.5080470
  16.8917830 106.0696210  71.4539110  17.6236650 105.7855490  70.9063000
  17.1511500 105.8309490  72.3438490  16.0532620 102.1860940  71.4585440
  15.4241500 102.6546040  72.0071270  16.1680450 101.3410160  71.8931630
  27.3822680 105.3645660  86.7270590  28.1748000 104.8694890  86.5196550
  27.6755830 106.0435800  87.3346200  23.5082340  96.2366600  57.6086640
  23.4276390  95.3221210  57.3378350  23.0946760  96.7333670  56.9026350
  21.6400380  98.0145620  59.4895910  20.8642480  97.5346060  59.7794480
  22.2913310  97.3351270  59.3152070  15.6566210  98.3265430  60.3671670
  14.8251090  98.0714140  60.7668180  16.2647190  98.3976200  61.1029590
  15.6367470 102.3605520  60.5629690  15.9395510 101.4703260  60.3839910
  16.3811060 102.9175740  60.3351940  14.0658160  93.2867320  54.1514060
  13.1774860  93.6283290  54.0493940  14.3499350  93.0867640  53.2594890
  12.0291170  95.8872970  60.0353760  12.6007280  95.1195170  60.0357400
  12.0292710  96.1861730  59.1260370  21.8871120 104.7063820  57.8899030
  21.2682560 105.1621320  57.3193470  22.7422900 104.8615280  57.4888730
  21.0809370 100.6902810  59.4966070  21.0117650  99.7492750  59.3355200
  21.8429230 100.7804220  60.0688640  13.2716040  91.2957330  61.8222690
  13.0918880  90.3983080  62.1025450  12.8696120  91.8429200  62.4969640
  16.2419550  91.8698820  55.1852440  16.3486300  92.7702550  55.4921200
  15.3311910  91.8216790  54.8947090  25.8938660  90.9923630  56.6563340
  26.7148280  90.5020200  56.6988820  25.9272740  91.5821290  57.4095180
  13.8902710  93.7917830  60.4305030  14.5712820  94.0556200  61.0492430
  13.5750760  92.9518700  60.7643040  18.0827280  94.8385190  59.5177620
  18.5905500  95.3366160  60.1582640  18.6140520  94.0620390  59.3416980
  16.3663380  89.4783750  63.7841040  16.3681820  89.9956140  62.9786940
  15.5367690  89.0013930  63.7610970  22.7534470  99.5903060  55.2830940
  22.1351740 100.0552510  54.7193660  23.2657720 100.2830540  55.7000450
  17.6166230  99.1178930  61.9614540  17.2835610  99.7447850  62.6035610
  17.7932910  99.6440810  61.1816210  26.1300140  92.9324010  59.4290880
  25.4255710  93.2208900  60.0093990  26.4912300  93.7424120  59.0690440
  16.0478710  91.1893710  61.7911490  16.3895520  92.0335760  61.4965360
  15.1094520  91.3377450  61.9076830  16.8285330 101.0859730  63.7763720
  17.4459330 101.7610810  63.4948170  15.9678450 101.4947710  63.6851220
  12.1217670 100.2759590  52.6570570  11.7445650 100.7646690  51.9255470
  12.3790740 100.9484870  53.2877100  24.6807100  99.2973110  61.7346150
  25.0975890  99.0833220  60.8999610  25.4046920  99.5545900  62.3054770
  22.1187360  96.7424810  54.8516200  21.1916640  96.6762190  55.0804670
  22.2712180  97.6804940  54.7371440  22.1056440  93.0141810  51.8483360
  21.1660110  93.1755770  51.9335820  22.4239700  93.7327490  51.3019350
  17.7244000  97.2689550  57.6335930  17.3201000  96.5566800  57.1381830
  17.8107120  96.9242790  58.5223970  18.1925700 100.9557110  59.7975140
  17.8953990 100.3502580  59.1182920  19.1425520 100.9934420  59.6864500
  16.4372620  94.0432760  61.4134970  16.9887210  94.1528100  60.6388220
  16.9516130  94.4170360  62.1290200  17.2844130 100.6938800  66.4482940
  16.3872660 100.9178770  66.6956340  17.3097000 100.8173740  65.4994340
  24.3249350  97.5431920  52.3624200  24.7642630  96.7054350  52.2162020
  25.0377770  98.1761320  52.4488340  16.1115350  97.5652120  65.0240310
  15.9723120  98.4374920  65.3927710  15.2296710  97.2224930  64.8788250
  22.4344730 102.4827990  56.3305440  22.8740640 103.2252320  55.9160830
  22.3731620 102.7254560  57.2544400  17.9095700 103.5073820  67.2325460
  17.8811130 103.9116770  66.3653890  17.7460670 102.5784180  67.0697060
  14.4248630  96.1634530  55.1342580  14.3046230  96.8896620  54.5223850
  14.1149520  95.3937440  54.6570490  12.0634000  99.3349670  60.9411220
  12.1414420  99.4698440  59.9966940  12.6775680  98.6265560  61.1339340
  13.3081630 101.0349860  57.3517400  12.9009710 101.1764450  56.4971000
  14.1994640 100.7510020  57.1488610  25.1014910 105.4697110  53.6868450
  24.9416050 105.1800050  54.5850280  24.9361620 104.6937240  53.1513680
  17.5803290 105.2495640  55.4640070  17.4045770 104.3331180  55.2507870
  16.7259030 105.6082930  55.7037870  24.8041040 102.9784670  52.2466450
  24.1106200 102.9761960  51.5868730  25.5463900 102.5543990  51.8160620
  24.3690970 104.6047380  56.3214940  24.8247920 103.8236760  56.6353560
  24.7083490 105.3154200  56.8656120  29.1167780  93.5346230  66.6539380
  28.5012050  94.0425900  66.1254840  28.7964200  92.6344560  66.5965320
  12.1193520 100.3763840  63.4805680  12.2824560  99.9069200  62.6625050
  12.5845970  99.8687400  64.1454520  21.1782100  92.3738120  64.1201570
  20.7161470  92.5821140  64.9321510  20.7760210  91.5597470  63.8172240
  26.1786610  93.5947070  65.2498230  25.3280200  93.2952820  65.5707300
  26.0188400  93.8389080  64.3382050  20.0071110  89.1280300  53.3972080
  19.3825290  89.1240170  54.1225390  19.9201230  88.2611260  53.0008050
  16.6826510  94.6303170  56.2447500  16.4567430  94.4140340  57.1494120
  15.9019040  95.0631630  55.8993470  23.9124270  94.6366540  54.8438150
  23.3133160  95.3602340  54.6601770  24.4603880  94.5743320  54.0614600
  19.1225720  95.5288750  66.9107770  19.0269320  94.5883480  66.7608170
  19.9657700  95.7503820  66.5155840  14.2536260  91.9402420  65.0641550
  13.8599650  92.7877630  65.2714330  13.5654660  91.3028790  65.2550190
  11.5553310  89.8630880  59.0971630  11.2666360  90.4333740  59.8096610
  12.2999070  89.3835330  59.4602860  11.7423540  93.8051000  50.3074350
  11.6598210  94.7481760  50.4489340  11.3906600  93.6625910  49.4286700
  23.1044280  95.8635830  60.9692210  22.3725400  96.3722640  61.3182310
  22.7068620  95.0465810  60.6680990  15.3924050  92.4216520  58.3338910
  15.0524100  92.8991750  59.0905960  14.6301370  91.9681640  57.9740010
  19.6041820  93.5402110  52.3651460  19.7254640  93.4988590  53.3137280
  19.2190330  94.4026260  52.2098190  18.6163320  95.8503250  51.7634760
  18.0480220  95.4021500  51.1370670  19.3252320  96.2096030  51.2299910
  26.9940940  88.7301690  66.2201530  27.3186710  87.9991350  66.7459510
  27.0297450  88.4115330  65.3182520  13.6932500  99.7515270  65.6401490
  13.3087290  99.1108940  66.2384450  14.0044690 100.4551390  66.2096220
  19.8429640  96.5991810  61.1210110  20.2099770  96.1250380  61.8671450
  19.6534700  97.4733380  61.4618450  12.7070130  91.3435500  57.2503580
  12.4217050  90.9791170  58.0882200  12.6448990  90.6115960  56.6366720
  17.6329010  95.6400450  63.4394320  17.3286080  96.5192430  63.6644680
  18.5875470  95.7000240  63.4751760  16.1610800  99.8461440  54.0361170
  15.3873060  99.3059060  53.8759890  16.8905430  99.3268050  53.6978930
  22.3808720  90.2364760  53.9716950  21.5673330  89.7377930  53.8962260
  22.1870670  91.0763010  53.5553300  22.3017580  98.9135860  65.7156560
  22.2354890  97.9931530  65.4614150  21.6722720  99.0111300  66.4301200
  25.0957110  94.6084410  52.2679110  25.9836730  94.9201640  52.0930450
  25.0662200  93.7356660  51.8759690  16.2048200  99.5141820  57.6739980
  16.7226870  98.7110080  57.6196870  15.7532220  99.4520960  58.5156810
  21.0917700 100.7808100  52.9467280  21.4333400 101.5250330  52.4510600
  20.2630410 101.0939220  53.3092110  13.6892740  96.4803190  64.5865680
  13.3307680  97.1457040  65.1739020  13.3947300  95.6486740  64.9578300
  16.8905860  96.9387430  67.4705230  16.5906000  97.0844610  66.5733050
  17.6617100  96.3792720  67.3778620  23.9745110 100.1023940  58.3112790
  24.3268930  99.5052070  57.6514160  23.0907440  99.7768170  58.4821040
  20.0608390 100.8621630  55.7183200  20.7479520 101.4090840  56.0990790
  19.2740810 101.4062360  55.7532810  12.2000790  96.4794450  51.2100280
  13.0695640  96.7619250  51.4936200  11.7091110  97.2930320  51.0949090
  19.3635600  97.8667660  55.3308560  19.8198380  98.6772910  55.5568750
  19.0123810  97.5490800  56.1627050  15.2647380  88.2105310  55.8031080
  15.1362010  88.2023210  56.7516000  14.4409400  88.5488400  55.4522090
  22.9400290 101.3806350  61.2778310  23.5822520 100.6799510  61.3910480
  23.4649640 102.1604790  61.0975200  26.7856010 101.6654970  51.0017450
  26.5593590 100.9485410  51.5942090  26.3952210 101.4167410  50.1639200
  12.5672040 105.6921830  51.7761910  12.9269680 106.2911170  51.1219180
  12.4264380 106.2381720  52.5496940  12.2641310  89.9696430  65.2637780
  11.5499830  90.1693350  65.8690390  12.6836350  89.1936000  65.6352580
  26.3672260  99.5826910  52.6631610  26.0793960 100.0439600  53.4509490
  27.1624430  99.1224680  52.9315830  12.5513900 103.9576690  66.2504310
  12.6605020 103.0171430  66.1099700  11.8994460 104.2231440  65.6018040
  18.5840660 103.0753030  52.5935580  18.5750760 103.8082720  51.9780090
  17.6639020 102.8284610  52.6862540  14.1847300  98.2967920  53.3382340
  13.5775250  99.0366820  53.3477640  14.6596650  98.3867280  52.5120540
  23.7580090  92.4618740  63.0139230  24.1260910  91.6413950  63.3418800
  22.8978290  92.5220630  63.4294880  27.1242120  91.4175680  53.8226790
  26.4955280  91.5221350  53.1085020  26.6294040  91.6372460  54.6120670
  21.5700260 103.1381270  51.2560770  21.6712240 102.9345260  50.3262750
  20.6702000 102.8839550  51.4608550  19.0926150  93.6961630  55.2384670
  18.3842300  94.1647970  55.6798280  19.3770630  93.0383640  55.8729860
  20.7182080  95.1158330  63.2377200  21.2167330  95.5904150  63.9029050
  20.8605030  94.1921850  63.4447230  20.2118370 105.6567590  55.9508440
  20.4659870 105.6188980  55.0287810  19.2630850 105.5300920  55.9436690
  17.2961170  92.0046710  52.6135380  18.1451700  92.4416860  52.5475570
  16.9292440  92.3166970  53.4407440  27.9248940  91.3326290  64.0805590
  27.4222540  92.0731690  64.4199400  28.7405600  91.7210290  63.7642380
  16.1952590  98.2579070  51.0870910  16.9615860  98.1460430  51.6496340
  16.2727280  97.5617040  50.4347680  14.8899350  95.6904140  51.7703800
  14.9702940  94.7431650  51.8821200  15.7819100  96.0211020  51.8764460
  15.6914060 105.8399530  58.8738340  16.4276540 105.2914990  59.1446910
  16.0754980 106.7055540  58.7344330  12.5759540 101.9073100  54.7479850
  11.6499320 102.1494240  54.7385260  13.0415970 102.7347360  54.6264600
  14.6972340 105.0245600  68.0623920  15.4985070 105.3457650  68.4759320
  14.1824160 104.6641180  68.7843830  18.8016370 105.0129840  50.6963910
  19.5944980 105.3018670  50.2445700  18.2820720 104.5822010  50.0176390
  27.8546540 104.2399970  52.1200650  27.5688050 103.8265110  51.3054830
  27.6566090 105.1687680  52.0001170  12.4170150  97.5119060  67.0059970
  12.9209170  96.9326340  67.5776200  11.6777570  97.7959290  67.5436340
  19.3193770 100.2333250  50.5606260  19.2144410  99.6185600  51.2867640
  19.1517990  99.7099140  49.7769270  19.4708090  98.9190050  66.5395490
  18.7053760  99.4875050  66.4550160  19.6524050  98.6266260  65.6463720
  22.5596500  99.2953280  51.1648250  22.0106600  99.7422580  51.8090990
  23.1815760  98.7902530  51.6885920  14.4493230  95.6548650  67.9010040
  14.4898570  95.3562520  68.8095270  15.3038730  96.0556260  67.7417560
  18.2271620  98.2544200  53.0613550  18.6488040  98.0884070  53.9044940
  18.3522460  97.4444430  52.5668690  16.3899040  94.2340750  65.8684530
  15.8595500  93.7431700  65.2407870  17.0587110  94.6624950  65.3342460
  20.7399260  97.2781810  50.3090650  21.2604920  96.5630830  49.9431800
  21.3867660  97.9167680  50.6091160  16.8771340  91.2003120  65.9481820
  16.7828210  90.5823870  65.2232690  16.2968730  91.9269410  65.7211730
  19.6432780  89.7576360  62.9809210  19.1950080  89.7800620  62.1354760
  19.0097980  89.3595380  63.5779510  20.0492330  98.6530690  63.6021650
  20.4680440  99.4963420  63.4297890  19.1300960  98.7902730  63.3728430
  22.3856230  96.3846870  64.9859490  22.5052440  95.7888010  65.7254330
  23.2450230  96.4216560  64.5660790  24.7244130  96.9384060  63.5622000
  24.1979350  97.4626680  62.9587140  25.0675470  97.5711450  64.1931730
  17.1230520  94.3277430  50.0071710  16.9219580  93.4644790  50.3685050
  16.9522570  94.2410790  49.0693310  19.1525000  92.9268220  66.2435310
  19.7424690  92.6184070  66.9313130  18.3345240  92.4547970  66.3995210
  23.9718430  92.5434030  66.4768330  23.2833950  91.8815570  66.4118320
  24.6924450  92.0972300  66.9216790  24.6018830  89.1385660  52.5358590
  24.8821120  88.2953560  52.8918010  23.8284560  89.3708770  53.0497340
  15.9213320  91.4278050  49.9949590  16.2239220  91.4345480  49.0868740
  16.6607910  91.0775910  50.4917250  19.1398250  90.3712670  50.9805790
  18.7920250  89.6936660  50.4008240  19.3411020  89.9102180  51.7949180
  21.3047290 105.3593420  52.5992390  22.1998080 105.6978390  52.6211150
  21.3364920 104.6372830  51.9716670  14.9443450 100.7320470  50.8279390
  15.3818320 101.2750140  51.4836970  15.4291180  99.9067420  50.8375730
  12.1589250 103.5209500  58.2799650  12.4892260 102.6530560  58.0478290
  12.5880250 103.7268020  59.1104610  16.7551170 101.8518510  55.9401620
  16.4546710 101.7283480  56.8405530  16.6488660 100.9927100  55.5317350
  12.6479460 104.3880090  61.0181280  12.2110450 104.5680890  61.8505430
  13.2157140 105.1454710  60.8763000  12.4803890  96.9000320  57.3770160
  11.8252730  96.6311960  56.7329860  13.3181840  96.7904800  56.9272140
  26.9693280 100.6149070  63.4034750  26.1553120 101.0446230  63.6660540
  27.3767480 101.2267480  62.7903800  25.4294330  91.6941610  51.5988650
  25.8479210  91.5072590  50.7585310  25.1230390  90.8420660  51.9091580
  13.5179820  97.2852890  61.9173500  13.8852860  97.1980290  62.7969520
  12.9490640  96.5219440  61.8180360  13.0695820  94.1961980  65.8231920
  12.1751870  94.1628740  66.1625630  13.6093370  94.3948770  66.5883170
  11.6941970  94.1099250  53.3195490  10.7906050  94.3729450  53.1447150
  12.1782590  94.3810420  52.5395450  14.2369180  93.1664790  51.2289870
  14.9460880  92.7448010  50.7437150  13.5209120  93.2340020  50.5973220
  13.8843340  89.2204120  50.2692520  14.6071470  89.7613060  50.5873740
  14.1567860  88.9467540  49.3934060  27.6934990  94.0896590  54.5364100
  28.1894110  93.8567460  55.3212980  27.4951060  93.2508430  54.1201740
  13.3267530  88.6265980  62.9140460  12.9782350  89.0829800  63.6798640
  12.9955230  87.7323110  62.9962890  14.9331900 101.7985580  67.0793650
  14.8901530 101.4278490  67.9608110  15.0642910 102.7363150  67.2195470
  20.8392350  89.8177860  66.4359880  20.7781240  90.4099690  67.1855290
  21.7792730  89.7103820  66.2910140  23.4766910  89.4747920  66.0752170
  24.0907320  89.7927210  65.4133250  24.0216470  88.9896510  66.6948030
  29.8942090 105.3739550  63.4814010  29.4000370 105.7708420  62.7641140
  29.2855380 104.7488760  63.8751290  13.9988170  88.1542180  66.1891230
  14.5471160  87.9730230  65.4257340  14.0643480  87.3636290  66.7247540
  14.7719930 104.7447830  64.1991430  14.1780250 104.6132530  64.9381470
  14.7643770 103.9085970  63.7333530  24.2174950  88.0380060  62.4021460
  23.3434790  88.3715170  62.1994390  24.1085700  87.5653240  63.2273330
  25.1246930  90.2450930  63.7863180  24.7960290  89.4302690  63.4064910
  26.0729230  90.2020740  63.6628870  14.4032160 102.1106210  63.1499470
  13.6766220 101.4911500  63.0825420  14.4641310 102.5046820  62.2797550
  18.0077260 104.3251210  59.9348880  18.5242280 103.7138570  59.4097140
  18.6574640 104.8279990  60.4259890  12.6862160 105.4280600  56.3596230
  12.5184200 104.7951280  57.0578120  11.8196670 105.6340000  56.0090420
  13.3090180  89.2597380  53.8628090  14.0669540  89.3726260  53.2892120
  12.8467350  90.0966580  53.8171520  14.2924860 104.1213830  53.8046370
  13.7672480 104.5021860  53.1008330  14.2169440 104.7464600  54.5256080
  15.6815330  89.7861430  52.4030060  16.2108090  88.9991230  52.2738010
  16.3143650  90.4652620  52.6365590  17.8753170  89.5236570  55.4575450
  17.2455910  88.8223880  55.6245580  17.3358310  90.2840700  55.2408610
  18.0008730  88.8020550  67.8927940  17.7193000  89.3054150  67.1288760
  18.3828430  88.0042300  67.5270070  16.8917830 106.0696210  52.6795620
  17.6236650 105.7855490  52.1319510  17.1511500 105.8309490  53.5695000
  16.0532620 102.1860940  52.6841950  15.4241500 102.6546040  53.2327780
  16.1680450 101.3410160  53.1188140  23.5082340  96.2366600  38.8343150
  23.4276390  95.3221210  38.5634860  23.0946760  96.7333670  38.1282860
  21.6400380  98.0145620  40.7152420  20.8642480  97.5346060  41.0050990
  22.2913310  97.3351270  40.5408580  15.6566210  98.3265430  41.5928180
  14.8251090  98.0714140  41.9924690  16.2647190  98.3976200  42.3286100
  25.6607810 102.4205810  39.4951550  25.1989340 101.6493050  39.8238720
  26.4733360 102.4471880  40.0004000  15.6367470 102.3605520  41.7886200
  15.9395510 101.4703260  41.6096420  16.3811060 102.9175740  41.5608450
  14.0658160  93.2867320  35.3770570  13.1774860  93.6283290  35.2750450
  14.3499350  93.0867640  34.4851400  12.0291170  95.8872970  41.2610270
  12.6007280  95.1195170  41.2613910  12.0292710  96.1861730  40.3516880
  21.8871120 104.7063820  39.1155540  21.2682560 105.1621320  38.5449980
  22.7422900 104.8615280  38.7145240  21.0809370 100.6902810  40.7222580
  21.0117650  99.7492750  40.5611710  21.8429230 100.7804220  41.2945150
  13.2716040  91.2957330  43.0479200  13.0918880  90.3983080  43.3281960
  12.8696120  91.8429200  43.7226150  22.1114540  93.4973190  40.9491510
  22.4879360  92.6245070  40.8365180  22.0134050  93.8331890  40.0581950
  16.2419550  91.8698820  36.4108950  16.3486300  92.7702550  36.7177710
  15.3311910  91.8216790  36.1203600  25.8938660  90.9923630  37.8819850
  26.7148280  90.5020200  37.9245330  25.9272740  91.5821290  38.6351690
  13.8902710  93.7917830  41.6561540  14.5712820  94.0556200  42.2748940
  13.5750760  92.9518700  41.9899550  18.0827280  94.8385190  40.7434130
  18.5905500  95.3366160  41.3839150  18.6140520  94.0620390  40.5673490
  16.3663380  89.4783750  45.0097550  16.3681820  89.9956140  44.2043450
  15.5367690  89.0013930  44.9867480  22.7534470  99.5903060  36.5087450
  22.1351740 100.0552510  35.9450170  23.2657720 100.2830540  36.9256960
  17.6166230  99.1178930  43.1871050  17.2835610  99.7447850  43.8292120
  17.7932910  99.6440810  42.4072720  26.1300140  92.9324010  40.6547390
  25.4255710  93.2208900  41.2350500  26.4912300  93.7424120  40.2946950
  16.0478710  91.1893710  43.0168000  16.3895520  92.0335760  42.7221870
  15.1094520  91.3377450  43.1333340  16.8285330 101.0859730  45.0020230
  17.4459330 101.7610810  44.7204680  15.9678450 101.4947710  44.9107730
  12.1217670 100.2759590  33.8827080  11.7445650 100.7646690  33.1511980
  12.3790740 100.9484870  34.5133610  29.1987060  92.3778800  41.0456600
  28.2511970  92.4117780  41.1772030  29.5237050  93.1917750  41.4305960
  19.7306600  88.6775980  39.3412590  20.0381580  88.1222870  38.6248090
  18.8007300  88.8120440  39.1585580  25.2821660 104.3943270  41.6320050
  25.2948820 103.9905560  40.7642310  24.7296880 105.1690560  41.5281480
  26.5767080 101.1159490  36.7210220  26.4663410 100.1733820  36.8459640
  26.5735330 101.4775130  37.6072980  22.1187360  96.7424810  36.0772710
  21.1916640  96.6762190  36.3061180  22.2712180  97.6804940  35.9627950
  22.1056440  93.0141810  33.0739870  21.1660110  93.1755770  33.1592330
  22.4239700  93.7327490  32.5275860  26.1484650  98.3045110  36.5807960
  25.5297070  97.9664660  35.9334260  26.1309100  97.6604870  37.2887150
  25.5911210  94.4829650  43.9973770  25.1782390  95.3083360  44.2513760
  24.8587160  93.8974690  43.8050130  17.7244000  97.2689550  38.8592440
  17.3201000  96.5566800  38.3638340  17.8107120  96.9242790  39.7480480
  18.1925700 100.9557110  41.0231650  17.8953990 100.3502580  40.3439430
  19.1425520 100.9934420  40.9121010  16.4372620  94.0432760  42.6391480
  16.9887210  94.1528100  41.8644730  16.9516130  94.4170360  43.3546710
  26.2811310 104.5288980  44.6854750  25.8041870 105.3361170  44.4927360
  25.5973100 103.8767310  44.8380960  17.2844130 100.6938800  47.6739450
  16.3872660 100.9178770  47.9212850  17.3097000 100.8173740  46.7250850
  24.3249350  97.5431920  33.5880710  24.7642630  96.7054350  33.4418530
  25.0377770  98.1761320  33.6744850  16.1115350  97.5652120  46.2496820
  15.9723120  98.4374920  46.6184220  15.2296710  97.2224930  46.1044760
  22.4344730 102.4827990  37.5561950  22.8740640 103.2252320  37.1417340
  22.3731620 102.7254560  38.4800910  17.9095700 103.5073820  48.4581970
  17.8811130 103.9116770  47.5910400  17.7460670 102.5784180  48.2953570
  27.9066490  88.7974730  31.9021750  27.5939150  88.8901560  32.8020820
  28.6678960  89.3755760  31.8519180  14.4248630  96.1634530  36.3599090
  14.3046230  96.8896620  35.7480360  14.1149520  95.3937440  35.8827000
  12.0634000  99.3349670  42.1667730  12.1414420  99.4698440  41.2223450
  12.6775680  98.6265560  42.3595850  13.3081630 101.0349860  38.5773910
  12.9009710 101.1764450  37.7227510  14.1994640 100.7510020  38.3745120
  23.1260510 105.1841770  45.4840960  23.6405180 105.0949780  46.2863390
  22.2829590 105.5301470  45.7768870  25.1014910 105.4697110  34.9124960
  24.9416050 105.1800050  35.8106790  24.9361620 104.6937240  34.3770190
  17.5803290 105.2495640  36.6896580  17.4045770 104.3331180  36.4764380
  16.7259030 105.6082930  36.9294380  24.8041040 102.9784670  33.4722960
  24.1106200 102.9761960  32.8125240  25.5463900 102.5543990  33.0417130
  24.3690970 104.6047380  37.5471450  24.8247920 103.8236760  37.8610070
  24.7083490 105.3154200  38.0912630  29.1167780  93.5346230  47.8795890
  28.5012050  94.0425900  47.3511350  28.7964200  92.6344560  47.8221830
  12.1193520 100.3763840  44.7062190  12.2824560  99.9069200  43.8881560
  12.5845970  99.8687400  45.3711030  16.8912290  89.5069600  39.7422760
  16.4480440  90.2879140  39.4107280  17.4497280  89.8299490  40.4493700
  21.1782100  92.3738120  45.3458080  20.7161470  92.5821140  46.1578020
  20.7760210  91.5597470  45.0428750  26.1786610  93.5947070  46.4754740
  25.3280200  93.2952820  46.7963810  26.0188400  93.8389080  45.5638560
  23.2736320  95.0948820  48.5753530  23.5989730  94.2612570  48.2355760
  24.0616650  95.6177340  48.7231860  20.0071110  89.1280300  34.6228590
  19.3825290  89.1240170  35.3481900  19.9201230  88.2611260  34.2264560
  18.9288190  90.0516930  41.6012360  19.2260520  90.9579760  41.5204380
  19.4773750  89.5635710  40.9871930  16.6826510  94.6303170  37.4704010
  16.4567430  94.4140340  38.3750630  15.9019040  95.0631630  37.1249980
  23.9124270  94.6366540  36.0694660  23.3133160  95.3602340  35.8858280
  24.4603880  94.5743320  35.2871110  19.1225720  95.5288750  48.1364280
  19.0269320  94.5883480  47.9864680  19.9657700  95.7503820  47.7412350
  22.5189140  93.2730080  38.0997940  22.9118710  93.5902280  37.2866630
  22.8805990  92.3941960  38.2142460  14.2536260  91.9402420  46.2898060
  13.8599650  92.7877630  46.4970840  13.5654660  91.3028790  46.4806700
  20.8281310  92.0237390  49.3594800  20.1379630  91.8309590  49.9940890
  21.5713610  92.3072030  49.8919100  11.5553310  89.8630880  40.3228140
  11.2666360  90.4333740  41.0353120  12.2999070  89.3835330  40.6859370
  11.7423540  93.8051000  31.5330860  11.6598210  94.7481760  31.6745850
  11.3906600  93.6625910  30.6543210  23.1044280  95.8635830  42.1948720
  22.3725400  96.3722640  42.5438820  22.7068620  95.0465810  41.8937500
  19.5421670  92.5390030  40.6001210  19.5457730  92.0979980  39.7505750
  20.4372790  92.8607360  40.7073030  15.3924050  92.4216520  39.5595420
  15.0524100  92.8991750  40.3162470  14.6301370  91.9681640  39.1996520
  19.6041820  93.5402110  33.5907970  19.7254640  93.4988590  34.5393790
  19.2190330  94.4026260  33.4354700  23.5670190  91.3169510  41.6071660
  23.5842930  91.7678160  42.4513510  23.3185770  90.4175150  41.8205100
  18.6163320  95.8503250  32.9891270  18.0480220  95.4021500  32.3627180
  19.3252320  96.2096030  32.4556420  26.9940940  88.7301690  47.4458040
  27.3186710  87.9991350  47.9716020  27.0297450  88.4115330  46.5439030
  13.6932500  99.7515270  46.8658000  13.3087290  99.1108940  47.4640960
  14.0044690 100.4551390  47.4352730  19.8429640  96.5991810  42.3466620
  20.2099770  96.1250380  43.0927960  19.6534700  97.4733380  42.6874960
  12.7070130  91.3435500  38.4760090  12.4217050  90.9791170  39.3138710
  12.6448990  90.6115960  37.8623230  17.6329010  95.6400450  44.6650830
  17.3286080  96.5192430  44.8901190  18.5875470  95.7000240  44.7008270
  16.1610800  99.8461440  35.2617680  15.3873060  99.3059060  35.1016400
  16.8905430  99.3268050  34.9235440  22.3808720  90.2364760  35.1973460
  21.5673330  89.7377930  35.1218770  22.1870670  91.0763010  34.7809810
  22.3017580  98.9135860  46.9413070  22.2354890  97.9931530  46.6870660
  21.6722720  99.0111300  47.6557710  25.0957110  94.6084410  33.4935620
  25.9836730  94.9201640  33.3186960  25.0662200  93.7356660  33.1016200
  16.2048200  99.5141820  38.8996490  16.7226870  98.7110080  38.8453380
  15.7532220  99.4520960  39.7413320  21.0917700 100.7808100  34.1723790
  21.4333400 101.5250330  33.6767110  20.2630410 101.0939220  34.5348620
  13.6892740  96.4803190  45.8122190  13.3307680  97.1457040  46.3995530
  13.3947300  95.6486740  46.1834810  16.8905860  96.9387430  48.6961740
  16.5906000  97.0844610  47.7989560  17.6617100  96.3792720  48.6035130
  22.2334310 101.7356430  46.6916870  22.2478850 100.8037390  46.4735780
  21.5259410 101.8216190  47.3306640  27.3671380  95.9196250  32.9615480
  27.2835100  96.3510470  32.1111920  28.0865570  96.3794600  33.3942300
  28.3958630 102.7738510  35.6897610  27.7534790 102.1194130  35.9641330
  28.0089290 103.1793600  34.9138280  23.9745110 100.1023940  39.5369300
  24.3268930  99.5052070  38.8770670  23.0907440  99.7768170  39.7077550
  20.0608390 100.8621630  36.9439710  20.7479520 101.4090840  37.3247300
  19.2740810 101.4062360  36.9789320  12.2000790  96.4794450  32.4356790
  13.0695640  96.7619250  32.7192710  11.7091110  97.2930320  32.3205600
  19.3635600  97.8667660  36.5565070  19.8198380  98.6772910  36.7825260
  19.0123810  97.5490800  37.3883560  21.6668210 103.3774000  43.7857370
  22.3110430 103.5833380  44.4630790  22.0297650 102.6162400  43.3328220
  15.2647380  88.2105310  37.0287590  15.1362010  88.2023210  37.9772510
  14.4409400  88.5488400  36.6778600  22.9400290 101.3806350  42.5034820
  23.5822520 100.6799510  42.6166990  23.4649640 102.1604790  42.3231710
  26.7856010 101.6654970  32.2273960  26.5593590 100.9485410  32.8198600
  26.3952210 101.4167410  31.3895710  12.5672040 105.6921830  33.0018420
  12.9269680 106.2911170  32.3475690  12.4264380 106.2381720  33.7753450
  12.2641310  89.9696430  46.4894290  11.5499830  90.1693350  47.0946900
  12.6836350  89.1936000  46.8609090  26.3672260  99.5826910  33.8888120
  26.0793960 100.0439600  34.6766000  27.1624430  99.1224680  34.1572340
  12.5513900 103.9576690  47.4760820  12.6605020 103.0171430  47.3356210
  11.8994460 104.2231440  46.8274550  20.5426490 102.2292580  48.8758940
  20.2223360 101.5101820  49.4204630  19.8684850 102.9047650  48.9495000
  18.5840660 103.0753030  33.8192090  18.5750760 103.8082720  33.2036600
  17.6639020 102.8284610  33.9119050  14.1847300  98.2967920  34.5638850
  13.5775250  99.0366820  34.5734150  14.6596650  98.3867280  33.7377050
  23.7580090  92.4618740  44.2395740  24.1260910  91.6413950  44.5675310
  22.8978290  92.5220630  44.6551390  27.1242120  91.4175680  35.0483300
  26.4955280  91.5221350  34.3341530  26.6294040  91.6372460  35.8377180
  21.5700260 103.1381270  32.4817280  21.6712240 102.9345260  31.5519260
  20.6702000 102.8839550  32.6865060  19.0926150  93.6961630  36.4641180
  18.3842300  94.1647970  36.9054790  19.3770630  93.0383640  37.0986370
  20.7182080  95.1158330  44.4633710  21.2167330  95.5904150  45.1285560
  20.8605030  94.1921850  44.6703740  23.1241580  90.4212290  37.9036970
  23.0009360  90.4398420  36.9546480  24.0726140  90.4691230  38.0235370
  20.2118370 105.6567590  37.1764950  20.4659870 105.6188980  36.2544320
  19.2630850 105.5300920  37.1693200  17.2961170  92.0046710  33.8391890
  18.1451700  92.4416860  33.7732080  16.9292440  92.3166970  34.6663950
  27.9248940  91.3326290  45.3062100  27.4222540  92.0731690  45.6455910
  28.7405600  91.7210290  44.9898890  26.2170950  96.5759470  38.7523460
  25.2761090  96.5909700  38.9271150  26.5315020  95.7895430  39.1983760
  16.1952590  98.2579070  32.3127420  16.9615860  98.1460430  32.8752850
  16.2727280  97.5617040  31.6604190  14.8899350  95.6904140  32.9960310
  14.9702940  94.7431650  33.1077710  15.7819100  96.0211020  33.1020970
  15.6914060 105.8399530  40.0994850  16.4276540 105.2914990  40.3703420
  16.0754980 106.7055540  39.9600840  12.5759540 101.9073100  35.9736360
  11.6499320 102.1494240  35.9641770  13.0415970 102.7347360  35.8521110
  14.6972340 105.0245600  49.2880430  15.4985070 105.3457650  49.7015830
  14.1824160 104.6641180  50.0100340  18.8016370 105.0129840  31.9220420
  19.5944980 105.3018670  31.4702210  18.2820720 104.5822010  31.2432900
  23.5336970 101.1325470  49.2355840  22.9275130 101.1557070  48.4951590
  23.2291080 100.4008510  49.7723090  24.9637340 104.8605760  47.8465250
  25.9159090 104.7763780  47.7965490  24.8165560 105.5247470  48.5199040
  27.8546540 104.2399970  33.3457160  27.5688050 103.8265110  32.5311340
  27.6566090 105.1687680  33.2257680  12.4170150  97.5119060  48.2316480
  12.9209170  96.9326340  48.8032710  11.6777570  97.7959290  48.7692850
  19.3193770 100.2333250  31.7862770  19.2144410  99.6185600  32.5124150
  19.1517990  99.7099140  31.0025780  19.4708090  98.9190050  47.7652000
  18.7053760  99.4875050  47.6806670  19.6524050  98.6266260  46.8720230
  22.5596500  99.2953280  32.3904760  22.0106600  99.7422580  33.0347500
  23.1815760  98.7902530  32.9142430  14.4493230  95.6548650  49.1266550
  14.4898570  95.3562520  50.0351780  15.3038730  96.0556260  48.9674070
  18.2271620  98.2544200  34.2870060  18.6488040  98.0884070  35.1301450
  18.3522460  97.4444430  33.7925200  16.3899040  94.2340750  47.0941040
  15.8595500  93.7431700  46.4664380  17.0587110  94.6624950  46.5598970
  20.7399260  97.2781810  31.5347160  21.2604920  96.5630830  31.1688310
  21.3867660  97.9167680  31.8347670  25.7599270  96.0406370  48.8621380
  26.3420040  95.2858690  48.7741860  25.9361040  96.5713810  48.0852860
  16.8771340  91.2003120  47.1738330  16.7828210  90.5823870  46.4489200
  16.2968730  91.9269410  46.9468240  19.6432780  89.7576360  44.2065720
  19.1950080  89.7800620  43.3611270  19.0097980  89.3595380  44.8036020
  20.0492330  98.6530690  44.8278160  20.4680440  99.4963420  44.6554400
  19.1300960  98.7902730  44.5984940  22.3856230  96.3846870  46.2116000
  22.5052440  95.7888010  46.9510840  23.2450230  96.4216560  45.7917300
  24.7244130  96.9384060  44.7878510  24.1979350  97.4626680  44.1843650
  25.0675470  97.5711450  45.4188240  17.1230520  94.3277430  31.2328220
  16.9219580  93.4644790  31.5941560  16.9522570  94.2410790  30.2949820
  17.8999750 104.9583700  45.9435890  17.3620840 105.6829760  45.6244590
  18.1533710 104.4814040  45.1533230  19.1525000  92.9268220  47.4691820
  19.7424690  92.6184070  48.1569640  18.3345240  92.4547970  47.6251720
  23.9718430  92.5434030  47.7024840  23.2833950  91.8815570  47.6374830
  24.6924450  92.0972300  48.1473300  24.6018830  89.1385660  33.7615100
  24.8821120  88.2953560  34.1174520  23.8284560  89.3708770  34.2753850
  15.9213320  91.4278050  31.2206100  16.2239220  91.4345480  30.3125250
  16.6607910  91.0775910  31.7173760  20.7561960 106.1934910  46.2022540
  20.6820660 107.0970050  46.5094910  19.8540800 105.8746810  46.1744610
  19.1398250  90.3712670  32.2062300  18.7920250  89.6936660  31.6264750
  19.3411020  89.9102180  33.0205690  21.3047290 105.3593420  33.8248900
  22.1998080 105.6978390  33.8467660  21.3364920 104.6372830  33.1973180
  14.9443450 100.7320470  32.0535900  15.3818320 101.2750140  32.7093480
  15.4291180  99.9067420  32.0632240  12.1589250 103.5209500  39.5056160
  12.4892260 102.6530560  39.2734800  12.5880250 103.7268020  40.3361120
  16.7551170 101.8518510  37.1658130  16.4546710 101.7283480  38.0662040
  16.6488660 100.9927100  36.7573860  12.6479460 104.3880090  42.2437790
  12.2110450 104.5680890  43.0761940  13.2157140 105.1454710  42.1019510
  29.5243090 101.6314910  31.8684810  28.6936050 101.6991560  32.3392040
  29.7014920 102.5219030  31.5651670  28.9799550  98.3762390  34.3719010
  29.7418460  98.9459040  34.4778700  28.9953920  97.8089590  35.1427320
  12.4803890  96.9000320  38.6026670  11.8252730  96.6311960  37.9586370
  13.3181840  96.7904800  38.1528650  29.9859520  99.2312490  39.2160940
  30.3568350  98.4479810  38.8096910  30.6261450  99.9201590  39.0378240
  29.0318720  98.6696760  31.5291530  29.3067560  99.5775640  31.4010750
  28.8429460  98.6059290  32.4653520  25.4294330  91.6941610  32.8245160
  25.8479210  91.5072590  31.9841820  25.1230390  90.8420660  33.1348090
  28.9284060  96.6065750  36.5220960  28.5527660  95.8393680  36.0902250
  28.1987180  96.9888450  37.0095890  13.5179820  97.2852890  43.1430010
  13.8852860  97.1980290  44.0226030  12.9490640  96.5219440  43.0436870
  28.3183680  95.7537270  46.1560480  28.0869770  95.5250020  45.2558430
  28.5788230  96.6736820  46.1105370  13.0695820  94.1961980  47.0488430
  12.1751870  94.1628740  47.3882140  13.6093370  94.3948770  47.8139680
  26.7571750  90.9793700  48.9340180  27.6341930  90.9877100  49.3174180
  26.7692590  90.2424540  48.3232530  11.6941970  94.1099250  34.5452000
  10.7906050  94.3729450  34.3703660  12.1782590  94.3810420  33.7651960
  28.2035020  94.8323240  39.8228200  28.7272500  94.3385890  39.1918370
  28.7894440  94.9673600  40.5675770  28.3824740  94.9163110  43.3447750
  27.4327450  94.8826650  43.4592740  28.5637750  95.8263220  43.1097520
  14.2369180  93.1664790  32.4546380  14.9460880  92.7448010  31.9693660
  13.5209120  93.2340020  31.8229730  13.8843340  89.2204120  31.4949030
  14.6071470  89.7613060  31.8130250  14.1567860  88.9467540  30.6190570
  27.6934990  94.0896590  35.7620610  28.1894110  93.8567460  36.5469490
  27.4951060  93.2508430  35.3458250  13.5735530  88.4710310  41.3971650
  14.2211720  87.9207690  40.9566810  13.9937370  88.7253460  42.2187460
  29.1222150  92.7257540  38.2958290  29.0121430  92.5713580  39.2340560
  29.8829740  92.1978480  38.0533700  27.4687870  88.6651670  44.7541290
  28.1060090  89.2785810  45.1200480  27.6162760  88.7012330  43.8090520
  30.0112420  90.5565460  31.5364430  30.9361730  90.4246640  31.3282720
  29.9888210  90.6358280  32.4900880  30.0850910  91.3276120  34.1621140
  29.2902410  91.2621240  34.6914050  30.2894190  92.2626760  34.1506490
  27.0269330 105.3667670  38.1559530  27.6228400 105.0452240  37.4793950
  27.2847480 104.8939490  38.9472800  13.3267530  88.6265980  44.1396970
  12.9782350  89.0829800  44.9055150  12.9955230  87.7323110  44.2219400
  14.9331900 101.7985580  48.3050160  14.8901530 101.4278490  49.1864620
  15.0642910 102.7363150  48.4451980  18.6337930 103.3545170  43.9059880
  18.3929290 103.6219730  43.0190400  19.5740570 103.5250900  43.9610740
  20.8392350  89.8177860  47.6616390  20.7781240  90.4099690  48.4111800
  21.7792730  89.7103820  47.5166650  23.4766910  89.4747920  47.3008680
  24.0907320  89.7927210  46.6389760  24.0216470  88.9896510  47.9204540
  13.9988170  88.1542180  47.4147740  14.5471160  87.9730230  46.6513850
  14.0643480  87.3636290  47.9504050  14.7719930 104.7447830  45.4247940
  14.1780250 104.6132530  46.1637980  14.7643770 103.9085970  44.9590040
  24.2174950  88.0380060  43.6277970  23.3434790  88.3715170  43.4250900
  24.1085700  87.5653240  44.4529840  25.1246930  90.2450930  45.0119690
  24.7960290  89.4302690  44.6321420  26.0729230  90.2020740  44.8885380
  27.5781540 106.0162970  41.9857260  27.1184510 106.7678780  41.6115280
  26.9494000 105.2969440  41.9272060  14.4032160 102.1106210  44.3755980
  13.6766220 101.4911500  44.3081930  14.4641310 102.5046820  43.5054060
  18.0077260 104.3251210  41.1605390  18.5242280 103.7138570  40.6353650
  18.6574640 104.8279990  41.6516400  20.7472760 105.2159700  41.9874370
  21.0350570 104.9614000  41.1107380  21.2595980 104.6637060  42.5779940
  21.9649770  88.9549900  42.5670880  21.1821560  89.4295400  42.8467640
  21.6712700  88.0504730  42.4584060  26.5170840  89.6573000  40.6119970
  26.9578930  89.6018100  39.7641570  26.2478430  90.5731010  40.6830150
  28.3809410  89.2888240  38.6228790  28.3197810  88.3449460  38.4759810
  29.1601440  89.3968330  39.1682250  12.6862160 105.4280600  37.5852740
  12.5184200 104.7951280  38.2834630  11.8196670 105.6340000  37.2346930
  13.3090180  89.2597380  35.0884600  14.0669540  89.3726260  34.5148630
  12.8467350  90.0966580  35.0428030  19.8503990  91.3736650  38.0786910
  19.0378500  90.9993540  37.7382790  20.3545630  90.6181730  38.3808100
  24.3528970  88.0379100  39.3169980  24.9558340  88.6099310  39.7918500
  23.6121960  88.6018540  39.0943880  27.4963570  88.4400660  34.5910260
  27.6914200  89.3384110  34.8577690  26.7093440  88.2087740  35.0843210
  14.2924860 104.1213830  35.0302880  13.7672480 104.5021860  34.3264840
  14.2169440 104.7464600  35.7512590  15.6815330  89.7861430  33.6286570
  16.2108090  88.9991230  33.4994520  16.3143650  90.4652620  33.8622100
  17.8753170  89.5236570  36.6831960  17.2455910  88.8223880  36.8502090
  17.3358310  90.2840700  36.4665120  20.8145120 106.1375800  49.3542570
  21.7412430 105.9020070  49.3978530  20.7995550 106.9647800  48.8728600
  29.0490180 105.6801370  36.3516820  29.2242370 104.9939110  35.7077740
  28.3511750 106.2048420  35.9593490  18.0008730  88.8020550  49.1184450
  17.7193000  89.3054150  48.3545270  18.3828430  88.0042300  48.7526580
  16.8917830 106.0696210  33.9052130  17.6236650 105.7855490  33.3576020
  17.1511500 105.8309490  34.7951510  16.0532620 102.1860940  33.9098460
  15.4241500 102.6546040  34.4584290  16.1680450 101.3410160  34.3444650
  27.3822680 105.3645660  49.1783610  28.1748000 104.8694890  48.9709570
  27.6755830 106.0435800  49.7859220  23.5082340  96.2366600  20.0599660
  23.4276390  95.3221210  19.7891370  23.0946760  96.7333670  19.3539370
  21.6400380  98.0145620  21.9408930  20.8642480  97.5346060  22.2307500
  22.2913310  97.3351270  21.7665090  15.6566210  98.3265430  22.8184690
  14.8251090  98.0714140  23.2181200  16.2647190  98.3976200  23.5542610
  25.6607810 102.4205810  20.7208060  25.1989340 101.6493050  21.0495230
  26.4733360 102.4471880  21.2260510  15.6367470 102.3605520  23.0142710
  15.9395510 101.4703260  22.8352930  16.3811060 102.9175740  22.7864960
  14.0658160  93.2867320  16.6027080  13.1774860  93.6283290  16.5006960
  14.3499350  93.0867640  15.7107910  12.0291170  95.8872970  22.4866780
  12.6007280  95.1195170  22.4870420  12.0292710  96.1861730  21.5773390
  21.8871120 104.7063820  20.3412050  21.2682560 105.1621320  19.7706490
  22.7422900 104.8615280  19.9401750  21.0809370 100.6902810  21.9479090
  21.0117650  99.7492750  21.7868220  21.8429230 100.7804220  22.5201660
  13.2716040  91.2957330  24.2735710  13.0918880  90.3983080  24.5538470
  12.8696120  91.8429200  24.9482660  22.1114540  93.4973190  22.1748020
  22.4879360  92.6245070  22.0621690  22.0134050  93.8331890  21.2838460
  16.2419550  91.8698820  17.6365460  16.3486300  92.7702550  17.9434220
  15.3311910  91.8216790  17.3460110  25.8938660  90.9923630  19.1076360
  26.7148280  90.5020200  19.1501840  25.9272740  91.5821290  19.8608200
  13.8902710  93.7917830  22.8818050  14.5712820  94.0556200  23.5005450
  13.5750760  92.9518700  23.2156060  18.0827280  94.8385190  21.9690640
  18.5905500  95.3366160  22.6095660  18.6140520  94.0620390  21.7930000
  30.1838210  93.0090380  25.6719990  29.4790380  93.3972090  25.1535100
  30.4496130  93.7040670  26.2740920  16.3663380  89.4783750  26.2354060
  16.3681820  89.9956140  25.4299960  15.5367690  89.0013930  26.2123990
  22.7534470  99.5903060  17.7343960  22.1351740 100.0552510  17.1706680
  23.2657720 100.2830540  18.1513470  17.6166230  99.1178930  24.4127560
  17.2835610  99.7447850  25.0548630  17.7932910  99.6440810  23.6329230
  26.1300140  92.9324010  21.8803900  25.4255710  93.2208900  22.4607010
  26.4912300  93.7424120  21.5203460  16.0478710  91.1893710  24.2424510
  16.3895520  92.0335760  23.9478380  15.1094520  91.3377450  24.3589850
  16.8285330 101.0859730  26.2276740  17.4459330 101.7610810  25.9461190
  15.9678450 101.4947710  26.1364240  12.1217670 100.2759590  15.1083590
  11.7445650 100.7646690  14.3768490  12.3790740 100.9484870  15.7390120
  27.7462920 102.5499140  24.1431380  27.0626440 103.2198250  24.1348050
  28.2857210 102.7479790  23.3776240  29.1987060  92.3778800  22.2713110
  28.2511970  92.4117780  22.4028540  29.5237050  93.1917750  22.6562470
  19.7306600  88.6775980  20.5669100  20.0381580  88.1222870  19.8504600
  18.8007300  88.8120440  20.3842090  25.2821660 104.3943270  22.8576560
  25.2948820 103.9905560  21.9898820  24.7296880 105.1690560  22.7537990
  26.5767080 101.1159490  17.9466730  26.4663410 100.1733820  18.0716150
  26.5735330 101.4775130  18.8329490  24.6807100  99.2973110  24.1859170
  25.0975890  99.0833220  23.3512630  25.4046920  99.5545900  24.7567790
  22.1187360  96.7424810  17.3029220  21.1916640  96.6762190  17.5317690
  22.2712180  97.6804940  17.1884460  22.1056440  93.0141810  14.2996380
  21.1660110  93.1755770  14.3848840  22.4239700  93.7327490  13.7532370
  28.6269200  97.6960330  24.2775410  27.7987830  97.7653420  23.8025540
  29.2219680  98.2814640  23.8091240  26.1484650  98.3045110  17.8064470
  25.5297070  97.9664660  17.1590770  26.1309100  97.6604870  18.5143660
  25.5911210  94.4829650  25.2230280  25.1782390  95.3083360  25.4770270
  24.8587160  93.8974690  25.0306640  17.7244000  97.2689550  20.0848950
  17.3201000  96.5566800  19.5894850  17.8107120  96.9242790  20.9736990
  18.1925700 100.9557110  22.2488160  17.8953990 100.3502580  21.5695940
  19.1425520 100.9934420  22.1377520  16.4372620  94.0432760  23.8647990
  16.9887210  94.1528100  23.0901240  16.9516130  94.4170360  24.5803220
  26.2811310 104.5288980  25.9111260  25.8041870 105.3361170  25.7183870
  25.5973100 103.8767310  26.0637470  17.2844130 100.6938800  28.8995960
  16.3872660 100.9178770  29.1469360  17.3097000 100.8173740  27.9507360
  24.3249350  97.5431920  14.8137220  24.7642630  96.7054350  14.6675040
  25.0377770  98.1761320  14.9001360  16.1115350  97.5652120  27.4753330
  15.9723120  98.4374920  27.8440730  15.2296710  97.2224930  27.3301270
  22.4344730 102.4827990  18.7818460  22.8740640 103.2252320  18.3673850
  22.3731620 102.7254560  19.7057420  17.9095700 103.5073820  29.6838480
  17.8811130 103.9116770  28.8166910  17.7460670 102.5784180  29.5210080
  27.9066490  88.7974730  13.1278260  27.5939150  88.8901560  14.0277330
  28.6678960  89.3755760  13.0775690  14.4248630  96.1634530  17.5855600
  14.3046230  96.8896620  16.9736870  14.1149520  95.3937440  17.1083510
  29.8610520 104.2900920  30.9802650  30.3370240 104.7683810  31.6591730
  30.4817680 104.2218410  30.2548150  12.0634000  99.3349670  23.3924240
  12.1414420  99.4698440  22.4479960  12.6775680  98.6265560  23.5852360
  13.3081630 101.0349860  19.8030420  12.9009710 101.1764450  18.9484020
  14.1994640 100.7510020  19.6001630  29.2643770 101.4813770  28.1402660
  29.3906830 101.2425650  27.2219840  29.3065150 100.6498310  28.6124740
  23.1260510 105.1841770  26.7097470  23.6405180 105.0949780  27.5119900
  22.2829590 105.5301470  27.0025380  25.1014910 105.4697110  16.1381470
  24.9416050 105.1800050  17.0363300  24.9361620 104.6937240  15.6026700
  17.5803290 105.2495640  17.9153090  17.4045770 104.3331180  17.7020890
  16.7259030 105.6082930  18.1550890  24.8041040 102.9784670  14.6979470
  24.1106200 102.9761960  14.0381750  25.5463900 102.5543990  14.2673640
  24.3690970 104.6047380  18.7727960  24.8247920 103.8236760  19.0866580
  24.7083490 105.3154200  19.3169140  29.1167780  93.5346230  29.1052400
  28.5012050  94.0425900  28.5767860  28.7964200  92.6344560  29.0478340
  12.1193520 100.3763840  25.9318700  12.2824560  99.9069200  25.1138070
  12.5845970  99.8687400  26.5967540  16.8912290  89.5069600  20.9679270
  16.4480440  90.2879140  20.6363790  17.4497280  89.8299490  21.6750210
  21.1782100  92.3738120  26.5714590  20.7161470  92.5821140  27.3834530
  20.7760210  91.5597470  26.2685260  26.1786610  93.5947070  27.7011250
  25.3280200  93.2952820  28.0220320  26.0188400  93.8389080  26.7895070
  23.2736320  95.0948820  29.8010040  23.5989730  94.2612570  29.4612270
  24.0616650  95.6177340  29.9488370  20.0071110  89.1280300  15.8485100
  19.3825290  89.1240170  16.5738410  19.9201230  88.2611260  15.4521070
  18.9288190  90.0516930  22.8268870  19.2260520  90.9579760  22.7460890
  19.4773750  89.5635710  22.2128440  16.6826510  94.6303170  18.6960520
  16.4567430  94.4140340  19.6007140  15.9019040  95.0631630  18.3506490
  23.9124270  94.6366540  17.2951170  23.3133160  95.3602340  17.1114790
  24.4603880  94.5743320  16.5127620  19.1225720  95.5288750  29.3620790
  19.0269320  94.5883480  29.2121190  19.9657700  95.7503820  28.9668860
  22.5189140  93.2730080  19.3254450  22.9118710  93.5902280  18.5123140
  22.8805990  92.3941960  19.4398970  14.2536260  91.9402420  27.5154570
  13.8599650  92.7877630  27.7227350  13.5654660  91.3028790  27.7063210
  20.8281310  92.0237390  30.5851310  20.1379630  91.8309590  31.2197400
  21.5713610  92.3072030  31.1175610  11.5553310  89.8630880  21.5484650
  11.2666360  90.4333740  22.2609630  12.2999070  89.3835330  21.9115880
  11.7423540  93.8051000  12.7587370  11.6598210  94.7481760  12.9002360
  11.3906600  93.6625910  11.8799720  23.1044280  95.8635830  23.4205230
  22.3725400  96.3722640  23.7695330  22.7068620  95.0465810  23.1194010
  19.5421670  92.5390030  21.8257720  19.5457730  92.0979980  20.9762260
  20.4372790  92.8607360  21.9329540  15.3924050  92.4216520  20.7851930
  15.0524100  92.8991750  21.5418980  14.6301370  91.9681640  20.4253030
  19.6041820  93.5402110  14.8164480  19.7254640  93.4988590  15.7650300
  19.2190330  94.4026260  14.6611210  23.5670190  91.3169510  22.8328170
  23.5842930  91.7678160  23.6770020  23.3185770  90.4175150  23.0461610
  18.6163320  95.8503250  14.2147780  18.0480220  95.4021500  13.5883690
  19.3252320  96.2096030  13.6812930  26.9940940  88.7301690  28.6714550
  27.3186710  87.9991350  29.1972530  27.0297450  88.4115330  27.7695540
  13.6932500  99.7515270  28.0914510  13.3087290  99.1108940  28.6897470
  14.0044690 100.4551390  28.6609240  19.8429640  96.5991810  23.5723130
  20.2099770  96.1250380  24.3184470  19.6534700  97.4733380  23.9131470
  12.7070130  91.3435500  19.7016600  12.4217050  90.9791170  20.5395220
  12.6448990  90.6115960  19.0879740  17.6329010  95.6400450  25.8907340
  17.3286080  96.5192430  26.1157700  18.5875470  95.7000240  25.9264780
  16.1610800  99.8461440  16.4874190  15.3873060  99.3059060  16.3272910
  16.8905430  99.3268050  16.1491950  26.9198780  98.8426800  22.2800580
  27.6397900  99.3382090  21.8896690  26.7180600  98.1644690  21.6354450
  22.3808720  90.2364760  16.4229970  21.5673330  89.7377930  16.3475280
  22.1870670  91.0763010  16.0066320  22.3017580  98.9135860  28.1669580
  22.2354890  97.9931530  27.9127170  21.6722720  99.0111300  28.8814220
  25.0957110  94.6084410  14.7192130  25.9836730  94.9201640  14.5443470
  25.0662200  93.7356660  14.3272710  16.2048200  99.5141820  20.1253000
  16.7226870  98.7110080  20.0709890  15.7532220  99.4520960  20.9669830
  21.0917700 100.7808100  15.3980300  21.4333400 101.5250330  14.9023620
  20.2630410 101.0939220  15.7605130  13.6892740  96.4803190  27.0378700
  13.3307680  97.1457040  27.6252040  13.3947300  95.6486740  27.4091320
  16.8905860  96.9387430  29.9218250  16.5906000  97.0844610  29.0246070
  17.6617100  96.3792720  29.8291640  22.2334310 101.7356430  27.9173380
  22.2478850 100.8037390  27.6992290  21.5259410 101.8216190  28.5563150
  27.3671380  95.9196250  14.1871990  27.2835100  96.3510470  13.3368430
  28.0865570  96.3794600  14.6198810  28.4445520  98.3763770  27.2641960
  27.7193710  98.9692550  27.0671350  28.9720980  98.3687310  26.4655330
  28.3958630 102.7738510  16.9154120  27.7534790 102.1194130  17.1897840
  28.0089290 103.1793600  16.1394790  23.9745110 100.1023940  20.7625810
  24.3268930  99.5052070  20.1027180  23.0907440  99.7768170  20.9334060
  20.0608390 100.8621630  18.1696220  20.7479520 101.4090840  18.5503810
  19.2740810 101.4062360  18.2045830  12.2000790  96.4794450  13.6613300
  13.0695640  96.7619250  13.9449220  11.7091110  97.2930320  13.5462110
  19.3635600  97.8667660  17.7821580  19.8198380  98.6772910  18.0081770
  19.0123810  97.5490800  18.6140070  21.6668210 103.3774000  25.0113880
  22.3110430 103.5833380  25.6887300  22.0297650 102.6162400  24.5584730
  15.2647380  88.2105310  18.2544100  15.1362010  88.2023210  19.2029020
  14.4409400  88.5488400  17.9035110  22.9400290 101.3806350  23.7291330
  23.5822520 100.6799510  23.8423500  23.4649640 102.1604790  23.5488220
  26.7856010 101.6654970  13.4530470  26.5593590 100.9485410  14.0455110
  26.3952210 101.4167410  12.6152220  24.7137910 102.1801250  26.9327390
  25.0494150 102.7667940  27.6105310  23.7938250 102.0493960  27.1625180
  12.5672040 105.6921830  14.2274930  12.9269680 106.2911170  13.5732200
  12.4264380 106.2381720  15.0009960  12.2641310  89.9696430  27.7150800
  11.5499830  90.1693350  28.3203410  12.6836350  89.1936000  28.0865600
  26.3672260  99.5826910  15.1144630  26.0793960 100.0439600  15.9022510
  27.1624430  99.1224680  15.3828850  12.5513900 103.9576690  28.7017330
  12.6605020 103.0171430  28.5612720  11.8994460 104.2231440  28.0531060
  20.5426490 102.2292580  30.1015450  20.2223360 101.5101820  30.6461140
  19.8684850 102.9047650  30.1751510  18.5840660 103.0753030  15.0448600
  18.5750760 103.8082720  14.4293110  17.6639020 102.8284610  15.1375560
  14.1847300  98.2967920  15.7895360  13.5775250  99.0366820  15.7990660
  14.6596650  98.3867280  14.9633560  23.7580090  92.4618740  25.4652250
  24.1260910  91.6413950  25.7931820  22.8978290  92.5220630  25.8807900
  27.1242120  91.4175680  16.2739810  26.4955280  91.5221350  15.5598040
  26.6294040  91.6372460  17.0633690  21.5700260 103.1381270  13.7073790
  21.6712240 102.9345260  12.7775770  20.6702000 102.8839550  13.9121570
  19.0926150  93.6961630  17.6897690  18.3842300  94.1647970  18.1311300
  19.3770630  93.0383640  18.3242880  20.7182080  95.1158330  25.6890220
  21.2167330  95.5904150  26.3542070  20.8605030  94.1921850  25.8960250
  23.1241580  90.4212290  19.1293480  23.0009360  90.4398420  18.1802990
  24.0726140  90.4691230  19.2491880  20.2118370 105.6567590  18.4021460
  20.4659870 105.6188980  17.4800830  19.2630850 105.5300920  18.3949710
  17.2961170  92.0046710  15.0648400  18.1451700  92.4416860  14.9988590
  16.9292440  92.3166970  15.8920460  27.9248940  91.3326290  26.5318610
  27.4222540  92.0731690  26.8712420  28.7405600  91.7210290  26.2155400
  26.2170950  96.5759470  19.9779970  25.2761090  96.5909700  20.1527660
  26.5315020  95.7895430  20.4240270  16.1952590  98.2579070  13.5383930
  16.9615860  98.1460430  14.1009360  16.2727280  97.5617040  12.8860700
  14.8899350  95.6904140  14.2216820  14.9702940  94.7431650  14.3334220
  15.7819100  96.0211020  14.3277480  28.2196530 103.7468320  21.6534230
  28.3443950 104.5699490  22.1258040  29.0862090 103.5359050  21.3058380
  15.6914060 105.8399530  21.3251360  16.4276540 105.2914990  21.5959930
  16.0754980 106.7055540  21.1857350  12.5759540 101.9073100  17.1992870
  11.6499320 102.1494240  17.1898280  13.0415970 102.7347360  17.0777620
  14.6972340 105.0245600  30.5136940  15.4985070 105.3457650  30.9272340
  14.1824160 104.6641180  31.2356850  18.8016370 105.0129840  13.1476930
  19.5944980 105.3018670  12.6958720  18.2820720 104.5822010  12.4689410
  23.5336970 101.1325470  30.4612350  22.9275130 101.1557070  29.7208100
  23.2291080 100.4008510  30.9979600  24.9637340 104.8605760  29.0721760
  25.9159090 104.7763780  29.0222000  24.8165560 105.5247470  29.7455550
  27.8546540 104.2399970  14.5713670  27.5688050 103.8265110  13.7567850
  27.6566090 105.1687680  14.4514190  12.4170150  97.5119060  29.4572990
  12.9209170  96.9326340  30.0289220  11.6777570  97.7959290  29.9949360
  19.3193770 100.2333250  13.0119280  19.2144410  99.6185600  13.7380660
  19.1517990  99.7099140  12.2282290  19.4708090  98.9190050  28.9908510
  18.7053760  99.4875050  28.9063180  19.6524050  98.6266260  28.0976740
  22.5596500  99.2953280  13.6161270  22.0106600  99.7422580  14.2604010
  23.1815760  98.7902530  14.1398940  26.6131440 100.6495380  29.5483530
  27.3540910 100.9871140  29.0450990  25.8504120 100.8187440  28.9953300
  14.4493230  95.6548650  30.3523060  14.4898570  95.3562520  31.2608290
  15.3038730  96.0556260  30.1930580  18.2271620  98.2544200  15.5126570
  18.6488040  98.0884070  16.3557960  18.3522460  97.4444430  15.0181710
  16.3899040  94.2340750  28.3197550  15.8595500  93.7431700  27.6920890
  17.0587110  94.6624950  27.7855480  20.7399260  97.2781810  12.7603670
  21.2604920  96.5630830  12.3944820  21.3867660  97.9167680  13.0604180
  25.2877100  98.7010210  28.0838740  25.7018120  98.8555290  28.9329160
  24.3528100  98.8265430  28.2464520  25.7599270  96.0406370  30.0877890
  26.3420040  95.2858690  29.9998370  25.9361040  96.5713810  29.3109370
  16.8771340  91.2003120  28.3994840  16.7828210  90.5823870  27.6745710
  16.2968730  91.9269410  28.1724750  19.6432780  89.7576360  25.4322230
  19.1950080  89.7800620  24.5867780  19.0097980  89.3595380  26.0292530
  20.0492330  98.6530690  26.0534670  20.4680440  99.4963420  25.8810910
  19.1300960  98.7902730  25.8241450  22.3856230  96.3846870  27.4372510
  22.5052440  95.7888010  28.1767350  23.2450230  96.4216560  27.0173810
  24.7244130  96.9384060  26.0135020  24.1979350  97.4626680  25.4100160
  25.0675470  97.5711450  26.6444750  17.1230520  94.3277430  12.4584730
  16.9219580  93.4644790  12.8198070  16.9522570  94.2410790  11.5206330
  17.8999750 104.9583700  27.1692400  17.3620840 105.6829760  26.8501100
  18.1533710 104.4814040  26.3789740  19.1525000  92.9268220  28.6948330
  19.7424690  92.6184070  29.3826150  18.3345240  92.4547970  28.8508230
  23.9718430  92.5434030  28.9281350  23.2833950  91.8815570  28.8631340
  24.6924450  92.0972300  29.3729810  24.6018830  89.1385660  14.9871610
  24.8821120  88.2953560  15.3431030  23.8284560  89.3708770  15.5010360
  15.9213320  91.4278050  12.4462610  16.2239220  91.4345480  11.5381760
  16.6607910  91.0775910  12.9430270  20.7561960 106.1934910  27.4279050
  20.6820660 107.0970050  27.7351420  19.8540800 105.8746810  27.4001120
  19.1398250  90.3712670  13.4318810  18.7920250  89.6936660  12.8521260
  19.3411020  89.9102180  14.2462200  21.3047290 105.3593420  15.0505410
  22.1998080 105.6978390  15.0724170  21.3364920 104.6372830  14.4229690
  14.9443450 100.7320470  13.2792410  15.3818320 101.2750140  13.9349990
  15.4291180  99.9067420  13.2888750  12.1589250 103.5209500  20.7312670
  12.4892260 102.6530560  20.4991310  12.5880250 103.7268020  21.5617630
  16.7551170 101.8518510  18.3914640  16.4546710 101.7283480  19.2918550
  16.6488660 100.9927100  17.9830370  12.6479460 104.3880090  23.4694300
  12.2110450 104.5680890  24.3018450  13.2157140 105.1454710  23.3276020
  28.2841640 103.8897090  27.7571610  27.6843630 103.9489650  27.0135530
  28.4135540 102.9502070  27.8868460  29.5243090 101.6314910  13.0941320
  28.6936050 101.6991560  13.5648550  29.7014920 102.5219030  12.7908180
  28.9799550  98.3762390  15.5975520  29.7418460  98.9459040  15.7035210
  28.9953920  97.8089590  16.3683830  12.4803890  96.9000320  19.8283180
  11.8252730  96.6311960  19.1842880  13.3181840  96.7904800  19.3785160
  29.9859520  99.2312490  20.4417450  30.3568350  98.4479810  20.0353420
  30.6261450  99.9201590  20.2634750  26.9693280 100.6149070  25.8547770
  26.1553120 101.0446230  26.1173560  27.3767480 101.2267480  25.2416820
  29.0318720  98.6696760  12.7548040  29.3067560  99.5775640  12.6267260
  28.8429460  98.6059290  13.6910030  25.4294330  91.6941610  14.0501670
  25.8479210  91.5072590  13.2098330  25.1230390  90.8420660  14.3604600
  28.9284060  96.6065750  17.7477470  28.5527660  95.8393680  17.3158760
  28.1987180  96.9888450  18.2352400  13.5179820  97.2852890  24.3686520
  13.8852860  97.1980290  25.2482540  12.9490640  96.5219440  24.2693380
  28.3183680  95.7537270  27.3816990  28.0869770  95.5250020  26.4814940
  28.5788230  96.6736820  27.3361880  13.0695820  94.1961980  28.2744940
  12.1751870  94.1628740  28.6138650  13.6093370  94.3948770  29.0396190
  26.7571750  90.9793700  30.1596690  27.6341930  90.9877100  30.5430690
  26.7692590  90.2424540  29.5489040  11.6941970  94.1099250  15.7708510
  10.7906050  94.3729450  15.5960170  12.1782590  94.3810420  14.9908470
  28.2035020  94.8323240  21.0484710  28.7272500  94.3385890  20.4174880
  28.7894440  94.9673600  21.7932280  28.3824740  94.9163110  24.5704260
  27.4327450  94.8826650  24.6849250  28.5637750  95.8263220  24.3354030
  14.2369180  93.1664790  13.6802890  14.9460880  92.7448010  13.1950170
  13.5209120  93.2340020  13.0486240  13.8843340  89.2204120  12.7205540
  14.6071470  89.7613060  13.0386760  14.1567860  88.9467540  11.8447080
  27.6934990  94.0896590  16.9877120  28.1894110  93.8567460  17.7726000
  27.4951060  93.2508430  16.5714760  13.5735530  88.4710310  22.6228160
  14.2211720  87.9207690  22.1823320  13.9937370  88.7253460  23.4443970
  29.1222150  92.7257540  19.5214800  29.0121430  92.5713580  20.4597070
  29.8829740  92.1978480  19.2790210  27.4687870  88.6651670  25.9797800
  28.1060090  89.2785810  26.3456990  27.6162760  88.7012330  25.0347030
  30.0112420  90.5565460  12.7620940  30.9361730  90.4246640  12.5539230
  29.9888210  90.6358280  13.7157390  30.0850910  91.3276120  15.3877650
  29.2902410  91.2621240  15.9170560  30.2894190  92.2626760  15.3763000
  27.0269330 105.3667670  19.3816040  27.6228400 105.0452240  18.7050460
  27.2847480 104.8939490  20.1729310  13.3267530  88.6265980  25.3653480
  12.9782350  89.0829800  26.1311660  12.9955230  87.7323110  25.4475910
  14.9331900 101.7985580  29.5306670  14.8901530 101.4278490  30.4121130
  15.0642910 102.7363150  29.6708490  18.6337930 103.3545170  25.1316390
  18.3929290 103.6219730  24.2446910  19.5740570 103.5250900  25.1867250
  20.8392350  89.8177860  28.8872900  20.7781240  90.4099690  29.6368310
  21.7792730  89.7103820  28.7423160  23.4766910  89.4747920  28.5265190
  24.0907320  89.7927210  27.8646270  24.0216470  88.9896510  29.1461050
  29.8942090 105.3739550  25.9327030  29.4000370 105.7708420  25.2154160
  29.2855380 104.7488760  26.3264310  13.9988170  88.1542180  28.6404250
  14.5471160  87.9730230  27.8770360  14.0643480  87.3636290  29.1760560
  14.7719930 104.7447830  26.6504450  14.1780250 104.6132530  27.3894490
  14.7643770 103.9085970  26.1846550  24.2174950  88.0380060  24.8534480
  23.3434790  88.3715170  24.6507410  24.1085700  87.5653240  25.6786350
  25.1246930  90.2450930  26.2376200  24.7960290  89.4302690  25.8577930
  26.0729230  90.2020740  26.1141890  27.5781540 106.0162970  23.2113770
  27.1184510 106.7678780  22.8371790  26.9494000 105.2969440  23.1528570
  14.4032160 102.1106210  25.6012490  13.6766220 101.4911500  25.5338440
  14.4641310 102.5046820  24.7310570  18.0077260 104.3251210  22.3861900
  18.5242280 103.7138570  21.8610160  18.6574640 104.8279990  22.8772910
  20.7472760 105.2159700  23.2130880  21.0350570 104.9614000  22.3363890
  21.2595980 104.6637060  23.8036450  21.9649770  88.9549900  23.7927390
  21.1821560  89.4295400  24.0724150  21.6712700  88.0504730  23.6840570
  26.5170840  89.6573000  21.8376480  26.9578930  89.6018100  20.9898080
  26.2478430  90.5731010  21.9086660  28.3809410  89.2888240  19.8485300
  28.3197810  88.3449460  19.7016320  29.1601440  89.3968330  20.3938760
  12.6862160 105.4280600  18.8109250  12.5184200 104.7951280  19.5091140
  11.8196670 105.6340000  18.4603440  13.3090180  89.2597380  16.3141110
  14.0669540  89.3726260  15.7405140  12.8467350  90.0966580  16.2684540
  19.8503990  91.3736650  19.3043420  19.0378500  90.9993540  18.9639300
  20.3545630  90.6181730  19.6064610  24.3528970  88.0379100  20.5426490
  24.9558340  88.6099310  21.0175010  23.6121960  88.6018540  20.3200390
  27.4963570  88.4400660  15.8166770  27.6914200  89.3384110  16.0834200
  26.7093440  88.2087740  16.3099720  14.2924860 104.1213830  16.2559390
  13.7672480 104.5021860  15.5521350  14.2169440 104.7464600  16.9769100
  15.6815330  89.7861430  14.8543080  16.2108090  88.9991230  14.7251030
  16.3143650  90.4652620  15.0878610  17.8753170  89.5236570  17.9088470
  17.2455910  88.8223880  18.0758600  17.3358310  90.2840700  17.6921630
  20.8145120 106.1375800  30.5799080  21.7412430 105.9020070  30.6235040
  20.7995550 106.9647800  30.0985110  29.0490180 105.6801370  17.5773330
  29.2242370 104.9939110  16.9334250  28.3511750 106.2048420  17.1850000
  18.0008730  88.8020550  30.3440960  17.7193000  89.3054150  29.5801780
  18.3828430  88.0042300  29.9783090  16.8917830 106.0696210  15.1308640
  17.6236650 105.7855490  14.5832530  17.1511500 105.8309490  16.0208020
  16.0532620 102.1860940  15.1354970  15.4241500 102.6546040  15.6840800
  16.1680450 101.3410160  15.5701160  24.6024190  88.2174130  30.9221430
  24.4889640  88.5368740  31.8172950  25.4193930  88.6186640  30.6258710
  27.3822680 105.3645660  30.4040120  28.1748000 104.8694890  30.1966080
  27.6755830 106.0435800  31.0115730  21.6400380  98.0145620   3.1665440
  20.8642480  97.5346060   3.4564010  22.2913310  97.3351270   2.9921600
  15.6566210  98.3265430   4.0441200  14.8251090  98.0714140   4.4437710
  16.2647190  98.3976200   4.7799120  25.6607810 102.4205810   1.9464570
  25.1989340 101.6493050   2.2751740  26.4733360 102.4471880   2.4517020
  15.6367470 102.3605520   4.2399220  15.9395510 101.4703260   4.0609440
  16.3811060 102.9175740   4.0121470  12.0291170  95.8872970   3.7123290
  12.6007280  95.1195170   3.7126930  12.0292710  96.1861730   2.8029900
  21.0809370 100.6902810   3.1735600  21.0117650  99.7492750   3.0124730
  21.8429230 100.7804220   3.7458170  13.2716040  91.2957330   5.4992220
  13.0918880  90.3983080   5.7794980  12.8696120  91.8429200   6.1739170
  22.1114540  93.4973190   3.4004530  22.4879360  92.6245070   3.2878200
  22.0134050  93.8331890   2.5094970  13.8902710  93.7917830   4.1074560
  14.5712820  94.0556200   4.7261960  13.5750760  92.9518700   4.4412570
  18.0827280  94.8385190   3.1947150  18.5905500  95.3366160   3.8352170
  18.6140520  94.0620390   3.0186510  30.1838210  93.0090380   6.8976500
  29.4790380  93.3972090   6.3791610  30.4496130  93.7040670   7.4997430
  16.3663380  89.4783750   7.4610570  16.3681820  89.9956140   6.6556470
  15.5367690  89.0013930   7.4380500  17.6166230  99.1178930   5.6384070
  17.2835610  99.7447850   6.2805140  17.7932910  99.6440810   4.8585740
  26.1300140  92.9324010   3.1060410  25.4255710  93.2208900   3.6863520
  26.4912300  93.7424120   2.7459970  16.0478710  91.1893710   5.4681020
  16.3895520  92.0335760   5.1734890  15.1094520  91.3377450   5.5846360
  16.8285330 101.0859730   7.4533250  17.4459330 101.7610810   7.1717700
  15.9678450 101.4947710   7.3620750  27.7462920 102.5499140   5.3687890
  27.0626440 103.2198250   5.3604560  28.2857210 102.7479790   4.6032750
  29.1987060  92.3778800   3.4969620  28.2511970  92.4117780   3.6285050
  29.5237050  93.1917750   3.8818980  25.2821660 104.3943270   4.0833070
  25.2948820 103.9905560   3.2155330  24.7296880 105.1690560   3.9794500
  24.6807100  99.2973110   5.4115680  25.0975890  99.0833220   4.5769140
  25.4046920  99.5545900   5.9824300  28.6269200  97.6960330   5.5031920
  27.7987830  97.7653420   5.0282050  29.2219680  98.2814640   5.0347750
  25.5911210  94.4829650   6.4486790  25.1782390  95.3083360   6.7026780
  24.8587160  93.8974690   6.2563150  18.1925700 100.9557110   3.4744670
  17.8953990 100.3502580   2.7952450  19.1425520 100.9934420   3.3634030
  16.4372620  94.0432760   5.0904500  16.9887210  94.1528100   4.3157750
  16.9516130  94.4170360   5.8059730  26.2811310 104.5288980   7.1367770
  25.8041870 105.3361170   6.9440380  25.5973100 103.8767310   7.2893980
  17.2844130 100.6938800  10.1252470  16.3872660 100.9178770  10.3725870
  17.3097000 100.8173740   9.1763870  16.1115350  97.5652120   8.7009840
  15.9723120  98.4374920   9.0697240  15.2296710  97.2224930   8.5557780
  17.9095700 103.5073820  10.9094990  17.8811130 103.9116770  10.0423420
  17.7460670 102.5784180  10.7466590  29.8610520 104.2900920  12.2059160
  30.3370240 104.7683810  12.8848240  30.4817680 104.2218410  11.4804660
  12.0634000  99.3349670   4.6180750  12.1414420  99.4698440   3.6736470
  12.6775680  98.6265560   4.8108870  29.2643770 101.4813770   9.3659170
  29.3906830 101.2425650   8.4476350  29.3065150 100.6498310   9.8381250
  23.1260510 105.1841770   7.9353980  23.6405180 105.0949780   8.7376410
  22.2829590 105.5301470   8.2281890  29.1167780  93.5346230  10.3308910
  28.5012050  94.0425900   9.8024370  28.7964200  92.6344560  10.2734850
  12.1193520 100.3763840   7.1575210  12.2824560  99.9069200   6.3394580
  12.5845970  99.8687400   7.8224050  16.8912290  89.5069600   2.1935780
  16.4480440  90.2879140   1.8620300  17.4497280  89.8299490   2.9006720
  21.1782100  92.3738120   7.7971100  20.7161470  92.5821140   8.6091040
  20.7760210  91.5597470   7.4941770  26.1786610  93.5947070   8.9267760
  25.3280200  93.2952820   9.2476830  26.0188400  93.8389080   8.0151580
  23.2736320  95.0948820  11.0266550  23.5989730  94.2612570  10.6868780
  24.0616650  95.6177340  11.1744880  18.9288190  90.0516930   4.0525380
  19.2260520  90.9579760   3.9717400  19.4773750  89.5635710   3.4384950
  19.1225720  95.5288750  10.5877300  19.0269320  94.5883480  10.4377700
  19.9657700  95.7503820  10.1925370  14.2536260  91.9402420   8.7411080
  13.8599650  92.7877630   8.9483860  13.5654660  91.3028790   8.9319720
  20.8281310  92.0237390  11.8107820  20.1379630  91.8309590  12.4453910
  21.5713610  92.3072030  12.3432120  11.5553310  89.8630880   2.7741160
  11.2666360  90.4333740   3.4866140  12.2999070  89.3835330   3.1372390
  23.1044280  95.8635830   4.6461740  22.3725400  96.3722640   4.9951840
  22.7068620  95.0465810   4.3450520  19.5421670  92.5390030   3.0514230
  19.5457730  92.0979980   2.2018770  20.4372790  92.8607360   3.1586050
  15.3924050  92.4216520   2.0108440  15.0524100  92.8991750   2.7675490
  14.6301370  91.9681640   1.6509540  23.5670190  91.3169510   4.0584680
  23.5842930  91.7678160   4.9026530  23.3185770  90.4175150   4.2718120
  26.9940940  88.7301690   9.8971060  27.3186710  87.9991350  10.4229040
  27.0297450  88.4115330   8.9952050  13.6932500  99.7515270   9.3171020
  13.3087290  99.1108940   9.9153980  14.0044690 100.4551390   9.8865750
  19.8429640  96.5991810   4.7979640  20.2099770  96.1250380   5.5440980
  19.6534700  97.4733380   5.1387980  17.6329010  95.6400450   7.1163850
  17.3286080  96.5192430   7.3414210  18.5875470  95.7000240   7.1521290
  26.9198780  98.8426800   3.5057090  27.6397900  99.3382090   3.1153200
  26.7180600  98.1644690   2.8610960  22.3017580  98.9135860   9.3926090
  22.2354890  97.9931530   9.1383680  21.6722720  99.0111300  10.1070730
  13.6892740  96.4803190   8.2635210  13.3307680  97.1457040   8.8508550
  13.3947300  95.6486740   8.6347830  16.8905860  96.9387430  11.1474760
  16.5906000  97.0844610  10.2502580  17.6617100  96.3792720  11.0548150
  22.2334310 101.7356430   9.1429890  22.2478850 100.8037390   8.9248800
  21.5259410 101.8216190   9.7819660  28.4445520  98.3763770   8.4898470
  27.7193710  98.9692550   8.2927860  28.9720980  98.3687310   7.6911840
  21.6668210 103.3774000   6.2370390  22.3110430 103.5833380   6.9143810
  22.0297650 102.6162400   5.7841240  22.9400290 101.3806350   4.9547840
  23.5822520 100.6799510   5.0680010  23.4649640 102.1604790   4.7744730
  24.7137910 102.1801250   8.1583900  25.0494150 102.7667940   8.8361820
  23.7938250 102.0493960   8.3881690  12.2641310  89.9696430   8.9407310
  11.5499830  90.1693350   9.5459920  12.6836350  89.1936000   9.3122110
  12.5513900 103.9576690   9.9273840  12.6605020 103.0171430   9.7869230
  11.8994460 104.2231440   9.2787570  20.5426490 102.2292580  11.3271960
  20.2223360 101.5101820  11.8717650  19.8684850 102.9047650  11.4008020
  23.7580090  92.4618740   6.6908760  24.1260910  91.6413950   7.0188330
  22.8978290  92.5220630   7.1064410  20.7182080  95.1158330   6.9146730
  21.2167330  95.5904150   7.5798580  20.8605030  94.1921850   7.1216760
  27.9248940  91.3326290   7.7575120  27.4222540  92.0731690   8.0968930
  28.7405600  91.7210290   7.4411910  28.2196530 103.7468320   2.8790740
  28.3443950 104.5699490   3.3514550  29.0862090 103.5359050   2.5314890
  15.6914060 105.8399530   2.5507870  16.4276540 105.2914990   2.8216440
  16.0754980 106.7055540   2.4113860  14.6972340 105.0245600  11.7393450
  15.4985070 105.3457650  12.1528850  14.1824160 104.6641180  12.4613360
  23.5336970 101.1325470  11.6868860  22.9275130 101.1557070  10.9464610
  23.2291080 100.4008510  12.2236110  24.9637340 104.8605760  10.2978270
  25.9159090 104.7763780  10.2478510  24.8165560 105.5247470  10.9712060
  12.4170150  97.5119060  10.6829500  12.9209170  96.9326340  11.2545730
  11.6777570  97.7959290  11.2205870  19.4708090  98.9190050  10.2165020
  18.7053760  99.4875050  10.1319690  19.6524050  98.6266260   9.3233250
  26.6131440 100.6495380  10.7740040  27.3540910 100.9871140  10.2707500
  25.8504120 100.8187440  10.2209810  14.4493230  95.6548650  11.5779570
  14.4898570  95.3562520  12.4864800  15.3038730  96.0556260  11.4187090
  16.3899040  94.2340750   9.5454060  15.8595500  93.7431700   8.9177400
  17.0587110  94.6624950   9.0111990  25.2877100  98.7010210   9.3095250
  25.7018120  98.8555290  10.1585670  24.3528100  98.8265430   9.4721030
  25.7599270  96.0406370  11.3134400  26.3420040  95.2858690  11.2254880
  25.9361040  96.5713810  10.5365880  16.8771340  91.2003120   9.6251350
  16.7828210  90.5823870   8.9002220  16.2968730  91.9269410   9.3981260
  19.6432780  89.7576360   6.6578740  19.1950080  89.7800620   5.8124290
  19.0097980  89.3595380   7.2549040  20.0492330  98.6530690   7.2791180
  20.4680440  99.4963420   7.1067420  19.1300960  98.7902730   7.0497960
  22.3856230  96.3846870   8.6629020  22.5052440  95.7888010   9.4023860
  23.2450230  96.4216560   8.2430320  24.7244130  96.9384060   7.2391530
  24.1979350  97.4626680   6.6356670  25.0675470  97.5711450   7.8701260
  17.8999750 104.9583700   8.3948910  17.3620840 105.6829760   8.0757610
  18.1533710 104.4814040   7.6046250  19.1525000  92.9268220   9.9204840
  19.7424690  92.6184070  10.6082660  18.3345240  92.4547970  10.0764740
  23.9718430  92.5434030  10.1537860  23.2833950  91.8815570  10.0887850
  24.6924450  92.0972300  10.5986320  20.7561960 106.1934910   8.6535560
  20.6820660 107.0970050   8.9607930  19.8540800 105.8746810   8.6257630
  12.1589250 103.5209500   1.9569180  12.4892260 102.6530560   1.7247820
  12.5880250 103.7268020   2.7874140  12.6479460 104.3880090   4.6950810
  12.2110450 104.5680890   5.5274960  13.2157140 105.1454710   4.5532530
  28.2841640 103.8897090   8.9828120  27.6843630 103.9489650   8.2392040
  28.4135540 102.9502070   9.1124970  26.9693280 100.6149070   7.0804280
  26.1553120 101.0446230   7.3430070  27.3767480 101.2267480   6.4673330
  13.5179820  97.2852890   5.5943030  13.8852860  97.1980290   6.4739050
  12.9490640  96.5219440   5.4949890  28.3183680  95.7537270   8.6073500
  28.0869770  95.5250020   7.7071450  28.5788230  96.6736820   8.5618390
  13.0695820  94.1961980   9.5001450  12.1751870  94.1628740   9.8395160
  13.6093370  94.3948770  10.2652700  26.7571750  90.9793700  11.3853200
  27.6341930  90.9877100  11.7687200  26.7692590  90.2424540  10.7745550
  28.2035020  94.8323240   2.2741220  28.7272500  94.3385890   1.6431390
  28.7894440  94.9673600   3.0188790  28.3824740  94.9163110   5.7960770
  27.4327450  94.8826650   5.9105760  28.5637750  95.8263220   5.5610540
  13.5735530  88.4710310   3.8484670  14.2211720  87.9207690   3.4079830
  13.9937370  88.7253460   4.6700480  27.4687870  88.6651670   7.2054310
  28.1060090  89.2785810   7.5713500  27.6162760  88.7012330   6.2603540
  13.3267530  88.6265980   6.5909990  12.9782350  89.0829800   7.3568170
  12.9955230  87.7323110   6.6732420  14.9331900 101.7985580  10.7563180
  14.8901530 101.4278490  11.6377640  15.0642910 102.7363150  10.8965000
  18.6337930 103.3545170   6.3572900  18.3929290 103.6219730   5.4703420
  19.5740570 103.5250900   6.4123760  20.8392350  89.8177860  10.1129410
  20.7781240  90.4099690  10.8624820  21.7792730  89.7103820   9.9679670
  23.4766910  89.4747920   9.7521700  24.0907320  89.7927210   9.0902780
  24.0216470  88.9896510  10.3717560  29.8942090 105.3739550   7.1583540
  29.4000370 105.7708420   6.4410670  29.2855380 104.7488760   7.5520820
  13.9988170  88.1542180   9.8660760  14.5471160  87.9730230   9.1026870
  14.0643480  87.3636290  10.4017070  14.7719930 104.7447830   7.8760960
  14.1780250 104.6132530   8.6151000  14.7643770 103.9085970   7.4103060
  24.2174950  88.0380060   6.0790990  23.3434790  88.3715170   5.8763920
  24.1085700  87.5653240   6.9042860  25.1246930  90.2450930   7.4632710
  24.7960290  89.4302690   7.0834440  26.0729230  90.2020740   7.3398400
  27.5781540 106.0162970   4.4370280  27.1184510 106.7678780   4.0628300
  26.9494000 105.2969440   4.3785080  14.4032160 102.1106210   6.8269000
  13.6766220 101.4911500   6.7594950  14.4641310 102.5046820   5.9567080
  18.0077260 104.3251210   3.6118410  18.5242280 103.7138570   3.0866670
  18.6574640 104.8279990   4.1029420  20.7472760 105.2159700   4.4387390
  21.0350570 104.9614000   3.5620400  21.2595980 104.6637060   5.0292960
  21.9649770  88.9549900   5.0183900  21.1821560  89.4295400   5.2980660
  21.6712700  88.0504730   4.9097080  26.5170840  89.6573000   3.0632990
  26.9578930  89.6018100   2.2154590  26.2478430  90.5731010   3.1343170
  24.3528970  88.0379100   1.7683000  24.9558340  88.6099310   2.2431520
  23.6121960  88.6018540   1.5456900  20.8145120 106.1375800  11.8055590
  21.7412430 105.9020070  11.8491550  20.7995550 106.9647800  11.3241620
  18.0008730  88.8020550  11.5697470  17.7193000  89.3054150  10.8058290
  18.3828430  88.0042300  11.2039600  24.6024190  88.2174130  12.1477940
  24.4889640  88.5368740  13.0429460  25.4193930  88.6186640  11.8515220
  27.3822680 105.3645660  11.6296630  28.1748000 104.8694890  11.4222590
  27.6755830 106.0435800  12.2372240  23.5082340  77.4623110 151.4804090
  23.4276390  76.5477720 151.2095800  23.0946760  77.9590180 150.7743800
  21.6400380  79.2402130 153.3613360  20.8642480  78.7602570 153.6511930
  22.2913310  78.5607780 153.1869520  25.6607810  83.6462320 152.1412490
  25.1989340  82.8749560 152.4699660  26.4733360  83.6728390 152.6464940
  15.6367470  83.5862030 154.4347140  15.9395510  82.6959770 154.2557360
  16.3811060  84.1432250 154.2069390  14.0658160  74.5123830 148.0231510
  13.1774860  74.8539800 147.9211390  14.3499350  74.3124150 147.1312340
  12.0291170  77.1129480 153.9071210  12.6007280  76.3451680 153.9074850
  12.0292710  77.4118240 152.9977820  21.8871120  85.9320330 151.7616480
  21.2682560  86.3877830 151.1910920  22.7422900  86.0871790 151.3606180
  21.0809370  81.9159320 153.3683520  21.0117650  80.9749260 153.2072650
  21.8429230  82.0060730 153.9406090  22.1114540  74.7229700 153.5952450
  22.4879360  73.8501580 153.4826120  22.0134050  75.0588400 152.7042890
  16.2419550  73.0955330 149.0569890  16.3486300  73.9959060 149.3638650
  15.3311910  73.0473300 148.7664540  25.8938660  72.2180140 150.5280790
  26.7148280  71.7276710 150.5706270  25.9272740  72.8077800 151.2812630
  18.0827280  76.0641700 153.3895070  18.5905500  76.5622670 154.0300090
  18.6140520  75.2876900 153.2134430  22.7534470  80.8159570 149.1548390
  22.1351740  81.2809020 148.5911110  23.2657720  81.5087050 149.5717900
  26.1300140  74.1580520 153.3008330  25.4255710  74.4465410 153.8811440
  26.4912300  74.9680630 152.9407890  12.1217670  81.5016100 146.5288020
  11.7445650  81.9903200 145.7972920  12.3790740  82.1741380 147.1594550
  29.1987060  73.6035310 153.6917540  28.2511970  73.6374290 153.8232970
  29.5237050  74.4174260 154.0766900  19.7306600  69.9032490 151.9873530
  20.0381580  69.3479380 151.2709030  18.8007300  70.0376950 151.8046520
  25.2821660  85.6199780 154.2780990  25.2948820  85.2162070 153.4103250
  24.7296880  86.3947070 154.1742420  26.5767080  82.3416000 149.3671160
  26.4663410  81.3990330 149.4920580  26.5735330  82.7031640 150.2533920
  22.1187360  77.9681320 148.7233650  21.1916640  77.9018700 148.9522120
  22.2712180  78.9061450 148.6088890  22.1056440  74.2398320 145.7200810
  21.1660110  74.4012280 145.8053270  22.4239700  74.9584000 145.1736800
  26.1484650  79.5301620 149.2268900  25.5297070  79.1921170 148.5795200
  26.1309100  78.8861380 149.9348090  17.7244000  78.4946060 151.5053380
  17.3201000  77.7823310 151.0099280  17.8107120  78.1499300 152.3941420
  18.1925700  82.1813620 153.6692590  17.8953990  81.5759090 152.9900370
  19.1425520  82.2190930 153.5581950  24.3249350  78.7688430 146.2341650
  24.7642630  77.9310860 146.0879470  25.0377770  79.4017830 146.3205790
  22.4344730  83.7084500 150.2022890  22.8740640  84.4508830 149.7878280
  22.3731620  83.9511070 151.1261850  27.9066490  70.0231240 144.5482690
  27.5939150  70.1158070 145.4481760  28.6678960  70.6012270 144.4980120
  14.4248630  77.3891040 149.0060030  14.3046230  78.1153130 148.3941300
  14.1149520  76.6193950 148.5287940  13.3081630  82.2606370 151.2234850
  12.9009710  82.4020960 150.3688450  14.1994640  81.9766530 151.0206060
  25.1014910  86.6953620 147.5585900  24.9416050  86.4056560 148.4567730
  24.9361620  85.9193750 147.0231130  17.5803290  86.4752150 149.3357520
  17.4045770  85.5587690 149.1225320  16.7259030  86.8339440 149.5755320
  24.8041040  84.2041180 146.1183900  24.1106200  84.2018470 145.4586180
  25.5463900  83.7800500 145.6878070  24.3690970  85.8303890 150.1932390
  24.8247920  85.0493270 150.5071010  24.7083490  86.5410710 150.7373570
  16.8912290  70.7326110 152.3883700  16.4480440  71.5135650 152.0568220
  17.4497280  71.0556000 153.0954640  20.0071110  70.3536810 147.2689530
  19.3825290  70.3496680 147.9942840  19.9201230  69.4867770 146.8725500
  18.9288190  71.2773440 154.2473300  19.2260520  72.1836270 154.1665320
  19.4773750  70.7892220 153.6332870  16.6826510  75.8559680 150.1164950
  16.4567430  75.6396850 151.0211570  15.9019040  76.2888140 149.7710920
  23.9124270  75.8623050 148.7155600  23.3133160  76.5858850 148.5319220
  24.4603880  75.7999830 147.9332050  22.5189140  74.4986590 150.7458880
  22.9118710  74.8158790 149.9327570  22.8805990  73.6198470 150.8603400
  11.5553310  71.0887390 152.9689080  11.2666360  71.6590250 153.6814060
  12.2999070  70.6091840 153.3320310  11.7423540  75.0307510 144.1791800
  11.6598210  75.9738270 144.3206790  11.3906600  74.8882420 143.3004150
  19.5421670  73.7646540 153.2462150  19.5457730  73.3236490 152.3966690
  20.4372790  74.0863870 153.3533970  15.3924050  73.6473030 152.2056360
  15.0524100  74.1248260 152.9623410  14.6301370  73.1938150 151.8457460
  19.6041820  74.7658620 146.2368910  19.7254640  74.7245100 147.1854730
  19.2190330  75.6282770 146.0815640  18.6163320  77.0759760 145.6352210
  18.0480220  76.6278010 145.0088120  19.3252320  77.4352540 145.1017360
  12.7070130  72.5692010 151.1221030  12.4217050  72.2047680 151.9599650
  12.6448990  71.8372470 150.5084170  16.1610800  81.0717950 147.9078620
  15.3873060  80.5315570 147.7477340  16.8905430  80.5524560 147.5696380
  26.9198780  80.0683310 153.7005010  27.6397900  80.5638600 153.3101120
  26.7180600  79.3901200 153.0558880  22.3808720  71.4621270 147.8434400
  21.5673330  70.9634440 147.7679710  22.1870670  72.3019520 147.4270750
  25.0957110  75.8340920 146.1396560  25.9836730  76.1458150 145.9647900
  25.0662200  74.9613170 145.7477140  16.2048200  80.7398330 151.5457430
  16.7226870  79.9366590 151.4914320  15.7532220  80.6777470 152.3874260
  21.0917700  82.0064610 146.8184730  21.4333400  82.7506840 146.3228050
  20.2630410  82.3195730 147.1809560  27.3671380  77.1452760 145.6076420
  27.2835100  77.5766980 144.7572860  28.0865570  77.6051110 146.0403240
  28.3958630  83.9995020 148.3358550  27.7534790  83.3450640 148.6102270
  28.0089290  84.4050110 147.5599220  23.9745110  81.3280450 152.1830240
  24.3268930  80.7308580 151.5231610  23.0907440  81.0024680 152.3538490
  20.0608390  82.0878140 149.5900650  20.7479520  82.6347350 149.9708240
  19.2740810  82.6318870 149.6250260  12.2000790  77.7050960 145.0817730
  13.0695640  77.9875760 145.3653650  11.7091110  78.5186830 144.9666540
  19.3635600  79.0924170 149.2026010  19.8198380  79.9029420 149.4286200
  19.0123810  78.7747310 150.0344500  15.2647380  69.4361820 149.6748530
  15.1362010  69.4279720 150.6233450  14.4409400  69.7744910 149.3239540
  26.7856010  82.8911480 144.8734900  26.5593590  82.1741920 145.4659540
  26.3952210  82.6423920 144.0356650  12.5672040  86.9178340 145.6479360
  12.9269680  87.5167680 144.9936630  12.4264380  87.4638230 146.4214390
  26.3672260  80.8083420 146.5349060  26.0793960  81.2696110 147.3226940
  27.1624430  80.3481190 146.8033280  18.5840660  84.3009540 146.4653030
  18.5750760  85.0339230 145.8497540  17.6639020  84.0541120 146.5579990
  14.1847300  79.5224430 147.2099790  13.5775250  80.2623330 147.2195090
  14.6596650  79.6123790 146.3837990  27.1242120  72.6432190 147.6944240
  26.4955280  72.7477860 146.9802470  26.6294040  72.8628970 148.4838120
  21.5700260  84.3637780 145.1278220  21.6712240  84.1601770 144.1980200
  20.6702000  84.1096060 145.3326000  19.0926150  74.9218140 149.1102120
  18.3842300  75.3904480 149.5515730  19.3770630  74.2640150 149.7447310
  23.1241580  71.6468800 150.5497910  23.0009360  71.6654930 149.6007420
  24.0726140  71.6947740 150.6696310  20.2118370  86.8824100 149.8225890
  20.4659870  86.8445490 148.9005260  19.2630850  86.7557430 149.8154140
  17.2961170  73.2303220 146.4852830  18.1451700  73.6673370 146.4193020
  16.9292440  73.5423480 147.3124890  26.2170950  77.8015980 151.3984400
  25.2761090  77.8166210 151.5732090  26.5315020  77.0151940 151.8444700
  16.1952590  79.4835580 144.9588360  16.9615860  79.3716940 145.5213790
  16.2727280  78.7873550 144.3065130  14.8899350  76.9160650 145.6421250
  14.9702940  75.9688160 145.7538650  15.7819100  77.2467530 145.7481910
  28.2196530  84.9724830 153.0738660  28.3443950  85.7956000 153.5462470
  29.0862090  84.7615560 152.7262810  15.6914060  87.0656040 152.7455790
  16.4276540  86.5171500 153.0164360  16.0754980  87.9312050 152.6061780
  12.5759540  83.1329610 148.6197300  11.6499320  83.3750750 148.6102710
  13.0415970  83.9603870 148.4982050  18.8016370  86.2386350 144.5681360
  19.5944980  86.5275180 144.1163150  18.2820720  85.8078520 143.8893840
  27.8546540  85.4656480 145.9918100  27.5688050  85.0521620 145.1772280
  27.6566090  86.3944190 145.8718620  19.3193770  81.4589760 144.4323710
  19.2144410  80.8442110 145.1585090  19.1517990  80.9355650 143.6486720
  22.5596500  80.5209790 145.0365700  22.0106600  80.9679090 145.6808440
  23.1815760  80.0159040 145.5603370  18.2271620  79.4800710 146.9331000
  18.6488040  79.3140580 147.7762390  18.3522460  78.6700940 146.4386140
  20.7399260  78.5038320 144.1808100  21.2604920  77.7887340 143.8149250
  21.3867660  79.1424190 144.4808610  17.1230520  75.5533940 143.8789160
  16.9219580  74.6901300 144.2402500  16.9522570  75.4667300 142.9410760
  24.6018830  70.3642170 146.4076040  24.8821120  69.5210070 146.7635460
  23.8284560  70.5965280 146.9214790  15.9213320  72.6534560 143.8667040
  16.2239220  72.6601990 142.9586190  16.6607910  72.3032420 144.3634700
  19.1398250  71.5969180 144.8523240  18.7920250  70.9193170 144.2725690
  19.3411020  71.1358690 145.6666630  21.3047290  86.5849930 146.4709840
  22.1998080  86.9234900 146.4928600  21.3364920  85.8629340 145.8434120
  14.9443450  81.9576980 144.6996840  15.3818320  82.5006650 145.3554420
  15.4291180  81.1323930 144.7093180  12.1589250  84.7466010 152.1517100
  12.4892260  83.8787070 151.9195740  12.5880250  84.9524530 152.9822060
  16.7551170  83.0775020 149.8119070  16.4546710  82.9539990 150.7122980
  16.6488660  82.2183610 149.4034800  29.5243090  82.8571420 144.5145750
  28.6936050  82.9248070 144.9852980  29.7014920  83.7475540 144.2112610
  28.9799550  79.6018900 147.0179950  29.7418460  80.1715550 147.1239640
  28.9953920  79.0346100 147.7888260  12.4803890  78.1256830 151.2487610
  11.8252730  77.8568470 150.6047310  13.3181840  78.0161310 150.7989590
  29.9859520  80.4569000 151.8621880  30.3568350  79.6736320 151.4557850
  30.6261450  81.1458100 151.6839180  29.0318720  79.8953270 144.1752470
  29.3067560  80.8032150 144.0471690  28.8429460  79.8315800 145.1114460
  25.4294330  72.9198120 145.4706100  25.8479210  72.7329100 144.6302760
  25.1230390  72.0677170 145.7809030  28.9284060  77.8322260 149.1681900
  28.5527660  77.0650190 148.7363190  28.1987180  78.2144960 149.6556830
  11.6941970  75.3355760 147.1912940  10.7906050  75.5985960 147.0164600
  12.1782590  75.6066930 146.4112900  28.2035020  76.0579750 152.4689140
  28.7272500  75.5642400 151.8379310  28.7894440  76.1930110 153.2136710
  14.2369180  74.3921300 145.1007320  14.9460880  73.9704520 144.6154600
  13.5209120  74.4596530 144.4690670  13.8843340  70.4460630 144.1409970
  14.6071470  70.9869570 144.4591190  14.1567860  70.1724050 143.2651510
  27.6934990  75.3153100 148.4081550  28.1894110  75.0823970 149.1930430
  27.4951060  74.4764940 147.9919190  29.1222150  73.9514050 150.9419230
  29.0121430  73.7970090 151.8801500  29.8829740  73.4234990 150.6994640
  30.0112420  71.7821970 144.1825370  30.9361730  71.6503150 143.9743660
  29.9888210  71.8614790 145.1361820  30.0850910  72.5532630 146.8082080
  29.2902410  72.4877750 147.3374990  30.2894190  73.4883270 146.7967430
  27.0269330  86.5924180 150.8020470  27.6228400  86.2708750 150.1254890
  27.2847480  86.1196000 151.5933740  18.0077260  85.5507720 153.8066330
  18.5242280  84.9395080 153.2814590  18.6574640  86.0536500 154.2977340
  26.5170840  70.8829510 153.2580910  26.9578930  70.8274610 152.4102510
  26.2478430  71.7987520 153.3291090  28.3809410  70.5144750 151.2689730
  28.3197810  69.5705970 151.1220750  29.1601440  70.6224840 151.8143190
  12.6862160  86.6537110 150.2313680  12.5184200  86.0207790 150.9295570
  11.8196670  86.8596510 149.8807870  13.3090180  70.4853890 147.7345540
  14.0669540  70.5982770 147.1609570  12.8467350  71.3223090 147.6888970
  19.8503990  72.5993160 150.7247850  19.0378500  72.2250050 150.3843730
  20.3545630  71.8438240 151.0269040  24.3528970  69.2635610 151.9630920
  24.9558340  69.8355820 152.4379440  23.6121960  69.8275050 151.7404820
  27.4963570  69.6657170 147.2371200  27.6914200  70.5640620 147.5038630
  26.7093440  69.4344250 147.7304150  14.2924860  85.3470340 147.6763820
  13.7672480  85.7278370 146.9725780  14.2169440  85.9721110 148.3973530
  15.6815330  71.0117940 146.2747510  16.2108090  70.2247740 146.1455460
  16.3143650  71.6909130 146.5083040  17.8753170  70.7493080 149.3292900
  17.2455910  70.0480390 149.4963030  17.3358310  71.5097210 149.1126060
  29.0490180  86.9057880 148.9977760  29.2242370  86.2195620 148.3538680
  28.3511750  87.4304930 148.6054430  16.8917830  87.2952720 146.5513070
  17.6236650  87.0112000 146.0036960  17.1511500  87.0566000 147.4412450
  16.0532620  83.4117450 146.5559400  15.4241500  83.8802550 147.1045230
  16.1680450  82.5666670 146.9905590  23.5082340  77.4623110 132.7060600
  23.4276390  76.5477720 132.4352310  23.0946760  77.9590180 132.0000310
  21.6400380  79.2402130 134.5869870  20.8642480  78.7602570 134.8768440
  22.2913310  78.5607780 134.4126030  15.6566210  79.5521940 135.4645630
  14.8251090  79.2970650 135.8642140  16.2647190  79.6232710 136.2003550
  25.6607810  83.6462320 133.3669000  25.1989340  82.8749560 133.6956170
  26.4733360  83.6728390 133.8721450  15.6367470  83.5862030 135.6603650
  15.9395510  82.6959770 135.4813870  16.3811060  84.1432250 135.4325900
  14.0658160  74.5123830 129.2488020  13.1774860  74.8539800 129.1467900
  14.3499350  74.3124150 128.3568850  12.0291170  77.1129480 135.1327720
  12.6007280  76.3451680 135.1331360  12.0292710  77.4118240 134.2234330
  21.8871120  85.9320330 132.9872990  21.2682560  86.3877830 132.4167430
  22.7422900  86.0871790 132.5862690  21.0809370  81.9159320 134.5940030
  21.0117650  80.9749260 134.4329160  21.8429230  82.0060730 135.1662600
  13.2716040  72.5213840 136.9196650  13.0918880  71.6239590 137.1999410
  12.8696120  73.0685710 137.5943600  22.1114540  74.7229700 134.8208960
  22.4879360  73.8501580 134.7082630  22.0134050  75.0588400 133.9299400
  16.2419550  73.0955330 130.2826400  16.3486300  73.9959060 130.5895160
  15.3311910  73.0473300 129.9921050  25.8938660  72.2180140 131.7537300
  26.7148280  71.7276710 131.7962780  25.9272740  72.8077800 132.5069140
  13.8902710  75.0174340 135.5278990  14.5712820  75.2812710 136.1466390
  13.5750760  74.1775210 135.8617000  18.0827280  76.0641700 134.6151580
  18.5905500  76.5622670 135.2556600  18.6140520  75.2876900 134.4390940
  30.1838210  74.2346890 138.3180930  29.4790380  74.6228600 137.7996040
  30.4496130  74.9297180 138.9201860  16.3663380  70.7040260 138.8815000
  16.3681820  71.2212650 138.0760900  15.5367690  70.2270440 138.8584930
  22.7534470  80.8159570 130.3804900  22.1351740  81.2809020 129.8167620
  23.2657720  81.5087050 130.7974410  17.6166230  80.3435440 137.0588500
  17.2835610  80.9704360 137.7009570  17.7932910  80.8697320 136.2790170
  26.1300140  74.1580520 134.5264840  25.4255710  74.4465410 135.1067950
  26.4912300  74.9680630 134.1664400  16.0478710  72.4150220 136.8885450
  16.3895520  73.2592270 136.5939320  15.1094520  72.5633960 137.0050790
  16.8285330  82.3116240 138.8737680  17.4459330  82.9867320 138.5922130
  15.9678450  82.7204220 138.7825180  12.1217670  81.5016100 127.7544530
  11.7445650  81.9903200 127.0229430  12.3790740  82.1741380 128.3851060
  27.7462920  83.7755650 136.7892320  27.0626440  84.4454760 136.7808990
  28.2857210  83.9736300 136.0237180  29.1987060  73.6035310 134.9174050
  28.2511970  73.6374290 135.0489480  29.5237050  74.4174260 135.3023410
  19.7306600  69.9032490 133.2130040  20.0381580  69.3479380 132.4965540
  18.8007300  70.0376950 133.0303030  25.2821660  85.6199780 135.5037500
  25.2948820  85.2162070 134.6359760  24.7296880  86.3947070 135.3998930
  26.5767080  82.3416000 130.5927670  26.4663410  81.3990330 130.7177090
  26.5735330  82.7031640 131.4790430  24.6807100  80.5229620 136.8320110
  25.0975890  80.3089730 135.9973570  25.4046920  80.7802410 137.4028730
  22.1187360  77.9681320 129.9490160  21.1916640  77.9018700 130.1778630
  22.2712180  78.9061450 129.8345400  22.1056440  74.2398320 126.9457320
  21.1660110  74.4012280 127.0309780  22.4239700  74.9584000 126.3993310
  28.6269200  78.9216840 136.9236350  27.7987830  78.9909930 136.4486480
  29.2219680  79.5071150 136.4552180  26.1484650  79.5301620 130.4525410
  25.5297070  79.1921170 129.8051710  26.1309100  78.8861380 131.1604600
  25.5911210  75.7086160 137.8691220  25.1782390  76.5339870 138.1231210
  24.8587160  75.1231200 137.6767580  17.7244000  78.4946060 132.7309890
  17.3201000  77.7823310 132.2355790  17.8107120  78.1499300 133.6197930
  18.1925700  82.1813620 134.8949100  17.8953990  81.5759090 134.2156880
  19.1425520  82.2190930 134.7838460  16.4372620  75.2689270 136.5108930
  16.9887210  75.3784610 135.7362180  16.9516130  75.6426870 137.2264160
  26.2811310  85.7545490 138.5572200  25.8041870  86.5617680 138.3644810
  25.5973100  85.1023820 138.7098410  17.2844130  81.9195310 141.5456900
  16.3872660  82.1435280 141.7930300  17.3097000  82.0430250 140.5968300
  24.3249350  78.7688430 127.4598160  24.7642630  77.9310860 127.3135980
  25.0377770  79.4017830 127.5462300  16.1115350  78.7908630 140.1214270
  15.9723120  79.6631430 140.4901670  15.2296710  78.4481440 139.9762210
  22.4344730  83.7084500 131.4279400  22.8740640  84.4508830 131.0134790
  22.3731620  83.9511070 132.3518360  17.9095700  84.7330330 142.3299420
  17.8811130  85.1373280 141.4627850  17.7460670  83.8040690 142.1671020
  27.9066490  70.0231240 125.7739200  27.5939150  70.1158070 126.6738270
  28.6678960  70.6012270 125.7236630  14.4248630  77.3891040 130.2316540
  14.3046230  78.1153130 129.6197810  14.1149520  76.6193950 129.7544450
  29.8610520  85.5157430 143.6263590  30.3370240  85.9940320 144.3052670
  30.4817680  85.4474920 142.9009090  12.0634000  80.5606180 136.0385180
  12.1414420  80.6954950 135.0940900  12.6775680  79.8522070 136.2313300
  13.3081630  82.2606370 132.4491360  12.9009710  82.4020960 131.5944960
  14.1994640  81.9766530 132.2462570  29.2643770  82.7070280 140.7863600
  29.3906830  82.4682160 139.8680780  29.3065150  81.8754820 141.2585680
  23.1260510  86.4098280 139.3558410  23.6405180  86.3206290 140.1580840
  22.2829590  86.7557980 139.6486320  25.1014910  86.6953620 128.7842410
  24.9416050  86.4056560 129.6824240  24.9361620  85.9193750 128.2487640
  17.5803290  86.4752150 130.5614030  17.4045770  85.5587690 130.3481830
  16.7259030  86.8339440 130.8011830  24.8041040  84.2041180 127.3440410
  24.1106200  84.2018470 126.6842690  25.5463900  83.7800500 126.9134580
  24.3690970  85.8303890 131.4188900  24.8247920  85.0493270 131.7327520
  24.7083490  86.5410710 131.9630080  29.1167780  74.7602740 141.7513340
  28.5012050  75.2682410 141.2228800  28.7964200  73.8601070 141.6939280
  12.1193520  81.6020350 138.5779640  12.2824560  81.1325710 137.7599010
  12.5845970  81.0943910 139.2428480  16.8912290  70.7326110 133.6140210
  16.4480440  71.5135650 133.2824730  17.4497280  71.0556000 134.3211150
  21.1782100  73.5994630 139.2175530  20.7161470  73.8077650 140.0295470
  20.7760210  72.7853980 138.9146200  26.1786610  74.8203580 140.3472190
  25.3280200  74.5209330 140.6681260  26.0188400  75.0645590 139.4356010
  23.2736320  76.3205330 142.4470980  23.5989730  75.4869080 142.1073210
  24.0616650  76.8433850 142.5949310  20.0071110  70.3536810 128.4946040
  19.3825290  70.3496680 129.2199350  19.9201230  69.4867770 128.0982010
  18.9288190  71.2773440 135.4729810  19.2260520  72.1836270 135.3921830
  19.4773750  70.7892220 134.8589380  16.6826510  75.8559680 131.3421460
  16.4567430  75.6396850 132.2468080  15.9019040  76.2888140 130.9967430
  23.9124270  75.8623050 129.9412110  23.3133160  76.5858850 129.7575730
  24.4603880  75.7999830 129.1588560  19.1225720  76.7545260 142.0081730
  19.0269320  75.8139990 141.8582130  19.9657700  76.9760330 141.6129800
  22.5189140  74.4986590 131.9715390  22.9118710  74.8158790 131.1584080
  22.8805990  73.6198470 132.0859910  14.2536260  73.1658930 140.1615510
  13.8599650  74.0134140 140.3688290  13.5654660  72.5285300 140.3524150
  20.8281310  73.2493900 143.2312250  20.1379630  73.0566100 143.8658340
  21.5713610  73.5328540 143.7636550  11.5553310  71.0887390 134.1945590
  11.2666360  71.6590250 134.9070570  12.2999070  70.6091840 134.5576820
  11.7423540  75.0307510 125.4048310  11.6598210  75.9738270 125.5463300
  11.3906600  74.8882420 124.5260660  23.1044280  77.0892340 136.0666170
  22.3725400  77.5979150 136.4156270  22.7068620  76.2722320 135.7654950
  19.5421670  73.7646540 134.4718660  19.5457730  73.3236490 133.6223200
  20.4372790  74.0863870 134.5790480  15.3924050  73.6473030 133.4312870
  15.0524100  74.1248260 134.1879920  14.6301370  73.1938150 133.0713970
  19.6041820  74.7658620 127.4625420  19.7254640  74.7245100 128.4111240
  19.2190330  75.6282770 127.3072150  23.5670190  72.5426020 135.4789110
  23.5842930  72.9934670 136.3230960  23.3185770  71.6431660 135.6922550
  18.6163320  77.0759760 126.8608720  18.0480220  76.6278010 126.2344630
  19.3252320  77.4352540 126.3273870  26.9940940  69.9558200 141.3175490
  27.3186710  69.2247860 141.8433470  27.0297450  69.6371840 140.4156480
  13.6932500  80.9771780 140.7375450  13.3087290  80.3365450 141.3358410
  14.0044690  81.6807900 141.3070180  19.8429640  77.8248320 136.2184070
  20.2099770  77.3506890 136.9645410  19.6534700  78.6989890 136.5592410
  12.7070130  72.5692010 132.3477540  12.4217050  72.2047680 133.1856160
  12.6448990  71.8372470 131.7340680  17.6329010  76.8656960 138.5368280
  17.3286080  77.7448940 138.7618640  18.5875470  76.9256750 138.5725720
  16.1610800  81.0717950 129.1335130  15.3873060  80.5315570 128.9733850
  16.8905430  80.5524560 128.7952890  26.9198780  80.0683310 134.9261520
  27.6397900  80.5638600 134.5357630  26.7180600  79.3901200 134.2815390
  22.3808720  71.4621270 129.0690910  21.5673330  70.9634440 128.9936220
  22.1870670  72.3019520 128.6527260  22.3017580  80.1392370 140.8130520
  22.2354890  79.2188040 140.5588110  21.6722720  80.2367810 141.5275160
  25.0957110  75.8340920 127.3653070  25.9836730  76.1458150 127.1904410
  25.0662200  74.9613170 126.9733650  16.2048200  80.7398330 132.7713940
  16.7226870  79.9366590 132.7170830  15.7532220  80.6777470 133.6130770
  21.0917700  82.0064610 128.0441240  21.4333400  82.7506840 127.5484560
  20.2630410  82.3195730 128.4066070  13.6892740  77.7059700 139.6839640
  13.3307680  78.3713550 140.2712980  13.3947300  76.8743250 140.0552260
  16.8905860  78.1643940 142.5679190  16.5906000  78.3101120 141.6707010
  17.6617100  77.6049230 142.4752580  22.2334310  82.9612940 140.5634320
  22.2478850  82.0293900 140.3453230  21.5259410  83.0472700 141.2024090
  27.3671380  77.1452760 126.8332930  27.2835100  77.5766980 125.9829370
  28.0865570  77.6051110 127.2659750  28.4445520  79.6020280 139.9102900
  27.7193710  80.1949060 139.7132290  28.9720980  79.5943820 139.1116270
  28.3958630  83.9995020 129.5615060  27.7534790  83.3450640 129.8358780
  28.0089290  84.4050110 128.7855730  23.9745110  81.3280450 133.4086750
  24.3268930  80.7308580 132.7488120  23.0907440  81.0024680 133.5795000
  20.0608390  82.0878140 130.8157160  20.7479520  82.6347350 131.1964750
  19.2740810  82.6318870 130.8506770  12.2000790  77.7050960 126.3074240
  13.0695640  77.9875760 126.5910160  11.7091110  78.5186830 126.1923050
  19.3635600  79.0924170 130.4282520  19.8198380  79.9029420 130.6542710
  19.0123810  78.7747310 131.2601010  21.6668210  84.6030510 137.6574820
  22.3110430  84.8089890 138.3348240  22.0297650  83.8418910 137.2045670
  15.2647380  69.4361820 130.9005040  15.1362010  69.4279720 131.8489960
  14.4409400  69.7744910 130.5496050  22.9400290  82.6062860 136.3752270
  23.5822520  81.9056020 136.4884440  23.4649640  83.3861300 136.1949160
  26.7856010  82.8911480 126.0991410  26.5593590  82.1741920 126.6916050
  26.3952210  82.6423920 125.2613160  24.7137910  83.4057760 139.5788330
  25.0494150  83.9924450 140.2566250  23.7938250  83.2750470 139.8086120
  12.5672040  86.9178340 126.8735870  12.9269680  87.5167680 126.2193140
  12.4264380  87.4638230 127.6470900  12.2641310  71.1952940 140.3611740
  11.5499830  71.3949860 140.9664350  12.6836350  70.4192510 140.7326540
  26.3672260  80.8083420 127.7605570  26.0793960  81.2696110 128.5483450
  27.1624430  80.3481190 128.0289790  12.5513900  85.1833200 141.3478270
  12.6605020  84.2427940 141.2073660  11.8994460  85.4487950 140.6992000
  20.5426490  83.4549090 142.7476390  20.2223360  82.7358330 143.2922080
  19.8684850  84.1304160 142.8212450  18.5840660  84.3009540 127.6909540
  18.5750760  85.0339230 127.0754050  17.6639020  84.0541120 127.7836500
  14.1847300  79.5224430 128.4356300  13.5775250  80.2623330 128.4451600
  14.6596650  79.6123790 127.6094500  23.7580090  73.6875250 138.1113190
  24.1260910  72.8670460 138.4392760  22.8978290  73.7477140 138.5268840
  27.1242120  72.6432190 128.9200750  26.4955280  72.7477860 128.2058980
  26.6294040  72.8628970 129.7094630  21.5700260  84.3637780 126.3534730
  21.6712240  84.1601770 125.4236710  20.6702000  84.1096060 126.5582510
  19.0926150  74.9218140 130.3358630  18.3842300  75.3904480 130.7772240
  19.3770630  74.2640150 130.9703820  20.7182080  76.3414840 138.3351160
  21.2167330  76.8160660 139.0003010  20.8605030  75.4178360 138.5421190
  23.1241580  71.6468800 131.7754420  23.0009360  71.6654930 130.8263930
  24.0726140  71.6947740 131.8952820  20.2118370  86.8824100 131.0482400
  20.4659870  86.8445490 130.1261770  19.2630850  86.7557430 131.0410650
  17.2961170  73.2303220 127.7109340  18.1451700  73.6673370 127.6449530
  16.9292440  73.5423480 128.5381400  27.9248940  72.5582800 139.1779550
  27.4222540  73.2988200 139.5173360  28.7405600  72.9466800 138.8616340
  26.2170950  77.8015980 132.6240910  25.2761090  77.8166210 132.7988600
  26.5315020  77.0151940 133.0701210  16.1952590  79.4835580 126.1844870
  16.9615860  79.3716940 126.7470300  16.2727280  78.7873550 125.5321640
  14.8899350  76.9160650 126.8677760  14.9702940  75.9688160 126.9795160
  15.7819100  77.2467530 126.9738420  28.2196530  84.9724830 134.2995170
  28.3443950  85.7956000 134.7718980  29.0862090  84.7615560 133.9519320
  15.6914060  87.0656040 133.9712300  16.4276540  86.5171500 134.2420870
  16.0754980  87.9312050 133.8318290  12.5759540  83.1329610 129.8453810
  11.6499320  83.3750750 129.8359220  13.0415970  83.9603870 129.7238560
  14.6972340  86.2502110 143.1597880  15.4985070  86.5714160 143.5733280
  14.1824160  85.8897690 143.8817790  18.8016370  86.2386350 125.7937870
  19.5944980  86.5275180 125.3419660  18.2820720  85.8078520 125.1150350
  23.5336970  82.3581980 143.1073290  22.9275130  82.3813580 142.3669040
  23.2291080  81.6265020 143.6440540  24.9637340  86.0862270 141.7182700
  25.9159090  86.0020290 141.6682940  24.8165560  86.7503980 142.3916490
  27.8546540  85.4656480 127.2174610  27.5688050  85.0521620 126.4028790
  27.6566090  86.3944190 127.0975130  12.4170150  78.7375570 142.1033930
  12.9209170  78.1582850 142.6750160  11.6777570  79.0215800 142.6410300
  19.3193770  81.4589760 125.6580220  19.2144410  80.8442110 126.3841600
  19.1517990  80.9355650 124.8743230  19.4708090  80.1446560 141.6369450
  18.7053760  80.7131560 141.5524120  19.6524050  79.8522770 140.7437680
  22.5596500  80.5209790 126.2622210  22.0106600  80.9679090 126.9064950
  23.1815760  80.0159040 126.7859880  26.6131440  81.8751890 142.1944470
  27.3540910  82.2127650 141.6911930  25.8504120  82.0443950 141.6414240
  14.4493230  76.8805160 142.9984000  14.4898570  76.5819030 143.9069230
  15.3038730  77.2812770 142.8391520  18.2271620  79.4800710 128.1587510
  18.6488040  79.3140580 129.0018900  18.3522460  78.6700940 127.6642650
  16.3899040  75.4597260 140.9658490  15.8595500  74.9688210 140.3381830
  17.0587110  75.8881460 140.4316420  20.7399260  78.5038320 125.4064610
  21.2604920  77.7887340 125.0405760  21.3867660  79.1424190 125.7065120
  25.2877100  79.9266720 140.7299680  25.7018120  80.0811800 141.5790100
  24.3528100  80.0521940 140.8925460  25.7599270  77.2662880 142.7338830
  26.3420040  76.5115200 142.6459310  25.9361040  77.7970320 141.9570310
  16.8771340  72.4259630 141.0455780  16.7828210  71.8080380 140.3206650
  16.2968730  73.1525920 140.8185690  19.6432780  70.9832870 138.0783170
  19.1950080  71.0057130 137.2328720  19.0097980  70.5851890 138.6753470
  20.0492330  79.8787200 138.6995610  20.4680440  80.7219930 138.5271850
  19.1300960  80.0159240 138.4702390  22.3856230  77.6103380 140.0833450
  22.5052440  77.0144520 140.8228290  23.2450230  77.6473070 139.6634750
  24.7244130  78.1640570 138.6595960  24.1979350  78.6883190 138.0561100
  25.0675470  78.7967960 139.2905690  17.1230520  75.5533940 125.1045670
  16.9219580  74.6901300 125.4659010  16.9522570  75.4667300 124.1667270
  17.8999750  86.1840210 139.8153340  17.3620840  86.9086270 139.4962040
  18.1533710  85.7070550 139.0250680  19.1525000  74.1524730 141.3409270
  19.7424690  73.8440580 142.0287090  18.3345240  73.6804480 141.4969170
  23.9718430  73.7690540 141.5742290  23.2833950  73.1072080 141.5092280
  24.6924450  73.3228810 142.0190750  24.6018830  70.3642170 127.6332550
  24.8821120  69.5210070 127.9891970  23.8284560  70.5965280 128.1471300
  15.9213320  72.6534560 125.0923550  16.2239220  72.6601990 124.1842700
  16.6607910  72.3032420 125.5891210  20.7561960  87.4191420 140.0739990
  20.6820660  88.3226560 140.3812360  19.8540800  87.1003320 140.0462060
  19.1398250  71.5969180 126.0779750  18.7920250  70.9193170 125.4982200
  19.3411020  71.1358690 126.8923140  21.3047290  86.5849930 127.6966350
  22.1998080  86.9234900 127.7185110  21.3364920  85.8629340 127.0690630
  14.9443450  81.9576980 125.9253350  15.3818320  82.5006650 126.5810930
  15.4291180  81.1323930 125.9349690  12.1589250  84.7466010 133.3773610
  12.4892260  83.8787070 133.1452250  12.5880250  84.9524530 134.2078570
  16.7551170  83.0775020 131.0375580  16.4546710  82.9539990 131.9379490
  16.6488660  82.2183610 130.6291310  12.6479460  85.6136600 136.1155240
  12.2110450  85.7937400 136.9479390  13.2157140  86.3711220 135.9736960
  28.2841640  85.1153600 140.4032550  27.6843630  85.1746160 139.6596470
  28.4135540  84.1758580 140.5329400  29.5243090  82.8571420 125.7402260
  28.6936050  82.9248070 126.2109490  29.7014920  83.7475540 125.4369120
  28.9799550  79.6018900 128.2436460  29.7418460  80.1715550 128.3496150
  28.9953920  79.0346100 129.0144770  12.4803890  78.1256830 132.4744120
  11.8252730  77.8568470 131.8303820  13.3181840  78.0161310 132.0246100
  29.9859520  80.4569000 133.0878390  30.3568350  79.6736320 132.6814360
  30.6261450  81.1458100 132.9095690  26.9693280  81.8405580 138.5008710
  26.1553120  82.2702740 138.7634500  27.3767480  82.4523990 137.8877760
  29.0318720  79.8953270 125.4008980  29.3067560  80.8032150 125.2728200
  28.8429460  79.8315800 126.3370970  25.4294330  72.9198120 126.6962610
  25.8479210  72.7329100 125.8559270  25.1230390  72.0677170 127.0065540
  28.9284060  77.8322260 130.3938410  28.5527660  77.0650190 129.9619700
  28.1987180  78.2144960 130.8813340  13.5179820  78.5109400 137.0147460
  13.8852860  78.4236800 137.8943480  12.9490640  77.7475950 136.9154320
  28.3183680  76.9793780 140.0277930  28.0869770  76.7506530 139.1275880
  28.5788230  77.8993330 139.9822820  13.0695820  75.4218490 140.9205880
  12.1751870  75.3885250 141.2599590  13.6093370  75.6205280 141.6857130
  26.7571750  72.2050210 142.8057630  27.6341930  72.2133610 143.1891630
  26.7692590  71.4681050 142.1949980  11.6941970  75.3355760 128.4169450
  10.7906050  75.5985960 128.2421110  12.1782590  75.6066930 127.6369410
  28.2035020  76.0579750 133.6945650  28.7272500  75.5642400 133.0635820
  28.7894440  76.1930110 134.4393220  28.3824740  76.1419620 137.2165200
  27.4327450  76.1083160 137.3310190  28.5637750  77.0519730 136.9814970
  14.2369180  74.3921300 126.3263830  14.9460880  73.9704520 125.8411110
  13.5209120  74.4596530 125.6947180  13.8843340  70.4460630 125.3666480
  14.6071470  70.9869570 125.6847700  14.1567860  70.1724050 124.4908020
  27.6934990  75.3153100 129.6338060  28.1894110  75.0823970 130.4186940
  27.4951060  74.4764940 129.2175700  13.5735530  69.6966820 135.2689100
  14.2211720  69.1464200 134.8284260  13.9937370  69.9509970 136.0904910
  29.1222150  73.9514050 132.1675740  29.0121430  73.7970090 133.1058010
  29.8829740  73.4234990 131.9251150  27.4687870  69.8908180 138.6258740
  28.1060090  70.5042320 138.9917930  27.6162760  69.9268840 137.6807970
  30.0112420  71.7821970 125.4081880  30.9361730  71.6503150 125.2000170
  29.9888210  71.8614790 126.3618330  30.0850910  72.5532630 128.0338590
  29.2902410  72.4877750 128.5631500  30.2894190  73.4883270 128.0223940
  27.0269330  86.5924180 132.0276980  27.6228400  86.2708750 131.3511400
  27.2847480  86.1196000 132.8190250  13.3267530  69.8522490 138.0114420
  12.9782350  70.3086310 138.7772600  12.9955230  68.9579620 138.0936850
  14.9331900  83.0242090 142.1767610  14.8901530  82.6535000 143.0582070
  15.0642910  83.9619660 142.3169430  18.6337930  84.5801680 137.7777330
  18.3929290  84.8476240 136.8907850  19.5740570  84.7507410 137.8328190
  20.8392350  71.0434370 141.5333840  20.7781240  71.6356200 142.2829250
  21.7792730  70.9360330 141.3884100  23.4766910  70.7004430 141.1726130
  24.0907320  71.0183720 140.5107210  24.0216470  70.2153020 141.7921990
  29.8942090  86.5996060 138.5787970  29.4000370  86.9964930 137.8615100
  29.2855380  85.9745270 138.9725250  13.9988170  69.3798690 141.2865190
  14.5471160  69.1986740 140.5231300  14.0643480  68.5892800 141.8221500
  14.7719930  85.9704340 139.2965390  14.1780250  85.8389040 140.0355430
  14.7643770  85.1342480 138.8307490  24.2174950  69.2636570 137.4995420
  23.3434790  69.5971680 137.2968350  24.1085700  68.7909750 138.3247290
  25.1246930  71.4707440 138.8837140  24.7960290  70.6559200 138.5038870
  26.0729230  71.4277250 138.7602830  27.5781540  87.2419480 135.8574710
  27.1184510  87.9935290 135.4832730  26.9494000  86.5225950 135.7989510
  14.4032160  83.3362720 138.2473430  13.6766220  82.7168010 138.1799380
  14.4641310  83.7303330 137.3771510  18.0077260  85.5507720 135.0322840
  18.5242280  84.9395080 134.5071100  18.6574640  86.0536500 135.5233850
  20.7472760  86.4416210 135.8591820  21.0350570  86.1870510 134.9824830
  21.2595980  85.8893570 136.4497390  21.9649770  70.1806410 136.4388330
  21.1821560  70.6551910 136.7185090  21.6712700  69.2761240 136.3301510
  26.5170840  70.8829510 134.4837420  26.9578930  70.8274610 133.6359020
  26.2478430  71.7987520 134.5547600  28.3809410  70.5144750 132.4946240
  28.3197810  69.5705970 132.3477260  29.1601440  70.6224840 133.0399700
  12.6862160  86.6537110 131.4570190  12.5184200  86.0207790 132.1552080
  11.8196670  86.8596510 131.1064380  13.3090180  70.4853890 128.9602050
  14.0669540  70.5982770 128.3866080  12.8467350  71.3223090 128.9145480
  19.8503990  72.5993160 131.9504360  19.0378500  72.2250050 131.6100240
  20.3545630  71.8438240 132.2525550  24.3528970  69.2635610 133.1887430
  24.9558340  69.8355820 133.6635950  23.6121960  69.8275050 132.9661330
  27.4963570  69.6657170 128.4627710  27.6914200  70.5640620 128.7295140
  26.7093440  69.4344250 128.9560660  14.2924860  85.3470340 128.9020330
  13.7672480  85.7278370 128.1982290  14.2169440  85.9721110 129.6230040
  15.6815330  71.0117940 127.5004020  16.2108090  70.2247740 127.3711970
  16.3143650  71.6909130 127.7339550  17.8753170  70.7493080 130.5549410
  17.2455910  70.0480390 130.7219540  17.3358310  71.5097210 130.3382570
  20.8145120  87.3632310 143.2260020  21.7412430  87.1276580 143.2695980
  20.7995550  88.1904310 142.7446050  29.0490180  86.9057880 130.2234270
  29.2242370  86.2195620 129.5795190  28.3511750  87.4304930 129.8310940
  18.0008730  70.0277060 142.9901900  17.7193000  70.5310660 142.2262720
  18.3828430  69.2298810 142.6244030  16.8917830  87.2952720 127.7769580
  17.6236650  87.0112000 127.2293470  17.1511500  87.0566000 128.6668960
  16.0532620  83.4117450 127.7815910  15.4241500  83.8802550 128.3301740
  16.1680450  82.5666670 128.2162100  24.6024190  69.4430640 143.5682370
  24.4889640  69.7625250 144.4633890  25.4193930  69.8443150 143.2719650
  27.3822680  86.5902170 143.0501060  28.1748000  86.0951400 142.8427020
  27.6755830  87.2692310 143.6576670  23.5082340  77.4623110 113.9317110
  23.4276390  76.5477720 113.6608820  23.0946760  77.9590180 113.2256820
  21.6400380  79.2402130 115.8126380  20.8642480  78.7602570 116.1024950
  22.2913310  78.5607780 115.6382540  15.6566210  79.5521940 116.6902140
  14.8251090  79.2970650 117.0898650  16.2647190  79.6232710 117.4260060
  15.6367470  83.5862030 116.8860160  15.9395510  82.6959770 116.7070380
  16.3811060  84.1432250 116.6582410  14.0658160  74.5123830 110.4744530
  13.1774860  74.8539800 110.3724410  14.3499350  74.3124150 109.5825360
  12.0291170  77.1129480 116.3584230  12.6007280  76.3451680 116.3587870
  12.0292710  77.4118240 115.4490840  21.8871120  85.9320330 114.2129500
  21.2682560  86.3877830 113.6423940  22.7422900  86.0871790 113.8119200
  21.0809370  81.9159320 115.8196540  21.0117650  80.9749260 115.6585670
  21.8429230  82.0060730 116.3919110  13.2716040  72.5213840 118.1453160
  13.0918880  71.6239590 118.4255920  12.8696120  73.0685710 118.8200110
  22.1114540  74.7229700 116.0465470  22.4879360  73.8501580 115.9339140
  22.0134050  75.0588400 115.1555910  16.2419550  73.0955330 111.5082910
  16.3486300  73.9959060 111.8151670  15.3311910  73.0473300 111.2177560
  25.8938660  72.2180140 112.9793810  26.7148280  71.7276710 113.0219290
  25.9272740  72.8077800 113.7325650  13.8902710  75.0174340 116.7535500
  14.5712820  75.2812710 117.3722900  13.5750760  74.1775210 117.0873510
  18.0827280  76.0641700 115.8408090  18.5905500  76.5622670 116.4813110
  18.6140520  75.2876900 115.6647450  30.1838210  74.2346890 119.5437440
  29.4790380  74.6228600 119.0252550  30.4496130  74.9297180 120.1458370
  16.3663380  70.7040260 120.1071510  16.3681820  71.2212650 119.3017410
  15.5367690  70.2270440 120.0841440  17.6166230  80.3435440 118.2845010
  17.2835610  80.9704360 118.9266080  17.7932910  80.8697320 117.5046680
  26.1300140  74.1580520 115.7521350  25.4255710  74.4465410 116.3324460
  26.4912300  74.9680630 115.3920910  16.0478710  72.4150220 118.1141960
  16.3895520  73.2592270 117.8195830  15.1094520  72.5633960 118.2307300
  16.8285330  82.3116240 120.0994190  17.4459330  82.9867320 119.8178640
  15.9678450  82.7204220 120.0081690  12.1217670  81.5016100 108.9801040
  11.7445650  81.9903200 108.2485940  12.3790740  82.1741380 109.6107570
  29.1987060  73.6035310 116.1430560  28.2511970  73.6374290 116.2745990
  29.5237050  74.4174260 116.5279920  19.7306600  69.9032490 114.4386550
  20.0381580  69.3479380 113.7222050  18.8007300  70.0376950 114.2559540
  24.6807100  80.5229620 118.0576620  25.0975890  80.3089730 117.2230080
  25.4046920  80.7802410 118.6285240  22.1056440  74.2398320 108.1713830
  21.1660110  74.4012280 108.2566290  22.4239700  74.9584000 107.6249820
  28.6269200  78.9216840 118.1492860  27.7987830  78.9909930 117.6742990
  29.2219680  79.5071150 117.6808690  25.5911210  75.7086160 119.0947730
  25.1782390  76.5339870 119.3487720  24.8587160  75.1231200 118.9024090
  17.7244000  78.4946060 113.9566400  17.3201000  77.7823310 113.4612300
  17.8107120  78.1499300 114.8454440  18.1925700  82.1813620 116.1205610
  17.8953990  81.5759090 115.4413390  19.1425520  82.2190930 116.0094970
  16.4372620  75.2689270 117.7365440  16.9887210  75.3784610 116.9618690
  16.9516130  75.6426870 118.4520670  17.2844130  81.9195310 122.7713410
  16.3872660  82.1435280 123.0186810  17.3097000  82.0430250 121.8224810
  16.1115350  78.7908630 121.3470780  15.9723120  79.6631430 121.7158180
  15.2296710  78.4481440 121.2018720  17.9095700  84.7330330 123.5555930
  17.8811130  85.1373280 122.6884360  17.7460670  83.8040690 123.3927530
  14.4248630  77.3891040 111.4573050  14.3046230  78.1153130 110.8454320
  14.1149520  76.6193950 110.9800960  29.8610520  85.5157430 124.8520100
  30.3370240  85.9940320 125.5309180  30.4817680  85.4474920 124.1265600
  12.0634000  80.5606180 117.2641690  12.1414420  80.6954950 116.3197410
  12.6775680  79.8522070 117.4569810  13.3081630  82.2606370 113.6747870
  12.9009710  82.4020960 112.8201470  14.1994640  81.9766530 113.4719080
  29.2643770  82.7070280 122.0120110  29.3906830  82.4682160 121.0937290
  29.3065150  81.8754820 122.4842190  23.1260510  86.4098280 120.5814920
  23.6405180  86.3206290 121.3837350  22.2829590  86.7557980 120.8742830
  25.1014910  86.6953620 110.0098920  24.9416050  86.4056560 110.9080750
  24.9361620  85.9193750 109.4744150  17.5803290  86.4752150 111.7870540
  17.4045770  85.5587690 111.5738340  16.7259030  86.8339440 112.0268340
  24.8041040  84.2041180 108.5696920  24.1106200  84.2018470 107.9099200
  25.5463900  83.7800500 108.1391090  29.1167780  74.7602740 122.9769850
  28.5012050  75.2682410 122.4485310  28.7964200  73.8601070 122.9195790
  12.1193520  81.6020350 119.8036150  12.2824560  81.1325710 118.9855520
  12.5845970  81.0943910 120.4684990  16.8912290  70.7326110 114.8396720
  16.4480440  71.5135650 114.5081240  17.4497280  71.0556000 115.5467660
  21.1782100  73.5994630 120.4432040  20.7161470  73.8077650 121.2551980
  20.7760210  72.7853980 120.1402710  26.1786610  74.8203580 121.5728700
  25.3280200  74.5209330 121.8937770  26.0188400  75.0645590 120.6612520
  23.2736320  76.3205330 123.6727490  23.5989730  75.4869080 123.3329720
  24.0616650  76.8433850 123.8205820  20.0071110  70.3536810 109.7202550
  19.3825290  70.3496680 110.4455860  19.9201230  69.4867770 109.3238520
  18.9288190  71.2773440 116.6986320  19.2260520  72.1836270 116.6178340
  19.4773750  70.7892220 116.0845890  16.6826510  75.8559680 112.5677970
  16.4567430  75.6396850 113.4724590  15.9019040  76.2888140 112.2223940
  19.1225720  76.7545260 123.2338240  19.0269320  75.8139990 123.0838640
  19.9657700  76.9760330 122.8386310  22.5189140  74.4986590 113.1971900
  22.9118710  74.8158790 112.3840590  22.8805990  73.6198470 113.3116420
  14.2536260  73.1658930 121.3872020  13.8599650  74.0134140 121.5944800
  13.5654660  72.5285300 121.5780660  20.8281310  73.2493900 124.4568760
  20.1379630  73.0566100 125.0914850  21.5713610  73.5328540 124.9893060
  11.5553310  71.0887390 115.4202100  11.2666360  71.6590250 116.1327080
  12.2999070  70.6091840 115.7833330  11.7423540  75.0307510 106.6304820
  11.6598210  75.9738270 106.7719810  11.3906600  74.8882420 105.7517170
  23.1044280  77.0892340 117.2922680  22.3725400  77.5979150 117.6412780
  22.7068620  76.2722320 116.9911460  19.5421670  73.7646540 115.6975170
  19.5457730  73.3236490 114.8479710  20.4372790  74.0863870 115.8046990
  15.3924050  73.6473030 114.6569380  15.0524100  74.1248260 115.4136430
  14.6301370  73.1938150 114.2970480  19.6041820  74.7658620 108.6881930
  19.7254640  74.7245100 109.6367750  19.2190330  75.6282770 108.5328660
  23.5670190  72.5426020 116.7045620  23.5842930  72.9934670 117.5487470
  23.3185770  71.6431660 116.9179060  26.9940940  69.9558200 122.5432000
  27.3186710  69.2247860 123.0689980  27.0297450  69.6371840 121.6412990
  13.6932500  80.9771780 121.9631960  13.3087290  80.3365450 122.5614920
  14.0044690  81.6807900 122.5326690  19.8429640  77.8248320 117.4440580
  20.2099770  77.3506890 118.1901920  19.6534700  78.6989890 117.7848920
  12.7070130  72.5692010 113.5734050  12.4217050  72.2047680 114.4112670
  12.6448990  71.8372470 112.9597190  17.6329010  76.8656960 119.7624790
  17.3286080  77.7448940 119.9875150  18.5875470  76.9256750 119.7982230
  16.1610800  81.0717950 110.3591640  15.3873060  80.5315570 110.1990360
  16.8905430  80.5524560 110.0209400  26.9198780  80.0683310 116.1518030
  27.6397900  80.5638600 115.7614140  26.7180600  79.3901200 115.5071900
  22.3808720  71.4621270 110.2947420  21.5673330  70.9634440 110.2192730
  22.1870670  72.3019520 109.8783770  22.3017580  80.1392370 122.0387030
  22.2354890  79.2188040 121.7844620  21.6722720  80.2367810 122.7531670
  25.0957110  75.8340920 108.5909580  25.9836730  76.1458150 108.4160920
  25.0662200  74.9613170 108.1990160  16.2048200  80.7398330 113.9970450
  16.7226870  79.9366590 113.9427340  15.7532220  80.6777470 114.8387280
  13.6892740  77.7059700 120.9096150  13.3307680  78.3713550 121.4969490
  13.3947300  76.8743250 121.2808770  16.8905860  78.1643940 123.7935700
  16.5906000  78.3101120 122.8963520  17.6617100  77.6049230 123.7009090
  22.2334310  82.9612940 121.7890830  22.2478850  82.0293900 121.5709740
  21.5259410  83.0472700 122.4280600  28.4445520  79.6020280 121.1359410
  27.7193710  80.1949060 120.9388800  28.9720980  79.5943820 120.3372780
  12.2000790  77.7050960 107.5330750  13.0695640  77.9875760 107.8166670
  11.7091110  78.5186830 107.4179560  21.6668210  84.6030510 118.8831330
  22.3110430  84.8089890 119.5604750  22.0297650  83.8418910 118.4302180
  15.2647380  69.4361820 112.1261550  15.1362010  69.4279720 113.0746470
  14.4409400  69.7744910 111.7752560  22.9400290  82.6062860 117.6008780
  23.5822520  81.9056020 117.7140950  23.4649640  83.3861300 117.4205670
  24.7137910  83.4057760 120.8044840  25.0494150  83.9924450 121.4822760
  23.7938250  83.2750470 121.0342630  12.5672040  86.9178340 108.0992380
  12.9269680  87.5167680 107.4449650  12.4264380  87.4638230 108.8727410
  12.2641310  71.1952940 121.5868250  11.5499830  71.3949860 122.1920860
  12.6836350  70.4192510 121.9583050  26.3672260  80.8083420 108.9862080
  26.0793960  81.2696110 109.7739960  27.1624430  80.3481190 109.2546300
  12.5513900  85.1833200 122.5734780  12.6605020  84.2427940 122.4330170
  11.8994460  85.4487950 121.9248510  20.5426490  83.4549090 123.9732900
  20.2223360  82.7358330 124.5178590  19.8684850  84.1304160 124.0468960
  14.1847300  79.5224430 109.6612810  13.5775250  80.2623330 109.6708110
  14.6596650  79.6123790 108.8351010  23.7580090  73.6875250 119.3369700
  24.1260910  72.8670460 119.6649270  22.8978290  73.7477140 119.7525350
  27.1242120  72.6432190 110.1457260  26.4955280  72.7477860 109.4315490
  26.6294040  72.8628970 110.9351140  19.0926150  74.9218140 111.5615140
  18.3842300  75.3904480 112.0028750  19.3770630  74.2640150 112.1960330
  20.7182080  76.3414840 119.5607670  21.2167330  76.8160660 120.2259520
  20.8605030  75.4178360 119.7677700  23.1241580  71.6468800 113.0010930
  23.0009360  71.6654930 112.0520440  24.0726140  71.6947740 113.1209330
  20.2118370  86.8824100 112.2738910  20.4659870  86.8445490 111.3518280
  19.2630850  86.7557430 112.2667160  17.2961170  73.2303220 108.9365850
  18.1451700  73.6673370 108.8706040  16.9292440  73.5423480 109.7637910
  27.9248940  72.5582800 120.4036060  27.4222540  73.2988200 120.7429870
  28.7405600  72.9466800 120.0872850  16.1952590  79.4835580 107.4101380
  16.9615860  79.3716940 107.9726810  16.2727280  78.7873550 106.7578150
  14.8899350  76.9160650 108.0934270  14.9702940  75.9688160 108.2051670
  15.7819100  77.2467530 108.1994930  15.6914060  87.0656040 115.1968810
  16.4276540  86.5171500 115.4677380  16.0754980  87.9312050 115.0574800
  12.5759540  83.1329610 111.0710320  11.6499320  83.3750750 111.0615730
  13.0415970  83.9603870 110.9495070  14.6972340  86.2502110 124.3854390
  15.4985070  86.5714160 124.7989790  14.1824160  85.8897690 125.1074300
  23.5336970  82.3581980 124.3329800  22.9275130  82.3813580 123.5925550
  23.2291080  81.6265020 124.8697050  24.9637340  86.0862270 122.9439210
  25.9159090  86.0020290 122.8939450  24.8165560  86.7503980 123.6173000
  12.4170150  78.7375570 123.3290440  12.9209170  78.1582850 123.9006670
  11.6777570  79.0215800 123.8666810  19.4708090  80.1446560 122.8625960
  18.7053760  80.7131560 122.7780630  19.6524050  79.8522770 121.9694190
  26.6131440  81.8751890 123.4200980  27.3540910  82.2127650 122.9168440
  25.8504120  82.0443950 122.8670750  14.4493230  76.8805160 124.2240510
  14.4898570  76.5819030 125.1325740  15.3038730  77.2812770 124.0648030
  16.3899040  75.4597260 122.1915000  15.8595500  74.9688210 121.5638340
  17.0587110  75.8881460 121.6572930  25.2877100  79.9266720 121.9556190
  25.7018120  80.0811800 122.8046610  24.3528100  80.0521940 122.1181970
  25.7599270  77.2662880 123.9595340  26.3420040  76.5115200 123.8715820
  25.9361040  77.7970320 123.1826820  16.8771340  72.4259630 122.2712290
  16.7828210  71.8080380 121.5463160  16.2968730  73.1525920 122.0442200
  19.6432780  70.9832870 119.3039680  19.1950080  71.0057130 118.4585230
  19.0097980  70.5851890 119.9009980  20.0492330  79.8787200 119.9252120
  20.4680440  80.7219930 119.7528360  19.1300960  80.0159240 119.6958900
  22.3856230  77.6103380 121.3089960  22.5052440  77.0144520 122.0484800
  23.2450230  77.6473070 120.8891260  24.7244130  78.1640570 119.8852470
  24.1979350  78.6883190 119.2817610  25.0675470  78.7967960 120.5162200
  17.1230520  75.5533940 106.3302180  16.9219580  74.6901300 106.6915520
  16.9522570  75.4667300 105.3923780  17.8999750  86.1840210 121.0409850
  17.3620840  86.9086270 120.7218550  18.1533710  85.7070550 120.2507190
  19.1525000  74.1524730 122.5665780  19.7424690  73.8440580 123.2543600
  18.3345240  73.6804480 122.7225680  23.9718430  73.7690540 122.7998800
  23.2833950  73.1072080 122.7348790  24.6924450  73.3228810 123.2447260
  24.6018830  70.3642170 108.8589060  24.8821120  69.5210070 109.2148480
  23.8284560  70.5965280 109.3727810  15.9213320  72.6534560 106.3180060
  16.2239220  72.6601990 105.4099210  16.6607910  72.3032420 106.8147720
  20.7561960  87.4191420 121.2996500  20.6820660  88.3226560 121.6068870
  19.8540800  87.1003320 121.2718570  19.1398250  71.5969180 107.3036260
  18.7920250  70.9193170 106.7238710  19.3411020  71.1358690 108.1179650
  21.3047290  86.5849930 108.9222860  22.1998080  86.9234900 108.9441620
  21.3364920  85.8629340 108.2947140  12.1589250  84.7466010 114.6030120
  12.4892260  83.8787070 114.3708760  12.5880250  84.9524530 115.4335080
  16.7551170  83.0775020 112.2632090  16.4546710  82.9539990 113.1636000
  16.6488660  82.2183610 111.8547820  12.6479460  85.6136600 117.3411750
  12.2110450  85.7937400 118.1735900  13.2157140  86.3711220 117.1993470
  28.2841640  85.1153600 121.6289060  27.6843630  85.1746160 120.8852980
  28.4135540  84.1758580 121.7585910  12.4803890  78.1256830 113.7000630
  11.8252730  77.8568470 113.0560330  13.3181840  78.0161310 113.2502610
  25.4294330  72.9198120 107.9219120  25.8479210  72.7329100 107.0815780
  25.1230390  72.0677170 108.2322050  13.5179820  78.5109400 118.2403970
  13.8852860  78.4236800 119.1199990  12.9490640  77.7475950 118.1410830
  28.3183680  76.9793780 121.2534440  28.0869770  76.7506530 120.3532390
  28.5788230  77.8993330 121.2079330  13.0695820  75.4218490 122.1462390
  12.1751870  75.3885250 122.4856100  13.6093370  75.6205280 122.9113640
  26.7571750  72.2050210 124.0314140  27.6341930  72.2133610 124.4148140
  26.7692590  71.4681050 123.4206490  11.6941970  75.3355760 109.6425960
  10.7906050  75.5985960 109.4677620  12.1782590  75.6066930 108.8625920
  28.2035020  76.0579750 114.9202160  28.7272500  75.5642400 114.2892330
  28.7894440  76.1930110 115.6649730  28.3824740  76.1419620 118.4421710
  27.4327450  76.1083160 118.5566700  28.5637750  77.0519730 118.2071480
  14.2369180  74.3921300 107.5520340  14.9460880  73.9704520 107.0667620
  13.5209120  74.4596530 106.9203690  13.8843340  70.4460630 106.5922990
  14.6071470  70.9869570 106.9104210  14.1567860  70.1724050 105.7164530
  27.6934990  75.3153100 110.8594570  28.1894110  75.0823970 111.6443450
  27.4951060  74.4764940 110.4432210  13.5735530  69.6966820 116.4945610
  14.2211720  69.1464200 116.0540770  13.9937370  69.9509970 117.3161420
  29.1222150  73.9514050 113.3932250  29.0121430  73.7970090 114.3314520
  29.8829740  73.4234990 113.1507660  27.4687870  69.8908180 119.8515250
  28.1060090  70.5042320 120.2174440  27.6162760  69.9268840 118.9064480
  13.3267530  69.8522490 119.2370930  12.9782350  70.3086310 120.0029110
  12.9955230  68.9579620 119.3193360  14.9331900  83.0242090 123.4024120
  14.8901530  82.6535000 124.2838580  15.0642910  83.9619660 123.5425940
  18.6337930  84.5801680 119.0033840  18.3929290  84.8476240 118.1164360
  19.5740570  84.7507410 119.0584700  20.8392350  71.0434370 122.7590350
  20.7781240  71.6356200 123.5085760  21.7792730  70.9360330 122.6140610
  23.4766910  70.7004430 122.3982640  24.0907320  71.0183720 121.7363720
  24.0216470  70.2153020 123.0178500  13.9988170  69.3798690 122.5121700
  14.5471160  69.1986740 121.7487810  14.0643480  68.5892800 123.0478010
  14.7719930  85.9704340 120.5221900  14.1780250  85.8389040 121.2611940
  14.7643770  85.1342480 120.0564000  24.2174950  69.2636570 118.7251930
  23.3434790  69.5971680 118.5224860  24.1085700  68.7909750 119.5503800
  25.1246930  71.4707440 120.1093650  24.7960290  70.6559200 119.7295380
  26.0729230  71.4277250 119.9859340  14.4032160  83.3362720 119.4729940
  13.6766220  82.7168010 119.4055890  14.4641310  83.7303330 118.6028020
  18.0077260  85.5507720 116.2579350  18.5242280  84.9395080 115.7327610
  18.6574640  86.0536500 116.7490360  20.7472760  86.4416210 117.0848330
  21.0350570  86.1870510 116.2081340  21.2595980  85.8893570 117.6753900
  21.9649770  70.1806410 117.6644840  21.1821560  70.6551910 117.9441600
  21.6712700  69.2761240 117.5558020  26.5170840  70.8829510 115.7093930
  26.9578930  70.8274610 114.8615530  26.2478430  71.7987520 115.7804110
  28.3809410  70.5144750 113.7202750  28.3197810  69.5705970 113.5733770
  29.1601440  70.6224840 114.2656210  12.6862160  86.6537110 112.6826700
  12.5184200  86.0207790 113.3808590  11.8196670  86.8596510 112.3320890
  13.3090180  70.4853890 110.1858560  14.0669540  70.5982770 109.6122590
  12.8467350  71.3223090 110.1401990  19.8503990  72.5993160 113.1760870
  19.0378500  72.2250050 112.8356750  20.3545630  71.8438240 113.4782060
  24.3528970  69.2635610 114.4143940  24.9558340  69.8355820 114.8892460
  23.6121960  69.8275050 114.1917840  14.2924860  85.3470340 110.1276840
  13.7672480  85.7278370 109.4238800  14.2169440  85.9721110 110.8486550
  15.6815330  71.0117940 108.7260530  16.2108090  70.2247740 108.5968480
  16.3143650  71.6909130 108.9596060  17.8753170  70.7493080 111.7805920
  17.2455910  70.0480390 111.9476050  17.3358310  71.5097210 111.5639080
  20.8145120  87.3632310 124.4516530  21.7412430  87.1276580 124.4952490
  20.7995550  88.1904310 123.9702560  18.0008730  70.0277060 124.2158410
  17.7193000  70.5310660 123.4519230  18.3828430  69.2298810 123.8500540
  16.8917830  87.2952720 109.0026090  17.6236650  87.0112000 108.4549980
  17.1511500  87.0566000 109.8925470  16.0532620  83.4117450 109.0072420
  15.4241500  83.8802550 109.5558250  16.1680450  82.5666670 109.4418610
  24.6024190  69.4430640 124.7938880  24.4889640  69.7625250 125.6890400
  25.4193930  69.8443150 124.4976160  27.3822680  86.5902170 124.2757570
  28.1748000  86.0951400 124.0683530  27.6755830  87.2692310 124.8833180
  21.6400380  79.2402130  97.0382890  20.8642480  78.7602570  97.3281460
  22.2913310  78.5607780  96.8639050  15.6566210  79.5521940  97.9158650
  14.8251090  79.2970650  98.3155160  16.2647190  79.6232710  98.6516570
  15.6367470  83.5862030  98.1116670  15.9395510  82.6959770  97.9326890
  16.3811060  84.1432250  97.8838920  12.0291170  77.1129480  97.5840740
  12.6007280  76.3451680  97.5844380  12.0292710  77.4118240  96.6747350
  21.8871120  85.9320330  95.4386010  21.2682560  86.3877830  94.8680450
  22.7422900  86.0871790  95.0375710  21.0809370  81.9159320  97.0453050
  21.0117650  80.9749260  96.8842180  21.8429230  82.0060730  97.6175620
  13.2716040  72.5213840  99.3709670  13.0918880  71.6239590  99.6512430
  12.8696120  73.0685710 100.0456620  13.8902710  75.0174340  97.9792010
  14.5712820  75.2812710  98.5979410  13.5750760  74.1775210  98.3130020
  18.0827280  76.0641700  97.0664600  18.5905500  76.5622670  97.7069620
  18.6140520  75.2876900  96.8903960  30.1838210  74.2346890 100.7693950
  29.4790380  74.6228600 100.2509060  30.4496130  74.9297180 101.3714880
  16.3663380  70.7040260 101.3328020  16.3681820  71.2212650 100.5273920
  15.5367690  70.2270440 101.3097950  17.6166230  80.3435440  99.5101520
  17.2835610  80.9704360 100.1522590  17.7932910  80.8697320  98.7303190
  16.0478710  72.4150220  99.3398470  16.3895520  73.2592270  99.0452340
  15.1094520  72.5633960  99.4563810  12.1217670  81.5016100  90.2057550
  11.7445650  81.9903200  89.4742450  12.3790740  82.1741380  90.8364080
  19.7306600  69.9032490  95.6643060  20.0381580  69.3479380  94.9478560
  18.8007300  70.0376950  95.4816050  26.1484650  79.5301620  92.9038430
  25.5297070  79.1921170  92.2564730  26.1309100  78.8861380  93.6117620
  25.5911210  75.7086160 100.3204240  25.1782390  76.5339870 100.5744230
  24.8587160  75.1231200 100.1280600  17.7244000  78.4946060  95.1822910
  17.3201000  77.7823310  94.6868810  17.8107120  78.1499300  96.0710950
  18.1925700  82.1813620  97.3462120  17.8953990  81.5759090  96.6669900
  19.1425520  82.2190930  97.2351480  16.4372620  75.2689270  98.9621950
  16.9887210  75.3784610  98.1875200  16.9516130  75.6426870  99.6777180
  26.2811310  85.7545490 101.0085220  25.8041870  86.5617680 100.8157830
  25.5973100  85.1023820 101.1611430  16.1115350  78.7908630 102.5727290
  15.9723120  79.6631430 102.9414690  15.2296710  78.4481440 102.4275230
  22.4344730  83.7084500  93.8792420  22.8740640  84.4508830  93.4647810
  22.3731620  83.9511070  94.8031380  14.4248630  77.3891040  92.6829560
  14.3046230  78.1153130  92.0710830  14.1149520  76.6193950  92.2057470
  12.0634000  80.5606180  98.4898200  12.1414420  80.6954950  97.5453920
  12.6775680  79.8522070  98.6826320  13.3081630  82.2606370  94.9004380
  12.9009710  82.4020960  94.0457980  14.1994640  81.9766530  94.6975590
  23.1260510  86.4098280 101.8071430  23.6405180  86.3206290 102.6093860
  22.2829590  86.7557980 102.0999340  17.5803290  86.4752150  93.0127050
  17.4045770  85.5587690  92.7994850  16.7259030  86.8339440  93.2524850
  12.1193520  81.6020350 101.0292660  12.2824560  81.1325710 100.2112030
  12.5845970  81.0943910 101.6941500  16.8912290  70.7326110  96.0653230
  16.4480440  71.5135650  95.7337750  17.4497280  71.0556000  96.7724170
  21.1782100  73.5994630 101.6688550  20.7161470  73.8077650 102.4808490
  20.7760210  72.7853980 101.3659220  26.1786610  74.8203580 102.7985210
  25.3280200  74.5209330 103.1194280  26.0188400  75.0645590 101.8869030
  23.2736320  76.3205330 104.8984000  23.5989730  75.4869080 104.5586230
  24.0616650  76.8433850 105.0462330  20.0071110  70.3536810  90.9459060
  19.3825290  70.3496680  91.6712370  19.9201230  69.4867770  90.5495030
  18.9288190  71.2773440  97.9242830  19.2260520  72.1836270  97.8434850
  19.4773750  70.7892220  97.3102400  16.6826510  75.8559680  93.7934480
  16.4567430  75.6396850  94.6981100  15.9019040  76.2888140  93.4480450
  19.1225720  76.7545260 104.4594750  19.0269320  75.8139990 104.3095150
  19.9657700  76.9760330 104.0642820  14.2536260  73.1658930 102.6128530
  13.8599650  74.0134140 102.8201310  13.5654660  72.5285300 102.8037170
  20.8281310  73.2493900 105.6825270  20.1379630  73.0566100 106.3171360
  21.5713610  73.5328540 106.2149570  11.5553310  71.0887390  96.6458610
  11.2666360  71.6590250  97.3583590  12.2999070  70.6091840  97.0089840
  23.1044280  77.0892340  98.5179190  22.3725400  77.5979150  98.8669290
  22.7068620  76.2722320  98.2167970  19.5421670  73.7646540  96.9231680
  19.5457730  73.3236490  96.0736220  20.4372790  74.0863870  97.0303500
  15.3924050  73.6473030  95.8825890  15.0524100  74.1248260  96.6392940
  14.6301370  73.1938150  95.5226990  23.5670190  72.5426020  97.9302130
  23.5842930  72.9934670  98.7743980  23.3185770  71.6431660  98.1435570
  18.6163320  77.0759760  89.3121740  18.0480220  76.6278010  88.6857650
  19.3252320  77.4352540  88.7786890  13.6932500  80.9771780 103.1888470
  13.3087290  80.3365450 103.7871430  14.0044690  81.6807900 103.7583200
  19.8429640  77.8248320  98.6697090  20.2099770  77.3506890  99.4158430
  19.6534700  78.6989890  99.0105430  12.7070130  72.5692010  94.7990560
  12.4217050  72.2047680  95.6369180  12.6448990  71.8372470  94.1853700
  17.6329010  76.8656960 100.9881300  17.3286080  77.7448940 101.2131660
  18.5875470  76.9256750 101.0238740  16.1610800  81.0717950  91.5848150
  15.3873060  80.5315570  91.4246870  16.8905430  80.5524560  91.2465910
  22.3808720  71.4621270  91.5203930  21.5673330  70.9634440  91.4449240
  22.1870670  72.3019520  91.1040280  16.2048200  80.7398330  95.2226960
  16.7226870  79.9366590  95.1683850  15.7532220  80.6777470  96.0643790
  13.6892740  77.7059700 102.1352660  13.3307680  78.3713550 102.7226000
  13.3947300  76.8743250 102.5065280  16.8905860  78.1643940 105.0192210
  16.5906000  78.3101120 104.1220030  17.6617100  77.6049230 104.9265600
  23.9745110  81.3280450  95.8599770  24.3268930  80.7308580  95.2001140
  23.0907440  81.0024680  96.0308020  20.0608390  82.0878140  93.2670180
  20.7479520  82.6347350  93.6477770  19.2740810  82.6318870  93.3019790
  12.2000790  77.7050960  88.7587260  13.0695640  77.9875760  89.0423180
  11.7091110  78.5186830  88.6436070  19.3635600  79.0924170  92.8795540
  19.8198380  79.9029420  93.1055730  19.0123810  78.7747310  93.7114030
  21.6668210  84.6030510 100.1087840  22.3110430  84.8089890 100.7861260
  22.0297650  83.8418910  99.6558690  22.9400290  82.6062860  98.8265290
  23.5822520  81.9056020  98.9397460  23.4649640  83.3861300  98.6462180
  24.7137910  83.4057760 102.0301350  25.0494150  83.9924450 102.7079270
  23.7938250  83.2750470 102.2599140  12.5672040  86.9178340  89.3248890
  12.9269680  87.5167680  88.6706160  12.4264380  87.4638230  90.0983920
  12.2641310  71.1952940 102.8124760  11.5499830  71.3949860 103.4177370
  12.6836350  70.4192510 103.1839560  12.5513900  85.1833200 103.7991290
  12.6605020  84.2427940 103.6586680  11.8994460  85.4487950 103.1505020
  14.1847300  79.5224430  90.8869320  13.5775250  80.2623330  90.8964620
  14.6596650  79.6123790  90.0607520  23.7580090  73.6875250 100.5626210
  24.1260910  72.8670460 100.8905780  22.8978290  73.7477140 100.9781860
  20.7182080  76.3414840 100.7864180  21.2167330  76.8160660 101.4516030
  20.8605030  75.4178360 100.9934210  20.2118370  86.8824100  93.4995420
  20.4659870  86.8445490  92.5774790  19.2630850  86.7557430  93.4923670
  26.2170950  77.8015980  95.0753930  25.2761090  77.8166210  95.2501620
  26.5315020  77.0151940  95.5214230  16.1952590  79.4835580  88.6357890
  16.9615860  79.3716940  89.1983320  16.2727280  78.7873550  87.9834660
  15.6914060  87.0656040  96.4225320  16.4276540  86.5171500  96.6933890
  16.0754980  87.9312050  96.2831310  12.5759540  83.1329610  92.2966830
  11.6499320  83.3750750  92.2872240  13.0415970  83.9603870  92.1751580
  24.9637340  86.0862270 104.1695720  25.9159090  86.0020290 104.1195960
  24.8165560  86.7503980 104.8429510  12.4170150  78.7375570 104.5546950
  12.9209170  78.1582850 105.1263180  11.6777570  79.0215800 105.0923320
  14.4493230  76.8805160 105.4497020  14.4898570  76.5819030 106.3582250
  15.3038730  77.2812770 105.2904540  18.2271620  79.4800710  90.6100530
  18.6488040  79.3140580  91.4531920  18.3522460  78.6700940  90.1155670
  16.3899040  75.4597260 103.4171510  15.8595500  74.9688210 102.7894850
  17.0587110  75.8881460 102.8829440  16.8771340  72.4259630 103.4968800
  16.7828210  71.8080380 102.7719670  16.2968730  73.1525920 103.2698710
  19.6432780  70.9832870 100.5296190  19.1950080  71.0057130  99.6841740
  19.0097980  70.5851890 101.1266490  20.0492330  79.8787200 101.1508630
  20.4680440  80.7219930 100.9784870  19.1300960  80.0159240 100.9215410
  22.3856230  77.6103380 102.5346470  22.5052440  77.0144520 103.2741310
  23.2450230  77.6473070 102.1147770  17.1230520  75.5533940  87.5558690
  16.9219580  74.6901300  87.9172030  16.9522570  75.4667300  86.6180290
  19.1525000  74.1524730 103.7922290  19.7424690  73.8440580 104.4800110
  18.3345240  73.6804480 103.9482190  23.9718430  73.7690540 104.0255310
  23.2833950  73.1072080 103.9605300  24.6924450  73.3228810 104.4703770
  20.7561960  87.4191420 102.5253010  20.6820660  88.3226560 102.8325380
  19.8540800  87.1003320 102.4975080  19.1398250  71.5969180  88.5292770
  18.7920250  70.9193170  87.9495220  19.3411020  71.1358690  89.3436160
  14.9443450  81.9576980  88.3766370  15.3818320  82.5006650  89.0323950
  15.4291180  81.1323930  88.3862710  12.1589250  84.7466010  95.8286630
  12.4892260  83.8787070  95.5965270  12.5880250  84.9524530  96.6591590
  16.7551170  83.0775020  93.4888600  16.4546710  82.9539990  94.3892510
  16.6488660  82.2183610  93.0804330  12.6479460  85.6136600  98.5668260
  12.2110450  85.7937400  99.3992410  13.2157140  86.3711220  98.4249980
  28.2841640  85.1153600 102.8545570  27.6843630  85.1746160 102.1109490
  28.4135540  84.1758580 102.9842420  28.9799550  79.6018900  90.6949480
  29.7418460  80.1715550  90.8009170  28.9953920  79.0346100  91.4657790
  12.4803890  78.1256830  94.9257140  11.8252730  77.8568470  94.2816840
  13.3181840  78.0161310  94.4759120  28.9284060  77.8322260  92.8451430
  28.5527660  77.0650190  92.4132720  28.1987180  78.2144960  93.3326360
  13.5179820  78.5109400  99.4660480  13.8852860  78.4236800 100.3456500
  12.9490640  77.7475950  99.3667340  13.0695820  75.4218490 103.3718900
  12.1751870  75.3885250 103.7112610  13.6093370  75.6205280 104.1370150
  28.3824740  76.1419620  99.6678220  27.4327450  76.1083160  99.7823210
  28.5637750  77.0519730  99.4327990  13.5735530  69.6966820  97.7202120
  14.2211720  69.1464200  97.2797280  13.9937370  69.9509970  98.5417930
  27.4687870  69.8908180 101.0771760  28.1060090  70.5042320 101.4430950
  27.6162760  69.9268840 100.1320990  13.3267530  69.8522490 100.4627440
  12.9782350  70.3086310 101.2285620  12.9955230  68.9579620 100.5449870
  18.6337930  84.5801680 100.2290350  18.3929290  84.8476240  99.3420870
  19.5740570  84.7507410 100.2841210  20.8392350  71.0434370 103.9846860
  20.7781240  71.6356200 104.7342270  21.7792730  70.9360330 103.8397120
  23.4766910  70.7004430 103.6239150  24.0907320  71.0183720 102.9620230
  24.0216470  70.2153020 104.2435010  29.8942090  86.5996060 101.0300990
  29.4000370  86.9964930 100.3128120  29.2855380  85.9745270 101.4238270
  13.9988170  69.3798690 103.7378210  14.5471160  69.1986740 102.9744320
  14.0643480  68.5892800 104.2734520  14.7719930  85.9704340 101.7478410
  14.1780250  85.8389040 102.4868450  14.7643770  85.1342480 101.2820510
  24.2174950  69.2636570  99.9508440  23.3434790  69.5971680  99.7481370
  24.1085700  68.7909750 100.7760310  25.1246930  71.4707440 101.3350160
  24.7960290  70.6559200 100.9551890  26.0729230  71.4277250 101.2115850
  14.4032160  83.3362720 100.6986450  13.6766220  82.7168010 100.6312400
  14.4641310  83.7303330  99.8284530  18.0077260  85.5507720  97.4835860
  18.5242280  84.9395080  96.9584120  18.6574640  86.0536500  97.9746870
  20.7472760  86.4416210  98.3104840  21.0350570  86.1870510  97.4337850
  21.2595980  85.8893570  98.9010410  21.9649770  70.1806410  98.8901350
  21.1821560  70.6551910  99.1698110  21.6712700  69.2761240  98.7814530
  12.6862160  86.6537110  93.9083210  12.5184200  86.0207790  94.6065100
  11.8196670  86.8596510  93.5577400  14.2924860  85.3470340  91.3533350
  13.7672480  85.7278370  90.6495310  14.2169440  85.9721110  92.0743060
  17.8753170  70.7493080  93.0062430  17.2455910  70.0480390  93.1732560
  17.3358310  71.5097210  92.7895590  20.8145120  87.3632310 105.6773040
  21.7412430  87.1276580 105.7209000  20.7995550  88.1904310 105.1959070
  18.0008730  70.0277060 105.4414920  17.7193000  70.5310660 104.6775740
  18.3828430  69.2298810 105.0757050  16.0532620  83.4117450  90.2328930
  15.4241500  83.8802550  90.7814760  16.1680450  82.5666670  90.6675120
  24.6024190  69.4430640 106.0195390  24.4889640  69.7625250 106.9146910
  25.4193930  69.8443150 105.7232670  27.3822680  86.5902170 105.5014080
  28.1748000  86.0951400 105.2940040  27.6755830  87.2692310 106.1089690
  23.5082340  77.4623110  76.3830130  23.4276390  76.5477720  76.1121840
  23.0946760  77.9590180  75.6769840  21.6400380  79.2402130  78.2639400
  20.8642480  78.7602570  78.5537970  22.2913310  78.5607780  78.0895560
  15.6566210  79.5521940  79.1415160  14.8251090  79.2970650  79.5411670
  16.2647190  79.6232710  79.8773080  14.0658160  74.5123830  72.9257550
  13.1774860  74.8539800  72.8237430  14.3499350  74.3124150  72.0338380
  12.0291170  77.1129480  78.8097250  12.6007280  76.3451680  78.8100890
  12.0292710  77.4118240  77.9003860  21.8871120  85.9320330  76.6642520
  21.2682560  86.3877830  76.0936960  22.7422900  86.0871790  76.2632220
  21.0809370  81.9159320  78.2709560  21.0117650  80.9749260  78.1098690
  21.8429230  82.0060730  78.8432130  13.2716040  72.5213840  80.5966180
  13.0918880  71.6239590  80.8768940  12.8696120  73.0685710  81.2713130
  16.2419550  73.0955330  73.9595930  16.3486300  73.9959060  74.2664690
  15.3311910  73.0473300  73.6690580  13.8902710  75.0174340  79.2048520
  14.5712820  75.2812710  79.8235920  13.5750760  74.1775210  79.5386530
  18.0827280  76.0641700  78.2921110  18.5905500  76.5622670  78.9326130
  18.6140520  75.2876900  78.1160470  16.3663380  70.7040260  82.5584530
  16.3681820  71.2212650  81.7530430  15.5367690  70.2270440  82.5354460
  22.7534470  80.8159570  74.0574430  22.1351740  81.2809020  73.4937150
  23.2657720  81.5087050  74.4743940  17.6166230  80.3435440  80.7358030
  17.2835610  80.9704360  81.3779100  17.7932910  80.8697320  79.9559700
  16.0478710  72.4150220  80.5654980  16.3895520  73.2592270  80.2708850
  15.1094520  72.5633960  80.6820320  16.8285330  82.3116240  82.5507210
  17.4459330  82.9867320  82.2691660  15.9678450  82.7204220  82.4594710
  19.7306600  69.9032490  76.8899570  20.0381580  69.3479380  76.1735070
  18.8007300  70.0376950  76.7072560  25.2821660  85.6199780  79.1807030
  25.2948820  85.2162070  78.3129290  24.7296880  86.3947070  79.0768460
  24.6807100  80.5229620  80.5089640  25.0975890  80.3089730  79.6743100
  25.4046920  80.7802410  81.0798260  22.1187360  77.9681320  73.6259690
  21.1916640  77.9018700  73.8548160  22.2712180  78.9061450  73.5114930
  22.1056440  74.2398320  70.6226850  21.1660110  74.4012280  70.7079310
  22.4239700  74.9584000  70.0762840  17.7244000  78.4946060  76.4079420
  17.3201000  77.7823310  75.9125320  17.8107120  78.1499300  77.2967460
  18.1925700  82.1813620  78.5718630  17.8953990  81.5759090  77.8926410
  19.1425520  82.2190930  78.4607990  26.2811310  85.7545490  82.2341730
  25.8041870  86.5617680  82.0414340  25.5973100  85.1023820  82.3867940
  17.2844130  81.9195310  85.2226430  16.3872660  82.1435280  85.4699830
  17.3097000  82.0430250  84.2737830  22.4344730  83.7084500  75.1048930
  22.8740640  84.4508830  74.6904320  22.3731620  83.9511070  76.0287890
  14.4248630  77.3891040  73.9086070  14.3046230  78.1153130  73.2967340
  14.1149520  76.6193950  73.4313980  12.0634000  80.5606180  79.7154710
  12.1414420  80.6954950  78.7710430  12.6775680  79.8522070  79.9082830
  13.3081630  82.2606370  76.1260890  12.9009710  82.4020960  75.2714490
  14.1994640  81.9766530  75.9232100  23.1260510  86.4098280  83.0327940
  23.6405180  86.3206290  83.8350370  22.2829590  86.7557980  83.3255850
  17.5803290  86.4752150  74.2383560  17.4045770  85.5587690  74.0251360
  16.7259030  86.8339440  74.4781360  29.1167780  74.7602740  85.4282870
  28.5012050  75.2682410  84.8998330  28.7964200  73.8601070  85.3708810
  12.1193520  81.6020350  82.2549170  12.2824560  81.1325710  81.4368540
  12.5845970  81.0943910  82.9198010  16.8912290  70.7326110  77.2909740
  16.4480440  71.5135650  76.9594260  17.4497280  71.0556000  77.9980680
  20.0071110  70.3536810  72.1715570  19.3825290  70.3496680  72.8968880
  19.9201230  69.4867770  71.7751540  16.6826510  75.8559680  75.0190990
  16.4567430  75.6396850  75.9237610  15.9019040  76.2888140  74.6736960
  22.5189140  74.4986590  75.6484920  22.9118710  74.8158790  74.8353610
  22.8805990  73.6198470  75.7629440  14.2536260  73.1658930  83.8385040
  13.8599650  74.0134140  84.0457820  13.5654660  72.5285300  84.0293680
  11.5553310  71.0887390  77.8715120  11.2666360  71.6590250  78.5840100
  12.2999070  70.6091840  78.2346350  11.7423540  75.0307510  69.0817840
  11.6598210  75.9738270  69.2232830  11.3906600  74.8882420  68.2030190
  23.1044280  77.0892340  79.7435700  22.3725400  77.5979150  80.0925800
  22.7068620  76.2722320  79.4424480  19.5421670  73.7646540  78.1488190
  19.5457730  73.3236490  77.2992730  20.4372790  74.0863870  78.2560010
  15.3924050  73.6473030  77.1082400  15.0524100  74.1248260  77.8649450
  14.6301370  73.1938150  76.7483500  19.6041820  74.7658620  71.1394950
  19.7254640  74.7245100  72.0880770  19.2190330  75.6282770  70.9841680
  18.6163320  77.0759760  70.5378250  18.0480220  76.6278010  69.9114160
  19.3252320  77.4352540  70.0043400  13.6932500  80.9771780  84.4144980
  13.3087290  80.3365450  85.0127940  14.0044690  81.6807900  84.9839710
  19.8429640  77.8248320  79.8953600  20.2099770  77.3506890  80.6414940
  19.6534700  78.6989890  80.2361940  12.7070130  72.5692010  76.0247070
  12.4217050  72.2047680  76.8625690  12.6448990  71.8372470  75.4110210
  22.3808720  71.4621270  72.7460440  21.5673330  70.9634440  72.6705750
  22.1870670  72.3019520  72.3296790  16.2048200  80.7398330  76.4483470
  16.7226870  79.9366590  76.3940360  15.7532220  80.6777470  77.2900300
  13.6892740  77.7059700  83.3609170  13.3307680  78.3713550  83.9482510
  13.3947300  76.8743250  83.7321790  16.8905860  78.1643940  86.2448720
  16.5906000  78.3101120  85.3476540  17.6617100  77.6049230  86.1522110
  20.0608390  82.0878140  74.4926690  20.7479520  82.6347350  74.8734280
  19.2740810  82.6318870  74.5276300  19.3635600  79.0924170  74.1052050
  19.8198380  79.9029420  74.3312240  19.0123810  78.7747310  74.9370540
  21.6668210  84.6030510  81.3344350  22.3110430  84.8089890  82.0117770
  22.0297650  83.8418910  80.8815200  15.2647380  69.4361820  74.5774570
  15.1362010  69.4279720  75.5259490  14.4409400  69.7744910  74.2265580
  22.9400290  82.6062860  80.0521800  23.5822520  81.9056020  80.1653970
  23.4649640  83.3861300  79.8718690  24.7137910  83.4057760  83.2557860
  25.0494150  83.9924450  83.9335780  23.7938250  83.2750470  83.4855650
  12.5672040  86.9178340  70.5505400  12.9269680  87.5167680  69.8962670
  12.4264380  87.4638230  71.3240430  12.2641310  71.1952940  84.0381270
  11.5499830  71.3949860  84.6433880  12.6836350  70.4192510  84.4096070
  12.5513900  85.1833200  85.0247800  12.6605020  84.2427940  84.8843190
  11.8994460  85.4487950  84.3761530  19.0926150  74.9218140  74.0128160
  18.3842300  75.3904480  74.4541770  19.3770630  74.2640150  74.6473350
  20.2118370  86.8824100  74.7251930  20.4659870  86.8445490  73.8031300
  19.2630850  86.7557430  74.7180180  17.2961170  73.2303220  71.3878870
  18.1451700  73.6673370  71.3219060  16.9292440  73.5423480  72.2150930
  12.5759540  83.1329610  73.5223340  11.6499320  83.3750750  73.5128750
  13.0415970  83.9603870  73.4008090  12.4170150  78.7375570  85.7803460
  12.9209170  78.1582850  86.3519690  11.6777570  79.0215800  86.3179830
  14.4493230  76.8805160  86.6753530  14.4898570  76.5819030  87.5838760
  15.3038730  77.2812770  86.5161050  18.2271620  79.4800710  71.8357040
  18.6488040  79.3140580  72.6788430  18.3522460  78.6700940  71.3412180
  25.2877100  79.9266720  84.4069210  25.7018120  80.0811800  85.2559630
  24.3528100  80.0521940  84.5694990  16.8771340  72.4259630  84.7225310
  16.7828210  71.8080380  83.9976180  16.2968730  73.1525920  84.4955220
  20.0492330  79.8787200  82.3765140  20.4680440  80.7219930  82.2041380
  19.1300960  80.0159240  82.1471920  24.7244130  78.1640570  82.3365490
  24.1979350  78.6883190  81.7330630  25.0675470  78.7967960  82.9675220
  17.1230520  75.5533940  68.7815200  16.9219580  74.6901300  69.1428540
  16.9522570  75.4667300  67.8436800  17.8999750  86.1840210  83.4922870
  17.3620840  86.9086270  83.1731570  18.1533710  85.7070550  82.7020210
  24.6018830  70.3642170  71.3102080  24.8821120  69.5210070  71.6661500
  23.8284560  70.5965280  71.8240830  15.9213320  72.6534560  68.7693080
  16.2239220  72.6601990  67.8612230  16.6607910  72.3032420  69.2660740
  20.7561960  87.4191420  83.7509520  20.6820660  88.3226560  84.0581890
  19.8540800  87.1003320  83.7231590  19.1398250  71.5969180  69.7549280
  18.7920250  70.9193170  69.1751730  19.3411020  71.1358690  70.5692670
  12.1589250  84.7466010  77.0543140  12.4892260  83.8787070  76.8221780
  12.5880250  84.9524530  77.8848100  16.7551170  83.0775020  74.7145110
  16.4546710  82.9539990  75.6149020  16.6488660  82.2183610  74.3060840
  12.6479460  85.6136600  79.7924770  12.2110450  85.7937400  80.6248920
  13.2157140  86.3711220  79.6506490  28.2841640  85.1153600  84.0802080
  27.6843630  85.1746160  83.3366000  28.4135540  84.1758580  84.2098930
  29.5243090  82.8571420  69.4171790  28.6936050  82.9248070  69.8879020
  29.7014920  83.7475540  69.1138650  12.4803890  78.1256830  76.1513650
  11.8252730  77.8568470  75.5073350  13.3181840  78.0161310  75.7015630
  26.9693280  81.8405580  82.1778240  26.1553120  82.2702740  82.4404030
  27.3767480  82.4523990  81.5647290  13.5179820  78.5109400  80.6916990
  13.8852860  78.4236800  81.5713010  12.9490640  77.7475950  80.5923850
  13.0695820  75.4218490  84.5975410  12.1751870  75.3885250  84.9369120
  13.6093370  75.6205280  85.3626660  11.6941970  75.3355760  72.0938980
  10.7906050  75.5985960  71.9190640  12.1782590  75.6066930  71.3138940
  14.2369180  74.3921300  70.0033360  14.9460880  73.9704520  69.5180640
  13.5209120  74.4596530  69.3716710  13.8843340  70.4460630  69.0436010
  14.6071470  70.9869570  69.3617230  14.1567860  70.1724050  68.1677550
  13.5735530  69.6966820  78.9458630  14.2211720  69.1464200  78.5053790
  13.9937370  69.9509970  79.7674440  13.3267530  69.8522490  81.6883950
  12.9782350  70.3086310  82.4542130  12.9955230  68.9579620  81.7706380
  14.9331900  83.0242090  85.8537140  14.8901530  82.6535000  86.7351600
  15.0642910  83.9619660  85.9938960  20.8392350  71.0434370  85.2103370
  20.7781240  71.6356200  85.9598780  21.7792730  70.9360330  85.0653630
  29.8942090  86.5996060  82.2557500  29.4000370  86.9964930  81.5384630
  29.2855380  85.9745270  82.6494780  13.9988170  69.3798690  84.9634720
  14.5471160  69.1986740  84.2000830  14.0643480  68.5892800  85.4991030
  14.7719930  85.9704340  82.9734920  14.1780250  85.8389040  83.7124960
  14.7643770  85.1342480  82.5077020  27.5781540  87.2419480  79.5344240
  27.1184510  87.9935290  79.1602260  26.9494000  86.5225950  79.4759040
  14.4032160  83.3362720  81.9242960  13.6766220  82.7168010  81.8568910
  14.4641310  83.7303330  81.0541040  12.6862160  86.6537110  75.1339720
  12.5184200  86.0207790  75.8321610  11.8196670  86.8596510  74.7833910
  13.3090180  70.4853890  72.6371580  14.0669540  70.5982770  72.0635610
  12.8467350  71.3223090  72.5915010  19.8503990  72.5993160  75.6273890
  19.0378500  72.2250050  75.2869770  20.3545630  71.8438240  75.9295080
  24.3528970  69.2635610  76.8656960  24.9558340  69.8355820  77.3405480
  23.6121960  69.8275050  76.6430860  14.2924860  85.3470340  72.5789860
  13.7672480  85.7278370  71.8751820  14.2169440  85.9721110  73.2999570
  15.6815330  71.0117940  71.1773550  16.2108090  70.2247740  71.0481500
  16.3143650  71.6909130  71.4109080  17.8753170  70.7493080  74.2318940
  17.2455910  70.0480390  74.3989070  17.3358310  71.5097210  74.0152100
  18.0008730  70.0277060  86.6671430  17.7193000  70.5310660  85.9032250
  18.3828430  69.2298810  86.3013560  16.8917830  87.2952720  71.4539110
  17.6236650  87.0112000  70.9063000  17.1511500  87.0566000  72.3438490
  14.0658160  74.5123830  54.1514060  13.1774860  74.8539800  54.0493940
  14.3499350  74.3124150  53.2594890  12.0291170  77.1129480  60.0353760
  12.6007280  76.3451680  60.0357400  12.0292710  77.4118240  59.1260370
  13.2716040  72.5213840  61.8222690  13.0918880  71.6239590  62.1025450
  12.8696120  73.0685710  62.4969640  16.2419550  73.0955330  55.1852440
  16.3486300  73.9959060  55.4921200  15.3311910  73.0473300  54.8947090
  13.8902710  75.0174340  60.4305030  14.5712820  75.2812710  61.0492430
  13.5750760  74.1775210  60.7643040  16.3663380  70.7040260  63.7841040
  16.3681820  71.2212650  62.9786940  15.5367690  70.2270440  63.7610970
  16.0478710  72.4150220  61.7911490  16.3895520  73.2592270  61.4965360
  15.1094520  72.5633960  61.9076830  12.1217670  81.5016100  52.6570570
  11.7445650  81.9903200  51.9255470  12.3790740  82.1741380  53.2877100
  19.7306600  69.9032490  58.1156080  20.0381580  69.3479380  57.3991580
  18.8007300  70.0376950  57.9329070  22.1187360  77.9681320  54.8516200
  21.1916640  77.9018700  55.0804670  22.2712180  78.9061450  54.7371440
  22.1056440  74.2398320  51.8483360  21.1660110  74.4012280  51.9335820
  22.4239700  74.9584000  51.3019350  14.4248630  77.3891040  55.1342580
  14.3046230  78.1153130  54.5223850  14.1149520  76.6193950  54.6570490
  29.8610520  85.5157430  68.5289630  30.3370240  85.9940320  69.2078710
  30.4817680  85.4474920  67.8035130  12.0634000  80.5606180  60.9411220
  12.1414420  80.6954950  59.9966940  12.6775680  79.8522070  61.1339340
  13.3081630  82.2606370  57.3517400  12.9009710  82.4020960  56.4971000
  14.1994640  81.9766530  57.1488610  17.5803290  86.4752150  55.4640070
  17.4045770  85.5587690  55.2507870  16.7259030  86.8339440  55.7037870
  12.1193520  81.6020350  63.4805680  12.2824560  81.1325710  62.6625050
  12.5845970  81.0943910  64.1454520  16.8912290  70.7326110  58.5166250
  16.4480440  71.5135650  58.1850770  17.4497280  71.0556000  59.2237190
  20.0071110  70.3536810  53.3972080  19.3825290  70.3496680  54.1225390
  19.9201230  69.4867770  53.0008050  18.9288190  71.2773440  60.3755850
  19.2260520  72.1836270  60.2947870  19.4773750  70.7892220  59.7615420
  16.6826510  75.8559680  56.2447500  16.4567430  75.6396850  57.1494120
  15.9019040  76.2888140  55.8993470  23.9124270  75.8623050  54.8438150
  23.3133160  76.5858850  54.6601770  24.4603880  75.7999830  54.0614600
  19.1225720  76.7545260  66.9107770  19.0269320  75.8139990  66.7608170
  19.9657700  76.9760330  66.5155840  22.5189140  74.4986590  56.8741430
  22.9118710  74.8158790  56.0610120  22.8805990  73.6198470  56.9885950
  14.2536260  73.1658930  65.0641550  13.8599650  74.0134140  65.2714330
  13.5654660  72.5285300  65.2550190  20.8281310  73.2493900  68.1338290
  20.1379630  73.0566100  68.7684380  21.5713610  73.5328540  68.6662590
  11.5553310  71.0887390  59.0971630  11.2666360  71.6590250  59.8096610
  12.2999070  70.6091840  59.4602860  11.7423540  75.0307510  50.3074350
  11.6598210  75.9738270  50.4489340  11.3906600  74.8882420  49.4286700
  15.3924050  73.6473030  58.3338910  15.0524100  74.1248260  59.0905960
  14.6301370  73.1938150  57.9740010  19.6041820  74.7658620  52.3651460
  19.7254640  74.7245100  53.3137280  19.2190330  75.6282770  52.2098190
  18.6163320  77.0759760  51.7634760  18.0480220  76.6278010  51.1370670
  19.3252320  77.4352540  51.2299910  26.9940940  69.9558200  66.2201530
  27.3186710  69.2247860  66.7459510  27.0297450  69.6371840  65.3182520
  12.7070130  72.5692010  57.2503580  12.4217050  72.2047680  58.0882200
  12.6448990  71.8372470  56.6366720  16.1610800  81.0717950  54.0361170
  15.3873060  80.5315570  53.8759890  16.8905430  80.5524560  53.6978930
  22.3808720  71.4621270  53.9716950  21.5673330  70.9634440  53.8962260
  22.1870670  72.3019520  53.5553300  25.0957110  75.8340920  52.2679110
  25.9836730  76.1458150  52.0930450  25.0662200  74.9613170  51.8759690
  20.0608390  82.0878140  55.7183200  20.7479520  82.6347350  56.0990790
  19.2740810  82.6318870  55.7532810  12.2000790  77.7050960  51.2100280
  13.0695640  77.9875760  51.4936200  11.7091110  78.5186830  51.0949090
  19.3635600  79.0924170  55.3308560  19.8198380  79.9029420  55.5568750
  19.0123810  78.7747310  56.1627050  15.2647380  69.4361820  55.8031080
  15.1362010  69.4279720  56.7516000  14.4409400  69.7744910  55.4522090
  12.5672040  86.9178340  51.7761910  12.9269680  87.5167680  51.1219180
  12.4264380  87.4638230  52.5496940  12.2641310  71.1952940  65.2637780
  11.5499830  71.3949860  65.8690390  12.6836350  70.4192510  65.6352580
  12.5513900  85.1833200  66.2504310  12.6605020  84.2427940  66.1099700
  11.8994460  85.4487950  65.6018040  18.5840660  84.3009540  52.5935580
  18.5750760  85.0339230  51.9780090  17.6639020  84.0541120  52.6862540
  14.1847300  79.5224430  53.3382340  13.5775250  80.2623330  53.3477640
  14.6596650  79.6123790  52.5120540  21.5700260  84.3637780  51.2560770
  21.6712240  84.1601770  50.3262750  20.6702000  84.1096060  51.4608550
  19.0926150  74.9218140  55.2384670  18.3842300  75.3904480  55.6798280
  19.3770630  74.2640150  55.8729860  23.1241580  71.6468800  56.6780460
  23.0009360  71.6654930  55.7289970  24.0726140  71.6947740  56.7978860
  17.2961170  73.2303220  52.6135380  18.1451700  73.6673370  52.5475570
  16.9292440  73.5423480  53.4407440  16.1952590  79.4835580  51.0870910
  16.9615860  79.3716940  51.6496340  16.2727280  78.7873550  50.4347680
  14.8899350  76.9160650  51.7703800  14.9702940  75.9688160  51.8821200
  15.7819100  77.2467530  51.8764460  12.5759540  83.1329610  54.7479850
  11.6499320  83.3750750  54.7385260  13.0415970  83.9603870  54.6264600
  14.6972340  86.2502110  68.0623920  15.4985070  86.5714160  68.4759320
  14.1824160  85.8897690  68.7843830  18.8016370  86.2386350  50.6963910
  19.5944980  86.5275180  50.2445700  18.2820720  85.8078520  50.0176390
  19.3193770  81.4589760  50.5606260  19.2144410  80.8442110  51.2867640
  19.1517990  80.9355650  49.7769270  18.2271620  79.4800710  53.0613550
  18.6488040  79.3140580  53.9044940  18.3522460  78.6700940  52.5668690
  16.8771340  72.4259630  65.9481820  16.7828210  71.8080380  65.2232690
  16.2968730  73.1525920  65.7211730  19.6432780  70.9832870  62.9809210
  19.1950080  71.0057130  62.1354760  19.0097980  70.5851890  63.5779510
  17.1230520  75.5533940  50.0071710  16.9219580  74.6901300  50.3685050
  16.9522570  75.4667300  49.0693310  17.8999750  86.1840210  64.7179380
  17.3620840  86.9086270  64.3988080  18.1533710  85.7070550  63.9276720
  19.1525000  74.1524730  66.2435310  19.7424690  73.8440580  66.9313130
  18.3345240  73.6804480  66.3995210  15.9213320  72.6534560  49.9949590
  16.2239220  72.6601990  49.0868740  16.6607910  72.3032420  50.4917250
  20.7561960  87.4191420  64.9766030  20.6820660  88.3226560  65.2838400
  19.8540800  87.1003320  64.9488100  19.1398250  71.5969180  50.9805790
  18.7920250  70.9193170  50.4008240  19.3411020  71.1358690  51.7949180
  21.3047290  86.5849930  52.5992390  22.1998080  86.9234900  52.6211150
  21.3364920  85.8629340  51.9716670  14.9443450  81.9576980  50.8279390
  15.3818320  82.5006650  51.4836970  15.4291180  81.1323930  50.8375730
  12.1589250  84.7466010  58.2799650  12.4892260  83.8787070  58.0478290
  12.5880250  84.9524530  59.1104610  16.7551170  83.0775020  55.9401620
  16.4546710  82.9539990  56.8405530  16.6488660  82.2183610  55.5317350
  12.6479460  85.6136600  61.0181280  12.2110450  85.7937400  61.8505430
  13.2157140  86.3711220  60.8763000  28.2841640  85.1153600  65.3058590
  27.6843630  85.1746160  64.5622510  28.4135540  84.1758580  65.4355440
  12.4803890  78.1256830  57.3770160  11.8252730  77.8568470  56.7329860
  13.3181840  78.0161310  56.9272140  13.0695820  75.4218490  65.8231920
  12.1751870  75.3885250  66.1625630  13.6093370  75.6205280  66.5883170
  26.7571750  72.2050210  67.7083670  27.6341930  72.2133610  68.0917670
  26.7692590  71.4681050  67.0976020  11.6941970  75.3355760  53.3195490
  10.7906050  75.5985960  53.1447150  12.1782590  75.6066930  52.5395450
  14.2369180  74.3921300  51.2289870  14.9460880  73.9704520  50.7437150
  13.5209120  74.4596530  50.5973220  13.8843340  70.4460630  50.2692520
  14.6071470  70.9869570  50.5873740  14.1567860  70.1724050  49.3934060
  27.6934990  75.3153100  54.5364100  28.1894110  75.0823970  55.3212980
  27.4951060  74.4764940  54.1201740  13.5735530  69.6966820  60.1715140
  14.2211720  69.1464200  59.7310300  13.9937370  69.9509970  60.9930950
  27.4687870  69.8908180  63.5284780  28.1060090  70.5042320  63.8943970
  27.6162760  69.9268840  62.5834010  13.3267530  69.8522490  62.9140460
  12.9782350  70.3086310  63.6798640  12.9955230  68.9579620  62.9962890
  20.8392350  71.0434370  66.4359880  20.7781240  71.6356200  67.1855290
  21.7792730  70.9360330  66.2910140  23.4766910  70.7004430  66.0752170
  24.0907320  71.0183720  65.4133250  24.0216470  70.2153020  66.6948030
  13.9988170  69.3798690  66.1891230  14.5471160  69.1986740  65.4257340
  14.0643480  68.5892800  66.7247540  14.7719930  85.9704340  64.1991430
  14.1780250  85.8389040  64.9381470  14.7643770  85.1342480  63.7333530
  14.4032160  83.3362720  63.1499470  13.6766220  82.7168010  63.0825420
  14.4641310  83.7303330  62.2797550  21.9649770  70.1806410  61.3414370
  21.1821560  70.6551910  61.6211130  21.6712700  69.2761240  61.2327550
  12.6862160  86.6537110  56.3596230  12.5184200  86.0207790  57.0578120
  11.8196670  86.8596510  56.0090420  13.3090180  70.4853890  53.8628090
  14.0669540  70.5982770  53.2892120  12.8467350  71.3223090  53.8171520
  19.8503990  72.5993160  56.8530400  19.0378500  72.2250050  56.5126280
  20.3545630  71.8438240  57.1551590  14.2924860  85.3470340  53.8046370
  13.7672480  85.7278370  53.1008330  14.2169440  85.9721110  54.5256080
  15.6815330  71.0117940  52.4030060  16.2108090  70.2247740  52.2738010
  16.3143650  71.6909130  52.6365590  17.8753170  70.7493080  55.4575450
  17.2455910  70.0480390  55.6245580  17.3358310  71.5097210  55.2408610
  18.0008730  70.0277060  67.8927940  17.7193000  70.5310660  67.1288760
  18.3828430  69.2298810  67.5270070  16.8917830  87.2952720  52.6795620
  17.6236650  87.0112000  52.1319510  17.1511500  87.0566000  53.5695000
  16.0532620  83.4117450  52.6841950  15.4241500  83.8802550  53.2327780
  16.1680450  82.5666670  53.1188140  24.6024190  69.4430640  68.4708410
  24.4889640  69.7625250  69.3659930  25.4193930  69.8443150  68.1745690
  27.3822680  86.5902170  67.9527100  28.1748000  86.0951400  67.7453060
  27.6755830  87.2692310  68.5602710  21.6400380  79.2402130  40.7152420
  20.8642480  78.7602570  41.0050990  22.2913310  78.5607780  40.5408580
  15.6566210  79.5521940  41.5928180  14.8251090  79.2970650  41.9924690
  16.2647190  79.6232710  42.3286100  15.6367470  83.5862030  41.7886200
  15.9395510  82.6959770  41.6096420  16.3811060  84.1432250  41.5608450
  14.0658160  74.5123830  35.3770570  13.1774860  74.8539800  35.2750450
  14.3499350  74.3124150  34.4851400  12.0291170  77.1129480  41.2610270
  12.6007280  76.3451680  41.2613910  12.0292710  77.4118240  40.3516880
  21.8871120  85.9320330  39.1155540  21.2682560  86.3877830  38.5449980
  22.7422900  86.0871790  38.7145240  21.0809370  81.9159320  40.7222580
  21.0117650  80.9749260  40.5611710  21.8429230  82.0060730  41.2945150
  13.2716040  72.5213840  43.0479200  13.0918880  71.6239590  43.3281960
  12.8696120  73.0685710  43.7226150  16.2419550  73.0955330  36.4108950
  16.3486300  73.9959060  36.7177710  15.3311910  73.0473300  36.1203600
  13.8902710  75.0174340  41.6561540  14.5712820  75.2812710  42.2748940
  13.5750760  74.1775210  41.9899550  18.0827280  76.0641700  40.7434130
  18.5905500  76.5622670  41.3839150  18.6140520  75.2876900  40.5673490
  16.3663380  70.7040260  45.0097550  16.3681820  71.2212650  44.2043450
  15.5367690  70.2270440  44.9867480  22.7534470  80.8159570  36.5087450
  22.1351740  81.2809020  35.9450170  23.2657720  81.5087050  36.9256960
  17.6166230  80.3435440  43.1871050  17.2835610  80.9704360  43.8292120
  17.7932910  80.8697320  42.4072720  16.0478710  72.4150220  43.0168000
  16.3895520  73.2592270  42.7221870  15.1094520  72.5633960  43.1333340
  16.8285330  82.3116240  45.0020230  17.4459330  82.9867320  44.7204680
  15.9678450  82.7204220  44.9107730  12.1217670  81.5016100  33.8827080
  11.7445650  81.9903200  33.1511980  12.3790740  82.1741380  34.5133610
  27.7462920  83.7755650  42.9174870  27.0626440  84.4454760  42.9091540
  28.2857210  83.9736300  42.1519730  19.7306600  69.9032490  39.3412590
  20.0381580  69.3479380  38.6248090  18.8007300  70.0376950  39.1585580
  25.2821660  85.6199780  41.6320050  25.2948820  85.2162070  40.7642310
  24.7296880  86.3947070  41.5281480  22.1187360  77.9681320  36.0772710
  21.1916640  77.9018700  36.3061180  22.2712180  78.9061450  35.9627950
  22.1056440  74.2398320  33.0739870  21.1660110  74.4012280  33.1592330
  22.4239700  74.9584000  32.5275860  28.6269200  78.9216840  43.0518900
  27.7987830  78.9909930  42.5769030  29.2219680  79.5071150  42.5834730
  17.7244000  78.4946060  38.8592440  17.3201000  77.7823310  38.3638340
  17.8107120  78.1499300  39.7480480  18.1925700  82.1813620  41.0231650
  17.8953990  81.5759090  40.3439430  19.1425520  82.2190930  40.9121010
  16.4372620  75.2689270  42.6391480  16.9887210  75.3784610  41.8644730
  16.9516130  75.6426870  43.3546710  26.2811310  85.7545490  44.6854750
  25.8041870  86.5617680  44.4927360  25.5973100  85.1023820  44.8380960
  17.2844130  81.9195310  47.6739450  16.3872660  82.1435280  47.9212850
  17.3097000  82.0430250  46.7250850  24.3249350  78.7688430  33.5880710
  24.7642630  77.9310860  33.4418530  25.0377770  79.4017830  33.6744850
  16.1115350  78.7908630  46.2496820  15.9723120  79.6631430  46.6184220
  15.2296710  78.4481440  46.1044760  22.4344730  83.7084500  37.5561950
  22.8740640  84.4508830  37.1417340  22.3731620  83.9511070  38.4800910
  17.9095700  84.7330330  48.4581970  17.8811130  85.1373280  47.5910400
  17.7460670  83.8040690  48.2953570  27.9066490  70.0231240  31.9021750
  27.5939150  70.1158070  32.8020820  28.6678960  70.6012270  31.8519180
  14.4248630  77.3891040  36.3599090  14.3046230  78.1153130  35.7480360
  14.1149520  76.6193950  35.8827000  12.0634000  80.5606180  42.1667730
  12.1414420  80.6954950  41.2223450  12.6775680  79.8522070  42.3595850
  13.3081630  82.2606370  38.5773910  12.9009710  82.4020960  37.7227510
  14.1994640  81.9766530  38.3745120  29.2643770  82.7070280  46.9146150
  29.3906830  82.4682160  45.9963330  29.3065150  81.8754820  47.3868230
  23.1260510  86.4098280  45.4840960  23.6405180  86.3206290  46.2863390
  22.2829590  86.7557980  45.7768870  25.1014910  86.6953620  34.9124960
  24.9416050  86.4056560  35.8106790  24.9361620  85.9193750  34.3770190
  17.5803290  86.4752150  36.6896580  17.4045770  85.5587690  36.4764380
  16.7259030  86.8339440  36.9294380  24.8041040  84.2041180  33.4722960
  24.1106200  84.2018470  32.8125240  25.5463900  83.7800500  33.0417130
  24.3690970  85.8303890  37.5471450  24.8247920  85.0493270  37.8610070
  24.7083490  86.5410710  38.0912630  12.1193520  81.6020350  44.7062190
  12.2824560  81.1325710  43.8881560  12.5845970  81.0943910  45.3711030
  16.8912290  70.7326110  39.7422760  16.4480440  71.5135650  39.4107280
  17.4497280  71.0556000  40.4493700  20.0071110  70.3536810  34.6228590
  19.3825290  70.3496680  35.3481900  19.9201230  69.4867770  34.2264560
  18.9288190  71.2773440  41.6012360  19.2260520  72.1836270  41.5204380
  19.4773750  70.7892220  40.9871930  16.6826510  75.8559680  37.4704010
  16.4567430  75.6396850  38.3750630  15.9019040  76.2888140  37.1249980
  23.9124270  75.8623050  36.0694660  23.3133160  76.5858850  35.8858280
  24.4603880  75.7999830  35.2871110  19.1225720  76.7545260  48.1364280
  19.0269320  75.8139990  47.9864680  19.9657700  76.9760330  47.7412350
  14.2536260  73.1658930  46.2898060  13.8599650  74.0134140  46.4970840
  13.5654660  72.5285300  46.4806700  11.5553310  71.0887390  40.3228140
  11.2666360  71.6590250  41.0353120  12.2999070  70.6091840  40.6859370
  11.7423540  75.0307510  31.5330860  11.6598210  75.9738270  31.6745850
  11.3906600  74.8882420  30.6543210  19.5421670  73.7646540  40.6001210
  19.5457730  73.3236490  39.7505750  20.4372790  74.0863870  40.7073030
  15.3924050  73.6473030  39.5595420  15.0524100  74.1248260  40.3162470
  14.6301370  73.1938150  39.1996520  19.6041820  74.7658620  33.5907970
  19.7254640  74.7245100  34.5393790  19.2190330  75.6282770  33.4354700
  18.6163320  77.0759760  32.9891270  18.0480220  76.6278010  32.3627180
  19.3252320  77.4352540  32.4556420  26.9940940  69.9558200  47.4458040
  27.3186710  69.2247860  47.9716020  27.0297450  69.6371840  46.5439030
  13.6932500  80.9771780  46.8658000  13.3087290  80.3365450  47.4640960
  14.0044690  81.6807900  47.4352730  19.8429640  77.8248320  42.3466620
  20.2099770  77.3506890  43.0927960  19.6534700  78.6989890  42.6874960
  12.7070130  72.5692010  38.4760090  12.4217050  72.2047680  39.3138710
  12.6448990  71.8372470  37.8623230  17.6329010  76.8656960  44.6650830
  17.3286080  77.7448940  44.8901190  18.5875470  76.9256750  44.7008270
  16.1610800  81.0717950  35.2617680  15.3873060  80.5315570  35.1016400
  16.8905430  80.5524560  34.9235440  22.3808720  71.4621270  35.1973460
  21.5673330  70.9634440  35.1218770  22.1870670  72.3019520  34.7809810
  25.0957110  75.8340920  33.4935620  25.9836730  76.1458150  33.3186960
  25.0662200  74.9613170  33.1016200  16.2048200  80.7398330  38.8996490
  16.7226870  79.9366590  38.8453380  15.7532220  80.6777470  39.7413320
  21.0917700  82.0064610  34.1723790  21.4333400  82.7506840  33.6767110
  20.2630410  82.3195730  34.5348620  13.6892740  77.7059700  45.8122190
  13.3307680  78.3713550  46.3995530  13.3947300  76.8743250  46.1834810
  16.8905860  78.1643940  48.6961740  16.5906000  78.3101120  47.7989560
  17.6617100  77.6049230  48.6035130  22.2334310  82.9612940  46.6916870
  22.2478850  82.0293900  46.4735780  21.5259410  83.0472700  47.3306640
  27.3671380  77.1452760  32.9615480  27.2835100  77.5766980  32.1111920
  28.0865570  77.6051110  33.3942300  28.3958630  83.9995020  35.6897610
  27.7534790  83.3450640  35.9641330  28.0089290  84.4050110  34.9138280
  20.0608390  82.0878140  36.9439710  20.7479520  82.6347350  37.3247300
  19.2740810  82.6318870  36.9789320  12.2000790  77.7050960  32.4356790
  13.0695640  77.9875760  32.7192710  11.7091110  78.5186830  32.3205600
  19.3635600  79.0924170  36.5565070  19.8198380  79.9029420  36.7825260
  19.0123810  78.7747310  37.3883560  21.6668210  84.6030510  43.7857370
  22.3110430  84.8089890  44.4630790  22.0297650  83.8418910  43.3328220
  15.2647380  69.4361820  37.0287590  15.1362010  69.4279720  37.9772510
  14.4409400  69.7744910  36.6778600  22.9400290  82.6062860  42.5034820
  23.5822520  81.9056020  42.6166990  23.4649640  83.3861300  42.3231710
  26.7856010  82.8911480  32.2273960  26.5593590  82.1741920  32.8198600
  26.3952210  82.6423920  31.3895710  12.5672040  86.9178340  33.0018420
  12.9269680  87.5167680  32.3475690  12.4264380  87.4638230  33.7753450
  12.2641310  71.1952940  46.4894290  11.5499830  71.3949860  47.0946900
  12.6836350  70.4192510  46.8609090  26.3672260  80.8083420  33.8888120
  26.0793960  81.2696110  34.6766000  27.1624430  80.3481190  34.1572340
  12.5513900  85.1833200  47.4760820  12.6605020  84.2427940  47.3356210
  11.8994460  85.4487950  46.8274550  20.5426490  83.4549090  48.8758940
  20.2223360  82.7358330  49.4204630  19.8684850  84.1304160  48.9495000
  18.5840660  84.3009540  33.8192090  18.5750760  85.0339230  33.2036600
  17.6639020  84.0541120  33.9119050  14.1847300  79.5224430  34.5638850
  13.5775250  80.2623330  34.5734150  14.6596650  79.6123790  33.7377050
  23.7580090  73.6875250  44.2395740  24.1260910  72.8670460  44.5675310
  22.8978290  73.7477140  44.6551390  27.1242120  72.6432190  35.0483300
  26.4955280  72.7477860  34.3341530  26.6294040  72.8628970  35.8377180
  21.5700260  84.3637780  32.4817280  21.6712240  84.1601770  31.5519260
  20.6702000  84.1096060  32.6865060  19.0926150  74.9218140  36.4641180
  18.3842300  75.3904480  36.9054790  19.3770630  74.2640150  37.0986370
  23.1241580  71.6468800  37.9036970  23.0009360  71.6654930  36.9546480
  24.0726140  71.6947740  38.0235370  20.2118370  86.8824100  37.1764950
  20.4659870  86.8445490  36.2544320  19.2630850  86.7557430  37.1693200
  17.2961170  73.2303220  33.8391890  18.1451700  73.6673370  33.7732080
  16.9292440  73.5423480  34.6663950  16.1952590  79.4835580  32.3127420
  16.9615860  79.3716940  32.8752850  16.2727280  78.7873550  31.6604190
  14.8899350  76.9160650  32.9960310  14.9702940  75.9688160  33.1077710
  15.7819100  77.2467530  33.1020970  28.2196530  84.9724830  40.4277720
  28.3443950  85.7956000  40.9001530  29.0862090  84.7615560  40.0801870
  15.6914060  87.0656040  40.0994850  16.4276540  86.5171500  40.3703420
  16.0754980  87.9312050  39.9600840  12.5759540  83.1329610  35.9736360
  11.6499320  83.3750750  35.9641770  13.0415970  83.9603870  35.8521110
  14.6972340  86.2502110  49.2880430  15.4985070  86.5714160  49.7015830
  14.1824160  85.8897690  50.0100340  18.8016370  86.2386350  31.9220420
  19.5944980  86.5275180  31.4702210  18.2820720  85.8078520  31.2432900
  24.9637340  86.0862270  47.8465250  25.9159090  86.0020290  47.7965490
  24.8165560  86.7503980  48.5199040  27.8546540  85.4656480  33.3457160
  27.5688050  85.0521620  32.5311340  27.6566090  86.3944190  33.2257680
  12.4170150  78.7375570  48.2316480  12.9209170  78.1582850  48.8032710
  11.6777570  79.0215800  48.7692850  19.3193770  81.4589760  31.7862770
  19.2144410  80.8442110  32.5124150  19.1517990  80.9355650  31.0025780
  22.5596500  80.5209790  32.3904760  22.0106600  80.9679090  33.0347500
  23.1815760  80.0159040  32.9142430  14.4493230  76.8805160  49.1266550
  14.4898570  76.5819030  50.0351780  15.3038730  77.2812770  48.9674070
  18.2271620  79.4800710  34.2870060  18.6488040  79.3140580  35.1301450
  18.3522460  78.6700940  33.7925200  16.3899040  75.4597260  47.0941040
  15.8595500  74.9688210  46.4664380  17.0587110  75.8881460  46.5598970
  20.7399260  78.5038320  31.5347160  21.2604920  77.7887340  31.1688310
  21.3867660  79.1424190  31.8347670  17.1230520  75.5533940  31.2328220
  16.9219580  74.6901300  31.5941560  16.9522570  75.4667300  30.2949820
  17.8999750  86.1840210  45.9435890  17.3620840  86.9086270  45.6244590
  18.1533710  85.7070550  45.1533230  24.6018830  70.3642170  33.7615100
  24.8821120  69.5210070  34.1174520  23.8284560  70.5965280  34.2753850
  15.9213320  72.6534560  31.2206100  16.2239220  72.6601990  30.3125250
  16.6607910  72.3032420  31.7173760  20.7561960  87.4191420  46.2022540
  20.6820660  88.3226560  46.5094910  19.8540800  87.1003320  46.1744610
  19.1398250  71.5969180  32.2062300  18.7920250  70.9193170  31.6264750
  19.3411020  71.1358690  33.0205690  21.3047290  86.5849930  33.8248900
  22.1998080  86.9234900  33.8467660  21.3364920  85.8629340  33.1973180
  14.9443450  81.9576980  32.0535900  15.3818320  82.5006650  32.7093480
  15.4291180  81.1323930  32.0632240  12.1589250  84.7466010  39.5056160
  12.4892260  83.8787070  39.2734800  12.5880250  84.9524530  40.3361120
  16.7551170  83.0775020  37.1658130  16.4546710  82.9539990  38.0662040
  16.6488660  82.2183610  36.7573860  12.6479460  85.6136600  42.2437790
  12.2110450  85.7937400  43.0761940  13.2157140  86.3711220  42.1019510
  28.2841640  85.1153600  46.5315100  27.6843630  85.1746160  45.7879020
  28.4135540  84.1758580  46.6611950  29.5243090  82.8571420  31.8684810
  28.6936050  82.9248070  32.3392040  29.7014920  83.7475540  31.5651670
  28.9799550  79.6018900  34.3719010  29.7418460  80.1715550  34.4778700
  28.9953920  79.0346100  35.1427320  12.4803890  78.1256830  38.6026670
  11.8252730  77.8568470  37.9586370  13.3181840  78.0161310  38.1528650
  29.0318720  79.8953270  31.5291530  29.3067560  80.8032150  31.4010750
  28.8429460  79.8315800  32.4653520  25.4294330  72.9198120  32.8245160
  25.8479210  72.7329100  31.9841820  25.1230390  72.0677170  33.1348090
  13.5179820  78.5109400  43.1430010  13.8852860  78.4236800  44.0226030
  12.9490640  77.7475950  43.0436870  13.0695820  75.4218490  47.0488430
  12.1751870  75.3885250  47.3882140  13.6093370  75.6205280  47.8139680
  26.7571750  72.2050210  48.9340180  27.6341930  72.2133610  49.3174180
  26.7692590  71.4681050  48.3232530  11.6941970  75.3355760  34.5452000
  10.7906050  75.5985960  34.3703660  12.1782590  75.6066930  33.7651960
  14.2369180  74.3921300  32.4546380  14.9460880  73.9704520  31.9693660
  13.5209120  74.4596530  31.8229730  13.8843340  70.4460630  31.4949030
  14.6071470  70.9869570  31.8130250  14.1567860  70.1724050  30.6190570
  27.6934990  75.3153100  35.7620610  28.1894110  75.0823970  36.5469490
  27.4951060  74.4764940  35.3458250  13.5735530  69.6966820  41.3971650
  14.2211720  69.1464200  40.9566810  13.9937370  69.9509970  42.2187460
  30.0112420  71.7821970  31.5364430  30.9361730  71.6503150  31.3282720
  29.9888210  71.8614790  32.4900880  30.0850910  72.5532630  34.1621140
  29.2902410  72.4877750  34.6914050  30.2894190  73.4883270  34.1506490
  27.0269330  86.5924180  38.1559530  27.6228400  86.2708750  37.4793950
  27.2847480  86.1196000  38.9472800  13.3267530  69.8522490  44.1396970
  12.9782350  70.3086310  44.9055150  12.9955230  68.9579620  44.2219400
  14.9331900  83.0242090  48.3050160  14.8901530  82.6535000  49.1864620
  15.0642910  83.9619660  48.4451980  18.6337930  84.5801680  43.9059880
  18.3929290  84.8476240  43.0190400  19.5740570  84.7507410  43.9610740
  29.8942090  86.5996060  44.7070520  29.4000370  86.9964930  43.9897650
  29.2855380  85.9745270  45.1007800  13.9988170  69.3798690  47.4147740
  14.5471160  69.1986740  46.6513850  14.0643480  68.5892800  47.9504050
  14.7719930  85.9704340  45.4247940  14.1780250  85.8389040  46.1637980
  14.7643770  85.1342480  44.9590040  24.2174950  69.2636570  43.6277970
  23.3434790  69.5971680  43.4250900  24.1085700  68.7909750  44.4529840
  25.1246930  71.4707440  45.0119690  24.7960290  70.6559200  44.6321420
  26.0729230  71.4277250  44.8885380  27.5781540  87.2419480  41.9857260
  27.1184510  87.9935290  41.6115280  26.9494000  86.5225950  41.9272060
  14.4032160  83.3362720  44.3755980  13.6766220  82.7168010  44.3081930
  14.4641310  83.7303330  43.5054060  18.0077260  85.5507720  41.1605390
  18.5242280  84.9395080  40.6353650  18.6574640  86.0536500  41.6516400
  20.7472760  86.4416210  41.9874370  21.0350570  86.1870510  41.1107380
  21.2595980  85.8893570  42.5779940  21.9649770  70.1806410  42.5670880
  21.1821560  70.6551910  42.8467640  21.6712700  69.2761240  42.4584060
  26.5170840  70.8829510  40.6119970  26.9578930  70.8274610  39.7641570
  26.2478430  71.7987520  40.6830150  28.3809410  70.5144750  38.6228790
  28.3197810  69.5705970  38.4759810  29.1601440  70.6224840  39.1682250
  12.6862160  86.6537110  37.5852740  12.5184200  86.0207790  38.2834630
  11.8196670  86.8596510  37.2346930  13.3090180  70.4853890  35.0884600
  14.0669540  70.5982770  34.5148630  12.8467350  71.3223090  35.0428030
  19.8503990  72.5993160  38.0786910  19.0378500  72.2250050  37.7382790
  20.3545630  71.8438240  38.3808100  24.3528970  69.2635610  39.3169980
  24.9558340  69.8355820  39.7918500  23.6121960  69.8275050  39.0943880
  27.4963570  69.6657170  34.5910260  27.6914200  70.5640620  34.8577690
  26.7093440  69.4344250  35.0843210  14.2924860  85.3470340  35.0302880
  13.7672480  85.7278370  34.3264840  14.2169440  85.9721110  35.7512590
  15.6815330  71.0117940  33.6286570  16.2108090  70.2247740  33.4994520
  16.3143650  71.6909130  33.8622100  17.8753170  70.7493080  36.6831960
  17.2455910  70.0480390  36.8502090  17.3358310  71.5097210  36.4665120
  20.8145120  87.3632310  49.3542570  21.7412430  87.1276580  49.3978530
  20.7995550  88.1904310  48.8728600  29.0490180  86.9057880  36.3516820
  29.2242370  86.2195620  35.7077740  28.3511750  87.4304930  35.9593490
  16.8917830  87.2952720  33.9052130  17.6236650  87.0112000  33.3576020
  17.1511500  87.0566000  34.7951510  16.0532620  83.4117450  33.9098460
  15.4241500  83.8802550  34.4584290  16.1680450  82.5666670  34.3444650
  24.6024190  69.4430640  49.6964920  24.4889640  69.7625250  50.5916440
  25.4193930  69.8443150  49.4002200  23.5082340  77.4623110  20.0599660
  23.4276390  76.5477720  19.7891370  23.0946760  77.9590180  19.3539370
  21.6400380  79.2402130  21.9408930  20.8642480  78.7602570  22.2307500
  22.2913310  78.5607780  21.7665090  15.6566210  79.5521940  22.8184690
  14.8251090  79.2970650  23.2181200  16.2647190  79.6232710  23.5542610
  25.6607810  83.6462320  20.7208060  25.1989340  82.8749560  21.0495230
  26.4733360  83.6728390  21.2260510  15.6367470  83.5862030  23.0142710
  15.9395510  82.6959770  22.8352930  16.3811060  84.1432250  22.7864960
  14.0658160  74.5123830  16.6027080  13.1774860  74.8539800  16.5006960
  14.3499350  74.3124150  15.7107910  12.0291170  77.1129480  22.4866780
  12.6007280  76.3451680  22.4870420  12.0292710  77.4118240  21.5773390
  21.8871120  85.9320330  20.3412050  21.2682560  86.3877830  19.7706490
  22.7422900  86.0871790  19.9401750  21.0809370  81.9159320  21.9479090
  21.0117650  80.9749260  21.7868220  21.8429230  82.0060730  22.5201660
  13.2716040  72.5213840  24.2735710  13.0918880  71.6239590  24.5538470
  12.8696120  73.0685710  24.9482660  22.1114540  74.7229700  22.1748020
  22.4879360  73.8501580  22.0621690  22.0134050  75.0588400  21.2838460
  16.2419550  73.0955330  17.6365460  16.3486300  73.9959060  17.9434220
  15.3311910  73.0473300  17.3460110  25.8938660  72.2180140  19.1076360
  26.7148280  71.7276710  19.1501840  25.9272740  72.8077800  19.8608200
  13.8902710  75.0174340  22.8818050  14.5712820  75.2812710  23.5005450
  13.5750760  74.1775210  23.2156060  18.0827280  76.0641700  21.9690640
  18.5905500  76.5622670  22.6095660  18.6140520  75.2876900  21.7930000
  30.1838210  74.2346890  25.6719990  29.4790380  74.6228600  25.1535100
  30.4496130  74.9297180  26.2740920  16.3663380  70.7040260  26.2354060
  16.3681820  71.2212650  25.4299960  15.5367690  70.2270440  26.2123990
  22.7534470  80.8159570  17.7343960  22.1351740  81.2809020  17.1706680
  23.2657720  81.5087050  18.1513470  17.6166230  80.3435440  24.4127560
  17.2835610  80.9704360  25.0548630  17.7932910  80.8697320  23.6329230
  26.1300140  74.1580520  21.8803900  25.4255710  74.4465410  22.4607010
  26.4912300  74.9680630  21.5203460  16.0478710  72.4150220  24.2424510
  16.3895520  73.2592270  23.9478380  15.1094520  72.5633960  24.3589850
  16.8285330  82.3116240  26.2276740  17.4459330  82.9867320  25.9461190
  15.9678450  82.7204220  26.1364240  12.1217670  81.5016100  15.1083590
  11.7445650  81.9903200  14.3768490  12.3790740  82.1741380  15.7390120
  27.7462920  83.7755650  24.1431380  27.0626440  84.4454760  24.1348050
  28.2857210  83.9736300  23.3776240  29.1987060  73.6035310  22.2713110
  28.2511970  73.6374290  22.4028540  29.5237050  74.4174260  22.6562470
  19.7306600  69.9032490  20.5669100  20.0381580  69.3479380  19.8504600
  18.8007300  70.0376950  20.3842090  25.2821660  85.6199780  22.8576560
  25.2948820  85.2162070  21.9898820  24.7296880  86.3947070  22.7537990
  26.5767080  82.3416000  17.9466730  26.4663410  81.3990330  18.0716150
  26.5735330  82.7031640  18.8329490  24.6807100  80.5229620  24.1859170
  25.0975890  80.3089730  23.3512630  25.4046920  80.7802410  24.7567790
  22.1187360  77.9681320  17.3029220  21.1916640  77.9018700  17.5317690
  22.2712180  78.9061450  17.1884460  22.1056440  74.2398320  14.2996380
  21.1660110  74.4012280  14.3848840  22.4239700  74.9584000  13.7532370
  28.6269200  78.9216840  24.2775410  27.7987830  78.9909930  23.8025540
  29.2219680  79.5071150  23.8091240  26.1484650  79.5301620  17.8064470
  25.5297070  79.1921170  17.1590770  26.1309100  78.8861380  18.5143660
  25.5911210  75.7086160  25.2230280  25.1782390  76.5339870  25.4770270
  24.8587160  75.1231200  25.0306640  17.7244000  78.4946060  20.0848950
  17.3201000  77.7823310  19.5894850  17.8107120  78.1499300  20.9736990
  18.1925700  82.1813620  22.2488160  17.8953990  81.5759090  21.5695940
  19.1425520  82.2190930  22.1377520  16.4372620  75.2689270  23.8647990
  16.9887210  75.3784610  23.0901240  16.9516130  75.6426870  24.5803220
  26.2811310  85.7545490  25.9111260  25.8041870  86.5617680  25.7183870
  25.5973100  85.1023820  26.0637470  17.2844130  81.9195310  28.8995960
  16.3872660  82.1435280  29.1469360  17.3097000  82.0430250  27.9507360
  24.3249350  78.7688430  14.8137220  24.7642630  77.9310860  14.6675040
  25.0377770  79.4017830  14.9001360  16.1115350  78.7908630  27.4753330
  15.9723120  79.6631430  27.8440730  15.2296710  78.4481440  27.3301270
  22.4344730  83.7084500  18.7818460  22.8740640  84.4508830  18.3673850
  22.3731620  83.9511070  19.7057420  17.9095700  84.7330330  29.6838480
  17.8811130  85.1373280  28.8166910  17.7460670  83.8040690  29.5210080
  27.9066490  70.0231240  13.1278260  27.5939150  70.1158070  14.0277330
  28.6678960  70.6012270  13.0775690  14.4248630  77.3891040  17.5855600
  14.3046230  78.1153130  16.9736870  14.1149520  76.6193950  17.1083510
  29.8610520  85.5157430  30.9802650  30.3370240  85.9940320  31.6591730
  30.4817680  85.4474920  30.2548150  12.0634000  80.5606180  23.3924240
  12.1414420  80.6954950  22.4479960  12.6775680  79.8522070  23.5852360
  13.3081630  82.2606370  19.8030420  12.9009710  82.4020960  18.9484020
  14.1994640  81.9766530  19.6001630  29.2643770  82.7070280  28.1402660
  29.3906830  82.4682160  27.2219840  29.3065150  81.8754820  28.6124740
  23.1260510  86.4098280  26.7097470  23.6405180  86.3206290  27.5119900
  22.2829590  86.7557980  27.0025380  25.1014910  86.6953620  16.1381470
  24.9416050  86.4056560  17.0363300  24.9361620  85.9193750  15.6026700
  17.5803290  86.4752150  17.9153090  17.4045770  85.5587690  17.7020890
  16.7259030  86.8339440  18.1550890  24.8041040  84.2041180  14.6979470
  24.1106200  84.2018470  14.0381750  25.5463900  83.7800500  14.2673640
  24.3690970  85.8303890  18.7727960  24.8247920  85.0493270  19.0866580
  24.7083490  86.5410710  19.3169140  29.1167780  74.7602740  29.1052400
  28.5012050  75.2682410  28.5767860  28.7964200  73.8601070  29.0478340
  12.1193520  81.6020350  25.9318700  12.2824560  81.1325710  25.1138070
  12.5845970  81.0943910  26.5967540  16.8912290  70.7326110  20.9679270
  16.4480440  71.5135650  20.6363790  17.4497280  71.0556000  21.6750210
  21.1782100  73.5994630  26.5714590  20.7161470  73.8077650  27.3834530
  20.7760210  72.7853980  26.2685260  26.1786610  74.8203580  27.7011250
  25.3280200  74.5209330  28.0220320  26.0188400  75.0645590  26.7895070
  23.2736320  76.3205330  29.8010040  23.5989730  75.4869080  29.4612270
  24.0616650  76.8433850  29.9488370  20.0071110  70.3536810  15.8485100
  19.3825290  70.3496680  16.5738410  19.9201230  69.4867770  15.4521070
  18.9288190  71.2773440  22.8268870  19.2260520  72.1836270  22.7460890
  19.4773750  70.7892220  22.2128440  16.6826510  75.8559680  18.6960520
  16.4567430  75.6396850  19.6007140  15.9019040  76.2888140  18.3506490
  23.9124270  75.8623050  17.2951170  23.3133160  76.5858850  17.1114790
  24.4603880  75.7999830  16.5127620  19.1225720  76.7545260  29.3620790
  19.0269320  75.8139990  29.2121190  19.9657700  76.9760330  28.9668860
  22.5189140  74.4986590  19.3254450  22.9118710  74.8158790  18.5123140
  22.8805990  73.6198470  19.4398970  14.2536260  73.1658930  27.5154570
  13.8599650  74.0134140  27.7227350  13.5654660  72.5285300  27.7063210
  20.8281310  73.2493900  30.5851310  20.1379630  73.0566100  31.2197400
  21.5713610  73.5328540  31.1175610  11.5553310  71.0887390  21.5484650
  11.2666360  71.6590250  22.2609630  12.2999070  70.6091840  21.9115880
  11.7423540  75.0307510  12.7587370  11.6598210  75.9738270  12.9002360
  11.3906600  74.8882420  11.8799720  23.1044280  77.0892340  23.4205230
  22.3725400  77.5979150  23.7695330  22.7068620  76.2722320  23.1194010
  19.5421670  73.7646540  21.8257720  19.5457730  73.3236490  20.9762260
  20.4372790  74.0863870  21.9329540  15.3924050  73.6473030  20.7851930
  15.0524100  74.1248260  21.5418980  14.6301370  73.1938150  20.4253030
  19.6041820  74.7658620  14.8164480  19.7254640  74.7245100  15.7650300
  19.2190330  75.6282770  14.6611210  23.5670190  72.5426020  22.8328170
  23.5842930  72.9934670  23.6770020  23.3185770  71.6431660  23.0461610
  18.6163320  77.0759760  14.2147780  18.0480220  76.6278010  13.5883690
  19.3252320  77.4352540  13.6812930  26.9940940  69.9558200  28.6714550
  27.3186710  69.2247860  29.1972530  27.0297450  69.6371840  27.7695540
  13.6932500  80.9771780  28.0914510  13.3087290  80.3365450  28.6897470
  14.0044690  81.6807900  28.6609240  19.8429640  77.8248320  23.5723130
  20.2099770  77.3506890  24.3184470  19.6534700  78.6989890  23.9131470
  12.7070130  72.5692010  19.7016600  12.4217050  72.2047680  20.5395220
  12.6448990  71.8372470  19.0879740  17.6329010  76.8656960  25.8907340
  17.3286080  77.7448940  26.1157700  18.5875470  76.9256750  25.9264780
  16.1610800  81.0717950  16.4874190  15.3873060  80.5315570  16.3272910
  16.8905430  80.5524560  16.1491950  26.9198780  80.0683310  22.2800580
  27.6397900  80.5638600  21.8896690  26.7180600  79.3901200  21.6354450
  22.3808720  71.4621270  16.4229970  21.5673330  70.9634440  16.3475280
  22.1870670  72.3019520  16.0066320  22.3017580  80.1392370  28.1669580
  22.2354890  79.2188040  27.9127170  21.6722720  80.2367810  28.8814220
  25.0957110  75.8340920  14.7192130  25.9836730  76.1458150  14.5443470
  25.0662200  74.9613170  14.3272710  16.2048200  80.7398330  20.1253000
  16.7226870  79.9366590  20.0709890  15.7532220  80.6777470  20.9669830
  21.0917700  82.0064610  15.3980300  21.4333400  82.7506840  14.9023620
  20.2630410  82.3195730  15.7605130  13.6892740  77.7059700  27.0378700
  13.3307680  78.3713550  27.6252040  13.3947300  76.8743250  27.4091320
  16.8905860  78.1643940  29.9218250  16.5906000  78.3101120  29.0246070
  17.6617100  77.6049230  29.8291640  22.2334310  82.9612940  27.9173380
  22.2478850  82.0293900  27.6992290  21.5259410  83.0472700  28.5563150
  27.3671380  77.1452760  14.1871990  27.2835100  77.5766980  13.3368430
  28.0865570  77.6051110  14.6198810  28.4445520  79.6020280  27.2641960
  27.7193710  80.1949060  27.0671350  28.9720980  79.5943820  26.4655330
  28.3958630  83.9995020  16.9154120  27.7534790  83.3450640  17.1897840
  28.0089290  84.4050110  16.1394790  23.9745110  81.3280450  20.7625810
  24.3268930  80.7308580  20.1027180  23.0907440  81.0024680  20.9334060
  20.0608390  82.0878140  18.1696220  20.7479520  82.6347350  18.5503810
  19.2740810  82.6318870  18.2045830  12.2000790  77.7050960  13.6613300
  13.0695640  77.9875760  13.9449220  11.7091110  78.5186830  13.5462110
  19.3635600  79.0924170  17.7821580  19.8198380  79.9029420  18.0081770
  19.0123810  78.7747310  18.6140070  21.6668210  84.6030510  25.0113880
  22.3110430  84.8089890  25.6887300  22.0297650  83.8418910  24.5584730
  15.2647380  69.4361820  18.2544100  15.1362010  69.4279720  19.2029020
  14.4409400  69.7744910  17.9035110  22.9400290  82.6062860  23.7291330
  23.5822520  81.9056020  23.8423500  23.4649640  83.3861300  23.5488220
  26.7856010  82.8911480  13.4530470  26.5593590  82.1741920  14.0455110
  26.3952210  82.6423920  12.6152220  24.7137910  83.4057760  26.9327390
  25.0494150  83.9924450  27.6105310  23.7938250  83.2750470  27.1625180
  12.5672040  86.9178340  14.2274930  12.9269680  87.5167680  13.5732200
  12.4264380  87.4638230  15.0009960  12.2641310  71.1952940  27.7150800
  11.5499830  71.3949860  28.3203410  12.6836350  70.4192510  28.0865600
  26.3672260  80.8083420  15.1144630  26.0793960  81.2696110  15.9022510
  27.1624430  80.3481190  15.3828850  12.5513900  85.1833200  28.7017330
  12.6605020  84.2427940  28.5612720  11.8994460  85.4487950  28.0531060
  20.5426490  83.4549090  30.1015450  20.2223360  82.7358330  30.6461140
  19.8684850  84.1304160  30.1751510  18.5840660  84.3009540  15.0448600
  18.5750760  85.0339230  14.4293110  17.6639020  84.0541120  15.1375560
  14.1847300  79.5224430  15.7895360  13.5775250  80.2623330  15.7990660
  14.6596650  79.6123790  14.9633560  23.7580090  73.6875250  25.4652250
  24.1260910  72.8670460  25.7931820  22.8978290  73.7477140  25.8807900
  27.1242120  72.6432190  16.2739810  26.4955280  72.7477860  15.5598040
  26.6294040  72.8628970  17.0633690  21.5700260  84.3637780  13.7073790
  21.6712240  84.1601770  12.7775770  20.6702000  84.1096060  13.9121570
  19.0926150  74.9218140  17.6897690  18.3842300  75.3904480  18.1311300
  19.3770630  74.2640150  18.3242880  20.7182080  76.3414840  25.6890220
  21.2167330  76.8160660  26.3542070  20.8605030  75.4178360  25.8960250
  23.1241580  71.6468800  19.1293480  23.0009360  71.6654930  18.1802990
  24.0726140  71.6947740  19.2491880  20.2118370  86.8824100  18.4021460
  20.4659870  86.8445490  17.4800830  19.2630850  86.7557430  18.3949710
  17.2961170  73.2303220  15.0648400  18.1451700  73.6673370  14.9988590
  16.9292440  73.5423480  15.8920460  27.9248940  72.5582800  26.5318610
  27.4222540  73.2988200  26.8712420  28.7405600  72.9466800  26.2155400
  26.2170950  77.8015980  19.9779970  25.2761090  77.8166210  20.1527660
  26.5315020  77.0151940  20.4240270  16.1952590  79.4835580  13.5383930
  16.9615860  79.3716940  14.1009360  16.2727280  78.7873550  12.8860700
  14.8899350  76.9160650  14.2216820  14.9702940  75.9688160  14.3334220
  15.7819100  77.2467530  14.3277480  28.2196530  84.9724830  21.6534230
  28.3443950  85.7956000  22.1258040  29.0862090  84.7615560  21.3058380
  15.6914060  87.0656040  21.3251360  16.4276540  86.5171500  21.5959930
  16.0754980  87.9312050  21.1857350  12.5759540  83.1329610  17.1992870
  11.6499320  83.3750750  17.1898280  13.0415970  83.9603870  17.0777620
  14.6972340  86.2502110  30.5136940  15.4985070  86.5714160  30.9272340
  14.1824160  85.8897690  31.2356850  18.8016370  86.2386350  13.1476930
  19.5944980  86.5275180  12.6958720  18.2820720  85.8078520  12.4689410
  23.5336970  82.3581980  30.4612350  22.9275130  82.3813580  29.7208100
  23.2291080  81.6265020  30.9979600  24.9637340  86.0862270  29.0721760
  25.9159090  86.0020290  29.0222000  24.8165560  86.7503980  29.7455550
  27.8546540  85.4656480  14.5713670  27.5688050  85.0521620  13.7567850
  27.6566090  86.3944190  14.4514190  12.4170150  78.7375570  29.4572990
  12.9209170  78.1582850  30.0289220  11.6777570  79.0215800  29.9949360
  19.3193770  81.4589760  13.0119280  19.2144410  80.8442110  13.7380660
  19.1517990  80.9355650  12.2282290  19.4708090  80.1446560  28.9908510
  18.7053760  80.7131560  28.9063180  19.6524050  79.8522770  28.0976740
  22.5596500  80.5209790  13.6161270  22.0106600  80.9679090  14.2604010
  23.1815760  80.0159040  14.1398940  26.6131440  81.8751890  29.5483530
  27.3540910  82.2127650  29.0450990  25.8504120  82.0443950  28.9953300
  14.4493230  76.8805160  30.3523060  14.4898570  76.5819030  31.2608290
  15.3038730  77.2812770  30.1930580  18.2271620  79.4800710  15.5126570
  18.6488040  79.3140580  16.3557960  18.3522460  78.6700940  15.0181710
  16.3899040  75.4597260  28.3197550  15.8595500  74.9688210  27.6920890
  17.0587110  75.8881460  27.7855480  20.7399260  78.5038320  12.7603670
  21.2604920  77.7887340  12.3944820  21.3867660  79.1424190  13.0604180
  25.2877100  79.9266720  28.0838740  25.7018120  80.0811800  28.9329160
  24.3528100  80.0521940  28.2464520  25.7599270  77.2662880  30.0877890
  26.3420040  76.5115200  29.9998370  25.9361040  77.7970320  29.3109370
  16.8771340  72.4259630  28.3994840  16.7828210  71.8080380  27.6745710
  16.2968730  73.1525920  28.1724750  19.6432780  70.9832870  25.4322230
  19.1950080  71.0057130  24.5867780  19.0097980  70.5851890  26.0292530
  20.0492330  79.8787200  26.0534670  20.4680440  80.7219930  25.8810910
  19.1300960  80.0159240  25.8241450  22.3856230  77.6103380  27.4372510
  22.5052440  77.0144520  28.1767350  23.2450230  77.6473070  27.0173810
  24.7244130  78.1640570  26.0135020  24.1979350  78.6883190  25.4100160
  25.0675470  78.7967960  26.6444750  17.1230520  75.5533940  12.4584730
  16.9219580  74.6901300  12.8198070  16.9522570  75.4667300  11.5206330
  17.8999750  86.1840210  27.1692400  17.3620840  86.9086270  26.8501100
  18.1533710  85.7070550  26.3789740  19.1525000  74.1524730  28.6948330
  19.7424690  73.8440580  29.3826150  18.3345240  73.6804480  28.8508230
  23.9718430  73.7690540  28.9281350  23.2833950  73.1072080  28.8631340
  24.6924450  73.3228810  29.3729810  24.6018830  70.3642170  14.9871610
  24.8821120  69.5210070  15.3431030  23.8284560  70.5965280  15.5010360
  15.9213320  72.6534560  12.4462610  16.2239220  72.6601990  11.5381760
  16.6607910  72.3032420  12.9430270  20.7561960  87.4191420  27.4279050
  20.6820660  88.3226560  27.7351420  19.8540800  87.1003320  27.4001120
  19.1398250  71.5969180  13.4318810  18.7920250  70.9193170  12.8521260
  19.3411020  71.1358690  14.2462200  21.3047290  86.5849930  15.0505410
  22.1998080  86.9234900  15.0724170  21.3364920  85.8629340  14.4229690
  14.9443450  81.9576980  13.2792410  15.3818320  82.5006650  13.9349990
  15.4291180  81.1323930  13.2888750  12.1589250  84.7466010  20.7312670
  12.4892260  83.8787070  20.4991310  12.5880250  84.9524530  21.5617630
  16.7551170  83.0775020  18.3914640  16.4546710  82.9539990  19.2918550
  16.6488660  82.2183610  17.9830370  12.6479460  85.6136600  23.4694300
  12.2110450  85.7937400  24.3018450  13.2157140  86.3711220  23.3276020
  28.2841640  85.1153600  27.7571610  27.6843630  85.1746160  27.0135530
  28.4135540  84.1758580  27.8868460  29.5243090  82.8571420  13.0941320
  28.6936050  82.9248070  13.5648550  29.7014920  83.7475540  12.7908180
  28.9799550  79.6018900  15.5975520  29.7418460  80.1715550  15.7035210
  28.9953920  79.0346100  16.3683830  12.4803890  78.1256830  19.8283180
  11.8252730  77.8568470  19.1842880  13.3181840  78.0161310  19.3785160
  29.9859520  80.4569000  20.4417450  30.3568350  79.6736320  20.0353420
  30.6261450  81.1458100  20.2634750  26.9693280  81.8405580  25.8547770
  26.1553120  82.2702740  26.1173560  27.3767480  82.4523990  25.2416820
  29.0318720  79.8953270  12.7548040  29.3067560  80.8032150  12.6267260
  28.8429460  79.8315800  13.6910030  25.4294330  72.9198120  14.0501670
  25.8479210  72.7329100  13.2098330  25.1230390  72.0677170  14.3604600
  28.9284060  77.8322260  17.7477470  28.5527660  77.0650190  17.3158760
  28.1987180  78.2144960  18.2352400  13.5179820  78.5109400  24.3686520
  13.8852860  78.4236800  25.2482540  12.9490640  77.7475950  24.2693380
  28.3183680  76.9793780  27.3816990  28.0869770  76.7506530  26.4814940
  28.5788230  77.8993330  27.3361880  13.0695820  75.4218490  28.2744940
  12.1751870  75.3885250  28.6138650  13.6093370  75.6205280  29.0396190
  26.7571750  72.2050210  30.1596690  27.6341930  72.2133610  30.5430690
  26.7692590  71.4681050  29.5489040  11.6941970  75.3355760  15.7708510
  10.7906050  75.5985960  15.5960170  12.1782590  75.6066930  14.9908470
  28.2035020  76.0579750  21.0484710  28.7272500  75.5642400  20.4174880
  28.7894440  76.1930110  21.7932280  28.3824740  76.1419620  24.5704260
  27.4327450  76.1083160  24.6849250  28.5637750  77.0519730  24.3354030
  14.2369180  74.3921300  13.6802890  14.9460880  73.9704520  13.1950170
  13.5209120  74.4596530  13.0486240  13.8843340  70.4460630  12.7205540
  14.6071470  70.9869570  13.0386760  14.1567860  70.1724050  11.8447080
  27.6934990  75.3153100  16.9877120  28.1894110  75.0823970  17.7726000
  27.4951060  74.4764940  16.5714760  13.5735530  69.6966820  22.6228160
  14.2211720  69.1464200  22.1823320  13.9937370  69.9509970  23.4443970
  29.1222150  73.9514050  19.5214800  29.0121430  73.7970090  20.4597070
  29.8829740  73.4234990  19.2790210  27.4687870  69.8908180  25.9797800
  28.1060090  70.5042320  26.3456990  27.6162760  69.9268840  25.0347030
  30.0112420  71.7821970  12.7620940  30.9361730  71.6503150  12.5539230
  29.9888210  71.8614790  13.7157390  30.0850910  72.5532630  15.3877650
  29.2902410  72.4877750  15.9170560  30.2894190  73.4883270  15.3763000
  27.0269330  86.5924180  19.3816040  27.6228400  86.2708750  18.7050460
  27.2847480  86.1196000  20.1729310  13.3267530  69.8522490  25.3653480
  12.9782350  70.3086310  26.1311660  12.9955230  68.9579620  25.4475910
  14.9331900  83.0242090  29.5306670  14.8901530  82.6535000  30.4121130
  15.0642910  83.9619660  29.6708490  18.6337930  84.5801680  25.1316390
  18.3929290  84.8476240  24.2446910  19.5740570  84.7507410  25.1867250
  20.8392350  71.0434370  28.8872900  20.7781240  71.6356200  29.6368310
  21.7792730  70.9360330  28.7423160  23.4766910  70.7004430  28.5265190
  24.0907320  71.0183720  27.8646270  24.0216470  70.2153020  29.1461050
  29.8942090  86.5996060  25.9327030  29.4000370  86.9964930  25.2154160
  29.2855380  85.9745270  26.3264310  13.9988170  69.3798690  28.6404250
  14.5471160  69.1986740  27.8770360  14.0643480  68.5892800  29.1760560
  14.7719930  85.9704340  26.6504450  14.1780250  85.8389040  27.3894490
  14.7643770  85.1342480  26.1846550  24.2174950  69.2636570  24.8534480
  23.3434790  69.5971680  24.6507410  24.1085700  68.7909750  25.6786350
  25.1246930  71.4707440  26.2376200  24.7960290  70.6559200  25.8577930
  26.0729230  71.4277250  26.1141890  27.5781540  87.2419480  23.2113770
  27.1184510  87.9935290  22.8371790  26.9494000  86.5225950  23.1528570
  14.4032160  83.3362720  25.6012490  13.6766220  82.7168010  25.5338440
  14.4641310  83.7303330  24.7310570  18.0077260  85.5507720  22.3861900
  18.5242280  84.9395080  21.8610160  18.6574640  86.0536500  22.8772910
  20.7472760  86.4416210  23.2130880  21.0350570  86.1870510  22.3363890
  21.2595980  85.8893570  23.8036450  21.9649770  70.1806410  23.7927390
  21.1821560  70.6551910  24.0724150  21.6712700  69.2761240  23.6840570
  26.5170840  70.8829510  21.8376480  26.9578930  70.8274610  20.9898080
  26.2478430  71.7987520  21.9086660  28.3809410  70.5144750  19.8485300
  28.3197810  69.5705970  19.7016320  29.1601440  70.6224840  20.3938760
  12.6862160  86.6537110  18.8109250  12.5184200  86.0207790  19.5091140
  11.8196670  86.8596510  18.4603440  13.3090180  70.4853890  16.3141110
  14.0669540  70.5982770  15.7405140  12.8467350  71.3223090  16.2684540
  19.8503990  72.5993160  19.3043420  19.0378500  72.2250050  18.9639300
  20.3545630  71.8438240  19.6064610  24.3528970  69.2635610  20.5426490
  24.9558340  69.8355820  21.0175010  23.6121960  69.8275050  20.3200390
  27.4963570  69.6657170  15.8166770  27.6914200  70.5640620  16.0834200
  26.7093440  69.4344250  16.3099720  14.2924860  85.3470340  16.2559390
  13.7672480  85.7278370  15.5521350  14.2169440  85.9721110  16.9769100
  15.6815330  71.0117940  14.8543080  16.2108090  70.2247740  14.7251030
  16.3143650  71.6909130  15.0878610  17.8753170  70.7493080  17.9088470
  17.2455910  70.0480390  18.0758600  17.3358310  71.5097210  17.6921630
  20.8145120  87.3632310  30.5799080  21.7412430  87.1276580  30.6235040
  20.7995550  88.1904310  30.0985110  29.0490180  86.9057880  17.5773330
  29.2242370  86.2195620  16.9334250  28.3511750  87.4304930  17.1850000
  18.0008730  70.0277060  30.3440960  17.7193000  70.5310660  29.5801780
  18.3828430  69.2298810  29.9783090  16.8917830  87.2952720  15.1308640
  17.6236650  87.0112000  14.5832530  17.1511500  87.0566000  16.0208020
  16.0532620  83.4117450  15.1354970  15.4241500  83.8802550  15.6840800
  16.1680450  82.5666670  15.5701160  24.6024190  69.4430640  30.9221430
  24.4889640  69.7625250  31.8172950  25.4193930  69.8443150  30.6258710
  27.3822680  86.5902170  30.4040120  28.1748000  86.0951400  30.1966080
  27.6755830  87.2692310  31.0115730  21.6400380  79.2402130   3.1665440
  20.8642480  78.7602570   3.4564010  22.2913310  78.5607780   2.9921600
  15.6566210  79.5521940   4.0441200  14.8251090  79.2970650   4.4437710
  16.2647190  79.6232710   4.7799120  25.6607810  83.6462320   1.9464570
  25.1989340  82.8749560   2.2751740  26.4733360  83.6728390   2.4517020
  15.6367470  83.5862030   4.2399220  15.9395510  82.6959770   4.0609440
  16.3811060  84.1432250   4.0121470  12.0291170  77.1129480   3.7123290
  12.6007280  76.3451680   3.7126930  12.0292710  77.4118240   2.8029900
  21.0809370  81.9159320   3.1735600  21.0117650  80.9749260   3.0124730
  21.8429230  82.0060730   3.7458170  13.2716040  72.5213840   5.4992220
  13.0918880  71.6239590   5.7794980  12.8696120  73.0685710   6.1739170
  22.1114540  74.7229700   3.4004530  22.4879360  73.8501580   3.2878200
  22.0134050  75.0588400   2.5094970  13.8902710  75.0174340   4.1074560
  14.5712820  75.2812710   4.7261960  13.5750760  74.1775210   4.4412570
  18.0827280  76.0641700   3.1947150  18.5905500  76.5622670   3.8352170
  18.6140520  75.2876900   3.0186510  30.1838210  74.2346890   6.8976500
  29.4790380  74.6228600   6.3791610  30.4496130  74.9297180   7.4997430
  16.3663380  70.7040260   7.4610570  16.3681820  71.2212650   6.6556470
  15.5367690  70.2270440   7.4380500  17.6166230  80.3435440   5.6384070
  17.2835610  80.9704360   6.2805140  17.7932910  80.8697320   4.8585740
  26.1300140  74.1580520   3.1060410  25.4255710  74.4465410   3.6863520
  26.4912300  74.9680630   2.7459970  16.0478710  72.4150220   5.4681020
  16.3895520  73.2592270   5.1734890  15.1094520  72.5633960   5.5846360
  16.8285330  82.3116240   7.4533250  17.4459330  82.9867320   7.1717700
  15.9678450  82.7204220   7.3620750  27.7462920  83.7755650   5.3687890
  27.0626440  84.4454760   5.3604560  28.2857210  83.9736300   4.6032750
  29.1987060  73.6035310   3.4969620  28.2511970  73.6374290   3.6285050
  29.5237050  74.4174260   3.8818980  25.2821660  85.6199780   4.0833070
  25.2948820  85.2162070   3.2155330  24.7296880  86.3947070   3.9794500
  24.6807100  80.5229620   5.4115680  25.0975890  80.3089730   4.5769140
  25.4046920  80.7802410   5.9824300  28.6269200  78.9216840   5.5031920
  27.7987830  78.9909930   5.0282050  29.2219680  79.5071150   5.0347750
  25.5911210  75.7086160   6.4486790  25.1782390  76.5339870   6.7026780
  24.8587160  75.1231200   6.2563150  18.1925700  82.1813620   3.4744670
  17.8953990  81.5759090   2.7952450  19.1425520  82.2190930   3.3634030
  16.4372620  75.2689270   5.0904500  16.9887210  75.3784610   4.3157750
  16.9516130  75.6426870   5.8059730  26.2811310  85.7545490   7.1367770
  25.8041870  86.5617680   6.9440380  25.5973100  85.1023820   7.2893980
  17.2844130  81.9195310  10.1252470  16.3872660  82.1435280  10.3725870
  17.3097000  82.0430250   9.1763870  16.1115350  78.7908630   8.7009840
  15.9723120  79.6631430   9.0697240  15.2296710  78.4481440   8.5557780
  17.9095700  84.7330330  10.9094990  17.8811130  85.1373280  10.0423420
  17.7460670  83.8040690  10.7466590  29.8610520  85.5157430  12.2059160
  30.3370240  85.9940320  12.8848240  30.4817680  85.4474920  11.4804660
  12.0634000  80.5606180   4.6180750  12.1414420  80.6954950   3.6736470
  12.6775680  79.8522070   4.8108870  29.2643770  82.7070280   9.3659170
  29.3906830  82.4682160   8.4476350  29.3065150  81.8754820   9.8381250
  23.1260510  86.4098280   7.9353980  23.6405180  86.3206290   8.7376410
  22.2829590  86.7557980   8.2281890  29.1167780  74.7602740  10.3308910
  28.5012050  75.2682410   9.8024370  28.7964200  73.8601070  10.2734850
  12.1193520  81.6020350   7.1575210  12.2824560  81.1325710   6.3394580
  12.5845970  81.0943910   7.8224050  16.8912290  70.7326110   2.1935780
  16.4480440  71.5135650   1.8620300  17.4497280  71.0556000   2.9006720
  21.1782100  73.5994630   7.7971100  20.7161470  73.8077650   8.6091040
  20.7760210  72.7853980   7.4941770  26.1786610  74.8203580   8.9267760
  25.3280200  74.5209330   9.2476830  26.0188400  75.0645590   8.0151580
  23.2736320  76.3205330  11.0266550  23.5989730  75.4869080  10.6868780
  24.0616650  76.8433850  11.1744880  18.9288190  71.2773440   4.0525380
  19.2260520  72.1836270   3.9717400  19.4773750  70.7892220   3.4384950
  19.1225720  76.7545260  10.5877300  19.0269320  75.8139990  10.4377700
  19.9657700  76.9760330  10.1925370  14.2536260  73.1658930   8.7411080
  13.8599650  74.0134140   8.9483860  13.5654660  72.5285300   8.9319720
  20.8281310  73.2493900  11.8107820  20.1379630  73.0566100  12.4453910
  21.5713610  73.5328540  12.3432120  11.5553310  71.0887390   2.7741160
  11.2666360  71.6590250   3.4866140  12.2999070  70.6091840   3.1372390
  23.1044280  77.0892340   4.6461740  22.3725400  77.5979150   4.9951840
  22.7068620  76.2722320   4.3450520  19.5421670  73.7646540   3.0514230
  19.5457730  73.3236490   2.2018770  20.4372790  74.0863870   3.1586050
  15.3924050  73.6473030   2.0108440  15.0524100  74.1248260   2.7675490
  14.6301370  73.1938150   1.6509540  23.5670190  72.5426020   4.0584680
  23.5842930  72.9934670   4.9026530  23.3185770  71.6431660   4.2718120
  26.9940940  69.9558200   9.8971060  27.3186710  69.2247860  10.4229040
  27.0297450  69.6371840   8.9952050  13.6932500  80.9771780   9.3171020
  13.3087290  80.3365450   9.9153980  14.0044690  81.6807900   9.8865750
  19.8429640  77.8248320   4.7979640  20.2099770  77.3506890   5.5440980
  19.6534700  78.6989890   5.1387980  17.6329010  76.8656960   7.1163850
  17.3286080  77.7448940   7.3414210  18.5875470  76.9256750   7.1521290
  26.9198780  80.0683310   3.5057090  27.6397900  80.5638600   3.1153200
  26.7180600  79.3901200   2.8610960  22.3017580  80.1392370   9.3926090
  22.2354890  79.2188040   9.1383680  21.6722720  80.2367810  10.1070730
  13.6892740  77.7059700   8.2635210  13.3307680  78.3713550   8.8508550
  13.3947300  76.8743250   8.6347830  16.8905860  78.1643940  11.1474760
  16.5906000  78.3101120  10.2502580  17.6617100  77.6049230  11.0548150
  22.2334310  82.9612940   9.1429890  22.2478850  82.0293900   8.9248800
  21.5259410  83.0472700   9.7819660  28.4445520  79.6020280   8.4898470
  27.7193710  80.1949060   8.2927860  28.9720980  79.5943820   7.6911840
  21.6668210  84.6030510   6.2370390  22.3110430  84.8089890   6.9143810
  22.0297650  83.8418910   5.7841240  22.9400290  82.6062860   4.9547840
  23.5822520  81.9056020   5.0680010  23.4649640  83.3861300   4.7744730
  24.7137910  83.4057760   8.1583900  25.0494150  83.9924450   8.8361820
  23.7938250  83.2750470   8.3881690  12.2641310  71.1952940   8.9407310
  11.5499830  71.3949860   9.5459920  12.6836350  70.4192510   9.3122110
  12.5513900  85.1833200   9.9273840  12.6605020  84.2427940   9.7869230
  11.8994460  85.4487950   9.2787570  20.5426490  83.4549090  11.3271960
  20.2223360  82.7358330  11.8717650  19.8684850  84.1304160  11.4008020
  23.7580090  73.6875250   6.6908760  24.1260910  72.8670460   7.0188330
  22.8978290  73.7477140   7.1064410  20.7182080  76.3414840   6.9146730
  21.2167330  76.8160660   7.5798580  20.8605030  75.4178360   7.1216760
  27.9248940  72.5582800   7.7575120  27.4222540  73.2988200   8.0968930
  28.7405600  72.9466800   7.4411910  28.2196530  84.9724830   2.8790740
  28.3443950  85.7956000   3.3514550  29.0862090  84.7615560   2.5314890
  15.6914060  87.0656040   2.5507870  16.4276540  86.5171500   2.8216440
  16.0754980  87.9312050   2.4113860  14.6972340  86.2502110  11.7393450
  15.4985070  86.5714160  12.1528850  14.1824160  85.8897690  12.4613360
  23.5336970  82.3581980  11.6868860  22.9275130  82.3813580  10.9464610
  23.2291080  81.6265020  12.2236110  24.9637340  86.0862270  10.2978270
  25.9159090  86.0020290  10.2478510  24.8165560  86.7503980  10.9712060
  12.4170150  78.7375570  10.6829500  12.9209170  78.1582850  11.2545730
  11.6777570  79.0215800  11.2205870  19.4708090  80.1446560  10.2165020
  18.7053760  80.7131560  10.1319690  19.6524050  79.8522770   9.3233250
  26.6131440  81.8751890  10.7740040  27.3540910  82.2127650  10.2707500
  25.8504120  82.0443950  10.2209810  14.4493230  76.8805160  11.5779570
  14.4898570  76.5819030  12.4864800  15.3038730  77.2812770  11.4187090
  16.3899040  75.4597260   9.5454060  15.8595500  74.9688210   8.9177400
  17.0587110  75.8881460   9.0111990  25.2877100  79.9266720   9.3095250
  25.7018120  80.0811800  10.1585670  24.3528100  80.0521940   9.4721030
  25.7599270  77.2662880  11.3134400  26.3420040  76.5115200  11.2254880
  25.9361040  77.7970320  10.5365880  16.8771340  72.4259630   9.6251350
  16.7828210  71.8080380   8.9002220  16.2968730  73.1525920   9.3981260
  19.6432780  70.9832870   6.6578740  19.1950080  71.0057130   5.8124290
  19.0097980  70.5851890   7.2549040  20.0492330  79.8787200   7.2791180
  20.4680440  80.7219930   7.1067420  19.1300960  80.0159240   7.0497960
  22.3856230  77.6103380   8.6629020  22.5052440  77.0144520   9.4023860
  23.2450230  77.6473070   8.2430320  24.7244130  78.1640570   7.2391530
  24.1979350  78.6883190   6.6356670  25.0675470  78.7967960   7.8701260
  17.8999750  86.1840210   8.3948910  17.3620840  86.9086270   8.0757610
  18.1533710  85.7070550   7.6046250  19.1525000  74.1524730   9.9204840
  19.7424690  73.8440580  10.6082660  18.3345240  73.6804480  10.0764740
  23.9718430  73.7690540  10.1537860  23.2833950  73.1072080  10.0887850
  24.6924450  73.3228810  10.5986320  20.7561960  87.4191420   8.6535560
  20.6820660  88.3226560   8.9607930  19.8540800  87.1003320   8.6257630
  12.1589250  84.7466010   1.9569180  12.4892260  83.8787070   1.7247820
  12.5880250  84.9524530   2.7874140  12.6479460  85.6136600   4.6950810
  12.2110450  85.7937400   5.5274960  13.2157140  86.3711220   4.5532530
  28.2841640  85.1153600   8.9828120  27.6843630  85.1746160   8.2392040
  28.4135540  84.1758580   9.1124970  26.9693280  81.8405580   7.0804280
  26.1553120  82.2702740   7.3430070  27.3767480  82.4523990   6.4673330
  13.5179820  78.5109400   5.5943030  13.8852860  78.4236800   6.4739050
  12.9490640  77.7475950   5.4949890  28.3183680  76.9793780   8.6073500
  28.0869770  76.7506530   7.7071450  28.5788230  77.8993330   8.5618390
  13.0695820  75.4218490   9.5001450  12.1751870  75.3885250   9.8395160
  13.6093370  75.6205280  10.2652700  26.7571750  72.2050210  11.3853200
  27.6341930  72.2133610  11.7687200  26.7692590  71.4681050  10.7745550
  28.2035020  76.0579750   2.2741220  28.7272500  75.5642400   1.6431390
  28.7894440  76.1930110   3.0188790  28.3824740  76.1419620   5.7960770
  27.4327450  76.1083160   5.9105760  28.5637750  77.0519730   5.5610540
  13.5735530  69.6966820   3.8484670  14.2211720  69.1464200   3.4079830
  13.9937370  69.9509970   4.6700480  27.4687870  69.8908180   7.2054310
  28.1060090  70.5042320   7.5713500  27.6162760  69.9268840   6.2603540
  13.3267530  69.8522490   6.5909990  12.9782350  70.3086310   7.3568170
  12.9955230  68.9579620   6.6732420  14.9331900  83.0242090  10.7563180
  14.8901530  82.6535000  11.6377640  15.0642910  83.9619660  10.8965000
  18.6337930  84.5801680   6.3572900  18.3929290  84.8476240   5.4703420
  19.5740570  84.7507410   6.4123760  20.8392350  71.0434370  10.1129410
  20.7781240  71.6356200  10.8624820  21.7792730  70.9360330   9.9679670
  23.4766910  70.7004430   9.7521700  24.0907320  71.0183720   9.0902780
  24.0216470  70.2153020  10.3717560  29.8942090  86.5996060   7.1583540
  29.4000370  86.9964930   6.4410670  29.2855380  85.9745270   7.5520820
  13.9988170  69.3798690   9.8660760  14.5471160  69.1986740   9.1026870
  14.0643480  68.5892800  10.4017070  14.7719930  85.9704340   7.8760960
  14.1780250  85.8389040   8.6151000  14.7643770  85.1342480   7.4103060
  24.2174950  69.2636570   6.0790990  23.3434790  69.5971680   5.8763920
  24.1085700  68.7909750   6.9042860  25.1246930  71.4707440   7.4632710
  24.7960290  70.6559200   7.0834440  26.0729230  71.4277250   7.3398400
  27.5781540  87.2419480   4.4370280  27.1184510  87.9935290   4.0628300
  26.9494000  86.5225950   4.3785080  14.4032160  83.3362720   6.8269000
  13.6766220  82.7168010   6.7594950  14.4641310  83.7303330   5.9567080
  18.0077260  85.5507720   3.6118410  18.5242280  84.9395080   3.0866670
  18.6574640  86.0536500   4.1029420  20.7472760  86.4416210   4.4387390
  21.0350570  86.1870510   3.5620400  21.2595980  85.8893570   5.0292960
  21.9649770  70.1806410   5.0183900  21.1821560  70.6551910   5.2980660
  21.6712700  69.2761240   4.9097080  26.5170840  70.8829510   3.0632990
  26.9578930  70.8274610   2.2154590  26.2478430  71.7987520   3.1343170
  24.3528970  69.2635610   1.7683000  24.9558340  69.8355820   2.2431520
  23.6121960  69.8275050   1.5456900  20.8145120  87.3632310  11.8055590
  21.7412430  87.1276580  11.8491550  20.7995550  88.1904310  11.3241620
  18.0008730  70.0277060  11.5697470  17.7193000  70.5310660  10.8058290
  18.3828430  69.2298810  11.2039600  24.6024190  69.4430640  12.1477940
  24.4889640  69.7625250  13.0429460  25.4193930  69.8443150  11.8515220
  27.3822680  86.5902170  11.6296630  28.1748000  86.0951400  11.4222590
  27.6755830  87.2692310  12.2372240  23.5082340  58.6879620 151.4804090
  23.4276390  57.7734230 151.2095800  23.0946760  59.1846690 150.7743800
  21.6400380  60.4658640 153.3613360  20.8642480  59.9859080 153.6511930
  22.2913310  59.7864290 153.1869520  25.6607810  64.8718830 152.1412490
  25.1989340  64.1006070 152.4699660  26.4733360  64.8984900 152.6464940
  15.6367470  64.8118540 154.4347140  15.9395510  63.9216280 154.2557360
  16.3811060  65.3688760 154.2069390  14.0658160  55.7380340 148.0231510
  13.1774860  56.0796310 147.9211390  14.3499350  55.5380660 147.1312340
  12.0291170  58.3385990 153.9071210  12.6007280  57.5708190 153.9074850
  12.0292710  58.6374750 152.9977820  21.8871120  67.1576840 151.7616480
  21.2682560  67.6134340 151.1910920  22.7422900  67.3128300 151.3606180
  21.0809370  63.1415830 153.3683520  21.0117650  62.2005770 153.2072650
  21.8429230  63.2317240 153.9406090  22.1114540  55.9486210 153.5952450
  22.4879360  55.0758090 153.4826120  22.0134050  56.2844910 152.7042890
  16.2419550  54.3211840 149.0569890  16.3486300  55.2215570 149.3638650
  15.3311910  54.2729810 148.7664540  25.8938660  53.4436650 150.5280790
  26.7148280  52.9533220 150.5706270  25.9272740  54.0334310 151.2812630
  18.0827280  57.2898210 153.3895070  18.5905500  57.7879180 154.0300090
  18.6140520  56.5133410 153.2134430  22.7534470  62.0416080 149.1548390
  22.1351740  62.5065530 148.5911110  23.2657720  62.7343560 149.5717900
  26.1300140  55.3837030 153.3008330  25.4255710  55.6721920 153.8811440
  26.4912300  56.1937140 152.9407890  12.1217670  62.7272610 146.5288020
  11.7445650  63.2159710 145.7972920  12.3790740  63.3997890 147.1594550
  29.1987060  54.8291820 153.6917540  28.2511970  54.8630800 153.8232970
  29.5237050  55.6430770 154.0766900  19.7306600  51.1289000 151.9873530
  20.0381580  50.5735890 151.2709030  18.8007300  51.2633460 151.8046520
  25.2821660  66.8456290 154.2780990  25.2948820  66.4418580 153.4103250
  24.7296880  67.6203580 154.1742420  26.5767080  63.5672510 149.3671160
  26.4663410  62.6246840 149.4920580  26.5735330  63.9288150 150.2533920
  22.1187360  59.1937830 148.7233650  21.1916640  59.1275210 148.9522120
  22.2712180  60.1317960 148.6088890  22.1056440  55.4654830 145.7200810
  21.1660110  55.6268790 145.8053270  22.4239700  56.1840510 145.1736800
  26.1484650  60.7558130 149.2268900  25.5297070  60.4177680 148.5795200
  26.1309100  60.1117890 149.9348090  17.7244000  59.7202570 151.5053380
  17.3201000  59.0079820 151.0099280  17.8107120  59.3755810 152.3941420
  18.1925700  63.4070130 153.6692590  17.8953990  62.8015600 152.9900370
  19.1425520  63.4447440 153.5581950  24.3249350  59.9944940 146.2341650
  24.7642630  59.1567370 146.0879470  25.0377770  60.6274340 146.3205790
  22.4344730  64.9341010 150.2022890  22.8740640  65.6765340 149.7878280
  22.3731620  65.1767580 151.1261850  27.9066490  51.2487750 144.5482690
  27.5939150  51.3414580 145.4481760  28.6678960  51.8268780 144.4980120
  14.4248630  58.6147550 149.0060030  14.3046230  59.3409640 148.3941300
  14.1149520  57.8450460 148.5287940  13.3081630  63.4862880 151.2234850
  12.9009710  63.6277470 150.3688450  14.1994640  63.2023040 151.0206060
  25.1014910  67.9210130 147.5585900  24.9416050  67.6313070 148.4567730
  24.9361620  67.1450260 147.0231130  17.5803290  67.7008660 149.3357520
  17.4045770  66.7844200 149.1225320  16.7259030  68.0595950 149.5755320
  24.8041040  65.4297690 146.1183900  24.1106200  65.4274980 145.4586180
  25.5463900  65.0057010 145.6878070  24.3690970  67.0560400 150.1932390
  24.8247920  66.2749780 150.5071010  24.7083490  67.7667220 150.7373570
  16.8912290  51.9582620 152.3883700  16.4480440  52.7392160 152.0568220
  17.4497280  52.2812510 153.0954640  20.0071110  51.5793320 147.2689530
  19.3825290  51.5753190 147.9942840  19.9201230  50.7124280 146.8725500
  18.9288190  52.5029950 154.2473300  19.2260520  53.4092780 154.1665320
  19.4773750  52.0148730 153.6332870  16.6826510  57.0816190 150.1164950
  16.4567430  56.8653360 151.0211570  15.9019040  57.5144650 149.7710920
  23.9124270  57.0879560 148.7155600  23.3133160  57.8115360 148.5319220
  24.4603880  57.0256340 147.9332050  22.5189140  55.7243100 150.7458880
  22.9118710  56.0415300 149.9327570  22.8805990  54.8454980 150.8603400
  11.5553310  52.3143900 152.9689080  11.2666360  52.8846760 153.6814060
  12.2999070  51.8348350 153.3320310  11.7423540  56.2564020 144.1791800
  11.6598210  57.1994780 144.3206790  11.3906600  56.1138930 143.3004150
  19.5421670  54.9903050 153.2462150  19.5457730  54.5493000 152.3966690
  20.4372790  55.3120380 153.3533970  15.3924050  54.8729540 152.2056360
  15.0524100  55.3504770 152.9623410  14.6301370  54.4194660 151.8457460
  19.6041820  55.9915130 146.2368910  19.7254640  55.9501610 147.1854730
  19.2190330  56.8539280 146.0815640  18.6163320  58.3016270 145.6352210
  18.0480220  57.8534520 145.0088120  19.3252320  58.6609050 145.1017360
  12.7070130  53.7948520 151.1221030  12.4217050  53.4304190 151.9599650
  12.6448990  53.0628980 150.5084170  16.1610800  62.2974460 147.9078620
  15.3873060  61.7572080 147.7477340  16.8905430  61.7781070 147.5696380
  26.9198780  61.2939820 153.7005010  27.6397900  61.7895110 153.3101120
  26.7180600  60.6157710 153.0558880  22.3808720  52.6877780 147.8434400
  21.5673330  52.1890950 147.7679710  22.1870670  53.5276030 147.4270750
  25.0957110  57.0597430 146.1396560  25.9836730  57.3714660 145.9647900
  25.0662200  56.1869680 145.7477140  16.2048200  61.9654840 151.5457430
  16.7226870  61.1623100 151.4914320  15.7532220  61.9033980 152.3874260
  21.0917700  63.2321120 146.8184730  21.4333400  63.9763350 146.3228050
  20.2630410  63.5452240 147.1809560  27.3671380  58.3709270 145.6076420
  27.2835100  58.8023490 144.7572860  28.0865570  58.8307620 146.0403240
  28.3958630  65.2251530 148.3358550  27.7534790  64.5707150 148.6102270
  28.0089290  65.6306620 147.5599220  23.9745110  62.5536960 152.1830240
  24.3268930  61.9565090 151.5231610  23.0907440  62.2281190 152.3538490
  20.0608390  63.3134650 149.5900650  20.7479520  63.8603860 149.9708240
  19.2740810  63.8575380 149.6250260  12.2000790  58.9307470 145.0817730
  13.0695640  59.2132270 145.3653650  11.7091110  59.7443340 144.9666540
  19.3635600  60.3180680 149.2026010  19.8198380  61.1285930 149.4286200
  19.0123810  60.0003820 150.0344500  15.2647380  50.6618330 149.6748530
  15.1362010  50.6536230 150.6233450  14.4409400  51.0001420 149.3239540
  26.7856010  64.1167990 144.8734900  26.5593590  63.3998430 145.4659540
  26.3952210  63.8680430 144.0356650  12.5672040  68.1434850 145.6479360
  12.9269680  68.7424190 144.9936630  12.4264380  68.6894740 146.4214390
  26.3672260  62.0339930 146.5349060  26.0793960  62.4952620 147.3226940
  27.1624430  61.5737700 146.8033280  18.5840660  65.5266050 146.4653030
  18.5750760  66.2595740 145.8497540  17.6639020  65.2797630 146.5579990
  14.1847300  60.7480940 147.2099790  13.5775250  61.4879840 147.2195090
  14.6596650  60.8380300 146.3837990  27.1242120  53.8688700 147.6944240
  26.4955280  53.9734370 146.9802470  26.6294040  54.0885480 148.4838120
  21.5700260  65.5894290 145.1278220  21.6712240  65.3858280 144.1980200
  20.6702000  65.3352570 145.3326000  19.0926150  56.1474650 149.1102120
  18.3842300  56.6160990 149.5515730  19.3770630  55.4896660 149.7447310
  23.1241580  52.8725310 150.5497910  23.0009360  52.8911440 149.6007420
  24.0726140  52.9204250 150.6696310  20.2118370  68.1080610 149.8225890
  20.4659870  68.0702000 148.9005260  19.2630850  67.9813940 149.8154140
  17.2961170  54.4559730 146.4852830  18.1451700  54.8929880 146.4193020
  16.9292440  54.7679990 147.3124890  26.2170950  59.0272490 151.3984400
  25.2761090  59.0422720 151.5732090  26.5315020  58.2408450 151.8444700
  16.1952590  60.7092090 144.9588360  16.9615860  60.5973450 145.5213790
  16.2727280  60.0130060 144.3065130  14.8899350  58.1417160 145.6421250
  14.9702940  57.1944670 145.7538650  15.7819100  58.4724040 145.7481910
  28.2196530  66.1981340 153.0738660  28.3443950  67.0212510 153.5462470
  29.0862090  65.9872070 152.7262810  15.6914060  68.2912550 152.7455790
  16.4276540  67.7428010 153.0164360  16.0754980  69.1568560 152.6061780
  12.5759540  64.3586120 148.6197300  11.6499320  64.6007260 148.6102710
  13.0415970  65.1860380 148.4982050  18.8016370  67.4642860 144.5681360
  19.5944980  67.7531690 144.1163150  18.2820720  67.0335030 143.8893840
  27.8546540  66.6912990 145.9918100  27.5688050  66.2778130 145.1772280
  27.6566090  67.6200700 145.8718620  19.3193770  62.6846270 144.4323710
  19.2144410  62.0698620 145.1585090  19.1517990  62.1612160 143.6486720
  22.5596500  61.7466300 145.0365700  22.0106600  62.1935600 145.6808440
  23.1815760  61.2415550 145.5603370  18.2271620  60.7057220 146.9331000
  18.6488040  60.5397090 147.7762390  18.3522460  59.8957450 146.4386140
  20.7399260  59.7294830 144.1808100  21.2604920  59.0143850 143.8149250
  21.3867660  60.3680700 144.4808610  17.1230520  56.7790450 143.8789160
  16.9219580  55.9157810 144.2402500  16.9522570  56.6923810 142.9410760
  24.6018830  51.5898680 146.4076040  24.8821120  50.7466580 146.7635460
  23.8284560  51.8221790 146.9214790  15.9213320  53.8791070 143.8667040
  16.2239220  53.8858500 142.9586190  16.6607910  53.5288930 144.3634700
  19.1398250  52.8225690 144.8523240  18.7920250  52.1449680 144.2725690
  19.3411020  52.3615200 145.6666630  21.3047290  67.8106440 146.4709840
  22.1998080  68.1491410 146.4928600  21.3364920  67.0885850 145.8434120
  14.9443450  63.1833490 144.6996840  15.3818320  63.7263160 145.3554420
  15.4291180  62.3580440 144.7093180  12.1589250  65.9722520 152.1517100
  12.4892260  65.1043580 151.9195740  12.5880250  66.1781040 152.9822060
  16.7551170  64.3031530 149.8119070  16.4546710  64.1796500 150.7122980
  16.6488660  63.4440120 149.4034800  29.5243090  64.0827930 144.5145750
  28.6936050  64.1504580 144.9852980  29.7014920  64.9732050 144.2112610
  28.9799550  60.8275410 147.0179950  29.7418460  61.3972060 147.1239640
  28.9953920  60.2602610 147.7888260  12.4803890  59.3513340 151.2487610
  11.8252730  59.0824980 150.6047310  13.3181840  59.2417820 150.7989590
  29.9859520  61.6825510 151.8621880  30.3568350  60.8992830 151.4557850
  30.6261450  62.3714610 151.6839180  29.0318720  61.1209780 144.1752470
  29.3067560  62.0288660 144.0471690  28.8429460  61.0572310 145.1114460
  25.4294330  54.1454630 145.4706100  25.8479210  53.9585610 144.6302760
  25.1230390  53.2933680 145.7809030  28.9284060  59.0578770 149.1681900
  28.5527660  58.2906700 148.7363190  28.1987180  59.4401470 149.6556830
  11.6941970  56.5612270 147.1912940  10.7906050  56.8242470 147.0164600
  12.1782590  56.8323440 146.4112900  28.2035020  57.2836260 152.4689140
  28.7272500  56.7898910 151.8379310  28.7894440  57.4186620 153.2136710
  14.2369180  55.6177810 145.1007320  14.9460880  55.1961030 144.6154600
  13.5209120  55.6853040 144.4690670  13.8843340  51.6717140 144.1409970
  14.6071470  52.2126080 144.4591190  14.1567860  51.3980560 143.2651510
  27.6934990  56.5409610 148.4081550  28.1894110  56.3080480 149.1930430
  27.4951060  55.7021450 147.9919190  29.1222150  55.1770560 150.9419230
  29.0121430  55.0226600 151.8801500  29.8829740  54.6491500 150.6994640
  30.0112420  53.0078480 144.1825370  30.9361730  52.8759660 143.9743660
  29.9888210  53.0871300 145.1361820  30.0850910  53.7789140 146.8082080
  29.2902410  53.7134260 147.3374990  30.2894190  54.7139780 146.7967430
  27.0269330  67.8180690 150.8020470  27.6228400  67.4965260 150.1254890
  27.2847480  67.3452510 151.5933740  18.0077260  66.7764230 153.8066330
  18.5242280  66.1651590 153.2814590  18.6574640  67.2793010 154.2977340
  26.5170840  52.1086020 153.2580910  26.9578930  52.0531120 152.4102510
  26.2478430  53.0244030 153.3291090  28.3809410  51.7401260 151.2689730
  28.3197810  50.7962480 151.1220750  29.1601440  51.8481350 151.8143190
  12.6862160  67.8793620 150.2313680  12.5184200  67.2464300 150.9295570
  11.8196670  68.0853020 149.8807870  13.3090180  51.7110400 147.7345540
  14.0669540  51.8239280 147.1609570  12.8467350  52.5479600 147.6888970
  19.8503990  53.8249670 150.7247850  19.0378500  53.4506560 150.3843730
  20.3545630  53.0694750 151.0269040  24.3528970  50.4892120 151.9630920
  24.9558340  51.0612330 152.4379440  23.6121960  51.0531560 151.7404820
  27.4963570  50.8913680 147.2371200  27.6914200  51.7897130 147.5038630
  26.7093440  50.6600760 147.7304150  14.2924860  66.5726850 147.6763820
  13.7672480  66.9534880 146.9725780  14.2169440  67.1977620 148.3973530
  15.6815330  52.2374450 146.2747510  16.2108090  51.4504250 146.1455460
  16.3143650  52.9165640 146.5083040  17.8753170  51.9749590 149.3292900
  17.2455910  51.2736900 149.4963030  17.3358310  52.7353720 149.1126060
  29.0490180  68.1314390 148.9977760  29.2242370  67.4452130 148.3538680
  28.3511750  68.6561440 148.6054430  16.8917830  68.5209230 146.5513070
  17.6236650  68.2368510 146.0036960  17.1511500  68.2822510 147.4412450
  16.0532620  64.6373960 146.5559400  15.4241500  65.1059060 147.1045230
  16.1680450  63.7923180 146.9905590  23.5082340  58.6879620 132.7060600
  23.4276390  57.7734230 132.4352310  23.0946760  59.1846690 132.0000310
  21.6400380  60.4658640 134.5869870  20.8642480  59.9859080 134.8768440
  22.2913310  59.7864290 134.4126030  15.6566210  60.7778450 135.4645630
  14.8251090  60.5227160 135.8642140  16.2647190  60.8489220 136.2003550
  25.6607810  64.8718830 133.3669000  25.1989340  64.1006070 133.6956170
  26.4733360  64.8984900 133.8721450  15.6367470  64.8118540 135.6603650
  15.9395510  63.9216280 135.4813870  16.3811060  65.3688760 135.4325900
  14.0658160  55.7380340 129.2488020  13.1774860  56.0796310 129.1467900
  14.3499350  55.5380660 128.3568850  12.0291170  58.3385990 135.1327720
  12.6007280  57.5708190 135.1331360  12.0292710  58.6374750 134.2234330
  21.8871120  67.1576840 132.9872990  21.2682560  67.6134340 132.4167430
  22.7422900  67.3128300 132.5862690  21.0809370  63.1415830 134.5940030
  21.0117650  62.2005770 134.4329160  21.8429230  63.2317240 135.1662600
  13.2716040  53.7470350 136.9196650  13.0918880  52.8496100 137.1999410
  12.8696120  54.2942220 137.5943600  22.1114540  55.9486210 134.8208960
  22.4879360  55.0758090 134.7082630  22.0134050  56.2844910 133.9299400
  16.2419550  54.3211840 130.2826400  16.3486300  55.2215570 130.5895160
  15.3311910  54.2729810 129.9921050  25.8938660  53.4436650 131.7537300
  26.7148280  52.9533220 131.7962780  25.9272740  54.0334310 132.5069140
  13.8902710  56.2430850 135.5278990  14.5712820  56.5069220 136.1466390
  13.5750760  55.4031720 135.8617000  18.0827280  57.2898210 134.6151580
  18.5905500  57.7879180 135.2556600  18.6140520  56.5133410 134.4390940
  30.1838210  55.4603400 138.3180930  29.4790380  55.8485110 137.7996040
  30.4496130  56.1553690 138.9201860  16.3663380  51.9296770 138.8815000
  16.3681820  52.4469160 138.0760900  15.5367690  51.4526950 138.8584930
  22.7534470  62.0416080 130.3804900  22.1351740  62.5065530 129.8167620
  23.2657720  62.7343560 130.7974410  17.6166230  61.5691950 137.0588500
  17.2835610  62.1960870 137.7009570  17.7932910  62.0953830 136.2790170
  26.1300140  55.3837030 134.5264840  25.4255710  55.6721920 135.1067950
  26.4912300  56.1937140 134.1664400  16.0478710  53.6406730 136.8885450
  16.3895520  54.4848780 136.5939320  15.1094520  53.7890470 137.0050790
  16.8285330  63.5372750 138.8737680  17.4459330  64.2123830 138.5922130
  15.9678450  63.9460730 138.7825180  12.1217670  62.7272610 127.7544530
  11.7445650  63.2159710 127.0229430  12.3790740  63.3997890 128.3851060
  27.7462920  65.0012160 136.7892320  27.0626440  65.6711270 136.7808990
  28.2857210  65.1992810 136.0237180  29.1987060  54.8291820 134.9174050
  28.2511970  54.8630800 135.0489480  29.5237050  55.6430770 135.3023410
  19.7306600  51.1289000 133.2130040  20.0381580  50.5735890 132.4965540
  18.8007300  51.2633460 133.0303030  25.2821660  66.8456290 135.5037500
  25.2948820  66.4418580 134.6359760  24.7296880  67.6203580 135.3998930
  26.5767080  63.5672510 130.5927670  26.4663410  62.6246840 130.7177090
  26.5735330  63.9288150 131.4790430  24.6807100  61.7486130 136.8320110
  25.0975890  61.5346240 135.9973570  25.4046920  62.0058920 137.4028730
  22.1187360  59.1937830 129.9490160  21.1916640  59.1275210 130.1778630
  22.2712180  60.1317960 129.8345400  22.1056440  55.4654830 126.9457320
  21.1660110  55.6268790 127.0309780  22.4239700  56.1840510 126.3993310
  28.6269200  60.1473350 136.9236350  27.7987830  60.2166440 136.4486480
  29.2219680  60.7327660 136.4552180  26.1484650  60.7558130 130.4525410
  25.5297070  60.4177680 129.8051710  26.1309100  60.1117890 131.1604600
  25.5911210  56.9342670 137.8691220  25.1782390  57.7596380 138.1231210
  24.8587160  56.3487710 137.6767580  17.7244000  59.7202570 132.7309890
  17.3201000  59.0079820 132.2355790  17.8107120  59.3755810 133.6197930
  18.1925700  63.4070130 134.8949100  17.8953990  62.8015600 134.2156880
  19.1425520  63.4447440 134.7838460  16.4372620  56.4945780 136.5108930
  16.9887210  56.6041120 135.7362180  16.9516130  56.8683380 137.2264160
  26.2811310  66.9802000 138.5572200  25.8041870  67.7874190 138.3644810
  25.5973100  66.3280330 138.7098410  17.2844130  63.1451820 141.5456900
  16.3872660  63.3691790 141.7930300  17.3097000  63.2686760 140.5968300
  24.3249350  59.9944940 127.4598160  24.7642630  59.1567370 127.3135980
  25.0377770  60.6274340 127.5462300  16.1115350  60.0165140 140.1214270
  15.9723120  60.8887940 140.4901670  15.2296710  59.6737950 139.9762210
  22.4344730  64.9341010 131.4279400  22.8740640  65.6765340 131.0134790
  22.3731620  65.1767580 132.3518360  17.9095700  65.9586840 142.3299420
  17.8811130  66.3629790 141.4627850  17.7460670  65.0297200 142.1671020
  27.9066490  51.2487750 125.7739200  27.5939150  51.3414580 126.6738270
  28.6678960  51.8268780 125.7236630  14.4248630  58.6147550 130.2316540
  14.3046230  59.3409640 129.6197810  14.1149520  57.8450460 129.7544450
  29.8610520  66.7413940 143.6263590  30.3370240  67.2196830 144.3052670
  30.4817680  66.6731430 142.9009090  12.0634000  61.7862690 136.0385180
  12.1414420  61.9211460 135.0940900  12.6775680  61.0778580 136.2313300
  13.3081630  63.4862880 132.4491360  12.9009710  63.6277470 131.5944960
  14.1994640  63.2023040 132.2462570  29.2643770  63.9326790 140.7863600
  29.3906830  63.6938670 139.8680780  29.3065150  63.1011330 141.2585680
  23.1260510  67.6354790 139.3558410  23.6405180  67.5462800 140.1580840
  22.2829590  67.9814490 139.6486320  25.1014910  67.9210130 128.7842410
  24.9416050  67.6313070 129.6824240  24.9361620  67.1450260 128.2487640
  17.5803290  67.7008660 130.5614030  17.4045770  66.7844200 130.3481830
  16.7259030  68.0595950 130.8011830  24.8041040  65.4297690 127.3440410
  24.1106200  65.4274980 126.6842690  25.5463900  65.0057010 126.9134580
  24.3690970  67.0560400 131.4188900  24.8247920  66.2749780 131.7327520
  24.7083490  67.7667220 131.9630080  29.1167780  55.9859250 141.7513340
  28.5012050  56.4938920 141.2228800  28.7964200  55.0857580 141.6939280
  12.1193520  62.8276860 138.5779640  12.2824560  62.3582220 137.7599010
  12.5845970  62.3200420 139.2428480  16.8912290  51.9582620 133.6140210
  16.4480440  52.7392160 133.2824730  17.4497280  52.2812510 134.3211150
  21.1782100  54.8251140 139.2175530  20.7161470  55.0334160 140.0295470
  20.7760210  54.0110490 138.9146200  26.1786610  56.0460090 140.3472190
  25.3280200  55.7465840 140.6681260  26.0188400  56.2902100 139.4356010
  23.2736320  57.5461840 142.4470980  23.5989730  56.7125590 142.1073210
  24.0616650  58.0690360 142.5949310  20.0071110  51.5793320 128.4946040
  19.3825290  51.5753190 129.2199350  19.9201230  50.7124280 128.0982010
  18.9288190  52.5029950 135.4729810  19.2260520  53.4092780 135.3921830
  19.4773750  52.0148730 134.8589380  16.6826510  57.0816190 131.3421460
  16.4567430  56.8653360 132.2468080  15.9019040  57.5144650 130.9967430
  23.9124270  57.0879560 129.9412110  23.3133160  57.8115360 129.7575730
  24.4603880  57.0256340 129.1588560  19.1225720  57.9801770 142.0081730
  19.0269320  57.0396500 141.8582130  19.9657700  58.2016840 141.6129800
  22.5189140  55.7243100 131.9715390  22.9118710  56.0415300 131.1584080
  22.8805990  54.8454980 132.0859910  14.2536260  54.3915440 140.1615510
  13.8599650  55.2390650 140.3688290  13.5654660  53.7541810 140.3524150
  20.8281310  54.4750410 143.2312250  20.1379630  54.2822610 143.8658340
  21.5713610  54.7585050 143.7636550  11.5553310  52.3143900 134.1945590
  11.2666360  52.8846760 134.9070570  12.2999070  51.8348350 134.5576820
  11.7423540  56.2564020 125.4048310  11.6598210  57.1994780 125.5463300
  11.3906600  56.1138930 124.5260660  23.1044280  58.3148850 136.0666170
  22.3725400  58.8235660 136.4156270  22.7068620  57.4978830 135.7654950
  19.5421670  54.9903050 134.4718660  19.5457730  54.5493000 133.6223200
  20.4372790  55.3120380 134.5790480  15.3924050  54.8729540 133.4312870
  15.0524100  55.3504770 134.1879920  14.6301370  54.4194660 133.0713970
  19.6041820  55.9915130 127.4625420  19.7254640  55.9501610 128.4111240
  19.2190330  56.8539280 127.3072150  23.5670190  53.7682530 135.4789110
  23.5842930  54.2191180 136.3230960  23.3185770  52.8688170 135.6922550
  18.6163320  58.3016270 126.8608720  18.0480220  57.8534520 126.2344630
  19.3252320  58.6609050 126.3273870  26.9940940  51.1814710 141.3175490
  27.3186710  50.4504370 141.8433470  27.0297450  50.8628350 140.4156480
  13.6932500  62.2028290 140.7375450  13.3087290  61.5621960 141.3358410
  14.0044690  62.9064410 141.3070180  19.8429640  59.0504830 136.2184070
  20.2099770  58.5763400 136.9645410  19.6534700  59.9246400 136.5592410
  12.7070130  53.7948520 132.3477540  12.4217050  53.4304190 133.1856160
  12.6448990  53.0628980 131.7340680  17.6329010  58.0913470 138.5368280
  17.3286080  58.9705450 138.7618640  18.5875470  58.1513260 138.5725720
  16.1610800  62.2974460 129.1335130  15.3873060  61.7572080 128.9733850
  16.8905430  61.7781070 128.7952890  26.9198780  61.2939820 134.9261520
  27.6397900  61.7895110 134.5357630  26.7180600  60.6157710 134.2815390
  22.3808720  52.6877780 129.0690910  21.5673330  52.1890950 128.9936220
  22.1870670  53.5276030 128.6527260  22.3017580  61.3648880 140.8130520
  22.2354890  60.4444550 140.5588110  21.6722720  61.4624320 141.5275160
  25.0957110  57.0597430 127.3653070  25.9836730  57.3714660 127.1904410
  25.0662200  56.1869680 126.9733650  16.2048200  61.9654840 132.7713940
  16.7226870  61.1623100 132.7170830  15.7532220  61.9033980 133.6130770
  21.0917700  63.2321120 128.0441240  21.4333400  63.9763350 127.5484560
  20.2630410  63.5452240 128.4066070  13.6892740  58.9316210 139.6839640
  13.3307680  59.5970060 140.2712980  13.3947300  58.0999760 140.0552260
  16.8905860  59.3900450 142.5679190  16.5906000  59.5357630 141.6707010
  17.6617100  58.8305740 142.4752580  22.2334310  64.1869450 140.5634320
  22.2478850  63.2550410 140.3453230  21.5259410  64.2729210 141.2024090
  27.3671380  58.3709270 126.8332930  27.2835100  58.8023490 125.9829370
  28.0865570  58.8307620 127.2659750  28.4445520  60.8276790 139.9102900
  27.7193710  61.4205570 139.7132290  28.9720980  60.8200330 139.1116270
  28.3958630  65.2251530 129.5615060  27.7534790  64.5707150 129.8358780
  28.0089290  65.6306620 128.7855730  23.9745110  62.5536960 133.4086750
  24.3268930  61.9565090 132.7488120  23.0907440  62.2281190 133.5795000
  20.0608390  63.3134650 130.8157160  20.7479520  63.8603860 131.1964750
  19.2740810  63.8575380 130.8506770  12.2000790  58.9307470 126.3074240
  13.0695640  59.2132270 126.5910160  11.7091110  59.7443340 126.1923050
  19.3635600  60.3180680 130.4282520  19.8198380  61.1285930 130.6542710
  19.0123810  60.0003820 131.2601010  21.6668210  65.8287020 137.6574820
  22.3110430  66.0346400 138.3348240  22.0297650  65.0675420 137.2045670
  15.2647380  50.6618330 130.9005040  15.1362010  50.6536230 131.8489960
  14.4409400  51.0001420 130.5496050  22.9400290  63.8319370 136.3752270
  23.5822520  63.1312530 136.4884440  23.4649640  64.6117810 136.1949160
  26.7856010  64.1167990 126.0991410  26.5593590  63.3998430 126.6916050
  26.3952210  63.8680430 125.2613160  24.7137910  64.6314270 139.5788330
  25.0494150  65.2180960 140.2566250  23.7938250  64.5006980 139.8086120
  12.5672040  68.1434850 126.8735870  12.9269680  68.7424190 126.2193140
  12.4264380  68.6894740 127.6470900  12.2641310  52.4209450 140.3611740
  11.5499830  52.6206370 140.9664350  12.6836350  51.6449020 140.7326540
  26.3672260  62.0339930 127.7605570  26.0793960  62.4952620 128.5483450
  27.1624430  61.5737700 128.0289790  12.5513900  66.4089710 141.3478270
  12.6605020  65.4684450 141.2073660  11.8994460  66.6744460 140.6992000
  20.5426490  64.6805600 142.7476390  20.2223360  63.9614840 143.2922080
  19.8684850  65.3560670 142.8212450  18.5840660  65.5266050 127.6909540
  18.5750760  66.2595740 127.0754050  17.6639020  65.2797630 127.7836500
  14.1847300  60.7480940 128.4356300  13.5775250  61.4879840 128.4451600
  14.6596650  60.8380300 127.6094500  23.7580090  54.9131760 138.1113190
  24.1260910  54.0926970 138.4392760  22.8978290  54.9733650 138.5268840
  27.1242120  53.8688700 128.9200750  26.4955280  53.9734370 128.2058980
  26.6294040  54.0885480 129.7094630  21.5700260  65.5894290 126.3534730
  21.6712240  65.3858280 125.4236710  20.6702000  65.3352570 126.5582510
  19.0926150  56.1474650 130.3358630  18.3842300  56.6160990 130.7772240
  19.3770630  55.4896660 130.9703820  20.7182080  57.5671350 138.3351160
  21.2167330  58.0417170 139.0003010  20.8605030  56.6434870 138.5421190
  23.1241580  52.8725310 131.7754420  23.0009360  52.8911440 130.8263930
  24.0726140  52.9204250 131.8952820  20.2118370  68.1080610 131.0482400
  20.4659870  68.0702000 130.1261770  19.2630850  67.9813940 131.0410650
  17.2961170  54.4559730 127.7109340  18.1451700  54.8929880 127.6449530
  16.9292440  54.7679990 128.5381400  27.9248940  53.7839310 139.1779550
  27.4222540  54.5244710 139.5173360  28.7405600  54.1723310 138.8616340
  26.2170950  59.0272490 132.6240910  25.2761090  59.0422720 132.7988600
  26.5315020  58.2408450 133.0701210  16.1952590  60.7092090 126.1844870
  16.9615860  60.5973450 126.7470300  16.2727280  60.0130060 125.5321640
  14.8899350  58.1417160 126.8677760  14.9702940  57.1944670 126.9795160
  15.7819100  58.4724040 126.9738420  28.2196530  66.1981340 134.2995170
  28.3443950  67.0212510 134.7718980  29.0862090  65.9872070 133.9519320
  15.6914060  68.2912550 133.9712300  16.4276540  67.7428010 134.2420870
  16.0754980  69.1568560 133.8318290  12.5759540  64.3586120 129.8453810
  11.6499320  64.6007260 129.8359220  13.0415970  65.1860380 129.7238560
  14.6972340  67.4758620 143.1597880  15.4985070  67.7970670 143.5733280
  14.1824160  67.1154200 143.8817790  18.8016370  67.4642860 125.7937870
  19.5944980  67.7531690 125.3419660  18.2820720  67.0335030 125.1150350
  23.5336970  63.5838490 143.1073290  22.9275130  63.6070090 142.3669040
  23.2291080  62.8521530 143.6440540  24.9637340  67.3118780 141.7182700
  25.9159090  67.2276800 141.6682940  24.8165560  67.9760490 142.3916490
  27.8546540  66.6912990 127.2174610  27.5688050  66.2778130 126.4028790
  27.6566090  67.6200700 127.0975130  12.4170150  59.9632080 142.1033930
  12.9209170  59.3839360 142.6750160  11.6777570  60.2472310 142.6410300
  19.3193770  62.6846270 125.6580220  19.2144410  62.0698620 126.3841600
  19.1517990  62.1612160 124.8743230  19.4708090  61.3703070 141.6369450
  18.7053760  61.9388070 141.5524120  19.6524050  61.0779280 140.7437680
  22.5596500  61.7466300 126.2622210  22.0106600  62.1935600 126.9064950
  23.1815760  61.2415550 126.7859880  26.6131440  63.1008400 142.1944470
  27.3540910  63.4384160 141.6911930  25.8504120  63.2700460 141.6414240
  14.4493230  58.1061670 142.9984000  14.4898570  57.8075540 143.9069230
  15.3038730  58.5069280 142.8391520  18.2271620  60.7057220 128.1587510
  18.6488040  60.5397090 129.0018900  18.3522460  59.8957450 127.6642650
  16.3899040  56.6853770 140.9658490  15.8595500  56.1944720 140.3381830
  17.0587110  57.1137970 140.4316420  20.7399260  59.7294830 125.4064610
  21.2604920  59.0143850 125.0405760  21.3867660  60.3680700 125.7065120
  25.2877100  61.1523230 140.7299680  25.7018120  61.3068310 141.5790100
  24.3528100  61.2778450 140.8925460  25.7599270  58.4919390 142.7338830
  26.3420040  57.7371710 142.6459310  25.9361040  59.0226830 141.9570310
  16.8771340  53.6516140 141.0455780  16.7828210  53.0336890 140.3206650
  16.2968730  54.3782430 140.8185690  19.6432780  52.2089380 138.0783170
  19.1950080  52.2313640 137.2328720  19.0097980  51.8108400 138.6753470
  20.0492330  61.1043710 138.6995610  20.4680440  61.9476440 138.5271850
  19.1300960  61.2415750 138.4702390  22.3856230  58.8359890 140.0833450
  22.5052440  58.2401030 140.8228290  23.2450230  58.8729580 139.6634750
  24.7244130  59.3897080 138.6595960  24.1979350  59.9139700 138.0561100
  25.0675470  60.0224470 139.2905690  17.1230520  56.7790450 125.1045670
  16.9219580  55.9157810 125.4659010  16.9522570  56.6923810 124.1667270
  17.8999750  67.4096720 139.8153340  17.3620840  68.1342780 139.4962040
  18.1533710  66.9327060 139.0250680  19.1525000  55.3781240 141.3409270
  19.7424690  55.0697090 142.0287090  18.3345240  54.9060990 141.4969170
  23.9718430  54.9947050 141.5742290  23.2833950  54.3328590 141.5092280
  24.6924450  54.5485320 142.0190750  24.6018830  51.5898680 127.6332550
  24.8821120  50.7466580 127.9891970  23.8284560  51.8221790 128.1471300
  15.9213320  53.8791070 125.0923550  16.2239220  53.8858500 124.1842700
  16.6607910  53.5288930 125.5891210  20.7561960  68.6447930 140.0739990
  20.6820660  69.5483070 140.3812360  19.8540800  68.3259830 140.0462060
  19.1398250  52.8225690 126.0779750  18.7920250  52.1449680 125.4982200
  19.3411020  52.3615200 126.8923140  21.3047290  67.8106440 127.6966350
  22.1998080  68.1491410 127.7185110  21.3364920  67.0885850 127.0690630
  14.9443450  63.1833490 125.9253350  15.3818320  63.7263160 126.5810930
  15.4291180  62.3580440 125.9349690  12.1589250  65.9722520 133.3773610
  12.4892260  65.1043580 133.1452250  12.5880250  66.1781040 134.2078570
  16.7551170  64.3031530 131.0375580  16.4546710  64.1796500 131.9379490
  16.6488660  63.4440120 130.6291310  12.6479460  66.8393110 136.1155240
  12.2110450  67.0193910 136.9479390  13.2157140  67.5967730 135.9736960
  28.2841640  66.3410110 140.4032550  27.6843630  66.4002670 139.6596470
  28.4135540  65.4015090 140.5329400  29.5243090  64.0827930 125.7402260
  28.6936050  64.1504580 126.2109490  29.7014920  64.9732050 125.4369120
  28.9799550  60.8275410 128.2436460  29.7418460  61.3972060 128.3496150
  28.9953920  60.2602610 129.0144770  12.4803890  59.3513340 132.4744120
  11.8252730  59.0824980 131.8303820  13.3181840  59.2417820 132.0246100
  29.9859520  61.6825510 133.0878390  30.3568350  60.8992830 132.6814360
  30.6261450  62.3714610 132.9095690  26.9693280  63.0662090 138.5008710
  26.1553120  63.4959250 138.7634500  27.3767480  63.6780500 137.8877760
  29.0318720  61.1209780 125.4008980  29.3067560  62.0288660 125.2728200
  28.8429460  61.0572310 126.3370970  25.4294330  54.1454630 126.6962610
  25.8479210  53.9585610 125.8559270  25.1230390  53.2933680 127.0065540
  28.9284060  59.0578770 130.3938410  28.5527660  58.2906700 129.9619700
  28.1987180  59.4401470 130.8813340  13.5179820  59.7365910 137.0147460
  13.8852860  59.6493310 137.8943480  12.9490640  58.9732460 136.9154320
  28.3183680  58.2050290 140.0277930  28.0869770  57.9763040 139.1275880
  28.5788230  59.1249840 139.9822820  13.0695820  56.6475000 140.9205880
  12.1751870  56.6141760 141.2599590  13.6093370  56.8461790 141.6857130
  26.7571750  53.4306720 142.8057630  27.6341930  53.4390120 143.1891630
  26.7692590  52.6937560 142.1949980  11.6941970  56.5612270 128.4169450
  10.7906050  56.8242470 128.2421110  12.1782590  56.8323440 127.6369410
  28.2035020  57.2836260 133.6945650  28.7272500  56.7898910 133.0635820
  28.7894440  57.4186620 134.4393220  28.3824740  57.3676130 137.2165200
  27.4327450  57.3339670 137.3310190  28.5637750  58.2776240 136.9814970
  14.2369180  55.6177810 126.3263830  14.9460880  55.1961030 125.8411110
  13.5209120  55.6853040 125.6947180  13.8843340  51.6717140 125.3666480
  14.6071470  52.2126080 125.6847700  14.1567860  51.3980560 124.4908020
  27.6934990  56.5409610 129.6338060  28.1894110  56.3080480 130.4186940
  27.4951060  55.7021450 129.2175700  13.5735530  50.9223330 135.2689100
  14.2211720  50.3720710 134.8284260  13.9937370  51.1766480 136.0904910
  29.1222150  55.1770560 132.1675740  29.0121430  55.0226600 133.1058010
  29.8829740  54.6491500 131.9251150  27.4687870  51.1164690 138.6258740
  28.1060090  51.7298830 138.9917930  27.6162760  51.1525350 137.6807970
  30.0112420  53.0078480 125.4081880  30.9361730  52.8759660 125.2000170
  29.9888210  53.0871300 126.3618330  30.0850910  53.7789140 128.0338590
  29.2902410  53.7134260 128.5631500  30.2894190  54.7139780 128.0223940
  27.0269330  67.8180690 132.0276980  27.6228400  67.4965260 131.3511400
  27.2847480  67.3452510 132.8190250  13.3267530  51.0779000 138.0114420
  12.9782350  51.5342820 138.7772600  12.9955230  50.1836130 138.0936850
  14.9331900  64.2498600 142.1767610  14.8901530  63.8791510 143.0582070
  15.0642910  65.1876170 142.3169430  18.6337930  65.8058190 137.7777330
  18.3929290  66.0732750 136.8907850  19.5740570  65.9763920 137.8328190
  20.8392350  52.2690880 141.5333840  20.7781240  52.8612710 142.2829250
  21.7792730  52.1616840 141.3884100  23.4766910  51.9260940 141.1726130
  24.0907320  52.2440230 140.5107210  24.0216470  51.4409530 141.7921990
  29.8942090  67.8252570 138.5787970  29.4000370  68.2221440 137.8615100
  29.2855380  67.2001780 138.9725250  13.9988170  50.6055200 141.2865190
  14.5471160  50.4243250 140.5231300  14.0643480  49.8149310 141.8221500
  14.7719930  67.1960850 139.2965390  14.1780250  67.0645550 140.0355430
  14.7643770  66.3598990 138.8307490  24.2174950  50.4893080 137.4995420
  23.3434790  50.8228190 137.2968350  24.1085700  50.0166260 138.3247290
  25.1246930  52.6963950 138.8837140  24.7960290  51.8815710 138.5038870
  26.0729230  52.6533760 138.7602830  27.5781540  68.4675990 135.8574710
  27.1184510  69.2191800 135.4832730  26.9494000  67.7482460 135.7989510
  14.4032160  64.5619230 138.2473430  13.6766220  63.9424520 138.1799380
  14.4641310  64.9559840 137.3771510  18.0077260  66.7764230 135.0322840
  18.5242280  66.1651590 134.5071100  18.6574640  67.2793010 135.5233850
  20.7472760  67.6672720 135.8591820  21.0350570  67.4127020 134.9824830
  21.2595980  67.1150080 136.4497390  21.9649770  51.4062920 136.4388330
  21.1821560  51.8808420 136.7185090  21.6712700  50.5017750 136.3301510
  26.5170840  52.1086020 134.4837420  26.9578930  52.0531120 133.6359020
  26.2478430  53.0244030 134.5547600  28.3809410  51.7401260 132.4946240
  28.3197810  50.7962480 132.3477260  29.1601440  51.8481350 133.0399700
  12.6862160  67.8793620 131.4570190  12.5184200  67.2464300 132.1552080
  11.8196670  68.0853020 131.1064380  13.3090180  51.7110400 128.9602050
  14.0669540  51.8239280 128.3866080  12.8467350  52.5479600 128.9145480
  19.8503990  53.8249670 131.9504360  19.0378500  53.4506560 131.6100240
  20.3545630  53.0694750 132.2525550  24.3528970  50.4892120 133.1887430
  24.9558340  51.0612330 133.6635950  23.6121960  51.0531560 132.9661330
  27.4963570  50.8913680 128.4627710  27.6914200  51.7897130 128.7295140
  26.7093440  50.6600760 128.9560660  14.2924860  66.5726850 128.9020330
  13.7672480  66.9534880 128.1982290  14.2169440  67.1977620 129.6230040
  15.6815330  52.2374450 127.5004020  16.2108090  51.4504250 127.3711970
  16.3143650  52.9165640 127.7339550  17.8753170  51.9749590 130.5549410
  17.2455910  51.2736900 130.7219540  17.3358310  52.7353720 130.3382570
  20.8145120  68.5888820 143.2260020  21.7412430  68.3533090 143.2695980
  20.7995550  69.4160820 142.7446050  29.0490180  68.1314390 130.2234270
  29.2242370  67.4452130 129.5795190  28.3511750  68.6561440 129.8310940
  18.0008730  51.2533570 142.9901900  17.7193000  51.7567170 142.2262720
  18.3828430  50.4555320 142.6244030  16.8917830  68.5209230 127.7769580
  17.6236650  68.2368510 127.2293470  17.1511500  68.2822510 128.6668960
  16.0532620  64.6373960 127.7815910  15.4241500  65.1059060 128.3301740
  16.1680450  63.7923180 128.2162100  24.6024190  50.6687150 143.5682370
  24.4889640  50.9881760 144.4633890  25.4193930  51.0699660 143.2719650
  27.3822680  67.8158680 143.0501060  28.1748000  67.3207910 142.8427020
  27.6755830  68.4948820 143.6576670  23.5082340  58.6879620 113.9317110
  23.4276390  57.7734230 113.6608820  23.0946760  59.1846690 113.2256820
  21.6400380  60.4658640 115.8126380  20.8642480  59.9859080 116.1024950
  22.2913310  59.7864290 115.6382540  15.6566210  60.7778450 116.6902140
  14.8251090  60.5227160 117.0898650  16.2647190  60.8489220 117.4260060
  25.6607810  64.8718830 114.5925510  25.1989340  64.1006070 114.9212680
  26.4733360  64.8984900 115.0977960  15.6367470  64.8118540 116.8860160
  15.9395510  63.9216280 116.7070380  16.3811060  65.3688760 116.6582410
  14.0658160  55.7380340 110.4744530  13.1774860  56.0796310 110.3724410
  14.3499350  55.5380660 109.5825360  12.0291170  58.3385990 116.3584230
  12.6007280  57.5708190 116.3587870  12.0292710  58.6374750 115.4490840
  21.8871120  67.1576840 114.2129500  21.2682560  67.6134340 113.6423940
  22.7422900  67.3128300 113.8119200  21.0809370  63.1415830 115.8196540
  21.0117650  62.2005770 115.6585670  21.8429230  63.2317240 116.3919110
  13.2716040  53.7470350 118.1453160  13.0918880  52.8496100 118.4255920
  12.8696120  54.2942220 118.8200110  22.1114540  55.9486210 116.0465470
  22.4879360  55.0758090 115.9339140  22.0134050  56.2844910 115.1555910
  16.2419550  54.3211840 111.5082910  16.3486300  55.2215570 111.8151670
  15.3311910  54.2729810 111.2177560  25.8938660  53.4436650 112.9793810
  26.7148280  52.9533220 113.0219290  25.9272740  54.0334310 113.7325650
  13.8902710  56.2430850 116.7535500  14.5712820  56.5069220 117.3722900
  13.5750760  55.4031720 117.0873510  18.0827280  57.2898210 115.8408090
  18.5905500  57.7879180 116.4813110  18.6140520  56.5133410 115.6647450
  30.1838210  55.4603400 119.5437440  29.4790380  55.8485110 119.0252550
  30.4496130  56.1553690 120.1458370  16.3663380  51.9296770 120.1071510
  16.3681820  52.4469160 119.3017410  15.5367690  51.4526950 120.0841440
  22.7534470  62.0416080 111.6061410  22.1351740  62.5065530 111.0424130
  23.2657720  62.7343560 112.0230920  17.6166230  61.5691950 118.2845010
  17.2835610  62.1960870 118.9266080  17.7932910  62.0953830 117.5046680
  26.1300140  55.3837030 115.7521350  25.4255710  55.6721920 116.3324460
  26.4912300  56.1937140 115.3920910  16.0478710  53.6406730 118.1141960
  16.3895520  54.4848780 117.8195830  15.1094520  53.7890470 118.2307300
  16.8285330  63.5372750 120.0994190  17.4459330  64.2123830 119.8178640
  15.9678450  63.9460730 120.0081690  12.1217670  62.7272610 108.9801040
  11.7445650  63.2159710 108.2485940  12.3790740  63.3997890 109.6107570
  27.7462920  65.0012160 118.0148830  27.0626440  65.6711270 118.0065500
  28.2857210  65.1992810 117.2493690  19.7306600  51.1289000 114.4386550
  20.0381580  50.5735890 113.7222050  18.8007300  51.2633460 114.2559540
  25.2821660  66.8456290 116.7294010  25.2948820  66.4418580 115.8616270
  24.7296880  67.6203580 116.6255440  26.5767080  63.5672510 111.8184180
  26.4663410  62.6246840 111.9433600  26.5735330  63.9288150 112.7046940
  24.6807100  61.7486130 118.0576620  25.0975890  61.5346240 117.2230080
  25.4046920  62.0058920 118.6285240  22.1187360  59.1937830 111.1746670
  21.1916640  59.1275210 111.4035140  22.2712180  60.1317960 111.0601910
  22.1056440  55.4654830 108.1713830  21.1660110  55.6268790 108.2566290
  22.4239700  56.1840510 107.6249820  26.1484650  60.7558130 111.6781920
  25.5297070  60.4177680 111.0308220  26.1309100  60.1117890 112.3861110
  25.5911210  56.9342670 119.0947730  25.1782390  57.7596380 119.3487720
  24.8587160  56.3487710 118.9024090  17.7244000  59.7202570 113.9566400
  17.3201000  59.0079820 113.4612300  17.8107120  59.3755810 114.8454440
  18.1925700  63.4070130 116.1205610  17.8953990  62.8015600 115.4413390
  19.1425520  63.4447440 116.0094970  16.4372620  56.4945780 117.7365440
  16.9887210  56.6041120 116.9618690  16.9516130  56.8683380 118.4520670
  26.2811310  66.9802000 119.7828710  25.8041870  67.7874190 119.5901320
  25.5973100  66.3280330 119.9354920  17.2844130  63.1451820 122.7713410
  16.3872660  63.3691790 123.0186810  17.3097000  63.2686760 121.8224810
  24.3249350  59.9944940 108.6854670  24.7642630  59.1567370 108.5392490
  25.0377770  60.6274340 108.7718810  16.1115350  60.0165140 121.3470780
  15.9723120  60.8887940 121.7158180  15.2296710  59.6737950 121.2018720
  17.9095700  65.9586840 123.5555930  17.8811130  66.3629790 122.6884360
  17.7460670  65.0297200 123.3927530  14.4248630  58.6147550 111.4573050
  14.3046230  59.3409640 110.8454320  14.1149520  57.8450460 110.9800960
  29.8610520  66.7413940 124.8520100  30.3370240  67.2196830 125.5309180
  30.4817680  66.6731430 124.1265600  12.0634000  61.7862690 117.2641690
  12.1414420  61.9211460 116.3197410  12.6775680  61.0778580 117.4569810
  13.3081630  63.4862880 113.6747870  12.9009710  63.6277470 112.8201470
  14.1994640  63.2023040 113.4719080  29.2643770  63.9326790 122.0120110
  29.3906830  63.6938670 121.0937290  29.3065150  63.1011330 122.4842190
  23.1260510  67.6354790 120.5814920  23.6405180  67.5462800 121.3837350
  22.2829590  67.9814490 120.8742830  17.5803290  67.7008660 111.7870540
  17.4045770  66.7844200 111.5738340  16.7259030  68.0595950 112.0268340
  29.1167780  55.9859250 122.9769850  28.5012050  56.4938920 122.4485310
  28.7964200  55.0857580 122.9195790  12.1193520  62.8276860 119.8036150
  12.2824560  62.3582220 118.9855520  12.5845970  62.3200420 120.4684990
  16.8912290  51.9582620 114.8396720  16.4480440  52.7392160 114.5081240
  17.4497280  52.2812510 115.5467660  21.1782100  54.8251140 120.4432040
  20.7161470  55.0334160 121.2551980  20.7760210  54.0110490 120.1402710
  26.1786610  56.0460090 121.5728700  25.3280200  55.7465840 121.8937770
  26.0188400  56.2902100 120.6612520  23.2736320  57.5461840 123.6727490
  23.5989730  56.7125590 123.3329720  24.0616650  58.0690360 123.8205820
  20.0071110  51.5793320 109.7202550  19.3825290  51.5753190 110.4455860
  19.9201230  50.7124280 109.3238520  18.9288190  52.5029950 116.6986320
  19.2260520  53.4092780 116.6178340  19.4773750  52.0148730 116.0845890
  16.6826510  57.0816190 112.5677970  16.4567430  56.8653360 113.4724590
  15.9019040  57.5144650 112.2223940  23.9124270  57.0879560 111.1668620
  23.3133160  57.8115360 110.9832240  24.4603880  57.0256340 110.3845070
  19.1225720  57.9801770 123.2338240  19.0269320  57.0396500 123.0838640
  19.9657700  58.2016840 122.8386310  22.5189140  55.7243100 113.1971900
  22.9118710  56.0415300 112.3840590  22.8805990  54.8454980 113.3116420
  14.2536260  54.3915440 121.3872020  13.8599650  55.2390650 121.5944800
  13.5654660  53.7541810 121.5780660  20.8281310  54.4750410 124.4568760
  20.1379630  54.2822610 125.0914850  21.5713610  54.7585050 124.9893060
  11.5553310  52.3143900 115.4202100  11.2666360  52.8846760 116.1327080
  12.2999070  51.8348350 115.7833330  11.7423540  56.2564020 106.6304820
  11.6598210  57.1994780 106.7719810  11.3906600  56.1138930 105.7517170
  23.1044280  58.3148850 117.2922680  22.3725400  58.8235660 117.6412780
  22.7068620  57.4978830 116.9911460  19.5421670  54.9903050 115.6975170
  19.5457730  54.5493000 114.8479710  20.4372790  55.3120380 115.8046990
  15.3924050  54.8729540 114.6569380  15.0524100  55.3504770 115.4136430
  14.6301370  54.4194660 114.2970480  19.6041820  55.9915130 108.6881930
  19.7254640  55.9501610 109.6367750  19.2190330  56.8539280 108.5328660
  23.5670190  53.7682530 116.7045620  23.5842930  54.2191180 117.5487470
  23.3185770  52.8688170 116.9179060  18.6163320  58.3016270 108.0865230
  18.0480220  57.8534520 107.4601140  19.3252320  58.6609050 107.5530380
  26.9940940  51.1814710 122.5432000  27.3186710  50.4504370 123.0689980
  27.0297450  50.8628350 121.6412990  13.6932500  62.2028290 121.9631960
  13.3087290  61.5621960 122.5614920  14.0044690  62.9064410 122.5326690
  19.8429640  59.0504830 117.4440580  20.2099770  58.5763400 118.1901920
  19.6534700  59.9246400 117.7848920  12.7070130  53.7948520 113.5734050
  12.4217050  53.4304190 114.4112670  12.6448990  53.0628980 112.9597190
  17.6329010  58.0913470 119.7624790  17.3286080  58.9705450 119.9875150
  18.5875470  58.1513260 119.7982230  16.1610800  62.2974460 110.3591640
  15.3873060  61.7572080 110.1990360  16.8905430  61.7781070 110.0209400
  26.9198780  61.2939820 116.1518030  27.6397900  61.7895110 115.7614140
  26.7180600  60.6157710 115.5071900  22.3808720  52.6877780 110.2947420
  21.5673330  52.1890950 110.2192730  22.1870670  53.5276030 109.8783770
  22.3017580  61.3648880 122.0387030  22.2354890  60.4444550 121.7844620
  21.6722720  61.4624320 122.7531670  25.0957110  57.0597430 108.5909580
  25.9836730  57.3714660 108.4160920  25.0662200  56.1869680 108.1990160
  16.2048200  61.9654840 113.9970450  16.7226870  61.1623100 113.9427340
  15.7532220  61.9033980 114.8387280  21.0917700  63.2321120 109.2697750
  21.4333400  63.9763350 108.7741070  20.2630410  63.5452240 109.6322580
  13.6892740  58.9316210 120.9096150  13.3307680  59.5970060 121.4969490
  13.3947300  58.0999760 121.2808770  16.8905860  59.3900450 123.7935700
  16.5906000  59.5357630 122.8963520  17.6617100  58.8305740 123.7009090
  22.2334310  64.1869450 121.7890830  22.2478850  63.2550410 121.5709740
  21.5259410  64.2729210 122.4280600  27.3671380  58.3709270 108.0589440
  27.2835100  58.8023490 107.2085880  28.0865570  58.8307620 108.4916260
  28.4445520  60.8276790 121.1359410  27.7193710  61.4205570 120.9388800
  28.9720980  60.8200330 120.3372780  23.9745110  62.5536960 114.6343260
  24.3268930  61.9565090 113.9744630  23.0907440  62.2281190 114.8051510
  20.0608390  63.3134650 112.0413670  20.7479520  63.8603860 112.4221260
  19.2740810  63.8575380 112.0763280  12.2000790  58.9307470 107.5330750
  13.0695640  59.2132270 107.8166670  11.7091110  59.7443340 107.4179560
  19.3635600  60.3180680 111.6539030  19.8198380  61.1285930 111.8799220
  19.0123810  60.0003820 112.4857520  21.6668210  65.8287020 118.8831330
  22.3110430  66.0346400 119.5604750  22.0297650  65.0675420 118.4302180
  15.2647380  50.6618330 112.1261550  15.1362010  50.6536230 113.0746470
  14.4409400  51.0001420 111.7752560  22.9400290  63.8319370 117.6008780
  23.5822520  63.1312530 117.7140950  23.4649640  64.6117810 117.4205670
  24.7137910  64.6314270 120.8044840  25.0494150  65.2180960 121.4822760
  23.7938250  64.5006980 121.0342630  12.5672040  68.1434850 108.0992380
  12.9269680  68.7424190 107.4449650  12.4264380  68.6894740 108.8727410
  12.2641310  52.4209450 121.5868250  11.5499830  52.6206370 122.1920860
  12.6836350  51.6449020 121.9583050  26.3672260  62.0339930 108.9862080
  26.0793960  62.4952620 109.7739960  27.1624430  61.5737700 109.2546300
  12.5513900  66.4089710 122.5734780  12.6605020  65.4684450 122.4330170
  11.8994460  66.6744460 121.9248510  20.5426490  64.6805600 123.9732900
  20.2223360  63.9614840 124.5178590  19.8684850  65.3560670 124.0468960
  18.5840660  65.5266050 108.9166050  18.5750760  66.2595740 108.3010560
  17.6639020  65.2797630 109.0093010  14.1847300  60.7480940 109.6612810
  13.5775250  61.4879840 109.6708110  14.6596650  60.8380300 108.8351010
  23.7580090  54.9131760 119.3369700  24.1260910  54.0926970 119.6649270
  22.8978290  54.9733650 119.7525350  19.0926150  56.1474650 111.5615140
  18.3842300  56.6160990 112.0028750  19.3770630  55.4896660 112.1960330
  20.7182080  57.5671350 119.5607670  21.2167330  58.0417170 120.2259520
  20.8605030  56.6434870 119.7677700  23.1241580  52.8725310 113.0010930
  23.0009360  52.8911440 112.0520440  24.0726140  52.9204250 113.1209330
  20.2118370  68.1080610 112.2738910  20.4659870  68.0702000 111.3518280
  19.2630850  67.9813940 112.2667160  17.2961170  54.4559730 108.9365850
  18.1451700  54.8929880 108.8706040  16.9292440  54.7679990 109.7637910
  27.9248940  53.7839310 120.4036060  27.4222540  54.5244710 120.7429870
  28.7405600  54.1723310 120.0872850  26.2170950  59.0272490 113.8497420
  25.2761090  59.0422720 114.0245110  26.5315020  58.2408450 114.2957720
  16.1952590  60.7092090 107.4101380  16.9615860  60.5973450 107.9726810
  16.2727280  60.0130060 106.7578150  14.8899350  58.1417160 108.0934270
  14.9702940  57.1944670 108.2051670  15.7819100  58.4724040 108.1994930
  28.2196530  66.1981340 115.5251680  28.3443950  67.0212510 115.9975490
  29.0862090  65.9872070 115.1775830  15.6914060  68.2912550 115.1968810
  16.4276540  67.7428010 115.4677380  16.0754980  69.1568560 115.0574800
  12.5759540  64.3586120 111.0710320  11.6499320  64.6007260 111.0615730
  13.0415970  65.1860380 110.9495070  14.6972340  67.4758620 124.3854390
  15.4985070  67.7970670 124.7989790  14.1824160  67.1154200 125.1074300
  18.8016370  67.4642860 107.0194380  19.5944980  67.7531690 106.5676170
  18.2820720  67.0335030 106.3406860  23.5336970  63.5838490 124.3329800
  22.9275130  63.6070090 123.5925550  23.2291080  62.8521530 124.8697050
  24.9637340  67.3118780 122.9439210  25.9159090  67.2276800 122.8939450
  24.8165560  67.9760490 123.6173000  12.4170150  59.9632080 123.3290440
  12.9209170  59.3839360 123.9006670  11.6777570  60.2472310 123.8666810
  19.3193770  62.6846270 106.8836730  19.2144410  62.0698620 107.6098110
  19.1517990  62.1612160 106.0999740  19.4708090  61.3703070 122.8625960
  18.7053760  61.9388070 122.7780630  19.6524050  61.0779280 121.9694190
  22.5596500  61.7466300 107.4878720  22.0106600  62.1935600 108.1321460
  23.1815760  61.2415550 108.0116390  26.6131440  63.1008400 123.4200980
  27.3540910  63.4384160 122.9168440  25.8504120  63.2700460 122.8670750
  14.4493230  58.1061670 124.2240510  14.4898570  57.8075540 125.1325740
  15.3038730  58.5069280 124.0648030  18.2271620  60.7057220 109.3844020
  18.6488040  60.5397090 110.2275410  18.3522460  59.8957450 108.8899160
  16.3899040  56.6853770 122.1915000  15.8595500  56.1944720 121.5638340
  17.0587110  57.1137970 121.6572930  20.7399260  59.7294830 106.6321120
  21.2604920  59.0143850 106.2662270  21.3867660  60.3680700 106.9321630
  25.2877100  61.1523230 121.9556190  25.7018120  61.3068310 122.8046610
  24.3528100  61.2778450 122.1181970  25.7599270  58.4919390 123.9595340
  26.3420040  57.7371710 123.8715820  25.9361040  59.0226830 123.1826820
  16.8771340  53.6516140 122.2712290  16.7828210  53.0336890 121.5463160
  16.2968730  54.3782430 122.0442200  19.6432780  52.2089380 119.3039680
  19.1950080  52.2313640 118.4585230  19.0097980  51.8108400 119.9009980
  20.0492330  61.1043710 119.9252120  20.4680440  61.9476440 119.7528360
  19.1300960  61.2415750 119.6958900  22.3856230  58.8359890 121.3089960
  22.5052440  58.2401030 122.0484800  23.2450230  58.8729580 120.8891260
  24.7244130  59.3897080 119.8852470  24.1979350  59.9139700 119.2817610
  25.0675470  60.0224470 120.5162200  17.1230520  56.7790450 106.3302180
  16.9219580  55.9157810 106.6915520  16.9522570  56.6923810 105.3923780
  17.8999750  67.4096720 121.0409850  17.3620840  68.1342780 120.7218550
  18.1533710  66.9327060 120.2507190  19.1525000  55.3781240 122.5665780
  19.7424690  55.0697090 123.2543600  18.3345240  54.9060990 122.7225680
  23.9718430  54.9947050 122.7998800  23.2833950  54.3328590 122.7348790
  24.6924450  54.5485320 123.2447260  24.6018830  51.5898680 108.8589060
  24.8821120  50.7466580 109.2148480  23.8284560  51.8221790 109.3727810
  15.9213320  53.8791070 106.3180060  16.2239220  53.8858500 105.4099210
  16.6607910  53.5288930 106.8147720  20.7561960  68.6447930 121.2996500
  20.6820660  69.5483070 121.6068870  19.8540800  68.3259830 121.2718570
  19.1398250  52.8225690 107.3036260  18.7920250  52.1449680 106.7238710
  19.3411020  52.3615200 108.1179650  14.9443450  63.1833490 107.1509860
  15.3818320  63.7263160 107.8067440  15.4291180  62.3580440 107.1606200
  12.1589250  65.9722520 114.6030120  12.4892260  65.1043580 114.3708760
  12.5880250  66.1781040 115.4335080  16.7551170  64.3031530 112.2632090
  16.4546710  64.1796500 113.1636000  16.6488660  63.4440120 111.8547820
  12.6479460  66.8393110 117.3411750  12.2110450  67.0193910 118.1735900
  13.2157140  67.5967730 117.1993470  28.2841640  66.3410110 121.6289060
  27.6843630  66.4002670 120.8852980  28.4135540  65.4015090 121.7585910
  28.9799550  60.8275410 109.4692970  29.7418460  61.3972060 109.5752660
  28.9953920  60.2602610 110.2401280  12.4803890  59.3513340 113.7000630
  11.8252730  59.0824980 113.0560330  13.3181840  59.2417820 113.2502610
  29.9859520  61.6825510 114.3134900  30.3568350  60.8992830 113.9070870
  30.6261450  62.3714610 114.1352200  26.9693280  63.0662090 119.7265220
  26.1553120  63.4959250 119.9891010  27.3767480  63.6780500 119.1134270
  29.0318720  61.1209780 106.6265490  29.3067560  62.0288660 106.4984710
  28.8429460  61.0572310 107.5627480  25.4294330  54.1454630 107.9219120
  25.8479210  53.9585610 107.0815780  25.1230390  53.2933680 108.2322050
  28.9284060  59.0578770 111.6194920  28.5527660  58.2906700 111.1876210
  28.1987180  59.4401470 112.1069850  13.5179820  59.7365910 118.2403970
  13.8852860  59.6493310 119.1199990  12.9490640  58.9732460 118.1410830
  28.3183680  58.2050290 121.2534440  28.0869770  57.9763040 120.3532390
  28.5788230  59.1249840 121.2079330  13.0695820  56.6475000 122.1462390
  12.1751870  56.6141760 122.4856100  13.6093370  56.8461790 122.9113640
  26.7571750  53.4306720 124.0314140  27.6341930  53.4390120 124.4148140
  26.7692590  52.6937560 123.4206490  11.6941970  56.5612270 109.6425960
  10.7906050  56.8242470 109.4677620  12.1782590  56.8323440 108.8625920
  14.2369180  55.6177810 107.5520340  14.9460880  55.1961030 107.0667620
  13.5209120  55.6853040 106.9203690  13.8843340  51.6717140 106.5922990
  14.6071470  52.2126080 106.9104210  14.1567860  51.3980560 105.7164530
  27.6934990  56.5409610 110.8594570  28.1894110  56.3080480 111.6443450
  27.4951060  55.7021450 110.4432210  13.5735530  50.9223330 116.4945610
  14.2211720  50.3720710 116.0540770  13.9937370  51.1766480 117.3161420
  27.4687870  51.1164690 119.8515250  28.1060090  51.7298830 120.2174440
  27.6162760  51.1525350 118.9064480  27.0269330  67.8180690 113.2533490
  27.6228400  67.4965260 112.5767910  27.2847480  67.3452510 114.0446760
  13.3267530  51.0779000 119.2370930  12.9782350  51.5342820 120.0029110
  12.9955230  50.1836130 119.3193360  14.9331900  64.2498600 123.4024120
  14.8901530  63.8791510 124.2838580  15.0642910  65.1876170 123.5425940
  18.6337930  65.8058190 119.0033840  18.3929290  66.0732750 118.1164360
  19.5740570  65.9763920 119.0584700  20.8392350  52.2690880 122.7590350
  20.7781240  52.8612710 123.5085760  21.7792730  52.1616840 122.6140610
  23.4766910  51.9260940 122.3982640  24.0907320  52.2440230 121.7363720
  24.0216470  51.4409530 123.0178500  29.8942090  67.8252570 119.8044480
  29.4000370  68.2221440 119.0871610  29.2855380  67.2001780 120.1981760
  13.9988170  50.6055200 122.5121700  14.5471160  50.4243250 121.7487810
  14.0643480  49.8149310 123.0478010  14.7719930  67.1960850 120.5221900
  14.1780250  67.0645550 121.2611940  14.7643770  66.3598990 120.0564000
  24.2174950  50.4893080 118.7251930  23.3434790  50.8228190 118.5224860
  24.1085700  50.0166260 119.5503800  25.1246930  52.6963950 120.1093650
  24.7960290  51.8815710 119.7295380  26.0729230  52.6533760 119.9859340
  27.5781540  68.4675990 117.0831220  27.1184510  69.2191800 116.7089240
  26.9494000  67.7482460 117.0246020  14.4032160  64.5619230 119.4729940
  13.6766220  63.9424520 119.4055890  14.4641310  64.9559840 118.6028020
  18.0077260  66.7764230 116.2579350  18.5242280  66.1651590 115.7327610
  18.6574640  67.2793010 116.7490360  20.7472760  67.6672720 117.0848330
  21.0350570  67.4127020 116.2081340  21.2595980  67.1150080 117.6753900
  21.9649770  51.4062920 117.6644840  21.1821560  51.8808420 117.9441600
  21.6712700  50.5017750 117.5558020  26.5170840  52.1086020 115.7093930
  26.9578930  52.0531120 114.8615530  26.2478430  53.0244030 115.7804110
  28.3809410  51.7401260 113.7202750  28.3197810  50.7962480 113.5733770
  29.1601440  51.8481350 114.2656210  12.6862160  67.8793620 112.6826700
  12.5184200  67.2464300 113.3808590  11.8196670  68.0853020 112.3320890
  13.3090180  51.7110400 110.1858560  14.0669540  51.8239280 109.6122590
  12.8467350  52.5479600 110.1401990  19.8503990  53.8249670 113.1760870
  19.0378500  53.4506560 112.8356750  20.3545630  53.0694750 113.4782060
  24.3528970  50.4892120 114.4143940  24.9558340  51.0612330 114.8892460
  23.6121960  51.0531560 114.1917840  14.2924860  66.5726850 110.1276840
  13.7672480  66.9534880 109.4238800  14.2169440  67.1977620 110.8486550
  15.6815330  52.2374450 108.7260530  16.2108090  51.4504250 108.5968480
  16.3143650  52.9165640 108.9596060  17.8753170  51.9749590 111.7805920
  17.2455910  51.2736900 111.9476050  17.3358310  52.7353720 111.5639080
  20.8145120  68.5888820 124.4516530  21.7412430  68.3533090 124.4952490
  20.7995550  69.4160820 123.9702560  29.0490180  68.1314390 111.4490780
  29.2242370  67.4452130 110.8051700  28.3511750  68.6561440 111.0567450
  18.0008730  51.2533570 124.2158410  17.7193000  51.7567170 123.4519230
  18.3828430  50.4555320 123.8500540  16.8917830  68.5209230 109.0026090
  17.6236650  68.2368510 108.4549980  17.1511500  68.2822510 109.8925470
  16.0532620  64.6373960 109.0072420  15.4241500  65.1059060 109.5558250
  16.1680450  63.7923180 109.4418610  24.6024190  50.6687150 124.7938880
  24.4889640  50.9881760 125.6890400  25.4193930  51.0699660 124.4976160
  27.3822680  67.8158680 124.2757570  28.1748000  67.3207910 124.0683530
  27.6755830  68.4948820 124.8833180  23.5082340  58.6879620  95.1573620
  23.4276390  57.7734230  94.8865330  23.0946760  59.1846690  94.4513330
  15.6367470  64.8118540  98.1116670  15.9395510  63.9216280  97.9326890
  16.3811060  65.3688760  97.8838920  14.0658160  55.7380340  91.7001040
  13.1774860  56.0796310  91.5980920  14.3499350  55.5380660  90.8081870
  12.0291170  58.3385990  97.5840740  12.6007280  57.5708190  97.5844380
  12.0292710  58.6374750  96.6747350  13.2716040  53.7470350  99.3709670
  13.0918880  52.8496100  99.6512430  12.8696120  54.2942220 100.0456620
  22.1114540  55.9486210  97.2721980  22.4879360  55.0758090  97.1595650
  22.0134050  56.2844910  96.3812420  16.2419550  54.3211840  92.7339420
  16.3486300  55.2215570  93.0408180  15.3311910  54.2729810  92.4434070
  13.8902710  56.2430850  97.9792010  14.5712820  56.5069220  98.5979410
  13.5750760  55.4031720  98.3130020  16.3663380  51.9296770 101.3328020
  16.3681820  52.4469160 100.5273920  15.5367690  51.4526950 101.3097950
  16.0478710  53.6406730  99.3398470  16.3895520  54.4848780  99.0452340
  15.1094520  53.7890470  99.4563810  16.8285330  63.5372750 101.3250700
  17.4459330  64.2123830 101.0435150  15.9678450  63.9460730 101.2338200
  12.1217670  62.7272610  90.2057550  11.7445650  63.2159710  89.4742450
  12.3790740  63.3997890  90.8364080  27.7462920  65.0012160  99.2405340
  27.0626440  65.6711270  99.2322010  28.2857210  65.1992810  98.4750200
  19.7306600  51.1289000  95.6643060  20.0381580  50.5735890  94.9478560
  18.8007300  51.2633460  95.4816050  25.2821660  66.8456290  97.9550520
  25.2948820  66.4418580  97.0872780  24.7296880  67.6203580  97.8511950
  24.6807100  61.7486130  99.2833130  25.0975890  61.5346240  98.4486590
  25.4046920  62.0058920  99.8541750  22.1056440  55.4654830  89.3970340
  21.1660110  55.6268790  89.4822800  22.4239700  56.1840510  88.8506330
  26.1484650  60.7558130  92.9038430  25.5297070  60.4177680  92.2564730
  26.1309100  60.1117890  93.6117620  25.5911210  56.9342670 100.3204240
  25.1782390  57.7596380 100.5744230  24.8587160  56.3487710 100.1280600
  16.4372620  56.4945780  98.9621950  16.9887210  56.6041120  98.1875200
  16.9516130  56.8683380  99.6777180  26.2811310  66.9802000 101.0085220
  25.8041870  67.7874190 100.8157830  25.5973100  66.3280330 101.1611430
  17.2844130  63.1451820 103.9969920  16.3872660  63.3691790 104.2443320
  17.3097000  63.2686760 103.0481320  16.1115350  60.0165140 102.5727290
  15.9723120  60.8887940 102.9414690  15.2296710  59.6737950 102.4275230
  17.9095700  65.9586840 104.7812440  17.8811130  66.3629790 103.9140870
  17.7460670  65.0297200 104.6184040  14.4248630  58.6147550  92.6829560
  14.3046230  59.3409640  92.0710830  14.1149520  57.8450460  92.2057470
  12.0634000  61.7862690  98.4898200  12.1414420  61.9211460  97.5453920
  12.6775680  61.0778580  98.6826320  29.2643770  63.9326790 103.2376620
  29.3906830  63.6938670 102.3193800  29.3065150  63.1011330 103.7098700
  23.1260510  67.6354790 101.8071430  23.6405180  67.5462800 102.6093860
  22.2829590  67.9814490 102.0999340  24.8041040  65.4297690  89.7953430
  24.1106200  65.4274980  89.1355710  25.5463900  65.0057010  89.3647600
  12.1193520  62.8276860 101.0292660  12.2824560  62.3582220 100.2112030
  12.5845970  62.3200420 101.6941500  16.8912290  51.9582620  96.0653230
  16.4480440  52.7392160  95.7337750  17.4497280  52.2812510  96.7724170
  21.1782100  54.8251140 101.6688550  20.7161470  55.0334160 102.4808490
  20.7760210  54.0110490 101.3659220  23.2736320  57.5461840 104.8984000
  23.5989730  56.7125590 104.5586230  24.0616650  58.0690360 105.0462330
  20.0071110  51.5793320  90.9459060  19.3825290  51.5753190  91.6712370
  19.9201230  50.7124280  90.5495030  18.9288190  52.5029950  97.9242830
  19.2260520  53.4092780  97.8434850  19.4773750  52.0148730  97.3102400
  16.6826510  57.0816190  93.7934480  16.4567430  56.8653360  94.6981100
  15.9019040  57.5144650  93.4480450  23.9124270  57.0879560  92.3925130
  23.3133160  57.8115360  92.2088750  24.4603880  57.0256340  91.6101580
  19.1225720  57.9801770 104.4594750  19.0269320  57.0396500 104.3095150
  19.9657700  58.2016840 104.0642820  22.5189140  55.7243100  94.4228410
  22.9118710  56.0415300  93.6097100  22.8805990  54.8454980  94.5372930
  14.2536260  54.3915440 102.6128530  13.8599650  55.2390650 102.8201310
  13.5654660  53.7541810 102.8037170  20.8281310  54.4750410 105.6825270
  20.1379630  54.2822610 106.3171360  21.5713610  54.7585050 106.2149570
  11.5553310  52.3143900  96.6458610  11.2666360  52.8846760  97.3583590
  12.2999070  51.8348350  97.0089840  11.7423540  56.2564020  87.8561330
  11.6598210  57.1994780  87.9976320  11.3906600  56.1138930  86.9773680
  23.1044280  58.3148850  98.5179190  22.3725400  58.8235660  98.8669290
  22.7068620  57.4978830  98.2167970  19.5421670  54.9903050  96.9231680
  19.5457730  54.5493000  96.0736220  20.4372790  55.3120380  97.0303500
  15.3924050  54.8729540  95.8825890  15.0524100  55.3504770  96.6392940
  14.6301370  54.4194660  95.5226990  19.6041820  55.9915130  89.9138440
  19.7254640  55.9501610  90.8624260  19.2190330  56.8539280  89.7585170
  18.6163320  58.3016270  89.3121740  18.0480220  57.8534520  88.6857650
  19.3252320  58.6609050  88.7786890  13.6932500  62.2028290 103.1888470
  13.3087290  61.5621960 103.7871430  14.0044690  62.9064410 103.7583200
  12.7070130  53.7948520  94.7990560  12.4217050  53.4304190  95.6369180
  12.6448990  53.0628980  94.1853700  17.6329010  58.0913470 100.9881300
  17.3286080  58.9705450 101.2131660  18.5875470  58.1513260 101.0238740
  26.9198780  61.2939820  97.3774540  27.6397900  61.7895110  96.9870650
  26.7180600  60.6157710  96.7328410  22.3808720  52.6877780  91.5203930
  21.5673330  52.1890950  91.4449240  22.1870670  53.5276030  91.1040280
  22.3017580  61.3648880 103.2643540  22.2354890  60.4444550 103.0101130
  21.6722720  61.4624320 103.9788180  13.6892740  58.9316210 102.1352660
  13.3307680  59.5970060 102.7226000  13.3947300  58.0999760 102.5065280
  16.8905860  59.3900450 105.0192210  16.5906000  59.5357630 104.1220030
  17.6617100  58.8305740 104.9265600  22.2334310  64.1869450 103.0147340
  22.2478850  63.2550410 102.7966250  21.5259410  64.2729210 103.6537110
  28.3958630  65.2251530  92.0128080  27.7534790  64.5707150  92.2871800
  28.0089290  65.6306620  91.2368750  12.2000790  58.9307470  88.7587260
  13.0695640  59.2132270  89.0423180  11.7091110  59.7443340  88.6436070
  21.6668210  65.8287020 100.1087840  22.3110430  66.0346400 100.7861260
  22.0297650  65.0675420  99.6558690  15.2647380  50.6618330  93.3518060
  15.1362010  50.6536230  94.3002980  14.4409400  51.0001420  93.0009070
  26.7856010  64.1167990  88.5504430  26.5593590  63.3998430  89.1429070
  26.3952210  63.8680430  87.7126180  24.7137910  64.6314270 102.0301350
  25.0494150  65.2180960 102.7079270  23.7938250  64.5006980 102.2599140
  12.2641310  52.4209450 102.8124760  11.5499830  52.6206370 103.4177370
  12.6836350  51.6449020 103.1839560  12.5513900  66.4089710 103.7991290
  12.6605020  65.4684450 103.6586680  11.8994460  66.6744460 103.1505020
  20.5426490  64.6805600 105.1989410  20.2223360  63.9614840 105.7435100
  19.8684850  65.3560670 105.2725470  14.1847300  60.7480940  90.8869320
  13.5775250  61.4879840  90.8964620  14.6596650  60.8380300  90.0607520
  23.7580090  54.9131760 100.5626210  24.1260910  54.0926970 100.8905780
  22.8978290  54.9733650 100.9781860  19.0926150  56.1474650  92.7871650
  18.3842300  56.6160990  93.2285260  19.3770630  55.4896660  93.4216840
  20.7182080  57.5671350 100.7864180  21.2167330  58.0417170 101.4516030
  20.8605030  56.6434870 100.9934210  23.1241580  52.8725310  94.2267440
  23.0009360  52.8911440  93.2776950  24.0726140  52.9204250  94.3465840
  17.2961170  54.4559730  90.1622360  18.1451700  54.8929880  90.0962550
  16.9292440  54.7679990  90.9894420  26.2170950  59.0272490  95.0753930
  25.2761090  59.0422720  95.2501620  26.5315020  58.2408450  95.5214230
  16.1952590  60.7092090  88.6357890  16.9615860  60.5973450  89.1983320
  16.2727280  60.0130060  87.9834660  14.8899350  58.1417160  89.3190780
  14.9702940  57.1944670  89.4308180  15.7819100  58.4724040  89.4251440
  28.2196530  66.1981340  96.7508190  28.3443950  67.0212510  97.2232000
  29.0862090  65.9872070  96.4032340  15.6914060  68.2912550  96.4225320
  16.4276540  67.7428010  96.6933890  16.0754980  69.1568560  96.2831310
  14.6972340  67.4758620 105.6110900  15.4985070  67.7970670 106.0246300
  14.1824160  67.1154200 106.3330810  18.8016370  67.4642860  88.2450890
  19.5944980  67.7531690  87.7932680  18.2820720  67.0335030  87.5663370
  27.8546540  66.6912990  89.6687630  27.5688050  66.2778130  88.8541810
  27.6566090  67.6200700  89.5488150  12.4170150  59.9632080 104.5546950
  12.9209170  59.3839360 105.1263180  11.6777570  60.2472310 105.0923320
  19.4708090  61.3703070 104.0882470  18.7053760  61.9388070 104.0037140
  19.6524050  61.0779280 103.1950700  14.4493230  58.1061670 105.4497020
  14.4898570  57.8075540 106.3582250  15.3038730  58.5069280 105.2904540
  16.3899040  56.6853770 103.4171510  15.8595500  56.1944720 102.7894850
  17.0587110  57.1137970 102.8829440  20.7399260  59.7294830  87.8577630
  21.2604920  59.0143850  87.4918780  21.3867660  60.3680700  88.1578140
  25.2877100  61.1523230 103.1812700  25.7018120  61.3068310 104.0303120
  24.3528100  61.2778450 103.3438480  16.8771340  53.6516140 103.4968800
  16.7828210  53.0336890 102.7719670  16.2968730  54.3782430 103.2698710
  19.6432780  52.2089380 100.5296190  19.1950080  52.2313640  99.6841740
  19.0097980  51.8108400 101.1266490  22.3856230  58.8359890 102.5346470
  22.5052440  58.2401030 103.2741310  23.2450230  58.8729580 102.1147770
  24.7244130  59.3897080 101.1108980  24.1979350  59.9139700 100.5074120
  25.0675470  60.0224470 101.7418710  17.1230520  56.7790450  87.5558690
  16.9219580  55.9157810  87.9172030  16.9522570  56.6923810  86.6180290
  17.8999750  67.4096720 102.2666360  17.3620840  68.1342780 101.9475060
  18.1533710  66.9327060 101.4763700  19.1525000  55.3781240 103.7922290
  19.7424690  55.0697090 104.4800110  18.3345240  54.9060990 103.9482190
  24.6018830  51.5898680  90.0845570  24.8821120  50.7466580  90.4404990
  23.8284560  51.8221790  90.5984320  15.9213320  53.8791070  87.5436570
  16.2239220  53.8858500  86.6355720  16.6607910  53.5288930  88.0404230
  20.7561960  68.6447930 102.5253010  20.6820660  69.5483070 102.8325380
  19.8540800  68.3259830 102.4975080  19.1398250  52.8225690  88.5292770
  18.7920250  52.1449680  87.9495220  19.3411020  52.3615200  89.3436160
  14.9443450  63.1833490  88.3766370  15.3818320  63.7263160  89.0323950
  15.4291180  62.3580440  88.3862710  12.6479460  66.8393110  98.5668260
  12.2110450  67.0193910  99.3992410  13.2157140  67.5967730  98.4249980
  28.2841640  66.3410110 102.8545570  27.6843630  66.4002670 102.1109490
  28.4135540  65.4015090 102.9842420  29.5243090  64.0827930  88.1915280
  28.6936050  64.1504580  88.6622510  29.7014920  64.9732050  87.8882140
  12.4803890  59.3513340  94.9257140  11.8252730  59.0824980  94.2816840
  13.3181840  59.2417820  94.4759120  29.9859520  61.6825510  95.5391410
  30.3568350  60.8992830  95.1327380  30.6261450  62.3714610  95.3608710
  26.9693280  63.0662090 100.9521730  26.1553120  63.4959250 101.2147520
  27.3767480  63.6780500 100.3390780  13.5179820  59.7365910  99.4660480
  13.8852860  59.6493310 100.3456500  12.9490640  58.9732460  99.3667340
  13.0695820  56.6475000 103.3718900  12.1751870  56.6141760 103.7112610
  13.6093370  56.8461790 104.1370150  11.6941970  56.5612270  90.8682470
  10.7906050  56.8242470  90.6934130  12.1782590  56.8323440  90.0882430
  14.2369180  55.6177810  88.7776850  14.9460880  55.1961030  88.2924130
  13.5209120  55.6853040  88.1460200  13.8843340  51.6717140  87.8179500
  14.6071470  52.2126080  88.1360720  14.1567860  51.3980560  86.9421040
  13.5735530  50.9223330  97.7202120  14.2211720  50.3720710  97.2797280
  13.9937370  51.1766480  98.5417930  27.4687870  51.1164690 101.0771760
  28.1060090  51.7298830 101.4430950  27.6162760  51.1525350 100.1320990
  13.3267530  51.0779000 100.4627440  12.9782350  51.5342820 101.2285620
  12.9955230  50.1836130 100.5449870  14.9331900  64.2498600 104.6280630
  14.8901530  63.8791510 105.5095090  15.0642910  65.1876170 104.7682450
  18.6337930  65.8058190 100.2290350  18.3929290  66.0732750  99.3420870
  19.5740570  65.9763920 100.2841210  20.8392350  52.2690880 103.9846860
  20.7781240  52.8612710 104.7342270  21.7792730  52.1616840 103.8397120
  23.4766910  51.9260940 103.6239150  24.0907320  52.2440230 102.9620230
  24.0216470  51.4409530 104.2435010  29.8942090  67.8252570 101.0300990
  29.4000370  68.2221440 100.3128120  29.2855380  67.2001780 101.4238270
  13.9988170  50.6055200 103.7378210  14.5471160  50.4243250 102.9744320
  14.0643480  49.8149310 104.2734520  14.7719930  67.1960850 101.7478410
  14.1780250  67.0645550 102.4868450  14.7643770  66.3598990 101.2820510
  24.2174950  50.4893080  99.9508440  23.3434790  50.8228190  99.7481370
  24.1085700  50.0166260 100.7760310  25.1246930  52.6963950 101.3350160
  24.7960290  51.8815710 100.9551890  26.0729230  52.6533760 101.2115850
  27.5781540  68.4675990  98.3087730  27.1184510  69.2191800  97.9345750
  26.9494000  67.7482460  98.2502530  14.4032160  64.5619230 100.6986450
  13.6766220  63.9424520 100.6312400  14.4641310  64.9559840  99.8284530
  18.0077260  66.7764230  97.4835860  18.5242280  66.1651590  96.9584120
  18.6574640  67.2793010  97.9746870  20.7472760  67.6672720  98.3104840
  21.0350570  67.4127020  97.4337850  21.2595980  67.1150080  98.9010410
  21.9649770  51.4062920  98.8901350  21.1821560  51.8808420  99.1698110
  21.6712700  50.5017750  98.7814530  13.3090180  51.7110400  91.4115070
  14.0669540  51.8239280  90.8379100  12.8467350  52.5479600  91.3658500
  19.8503990  53.8249670  94.4017380  19.0378500  53.4506560  94.0613260
  20.3545630  53.0694750  94.7038570  24.3528970  50.4892120  95.6400450
  24.9558340  51.0612330  96.1148970  23.6121960  51.0531560  95.4174350
  27.4963570  50.8913680  90.9140730  27.6914200  51.7897130  91.1808160
  26.7093440  50.6600760  91.4073680  15.6815330  52.2374450  89.9517040
  16.2108090  51.4504250  89.8224990  16.3143650  52.9165640  90.1852570
  17.8753170  51.9749590  93.0062430  17.2455910  51.2736900  93.1732560
  17.3358310  52.7353720  92.7895590  20.8145120  68.5888820 105.6773040
  21.7412430  68.3533090 105.7209000  20.7995550  69.4160820 105.1959070
  18.0008730  51.2533570 105.4414920  17.7193000  51.7567170 104.6775740
  18.3828430  50.4555320 105.0757050  24.6024190  50.6687150 106.0195390
  24.4889640  50.9881760 106.9146910  25.4193930  51.0699660 105.7232670
  15.6367470  64.8118540  79.3373180  15.9395510  63.9216280  79.1583400
  16.3811060  65.3688760  79.1095430  14.0658160  55.7380340  72.9257550
  13.1774860  56.0796310  72.8237430  14.3499350  55.5380660  72.0338380
  12.0291170  58.3385990  78.8097250  12.6007280  57.5708190  78.8100890
  12.0292710  58.6374750  77.9003860  21.8871120  67.1576840  76.6642520
  21.2682560  67.6134340  76.0936960  22.7422900  67.3128300  76.2632220
  13.2716040  53.7470350  80.5966180  13.0918880  52.8496100  80.8768940
  12.8696120  54.2942220  81.2713130  16.2419550  54.3211840  73.9595930
  16.3486300  55.2215570  74.2664690  15.3311910  54.2729810  73.6690580
  25.8938660  53.4436650  75.4306830  26.7148280  52.9533220  75.4732310
  25.9272740  54.0334310  76.1838670  13.8902710  56.2430850  79.2048520
  14.5712820  56.5069220  79.8235920  13.5750760  55.4031720  79.5386530
  30.1838210  55.4603400  81.9950460  29.4790380  55.8485110  81.4765570
  30.4496130  56.1553690  82.5971390  16.3663380  51.9296770  82.5584530
  16.3681820  52.4469160  81.7530430  15.5367690  51.4526950  82.5354460
  16.0478710  53.6406730  80.5654980  16.3895520  54.4848780  80.2708850
  15.1094520  53.7890470  80.6820320  16.8285330  63.5372750  82.5507210
  17.4459330  64.2123830  82.2691660  15.9678450  63.9460730  82.4594710
  12.1217670  62.7272610  71.4314060  11.7445650  63.2159710  70.6998960
  12.3790740  63.3997890  72.0620590  19.7306600  51.1289000  76.8899570
  20.0381580  50.5735890  76.1735070  18.8007300  51.2633460  76.7072560
  17.2844130  63.1451820  85.2226430  16.3872660  63.3691790  85.4699830
  17.3097000  63.2686760  84.2737830  16.1115350  60.0165140  83.7983800
  15.9723120  60.8887940  84.1671200  15.2296710  59.6737950  83.6531740
  22.4344730  64.9341010  75.1048930  22.8740640  65.6765340  74.6904320
  22.3731620  65.1767580  76.0287890  17.9095700  65.9586840  86.0068950
  17.8811130  66.3629790  85.1397380  17.7460670  65.0297200  85.8440550
  14.4248630  58.6147550  73.9086070  14.3046230  59.3409640  73.2967340
  14.1149520  57.8450460  73.4313980  29.8610520  66.7413940  87.3033120
  30.3370240  67.2196830  87.9822200  30.4817680  66.6731430  86.5778620
  12.0634000  61.7862690  79.7154710  12.1414420  61.9211460  78.7710430
  12.6775680  61.0778580  79.9082830  13.3081630  63.4862880  76.1260890
  12.9009710  63.6277470  75.2714490  14.1994640  63.2023040  75.9232100
  29.2643770  63.9326790  84.4633130  29.3906830  63.6938670  83.5450310
  29.3065150  63.1011330  84.9355210  17.5803290  67.7008660  74.2383560
  17.4045770  66.7844200  74.0251360  16.7259030  68.0595950  74.4781360
  24.8041040  65.4297690  71.0209940  24.1106200  65.4274980  70.3612220
  25.5463900  65.0057010  70.5904110  24.3690970  67.0560400  75.0958430
  24.8247920  66.2749780  75.4097050  24.7083490  67.7667220  75.6399610
  12.1193520  62.8276860  82.2549170  12.2824560  62.3582220  81.4368540
  12.5845970  62.3200420  82.9198010  16.8912290  51.9582620  77.2909740
  16.4480440  52.7392160  76.9594260  17.4497280  52.2812510  77.9980680
  20.0071110  51.5793320  72.1715570  19.3825290  51.5753190  72.8968880
  19.9201230  50.7124280  71.7751540  18.9288190  52.5029950  79.1499340
  19.2260520  53.4092780  79.0691360  19.4773750  52.0148730  78.5358910
  19.1225720  57.9801770  85.6851260  19.0269320  57.0396500  85.5351660
  19.9657700  58.2016840  85.2899330  14.2536260  54.3915440  83.8385040
  13.8599650  55.2390650  84.0457820  13.5654660  53.7541810  84.0293680
  11.5553310  52.3143900  77.8715120  11.2666360  52.8846760  78.5840100
  12.2999070  51.8348350  78.2346350  11.7423540  56.2564020  69.0817840
  11.6598210  57.1994780  69.2232830  11.3906600  56.1138930  68.2030190
  15.3924050  54.8729540  77.1082400  15.0524100  55.3504770  77.8649450
  14.6301370  54.4194660  76.7483500  13.6932500  62.2028290  84.4144980
  13.3087290  61.5621960  85.0127940  14.0044690  62.9064410  84.9839710
  12.7070130  53.7948520  76.0247070  12.4217050  53.4304190  76.8625690
  12.6448990  53.0628980  75.4110210  22.3808720  52.6877780  72.7460440
  21.5673330  52.1890950  72.6705750  22.1870670  53.5276030  72.3296790
  13.6892740  58.9316210  83.3609170  13.3307680  59.5970060  83.9482510
  13.3947300  58.0999760  83.7321790  16.8905860  59.3900450  86.2448720
  16.5906000  59.5357630  85.3476540  17.6617100  58.8305740  86.1522110
  12.2000790  58.9307470  69.9843770  13.0695640  59.2132270  70.2679690
  11.7091110  59.7443340  69.8692580  21.6668210  65.8287020  81.3344350
  22.3110430  66.0346400  82.0117770  22.0297650  65.0675420  80.8815200
  15.2647380  50.6618330  74.5774570  15.1362010  50.6536230  75.5259490
  14.4409400  51.0001420  74.2265580  12.5672040  68.1434850  70.5505400
  12.9269680  68.7424190  69.8962670  12.4264380  68.6894740  71.3240430
  12.2641310  52.4209450  84.0381270  11.5499830  52.6206370  84.6433880
  12.6836350  51.6449020  84.4096070  26.3672260  62.0339930  71.4375100
  26.0793960  62.4952620  72.2252980  27.1624430  61.5737700  71.7059320
  12.5513900  66.4089710  85.0247800  12.6605020  65.4684450  84.8843190
  11.8994460  66.6744460  84.3761530  20.5426490  64.6805600  86.4245920
  20.2223360  63.9614840  86.9691610  19.8684850  65.3560670  86.4981980
  14.1847300  60.7480940  72.1125830  13.5775250  61.4879840  72.1221130
  14.6596650  60.8380300  71.2864030  27.1242120  53.8688700  72.5970280
  26.4955280  53.9734370  71.8828510  26.6294040  54.0885480  73.3864160
  23.1241580  52.8725310  75.4523950  23.0009360  52.8911440  74.5033460
  24.0726140  52.9204250  75.5722350  20.2118370  68.1080610  74.7251930
  20.4659870  68.0702000  73.8031300  19.2630850  67.9813940  74.7180180
  17.2961170  54.4559730  71.3878870  18.1451700  54.8929880  71.3219060
  16.9292440  54.7679990  72.2150930  16.1952590  60.7092090  69.8614400
  16.9615860  60.5973450  70.4239830  16.2727280  60.0130060  69.2091170
  14.8899350  58.1417160  70.5447290  14.9702940  57.1944670  70.6564690
  15.7819100  58.4724040  70.6507950  28.2196530  66.1981340  77.9764700
  28.3443950  67.0212510  78.4488510  29.0862090  65.9872070  77.6288850
  15.6914060  68.2912550  77.6481830  16.4276540  67.7428010  77.9190400
  16.0754980  69.1568560  77.5087820  12.5759540  64.3586120  73.5223340
  11.6499320  64.6007260  73.5128750  13.0415970  65.1860380  73.4008090
  14.6972340  67.4758620  86.8367410  15.4985070  67.7970670  87.2502810
  14.1824160  67.1154200  87.5587320  24.9637340  67.3118780  85.3952230
  25.9159090  67.2276800  85.3452470  24.8165560  67.9760490  86.0686020
  12.4170150  59.9632080  85.7803460  12.9209170  59.3839360  86.3519690
  11.6777570  60.2472310  86.3179830  19.4708090  61.3703070  85.3138980
  18.7053760  61.9388070  85.2293650  19.6524050  61.0779280  84.4207210
  14.4493230  58.1061670  86.6753530  14.4898570  57.8075540  87.5838760
  15.3038730  58.5069280  86.5161050  16.3899040  56.6853770  84.6428020
  15.8595500  56.1944720  84.0151360  17.0587110  57.1137970  84.1085950
  17.1230520  56.7790450  68.7815200  16.9219580  55.9157810  69.1428540
  16.9522570  56.6923810  67.8436800  17.8999750  67.4096720  83.4922870
  17.3620840  68.1342780  83.1731570  18.1533710  66.9327060  82.7020210
  15.9213320  53.8791070  68.7693080  16.2239220  53.8858500  67.8612230
  16.6607910  53.5288930  69.2660740  20.7561960  68.6447930  83.7509520
  20.6820660  69.5483070  84.0581890  19.8540800  68.3259830  83.7231590
  19.1398250  52.8225690  69.7549280  18.7920250  52.1449680  69.1751730
  19.3411020  52.3615200  70.5692670  12.1589250  65.9722520  77.0543140
  12.4892260  65.1043580  76.8221780  12.5880250  66.1781040  77.8848100
  12.6479460  66.8393110  79.7924770  12.2110450  67.0193910  80.6248920
  13.2157140  67.5967730  79.6506490  28.2841640  66.3410110  84.0802080
  27.6843630  66.4002670  83.3366000  28.4135540  65.4015090  84.2098930
  12.4803890  59.3513340  76.1513650  11.8252730  59.0824980  75.5073350
  13.3181840  59.2417820  75.7015630  13.5179820  59.7365910  80.6916990
  13.8852860  59.6493310  81.5713010  12.9490640  58.9732460  80.5923850
  13.0695820  56.6475000  84.5975410  12.1751870  56.6141760  84.9369120
  13.6093370  56.8461790  85.3626660  11.6941970  56.5612270  72.0938980
  10.7906050  56.8242470  71.9190640  12.1782590  56.8323440  71.3138940
  14.2369180  55.6177810  70.0033360  14.9460880  55.1961030  69.5180640
  13.5209120  55.6853040  69.3716710  13.8843340  51.6717140  69.0436010
  14.6071470  52.2126080  69.3617230  14.1567860  51.3980560  68.1677550
  13.5735530  50.9223330  78.9458630  14.2211720  50.3720710  78.5053790
  13.9937370  51.1766480  79.7674440  30.0850910  53.7789140  71.7108120
  29.2902410  53.7134260  72.2401030  30.2894190  54.7139780  71.6993470
  13.3267530  51.0779000  81.6883950  12.9782350  51.5342820  82.4542130
  12.9955230  50.1836130  81.7706380  14.9331900  64.2498600  85.8537140
  14.8901530  63.8791510  86.7351600  15.0642910  65.1876170  85.9938960
  18.6337930  65.8058190  81.4546860  18.3929290  66.0732750  80.5677380
  19.5740570  65.9763920  81.5097720  29.8942090  67.8252570  82.2557500
  29.4000370  68.2221440  81.5384630  29.2855380  67.2001780  82.6494780
  13.9988170  50.6055200  84.9634720  14.5471160  50.4243250  84.2000830
  14.0643480  49.8149310  85.4991030  14.7719930  67.1960850  82.9734920
  14.1780250  67.0645550  83.7124960  14.7643770  66.3598990  82.5077020
  27.5781540  68.4675990  79.5344240  27.1184510  69.2191800  79.1602260
  26.9494000  67.7482460  79.4759040  14.4032160  64.5619230  81.9242960
  13.6766220  63.9424520  81.8568910  14.4641310  64.9559840  81.0541040
  18.0077260  66.7764230  78.7092370  18.5242280  66.1651590  78.1840630
  18.6574640  67.2793010  79.2003380  20.7472760  67.6672720  79.5361350
  21.0350570  67.4127020  78.6594360  21.2595980  67.1150080  80.1266920
  21.9649770  51.4062920  80.1157860  21.1821560  51.8808420  80.3954620
  21.6712700  50.5017750  80.0071040  26.5170840  52.1086020  78.1606950
  26.9578930  52.0531120  77.3128550  26.2478430  53.0244030  78.2317130
  28.3809410  51.7401260  76.1715770  28.3197810  50.7962480  76.0246790
  29.1601440  51.8481350  76.7169230  12.6862160  67.8793620  75.1339720
  12.5184200  67.2464300  75.8321610  11.8196670  68.0853020  74.7833910
  13.3090180  51.7110400  72.6371580  14.0669540  51.8239280  72.0635610
  12.8467350  52.5479600  72.5915010  19.8503990  53.8249670  75.6273890
  19.0378500  53.4506560  75.2869770  20.3545630  53.0694750  75.9295080
  24.3528970  50.4892120  76.8656960  24.9558340  51.0612330  77.3405480
  23.6121960  51.0531560  76.6430860  27.4963570  50.8913680  72.1397240
  27.6914200  51.7897130  72.4064670  26.7093440  50.6600760  72.6330190
  14.2924860  66.5726850  72.5789860  13.7672480  66.9534880  71.8751820
  14.2169440  67.1977620  73.2999570  15.6815330  52.2374450  71.1773550
  16.2108090  51.4504250  71.0481500  16.3143650  52.9165640  71.4109080
  17.8753170  51.9749590  74.2318940  17.2455910  51.2736900  74.3989070
  17.3358310  52.7353720  74.0152100  20.8145120  68.5888820  86.9029550
  21.7412430  68.3533090  86.9465510  20.7995550  69.4160820  86.4215580
  16.8917830  68.5209230  71.4539110  17.6236650  68.2368510  70.9063000
  17.1511500  68.2822510  72.3438490  15.6566210  60.7778450  60.3671670
  14.8251090  60.5227160  60.7668180  16.2647190  60.8489220  61.1029590
  15.6367470  64.8118540  60.5629690  15.9395510  63.9216280  60.3839910
  16.3811060  65.3688760  60.3351940  14.0658160  55.7380340  54.1514060
  13.1774860  56.0796310  54.0493940  14.3499350  55.5380660  53.2594890
  12.0291170  58.3385990  60.0353760  12.6007280  57.5708190  60.0357400
  12.0292710  58.6374750  59.1260370  13.2716040  53.7470350  61.8222690
  13.0918880  52.8496100  62.1025450  12.8696120  54.2942220  62.4969640
  22.1114540  55.9486210  59.7235000  22.4879360  55.0758090  59.6108670
  22.0134050  56.2844910  58.8325440  16.2419550  54.3211840  55.1852440
  16.3486300  55.2215570  55.4921200  15.3311910  54.2729810  54.8947090
  25.8938660  53.4436650  56.6563340  26.7148280  52.9533220  56.6988820
  25.9272740  54.0334310  57.4095180  13.8902710  56.2430850  60.4305030
  14.5712820  56.5069220  61.0492430  13.5750760  55.4031720  60.7643040
  18.0827280  57.2898210  59.5177620  18.5905500  57.7879180  60.1582640
  18.6140520  56.5133410  59.3416980  16.3663380  51.9296770  63.7841040
  16.3681820  52.4469160  62.9786940  15.5367690  51.4526950  63.7610970
  17.6166230  61.5691950  61.9614540  17.2835610  62.1960870  62.6035610
  17.7932910  62.0953830  61.1816210  16.0478710  53.6406730  61.7911490
  16.3895520  54.4848780  61.4965360  15.1094520  53.7890470  61.9076830
  16.8285330  63.5372750  63.7763720  17.4459330  64.2123830  63.4948170
  15.9678450  63.9460730  63.6851220  12.1217670  62.7272610  52.6570570
  11.7445650  63.2159710  51.9255470  12.3790740  63.3997890  53.2877100
  19.7306600  51.1289000  58.1156080  20.0381580  50.5735890  57.3991580
  18.8007300  51.2633460  57.9329070  22.1056440  55.4654830  51.8483360
  21.1660110  55.6268790  51.9335820  22.4239700  56.1840510  51.3019350
  25.5911210  56.9342670  62.7717260  25.1782390  57.7596380  63.0257250
  24.8587160  56.3487710  62.5793620  16.4372620  56.4945780  61.4134970
  16.9887210  56.6041120  60.6388220  16.9516130  56.8683380  62.1290200
  26.2811310  66.9802000  63.4598240  25.8041870  67.7874190  63.2670850
  25.5973100  66.3280330  63.6124450  17.2844130  63.1451820  66.4482940
  16.3872660  63.3691790  66.6956340  17.3097000  63.2686760  65.4994340
  24.3249350  59.9944940  52.3624200  24.7642630  59.1567370  52.2162020
  25.0377770  60.6274340  52.4488340  16.1115350  60.0165140  65.0240310
  15.9723120  60.8887940  65.3927710  15.2296710  59.6737950  64.8788250
  22.4344730  64.9341010  56.3305440  22.8740640  65.6765340  55.9160830
  22.3731620  65.1767580  57.2544400  27.9066490  51.2487750  50.6765240
  27.5939150  51.3414580  51.5764310  28.6678960  51.8268780  50.6262670
  14.4248630  58.6147550  55.1342580  14.3046230  59.3409640  54.5223850
  14.1149520  57.8450460  54.6570490  12.0634000  61.7862690  60.9411220
  12.1414420  61.9211460  59.9966940  12.6775680  61.0778580  61.1339340
  13.3081630  63.4862880  57.3517400  12.9009710  63.6277470  56.4971000
  14.1994640  63.2023040  57.1488610  23.1260510  67.6354790  64.2584450
  23.6405180  67.5462800  65.0606880  22.2829590  67.9814490  64.5512360
  17.5803290  67.7008660  55.4640070  17.4045770  66.7844200  55.2507870
  16.7259030  68.0595950  55.7037870  24.8041040  65.4297690  52.2466450
  24.1106200  65.4274980  51.5868730  25.5463900  65.0057010  51.8160620
  12.1193520  62.8276860  63.4805680  12.2824560  62.3582220  62.6625050
  12.5845970  62.3200420  64.1454520  16.8912290  51.9582620  58.5166250
  16.4480440  52.7392160  58.1850770  17.4497280  52.2812510  59.2237190
  21.1782100  54.8251140  64.1201570  20.7161470  55.0334160  64.9321510
  20.7760210  54.0110490  63.8172240  23.2736320  57.5461840  67.3497020
  23.5989730  56.7125590  67.0099250  24.0616650  58.0690360  67.4975350
  20.0071110  51.5793320  53.3972080  19.3825290  51.5753190  54.1225390
  19.9201230  50.7124280  53.0008050  18.9288190  52.5029950  60.3755850
  19.2260520  53.4092780  60.2947870  19.4773750  52.0148730  59.7615420
  16.6826510  57.0816190  56.2447500  16.4567430  56.8653360  57.1494120
  15.9019040  57.5144650  55.8993470  19.1225720  57.9801770  66.9107770
  19.0269320  57.0396500  66.7608170  19.9657700  58.2016840  66.5155840
  14.2536260  54.3915440  65.0641550  13.8599650  55.2390650  65.2714330
  13.5654660  53.7541810  65.2550190  20.8281310  54.4750410  68.1338290
  20.1379630  54.2822610  68.7684380  21.5713610  54.7585050  68.6662590
  11.5553310  52.3143900  59.0971630  11.2666360  52.8846760  59.8096610
  12.2999070  51.8348350  59.4602860  11.7423540  56.2564020  50.3074350
  11.6598210  57.1994780  50.4489340  11.3906600  56.1138930  49.4286700
  19.5421670  54.9903050  59.3744700  19.5457730  54.5493000  58.5249240
  20.4372790  55.3120380  59.4816520  15.3924050  54.8729540  58.3338910
  15.0524100  55.3504770  59.0905960  14.6301370  54.4194660  57.9740010
  19.6041820  55.9915130  52.3651460  19.7254640  55.9501610  53.3137280
  19.2190330  56.8539280  52.2098190  23.5670190  53.7682530  60.3815150
  23.5842930  54.2191180  61.2257000  23.3185770  52.8688170  60.5948590
  18.6163320  58.3016270  51.7634760  18.0480220  57.8534520  51.1370670
  19.3252320  58.6609050  51.2299910  13.6932500  62.2028290  65.6401490
  13.3087290  61.5621960  66.2384450  14.0044690  62.9064410  66.2096220
  19.8429640  59.0504830  61.1210110  20.2099770  58.5763400  61.8671450
  19.6534700  59.9246400  61.4618450  12.7070130  53.7948520  57.2503580
  12.4217050  53.4304190  58.0882200  12.6448990  53.0628980  56.6366720
  17.6329010  58.0913470  63.4394320  17.3286080  58.9705450  63.6644680
  18.5875470  58.1513260  63.4751760  16.1610800  62.2974460  54.0361170
  15.3873060  61.7572080  53.8759890  16.8905430  61.7781070  53.6978930
  22.3808720  52.6877780  53.9716950  21.5673330  52.1890950  53.8962260
  22.1870670  53.5276030  53.5553300  16.2048200  61.9654840  57.6739980
  16.7226870  61.1623100  57.6196870  15.7532220  61.9033980  58.5156810
  21.0917700  63.2321120  52.9467280  21.4333400  63.9763350  52.4510600
  20.2630410  63.5452240  53.3092110  13.6892740  58.9316210  64.5865680
  13.3307680  59.5970060  65.1739020  13.3947300  58.0999760  64.9578300
  16.8905860  59.3900450  67.4705230  16.5906000  59.5357630  66.5733050
  17.6617100  58.8305740  67.3778620  12.2000790  58.9307470  51.2100280
  13.0695640  59.2132270  51.4936200  11.7091110  59.7443340  51.0949090
  15.2647380  50.6618330  55.8031080  15.1362010  50.6536230  56.7516000
  14.4409400  51.0001420  55.4522090  26.7856010  64.1167990  51.0017450
  26.5593590  63.3998430  51.5942090  26.3952210  63.8680430  50.1639200
  24.7137910  64.6314270  64.4814370  25.0494150  65.2180960  65.1592290
  23.7938250  64.5006980  64.7112160  12.5672040  68.1434850  51.7761910
  12.9269680  68.7424190  51.1219180  12.4264380  68.6894740  52.5496940
  12.2641310  52.4209450  65.2637780  11.5499830  52.6206370  65.8690390
  12.6836350  51.6449020  65.6352580  26.3672260  62.0339930  52.6631610
  26.0793960  62.4952620  53.4509490  27.1624430  61.5737700  52.9315830
  12.5513900  66.4089710  66.2504310  12.6605020  65.4684450  66.1099700
  11.8994460  66.6744460  65.6018040  18.5840660  65.5266050  52.5935580
  18.5750760  66.2595740  51.9780090  17.6639020  65.2797630  52.6862540
  14.1847300  60.7480940  53.3382340  13.5775250  61.4879840  53.3477640
  14.6596650  60.8380300  52.5120540  23.7580090  54.9131760  63.0139230
  24.1260910  54.0926970  63.3418800  22.8978290  54.9733650  63.4294880
  27.1242120  53.8688700  53.8226790  26.4955280  53.9734370  53.1085020
  26.6294040  54.0885480  54.6120670  21.5700260  65.5894290  51.2560770
  21.6712240  65.3858280  50.3262750  20.6702000  65.3352570  51.4608550
  20.7182080  57.5671350  63.2377200  21.2167330  58.0417170  63.9029050
  20.8605030  56.6434870  63.4447230  23.1241580  52.8725310  56.6780460
  23.0009360  52.8911440  55.7289970  24.0726140  52.9204250  56.7978860
  20.2118370  68.1080610  55.9508440  20.4659870  68.0702000  55.0287810
  19.2630850  67.9813940  55.9436690  17.2961170  54.4559730  52.6135380
  18.1451700  54.8929880  52.5475570  16.9292440  54.7679990  53.4407440
  16.1952590  60.7092090  51.0870910  16.9615860  60.5973450  51.6496340
  16.2727280  60.0130060  50.4347680  14.8899350  58.1417160  51.7703800
  14.9702940  57.1944670  51.8821200  15.7819100  58.4724040  51.8764460
  15.6914060  68.2912550  58.8738340  16.4276540  67.7428010  59.1446910
  16.0754980  69.1568560  58.7344330  12.5759540  64.3586120  54.7479850
  11.6499320  64.6007260  54.7385260  13.0415970  65.1860380  54.6264600
  14.6972340  67.4758620  68.0623920  15.4985070  67.7970670  68.4759320
  14.1824160  67.1154200  68.7843830  18.8016370  67.4642860  50.6963910
  19.5944980  67.7531690  50.2445700  18.2820720  67.0335030  50.0176390
  24.9637340  67.3118780  66.6208740  25.9159090  67.2276800  66.5708980
  24.8165560  67.9760490  67.2942530  12.4170150  59.9632080  67.0059970
  12.9209170  59.3839360  67.5776200  11.6777570  60.2472310  67.5436340
  19.3193770  62.6846270  50.5606260  19.2144410  62.0698620  51.2867640
  19.1517990  62.1612160  49.7769270  19.4708090  61.3703070  66.5395490
  18.7053760  61.9388070  66.4550160  19.6524050  61.0779280  65.6463720
  22.5596500  61.7466300  51.1648250  22.0106600  62.1935600  51.8090990
  23.1815760  61.2415550  51.6885920  26.6131440  63.1008400  67.0970510
  27.3540910  63.4384160  66.5937970  25.8504120  63.2700460  66.5440280
  14.4493230  58.1061670  67.9010040  14.4898570  57.8075540  68.8095270
  15.3038730  58.5069280  67.7417560  18.2271620  60.7057220  53.0613550
  18.6488040  60.5397090  53.9044940  18.3522460  59.8957450  52.5668690
  16.3899040  56.6853770  65.8684530  15.8595500  56.1944720  65.2407870
  17.0587110  57.1137970  65.3342460  20.7399260  59.7294830  50.3090650
  21.2604920  59.0143850  49.9431800  21.3867660  60.3680700  50.6091160
  25.2877100  61.1523230  65.6325720  25.7018120  61.3068310  66.4816140
  24.3528100  61.2778450  65.7951500  16.8771340  53.6516140  65.9481820
  16.7828210  53.0336890  65.2232690  16.2968730  54.3782430  65.7211730
  19.6432780  52.2089380  62.9809210  19.1950080  52.2313640  62.1354760
  19.0097980  51.8108400  63.5779510  22.3856230  58.8359890  64.9859490
  22.5052440  58.2401030  65.7254330  23.2450230  58.8729580  64.5660790
  17.1230520  56.7790450  50.0071710  16.9219580  55.9157810  50.3685050
  16.9522570  56.6923810  49.0693310  17.8999750  67.4096720  64.7179380
  17.3620840  68.1342780  64.3988080  18.1533710  66.9327060  63.9276720
  19.1525000  55.3781240  66.2435310  19.7424690  55.0697090  66.9313130
  18.3345240  54.9060990  66.3995210  23.9718430  54.9947050  66.4768330
  23.2833950  54.3328590  66.4118320  24.6924450  54.5485320  66.9216790
  24.6018830  51.5898680  52.5358590  24.8821120  50.7466580  52.8918010
  23.8284560  51.8221790  53.0497340  15.9213320  53.8791070  49.9949590
  16.2239220  53.8858500  49.0868740  16.6607910  53.5288930  50.4917250
  20.7561960  68.6447930  64.9766030  20.6820660  69.5483070  65.2838400
  19.8540800  68.3259830  64.9488100  19.1398250  52.8225690  50.9805790
  18.7920250  52.1449680  50.4008240  19.3411020  52.3615200  51.7949180
  21.3047290  67.8106440  52.5992390  22.1998080  68.1491410  52.6211150
  21.3364920  67.0885850  51.9716670  14.9443450  63.1833490  50.8279390
  15.3818320  63.7263160  51.4836970  15.4291180  62.3580440  50.8375730
  12.1589250  65.9722520  58.2799650  12.4892260  65.1043580  58.0478290
  12.5880250  66.1781040  59.1104610  16.7551170  64.3031530  55.9401620
  16.4546710  64.1796500  56.8405530  16.6488660  63.4440120  55.5317350
  12.6479460  66.8393110  61.0181280  12.2110450  67.0193910  61.8505430
  13.2157140  67.5967730  60.8763000  29.5243090  64.0827930  50.6428300
  28.6936050  64.1504580  51.1135530  29.7014920  64.9732050  50.3395160
  28.9799550  60.8275410  53.1462500  29.7418460  61.3972060  53.2522190
  28.9953920  60.2602610  53.9170810  12.4803890  59.3513340  57.3770160
  11.8252730  59.0824980  56.7329860  13.3181840  59.2417820  56.9272140
  25.4294330  54.1454630  51.5988650  25.8479210  53.9585610  50.7585310
  25.1230390  53.2933680  51.9091580  13.5179820  59.7365910  61.9173500
  13.8852860  59.6493310  62.7969520  12.9490640  58.9732460  61.8180360
  13.0695820  56.6475000  65.8231920  12.1751870  56.6141760  66.1625630
  13.6093370  56.8461790  66.5883170  11.6941970  56.5612270  53.3195490
  10.7906050  56.8242470  53.1447150  12.1782590  56.8323440  52.5395450
  14.2369180  55.6177810  51.2289870  14.9460880  55.1961030  50.7437150
  13.5209120  55.6853040  50.5973220  13.8843340  51.6717140  50.2692520
  14.6071470  52.2126080  50.5873740  14.1567860  51.3980560  49.3934060
  13.5735530  50.9223330  60.1715140  14.2211720  50.3720710  59.7310300
  13.9937370  51.1766480  60.9930950  30.0112420  53.0078480  50.3107920
  30.9361730  52.8759660  50.1026210  29.9888210  53.0871300  51.2644370
  13.3267530  51.0779000  62.9140460  12.9782350  51.5342820  63.6798640
  12.9955230  50.1836130  62.9962890  14.9331900  64.2498600  67.0793650
  14.8901530  63.8791510  67.9608110  15.0642910  65.1876170  67.2195470
  20.8392350  52.2690880  66.4359880  20.7781240  52.8612710  67.1855290
  21.7792730  52.1616840  66.2910140  13.9988170  50.6055200  66.1891230
  14.5471160  50.4243250  65.4257340  14.0643480  49.8149310  66.7247540
  14.7719930  67.1960850  64.1991430  14.1780250  67.0645550  64.9381470
  14.7643770  66.3598990  63.7333530  24.2174950  50.4893080  62.4021460
  23.3434790  50.8228190  62.1994390  24.1085700  50.0166260  63.2273330
  14.4032160  64.5619230  63.1499470  13.6766220  63.9424520  63.0825420
  14.4641310  64.9559840  62.2797550  21.9649770  51.4062920  61.3414370
  21.1821560  51.8808420  61.6211130  21.6712700  50.5017750  61.2327550
  12.6862160  67.8793620  56.3596230  12.5184200  67.2464300  57.0578120
  11.8196670  68.0853020  56.0090420  13.3090180  51.7110400  53.8628090
  14.0669540  51.8239280  53.2892120  12.8467350  52.5479600  53.8171520
  19.8503990  53.8249670  56.8530400  19.0378500  53.4506560  56.5126280
  20.3545630  53.0694750  57.1551590  24.3528970  50.4892120  58.0913470
  24.9558340  51.0612330  58.5661990  23.6121960  51.0531560  57.8687370
  27.4963570  50.8913680  53.3653750  27.6914200  51.7897130  53.6321180
  26.7093440  50.6600760  53.8586700  14.2924860  66.5726850  53.8046370
  13.7672480  66.9534880  53.1008330  14.2169440  67.1977620  54.5256080
  15.6815330  52.2374450  52.4030060  16.2108090  51.4504250  52.2738010
  16.3143650  52.9165640  52.6365590  17.8753170  51.9749590  55.4575450
  17.2455910  51.2736900  55.6245580  17.3358310  52.7353720  55.2408610
  20.8145120  68.5888820  68.1286060  21.7412430  68.3533090  68.1722020
  20.7995550  69.4160820  67.6472090  18.0008730  51.2533570  67.8927940
  17.7193000  51.7567170  67.1288760  18.3828430  50.4555320  67.5270070
  16.8917830  68.5209230  52.6795620  17.6236650  68.2368510  52.1319510
  17.1511500  68.2822510  53.5695000  16.0532620  64.6373960  52.6841950
  15.4241500  65.1059060  53.2327780  16.1680450  63.7923180  53.1188140
  27.3822680  67.8158680  67.9527100  28.1748000  67.3207910  67.7453060
  27.6755830  68.4948820  68.5602710  23.5082340  58.6879620  38.8343150
  23.4276390  57.7734230  38.5634860  23.0946760  59.1846690  38.1282860
  21.6400380  60.4658640  40.7152420  20.8642480  59.9859080  41.0050990
  22.2913310  59.7864290  40.5408580  15.6566210  60.7778450  41.5928180
  14.8251090  60.5227160  41.9924690  16.2647190  60.8489220  42.3286100
  25.6607810  64.8718830  39.4951550  25.1989340  64.1006070  39.8238720
  26.4733360  64.8984900  40.0004000  15.6367470  64.8118540  41.7886200
  15.9395510  63.9216280  41.6096420  16.3811060  65.3688760  41.5608450
  14.0658160  55.7380340  35.3770570  13.1774860  56.0796310  35.2750450
  14.3499350  55.5380660  34.4851400  12.0291170  58.3385990  41.2610270
  12.6007280  57.5708190  41.2613910  12.0292710  58.6374750  40.3516880
  21.8871120  67.1576840  39.1155540  21.2682560  67.6134340  38.5449980
  22.7422900  67.3128300  38.7145240  21.0809370  63.1415830  40.7222580
  21.0117650  62.2005770  40.5611710  21.8429230  63.2317240  41.2945150
  13.2716040  53.7470350  43.0479200  13.0918880  52.8496100  43.3281960
  12.8696120  54.2942220  43.7226150  22.1114540  55.9486210  40.9491510
  22.4879360  55.0758090  40.8365180  22.0134050  56.2844910  40.0581950
  16.2419550  54.3211840  36.4108950  16.3486300  55.2215570  36.7177710
  15.3311910  54.2729810  36.1203600  25.8938660  53.4436650  37.8819850
  26.7148280  52.9533220  37.9245330  25.9272740  54.0334310  38.6351690
  13.8902710  56.2430850  41.6561540  14.5712820  56.5069220  42.2748940
  13.5750760  55.4031720  41.9899550  18.0827280  57.2898210  40.7434130
  18.5905500  57.7879180  41.3839150  18.6140520  56.5133410  40.5673490
  16.3663380  51.9296770  45.0097550  16.3681820  52.4469160  44.2043450
  15.5367690  51.4526950  44.9867480  22.7534470  62.0416080  36.5087450
  22.1351740  62.5065530  35.9450170  23.2657720  62.7343560  36.9256960
  17.6166230  61.5691950  43.1871050  17.2835610  62.1960870  43.8292120
  17.7932910  62.0953830  42.4072720  16.0478710  53.6406730  43.0168000
  16.3895520  54.4848780  42.7221870  15.1094520  53.7890470  43.1333340
  16.8285330  63.5372750  45.0020230  17.4459330  64.2123830  44.7204680
  15.9678450  63.9460730  44.9107730  12.1217670  62.7272610  33.8827080
  11.7445650  63.2159710  33.1511980  12.3790740  63.3997890  34.5133610
  27.7462920  65.0012160  42.9174870  27.0626440  65.6711270  42.9091540
  28.2857210  65.1992810  42.1519730  19.7306600  51.1289000  39.3412590
  20.0381580  50.5735890  38.6248090  18.8007300  51.2633460  39.1585580
  25.2821660  66.8456290  41.6320050  25.2948820  66.4418580  40.7642310
  24.7296880  67.6203580  41.5281480  26.5767080  63.5672510  36.7210220
  26.4663410  62.6246840  36.8459640  26.5735330  63.9288150  37.6072980
  24.6807100  61.7486130  42.9602660  25.0975890  61.5346240  42.1256120
  25.4046920  62.0058920  43.5311280  22.1187360  59.1937830  36.0772710
  21.1916640  59.1275210  36.3061180  22.2712180  60.1317960  35.9627950
  22.1056440  55.4654830  33.0739870  21.1660110  55.6268790  33.1592330
  22.4239700  56.1840510  32.5275860  26.1484650  60.7558130  36.5807960
  25.5297070  60.4177680  35.9334260  26.1309100  60.1117890  37.2887150
  17.7244000  59.7202570  38.8592440  17.3201000  59.0079820  38.3638340
  17.8107120  59.3755810  39.7480480  18.1925700  63.4070130  41.0231650
  17.8953990  62.8015600  40.3439430  19.1425520  63.4447440  40.9121010
  16.4372620  56.4945780  42.6391480  16.9887210  56.6041120  41.8644730
  16.9516130  56.8683380  43.3546710  26.2811310  66.9802000  44.6854750
  25.8041870  67.7874190  44.4927360  25.5973100  66.3280330  44.8380960
  17.2844130  63.1451820  47.6739450  16.3872660  63.3691790  47.9212850
  17.3097000  63.2686760  46.7250850  24.3249350  59.9944940  33.5880710
  24.7642630  59.1567370  33.4418530  25.0377770  60.6274340  33.6744850
  16.1115350  60.0165140  46.2496820  15.9723120  60.8887940  46.6184220
  15.2296710  59.6737950  46.1044760  22.4344730  64.9341010  37.5561950
  22.8740640  65.6765340  37.1417340  22.3731620  65.1767580  38.4800910
  17.9095700  65.9586840  48.4581970  17.8811130  66.3629790  47.5910400
  17.7460670  65.0297200  48.2953570  27.9066490  51.2487750  31.9021750
  27.5939150  51.3414580  32.8020820  28.6678960  51.8268780  31.8519180
  14.4248630  58.6147550  36.3599090  14.3046230  59.3409640  35.7480360
  14.1149520  57.8450460  35.8827000  29.8610520  66.7413940  49.7546140
  30.3370240  67.2196830  50.4335220  30.4817680  66.6731430  49.0291640
  12.0634000  61.7862690  42.1667730  12.1414420  61.9211460  41.2223450
  12.6775680  61.0778580  42.3595850  13.3081630  63.4862880  38.5773910
  12.9009710  63.6277470  37.7227510  14.1994640  63.2023040  38.3745120
  29.2643770  63.9326790  46.9146150  29.3906830  63.6938670  45.9963330
  29.3065150  63.1011330  47.3868230  23.1260510  67.6354790  45.4840960
  23.6405180  67.5462800  46.2863390  22.2829590  67.9814490  45.7768870
  25.1014910  67.9210130  34.9124960  24.9416050  67.6313070  35.8106790
  24.9361620  67.1450260  34.3770190  17.5803290  67.7008660  36.6896580
  17.4045770  66.7844200  36.4764380  16.7259030  68.0595950  36.9294380
  24.8041040  65.4297690  33.4722960  24.1106200  65.4274980  32.8125240
  25.5463900  65.0057010  33.0417130  24.3690970  67.0560400  37.5471450
  24.8247920  66.2749780  37.8610070  24.7083490  67.7667220  38.0912630
  12.1193520  62.8276860  44.7062190  12.2824560  62.3582220  43.8881560
  12.5845970  62.3200420  45.3711030  16.8912290  51.9582620  39.7422760
  16.4480440  52.7392160  39.4107280  17.4497280  52.2812510  40.4493700
  21.1782100  54.8251140  45.3458080  20.7161470  55.0334160  46.1578020
  20.7760210  54.0110490  45.0428750  23.2736320  57.5461840  48.5753530
  23.5989730  56.7125590  48.2355760  24.0616650  58.0690360  48.7231860
  20.0071110  51.5793320  34.6228590  19.3825290  51.5753190  35.3481900
  19.9201230  50.7124280  34.2264560  18.9288190  52.5029950  41.6012360
  19.2260520  53.4092780  41.5204380  19.4773750  52.0148730  40.9871930
  16.6826510  57.0816190  37.4704010  16.4567430  56.8653360  38.3750630
  15.9019040  57.5144650  37.1249980  23.9124270  57.0879560  36.0694660
  23.3133160  57.8115360  35.8858280  24.4603880  57.0256340  35.2871110
  19.1225720  57.9801770  48.1364280  19.0269320  57.0396500  47.9864680
  19.9657700  58.2016840  47.7412350  22.5189140  55.7243100  38.0997940
  22.9118710  56.0415300  37.2866630  22.8805990  54.8454980  38.2142460
  14.2536260  54.3915440  46.2898060  13.8599650  55.2390650  46.4970840
  13.5654660  53.7541810  46.4806700  20.8281310  54.4750410  49.3594800
  20.1379630  54.2822610  49.9940890  21.5713610  54.7585050  49.8919100
  11.5553310  52.3143900  40.3228140  11.2666360  52.8846760  41.0353120
  12.2999070  51.8348350  40.6859370  11.7423540  56.2564020  31.5330860
  11.6598210  57.1994780  31.6745850  11.3906600  56.1138930  30.6543210
  23.1044280  58.3148850  42.1948720  22.3725400  58.8235660  42.5438820
  22.7068620  57.4978830  41.8937500  19.5421670  54.9903050  40.6001210
  19.5457730  54.5493000  39.7505750  20.4372790  55.3120380  40.7073030
  15.3924050  54.8729540  39.5595420  15.0524100  55.3504770  40.3162470
  14.6301370  54.4194660  39.1996520  19.6041820  55.9915130  33.5907970
  19.7254640  55.9501610  34.5393790  19.2190330  56.8539280  33.4354700
  23.5670190  53.7682530  41.6071660  23.5842930  54.2191180  42.4513510
  23.3185770  52.8688170  41.8205100  18.6163320  58.3016270  32.9891270
  18.0480220  57.8534520  32.3627180  19.3252320  58.6609050  32.4556420
  26.9940940  51.1814710  47.4458040  27.3186710  50.4504370  47.9716020
  27.0297450  50.8628350  46.5439030  13.6932500  62.2028290  46.8658000
  13.3087290  61.5621960  47.4640960  14.0044690  62.9064410  47.4352730
  19.8429640  59.0504830  42.3466620  20.2099770  58.5763400  43.0927960
  19.6534700  59.9246400  42.6874960  12.7070130  53.7948520  38.4760090
  12.4217050  53.4304190  39.3138710  12.6448990  53.0628980  37.8623230
  17.6329010  58.0913470  44.6650830  17.3286080  58.9705450  44.8901190
  18.5875470  58.1513260  44.7008270  16.1610800  62.2974460  35.2617680
  15.3873060  61.7572080  35.1016400  16.8905430  61.7781070  34.9235440
  26.9198780  61.2939820  41.0544070  27.6397900  61.7895110  40.6640180
  26.7180600  60.6157710  40.4097940  22.3808720  52.6877780  35.1973460
  21.5673330  52.1890950  35.1218770  22.1870670  53.5276030  34.7809810
  22.3017580  61.3648880  46.9413070  22.2354890  60.4444550  46.6870660
  21.6722720  61.4624320  47.6557710  25.0957110  57.0597430  33.4935620
  25.9836730  57.3714660  33.3186960  25.0662200  56.1869680  33.1016200
  16.2048200  61.9654840  38.8996490  16.7226870  61.1623100  38.8453380
  15.7532220  61.9033980  39.7413320  21.0917700  63.2321120  34.1723790
  21.4333400  63.9763350  33.6767110  20.2630410  63.5452240  34.5348620
  13.6892740  58.9316210  45.8122190  13.3307680  59.5970060  46.3995530
  13.3947300  58.0999760  46.1834810  16.8905860  59.3900450  48.6961740
  16.5906000  59.5357630  47.7989560  17.6617100  58.8305740  48.6035130
  22.2334310  64.1869450  46.6916870  22.2478850  63.2550410  46.4735780
  21.5259410  64.2729210  47.3306640  27.3671380  58.3709270  32.9615480
  27.2835100  58.8023490  32.1111920  28.0865570  58.8307620  33.3942300
  28.4445520  60.8276790  46.0385450  27.7193710  61.4205570  45.8414840
  28.9720980  60.8200330  45.2398820  23.9745110  62.5536960  39.5369300
  24.3268930  61.9565090  38.8770670  23.0907440  62.2281190  39.7077550
  20.0608390  63.3134650  36.9439710  20.7479520  63.8603860  37.3247300
  19.2740810  63.8575380  36.9789320  12.2000790  58.9307470  32.4356790
  13.0695640  59.2132270  32.7192710  11.7091110  59.7443340  32.3205600
  19.3635600  60.3180680  36.5565070  19.8198380  61.1285930  36.7825260
  19.0123810  60.0003820  37.3883560  21.6668210  65.8287020  43.7857370
  22.3110430  66.0346400  44.4630790  22.0297650  65.0675420  43.3328220
  15.2647380  50.6618330  37.0287590  15.1362010  50.6536230  37.9772510
  14.4409400  51.0001420  36.6778600  22.9400290  63.8319370  42.5034820
  23.5822520  63.1312530  42.6166990  23.4649640  64.6117810  42.3231710
  26.7856010  64.1167990  32.2273960  26.5593590  63.3998430  32.8198600
  26.3952210  63.8680430  31.3895710  24.7137910  64.6314270  45.7070880
  25.0494150  65.2180960  46.3848800  23.7938250  64.5006980  45.9368670
  12.5672040  68.1434850  33.0018420  12.9269680  68.7424190  32.3475690
  12.4264380  68.6894740  33.7753450  12.2641310  52.4209450  46.4894290
  11.5499830  52.6206370  47.0946900  12.6836350  51.6449020  46.8609090
  26.3672260  62.0339930  33.8888120  26.0793960  62.4952620  34.6766000
  27.1624430  61.5737700  34.1572340  12.5513900  66.4089710  47.4760820
  12.6605020  65.4684450  47.3356210  11.8994460  66.6744460  46.8274550
  20.5426490  64.6805600  48.8758940  20.2223360  63.9614840  49.4204630
  19.8684850  65.3560670  48.9495000  18.5840660  65.5266050  33.8192090
  18.5750760  66.2595740  33.2036600  17.6639020  65.2797630  33.9119050
  14.1847300  60.7480940  34.5638850  13.5775250  61.4879840  34.5734150
  14.6596650  60.8380300  33.7377050  27.1242120  53.8688700  35.0483300
  26.4955280  53.9734370  34.3341530  26.6294040  54.0885480  35.8377180
  21.5700260  65.5894290  32.4817280  21.6712240  65.3858280  31.5519260
  20.6702000  65.3352570  32.6865060  19.0926150  56.1474650  36.4641180
  18.3842300  56.6160990  36.9054790  19.3770630  55.4896660  37.0986370
  20.7182080  57.5671350  44.4633710  21.2167330  58.0417170  45.1285560
  20.8605030  56.6434870  44.6703740  23.1241580  52.8725310  37.9036970
  23.0009360  52.8911440  36.9546480  24.0726140  52.9204250  38.0235370
  20.2118370  68.1080610  37.1764950  20.4659870  68.0702000  36.2544320
  19.2630850  67.9813940  37.1693200  17.2961170  54.4559730  33.8391890
  18.1451700  54.8929880  33.7732080  16.9292440  54.7679990  34.6663950
  26.2170950  59.0272490  38.7523460  25.2761090  59.0422720  38.9271150
  26.5315020  58.2408450  39.1983760  16.1952590  60.7092090  32.3127420
  16.9615860  60.5973450  32.8752850  16.2727280  60.0130060  31.6604190
  14.8899350  58.1417160  32.9960310  14.9702940  57.1944670  33.1077710
  15.7819100  58.4724040  33.1020970  28.2196530  66.1981340  40.4277720
  28.3443950  67.0212510  40.9001530  29.0862090  65.9872070  40.0801870
  15.6914060  68.2912550  40.0994850  16.4276540  67.7428010  40.3703420
  16.0754980  69.1568560  39.9600840  12.5759540  64.3586120  35.9736360
  11.6499320  64.6007260  35.9641770  13.0415970  65.1860380  35.8521110
  14.6972340  67.4758620  49.2880430  15.4985070  67.7970670  49.7015830
  14.1824160  67.1154200  50.0100340  18.8016370  67.4642860  31.9220420
  19.5944980  67.7531690  31.4702210  18.2820720  67.0335030  31.2432900
  23.5336970  63.5838490  49.2355840  22.9275130  63.6070090  48.4951590
  23.2291080  62.8521530  49.7723090  24.9637340  67.3118780  47.8465250
  25.9159090  67.2276800  47.7965490  24.8165560  67.9760490  48.5199040
  27.8546540  66.6912990  33.3457160  27.5688050  66.2778130  32.5311340
  27.6566090  67.6200700  33.2257680  12.4170150  59.9632080  48.2316480
  12.9209170  59.3839360  48.8032710  11.6777570  60.2472310  48.7692850
  19.3193770  62.6846270  31.7862770  19.2144410  62.0698620  32.5124150
  19.1517990  62.1612160  31.0025780  19.4708090  61.3703070  47.7652000
  18.7053760  61.9388070  47.6806670  19.6524050  61.0779280  46.8720230
  22.5596500  61.7466300  32.3904760  22.0106600  62.1935600  33.0347500
  23.1815760  61.2415550  32.9142430  26.6131440  63.1008400  48.3227020
  27.3540910  63.4384160  47.8194480  25.8504120  63.2700460  47.7696790
  14.4493230  58.1061670  49.1266550  14.4898570  57.8075540  50.0351780
  15.3038730  58.5069280  48.9674070  18.2271620  60.7057220  34.2870060
  18.6488040  60.5397090  35.1301450  18.3522460  59.8957450  33.7925200
  16.3899040  56.6853770  47.0941040  15.8595500  56.1944720  46.4664380
  17.0587110  57.1137970  46.5598970  20.7399260  59.7294830  31.5347160
  21.2604920  59.0143850  31.1688310  21.3867660  60.3680700  31.8347670
  25.2877100  61.1523230  46.8582230  25.7018120  61.3068310  47.7072650
  24.3528100  61.2778450  47.0208010  16.8771340  53.6516140  47.1738330
  16.7828210  53.0336890  46.4489200  16.2968730  54.3782430  46.9468240
  19.6432780  52.2089380  44.2065720  19.1950080  52.2313640  43.3611270
  19.0097980  51.8108400  44.8036020  20.0492330  61.1043710  44.8278160
  20.4680440  61.9476440  44.6554400  19.1300960  61.2415750  44.5984940
  22.3856230  58.8359890  46.2116000  22.5052440  58.2401030  46.9510840
  23.2450230  58.8729580  45.7917300  17.1230520  56.7790450  31.2328220
  16.9219580  55.9157810  31.5941560  16.9522570  56.6923810  30.2949820
  17.8999750  67.4096720  45.9435890  17.3620840  68.1342780  45.6244590
  18.1533710  66.9327060  45.1533230  19.1525000  55.3781240  47.4691820
  19.7424690  55.0697090  48.1569640  18.3345240  54.9060990  47.6251720
  24.6018830  51.5898680  33.7615100  24.8821120  50.7466580  34.1174520
  23.8284560  51.8221790  34.2753850  15.9213320  53.8791070  31.2206100
  16.2239220  53.8858500  30.3125250  16.6607910  53.5288930  31.7173760
  19.1398250  52.8225690  32.2062300  18.7920250  52.1449680  31.6264750
  19.3411020  52.3615200  33.0205690  21.3047290  67.8106440  33.8248900
  22.1998080  68.1491410  33.8467660  21.3364920  67.0885850  33.1973180
  14.9443450  63.1833490  32.0535900  15.3818320  63.7263160  32.7093480
  15.4291180  62.3580440  32.0632240  12.1589250  65.9722520  39.5056160
  12.4892260  65.1043580  39.2734800  12.5880250  66.1781040  40.3361120
  16.7551170  64.3031530  37.1658130  16.4546710  64.1796500  38.0662040
  16.6488660  63.4440120  36.7573860  12.6479460  66.8393110  42.2437790
  12.2110450  67.0193910  43.0761940  13.2157140  67.5967730  42.1019510
  28.2841640  66.3410110  46.5315100  27.6843630  66.4002670  45.7879020
  28.4135540  65.4015090  46.6611950  29.5243090  64.0827930  31.8684810
  28.6936050  64.1504580  32.3392040  29.7014920  64.9732050  31.5651670
  28.9799550  60.8275410  34.3719010  29.7418460  61.3972060  34.4778700
  28.9953920  60.2602610  35.1427320  12.4803890  59.3513340  38.6026670
  11.8252730  59.0824980  37.9586370  13.3181840  59.2417820  38.1528650
  29.9859520  61.6825510  39.2160940  30.3568350  60.8992830  38.8096910
  30.6261450  62.3714610  39.0378240  26.9693280  63.0662090  44.6291260
  26.1553120  63.4959250  44.8917050  27.3767480  63.6780500  44.0160310
  29.0318720  61.1209780  31.5291530  29.3067560  62.0288660  31.4010750
  28.8429460  61.0572310  32.4653520  25.4294330  54.1454630  32.8245160
  25.8479210  53.9585610  31.9841820  25.1230390  53.2933680  33.1348090
  28.9284060  59.0578770  36.5220960  28.5527660  58.2906700  36.0902250
  28.1987180  59.4401470  37.0095890  13.5179820  59.7365910  43.1430010
  13.8852860  59.6493310  44.0226030  12.9490640  58.9732460  43.0436870
  13.0695820  56.6475000  47.0488430  12.1751870  56.6141760  47.3882140
  13.6093370  56.8461790  47.8139680  11.6941970  56.5612270  34.5452000
  10.7906050  56.8242470  34.3703660  12.1782590  56.8323440  33.7651960
  14.2369180  55.6177810  32.4546380  14.9460880  55.1961030  31.9693660
  13.5209120  55.6853040  31.8229730  13.8843340  51.6717140  31.4949030
  14.6071470  52.2126080  31.8130250  14.1567860  51.3980560  30.6190570
  27.6934990  56.5409610  35.7620610  28.1894110  56.3080480  36.5469490
  27.4951060  55.7021450  35.3458250  13.5735530  50.9223330  41.3971650
  14.2211720  50.3720710  40.9566810  13.9937370  51.1766480  42.2187460
  29.1222150  55.1770560  38.2958290  29.0121430  55.0226600  39.2340560
  29.8829740  54.6491500  38.0533700  27.4687870  51.1164690  44.7541290
  28.1060090  51.7298830  45.1200480  27.6162760  51.1525350  43.8090520
  30.0112420  53.0078480  31.5364430  30.9361730  52.8759660  31.3282720
  29.9888210  53.0871300  32.4900880  30.0850910  53.7789140  34.1621140
  29.2902410  53.7134260  34.6914050  30.2894190  54.7139780  34.1506490
  27.0269330  67.8180690  38.1559530  27.6228400  67.4965260  37.4793950
  27.2847480  67.3452510  38.9472800  13.3267530  51.0779000  44.1396970
  12.9782350  51.5342820  44.9055150  12.9955230  50.1836130  44.2219400
  14.9331900  64.2498600  48.3050160  14.8901530  63.8791510  49.1864620
  15.0642910  65.1876170  48.4451980  18.6337930  65.8058190  43.9059880
  18.3929290  66.0732750  43.0190400  19.5740570  65.9763920  43.9610740
  20.8392350  52.2690880  47.6616390  20.7781240  52.8612710  48.4111800
  21.7792730  52.1616840  47.5166650  23.4766910  51.9260940  47.3008680
  24.0907320  52.2440230  46.6389760  24.0216470  51.4409530  47.9204540
  13.9988170  50.6055200  47.4147740  14.5471160  50.4243250  46.6513850
  14.0643480  49.8149310  47.9504050  14.7719930  67.1960850  45.4247940
  14.1780250  67.0645550  46.1637980  14.7643770  66.3598990  44.9590040
  24.2174950  50.4893080  43.6277970  23.3434790  50.8228190  43.4250900
  24.1085700  50.0166260  44.4529840  25.1246930  52.6963950  45.0119690
  24.7960290  51.8815710  44.6321420  26.0729230  52.6533760  44.8885380
  27.5781540  68.4675990  41.9857260  27.1184510  69.2191800  41.6115280
  26.9494000  67.7482460  41.9272060  14.4032160  64.5619230  44.3755980
  13.6766220  63.9424520  44.3081930  14.4641310  64.9559840  43.5054060
  18.0077260  66.7764230  41.1605390  18.5242280  66.1651590  40.6353650
  18.6574640  67.2793010  41.6516400  20.7472760  67.6672720  41.9874370
  21.0350570  67.4127020  41.1107380  21.2595980  67.1150080  42.5779940
  21.9649770  51.4062920  42.5670880  21.1821560  51.8808420  42.8467640
  21.6712700  50.5017750  42.4584060  26.5170840  52.1086020  40.6119970
  26.9578930  52.0531120  39.7641570  26.2478430  53.0244030  40.6830150
  28.3809410  51.7401260  38.6228790  28.3197810  50.7962480  38.4759810
  29.1601440  51.8481350  39.1682250  12.6862160  67.8793620  37.5852740
  12.5184200  67.2464300  38.2834630  11.8196670  68.0853020  37.2346930
  13.3090180  51.7110400  35.0884600  14.0669540  51.8239280  34.5148630
  12.8467350  52.5479600  35.0428030  19.8503990  53.8249670  38.0786910
  19.0378500  53.4506560  37.7382790  20.3545630  53.0694750  38.3808100
  24.3528970  50.4892120  39.3169980  24.9558340  51.0612330  39.7918500
  23.6121960  51.0531560  39.0943880  27.4963570  50.8913680  34.5910260
  27.6914200  51.7897130  34.8577690  26.7093440  50.6600760  35.0843210
  14.2924860  66.5726850  35.0302880  13.7672480  66.9534880  34.3264840
  14.2169440  67.1977620  35.7512590  15.6815330  52.2374450  33.6286570
  16.2108090  51.4504250  33.4994520  16.3143650  52.9165640  33.8622100
  17.8753170  51.9749590  36.6831960  17.2455910  51.2736900  36.8502090
  17.3358310  52.7353720  36.4665120  18.0008730  51.2533570  49.1184450
  17.7193000  51.7567170  48.3545270  18.3828430  50.4555320  48.7526580
  16.8917830  68.5209230  33.9052130  17.6236650  68.2368510  33.3576020
  17.1511500  68.2822510  34.7951510  16.0532620  64.6373960  33.9098460
  15.4241500  65.1059060  34.4584290  16.1680450  63.7923180  34.3444650
  24.6024190  50.6687150  49.6964920  24.4889640  50.9881760  50.5916440
  25.4193930  51.0699660  49.4002200  27.3822680  67.8158680  49.1783610
  28.1748000  67.3207910  48.9709570  27.6755830  68.4948820  49.7859220
  23.5082340  58.6879620  20.0599660  23.4276390  57.7734230  19.7891370
  23.0946760  59.1846690  19.3539370  21.6400380  60.4658640  21.9408930
  20.8642480  59.9859080  22.2307500  22.2913310  59.7864290  21.7665090
  15.6566210  60.7778450  22.8184690  14.8251090  60.5227160  23.2181200
  16.2647190  60.8489220  23.5542610  25.6607810  64.8718830  20.7208060
  25.1989340  64.1006070  21.0495230  26.4733360  64.8984900  21.2260510
  15.6367470  64.8118540  23.0142710  15.9395510  63.9216280  22.8352930
  16.3811060  65.3688760  22.7864960  14.0658160  55.7380340  16.6027080
  13.1774860  56.0796310  16.5006960  14.3499350  55.5380660  15.7107910
  12.0291170  58.3385990  22.4866780  12.6007280  57.5708190  22.4870420
  12.0292710  58.6374750  21.5773390  21.8871120  67.1576840  20.3412050
  21.2682560  67.6134340  19.7706490  22.7422900  67.3128300  19.9401750
  21.0809370  63.1415830  21.9479090  21.0117650  62.2005770  21.7868220
  21.8429230  63.2317240  22.5201660  13.2716040  53.7470350  24.2735710
  13.0918880  52.8496100  24.5538470  12.8696120  54.2942220  24.9482660
  22.1114540  55.9486210  22.1748020  22.4879360  55.0758090  22.0621690
  22.0134050  56.2844910  21.2838460  16.2419550  54.3211840  17.6365460
  16.3486300  55.2215570  17.9434220  15.3311910  54.2729810  17.3460110
  25.8938660  53.4436650  19.1076360  26.7148280  52.9533220  19.1501840
  25.9272740  54.0334310  19.8608200  13.8902710  56.2430850  22.8818050
  14.5712820  56.5069220  23.5005450  13.5750760  55.4031720  23.2156060
  18.0827280  57.2898210  21.9690640  18.5905500  57.7879180  22.6095660
  18.6140520  56.5133410  21.7930000  30.1838210  55.4603400  25.6719990
  29.4790380  55.8485110  25.1535100  30.4496130  56.1553690  26.2740920
  16.3663380  51.9296770  26.2354060  16.3681820  52.4469160  25.4299960
  15.5367690  51.4526950  26.2123990  22.7534470  62.0416080  17.7343960
  22.1351740  62.5065530  17.1706680  23.2657720  62.7343560  18.1513470
  17.6166230  61.5691950  24.4127560  17.2835610  62.1960870  25.0548630
  17.7932910  62.0953830  23.6329230  26.1300140  55.3837030  21.8803900
  25.4255710  55.6721920  22.4607010  26.4912300  56.1937140  21.5203460
  16.0478710  53.6406730  24.2424510  16.3895520  54.4848780  23.9478380
  15.1094520  53.7890470  24.3589850  16.8285330  63.5372750  26.2276740
  17.4459330  64.2123830  25.9461190  15.9678450  63.9460730  26.1364240
  12.1217670  62.7272610  15.1083590  11.7445650  63.2159710  14.3768490
  12.3790740  63.3997890  15.7390120  27.7462920  65.0012160  24.1431380
  27.0626440  65.6711270  24.1348050  28.2857210  65.1992810  23.3776240
  29.1987060  54.8291820  22.2713110  28.2511970  54.8630800  22.4028540
  29.5237050  55.6430770  22.6562470  19.7306600  51.1289000  20.5669100
  20.0381580  50.5735890  19.8504600  18.8007300  51.2633460  20.3842090
  25.2821660  66.8456290  22.8576560  25.2948820  66.4418580  21.9898820
  24.7296880  67.6203580  22.7537990  26.5767080  63.5672510  17.9466730
  26.4663410  62.6246840  18.0716150  26.5735330  63.9288150  18.8329490
  24.6807100  61.7486130  24.1859170  25.0975890  61.5346240  23.3512630
  25.4046920  62.0058920  24.7567790  22.1187360  59.1937830  17.3029220
  21.1916640  59.1275210  17.5317690  22.2712180  60.1317960  17.1884460
  22.1056440  55.4654830  14.2996380  21.1660110  55.6268790  14.3848840
  22.4239700  56.1840510  13.7532370  28.6269200  60.1473350  24.2775410
  27.7987830  60.2166440  23.8025540  29.2219680  60.7327660  23.8091240
  26.1484650  60.7558130  17.8064470  25.5297070  60.4177680  17.1590770
  26.1309100  60.1117890  18.5143660  25.5911210  56.9342670  25.2230280
  25.1782390  57.7596380  25.4770270  24.8587160  56.3487710  25.0306640
  17.7244000  59.7202570  20.0848950  17.3201000  59.0079820  19.5894850
  17.8107120  59.3755810  20.9736990  18.1925700  63.4070130  22.2488160
  17.8953990  62.8015600  21.5695940  19.1425520  63.4447440  22.1377520
  16.4372620  56.4945780  23.8647990  16.9887210  56.6041120  23.0901240
  16.9516130  56.8683380  24.5803220  26.2811310  66.9802000  25.9111260
  25.8041870  67.7874190  25.7183870  25.5973100  66.3280330  26.0637470
  17.2844130  63.1451820  28.8995960  16.3872660  63.3691790  29.1469360
  17.3097000  63.2686760  27.9507360  24.3249350  59.9944940  14.8137220
  24.7642630  59.1567370  14.6675040  25.0377770  60.6274340  14.9001360
  16.1115350  60.0165140  27.4753330  15.9723120  60.8887940  27.8440730
  15.2296710  59.6737950  27.3301270  22.4344730  64.9341010  18.7818460
  22.8740640  65.6765340  18.3673850  22.3731620  65.1767580  19.7057420
  17.9095700  65.9586840  29.6838480  17.8811130  66.3629790  28.8166910
  17.7460670  65.0297200  29.5210080  27.9066490  51.2487750  13.1278260
  27.5939150  51.3414580  14.0277330  28.6678960  51.8268780  13.0775690
  14.4248630  58.6147550  17.5855600  14.3046230  59.3409640  16.9736870
  14.1149520  57.8450460  17.1083510  29.8610520  66.7413940  30.9802650
  30.3370240  67.2196830  31.6591730  30.4817680  66.6731430  30.2548150
  12.0634000  61.7862690  23.3924240  12.1414420  61.9211460  22.4479960
  12.6775680  61.0778580  23.5852360  13.3081630  63.4862880  19.8030420
  12.9009710  63.6277470  18.9484020  14.1994640  63.2023040  19.6001630
  29.2643770  63.9326790  28.1402660  29.3906830  63.6938670  27.2219840
  29.3065150  63.1011330  28.6124740  23.1260510  67.6354790  26.7097470
  23.6405180  67.5462800  27.5119900  22.2829590  67.9814490  27.0025380
  25.1014910  67.9210130  16.1381470  24.9416050  67.6313070  17.0363300
  24.9361620  67.1450260  15.6026700  17.5803290  67.7008660  17.9153090
  17.4045770  66.7844200  17.7020890  16.7259030  68.0595950  18.1550890
  24.8041040  65.4297690  14.6979470  24.1106200  65.4274980  14.0381750
  25.5463900  65.0057010  14.2673640  24.3690970  67.0560400  18.7727960
  24.8247920  66.2749780  19.0866580  24.7083490  67.7667220  19.3169140
  29.1167780  55.9859250  29.1052400  28.5012050  56.4938920  28.5767860
  28.7964200  55.0857580  29.0478340  12.1193520  62.8276860  25.9318700
  12.2824560  62.3582220  25.1138070  12.5845970  62.3200420  26.5967540
  16.8912290  51.9582620  20.9679270  16.4480440  52.7392160  20.6363790
  17.4497280  52.2812510  21.6750210  21.1782100  54.8251140  26.5714590
  20.7161470  55.0334160  27.3834530  20.7760210  54.0110490  26.2685260
  26.1786610  56.0460090  27.7011250  25.3280200  55.7465840  28.0220320
  26.0188400  56.2902100  26.7895070  23.2736320  57.5461840  29.8010040
  23.5989730  56.7125590  29.4612270  24.0616650  58.0690360  29.9488370
  20.0071110  51.5793320  15.8485100  19.3825290  51.5753190  16.5738410
  19.9201230  50.7124280  15.4521070  18.9288190  52.5029950  22.8268870
  19.2260520  53.4092780  22.7460890  19.4773750  52.0148730  22.2128440
  16.6826510  57.0816190  18.6960520  16.4567430  56.8653360  19.6007140
  15.9019040  57.5144650  18.3506490  23.9124270  57.0879560  17.2951170
  23.3133160  57.8115360  17.1114790  24.4603880  57.0256340  16.5127620
  19.1225720  57.9801770  29.3620790  19.0269320  57.0396500  29.2121190
  19.9657700  58.2016840  28.9668860  22.5189140  55.7243100  19.3254450
  22.9118710  56.0415300  18.5123140  22.8805990  54.8454980  19.4398970
  14.2536260  54.3915440  27.5154570  13.8599650  55.2390650  27.7227350
  13.5654660  53.7541810  27.7063210  20.8281310  54.4750410  30.5851310
  20.1379630  54.2822610  31.2197400  21.5713610  54.7585050  31.1175610
  11.5553310  52.3143900  21.5484650  11.2666360  52.8846760  22.2609630
  12.2999070  51.8348350  21.9115880  11.7423540  56.2564020  12.7587370
  11.6598210  57.1994780  12.9002360  11.3906600  56.1138930  11.8799720
  23.1044280  58.3148850  23.4205230  22.3725400  58.8235660  23.7695330
  22.7068620  57.4978830  23.1194010  19.5421670  54.9903050  21.8257720
  19.5457730  54.5493000  20.9762260  20.4372790  55.3120380  21.9329540
  15.3924050  54.8729540  20.7851930  15.0524100  55.3504770  21.5418980
  14.6301370  54.4194660  20.4253030  19.6041820  55.9915130  14.8164480
  19.7254640  55.9501610  15.7650300  19.2190330  56.8539280  14.6611210
  23.5670190  53.7682530  22.8328170  23.5842930  54.2191180  23.6770020
  23.3185770  52.8688170  23.0461610  18.6163320  58.3016270  14.2147780
  18.0480220  57.8534520  13.5883690  19.3252320  58.6609050  13.6812930
  26.9940940  51.1814710  28.6714550  27.3186710  50.4504370  29.1972530
  27.0297450  50.8628350  27.7695540  13.6932500  62.2028290  28.0914510
  13.3087290  61.5621960  28.6897470  14.0044690  62.9064410  28.6609240
  19.8429640  59.0504830  23.5723130  20.2099770  58.5763400  24.3184470
  19.6534700  59.9246400  23.9131470  12.7070130  53.7948520  19.7016600
  12.4217050  53.4304190  20.5395220  12.6448990  53.0628980  19.0879740
  17.6329010  58.0913470  25.8907340  17.3286080  58.9705450  26.1157700
  18.5875470  58.1513260  25.9264780  16.1610800  62.2974460  16.4874190
  15.3873060  61.7572080  16.3272910  16.8905430  61.7781070  16.1491950
  26.9198780  61.2939820  22.2800580  27.6397900  61.7895110  21.8896690
  26.7180600  60.6157710  21.6354450  22.3808720  52.6877780  16.4229970
  21.5673330  52.1890950  16.3475280  22.1870670  53.5276030  16.0066320
  22.3017580  61.3648880  28.1669580  22.2354890  60.4444550  27.9127170
  21.6722720  61.4624320  28.8814220  25.0957110  57.0597430  14.7192130
  25.9836730  57.3714660  14.5443470  25.0662200  56.1869680  14.3272710
  16.2048200  61.9654840  20.1253000  16.7226870  61.1623100  20.0709890
  15.7532220  61.9033980  20.9669830  21.0917700  63.2321120  15.3980300
  21.4333400  63.9763350  14.9023620  20.2630410  63.5452240  15.7605130
  13.6892740  58.9316210  27.0378700  13.3307680  59.5970060  27.6252040
  13.3947300  58.0999760  27.4091320  16.8905860  59.3900450  29.9218250
  16.5906000  59.5357630  29.0246070  17.6617100  58.8305740  29.8291640
  22.2334310  64.1869450  27.9173380  22.2478850  63.2550410  27.6992290
  21.5259410  64.2729210  28.5563150  27.3671380  58.3709270  14.1871990
  27.2835100  58.8023490  13.3368430  28.0865570  58.8307620  14.6198810
  28.4445520  60.8276790  27.2641960  27.7193710  61.4205570  27.0671350
  28.9720980  60.8200330  26.4655330  28.3958630  65.2251530  16.9154120
  27.7534790  64.5707150  17.1897840  28.0089290  65.6306620  16.1394790
  23.9745110  62.5536960  20.7625810  24.3268930  61.9565090  20.1027180
  23.0907440  62.2281190  20.9334060  20.0608390  63.3134650  18.1696220
  20.7479520  63.8603860  18.5503810  19.2740810  63.8575380  18.2045830
  12.2000790  58.9307470  13.6613300  13.0695640  59.2132270  13.9449220
  11.7091110  59.7443340  13.5462110  19.3635600  60.3180680  17.7821580
  19.8198380  61.1285930  18.0081770  19.0123810  60.0003820  18.6140070
  21.6668210  65.8287020  25.0113880  22.3110430  66.0346400  25.6887300
  22.0297650  65.0675420  24.5584730  15.2647380  50.6618330  18.2544100
  15.1362010  50.6536230  19.2029020  14.4409400  51.0001420  17.9035110
  22.9400290  63.8319370  23.7291330  23.5822520  63.1312530  23.8423500
  23.4649640  64.6117810  23.5488220  26.7856010  64.1167990  13.4530470
  26.5593590  63.3998430  14.0455110  26.3952210  63.8680430  12.6152220
  24.7137910  64.6314270  26.9327390  25.0494150  65.2180960  27.6105310
  23.7938250  64.5006980  27.1625180  12.5672040  68.1434850  14.2274930
  12.9269680  68.7424190  13.5732200  12.4264380  68.6894740  15.0009960
  12.2641310  52.4209450  27.7150800  11.5499830  52.6206370  28.3203410
  12.6836350  51.6449020  28.0865600  26.3672260  62.0339930  15.1144630
  26.0793960  62.4952620  15.9022510  27.1624430  61.5737700  15.3828850
  12.5513900  66.4089710  28.7017330  12.6605020  65.4684450  28.5612720
  11.8994460  66.6744460  28.0531060  20.5426490  64.6805600  30.1015450
  20.2223360  63.9614840  30.6461140  19.8684850  65.3560670  30.1751510
  18.5840660  65.5266050  15.0448600  18.5750760  66.2595740  14.4293110
  17.6639020  65.2797630  15.1375560  14.1847300  60.7480940  15.7895360
  13.5775250  61.4879840  15.7990660  14.6596650  60.8380300  14.9633560
  23.7580090  54.9131760  25.4652250  24.1260910  54.0926970  25.7931820
  22.8978290  54.9733650  25.8807900  27.1242120  53.8688700  16.2739810
  26.4955280  53.9734370  15.5598040  26.6294040  54.0885480  17.0633690
  21.5700260  65.5894290  13.7073790  21.6712240  65.3858280  12.7775770
  20.6702000  65.3352570  13.9121570  19.0926150  56.1474650  17.6897690
  18.3842300  56.6160990  18.1311300  19.3770630  55.4896660  18.3242880
  20.7182080  57.5671350  25.6890220  21.2167330  58.0417170  26.3542070
  20.8605030  56.6434870  25.8960250  23.1241580  52.8725310  19.1293480
  23.0009360  52.8911440  18.1802990  24.0726140  52.9204250  19.2491880
  20.2118370  68.1080610  18.4021460  20.4659870  68.0702000  17.4800830
  19.2630850  67.9813940  18.3949710  17.2961170  54.4559730  15.0648400
  18.1451700  54.8929880  14.9988590  16.9292440  54.7679990  15.8920460
  27.9248940  53.7839310  26.5318610  27.4222540  54.5244710  26.8712420
  28.7405600  54.1723310  26.2155400  26.2170950  59.0272490  19.9779970
  25.2761090  59.0422720  20.1527660  26.5315020  58.2408450  20.4240270
  16.1952590  60.7092090  13.5383930  16.9615860  60.5973450  14.1009360
  16.2727280  60.0130060  12.8860700  14.8899350  58.1417160  14.2216820
  14.9702940  57.1944670  14.3334220  15.7819100  58.4724040  14.3277480
  28.2196530  66.1981340  21.6534230  28.3443950  67.0212510  22.1258040
  29.0862090  65.9872070  21.3058380  15.6914060  68.2912550  21.3251360
  16.4276540  67.7428010  21.5959930  16.0754980  69.1568560  21.1857350
  12.5759540  64.3586120  17.1992870  11.6499320  64.6007260  17.1898280
  13.0415970  65.1860380  17.0777620  14.6972340  67.4758620  30.5136940
  15.4985070  67.7970670  30.9272340  14.1824160  67.1154200  31.2356850
  18.8016370  67.4642860  13.1476930  19.5944980  67.7531690  12.6958720
  18.2820720  67.0335030  12.4689410  23.5336970  63.5838490  30.4612350
  22.9275130  63.6070090  29.7208100  23.2291080  62.8521530  30.9979600
  24.9637340  67.3118780  29.0721760  25.9159090  67.2276800  29.0222000
  24.8165560  67.9760490  29.7455550  27.8546540  66.6912990  14.5713670
  27.5688050  66.2778130  13.7567850  27.6566090  67.6200700  14.4514190
  12.4170150  59.9632080  29.4572990  12.9209170  59.3839360  30.0289220
  11.6777570  60.2472310  29.9949360  19.3193770  62.6846270  13.0119280
  19.2144410  62.0698620  13.7380660  19.1517990  62.1612160  12.2282290
  19.4708090  61.3703070  28.9908510  18.7053760  61.9388070  28.9063180
  19.6524050  61.0779280  28.0976740  22.5596500  61.7466300  13.6161270
  22.0106600  62.1935600  14.2604010  23.1815760  61.2415550  14.1398940
  26.6131440  63.1008400  29.5483530  27.3540910  63.4384160  29.0450990
  25.8504120  63.2700460  28.9953300  14.4493230  58.1061670  30.3523060
  14.4898570  57.8075540  31.2608290  15.3038730  58.5069280  30.1930580
  18.2271620  60.7057220  15.5126570  18.6488040  60.5397090  16.3557960
  18.3522460  59.8957450  15.0181710  16.3899040  56.6853770  28.3197550
  15.8595500  56.1944720  27.6920890  17.0587110  57.1137970  27.7855480
  20.7399260  59.7294830  12.7603670  21.2604920  59.0143850  12.3944820
  21.3867660  60.3680700  13.0604180  25.2877100  61.1523230  28.0838740
  25.7018120  61.3068310  28.9329160  24.3528100  61.2778450  28.2464520
  25.7599270  58.4919390  30.0877890  26.3420040  57.7371710  29.9998370
  25.9361040  59.0226830  29.3109370  16.8771340  53.6516140  28.3994840
  16.7828210  53.0336890  27.6745710  16.2968730  54.3782430  28.1724750
  19.6432780  52.2089380  25.4322230  19.1950080  52.2313640  24.5867780
  19.0097980  51.8108400  26.0292530  20.0492330  61.1043710  26.0534670
  20.4680440  61.9476440  25.8810910  19.1300960  61.2415750  25.8241450
  22.3856230  58.8359890  27.4372510  22.5052440  58.2401030  28.1767350
  23.2450230  58.8729580  27.0173810  24.7244130  59.3897080  26.0135020
  24.1979350  59.9139700  25.4100160  25.0675470  60.0224470  26.6444750
  17.1230520  56.7790450  12.4584730  16.9219580  55.9157810  12.8198070
  16.9522570  56.6923810  11.5206330  17.8999750  67.4096720  27.1692400
  17.3620840  68.1342780  26.8501100  18.1533710  66.9327060  26.3789740
  19.1525000  55.3781240  28.6948330  19.7424690  55.0697090  29.3826150
  18.3345240  54.9060990  28.8508230  23.9718430  54.9947050  28.9281350
  23.2833950  54.3328590  28.8631340  24.6924450  54.5485320  29.3729810
  24.6018830  51.5898680  14.9871610  24.8821120  50.7466580  15.3431030
  23.8284560  51.8221790  15.5010360  15.9213320  53.8791070  12.4462610
  16.2239220  53.8858500  11.5381760  16.6607910  53.5288930  12.9430270
  20.7561960  68.6447930  27.4279050  20.6820660  69.5483070  27.7351420
  19.8540800  68.3259830  27.4001120  19.1398250  52.8225690  13.4318810
  18.7920250  52.1449680  12.8521260  19.3411020  52.3615200  14.2462200
  21.3047290  67.8106440  15.0505410  22.1998080  68.1491410  15.0724170
  21.3364920  67.0885850  14.4229690  14.9443450  63.1833490  13.2792410
  15.3818320  63.7263160  13.9349990  15.4291180  62.3580440  13.2888750
  12.1589250  65.9722520  20.7312670  12.4892260  65.1043580  20.4991310
  12.5880250  66.1781040  21.5617630  16.7551170  64.3031530  18.3914640
  16.4546710  64.1796500  19.2918550  16.6488660  63.4440120  17.9830370
  12.6479460  66.8393110  23.4694300  12.2110450  67.0193910  24.3018450
  13.2157140  67.5967730  23.3276020  28.2841640  66.3410110  27.7571610
  27.6843630  66.4002670  27.0135530  28.4135540  65.4015090  27.8868460
  29.5243090  64.0827930  13.0941320  28.6936050  64.1504580  13.5648550
  29.7014920  64.9732050  12.7908180  28.9799550  60.8275410  15.5975520
  29.7418460  61.3972060  15.7035210  28.9953920  60.2602610  16.3683830
  12.4803890  59.3513340  19.8283180  11.8252730  59.0824980  19.1842880
  13.3181840  59.2417820  19.3785160  29.9859520  61.6825510  20.4417450
  30.3568350  60.8992830  20.0353420  30.6261450  62.3714610  20.2634750
  26.9693280  63.0662090  25.8547770  26.1553120  63.4959250  26.1173560
  27.3767480  63.6780500  25.2416820  29.0318720  61.1209780  12.7548040
  29.3067560  62.0288660  12.6267260  28.8429460  61.0572310  13.6910030
  25.4294330  54.1454630  14.0501670  25.8479210  53.9585610  13.2098330
  25.1230390  53.2933680  14.3604600  28.9284060  59.0578770  17.7477470
  28.5527660  58.2906700  17.3158760  28.1987180  59.4401470  18.2352400
  13.5179820  59.7365910  24.3686520  13.8852860  59.6493310  25.2482540
  12.9490640  58.9732460  24.2693380  28.3183680  58.2050290  27.3816990
  28.0869770  57.9763040  26.4814940  28.5788230  59.1249840  27.3361880
  13.0695820  56.6475000  28.2744940  12.1751870  56.6141760  28.6138650
  13.6093370  56.8461790  29.0396190  26.7571750  53.4306720  30.1596690
  27.6341930  53.4390120  30.5430690  26.7692590  52.6937560  29.5489040
  11.6941970  56.5612270  15.7708510  10.7906050  56.8242470  15.5960170
  12.1782590  56.8323440  14.9908470  28.2035020  57.2836260  21.0484710
  28.7272500  56.7898910  20.4174880  28.7894440  57.4186620  21.7932280
  28.3824740  57.3676130  24.5704260  27.4327450  57.3339670  24.6849250
  28.5637750  58.2776240  24.3354030  14.2369180  55.6177810  13.6802890
  14.9460880  55.1961030  13.1950170  13.5209120  55.6853040  13.0486240
  13.8843340  51.6717140  12.7205540  14.6071470  52.2126080  13.0386760
  14.1567860  51.3980560  11.8447080  27.6934990  56.5409610  16.9877120
  28.1894110  56.3080480  17.7726000  27.4951060  55.7021450  16.5714760
  13.5735530  50.9223330  22.6228160  14.2211720  50.3720710  22.1823320
  13.9937370  51.1766480  23.4443970  29.1222150  55.1770560  19.5214800
  29.0121430  55.0226600  20.4597070  29.8829740  54.6491500  19.2790210
  27.4687870  51.1164690  25.9797800  28.1060090  51.7298830  26.3456990
  27.6162760  51.1525350  25.0347030  30.0112420  53.0078480  12.7620940
  30.9361730  52.8759660  12.5539230  29.9888210  53.0871300  13.7157390
  30.0850910  53.7789140  15.3877650  29.2902410  53.7134260  15.9170560
  30.2894190  54.7139780  15.3763000  27.0269330  67.8180690  19.3816040
  27.6228400  67.4965260  18.7050460  27.2847480  67.3452510  20.1729310
  13.3267530  51.0779000  25.3653480  12.9782350  51.5342820  26.1311660
  12.9955230  50.1836130  25.4475910  14.9331900  64.2498600  29.5306670
  14.8901530  63.8791510  30.4121130  15.0642910  65.1876170  29.6708490
  18.6337930  65.8058190  25.1316390  18.3929290  66.0732750  24.2446910
  19.5740570  65.9763920  25.1867250  20.8392350  52.2690880  28.8872900
  20.7781240  52.8612710  29.6368310  21.7792730  52.1616840  28.7423160
  23.4766910  51.9260940  28.5265190  24.0907320  52.2440230  27.8646270
  24.0216470  51.4409530  29.1461050  29.8942090  67.8252570  25.9327030
  29.4000370  68.2221440  25.2154160  29.2855380  67.2001780  26.3264310
  13.9988170  50.6055200  28.6404250  14.5471160  50.4243250  27.8770360
  14.0643480  49.8149310  29.1760560  14.7719930  67.1960850  26.6504450
  14.1780250  67.0645550  27.3894490  14.7643770  66.3598990  26.1846550
  24.2174950  50.4893080  24.8534480  23.3434790  50.8228190  24.6507410
  24.1085700  50.0166260  25.6786350  25.1246930  52.6963950  26.2376200
  24.7960290  51.8815710  25.8577930  26.0729230  52.6533760  26.1141890
  27.5781540  68.4675990  23.2113770  27.1184510  69.2191800  22.8371790
  26.9494000  67.7482460  23.1528570  14.4032160  64.5619230  25.6012490
  13.6766220  63.9424520  25.5338440  14.4641310  64.9559840  24.7310570
  18.0077260  66.7764230  22.3861900  18.5242280  66.1651590  21.8610160
  18.6574640  67.2793010  22.8772910  20.7472760  67.6672720  23.2130880
  21.0350570  67.4127020  22.3363890  21.2595980  67.1150080  23.8036450
  21.9649770  51.4062920  23.7927390  21.1821560  51.8808420  24.0724150
  21.6712700  50.5017750  23.6840570  26.5170840  52.1086020  21.8376480
  26.9578930  52.0531120  20.9898080  26.2478430  53.0244030  21.9086660
  28.3809410  51.7401260  19.8485300  28.3197810  50.7962480  19.7016320
  29.1601440  51.8481350  20.3938760  12.6862160  67.8793620  18.8109250
  12.5184200  67.2464300  19.5091140  11.8196670  68.0853020  18.4603440
  13.3090180  51.7110400  16.3141110  14.0669540  51.8239280  15.7405140
  12.8467350  52.5479600  16.2684540  19.8503990  53.8249670  19.3043420
  19.0378500  53.4506560  18.9639300  20.3545630  53.0694750  19.6064610
  24.3528970  50.4892120  20.5426490  24.9558340  51.0612330  21.0175010
  23.6121960  51.0531560  20.3200390  27.4963570  50.8913680  15.8166770
  27.6914200  51.7897130  16.0834200  26.7093440  50.6600760  16.3099720
  14.2924860  66.5726850  16.2559390  13.7672480  66.9534880  15.5521350
  14.2169440  67.1977620  16.9769100  15.6815330  52.2374450  14.8543080
  16.2108090  51.4504250  14.7251030  16.3143650  52.9165640  15.0878610
  17.8753170  51.9749590  17.9088470  17.2455910  51.2736900  18.0758600
  17.3358310  52.7353720  17.6921630  20.8145120  68.5888820  30.5799080
  21.7412430  68.3533090  30.6235040  20.7995550  69.4160820  30.0985110
  29.0490180  68.1314390  17.5773330  29.2242370  67.4452130  16.9334250
  28.3511750  68.6561440  17.1850000  18.0008730  51.2533570  30.3440960
  17.7193000  51.7567170  29.5801780  18.3828430  50.4555320  29.9783090
  16.8917830  68.5209230  15.1308640  17.6236650  68.2368510  14.5832530
  17.1511500  68.2822510  16.0208020  16.0532620  64.6373960  15.1354970
  15.4241500  65.1059060  15.6840800  16.1680450  63.7923180  15.5701160
  24.6024190  50.6687150  30.9221430  24.4889640  50.9881760  31.8172950
  25.4193930  51.0699660  30.6258710  27.3822680  67.8158680  30.4040120
  28.1748000  67.3207910  30.1966080  27.6755830  68.4948820  31.0115730
  21.6400380  60.4658640   3.1665440  20.8642480  59.9859080   3.4564010
  22.2913310  59.7864290   2.9921600  15.6566210  60.7778450   4.0441200
  14.8251090  60.5227160   4.4437710  16.2647190  60.8489220   4.7799120
  25.6607810  64.8718830   1.9464570  25.1989340  64.1006070   2.2751740
  26.4733360  64.8984900   2.4517020  15.6367470  64.8118540   4.2399220
  15.9395510  63.9216280   4.0609440  16.3811060  65.3688760   4.0121470
  12.0291170  58.3385990   3.7123290  12.6007280  57.5708190   3.7126930
  12.0292710  58.6374750   2.8029900  21.0809370  63.1415830   3.1735600
  21.0117650  62.2005770   3.0124730  21.8429230  63.2317240   3.7458170
  13.2716040  53.7470350   5.4992220  13.0918880  52.8496100   5.7794980
  12.8696120  54.2942220   6.1739170  22.1114540  55.9486210   3.4004530
  22.4879360  55.0758090   3.2878200  22.0134050  56.2844910   2.5094970
  13.8902710  56.2430850   4.1074560  14.5712820  56.5069220   4.7261960
  13.5750760  55.4031720   4.4412570  18.0827280  57.2898210   3.1947150
  18.5905500  57.7879180   3.8352170  18.6140520  56.5133410   3.0186510
  30.1838210  55.4603400   6.8976500  29.4790380  55.8485110   6.3791610
  30.4496130  56.1553690   7.4997430  16.3663380  51.9296770   7.4610570
  16.3681820  52.4469160   6.6556470  15.5367690  51.4526950   7.4380500
  17.6166230  61.5691950   5.6384070  17.2835610  62.1960870   6.2805140
  17.7932910  62.0953830   4.8585740  26.1300140  55.3837030   3.1060410
  25.4255710  55.6721920   3.6863520  26.4912300  56.1937140   2.7459970
  16.0478710  53.6406730   5.4681020  16.3895520  54.4848780   5.1734890
  15.1094520  53.7890470   5.5846360  16.8285330  63.5372750   7.4533250
  17.4459330  64.2123830   7.1717700  15.9678450  63.9460730   7.3620750
  27.7462920  65.0012160   5.3687890  27.0626440  65.6711270   5.3604560
  28.2857210  65.1992810   4.6032750  29.1987060  54.8291820   3.4969620
  28.2511970  54.8630800   3.6285050  29.5237050  55.6430770   3.8818980
  25.2821660  66.8456290   4.0833070  25.2948820  66.4418580   3.2155330
  24.7296880  67.6203580   3.9794500  24.6807100  61.7486130   5.4115680
  25.0975890  61.5346240   4.5769140  25.4046920  62.0058920   5.9824300
  28.6269200  60.1473350   5.5031920  27.7987830  60.2166440   5.0282050
  29.2219680  60.7327660   5.0347750  25.5911210  56.9342670   6.4486790
  25.1782390  57.7596380   6.7026780  24.8587160  56.3487710   6.2563150
  18.1925700  63.4070130   3.4744670  17.8953990  62.8015600   2.7952450
  19.1425520  63.4447440   3.3634030  16.4372620  56.4945780   5.0904500
  16.9887210  56.6041120   4.3157750  16.9516130  56.8683380   5.8059730
  26.2811310  66.9802000   7.1367770  25.8041870  67.7874190   6.9440380
  25.5973100  66.3280330   7.2893980  17.2844130  63.1451820  10.1252470
  16.3872660  63.3691790  10.3725870  17.3097000  63.2686760   9.1763870
  16.1115350  60.0165140   8.7009840  15.9723120  60.8887940   9.0697240
  15.2296710  59.6737950   8.5557780  17.9095700  65.9586840  10.9094990
  17.8811130  66.3629790  10.0423420  17.7460670  65.0297200  10.7466590
  29.8610520  66.7413940  12.2059160  30.3370240  67.2196830  12.8848240
  30.4817680  66.6731430  11.4804660  12.0634000  61.7862690   4.6180750
  12.1414420  61.9211460   3.6736470  12.6775680  61.0778580   4.8108870
  29.2643770  63.9326790   9.3659170  29.3906830  63.6938670   8.4476350
  29.3065150  63.1011330   9.8381250  23.1260510  67.6354790   7.9353980
  23.6405180  67.5462800   8.7376410  22.2829590  67.9814490   8.2281890
  29.1167780  55.9859250  10.3308910  28.5012050  56.4938920   9.8024370
  28.7964200  55.0857580  10.2734850  12.1193520  62.8276860   7.1575210
  12.2824560  62.3582220   6.3394580  12.5845970  62.3200420   7.8224050
  16.8912290  51.9582620   2.1935780  16.4480440  52.7392160   1.8620300
  17.4497280  52.2812510   2.9006720  21.1782100  54.8251140   7.7971100
  20.7161470  55.0334160   8.6091040  20.7760210  54.0110490   7.4941770
  26.1786610  56.0460090   8.9267760  25.3280200  55.7465840   9.2476830
  26.0188400  56.2902100   8.0151580  23.2736320  57.5461840  11.0266550
  23.5989730  56.7125590  10.6868780  24.0616650  58.0690360  11.1744880
  18.9288190  52.5029950   4.0525380  19.2260520  53.4092780   3.9717400
  19.4773750  52.0148730   3.4384950  19.1225720  57.9801770  10.5877300
  19.0269320  57.0396500  10.4377700  19.9657700  58.2016840  10.1925370
  14.2536260  54.3915440   8.7411080  13.8599650  55.2390650   8.9483860
  13.5654660  53.7541810   8.9319720  20.8281310  54.4750410  11.8107820
  20.1379630  54.2822610  12.4453910  21.5713610  54.7585050  12.3432120
  11.5553310  52.3143900   2.7741160  11.2666360  52.8846760   3.4866140
  12.2999070  51.8348350   3.1372390  23.1044280  58.3148850   4.6461740
  22.3725400  58.8235660   4.9951840  22.7068620  57.4978830   4.3450520
  19.5421670  54.9903050   3.0514230  19.5457730  54.5493000   2.2018770
  20.4372790  55.3120380   3.1586050  15.3924050  54.8729540   2.0108440
  15.0524100  55.3504770   2.7675490  14.6301370  54.4194660   1.6509540
  23.5670190  53.7682530   4.0584680  23.5842930  54.2191180   4.9026530
  23.3185770  52.8688170   4.2718120  26.9940940  51.1814710   9.8971060
  27.3186710  50.4504370  10.4229040  27.0297450  50.8628350   8.9952050
  13.6932500  62.2028290   9.3171020  13.3087290  61.5621960   9.9153980
  14.0044690  62.9064410   9.8865750  19.8429640  59.0504830   4.7979640
  20.2099770  58.5763400   5.5440980  19.6534700  59.9246400   5.1387980
  17.6329010  58.0913470   7.1163850  17.3286080  58.9705450   7.3414210
  18.5875470  58.1513260   7.1521290  26.9198780  61.2939820   3.5057090
  27.6397900  61.7895110   3.1153200  26.7180600  60.6157710   2.8610960
  22.3017580  61.3648880   9.3926090  22.2354890  60.4444550   9.1383680
  21.6722720  61.4624320  10.1070730  13.6892740  58.9316210   8.2635210
  13.3307680  59.5970060   8.8508550  13.3947300  58.0999760   8.6347830
  16.8905860  59.3900450  11.1474760  16.5906000  59.5357630  10.2502580
  17.6617100  58.8305740  11.0548150  22.2334310  64.1869450   9.1429890
  22.2478850  63.2550410   8.9248800  21.5259410  64.2729210   9.7819660
  28.4445520  60.8276790   8.4898470  27.7193710  61.4205570   8.2927860
  28.9720980  60.8200330   7.6911840  21.6668210  65.8287020   6.2370390
  22.3110430  66.0346400   6.9143810  22.0297650  65.0675420   5.7841240
  22.9400290  63.8319370   4.9547840  23.5822520  63.1312530   5.0680010
  23.4649640  64.6117810   4.7744730  24.7137910  64.6314270   8.1583900
  25.0494150  65.2180960   8.8361820  23.7938250  64.5006980   8.3881690
  12.2641310  52.4209450   8.9407310  11.5499830  52.6206370   9.5459920
  12.6836350  51.6449020   9.3122110  12.5513900  66.4089710   9.9273840
  12.6605020  65.4684450   9.7869230  11.8994460  66.6744460   9.2787570
  20.5426490  64.6805600  11.3271960  20.2223360  63.9614840  11.8717650
  19.8684850  65.3560670  11.4008020  23.7580090  54.9131760   6.6908760
  24.1260910  54.0926970   7.0188330  22.8978290  54.9733650   7.1064410
  20.7182080  57.5671350   6.9146730  21.2167330  58.0417170   7.5798580
  20.8605030  56.6434870   7.1216760  27.9248940  53.7839310   7.7575120
  27.4222540  54.5244710   8.0968930  28.7405600  54.1723310   7.4411910
  28.2196530  66.1981340   2.8790740  28.3443950  67.0212510   3.3514550
  29.0862090  65.9872070   2.5314890  15.6914060  68.2912550   2.5507870
  16.4276540  67.7428010   2.8216440  16.0754980  69.1568560   2.4113860
  14.6972340  67.4758620  11.7393450  15.4985070  67.7970670  12.1528850
  14.1824160  67.1154200  12.4613360  23.5336970  63.5838490  11.6868860
  22.9275130  63.6070090  10.9464610  23.2291080  62.8521530  12.2236110
  24.9637340  67.3118780  10.2978270  25.9159090  67.2276800  10.2478510
  24.8165560  67.9760490  10.9712060  12.4170150  59.9632080  10.6829500
  12.9209170  59.3839360  11.2545730  11.6777570  60.2472310  11.2205870
  19.4708090  61.3703070  10.2165020  18.7053760  61.9388070  10.1319690
  19.6524050  61.0779280   9.3233250  26.6131440  63.1008400  10.7740040
  27.3540910  63.4384160  10.2707500  25.8504120  63.2700460  10.2209810
  14.4493230  58.1061670  11.5779570  14.4898570  57.8075540  12.4864800
  15.3038730  58.5069280  11.4187090  16.3899040  56.6853770   9.5454060
  15.8595500  56.1944720   8.9177400  17.0587110  57.1137970   9.0111990
  25.2877100  61.1523230   9.3095250  25.7018120  61.3068310  10.1585670
  24.3528100  61.2778450   9.4721030  25.7599270  58.4919390  11.3134400
  26.3420040  57.7371710  11.2254880  25.9361040  59.0226830  10.5365880
  16.8771340  53.6516140   9.6251350  16.7828210  53.0336890   8.9002220
  16.2968730  54.3782430   9.3981260  19.6432780  52.2089380   6.6578740
  19.1950080  52.2313640   5.8124290  19.0097980  51.8108400   7.2549040
  20.0492330  61.1043710   7.2791180  20.4680440  61.9476440   7.1067420
  19.1300960  61.2415750   7.0497960  22.3856230  58.8359890   8.6629020
  22.5052440  58.2401030   9.4023860  23.2450230  58.8729580   8.2430320
  24.7244130  59.3897080   7.2391530  24.1979350  59.9139700   6.6356670
  25.0675470  60.0224470   7.8701260  17.8999750  67.4096720   8.3948910
  17.3620840  68.1342780   8.0757610  18.1533710  66.9327060   7.6046250
  19.1525000  55.3781240   9.9204840  19.7424690  55.0697090  10.6082660
  18.3345240  54.9060990  10.0764740  23.9718430  54.9947050  10.1537860
  23.2833950  54.3328590  10.0887850  24.6924450  54.5485320  10.5986320
  20.7561960  68.6447930   8.6535560  20.6820660  69.5483070   8.9607930
  19.8540800  68.3259830   8.6257630  12.1589250  65.9722520   1.9569180
  12.4892260  65.1043580   1.7247820  12.5880250  66.1781040   2.7874140
  12.6479460  66.8393110   4.6950810  12.2110450  67.0193910   5.5274960
  13.2157140  67.5967730   4.5532530  28.2841640  66.3410110   8.9828120
  27.6843630  66.4002670   8.2392040  28.4135540  65.4015090   9.1124970
  26.9693280  63.0662090   7.0804280  26.1553120  63.4959250   7.3430070
  27.3767480  63.6780500   6.4673330  13.5179820  59.7365910   5.5943030
  13.8852860  59.6493310   6.4739050  12.9490640  58.9732460   5.4949890
  28.3183680  58.2050290   8.6073500  28.0869770  57.9763040   7.7071450
  28.5788230  59.1249840   8.5618390  13.0695820  56.6475000   9.5001450
  12.1751870  56.6141760   9.8395160  13.6093370  56.8461790  10.2652700
  26.7571750  53.4306720  11.3853200  27.6341930  53.4390120  11.7687200
  26.7692590  52.6937560  10.7745550  28.2035020  57.2836260   2.2741220
  28.7272500  56.7898910   1.6431390  28.7894440  57.4186620   3.0188790
  28.3824740  57.3676130   5.7960770  27.4327450  57.3339670   5.9105760
  28.5637750  58.2776240   5.5610540  13.5735530  50.9223330   3.8484670
  14.2211720  50.3720710   3.4079830  13.9937370  51.1766480   4.6700480
  27.4687870  51.1164690   7.2054310  28.1060090  51.7298830   7.5713500
  27.6162760  51.1525350   6.2603540  13.3267530  51.0779000   6.5909990
  12.9782350  51.5342820   7.3568170  12.9955230  50.1836130   6.6732420
  14.9331900  64.2498600  10.7563180  14.8901530  63.8791510  11.6377640
  15.0642910  65.1876170  10.8965000  18.6337930  65.8058190   6.3572900
  18.3929290  66.0732750   5.4703420  19.5740570  65.9763920   6.4123760
  20.8392350  52.2690880  10.1129410  20.7781240  52.8612710  10.8624820
  21.7792730  52.1616840   9.9679670  23.4766910  51.9260940   9.7521700
  24.0907320  52.2440230   9.0902780  24.0216470  51.4409530  10.3717560
  29.8942090  67.8252570   7.1583540  29.4000370  68.2221440   6.4410670
  29.2855380  67.2001780   7.5520820  13.9988170  50.6055200   9.8660760
  14.5471160  50.4243250   9.1026870  14.0643480  49.8149310  10.4017070
  14.7719930  67.1960850   7.8760960  14.1780250  67.0645550   8.6151000
  14.7643770  66.3598990   7.4103060  24.2174950  50.4893080   6.0790990
  23.3434790  50.8228190   5.8763920  24.1085700  50.0166260   6.9042860
  25.1246930  52.6963950   7.4632710  24.7960290  51.8815710   7.0834440
  26.0729230  52.6533760   7.3398400  27.5781540  68.4675990   4.4370280
  27.1184510  69.2191800   4.0628300  26.9494000  67.7482460   4.3785080
  14.4032160  64.5619230   6.8269000  13.6766220  63.9424520   6.7594950
  14.4641310  64.9559840   5.9567080  18.0077260  66.7764230   3.6118410
  18.5242280  66.1651590   3.0866670  18.6574640  67.2793010   4.1029420
  20.7472760  67.6672720   4.4387390  21.0350570  67.4127020   3.5620400
  21.2595980  67.1150080   5.0292960  21.9649770  51.4062920   5.0183900
  21.1821560  51.8808420   5.2980660  21.6712700  50.5017750   4.9097080
  26.5170840  52.1086020   3.0632990  26.9578930  52.0531120   2.2154590
  26.2478430  53.0244030   3.1343170  24.3528970  50.4892120   1.7683000
  24.9558340  51.0612330   2.2431520  23.6121960  51.0531560   1.5456900
  20.8145120  68.5888820  11.8055590  21.7412430  68.3533090  11.8491550
  20.7995550  69.4160820  11.3241620  18.0008730  51.2533570  11.5697470
  17.7193000  51.7567170  10.8058290  18.3828430  50.4555320  11.2039600
  24.6024190  50.6687150  12.1477940  24.4889640  50.9881760  13.0429460
  25.4193930  51.0699660  11.8515220  27.3822680  67.8158680  11.6296630
  28.1748000  67.3207910  11.4222590  27.6755830  68.4948820  12.2372240
  23.5082340  39.9136130 151.4804090  23.4276390  38.9990740 151.2095800
  23.0946760  40.4103200 150.7743800  21.6400380  41.6915150 153.3613360
  20.8642480  41.2115590 153.6511930  22.2913310  41.0120800 153.1869520
  25.6607810  46.0975340 152.1412490  25.1989340  45.3262580 152.4699660
  26.4733360  46.1241410 152.6464940  15.6367470  46.0375050 154.4347140
  15.9395510  45.1472790 154.2557360  16.3811060  46.5945270 154.2069390
  14.0658160  36.9636850 148.0231510  13.1774860  37.3052820 147.9211390
  14.3499350  36.7637170 147.1312340  12.0291170  39.5642500 153.9071210
  12.6007280  38.7964700 153.9074850  12.0292710  39.8631260 152.9977820
  21.8871120  48.3833350 151.7616480  21.2682560  48.8390850 151.1910920
  22.7422900  48.5384810 151.3606180  21.0809370  44.3672340 153.3683520
  21.0117650  43.4262280 153.2072650  21.8429230  44.4573750 153.9406090
  22.1114540  37.1742720 153.5952450  22.4879360  36.3014600 153.4826120
  22.0134050  37.5101420 152.7042890  16.2419550  35.5468350 149.0569890
  16.3486300  36.4472080 149.3638650  15.3311910  35.4986320 148.7664540
  25.8938660  34.6693160 150.5280790  26.7148280  34.1789730 150.5706270
  25.9272740  35.2590820 151.2812630  18.0827280  38.5154720 153.3895070
  18.5905500  39.0135690 154.0300090  18.6140520  37.7389920 153.2134430
  22.7534470  43.2672590 149.1548390  22.1351740  43.7322040 148.5911110
  23.2657720  43.9600070 149.5717900  26.1300140  36.6093540 153.3008330
  25.4255710  36.8978430 153.8811440  26.4912300  37.4193650 152.9407890
  12.1217670  43.9529120 146.5288020  11.7445650  44.4416220 145.7972920
  12.3790740  44.6254400 147.1594550  29.1987060  36.0548330 153.6917540
  28.2511970  36.0887310 153.8232970  29.5237050  36.8687280 154.0766900
  19.7306600  32.3545510 151.9873530  20.0381580  31.7992400 151.2709030
  18.8007300  32.4889970 151.8046520  25.2821660  48.0712800 154.2780990
  25.2948820  47.6675090 153.4103250  24.7296880  48.8460090 154.1742420
  26.5767080  44.7929020 149.3671160  26.4663410  43.8503350 149.4920580
  26.5735330  45.1544660 150.2533920  22.1187360  40.4194340 148.7233650
  21.1916640  40.3531720 148.9522120  22.2712180  41.3574470 148.6088890
  22.1056440  36.6911340 145.7200810  21.1660110  36.8525300 145.8053270
  22.4239700  37.4097020 145.1736800  26.1484650  41.9814640 149.2268900
  25.5297070  41.6434190 148.5795200  26.1309100  41.3374400 149.9348090
  17.7244000  40.9459080 151.5053380  17.3201000  40.2336330 151.0099280
  17.8107120  40.6012320 152.3941420  18.1925700  44.6326640 153.6692590
  17.8953990  44.0272110 152.9900370  19.1425520  44.6703950 153.5581950
  24.3249350  41.2201450 146.2341650  24.7642630  40.3823880 146.0879470
  25.0377770  41.8530850 146.3205790  22.4344730  46.1597520 150.2022890
  22.8740640  46.9021850 149.7878280  22.3731620  46.4024090 151.1261850
  27.9066490  32.4744260 144.5482690  27.5939150  32.5671090 145.4481760
  28.6678960  33.0525290 144.4980120  14.4248630  39.8404060 149.0060030
  14.3046230  40.5666150 148.3941300  14.1149520  39.0706970 148.5287940
  13.3081630  44.7119390 151.2234850  12.9009710  44.8533980 150.3688450
  14.1994640  44.4279550 151.0206060  25.1014910  49.1466640 147.5585900
  24.9416050  48.8569580 148.4567730  24.9361620  48.3706770 147.0231130
  17.5803290  48.9265170 149.3357520  17.4045770  48.0100710 149.1225320
  16.7259030  49.2852460 149.5755320  24.8041040  46.6554200 146.1183900
  24.1106200  46.6531490 145.4586180  25.5463900  46.2313520 145.6878070
  24.3690970  48.2816910 150.1932390  24.8247920  47.5006290 150.5071010
  24.7083490  48.9923730 150.7373570  16.8912290  33.1839130 152.3883700
  16.4480440  33.9648670 152.0568220  17.4497280  33.5069020 153.0954640
  20.0071110  32.8049830 147.2689530  19.3825290  32.8009700 147.9942840
  19.9201230  31.9380790 146.8725500  18.9288190  33.7286460 154.2473300
  19.2260520  34.6349290 154.1665320  19.4773750  33.2405240 153.6332870
  16.6826510  38.3072700 150.1164950  16.4567430  38.0909870 151.0211570
  15.9019040  38.7401160 149.7710920  23.9124270  38.3136070 148.7155600
  23.3133160  39.0371870 148.5319220  24.4603880  38.2512850 147.9332050
  22.5189140  36.9499610 150.7458880  22.9118710  37.2671810 149.9327570
  22.8805990  36.0711490 150.8603400  11.5553310  33.5400410 152.9689080
  11.2666360  34.1103270 153.6814060  12.2999070  33.0604860 153.3320310
  11.7423540  37.4820530 144.1791800  11.6598210  38.4251290 144.3206790
  11.3906600  37.3395440 143.3004150  19.5421670  36.2159560 153.2462150
  19.5457730  35.7749510 152.3966690  20.4372790  36.5376890 153.3533970
  15.3924050  36.0986050 152.2056360  15.0524100  36.5761280 152.9623410
  14.6301370  35.6451170 151.8457460  19.6041820  37.2171640 146.2368910
  19.7254640  37.1758120 147.1854730  19.2190330  38.0795790 146.0815640
  18.6163320  39.5272780 145.6352210  18.0480220  39.0791030 145.0088120
  19.3252320  39.8865560 145.1017360  12.7070130  35.0205030 151.1221030
  12.4217050  34.6560700 151.9599650  12.6448990  34.2885490 150.5084170
  16.1610800  43.5230970 147.9078620  15.3873060  42.9828590 147.7477340
  16.8905430  43.0037580 147.5696380  26.9198780  42.5196330 153.7005010
  27.6397900  43.0151620 153.3101120  26.7180600  41.8414220 153.0558880
  22.3808720  33.9134290 147.8434400  21.5673330  33.4147460 147.7679710
  22.1870670  34.7532540 147.4270750  25.0957110  38.2853940 146.1396560
  25.9836730  38.5971170 145.9647900  25.0662200  37.4126190 145.7477140
  16.2048200  43.1911350 151.5457430  16.7226870  42.3879610 151.4914320
  15.7532220  43.1290490 152.3874260  21.0917700  44.4577630 146.8184730
  21.4333400  45.2019860 146.3228050  20.2630410  44.7708750 147.1809560
  27.3671380  39.5965780 145.6076420  27.2835100  40.0280000 144.7572860
  28.0865570  40.0564130 146.0403240  28.3958630  46.4508040 148.3358550
  27.7534790  45.7963660 148.6102270  28.0089290  46.8563130 147.5599220
  23.9745110  43.7793470 152.1830240  24.3268930  43.1821600 151.5231610
  23.0907440  43.4537700 152.3538490  20.0608390  44.5391160 149.5900650
  20.7479520  45.0860370 149.9708240  19.2740810  45.0831890 149.6250260
  12.2000790  40.1563980 145.0817730  13.0695640  40.4388780 145.3653650
  11.7091110  40.9699850 144.9666540  19.3635600  41.5437190 149.2026010
  19.8198380  42.3542440 149.4286200  19.0123810  41.2260330 150.0344500
  15.2647380  31.8874840 149.6748530  15.1362010  31.8792740 150.6233450
  14.4409400  32.2257930 149.3239540  26.7856010  45.3424500 144.8734900
  26.5593590  44.6254940 145.4659540  26.3952210  45.0936940 144.0356650
  12.5672040  49.3691360 145.6479360  12.9269680  49.9680700 144.9936630
  12.4264380  49.9151250 146.4214390  26.3672260  43.2596440 146.5349060
  26.0793960  43.7209130 147.3226940  27.1624430  42.7994210 146.8033280
  18.5840660  46.7522560 146.4653030  18.5750760  47.4852250 145.8497540
  17.6639020  46.5054140 146.5579990  14.1847300  41.9737450 147.2099790
  13.5775250  42.7136350 147.2195090  14.6596650  42.0636810 146.3837990
  27.1242120  35.0945210 147.6944240  26.4955280  35.1990880 146.9802470
  26.6294040  35.3141990 148.4838120  21.5700260  46.8150800 145.1278220
  21.6712240  46.6114790 144.1980200  20.6702000  46.5609080 145.3326000
  19.0926150  37.3731160 149.1102120  18.3842300  37.8417500 149.5515730
  19.3770630  36.7153170 149.7447310  23.1241580  34.0981820 150.5497910
  23.0009360  34.1167950 149.6007420  24.0726140  34.1460760 150.6696310
  20.2118370  49.3337120 149.8225890  20.4659870  49.2958510 148.9005260
  19.2630850  49.2070450 149.8154140  17.2961170  35.6816240 146.4852830
  18.1451700  36.1186390 146.4193020  16.9292440  35.9936500 147.3124890
  26.2170950  40.2529000 151.3984400  25.2761090  40.2679230 151.5732090
  26.5315020  39.4664960 151.8444700  16.1952590  41.9348600 144.9588360
  16.9615860  41.8229960 145.5213790  16.2727280  41.2386570 144.3065130
  14.8899350  39.3673670 145.6421250  14.9702940  38.4201180 145.7538650
  15.7819100  39.6980550 145.7481910  28.2196530  47.4237850 153.0738660
  28.3443950  48.2469020 153.5462470  29.0862090  47.2128580 152.7262810
  15.6914060  49.5169060 152.7455790  16.4276540  48.9684520 153.0164360
  16.0754980  50.3825070 152.6061780  12.5759540  45.5842630 148.6197300
  11.6499320  45.8263770 148.6102710  13.0415970  46.4116890 148.4982050
  18.8016370  48.6899370 144.5681360  19.5944980  48.9788200 144.1163150
  18.2820720  48.2591540 143.8893840  27.8546540  47.9169500 145.9918100
  27.5688050  47.5034640 145.1772280  27.6566090  48.8457210 145.8718620
  19.3193770  43.9102780 144.4323710  19.2144410  43.2955130 145.1585090
  19.1517990  43.3868670 143.6486720  22.5596500  42.9722810 145.0365700
  22.0106600  43.4192110 145.6808440  23.1815760  42.4672060 145.5603370
  18.2271620  41.9313730 146.9331000  18.6488040  41.7653600 147.7762390
  18.3522460  41.1213960 146.4386140  20.7399260  40.9551340 144.1808100
  21.2604920  40.2400360 143.8149250  21.3867660  41.5937210 144.4808610
  17.1230520  38.0046960 143.8789160  16.9219580  37.1414320 144.2402500
  16.9522570  37.9180320 142.9410760  24.6018830  32.8155190 146.4076040
  24.8821120  31.9723090 146.7635460  23.8284560  33.0478300 146.9214790
  15.9213320  35.1047580 143.8667040  16.2239220  35.1115010 142.9586190
  16.6607910  34.7545440 144.3634700  19.1398250  34.0482200 144.8523240
  18.7920250  33.3706190 144.2725690  19.3411020  33.5871710 145.6666630
  21.3047290  49.0362950 146.4709840  22.1998080  49.3747920 146.4928600
  21.3364920  48.3142360 145.8434120  14.9443450  44.4090000 144.6996840
  15.3818320  44.9519670 145.3554420  15.4291180  43.5836950 144.7093180
  12.1589250  47.1979030 152.1517100  12.4892260  46.3300090 151.9195740
  12.5880250  47.4037550 152.9822060  16.7551170  45.5288040 149.8119070
  16.4546710  45.4053010 150.7122980  16.6488660  44.6696630 149.4034800
  29.5243090  45.3084440 144.5145750  28.6936050  45.3761090 144.9852980
  29.7014920  46.1988560 144.2112610  28.9799550  42.0531920 147.0179950
  29.7418460  42.6228570 147.1239640  28.9953920  41.4859120 147.7888260
  12.4803890  40.5769850 151.2487610  11.8252730  40.3081490 150.6047310
  13.3181840  40.4674330 150.7989590  29.9859520  42.9082020 151.8621880
  30.3568350  42.1249340 151.4557850  30.6261450  43.5971120 151.6839180
  29.0318720  42.3466290 144.1752470  29.3067560  43.2545170 144.0471690
  28.8429460  42.2828820 145.1114460  25.4294330  35.3711140 145.4706100
  25.8479210  35.1842120 144.6302760  25.1230390  34.5190190 145.7809030
  28.9284060  40.2835280 149.1681900  28.5527660  39.5163210 148.7363190
  28.1987180  40.6657980 149.6556830  11.6941970  37.7868780 147.1912940
  10.7906050  38.0498980 147.0164600  12.1782590  38.0579950 146.4112900
  28.2035020  38.5092770 152.4689140  28.7272500  38.0155420 151.8379310
  28.7894440  38.6443130 153.2136710  14.2369180  36.8434320 145.1007320
  14.9460880  36.4217540 144.6154600  13.5209120  36.9109550 144.4690670
  13.8843340  32.8973650 144.1409970  14.6071470  33.4382590 144.4591190
  14.1567860  32.6237070 143.2651510  27.6934990  37.7666120 148.4081550
  28.1894110  37.5336990 149.1930430  27.4951060  36.9277960 147.9919190
  29.1222150  36.4027070 150.9419230  29.0121430  36.2483110 151.8801500
  29.8829740  35.8748010 150.6994640  30.0112420  34.2334990 144.1825370
  30.9361730  34.1016170 143.9743660  29.9888210  34.3127810 145.1361820
  30.0850910  35.0045650 146.8082080  29.2902410  34.9390770 147.3374990
  30.2894190  35.9396290 146.7967430  27.0269330  49.0437200 150.8020470
  27.6228400  48.7221770 150.1254890  27.2847480  48.5709020 151.5933740
  18.0077260  48.0020740 153.8066330  18.5242280  47.3908100 153.2814590
  18.6574640  48.5049520 154.2977340  26.5170840  33.3342530 153.2580910
  26.9578930  33.2787630 152.4102510  26.2478430  34.2500540 153.3291090
  28.3809410  32.9657770 151.2689730  28.3197810  32.0218990 151.1220750
  29.1601440  33.0737860 151.8143190  12.6862160  49.1050130 150.2313680
  12.5184200  48.4720810 150.9295570  11.8196670  49.3109530 149.8807870
  13.3090180  32.9366910 147.7345540  14.0669540  33.0495790 147.1609570
  12.8467350  33.7736110 147.6888970  19.8503990  35.0506180 150.7247850
  19.0378500  34.6763070 150.3843730  20.3545630  34.2951260 151.0269040
  24.3528970  31.7148630 151.9630920  24.9558340  32.2868840 152.4379440
  23.6121960  32.2788070 151.7404820  27.4963570  32.1170190 147.2371200
  27.6914200  33.0153640 147.5038630  26.7093440  31.8857270 147.7304150
  14.2924860  47.7983360 147.6763820  13.7672480  48.1791390 146.9725780
  14.2169440  48.4234130 148.3973530  15.6815330  33.4630960 146.2747510
  16.2108090  32.6760760 146.1455460  16.3143650  34.1422150 146.5083040
  17.8753170  33.2006100 149.3292900  17.2455910  32.4993410 149.4963030
  17.3358310  33.9610230 149.1126060  29.0490180  49.3570900 148.9977760
  29.2242370  48.6708640 148.3538680  28.3511750  49.8817950 148.6054430
  16.8917830  49.7465740 146.5513070  17.6236650  49.4625020 146.0036960
  17.1511500  49.5079020 147.4412450  16.0532620  45.8630470 146.5559400
  15.4241500  46.3315570 147.1045230  16.1680450  45.0179690 146.9905590
  23.5082340  39.9136130 132.7060600  23.4276390  38.9990740 132.4352310
  23.0946760  40.4103200 132.0000310  21.6400380  41.6915150 134.5869870
  20.8642480  41.2115590 134.8768440  22.2913310  41.0120800 134.4126030
  15.6566210  42.0034960 135.4645630  14.8251090  41.7483670 135.8642140
  16.2647190  42.0745730 136.2003550  25.6607810  46.0975340 133.3669000
  25.1989340  45.3262580 133.6956170  26.4733360  46.1241410 133.8721450
  15.6367470  46.0375050 135.6603650  15.9395510  45.1472790 135.4813870
  16.3811060  46.5945270 135.4325900  14.0658160  36.9636850 129.2488020
  13.1774860  37.3052820 129.1467900  14.3499350  36.7637170 128.3568850
  12.0291170  39.5642500 135.1327720  12.6007280  38.7964700 135.1331360
  12.0292710  39.8631260 134.2234330  21.8871120  48.3833350 132.9872990
  21.2682560  48.8390850 132.4167430  22.7422900  48.5384810 132.5862690
  21.0809370  44.3672340 134.5940030  21.0117650  43.4262280 134.4329160
  21.8429230  44.4573750 135.1662600  13.2716040  34.9726860 136.9196650
  13.0918880  34.0752610 137.1999410  12.8696120  35.5198730 137.5943600
  22.1114540  37.1742720 134.8208960  22.4879360  36.3014600 134.7082630
  22.0134050  37.5101420 133.9299400  16.2419550  35.5468350 130.2826400
  16.3486300  36.4472080 130.5895160  15.3311910  35.4986320 129.9921050
  25.8938660  34.6693160 131.7537300  26.7148280  34.1789730 131.7962780
  25.9272740  35.2590820 132.5069140  13.8902710  37.4687360 135.5278990
  14.5712820  37.7325730 136.1466390  13.5750760  36.6288230 135.8617000
  18.0827280  38.5154720 134.6151580  18.5905500  39.0135690 135.2556600
  18.6140520  37.7389920 134.4390940  30.1838210  36.6859910 138.3180930
  29.4790380  37.0741620 137.7996040  30.4496130  37.3810200 138.9201860
  16.3663380  33.1553280 138.8815000  16.3681820  33.6725670 138.0760900
  15.5367690  32.6783460 138.8584930  22.7534470  43.2672590 130.3804900
  22.1351740  43.7322040 129.8167620  23.2657720  43.9600070 130.7974410
  17.6166230  42.7948460 137.0588500  17.2835610  43.4217380 137.7009570
  17.7932910  43.3210340 136.2790170  26.1300140  36.6093540 134.5264840
  25.4255710  36.8978430 135.1067950  26.4912300  37.4193650 134.1664400
  16.0478710  34.8663240 136.8885450  16.3895520  35.7105290 136.5939320
  15.1094520  35.0146980 137.0050790  16.8285330  44.7629260 138.8737680
  17.4459330  45.4380340 138.5922130  15.9678450  45.1717240 138.7825180
  12.1217670  43.9529120 127.7544530  11.7445650  44.4416220 127.0229430
  12.3790740  44.6254400 128.3851060  27.7462920  46.2268670 136.7892320
  27.0626440  46.8967780 136.7808990  28.2857210  46.4249320 136.0237180
  29.1987060  36.0548330 134.9174050  28.2511970  36.0887310 135.0489480
  29.5237050  36.8687280 135.3023410  19.7306600  32.3545510 133.2130040
  20.0381580  31.7992400 132.4965540  18.8007300  32.4889970 133.0303030
  25.2821660  48.0712800 135.5037500  25.2948820  47.6675090 134.6359760
  24.7296880  48.8460090 135.3998930  26.5767080  44.7929020 130.5927670
  26.4663410  43.8503350 130.7177090  26.5735330  45.1544660 131.4790430
  24.6807100  42.9742640 136.8320110  25.0975890  42.7602750 135.9973570
  25.4046920  43.2315430 137.4028730  22.1187360  40.4194340 129.9490160
  21.1916640  40.3531720 130.1778630  22.2712180  41.3574470 129.8345400
  22.1056440  36.6911340 126.9457320  21.1660110  36.8525300 127.0309780
  22.4239700  37.4097020 126.3993310  28.6269200  41.3729860 136.9236350
  27.7987830  41.4422950 136.4486480  29.2219680  41.9584170 136.4552180
  26.1484650  41.9814640 130.4525410  25.5297070  41.6434190 129.8051710
  26.1309100  41.3374400 131.1604600  25.5911210  38.1599180 137.8691220
  25.1782390  38.9852890 138.1231210  24.8587160  37.5744220 137.6767580
  17.7244000  40.9459080 132.7309890  17.3201000  40.2336330 132.2355790
  17.8107120  40.6012320 133.6197930  18.1925700  44.6326640 134.8949100
  17.8953990  44.0272110 134.2156880  19.1425520  44.6703950 134.7838460
  16.4372620  37.7202290 136.5108930  16.9887210  37.8297630 135.7362180
  16.9516130  38.0939890 137.2264160  26.2811310  48.2058510 138.5572200
  25.8041870  49.0130700 138.3644810  25.5973100  47.5536840 138.7098410
  17.2844130  44.3708330 141.5456900  16.3872660  44.5948300 141.7930300
  17.3097000  44.4943270 140.5968300  24.3249350  41.2201450 127.4598160
  24.7642630  40.3823880 127.3135980  25.0377770  41.8530850 127.5462300
  16.1115350  41.2421650 140.1214270  15.9723120  42.1144450 140.4901670
  15.2296710  40.8994460 139.9762210  22.4344730  46.1597520 131.4279400
  22.8740640  46.9021850 131.0134790  22.3731620  46.4024090 132.3518360
  17.9095700  47.1843350 142.3299420  17.8811130  47.5886300 141.4627850
  17.7460670  46.2553710 142.1671020  27.9066490  32.4744260 125.7739200
  27.5939150  32.5671090 126.6738270  28.6678960  33.0525290 125.7236630
  14.4248630  39.8404060 130.2316540  14.3046230  40.5666150 129.6197810
  14.1149520  39.0706970 129.7544450  29.8610520  47.9670450 143.6263590
  30.3370240  48.4453340 144.3052670  30.4817680  47.8987940 142.9009090
  12.0634000  43.0119200 136.0385180  12.1414420  43.1467970 135.0940900
  12.6775680  42.3035090 136.2313300  13.3081630  44.7119390 132.4491360
  12.9009710  44.8533980 131.5944960  14.1994640  44.4279550 132.2462570
  29.2643770  45.1583300 140.7863600  29.3906830  44.9195180 139.8680780
  29.3065150  44.3267840 141.2585680  23.1260510  48.8611300 139.3558410
  23.6405180  48.7719310 140.1580840  22.2829590  49.2071000 139.6486320
  25.1014910  49.1466640 128.7842410  24.9416050  48.8569580 129.6824240
  24.9361620  48.3706770 128.2487640  17.5803290  48.9265170 130.5614030
  17.4045770  48.0100710 130.3481830  16.7259030  49.2852460 130.8011830
  24.8041040  46.6554200 127.3440410  24.1106200  46.6531490 126.6842690
  25.5463900  46.2313520 126.9134580  24.3690970  48.2816910 131.4188900
  24.8247920  47.5006290 131.7327520  24.7083490  48.9923730 131.9630080
  29.1167780  37.2115760 141.7513340  28.5012050  37.7195430 141.2228800
  28.7964200  36.3114090 141.6939280  12.1193520  44.0533370 138.5779640
  12.2824560  43.5838730 137.7599010  12.5845970  43.5456930 139.2428480
  16.8912290  33.1839130 133.6140210  16.4480440  33.9648670 133.2824730
  17.4497280  33.5069020 134.3211150  21.1782100  36.0507650 139.2175530
  20.7161470  36.2590670 140.0295470  20.7760210  35.2367000 138.9146200
  26.1786610  37.2716600 140.3472190  25.3280200  36.9722350 140.6681260
  26.0188400  37.5158610 139.4356010  23.2736320  38.7718350 142.4470980
  23.5989730  37.9382100 142.1073210  24.0616650  39.2946870 142.5949310
  20.0071110  32.8049830 128.4946040  19.3825290  32.8009700 129.2199350
  19.9201230  31.9380790 128.0982010  18.9288190  33.7286460 135.4729810
  19.2260520  34.6349290 135.3921830  19.4773750  33.2405240 134.8589380
  16.6826510  38.3072700 131.3421460  16.4567430  38.0909870 132.2468080
  15.9019040  38.7401160 130.9967430  23.9124270  38.3136070 129.9412110
  23.3133160  39.0371870 129.7575730  24.4603880  38.2512850 129.1588560
  19.1225720  39.2058280 142.0081730  19.0269320  38.2653010 141.8582130
  19.9657700  39.4273350 141.6129800  22.5189140  36.9499610 131.9715390
  22.9118710  37.2671810 131.1584080  22.8805990  36.0711490 132.0859910
  14.2536260  35.6171950 140.1615510  13.8599650  36.4647160 140.3688290
  13.5654660  34.9798320 140.3524150  20.8281310  35.7006920 143.2312250
  20.1379630  35.5079120 143.8658340  21.5713610  35.9841560 143.7636550
  11.5553310  33.5400410 134.1945590  11.2666360  34.1103270 134.9070570
  12.2999070  33.0604860 134.5576820  11.7423540  37.4820530 125.4048310
  11.6598210  38.4251290 125.5463300  11.3906600  37.3395440 124.5260660
  23.1044280  39.5405360 136.0666170  22.3725400  40.0492170 136.4156270
  22.7068620  38.7235340 135.7654950  19.5421670  36.2159560 134.4718660
  19.5457730  35.7749510 133.6223200  20.4372790  36.5376890 134.5790480
  15.3924050  36.0986050 133.4312870  15.0524100  36.5761280 134.1879920
  14.6301370  35.6451170 133.0713970  19.6041820  37.2171640 127.4625420
  19.7254640  37.1758120 128.4111240  19.2190330  38.0795790 127.3072150
  23.5670190  34.9939040 135.4789110  23.5842930  35.4447690 136.3230960
  23.3185770  34.0944680 135.6922550  18.6163320  39.5272780 126.8608720
  18.0480220  39.0791030 126.2344630  19.3252320  39.8865560 126.3273870
  26.9940940  32.4071220 141.3175490  27.3186710  31.6760880 141.8433470
  27.0297450  32.0884860 140.4156480  13.6932500  43.4284800 140.7375450
  13.3087290  42.7878470 141.3358410  14.0044690  44.1320920 141.3070180
  19.8429640  40.2761340 136.2184070  20.2099770  39.8019910 136.9645410
  19.6534700  41.1502910 136.5592410  12.7070130  35.0205030 132.3477540
  12.4217050  34.6560700 133.1856160  12.6448990  34.2885490 131.7340680
  17.6329010  39.3169980 138.5368280  17.3286080  40.1961960 138.7618640
  18.5875470  39.3769770 138.5725720  16.1610800  43.5230970 129.1335130
  15.3873060  42.9828590 128.9733850  16.8905430  43.0037580 128.7952890
  26.9198780  42.5196330 134.9261520  27.6397900  43.0151620 134.5357630
  26.7180600  41.8414220 134.2815390  22.3808720  33.9134290 129.0690910
  21.5673330  33.4147460 128.9936220  22.1870670  34.7532540 128.6527260
  22.3017580  42.5905390 140.8130520  22.2354890  41.6701060 140.5588110
  21.6722720  42.6880830 141.5275160  25.0957110  38.2853940 127.3653070
  25.9836730  38.5971170 127.1904410  25.0662200  37.4126190 126.9733650
  16.2048200  43.1911350 132.7713940  16.7226870  42.3879610 132.7170830
  15.7532220  43.1290490 133.6130770  21.0917700  44.4577630 128.0441240
  21.4333400  45.2019860 127.5484560  20.2630410  44.7708750 128.4066070
  13.6892740  40.1572720 139.6839640  13.3307680  40.8226570 140.2712980
  13.3947300  39.3256270 140.0552260  16.8905860  40.6156960 142.5679190
  16.5906000  40.7614140 141.6707010  17.6617100  40.0562250 142.4752580
  22.2334310  45.4125960 140.5634320  22.2478850  44.4806920 140.3453230
  21.5259410  45.4985720 141.2024090  27.3671380  39.5965780 126.8332930
  27.2835100  40.0280000 125.9829370  28.0865570  40.0564130 127.2659750
  28.4445520  42.0533300 139.9102900  27.7193710  42.6462080 139.7132290
  28.9720980  42.0456840 139.1116270  28.3958630  46.4508040 129.5615060
  27.7534790  45.7963660 129.8358780  28.0089290  46.8563130 128.7855730
  23.9745110  43.7793470 133.4086750  24.3268930  43.1821600 132.7488120
  23.0907440  43.4537700 133.5795000  20.0608390  44.5391160 130.8157160
  20.7479520  45.0860370 131.1964750  19.2740810  45.0831890 130.8506770
  12.2000790  40.1563980 126.3074240  13.0695640  40.4388780 126.5910160
  11.7091110  40.9699850 126.1923050  19.3635600  41.5437190 130.4282520
  19.8198380  42.3542440 130.6542710  19.0123810  41.2260330 131.2601010
  21.6668210  47.0543530 137.6574820  22.3110430  47.2602910 138.3348240
  22.0297650  46.2931930 137.2045670  15.2647380  31.8874840 130.9005040
  15.1362010  31.8792740 131.8489960  14.4409400  32.2257930 130.5496050
  22.9400290  45.0575880 136.3752270  23.5822520  44.3569040 136.4884440
  23.4649640  45.8374320 136.1949160  26.7856010  45.3424500 126.0991410
  26.5593590  44.6254940 126.6916050  26.3952210  45.0936940 125.2613160
  24.7137910  45.8570780 139.5788330  25.0494150  46.4437470 140.2566250
  23.7938250  45.7263490 139.8086120  12.5672040  49.3691360 126.8735870
  12.9269680  49.9680700 126.2193140  12.4264380  49.9151250 127.6470900
  12.2641310  33.6465960 140.3611740  11.5499830  33.8462880 140.9664350
  12.6836350  32.8705530 140.7326540  26.3672260  43.2596440 127.7605570
  26.0793960  43.7209130 128.5483450  27.1624430  42.7994210 128.0289790
  12.5513900  47.6346220 141.3478270  12.6605020  46.6940960 141.2073660
  11.8994460  47.9000970 140.6992000  20.5426490  45.9062110 142.7476390
  20.2223360  45.1871350 143.2922080  19.8684850  46.5817180 142.8212450
  18.5840660  46.7522560 127.6909540  18.5750760  47.4852250 127.0754050
  17.6639020  46.5054140 127.7836500  14.1847300  41.9737450 128.4356300
  13.5775250  42.7136350 128.4451600  14.6596650  42.0636810 127.6094500
  23.7580090  36.1388270 138.1113190  24.1260910  35.3183480 138.4392760
  22.8978290  36.1990160 138.5268840  27.1242120  35.0945210 128.9200750
  26.4955280  35.1990880 128.2058980  26.6294040  35.3141990 129.7094630
  21.5700260  46.8150800 126.3534730  21.6712240  46.6114790 125.4236710
  20.6702000  46.5609080 126.5582510  19.0926150  37.3731160 130.3358630
  18.3842300  37.8417500 130.7772240  19.3770630  36.7153170 130.9703820
  20.7182080  38.7927860 138.3351160  21.2167330  39.2673680 139.0003010
  20.8605030  37.8691380 138.5421190  23.1241580  34.0981820 131.7754420
  23.0009360  34.1167950 130.8263930  24.0726140  34.1460760 131.8952820
  20.2118370  49.3337120 131.0482400  20.4659870  49.2958510 130.1261770
  19.2630850  49.2070450 131.0410650  17.2961170  35.6816240 127.7109340
  18.1451700  36.1186390 127.6449530  16.9292440  35.9936500 128.5381400
  27.9248940  35.0095820 139.1779550  27.4222540  35.7501220 139.5173360
  28.7405600  35.3979820 138.8616340  26.2170950  40.2529000 132.6240910
  25.2761090  40.2679230 132.7988600  26.5315020  39.4664960 133.0701210
  16.1952590  41.9348600 126.1844870  16.9615860  41.8229960 126.7470300
  16.2727280  41.2386570 125.5321640  14.8899350  39.3673670 126.8677760
  14.9702940  38.4201180 126.9795160  15.7819100  39.6980550 126.9738420
  28.2196530  47.4237850 134.2995170  28.3443950  48.2469020 134.7718980
  29.0862090  47.2128580 133.9519320  15.6914060  49.5169060 133.9712300
  16.4276540  48.9684520 134.2420870  16.0754980  50.3825070 133.8318290
  12.5759540  45.5842630 129.8453810  11.6499320  45.8263770 129.8359220
  13.0415970  46.4116890 129.7238560  14.6972340  48.7015130 143.1597880
  15.4985070  49.0227180 143.5733280  14.1824160  48.3410710 143.8817790
  18.8016370  48.6899370 125.7937870  19.5944980  48.9788200 125.3419660
  18.2820720  48.2591540 125.1150350  23.5336970  44.8095000 143.1073290
  22.9275130  44.8326600 142.3669040  23.2291080  44.0778040 143.6440540
  24.9637340  48.5375290 141.7182700  25.9159090  48.4533310 141.6682940
  24.8165560  49.2017000 142.3916490  27.8546540  47.9169500 127.2174610
  27.5688050  47.5034640 126.4028790  27.6566090  48.8457210 127.0975130
  12.4170150  41.1888590 142.1033930  12.9209170  40.6095870 142.6750160
  11.6777570  41.4728820 142.6410300  19.3193770  43.9102780 125.6580220
  19.2144410  43.2955130 126.3841600  19.1517990  43.3868670 124.8743230
  19.4708090  42.5959580 141.6369450  18.7053760  43.1644580 141.5524120
  19.6524050  42.3035790 140.7437680  22.5596500  42.9722810 126.2622210
  22.0106600  43.4192110 126.9064950  23.1815760  42.4672060 126.7859880
  26.6131440  44.3264910 142.1944470  27.3540910  44.6640670 141.6911930
  25.8504120  44.4956970 141.6414240  14.4493230  39.3318180 142.9984000
  14.4898570  39.0332050 143.9069230  15.3038730  39.7325790 142.8391520
  18.2271620  41.9313730 128.1587510  18.6488040  41.7653600 129.0018900
  18.3522460  41.1213960 127.6642650  16.3899040  37.9110280 140.9658490
  15.8595500  37.4201230 140.3381830  17.0587110  38.3394480 140.4316420
  20.7399260  40.9551340 125.4064610  21.2604920  40.2400360 125.0405760
  21.3867660  41.5937210 125.7065120  25.2877100  42.3779740 140.7299680
  25.7018120  42.5324820 141.5790100  24.3528100  42.5034960 140.8925460
  25.7599270  39.7175900 142.7338830  26.3420040  38.9628220 142.6459310
  25.9361040  40.2483340 141.9570310  16.8771340  34.8772650 141.0455780
  16.7828210  34.2593400 140.3206650  16.2968730  35.6038940 140.8185690
  19.6432780  33.4345890 138.0783170  19.1950080  33.4570150 137.2328720
  19.0097980  33.0364910 138.6753470  20.0492330  42.3300220 138.6995610
  20.4680440  43.1732950 138.5271850  19.1300960  42.4672260 138.4702390
  22.3856230  40.0616400 140.0833450  22.5052440  39.4657540 140.8228290
  23.2450230  40.0986090 139.6634750  24.7244130  40.6153590 138.6595960
  24.1979350  41.1396210 138.0561100  25.0675470  41.2480980 139.2905690
  17.1230520  38.0046960 125.1045670  16.9219580  37.1414320 125.4659010
  16.9522570  37.9180320 124.1667270  17.8999750  48.6353230 139.8153340
  17.3620840  49.3599290 139.4962040  18.1533710  48.1583570 139.0250680
  19.1525000  36.6037750 141.3409270  19.7424690  36.2953600 142.0287090
  18.3345240  36.1317500 141.4969170  23.9718430  36.2203560 141.5742290
  23.2833950  35.5585100 141.5092280  24.6924450  35.7741830 142.0190750
  24.6018830  32.8155190 127.6332550  24.8821120  31.9723090 127.9891970
  23.8284560  33.0478300 128.1471300  15.9213320  35.1047580 125.0923550
  16.2239220  35.1115010 124.1842700  16.6607910  34.7545440 125.5891210
  20.7561960  49.8704440 140.0739990  20.6820660  50.7739580 140.3812360
  19.8540800  49.5516340 140.0462060  19.1398250  34.0482200 126.0779750
  18.7920250  33.3706190 125.4982200  19.3411020  33.5871710 126.8923140
  21.3047290  49.0362950 127.6966350  22.1998080  49.3747920 127.7185110
  21.3364920  48.3142360 127.0690630  14.9443450  44.4090000 125.9253350
  15.3818320  44.9519670 126.5810930  15.4291180  43.5836950 125.9349690
  12.1589250  47.1979030 133.3773610  12.4892260  46.3300090 133.1452250
  12.5880250  47.4037550 134.2078570  16.7551170  45.5288040 131.0375580
  16.4546710  45.4053010 131.9379490  16.6488660  44.6696630 130.6291310
  12.6479460  48.0649620 136.1155240  12.2110450  48.2450420 136.9479390
  13.2157140  48.8224240 135.9736960  28.2841640  47.5666620 140.4032550
  27.6843630  47.6259180 139.6596470  28.4135540  46.6271600 140.5329400
  29.5243090  45.3084440 125.7402260  28.6936050  45.3761090 126.2109490
  29.7014920  46.1988560 125.4369120  28.9799550  42.0531920 128.2436460
  29.7418460  42.6228570 128.3496150  28.9953920  41.4859120 129.0144770
  12.4803890  40.5769850 132.4744120  11.8252730  40.3081490 131.8303820
  13.3181840  40.4674330 132.0246100  29.9859520  42.9082020 133.0878390
  30.3568350  42.1249340 132.6814360  30.6261450  43.5971120 132.9095690
  26.9693280  44.2918600 138.5008710  26.1553120  44.7215760 138.7634500
  27.3767480  44.9037010 137.8877760  29.0318720  42.3466290 125.4008980
  29.3067560  43.2545170 125.2728200  28.8429460  42.2828820 126.3370970
  25.4294330  35.3711140 126.6962610  25.8479210  35.1842120 125.8559270
  25.1230390  34.5190190 127.0065540  28.9284060  40.2835280 130.3938410
  28.5527660  39.5163210 129.9619700  28.1987180  40.6657980 130.8813340
  13.5179820  40.9622420 137.0147460  13.8852860  40.8749820 137.8943480
  12.9490640  40.1988970 136.9154320  28.3183680  39.4306800 140.0277930
  28.0869770  39.2019550 139.1275880  28.5788230  40.3506350 139.9822820
  13.0695820  37.8731510 140.9205880  12.1751870  37.8398270 141.2599590
  13.6093370  38.0718300 141.6857130  26.7571750  34.6563230 142.8057630
  27.6341930  34.6646630 143.1891630  26.7692590  33.9194070 142.1949980
  11.6941970  37.7868780 128.4169450  10.7906050  38.0498980 128.2421110
  12.1782590  38.0579950 127.6369410  28.2035020  38.5092770 133.6945650
  28.7272500  38.0155420 133.0635820  28.7894440  38.6443130 134.4393220
  28.3824740  38.5932640 137.2165200  27.4327450  38.5596180 137.3310190
  28.5637750  39.5032750 136.9814970  14.2369180  36.8434320 126.3263830
  14.9460880  36.4217540 125.8411110  13.5209120  36.9109550 125.6947180
  13.8843340  32.8973650 125.3666480  14.6071470  33.4382590 125.6847700
  14.1567860  32.6237070 124.4908020  27.6934990  37.7666120 129.6338060
  28.1894110  37.5336990 130.4186940  27.4951060  36.9277960 129.2175700
  13.5735530  32.1479840 135.2689100  14.2211720  31.5977220 134.8284260
  13.9937370  32.4022990 136.0904910  29.1222150  36.4027070 132.1675740
  29.0121430  36.2483110 133.1058010  29.8829740  35.8748010 131.9251150
  27.4687870  32.3421200 138.6258740  28.1060090  32.9555340 138.9917930
  27.6162760  32.3781860 137.6807970  30.0112420  34.2334990 125.4081880
  30.9361730  34.1016170 125.2000170  29.9888210  34.3127810 126.3618330
  30.0850910  35.0045650 128.0338590  29.2902410  34.9390770 128.5631500
  30.2894190  35.9396290 128.0223940  27.0269330  49.0437200 132.0276980
  27.6228400  48.7221770 131.3511400  27.2847480  48.5709020 132.8190250
  13.3267530  32.3035510 138.0114420  12.9782350  32.7599330 138.7772600
  12.9955230  31.4092640 138.0936850  14.9331900  45.4755110 142.1767610
  14.8901530  45.1048020 143.0582070  15.0642910  46.4132680 142.3169430
  18.6337930  47.0314700 137.7777330  18.3929290  47.2989260 136.8907850
  19.5740570  47.2020430 137.8328190  20.8392350  33.4947390 141.5333840
  20.7781240  34.0869220 142.2829250  21.7792730  33.3873350 141.3884100
  23.4766910  33.1517450 141.1726130  24.0907320  33.4696740 140.5107210
  24.0216470  32.6666040 141.7921990  29.8942090  49.0509080 138.5787970
  29.4000370  49.4477950 137.8615100  29.2855380  48.4258290 138.9725250
  13.9988170  31.8311710 141.2865190  14.5471160  31.6499760 140.5231300
  14.0643480  31.0405820 141.8221500  14.7719930  48.4217360 139.2965390
  14.1780250  48.2902060 140.0355430  14.7643770  47.5855500 138.8307490
  24.2174950  31.7149590 137.4995420  23.3434790  32.0484700 137.2968350
  24.1085700  31.2422770 138.3247290  25.1246930  33.9220460 138.8837140
  24.7960290  33.1072220 138.5038870  26.0729230  33.8790270 138.7602830
  27.5781540  49.6932500 135.8574710  27.1184510  50.4448310 135.4832730
  26.9494000  48.9738970 135.7989510  14.4032160  45.7875740 138.2473430
  13.6766220  45.1681030 138.1799380  14.4641310  46.1816350 137.3771510
  18.0077260  48.0020740 135.0322840  18.5242280  47.3908100 134.5071100
  18.6574640  48.5049520 135.5233850  20.7472760  48.8929230 135.8591820
  21.0350570  48.6383530 134.9824830  21.2595980  48.3406590 136.4497390
  21.9649770  32.6319430 136.4388330  21.1821560  33.1064930 136.7185090
  21.6712700  31.7274260 136.3301510  26.5170840  33.3342530 134.4837420
  26.9578930  33.2787630 133.6359020  26.2478430  34.2500540 134.5547600
  28.3809410  32.9657770 132.4946240  28.3197810  32.0218990 132.3477260
  29.1601440  33.0737860 133.0399700  12.6862160  49.1050130 131.4570190
  12.5184200  48.4720810 132.1552080  11.8196670  49.3109530 131.1064380
  13.3090180  32.9366910 128.9602050  14.0669540  33.0495790 128.3866080
  12.8467350  33.7736110 128.9145480  19.8503990  35.0506180 131.9504360
  19.0378500  34.6763070 131.6100240  20.3545630  34.2951260 132.2525550
  24.3528970  31.7148630 133.1887430  24.9558340  32.2868840 133.6635950
  23.6121960  32.2788070 132.9661330  27.4963570  32.1170190 128.4627710
  27.6914200  33.0153640 128.7295140  26.7093440  31.8857270 128.9560660
  14.2924860  47.7983360 128.9020330  13.7672480  48.1791390 128.1982290
  14.2169440  48.4234130 129.6230040  15.6815330  33.4630960 127.5004020
  16.2108090  32.6760760 127.3711970  16.3143650  34.1422150 127.7339550
  17.8753170  33.2006100 130.5549410  17.2455910  32.4993410 130.7219540
  17.3358310  33.9610230 130.3382570  20.8145120  49.8145330 143.2260020
  21.7412430  49.5789600 143.2695980  20.7995550  50.6417330 142.7446050
  29.0490180  49.3570900 130.2234270  29.2242370  48.6708640 129.5795190
  28.3511750  49.8817950 129.8310940  18.0008730  32.4790080 142.9901900
  17.7193000  32.9823680 142.2262720  18.3828430  31.6811830 142.6244030
  16.8917830  49.7465740 127.7769580  17.6236650  49.4625020 127.2293470
  17.1511500  49.5079020 128.6668960  16.0532620  45.8630470 127.7815910
  15.4241500  46.3315570 128.3301740  16.1680450  45.0179690 128.2162100
  24.6024190  31.8943660 143.5682370  24.4889640  32.2138270 144.4633890
  25.4193930  32.2956170 143.2719650  27.3822680  49.0415190 143.0501060
  28.1748000  48.5464420 142.8427020  27.6755830  49.7205330 143.6576670
  23.5082340  39.9136130 113.9317110  23.4276390  38.9990740 113.6608820
  23.0946760  40.4103200 113.2256820  21.6400380  41.6915150 115.8126380
  20.8642480  41.2115590 116.1024950  22.2913310  41.0120800 115.6382540
  15.6566210  42.0034960 116.6902140  14.8251090  41.7483670 117.0898650
  16.2647190  42.0745730 117.4260060  25.6607810  46.0975340 114.5925510
  25.1989340  45.3262580 114.9212680  26.4733360  46.1241410 115.0977960
  15.6367470  46.0375050 116.8860160  15.9395510  45.1472790 116.7070380
  16.3811060  46.5945270 116.6582410  14.0658160  36.9636850 110.4744530
  13.1774860  37.3052820 110.3724410  14.3499350  36.7637170 109.5825360
  12.0291170  39.5642500 116.3584230  12.6007280  38.7964700 116.3587870
  12.0292710  39.8631260 115.4490840  21.8871120  48.3833350 114.2129500
  21.2682560  48.8390850 113.6423940  22.7422900  48.5384810 113.8119200
  21.0809370  44.3672340 115.8196540  21.0117650  43.4262280 115.6585670
  21.8429230  44.4573750 116.3919110  13.2716040  34.9726860 118.1453160
  13.0918880  34.0752610 118.4255920  12.8696120  35.5198730 118.8200110
  22.1114540  37.1742720 116.0465470  22.4879360  36.3014600 115.9339140
  22.0134050  37.5101420 115.1555910  16.2419550  35.5468350 111.5082910
  16.3486300  36.4472080 111.8151670  15.3311910  35.4986320 111.2177560
  25.8938660  34.6693160 112.9793810  26.7148280  34.1789730 113.0219290
  25.9272740  35.2590820 113.7325650  13.8902710  37.4687360 116.7535500
  14.5712820  37.7325730 117.3722900  13.5750760  36.6288230 117.0873510
  18.0827280  38.5154720 115.8408090  18.5905500  39.0135690 116.4813110
  18.6140520  37.7389920 115.6647450  30.1838210  36.6859910 119.5437440
  29.4790380  37.0741620 119.0252550  30.4496130  37.3810200 120.1458370
  16.3663380  33.1553280 120.1071510  16.3681820  33.6725670 119.3017410
  15.5367690  32.6783460 120.0841440  22.7534470  43.2672590 111.6061410
  22.1351740  43.7322040 111.0424130  23.2657720  43.9600070 112.0230920
  17.6166230  42.7948460 118.2845010  17.2835610  43.4217380 118.9266080
  17.7932910  43.3210340 117.5046680  26.1300140  36.6093540 115.7521350
  25.4255710  36.8978430 116.3324460  26.4912300  37.4193650 115.3920910
  16.0478710  34.8663240 118.1141960  16.3895520  35.7105290 117.8195830
  15.1094520  35.0146980 118.2307300  16.8285330  44.7629260 120.0994190
  17.4459330  45.4380340 119.8178640  15.9678450  45.1717240 120.0081690
  12.1217670  43.9529120 108.9801040  11.7445650  44.4416220 108.2485940
  12.3790740  44.6254400 109.6107570  27.7462920  46.2268670 118.0148830
  27.0626440  46.8967780 118.0065500  28.2857210  46.4249320 117.2493690
  29.1987060  36.0548330 116.1430560  28.2511970  36.0887310 116.2745990
  29.5237050  36.8687280 116.5279920  19.7306600  32.3545510 114.4386550
  20.0381580  31.7992400 113.7222050  18.8007300  32.4889970 114.2559540
  25.2821660  48.0712800 116.7294010  25.2948820  47.6675090 115.8616270
  24.7296880  48.8460090 116.6255440  26.5767080  44.7929020 111.8184180
  26.4663410  43.8503350 111.9433600  26.5735330  45.1544660 112.7046940
  24.6807100  42.9742640 118.0576620  25.0975890  42.7602750 117.2230080
  25.4046920  43.2315430 118.6285240  22.1187360  40.4194340 111.1746670
  21.1916640  40.3531720 111.4035140  22.2712180  41.3574470 111.0601910
  22.1056440  36.6911340 108.1713830  21.1660110  36.8525300 108.2566290
  22.4239700  37.4097020 107.6249820  28.6269200  41.3729860 118.1492860
  27.7987830  41.4422950 117.6742990  29.2219680  41.9584170 117.6808690
  26.1484650  41.9814640 111.6781920  25.5297070  41.6434190 111.0308220
  26.1309100  41.3374400 112.3861110  25.5911210  38.1599180 119.0947730
  25.1782390  38.9852890 119.3487720  24.8587160  37.5744220 118.9024090
  17.7244000  40.9459080 113.9566400  17.3201000  40.2336330 113.4612300
  17.8107120  40.6012320 114.8454440  18.1925700  44.6326640 116.1205610
  17.8953990  44.0272110 115.4413390  19.1425520  44.6703950 116.0094970
  16.4372620  37.7202290 117.7365440  16.9887210  37.8297630 116.9618690
  16.9516130  38.0939890 118.4520670  26.2811310  48.2058510 119.7828710
  25.8041870  49.0130700 119.5901320  25.5973100  47.5536840 119.9354920
  17.2844130  44.3708330 122.7713410  16.3872660  44.5948300 123.0186810
  17.3097000  44.4943270 121.8224810  24.3249350  41.2201450 108.6854670
  24.7642630  40.3823880 108.5392490  25.0377770  41.8530850 108.7718810
  16.1115350  41.2421650 121.3470780  15.9723120  42.1144450 121.7158180
  15.2296710  40.8994460 121.2018720  22.4344730  46.1597520 112.6535910
  22.8740640  46.9021850 112.2391300  22.3731620  46.4024090 113.5774870
  17.9095700  47.1843350 123.5555930  17.8811130  47.5886300 122.6884360
  17.7460670  46.2553710 123.3927530  27.9066490  32.4744260 106.9995710
  27.5939150  32.5671090 107.8994780  28.6678960  33.0525290 106.9493140
  14.4248630  39.8404060 111.4573050  14.3046230  40.5666150 110.8454320
  14.1149520  39.0706970 110.9800960  29.8610520  47.9670450 124.8520100
  30.3370240  48.4453340 125.5309180  30.4817680  47.8987940 124.1265600
  12.0634000  43.0119200 117.2641690  12.1414420  43.1467970 116.3197410
  12.6775680  42.3035090 117.4569810  13.3081630  44.7119390 113.6747870
  12.9009710  44.8533980 112.8201470  14.1994640  44.4279550 113.4719080
  29.2643770  45.1583300 122.0120110  29.3906830  44.9195180 121.0937290
  29.3065150  44.3267840 122.4842190  23.1260510  48.8611300 120.5814920
  23.6405180  48.7719310 121.3837350  22.2829590  49.2071000 120.8742830
  25.1014910  49.1466640 110.0098920  24.9416050  48.8569580 110.9080750
  24.9361620  48.3706770 109.4744150  17.5803290  48.9265170 111.7870540
  17.4045770  48.0100710 111.5738340  16.7259030  49.2852460 112.0268340
  24.8041040  46.6554200 108.5696920  24.1106200  46.6531490 107.9099200
  25.5463900  46.2313520 108.1391090  24.3690970  48.2816910 112.6445410
  24.8247920  47.5006290 112.9584030  24.7083490  48.9923730 113.1886590
  29.1167780  37.2115760 122.9769850  28.5012050  37.7195430 122.4485310
  28.7964200  36.3114090 122.9195790  12.1193520  44.0533370 119.8036150
  12.2824560  43.5838730 118.9855520  12.5845970  43.5456930 120.4684990
  16.8912290  33.1839130 114.8396720  16.4480440  33.9648670 114.5081240
  17.4497280  33.5069020 115.5467660  21.1782100  36.0507650 120.4432040
  20.7161470  36.2590670 121.2551980  20.7760210  35.2367000 120.1402710
  26.1786610  37.2716600 121.5728700  25.3280200  36.9722350 121.8937770
  26.0188400  37.5158610 120.6612520  23.2736320  38.7718350 123.6727490
  23.5989730  37.9382100 123.3329720  24.0616650  39.2946870 123.8205820
  20.0071110  32.8049830 109.7202550  19.3825290  32.8009700 110.4455860
  19.9201230  31.9380790 109.3238520  18.9288190  33.7286460 116.6986320
  19.2260520  34.6349290 116.6178340  19.4773750  33.2405240 116.0845890
  16.6826510  38.3072700 112.5677970  16.4567430  38.0909870 113.4724590
  15.9019040  38.7401160 112.2223940  23.9124270  38.3136070 111.1668620
  23.3133160  39.0371870 110.9832240  24.4603880  38.2512850 110.3845070
  19.1225720  39.2058280 123.2338240  19.0269320  38.2653010 123.0838640
  19.9657700  39.4273350 122.8386310  22.5189140  36.9499610 113.1971900
  22.9118710  37.2671810 112.3840590  22.8805990  36.0711490 113.3116420
  14.2536260  35.6171950 121.3872020  13.8599650  36.4647160 121.5944800
  13.5654660  34.9798320 121.5780660  20.8281310  35.7006920 124.4568760
  20.1379630  35.5079120 125.0914850  21.5713610  35.9841560 124.9893060
  11.5553310  33.5400410 115.4202100  11.2666360  34.1103270 116.1327080
  12.2999070  33.0604860 115.7833330  11.7423540  37.4820530 106.6304820
  11.6598210  38.4251290 106.7719810  11.3906600  37.3395440 105.7517170
  23.1044280  39.5405360 117.2922680  22.3725400  40.0492170 117.6412780
  22.7068620  38.7235340 116.9911460  19.5421670  36.2159560 115.6975170
  19.5457730  35.7749510 114.8479710  20.4372790  36.5376890 115.8046990
  15.3924050  36.0986050 114.6569380  15.0524100  36.5761280 115.4136430
  14.6301370  35.6451170 114.2970480  19.6041820  37.2171640 108.6881930
  19.7254640  37.1758120 109.6367750  19.2190330  38.0795790 108.5328660
  23.5670190  34.9939040 116.7045620  23.5842930  35.4447690 117.5487470
  23.3185770  34.0944680 116.9179060  18.6163320  39.5272780 108.0865230
  18.0480220  39.0791030 107.4601140  19.3252320  39.8865560 107.5530380
  26.9940940  32.4071220 122.5432000  27.3186710  31.6760880 123.0689980
  27.0297450  32.0884860 121.6412990  13.6932500  43.4284800 121.9631960
  13.3087290  42.7878470 122.5614920  14.0044690  44.1320920 122.5326690
  19.8429640  40.2761340 117.4440580  20.2099770  39.8019910 118.1901920
  19.6534700  41.1502910 117.7848920  12.7070130  35.0205030 113.5734050
  12.4217050  34.6560700 114.4112670  12.6448990  34.2885490 112.9597190
  17.6329010  39.3169980 119.7624790  17.3286080  40.1961960 119.9875150
  18.5875470  39.3769770 119.7982230  16.1610800  43.5230970 110.3591640
  15.3873060  42.9828590 110.1990360  16.8905430  43.0037580 110.0209400
  26.9198780  42.5196330 116.1518030  27.6397900  43.0151620 115.7614140
  26.7180600  41.8414220 115.5071900  22.3808720  33.9134290 110.2947420
  21.5673330  33.4147460 110.2192730  22.1870670  34.7532540 109.8783770
  22.3017580  42.5905390 122.0387030  22.2354890  41.6701060 121.7844620
  21.6722720  42.6880830 122.7531670  25.0957110  38.2853940 108.5909580
  25.9836730  38.5971170 108.4160920  25.0662200  37.4126190 108.1990160
  16.2048200  43.1911350 113.9970450  16.7226870  42.3879610 113.9427340
  15.7532220  43.1290490 114.8387280  21.0917700  44.4577630 109.2697750
  21.4333400  45.2019860 108.7741070  20.2630410  44.7708750 109.6322580
  13.6892740  40.1572720 120.9096150  13.3307680  40.8226570 121.4969490
  13.3947300  39.3256270 121.2808770  16.8905860  40.6156960 123.7935700
  16.5906000  40.7614140 122.8963520  17.6617100  40.0562250 123.7009090
  22.2334310  45.4125960 121.7890830  22.2478850  44.4806920 121.5709740
  21.5259410  45.4985720 122.4280600  27.3671380  39.5965780 108.0589440
  27.2835100  40.0280000 107.2085880  28.0865570  40.0564130 108.4916260
  28.4445520  42.0533300 121.1359410  27.7193710  42.6462080 120.9388800
  28.9720980  42.0456840 120.3372780  28.3958630  46.4508040 110.7871570
  27.7534790  45.7963660 111.0615290  28.0089290  46.8563130 110.0112240
  23.9745110  43.7793470 114.6343260  24.3268930  43.1821600 113.9744630
  23.0907440  43.4537700 114.8051510  20.0608390  44.5391160 112.0413670
  20.7479520  45.0860370 112.4221260  19.2740810  45.0831890 112.0763280
  12.2000790  40.1563980 107.5330750  13.0695640  40.4388780 107.8166670
  11.7091110  40.9699850 107.4179560  19.3635600  41.5437190 111.6539030
  19.8198380  42.3542440 111.8799220  19.0123810  41.2260330 112.4857520
  21.6668210  47.0543530 118.8831330  22.3110430  47.2602910 119.5604750
  22.0297650  46.2931930 118.4302180  15.2647380  31.8874840 112.1261550
  15.1362010  31.8792740 113.0746470  14.4409400  32.2257930 111.7752560
  22.9400290  45.0575880 117.6008780  23.5822520  44.3569040 117.7140950
  23.4649640  45.8374320 117.4205670  26.7856010  45.3424500 107.3247920
  26.5593590  44.6254940 107.9172560  26.3952210  45.0936940 106.4869670
  24.7137910  45.8570780 120.8044840  25.0494150  46.4437470 121.4822760
  23.7938250  45.7263490 121.0342630  12.5672040  49.3691360 108.0992380
  12.9269680  49.9680700 107.4449650  12.4264380  49.9151250 108.8727410
  12.2641310  33.6465960 121.5868250  11.5499830  33.8462880 122.1920860
  12.6836350  32.8705530 121.9583050  26.3672260  43.2596440 108.9862080
  26.0793960  43.7209130 109.7739960  27.1624430  42.7994210 109.2546300
  12.5513900  47.6346220 122.5734780  12.6605020  46.6940960 122.4330170
  11.8994460  47.9000970 121.9248510  20.5426490  45.9062110 123.9732900
  20.2223360  45.1871350 124.5178590  19.8684850  46.5817180 124.0468960
  18.5840660  46.7522560 108.9166050  18.5750760  47.4852250 108.3010560
  17.6639020  46.5054140 109.0093010  14.1847300  41.9737450 109.6612810
  13.5775250  42.7136350 109.6708110  14.6596650  42.0636810 108.8351010
  23.7580090  36.1388270 119.3369700  24.1260910  35.3183480 119.6649270
  22.8978290  36.1990160 119.7525350  27.1242120  35.0945210 110.1457260
  26.4955280  35.1990880 109.4315490  26.6294040  35.3141990 110.9351140
  21.5700260  46.8150800 107.5791240  21.6712240  46.6114790 106.6493220
  20.6702000  46.5609080 107.7839020  19.0926150  37.3731160 111.5615140
  18.3842300  37.8417500 112.0028750  19.3770630  36.7153170 112.1960330
  20.7182080  38.7927860 119.5607670  21.2167330  39.2673680 120.2259520
  20.8605030  37.8691380 119.7677700  23.1241580  34.0981820 113.0010930
  23.0009360  34.1167950 112.0520440  24.0726140  34.1460760 113.1209330
  20.2118370  49.3337120 112.2738910  20.4659870  49.2958510 111.3518280
  19.2630850  49.2070450 112.2667160  17.2961170  35.6816240 108.9365850
  18.1451700  36.1186390 108.8706040  16.9292440  35.9936500 109.7637910
  27.9248940  35.0095820 120.4036060  27.4222540  35.7501220 120.7429870
  28.7405600  35.3979820 120.0872850  26.2170950  40.2529000 113.8497420
  25.2761090  40.2679230 114.0245110  26.5315020  39.4664960 114.2957720
  16.1952590  41.9348600 107.4101380  16.9615860  41.8229960 107.9726810
  16.2727280  41.2386570 106.7578150  14.8899350  39.3673670 108.0934270
  14.9702940  38.4201180 108.2051670  15.7819100  39.6980550 108.1994930
  28.2196530  47.4237850 115.5251680  28.3443950  48.2469020 115.9975490
  29.0862090  47.2128580 115.1775830  15.6914060  49.5169060 115.1968810
  16.4276540  48.9684520 115.4677380  16.0754980  50.3825070 115.0574800
  12.5759540  45.5842630 111.0710320  11.6499320  45.8263770 111.0615730
  13.0415970  46.4116890 110.9495070  14.6972340  48.7015130 124.3854390
  15.4985070  49.0227180 124.7989790  14.1824160  48.3410710 125.1074300
  18.8016370  48.6899370 107.0194380  19.5944980  48.9788200 106.5676170
  18.2820720  48.2591540 106.3406860  23.5336970  44.8095000 124.3329800
  22.9275130  44.8326600 123.5925550  23.2291080  44.0778040 124.8697050
  24.9637340  48.5375290 122.9439210  25.9159090  48.4533310 122.8939450
  24.8165560  49.2017000 123.6173000  12.4170150  41.1888590 123.3290440
  12.9209170  40.6095870 123.9006670  11.6777570  41.4728820 123.8666810
  19.3193770  43.9102780 106.8836730  19.2144410  43.2955130 107.6098110
  19.1517990  43.3868670 106.0999740  19.4708090  42.5959580 122.8625960
  18.7053760  43.1644580 122.7780630  19.6524050  42.3035790 121.9694190
  22.5596500  42.9722810 107.4878720  22.0106600  43.4192110 108.1321460
  23.1815760  42.4672060 108.0116390  26.6131440  44.3264910 123.4200980
  27.3540910  44.6640670 122.9168440  25.8504120  44.4956970 122.8670750
  14.4493230  39.3318180 124.2240510  14.4898570  39.0332050 125.1325740
  15.3038730  39.7325790 124.0648030  18.2271620  41.9313730 109.3844020
  18.6488040  41.7653600 110.2275410  18.3522460  41.1213960 108.8899160
  16.3899040  37.9110280 122.1915000  15.8595500  37.4201230 121.5638340
  17.0587110  38.3394480 121.6572930  20.7399260  40.9551340 106.6321120
  21.2604920  40.2400360 106.2662270  21.3867660  41.5937210 106.9321630
  25.2877100  42.3779740 121.9556190  25.7018120  42.5324820 122.8046610
  24.3528100  42.5034960 122.1181970  25.7599270  39.7175900 123.9595340
  26.3420040  38.9628220 123.8715820  25.9361040  40.2483340 123.1826820
  16.8771340  34.8772650 122.2712290  16.7828210  34.2593400 121.5463160
  16.2968730  35.6038940 122.0442200  19.6432780  33.4345890 119.3039680
  19.1950080  33.4570150 118.4585230  19.0097980  33.0364910 119.9009980
  20.0492330  42.3300220 119.9252120  20.4680440  43.1732950 119.7528360
  19.1300960  42.4672260 119.6958900  22.3856230  40.0616400 121.3089960
  22.5052440  39.4657540 122.0484800  23.2450230  40.0986090 120.8891260
  24.7244130  40.6153590 119.8852470  24.1979350  41.1396210 119.2817610
  25.0675470  41.2480980 120.5162200  17.1230520  38.0046960 106.3302180
  16.9219580  37.1414320 106.6915520  16.9522570  37.9180320 105.3923780
  17.8999750  48.6353230 121.0409850  17.3620840  49.3599290 120.7218550
  18.1533710  48.1583570 120.2507190  19.1525000  36.6037750 122.5665780
  19.7424690  36.2953600 123.2543600  18.3345240  36.1317500 122.7225680
  23.9718430  36.2203560 122.7998800  23.2833950  35.5585100 122.7348790
  24.6924450  35.7741830 123.2447260  24.6018830  32.8155190 108.8589060
  24.8821120  31.9723090 109.2148480  23.8284560  33.0478300 109.3727810
  15.9213320  35.1047580 106.3180060  16.2239220  35.1115010 105.4099210
  16.6607910  34.7545440 106.8147720  20.7561960  49.8704440 121.2996500
  20.6820660  50.7739580 121.6068870  19.8540800  49.5516340 121.2718570
  19.1398250  34.0482200 107.3036260  18.7920250  33.3706190 106.7238710
  19.3411020  33.5871710 108.1179650  21.3047290  49.0362950 108.9222860
  22.1998080  49.3747920 108.9441620  21.3364920  48.3142360 108.2947140
  14.9443450  44.4090000 107.1509860  15.3818320  44.9519670 107.8067440
  15.4291180  43.5836950 107.1606200  12.1589250  47.1979030 114.6030120
  12.4892260  46.3300090 114.3708760  12.5880250  47.4037550 115.4335080
  16.7551170  45.5288040 112.2632090  16.4546710  45.4053010 113.1636000
  16.6488660  44.6696630 111.8547820  12.6479460  48.0649620 117.3411750
  12.2110450  48.2450420 118.1735900  13.2157140  48.8224240 117.1993470
  28.2841640  47.5666620 121.6289060  27.6843630  47.6259180 120.8852980
  28.4135540  46.6271600 121.7585910  29.5243090  45.3084440 106.9658770
  28.6936050  45.3761090 107.4366000  29.7014920  46.1988560 106.6625630
  28.9799550  42.0531920 109.4692970  29.7418460  42.6228570 109.5752660
  28.9953920  41.4859120 110.2401280  12.4803890  40.5769850 113.7000630
  11.8252730  40.3081490 113.0560330  13.3181840  40.4674330 113.2502610
  29.9859520  42.9082020 114.3134900  30.3568350  42.1249340 113.9070870
  30.6261450  43.5971120 114.1352200  26.9693280  44.2918600 119.7265220
  26.1553120  44.7215760 119.9891010  27.3767480  44.9037010 119.1134270
  29.0318720  42.3466290 106.6265490  29.3067560  43.2545170 106.4984710
  28.8429460  42.2828820 107.5627480  25.4294330  35.3711140 107.9219120
  25.8479210  35.1842120 107.0815780  25.1230390  34.5190190 108.2322050
  28.9284060  40.2835280 111.6194920  28.5527660  39.5163210 111.1876210
  28.1987180  40.6657980 112.1069850  13.5179820  40.9622420 118.2403970
  13.8852860  40.8749820 119.1199990  12.9490640  40.1988970 118.1410830
  28.3183680  39.4306800 121.2534440  28.0869770  39.2019550 120.3532390
  28.5788230  40.3506350 121.2079330  13.0695820  37.8731510 122.1462390
  12.1751870  37.8398270 122.4856100  13.6093370  38.0718300 122.9113640
  26.7571750  34.6563230 124.0314140  27.6341930  34.6646630 124.4148140
  26.7692590  33.9194070 123.4206490  11.6941970  37.7868780 109.6425960
  10.7906050  38.0498980 109.4677620  12.1782590  38.0579950 108.8625920
  28.2035020  38.5092770 114.9202160  28.7272500  38.0155420 114.2892330
  28.7894440  38.6443130 115.6649730  28.3824740  38.5932640 118.4421710
  27.4327450  38.5596180 118.5566700  28.5637750  39.5032750 118.2071480
  14.2369180  36.8434320 107.5520340  14.9460880  36.4217540 107.0667620
  13.5209120  36.9109550 106.9203690  13.8843340  32.8973650 106.5922990
  14.6071470  33.4382590 106.9104210  14.1567860  32.6237070 105.7164530
  27.6934990  37.7666120 110.8594570  28.1894110  37.5336990 111.6443450
  27.4951060  36.9277960 110.4432210  13.5735530  32.1479840 116.4945610
  14.2211720  31.5977220 116.0540770  13.9937370  32.4022990 117.3161420
  29.1222150  36.4027070 113.3932250  29.0121430  36.2483110 114.3314520
  29.8829740  35.8748010 113.1507660  27.4687870  32.3421200 119.8515250
  28.1060090  32.9555340 120.2174440  27.6162760  32.3781860 118.9064480
  30.0112420  34.2334990 106.6338390  30.9361730  34.1016170 106.4256680
  29.9888210  34.3127810 107.5874840  30.0850910  35.0045650 109.2595100
  29.2902410  34.9390770 109.7888010  30.2894190  35.9396290 109.2480450
  27.0269330  49.0437200 113.2533490  27.6228400  48.7221770 112.5767910
  27.2847480  48.5709020 114.0446760  13.3267530  32.3035510 119.2370930
  12.9782350  32.7599330 120.0029110  12.9955230  31.4092640 119.3193360
  14.9331900  45.4755110 123.4024120  14.8901530  45.1048020 124.2838580
  15.0642910  46.4132680 123.5425940  18.6337930  47.0314700 119.0033840
  18.3929290  47.2989260 118.1164360  19.5740570  47.2020430 119.0584700
  20.8392350  33.4947390 122.7590350  20.7781240  34.0869220 123.5085760
  21.7792730  33.3873350 122.6140610  23.4766910  33.1517450 122.3982640
  24.0907320  33.4696740 121.7363720  24.0216470  32.6666040 123.0178500
  29.8942090  49.0509080 119.8044480  29.4000370  49.4477950 119.0871610
  29.2855380  48.4258290 120.1981760  13.9988170  31.8311710 122.5121700
  14.5471160  31.6499760 121.7487810  14.0643480  31.0405820 123.0478010
  14.7719930  48.4217360 120.5221900  14.1780250  48.2902060 121.2611940
  14.7643770  47.5855500 120.0564000  24.2174950  31.7149590 118.7251930
  23.3434790  32.0484700 118.5224860  24.1085700  31.2422770 119.5503800
  25.1246930  33.9220460 120.1093650  24.7960290  33.1072220 119.7295380
  26.0729230  33.8790270 119.9859340  27.5781540  49.6932500 117.0831220
  27.1184510  50.4448310 116.7089240  26.9494000  48.9738970 117.0246020
  14.4032160  45.7875740 119.4729940  13.6766220  45.1681030 119.4055890
  14.4641310  46.1816350 118.6028020  18.0077260  48.0020740 116.2579350
  18.5242280  47.3908100 115.7327610  18.6574640  48.5049520 116.7490360
  20.7472760  48.8929230 117.0848330  21.0350570  48.6383530 116.2081340
  21.2595980  48.3406590 117.6753900  21.9649770  32.6319430 117.6644840
  21.1821560  33.1064930 117.9441600  21.6712700  31.7274260 117.5558020
  26.5170840  33.3342530 115.7093930  26.9578930  33.2787630 114.8615530
  26.2478430  34.2500540 115.7804110  28.3809410  32.9657770 113.7202750
  28.3197810  32.0218990 113.5733770  29.1601440  33.0737860 114.2656210
  12.6862160  49.1050130 112.6826700  12.5184200  48.4720810 113.3808590
  11.8196670  49.3109530 112.3320890  13.3090180  32.9366910 110.1858560
  14.0669540  33.0495790 109.6122590  12.8467350  33.7736110 110.1401990
  19.8503990  35.0506180 113.1760870  19.0378500  34.6763070 112.8356750
  20.3545630  34.2951260 113.4782060  24.3528970  31.7148630 114.4143940
  24.9558340  32.2868840 114.8892460  23.6121960  32.2788070 114.1917840
  27.4963570  32.1170190 109.6884220  27.6914200  33.0153640 109.9551650
  26.7093440  31.8857270 110.1817170  14.2924860  47.7983360 110.1276840
  13.7672480  48.1791390 109.4238800  14.2169440  48.4234130 110.8486550
  15.6815330  33.4630960 108.7260530  16.2108090  32.6760760 108.5968480
  16.3143650  34.1422150 108.9596060  17.8753170  33.2006100 111.7805920
  17.2455910  32.4993410 111.9476050  17.3358310  33.9610230 111.5639080
  20.8145120  49.8145330 124.4516530  21.7412430  49.5789600 124.4952490
  20.7995550  50.6417330 123.9702560  18.0008730  32.4790080 124.2158410
  17.7193000  32.9823680 123.4519230  18.3828430  31.6811830 123.8500540
  16.8917830  49.7465740 109.0026090  17.6236650  49.4625020 108.4549980
  17.1511500  49.5079020 109.8925470  16.0532620  45.8630470 109.0072420
  15.4241500  46.3315570 109.5558250  16.1680450  45.0179690 109.4418610
  24.6024190  31.8943660 124.7938880  24.4889640  32.2138270 125.6890400
  25.4193930  32.2956170 124.4976160  27.3822680  49.0415190 124.2757570
  28.1748000  48.5464420 124.0683530  27.6755830  49.7205330 124.8833180
  23.5082340  39.9136130  95.1573620  23.4276390  38.9990740  94.8865330
  23.0946760  40.4103200  94.4513330  21.6400380  41.6915150  97.0382890
  20.8642480  41.2115590  97.3281460  22.2913310  41.0120800  96.8639050
  15.6566210  42.0034960  97.9158650  14.8251090  41.7483670  98.3155160
  16.2647190  42.0745730  98.6516570  25.6607810  46.0975340  95.8182020
  25.1989340  45.3262580  96.1469190  26.4733360  46.1241410  96.3234470
  15.6367470  46.0375050  98.1116670  15.9395510  45.1472790  97.9326890
  16.3811060  46.5945270  97.8838920  14.0658160  36.9636850  91.7001040
  13.1774860  37.3052820  91.5980920  14.3499350  36.7637170  90.8081870
  12.0291170  39.5642500  97.5840740  12.6007280  38.7964700  97.5844380
  12.0292710  39.8631260  96.6747350  21.8871120  48.3833350  95.4386010
  21.2682560  48.8390850  94.8680450  22.7422900  48.5384810  95.0375710
  21.0809370  44.3672340  97.0453050  21.0117650  43.4262280  96.8842180
  21.8429230  44.4573750  97.6175620  13.2716040  34.9726860  99.3709670
  13.0918880  34.0752610  99.6512430  12.8696120  35.5198730 100.0456620
  22.1114540  37.1742720  97.2721980  22.4879360  36.3014600  97.1595650
  22.0134050  37.5101420  96.3812420  16.2419550  35.5468350  92.7339420
  16.3486300  36.4472080  93.0408180  15.3311910  35.4986320  92.4434070
  25.8938660  34.6693160  94.2050320  26.7148280  34.1789730  94.2475800
  25.9272740  35.2590820  94.9582160  13.8902710  37.4687360  97.9792010
  14.5712820  37.7325730  98.5979410  13.5750760  36.6288230  98.3130020
  18.0827280  38.5154720  97.0664600  18.5905500  39.0135690  97.7069620
  18.6140520  37.7389920  96.8903960  16.3663380  33.1553280 101.3328020
  16.3681820  33.6725670 100.5273920  15.5367690  32.6783460 101.3097950
  22.7534470  43.2672590  92.8317920  22.1351740  43.7322040  92.2680640
  23.2657720  43.9600070  93.2487430  17.6166230  42.7948460  99.5101520
  17.2835610  43.4217380 100.1522590  17.7932910  43.3210340  98.7303190
  26.1300140  36.6093540  96.9777860  25.4255710  36.8978430  97.5580970
  26.4912300  37.4193650  96.6177420  16.0478710  34.8663240  99.3398470
  16.3895520  35.7105290  99.0452340  15.1094520  35.0146980  99.4563810
  16.8285330  44.7629260 101.3250700  17.4459330  45.4380340 101.0435150
  15.9678450  45.1717240 101.2338200  12.1217670  43.9529120  90.2057550
  11.7445650  44.4416220  89.4742450  12.3790740  44.6254400  90.8364080
  27.7462920  46.2268670  99.2405340  27.0626440  46.8967780  99.2322010
  28.2857210  46.4249320  98.4750200  19.7306600  32.3545510  95.6643060
  20.0381580  31.7992400  94.9478560  18.8007300  32.4889970  95.4816050
  25.2821660  48.0712800  97.9550520  25.2948820  47.6675090  97.0872780
  24.7296880  48.8460090  97.8511950  26.5767080  44.7929020  93.0440690
  26.4663410  43.8503350  93.1690110  26.5735330  45.1544660  93.9303450
  24.6807100  42.9742640  99.2833130  25.0975890  42.7602750  98.4486590
  25.4046920  43.2315430  99.8541750  22.1187360  40.4194340  92.4003180
  21.1916640  40.3531720  92.6291650  22.2712180  41.3574470  92.2858420
  22.1056440  36.6911340  89.3970340  21.1660110  36.8525300  89.4822800
  22.4239700  37.4097020  88.8506330  26.1484650  41.9814640  92.9038430
  25.5297070  41.6434190  92.2564730  26.1309100  41.3374400  93.6117620
  25.5911210  38.1599180 100.3204240  25.1782390  38.9852890 100.5744230
  24.8587160  37.5744220 100.1280600  17.7244000  40.9459080  95.1822910
  17.3201000  40.2336330  94.6868810  17.8107120  40.6012320  96.0710950
  18.1925700  44.6326640  97.3462120  17.8953990  44.0272110  96.6669900
  19.1425520  44.6703950  97.2351480  16.4372620  37.7202290  98.9621950
  16.9887210  37.8297630  98.1875200  16.9516130  38.0939890  99.6777180
  26.2811310  48.2058510 101.0085220  25.8041870  49.0130700 100.8157830
  25.5973100  47.5536840 101.1611430  17.2844130  44.3708330 103.9969920
  16.3872660  44.5948300 104.2443320  17.3097000  44.4943270 103.0481320
  24.3249350  41.2201450  89.9111180  24.7642630  40.3823880  89.7649000
  25.0377770  41.8530850  89.9975320  16.1115350  41.2421650 102.5727290
  15.9723120  42.1144450 102.9414690  15.2296710  40.8994460 102.4275230
  22.4344730  46.1597520  93.8792420  22.8740640  46.9021850  93.4647810
  22.3731620  46.4024090  94.8031380  17.9095700  47.1843350 104.7812440
  17.8811130  47.5886300 103.9140870  17.7460670  46.2553710 104.6184040
  27.9066490  32.4744260  88.2252220  27.5939150  32.5671090  89.1251290
  28.6678960  33.0525290  88.1749650  14.4248630  39.8404060  92.6829560
  14.3046230  40.5666150  92.0710830  14.1149520  39.0706970  92.2057470
  12.0634000  43.0119200  98.4898200  12.1414420  43.1467970  97.5453920
  12.6775680  42.3035090  98.6826320  13.3081630  44.7119390  94.9004380
  12.9009710  44.8533980  94.0457980  14.1994640  44.4279550  94.6975590
  23.1260510  48.8611300 101.8071430  23.6405180  48.7719310 102.6093860
  22.2829590  49.2071000 102.0999340  25.1014910  49.1466640  91.2355430
  24.9416050  48.8569580  92.1337260  24.9361620  48.3706770  90.7000660
  17.5803290  48.9265170  93.0127050  17.4045770  48.0100710  92.7994850
  16.7259030  49.2852460  93.2524850  24.8041040  46.6554200  89.7953430
  24.1106200  46.6531490  89.1355710  25.5463900  46.2313520  89.3647600
  24.3690970  48.2816910  93.8701920  24.8247920  47.5006290  94.1840540
  24.7083490  48.9923730  94.4143100  29.1167780  37.2115760 104.2026360
  28.5012050  37.7195430 103.6741820  28.7964200  36.3114090 104.1452300
  12.1193520  44.0533370 101.0292660  12.2824560  43.5838730 100.2112030
  12.5845970  43.5456930 101.6941500  16.8912290  33.1839130  96.0653230
  16.4480440  33.9648670  95.7337750  17.4497280  33.5069020  96.7724170
  21.1782100  36.0507650 101.6688550  20.7161470  36.2590670 102.4808490
  20.7760210  35.2367000 101.3659220  26.1786610  37.2716600 102.7985210
  25.3280200  36.9722350 103.1194280  26.0188400  37.5158610 101.8869030
  23.2736320  38.7718350 104.8984000  23.5989730  37.9382100 104.5586230
  24.0616650  39.2946870 105.0462330  20.0071110  32.8049830  90.9459060
  19.3825290  32.8009700  91.6712370  19.9201230  31.9380790  90.5495030
  18.9288190  33.7286460  97.9242830  19.2260520  34.6349290  97.8434850
  19.4773750  33.2405240  97.3102400  16.6826510  38.3072700  93.7934480
  16.4567430  38.0909870  94.6981100  15.9019040  38.7401160  93.4480450
  23.9124270  38.3136070  92.3925130  23.3133160  39.0371870  92.2088750
  24.4603880  38.2512850  91.6101580  19.1225720  39.2058280 104.4594750
  19.0269320  38.2653010 104.3095150  19.9657700  39.4273350 104.0642820
  22.5189140  36.9499610  94.4228410  22.9118710  37.2671810  93.6097100
  22.8805990  36.0711490  94.5372930  14.2536260  35.6171950 102.6128530
  13.8599650  36.4647160 102.8201310  13.5654660  34.9798320 102.8037170
  20.8281310  35.7006920 105.6825270  20.1379630  35.5079120 106.3171360
  21.5713610  35.9841560 106.2149570  11.5553310  33.5400410  96.6458610
  11.2666360  34.1103270  97.3583590  12.2999070  33.0604860  97.0089840
  11.7423540  37.4820530  87.8561330  11.6598210  38.4251290  87.9976320
  11.3906600  37.3395440  86.9773680  23.1044280  39.5405360  98.5179190
  22.3725400  40.0492170  98.8669290  22.7068620  38.7235340  98.2167970
  19.5421670  36.2159560  96.9231680  19.5457730  35.7749510  96.0736220
  20.4372790  36.5376890  97.0303500  15.3924050  36.0986050  95.8825890
  15.0524100  36.5761280  96.6392940  14.6301370  35.6451170  95.5226990
  19.6041820  37.2171640  89.9138440  19.7254640  37.1758120  90.8624260
  19.2190330  38.0795790  89.7585170  23.5670190  34.9939040  97.9302130
  23.5842930  35.4447690  98.7743980  23.3185770  34.0944680  98.1435570
  18.6163320  39.5272780  89.3121740  18.0480220  39.0791030  88.6857650
  19.3252320  39.8865560  88.7786890  26.9940940  32.4071220 103.7688510
  27.3186710  31.6760880 104.2946490  27.0297450  32.0884860 102.8669500
  13.6932500  43.4284800 103.1888470  13.3087290  42.7878470 103.7871430
  14.0044690  44.1320920 103.7583200  19.8429640  40.2761340  98.6697090
  20.2099770  39.8019910  99.4158430  19.6534700  41.1502910  99.0105430
  12.7070130  35.0205030  94.7990560  12.4217050  34.6560700  95.6369180
  12.6448990  34.2885490  94.1853700  17.6329010  39.3169980 100.9881300
  17.3286080  40.1961960 101.2131660  18.5875470  39.3769770 101.0238740
  16.1610800  43.5230970  91.5848150  15.3873060  42.9828590  91.4246870
  16.8905430  43.0037580  91.2465910  26.9198780  42.5196330  97.3774540
  27.6397900  43.0151620  96.9870650  26.7180600  41.8414220  96.7328410
  22.3808720  33.9134290  91.5203930  21.5673330  33.4147460  91.4449240
  22.1870670  34.7532540  91.1040280  22.3017580  42.5905390 103.2643540
  22.2354890  41.6701060 103.0101130  21.6722720  42.6880830 103.9788180
  25.0957110  38.2853940  89.8166090  25.9836730  38.5971170  89.6417430
  25.0662200  37.4126190  89.4246670  16.2048200  43.1911350  95.2226960
  16.7226870  42.3879610  95.1683850  15.7532220  43.1290490  96.0643790
  21.0917700  44.4577630  90.4954260  21.4333400  45.2019860  89.9997580
  20.2630410  44.7708750  90.8579090  13.6892740  40.1572720 102.1352660
  13.3307680  40.8226570 102.7226000  13.3947300  39.3256270 102.5065280
  16.8905860  40.6156960 105.0192210  16.5906000  40.7614140 104.1220030
  17.6617100  40.0562250 104.9265600  22.2334310  45.4125960 103.0147340
  22.2478850  44.4806920 102.7966250  21.5259410  45.4985720 103.6537110
  27.3671380  39.5965780  89.2845950  27.2835100  40.0280000  88.4342390
  28.0865570  40.0564130  89.7172770  28.3958630  46.4508040  92.0128080
  27.7534790  45.7963660  92.2871800  28.0089290  46.8563130  91.2368750
  23.9745110  43.7793470  95.8599770  24.3268930  43.1821600  95.2001140
  23.0907440  43.4537700  96.0308020  20.0608390  44.5391160  93.2670180
  20.7479520  45.0860370  93.6477770  19.2740810  45.0831890  93.3019790
  12.2000790  40.1563980  88.7587260  13.0695640  40.4388780  89.0423180
  11.7091110  40.9699850  88.6436070  19.3635600  41.5437190  92.8795540
  19.8198380  42.3542440  93.1055730  19.0123810  41.2260330  93.7114030
  21.6668210  47.0543530 100.1087840  22.3110430  47.2602910 100.7861260
  22.0297650  46.2931930  99.6558690  15.2647380  31.8874840  93.3518060
  15.1362010  31.8792740  94.3002980  14.4409400  32.2257930  93.0009070
  22.9400290  45.0575880  98.8265290  23.5822520  44.3569040  98.9397460
  23.4649640  45.8374320  98.6462180  26.7856010  45.3424500  88.5504430
  26.5593590  44.6254940  89.1429070  26.3952210  45.0936940  87.7126180
  24.7137910  45.8570780 102.0301350  25.0494150  46.4437470 102.7079270
  23.7938250  45.7263490 102.2599140  12.5672040  49.3691360  89.3248890
  12.9269680  49.9680700  88.6706160  12.4264380  49.9151250  90.0983920
  12.2641310  33.6465960 102.8124760  11.5499830  33.8462880 103.4177370
  12.6836350  32.8705530 103.1839560  26.3672260  43.2596440  90.2118590
  26.0793960  43.7209130  90.9996470  27.1624430  42.7994210  90.4802810
  12.5513900  47.6346220 103.7991290  12.6605020  46.6940960 103.6586680
  11.8994460  47.9000970 103.1505020  20.5426490  45.9062110 105.1989410
  20.2223360  45.1871350 105.7435100  19.8684850  46.5817180 105.2725470
  18.5840660  46.7522560  90.1422560  18.5750760  47.4852250  89.5267070
  17.6639020  46.5054140  90.2349520  14.1847300  41.9737450  90.8869320
  13.5775250  42.7136350  90.8964620  14.6596650  42.0636810  90.0607520
  23.7580090  36.1388270 100.5626210  24.1260910  35.3183480 100.8905780
  22.8978290  36.1990160 100.9781860  27.1242120  35.0945210  91.3713770
  26.4955280  35.1990880  90.6572000  26.6294040  35.3141990  92.1607650
  21.5700260  46.8150800  88.8047750  21.6712240  46.6114790  87.8749730
  20.6702000  46.5609080  89.0095530  19.0926150  37.3731160  92.7871650
  18.3842300  37.8417500  93.2285260  19.3770630  36.7153170  93.4216840
  20.7182080  38.7927860 100.7864180  21.2167330  39.2673680 101.4516030
  20.8605030  37.8691380 100.9934210  23.1241580  34.0981820  94.2267440
  23.0009360  34.1167950  93.2776950  24.0726140  34.1460760  94.3465840
  20.2118370  49.3337120  93.4995420  20.4659870  49.2958510  92.5774790
  19.2630850  49.2070450  93.4923670  17.2961170  35.6816240  90.1622360
  18.1451700  36.1186390  90.0962550  16.9292440  35.9936500  90.9894420
  27.9248940  35.0095820 101.6292570  27.4222540  35.7501220 101.9686380
  28.7405600  35.3979820 101.3129360  26.2170950  40.2529000  95.0753930
  25.2761090  40.2679230  95.2501620  26.5315020  39.4664960  95.5214230
  16.1952590  41.9348600  88.6357890  16.9615860  41.8229960  89.1983320
  16.2727280  41.2386570  87.9834660  14.8899350  39.3673670  89.3190780
  14.9702940  38.4201180  89.4308180  15.7819100  39.6980550  89.4251440
  28.2196530  47.4237850  96.7508190  28.3443950  48.2469020  97.2232000
  29.0862090  47.2128580  96.4032340  15.6914060  49.5169060  96.4225320
  16.4276540  48.9684520  96.6933890  16.0754980  50.3825070  96.2831310
  12.5759540  45.5842630  92.2966830  11.6499320  45.8263770  92.2872240
  13.0415970  46.4116890  92.1751580  14.6972340  48.7015130 105.6110900
  15.4985070  49.0227180 106.0246300  14.1824160  48.3410710 106.3330810
  18.8016370  48.6899370  88.2450890  19.5944980  48.9788200  87.7932680
  18.2820720  48.2591540  87.5663370  23.5336970  44.8095000 105.5586310
  22.9275130  44.8326600 104.8182060  23.2291080  44.0778040 106.0953560
  24.9637340  48.5375290 104.1695720  25.9159090  48.4533310 104.1195960
  24.8165560  49.2017000 104.8429510  27.8546540  47.9169500  89.6687630
  27.5688050  47.5034640  88.8541810  27.6566090  48.8457210  89.5488150
  12.4170150  41.1888590 104.5546950  12.9209170  40.6095870 105.1263180
  11.6777570  41.4728820 105.0923320  19.3193770  43.9102780  88.1093240
  19.2144410  43.2955130  88.8354620  19.1517990  43.3868670  87.3256250
  19.4708090  42.5959580 104.0882470  18.7053760  43.1644580 104.0037140
  19.6524050  42.3035790 103.1950700  22.5596500  42.9722810  88.7135230
  22.0106600  43.4192110  89.3577970  23.1815760  42.4672060  89.2372900
  26.6131440  44.3264910 104.6457490  27.3540910  44.6640670 104.1424950
  25.8504120  44.4956970 104.0927260  14.4493230  39.3318180 105.4497020
  14.4898570  39.0332050 106.3582250  15.3038730  39.7325790 105.2904540
  18.2271620  41.9313730  90.6100530  18.6488040  41.7653600  91.4531920
  18.3522460  41.1213960  90.1155670  16.3899040  37.9110280 103.4171510
  15.8595500  37.4201230 102.7894850  17.0587110  38.3394480 102.8829440
  20.7399260  40.9551340  87.8577630  21.2604920  40.2400360  87.4918780
  21.3867660  41.5937210  88.1578140  25.2877100  42.3779740 103.1812700
  25.7018120  42.5324820 104.0303120  24.3528100  42.5034960 103.3438480
  25.7599270  39.7175900 105.1851850  26.3420040  38.9628220 105.0972330
  25.9361040  40.2483340 104.4083330  16.8771340  34.8772650 103.4968800
  16.7828210  34.2593400 102.7719670  16.2968730  35.6038940 103.2698710
  19.6432780  33.4345890 100.5296190  19.1950080  33.4570150  99.6841740
  19.0097980  33.0364910 101.1266490  20.0492330  42.3300220 101.1508630
  20.4680440  43.1732950 100.9784870  19.1300960  42.4672260 100.9215410
  22.3856230  40.0616400 102.5346470  22.5052440  39.4657540 103.2741310
  23.2450230  40.0986090 102.1147770  24.7244130  40.6153590 101.1108980
  24.1979350  41.1396210 100.5074120  25.0675470  41.2480980 101.7418710
  17.1230520  38.0046960  87.5558690  16.9219580  37.1414320  87.9172030
  16.9522570  37.9180320  86.6180290  17.8999750  48.6353230 102.2666360
  17.3620840  49.3599290 101.9475060  18.1533710  48.1583570 101.4763700
  19.1525000  36.6037750 103.7922290  19.7424690  36.2953600 104.4800110
  18.3345240  36.1317500 103.9482190  23.9718430  36.2203560 104.0255310
  23.2833950  35.5585100 103.9605300  24.6924450  35.7741830 104.4703770
  24.6018830  32.8155190  90.0845570  24.8821120  31.9723090  90.4404990
  23.8284560  33.0478300  90.5984320  15.9213320  35.1047580  87.5436570
  16.2239220  35.1115010  86.6355720  16.6607910  34.7545440  88.0404230
  20.7561960  49.8704440 102.5253010  20.6820660  50.7739580 102.8325380
  19.8540800  49.5516340 102.4975080  19.1398250  34.0482200  88.5292770
  18.7920250  33.3706190  87.9495220  19.3411020  33.5871710  89.3436160
  21.3047290  49.0362950  90.1479370  22.1998080  49.3747920  90.1698130
  21.3364920  48.3142360  89.5203650  14.9443450  44.4090000  88.3766370
  15.3818320  44.9519670  89.0323950  15.4291180  43.5836950  88.3862710
  12.1589250  47.1979030  95.8286630  12.4892260  46.3300090  95.5965270
  12.5880250  47.4037550  96.6591590  16.7551170  45.5288040  93.4888600
  16.4546710  45.4053010  94.3892510  16.6488660  44.6696630  93.0804330
  12.6479460  48.0649620  98.5668260  12.2110450  48.2450420  99.3992410
  13.2157140  48.8224240  98.4249980  28.2841640  47.5666620 102.8545570
  27.6843630  47.6259180 102.1109490  28.4135540  46.6271600 102.9842420
  12.4803890  40.5769850  94.9257140  11.8252730  40.3081490  94.2816840
  13.3181840  40.4674330  94.4759120  26.9693280  44.2918600 100.9521730
  26.1553120  44.7215760 101.2147520  27.3767480  44.9037010 100.3390780
  25.4294330  35.3711140  89.1475630  25.8479210  35.1842120  88.3072290
  25.1230390  34.5190190  89.4578560  13.5179820  40.9622420  99.4660480
  13.8852860  40.8749820 100.3456500  12.9490640  40.1988970  99.3667340
  28.3183680  39.4306800 102.4790950  28.0869770  39.2019550 101.5788900
  28.5788230  40.3506350 102.4335840  13.0695820  37.8731510 103.3718900
  12.1751870  37.8398270 103.7112610  13.6093370  38.0718300 104.1370150
  26.7571750  34.6563230 105.2570650  27.6341930  34.6646630 105.6404650
  26.7692590  33.9194070 104.6463000  11.6941970  37.7868780  90.8682470
  10.7906050  38.0498980  90.6934130  12.1782590  38.0579950  90.0882430
  14.2369180  36.8434320  88.7776850  14.9460880  36.4217540  88.2924130
  13.5209120  36.9109550  88.1460200  13.8843340  32.8973650  87.8179500
  14.6071470  33.4382590  88.1360720  14.1567860  32.6237070  86.9421040
  27.6934990  37.7666120  92.0851080  28.1894110  37.5336990  92.8699960
  27.4951060  36.9277960  91.6688720  13.5735530  32.1479840  97.7202120
  14.2211720  31.5977220  97.2797280  13.9937370  32.4022990  98.5417930
  27.4687870  32.3421200 101.0771760  28.1060090  32.9555340 101.4430950
  27.6162760  32.3781860 100.1320990  30.0112420  34.2334990  87.8594900
  30.9361730  34.1016170  87.6513190  29.9888210  34.3127810  88.8131350
  30.0850910  35.0045650  90.4851610  29.2902410  34.9390770  91.0144520
  30.2894190  35.9396290  90.4736960  27.0269330  49.0437200  94.4790000
  27.6228400  48.7221770  93.8024420  27.2847480  48.5709020  95.2703270
  13.3267530  32.3035510 100.4627440  12.9782350  32.7599330 101.2285620
  12.9955230  31.4092640 100.5449870  14.9331900  45.4755110 104.6280630
  14.8901530  45.1048020 105.5095090  15.0642910  46.4132680 104.7682450
  18.6337930  47.0314700 100.2290350  18.3929290  47.2989260  99.3420870
  19.5740570  47.2020430 100.2841210  20.8392350  33.4947390 103.9846860
  20.7781240  34.0869220 104.7342270  21.7792730  33.3873350 103.8397120
  23.4766910  33.1517450 103.6239150  24.0907320  33.4696740 102.9620230
  24.0216470  32.6666040 104.2435010  29.8942090  49.0509080 101.0300990
  29.4000370  49.4477950 100.3128120  29.2855380  48.4258290 101.4238270
  13.9988170  31.8311710 103.7378210  14.5471160  31.6499760 102.9744320
  14.0643480  31.0405820 104.2734520  14.7719930  48.4217360 101.7478410
  14.1780250  48.2902060 102.4868450  14.7643770  47.5855500 101.2820510
  24.2174950  31.7149590  99.9508440  23.3434790  32.0484700  99.7481370
  24.1085700  31.2422770 100.7760310  25.1246930  33.9220460 101.3350160
  24.7960290  33.1072220 100.9551890  26.0729230  33.8790270 101.2115850
  14.4032160  45.7875740 100.6986450  13.6766220  45.1681030 100.6312400
  14.4641310  46.1816350  99.8284530  18.0077260  48.0020740  97.4835860
  18.5242280  47.3908100  96.9584120  18.6574640  48.5049520  97.9746870
  20.7472760  48.8929230  98.3104840  21.0350570  48.6383530  97.4337850
  21.2595980  48.3406590  98.9010410  21.9649770  32.6319430  98.8901350
  21.1821560  33.1064930  99.1698110  21.6712700  31.7274260  98.7814530
  26.5170840  33.3342530  96.9350440  26.9578930  33.2787630  96.0872040
  26.2478430  34.2500540  97.0060620  28.3809410  32.9657770  94.9459260
  28.3197810  32.0218990  94.7990280  29.1601440  33.0737860  95.4912720
  12.6862160  49.1050130  93.9083210  12.5184200  48.4720810  94.6065100
  11.8196670  49.3109530  93.5577400  13.3090180  32.9366910  91.4115070
  14.0669540  33.0495790  90.8379100  12.8467350  33.7736110  91.3658500
  19.8503990  35.0506180  94.4017380  19.0378500  34.6763070  94.0613260
  20.3545630  34.2951260  94.7038570  24.3528970  31.7148630  95.6400450
  24.9558340  32.2868840  96.1148970  23.6121960  32.2788070  95.4174350
  27.4963570  32.1170190  90.9140730  27.6914200  33.0153640  91.1808160
  26.7093440  31.8857270  91.4073680  14.2924860  47.7983360  91.3533350
  13.7672480  48.1791390  90.6495310  14.2169440  48.4234130  92.0743060
  15.6815330  33.4630960  89.9517040  16.2108090  32.6760760  89.8224990
  16.3143650  34.1422150  90.1852570  17.8753170  33.2006100  93.0062430
  17.2455910  32.4993410  93.1732560  17.3358310  33.9610230  92.7895590
  20.8145120  49.8145330 105.6773040  21.7412430  49.5789600 105.7209000
  20.7995550  50.6417330 105.1959070  29.0490180  49.3570900  92.6747290
  29.2242370  48.6708640  92.0308210  28.3511750  49.8817950  92.2823960
  18.0008730  32.4790080 105.4414920  17.7193000  32.9823680 104.6775740
  18.3828430  31.6811830 105.0757050  16.8917830  49.7465740  90.2282600
  17.6236650  49.4625020  89.6806490  17.1511500  49.5079020  91.1181980
  16.0532620  45.8630470  90.2328930  15.4241500  46.3315570  90.7814760
  16.1680450  45.0179690  90.6675120  24.6024190  31.8943660 106.0195390
  24.4889640  32.2138270 106.9146910  25.4193930  32.2956170 105.7232670
  23.5082340  39.9136130  76.3830130  23.4276390  38.9990740  76.1121840
  23.0946760  40.4103200  75.6769840  21.6400380  41.6915150  78.2639400
  20.8642480  41.2115590  78.5537970  22.2913310  41.0120800  78.0895560
  15.6566210  42.0034960  79.1415160  14.8251090  41.7483670  79.5411670
  16.2647190  42.0745730  79.8773080  15.6367470  46.0375050  79.3373180
  15.9395510  45.1472790  79.1583400  16.3811060  46.5945270  79.1095430
  14.0658160  36.9636850  72.9257550  13.1774860  37.3052820  72.8237430
  14.3499350  36.7637170  72.0338380  12.0291170  39.5642500  78.8097250
  12.6007280  38.7964700  78.8100890  12.0292710  39.8631260  77.9003860
  21.8871120  48.3833350  76.6642520  21.2682560  48.8390850  76.0936960
  22.7422900  48.5384810  76.2632220  21.0809370  44.3672340  78.2709560
  21.0117650  43.4262280  78.1098690  21.8429230  44.4573750  78.8432130
  13.2716040  34.9726860  80.5966180  13.0918880  34.0752610  80.8768940
  12.8696120  35.5198730  81.2713130  22.1114540  37.1742720  78.4978490
  22.4879360  36.3014600  78.3852160  22.0134050  37.5101420  77.6068930
  16.2419550  35.5468350  73.9595930  16.3486300  36.4472080  74.2664690
  15.3311910  35.4986320  73.6690580  25.8938660  34.6693160  75.4306830
  26.7148280  34.1789730  75.4732310  25.9272740  35.2590820  76.1838670
  13.8902710  37.4687360  79.2048520  14.5712820  37.7325730  79.8235920
  13.5750760  36.6288230  79.5386530  18.0827280  38.5154720  78.2921110
  18.5905500  39.0135690  78.9326130  18.6140520  37.7389920  78.1160470
  16.3663380  33.1553280  82.5584530  16.3681820  33.6725670  81.7530430
  15.5367690  32.6783460  82.5354460  22.7534470  43.2672590  74.0574430
  22.1351740  43.7322040  73.4937150  23.2657720  43.9600070  74.4743940
  17.6166230  42.7948460  80.7358030  17.2835610  43.4217380  81.3779100
  17.7932910  43.3210340  79.9559700  26.1300140  36.6093540  78.2034370
  25.4255710  36.8978430  78.7837480  26.4912300  37.4193650  77.8433930
  16.0478710  34.8663240  80.5654980  16.3895520  35.7105290  80.2708850
  15.1094520  35.0146980  80.6820320  16.8285330  44.7629260  82.5507210
  17.4459330  45.4380340  82.2691660  15.9678450  45.1717240  82.4594710
  12.1217670  43.9529120  71.4314060  11.7445650  44.4416220  70.6998960
  12.3790740  44.6254400  72.0620590  19.7306600  32.3545510  76.8899570
  20.0381580  31.7992400  76.1735070  18.8007300  32.4889970  76.7072560
  22.1187360  40.4194340  73.6259690  21.1916640  40.3531720  73.8548160
  22.2712180  41.3574470  73.5114930  22.1056440  36.6911340  70.6226850
  21.1660110  36.8525300  70.7079310  22.4239700  37.4097020  70.0762840
  17.7244000  40.9459080  76.4079420  17.3201000  40.2336330  75.9125320
  17.8107120  40.6012320  77.2967460  18.1925700  44.6326640  78.5718630
  17.8953990  44.0272110  77.8926410  19.1425520  44.6703950  78.4607990
  16.4372620  37.7202290  80.1878460  16.9887210  37.8297630  79.4131710
  16.9516130  38.0939890  80.9033690  17.2844130  44.3708330  85.2226430
  16.3872660  44.5948300  85.4699830  17.3097000  44.4943270  84.2737830
  16.1115350  41.2421650  83.7983800  15.9723120  42.1144450  84.1671200
  15.2296710  40.8994460  83.6531740  22.4344730  46.1597520  75.1048930
  22.8740640  46.9021850  74.6904320  22.3731620  46.4024090  76.0287890
  17.9095700  47.1843350  86.0068950  17.8811130  47.5886300  85.1397380
  17.7460670  46.2553710  85.8440550  27.9066490  32.4744260  69.4508730
  27.5939150  32.5671090  70.3507800  28.6678960  33.0525290  69.4006160
  14.4248630  39.8404060  73.9086070  14.3046230  40.5666150  73.2967340
  14.1149520  39.0706970  73.4313980  12.0634000  43.0119200  79.7154710
  12.1414420  43.1467970  78.7710430  12.6775680  42.3035090  79.9082830
  13.3081630  44.7119390  76.1260890  12.9009710  44.8533980  75.2714490
  14.1994640  44.4279550  75.9232100  25.1014910  49.1466640  72.4611940
  24.9416050  48.8569580  73.3593770  24.9361620  48.3706770  71.9257170
  17.5803290  48.9265170  74.2383560  17.4045770  48.0100710  74.0251360
  16.7259030  49.2852460  74.4781360  24.3690970  48.2816910  75.0958430
  24.8247920  47.5006290  75.4097050  24.7083490  48.9923730  75.6399610
  29.1167780  37.2115760  85.4282870  28.5012050  37.7195430  84.8998330
  28.7964200  36.3114090  85.3708810  12.1193520  44.0533370  82.2549170
  12.2824560  43.5838730  81.4368540  12.5845970  43.5456930  82.9198010
  16.8912290  33.1839130  77.2909740  16.4480440  33.9648670  76.9594260
  17.4497280  33.5069020  77.9980680  21.1782100  36.0507650  82.8945060
  20.7161470  36.2590670  83.7065000  20.7760210  35.2367000  82.5915730
  23.2736320  38.7718350  86.1240510  23.5989730  37.9382100  85.7842740
  24.0616650  39.2946870  86.2718840  20.0071110  32.8049830  72.1715570
  19.3825290  32.8009700  72.8968880  19.9201230  31.9380790  71.7751540
  18.9288190  33.7286460  79.1499340  19.2260520  34.6349290  79.0691360
  19.4773750  33.2405240  78.5358910  16.6826510  38.3072700  75.0190990
  16.4567430  38.0909870  75.9237610  15.9019040  38.7401160  74.6736960
  23.9124270  38.3136070  73.6181640  23.3133160  39.0371870  73.4345260
  24.4603880  38.2512850  72.8358090  19.1225720  39.2058280  85.6851260
  19.0269320  38.2653010  85.5351660  19.9657700  39.4273350  85.2899330
  22.5189140  36.9499610  75.6484920  22.9118710  37.2671810  74.8353610
  22.8805990  36.0711490  75.7629440  14.2536260  35.6171950  83.8385040
  13.8599650  36.4647160  84.0457820  13.5654660  34.9798320  84.0293680
  20.8281310  35.7006920  86.9081780  20.1379630  35.5079120  87.5427870
  21.5713610  35.9841560  87.4406080  11.5553310  33.5400410  77.8715120
  11.2666360  34.1103270  78.5840100  12.2999070  33.0604860  78.2346350
  11.7423540  37.4820530  69.0817840  11.6598210  38.4251290  69.2232830
  11.3906600  37.3395440  68.2030190  19.5421670  36.2159560  78.1488190
  19.5457730  35.7749510  77.2992730  20.4372790  36.5376890  78.2560010
  15.3924050  36.0986050  77.1082400  15.0524100  36.5761280  77.8649450
  14.6301370  35.6451170  76.7483500  19.6041820  37.2171640  71.1394950
  19.7254640  37.1758120  72.0880770  19.2190330  38.0795790  70.9841680
  23.5670190  34.9939040  79.1558640  23.5842930  35.4447690  80.0000490
  23.3185770  34.0944680  79.3692080  18.6163320  39.5272780  70.5378250
  18.0480220  39.0791030  69.9114160  19.3252320  39.8865560  70.0043400
  26.9940940  32.4071220  84.9945020  27.3186710  31.6760880  85.5203000
  27.0297450  32.0884860  84.0926010  13.6932500  43.4284800  84.4144980
  13.3087290  42.7878470  85.0127940  14.0044690  44.1320920  84.9839710
  19.8429640  40.2761340  79.8953600  20.2099770  39.8019910  80.6414940
  19.6534700  41.1502910  80.2361940  12.7070130  35.0205030  76.0247070
  12.4217050  34.6560700  76.8625690  12.6448990  34.2885490  75.4110210
  17.6329010  39.3169980  82.2137810  17.3286080  40.1961960  82.4388170
  18.5875470  39.3769770  82.2495250  16.1610800  43.5230970  72.8104660
  15.3873060  42.9828590  72.6503380  16.8905430  43.0037580  72.4722420
  22.3808720  33.9134290  72.7460440  21.5673330  33.4147460  72.6705750
  22.1870670  34.7532540  72.3296790  22.3017580  42.5905390  84.4900050
  22.2354890  41.6701060  84.2357640  21.6722720  42.6880830  85.2044690
  25.0957110  38.2853940  71.0422600  25.9836730  38.5971170  70.8673940
  25.0662200  37.4126190  70.6503180  16.2048200  43.1911350  76.4483470
  16.7226870  42.3879610  76.3940360  15.7532220  43.1290490  77.2900300
  21.0917700  44.4577630  71.7210770  21.4333400  45.2019860  71.2254090
  20.2630410  44.7708750  72.0835600  13.6892740  40.1572720  83.3609170
  13.3307680  40.8226570  83.9482510  13.3947300  39.3256270  83.7321790
  16.8905860  40.6156960  86.2448720  16.5906000  40.7614140  85.3476540
  17.6617100  40.0562250  86.1522110  22.2334310  45.4125960  84.2403850
  22.2478850  44.4806920  84.0222760  21.5259410  45.4985720  84.8793620
  27.3671380  39.5965780  70.5102460  27.2835100  40.0280000  69.6598900
  28.0865570  40.0564130  70.9429280  20.0608390  44.5391160  74.4926690
  20.7479520  45.0860370  74.8734280  19.2740810  45.0831890  74.5276300
  12.2000790  40.1563980  69.9843770  13.0695640  40.4388780  70.2679690
  11.7091110  40.9699850  69.8692580  19.3635600  41.5437190  74.1052050
  19.8198380  42.3542440  74.3312240  19.0123810  41.2260330  74.9370540
  21.6668210  47.0543530  81.3344350  22.3110430  47.2602910  82.0117770
  22.0297650  46.2931930  80.8815200  15.2647380  31.8874840  74.5774570
  15.1362010  31.8792740  75.5259490  14.4409400  32.2257930  74.2265580
  12.5672040  49.3691360  70.5505400  12.9269680  49.9680700  69.8962670
  12.4264380  49.9151250  71.3240430  12.2641310  33.6465960  84.0381270
  11.5499830  33.8462880  84.6433880  12.6836350  32.8705530  84.4096070
  12.5513900  47.6346220  85.0247800  12.6605020  46.6940960  84.8843190
  11.8994460  47.9000970  84.3761530  20.5426490  45.9062110  86.4245920
  20.2223360  45.1871350  86.9691610  19.8684850  46.5817180  86.4981980
  18.5840660  46.7522560  71.3679070  18.5750760  47.4852250  70.7523580
  17.6639020  46.5054140  71.4606030  14.1847300  41.9737450  72.1125830
  13.5775250  42.7136350  72.1221130  14.6596650  42.0636810  71.2864030
  27.1242120  35.0945210  72.5970280  26.4955280  35.1990880  71.8828510
  26.6294040  35.3141990  73.3864160  21.5700260  46.8150800  70.0304260
  21.6712240  46.6114790  69.1006240  20.6702000  46.5609080  70.2352040
  19.0926150  37.3731160  74.0128160  18.3842300  37.8417500  74.4541770
  19.3770630  36.7153170  74.6473350  20.7182080  38.7927860  82.0120690
  21.2167330  39.2673680  82.6772540  20.8605030  37.8691380  82.2190720
  23.1241580  34.0981820  75.4523950  23.0009360  34.1167950  74.5033460
  24.0726140  34.1460760  75.5722350  20.2118370  49.3337120  74.7251930
  20.4659870  49.2958510  73.8031300  19.2630850  49.2070450  74.7180180
  17.2961170  35.6816240  71.3878870  18.1451700  36.1186390  71.3219060
  16.9292440  35.9936500  72.2150930  27.9248940  35.0095820  82.8549080
  27.4222540  35.7501220  83.1942890  28.7405600  35.3979820  82.5385870
  26.2170950  40.2529000  76.3010440  25.2761090  40.2679230  76.4758130
  26.5315020  39.4664960  76.7470740  16.1952590  41.9348600  69.8614400
  16.9615860  41.8229960  70.4239830  16.2727280  41.2386570  69.2091170
  14.8899350  39.3673670  70.5447290  14.9702940  38.4201180  70.6564690
  15.7819100  39.6980550  70.6507950  28.2196530  47.4237850  77.9764700
  28.3443950  48.2469020  78.4488510  29.0862090  47.2128580  77.6288850
  15.6914060  49.5169060  77.6481830  16.4276540  48.9684520  77.9190400
  16.0754980  50.3825070  77.5087820  12.5759540  45.5842630  73.5223340
  11.6499320  45.8263770  73.5128750  13.0415970  46.4116890  73.4008090
  14.6972340  48.7015130  86.8367410  15.4985070  49.0227180  87.2502810
  14.1824160  48.3410710  87.5587320  18.8016370  48.6899370  69.4707400
  19.5944980  48.9788200  69.0189190  18.2820720  48.2591540  68.7919880
  23.5336970  44.8095000  86.7842820  22.9275130  44.8326600  86.0438570
  23.2291080  44.0778040  87.3210070  12.4170150  41.1888590  85.7803460
  12.9209170  40.6095870  86.3519690  11.6777570  41.4728820  86.3179830
  19.3193770  43.9102780  69.3349750  19.2144410  43.2955130  70.0611130
  19.1517990  43.3868670  68.5512760  19.4708090  42.5959580  85.3138980
  18.7053760  43.1644580  85.2293650  19.6524050  42.3035790  84.4207210
  26.6131440  44.3264910  85.8714000  27.3540910  44.6640670  85.3681460
  25.8504120  44.4956970  85.3183770  14.4493230  39.3318180  86.6753530
  14.4898570  39.0332050  87.5838760  15.3038730  39.7325790  86.5161050
  18.2271620  41.9313730  71.8357040  18.6488040  41.7653600  72.6788430
  18.3522460  41.1213960  71.3412180  16.3899040  37.9110280  84.6428020
  15.8595500  37.4201230  84.0151360  17.0587110  38.3394480  84.1085950
  20.7399260  40.9551340  69.0834140  21.2604920  40.2400360  68.7175290
  21.3867660  41.5937210  69.3834650  25.7599270  39.7175900  86.4108360
  26.3420040  38.9628220  86.3228840  25.9361040  40.2483340  85.6339840
  16.8771340  34.8772650  84.7225310  16.7828210  34.2593400  83.9976180
  16.2968730  35.6038940  84.4955220  19.6432780  33.4345890  81.7552700
  19.1950080  33.4570150  80.9098250  19.0097980  33.0364910  82.3523000
  20.0492330  42.3300220  82.3765140  20.4680440  43.1732950  82.2041380
  19.1300960  42.4672260  82.1471920  17.1230520  38.0046960  68.7815200
  16.9219580  37.1414320  69.1428540  16.9522570  37.9180320  67.8436800
  17.8999750  48.6353230  83.4922870  17.3620840  49.3599290  83.1731570
  18.1533710  48.1583570  82.7020210  19.1525000  36.6037750  85.0178800
  19.7424690  36.2953600  85.7056620  18.3345240  36.1317500  85.1738700
  23.9718430  36.2203560  85.2511820  23.2833950  35.5585100  85.1861810
  24.6924450  35.7741830  85.6960280  24.6018830  32.8155190  71.3102080
  24.8821120  31.9723090  71.6661500  23.8284560  33.0478300  71.8240830
  15.9213320  35.1047580  68.7693080  16.2239220  35.1115010  67.8612230
  16.6607910  34.7545440  69.2660740  19.1398250  34.0482200  69.7549280
  18.7920250  33.3706190  69.1751730  19.3411020  33.5871710  70.5692670
  21.3047290  49.0362950  71.3735880  22.1998080  49.3747920  71.3954640
  21.3364920  48.3142360  70.7460160  14.9443450  44.4090000  69.6022880
  15.3818320  44.9519670  70.2580460  15.4291180  43.5836950  69.6119220
  12.1589250  47.1979030  77.0543140  12.4892260  46.3300090  76.8221780
  12.5880250  47.4037550  77.8848100  16.7551170  45.5288040  74.7145110
  16.4546710  45.4053010  75.6149020  16.6488660  44.6696630  74.3060840
  12.6479460  48.0649620  79.7924770  12.2110450  48.2450420  80.6248920
  13.2157140  48.8224240  79.6506490  12.4803890  40.5769850  76.1513650
  11.8252730  40.3081490  75.5073350  13.3181840  40.4674330  75.7015630
  29.9859520  42.9082020  76.7647920  30.3568350  42.1249340  76.3583890
  30.6261450  43.5971120  76.5865220  25.4294330  35.3711140  70.3732140
  25.8479210  35.1842120  69.5328800  25.1230390  34.5190190  70.6835070
  13.5179820  40.9622420  80.6916990  13.8852860  40.8749820  81.5713010
  12.9490640  40.1988970  80.5923850  13.0695820  37.8731510  84.5975410
  12.1751870  37.8398270  84.9369120  13.6093370  38.0718300  85.3626660
  26.7571750  34.6563230  86.4827160  27.6341930  34.6646630  86.8661160
  26.7692590  33.9194070  85.8719510  11.6941970  37.7868780  72.0938980
  10.7906050  38.0498980  71.9190640  12.1782590  38.0579950  71.3138940
  14.2369180  36.8434320  70.0033360  14.9460880  36.4217540  69.5180640
  13.5209120  36.9109550  69.3716710  13.8843340  32.8973650  69.0436010
  14.6071470  33.4382590  69.3617230  14.1567860  32.6237070  68.1677550
  13.5735530  32.1479840  78.9458630  14.2211720  31.5977220  78.5053790
  13.9937370  32.4022990  79.7674440  27.4687870  32.3421200  82.3028270
  28.1060090  32.9555340  82.6687460  27.6162760  32.3781860  81.3577500
  30.0112420  34.2334990  69.0851410  30.9361730  34.1016170  68.8769700
  29.9888210  34.3127810  70.0387860  27.0269330  49.0437200  75.7046510
  27.6228400  48.7221770  75.0280930  27.2847480  48.5709020  76.4959780
  13.3267530  32.3035510  81.6883950  12.9782350  32.7599330  82.4542130
  12.9955230  31.4092640  81.7706380  14.9331900  45.4755110  85.8537140
  14.8901530  45.1048020  86.7351600  15.0642910  46.4132680  85.9938960
  18.6337930  47.0314700  81.4546860  18.3929290  47.2989260  80.5677380
  19.5740570  47.2020430  81.5097720  20.8392350  33.4947390  85.2103370
  20.7781240  34.0869220  85.9598780  21.7792730  33.3873350  85.0653630
  23.4766910  33.1517450  84.8495660  24.0907320  33.4696740  84.1876740
  24.0216470  32.6666040  85.4691520  29.8942090  49.0509080  82.2557500
  29.4000370  49.4477950  81.5384630  29.2855380  48.4258290  82.6494780
  13.9988170  31.8311710  84.9634720  14.5471160  31.6499760  84.2000830
  14.0643480  31.0405820  85.4991030  14.7719930  48.4217360  82.9734920
  14.1780250  48.2902060  83.7124960  14.7643770  47.5855500  82.5077020
  24.2174950  31.7149590  81.1764950  23.3434790  32.0484700  80.9737880
  24.1085700  31.2422770  82.0016820  25.1246930  33.9220460  82.5606670
  24.7960290  33.1072220  82.1808400  26.0729230  33.8790270  82.4372360
  27.5781540  49.6932500  79.5344240  27.1184510  50.4448310  79.1602260
  26.9494000  48.9738970  79.4759040  14.4032160  45.7875740  81.9242960
  13.6766220  45.1681030  81.8568910  14.4641310  46.1816350  81.0541040
  18.0077260  48.0020740  78.7092370  18.5242280  47.3908100  78.1840630
  18.6574640  48.5049520  79.2003380  20.7472760  48.8929230  79.5361350
  21.0350570  48.6383530  78.6594360  21.2595980  48.3406590  80.1266920
  21.9649770  32.6319430  80.1157860  21.1821560  33.1064930  80.3954620
  21.6712700  31.7274260  80.0071040  26.5170840  33.3342530  78.1606950
  26.9578930  33.2787630  77.3128550  26.2478430  34.2500540  78.2317130
  28.3809410  32.9657770  76.1715770  28.3197810  32.0218990  76.0246790
  29.1601440  33.0737860  76.7169230  12.6862160  49.1050130  75.1339720
  12.5184200  48.4720810  75.8321610  11.8196670  49.3109530  74.7833910
  13.3090180  32.9366910  72.6371580  14.0669540  33.0495790  72.0635610
  12.8467350  33.7736110  72.5915010  19.8503990  35.0506180  75.6273890
  19.0378500  34.6763070  75.2869770  20.3545630  34.2951260  75.9295080
  24.3528970  31.7148630  76.8656960  24.9558340  32.2868840  77.3405480
  23.6121960  32.2788070  76.6430860  27.4963570  32.1170190  72.1397240
  27.6914200  33.0153640  72.4064670  26.7093440  31.8857270  72.6330190
  14.2924860  47.7983360  72.5789860  13.7672480  48.1791390  71.8751820
  14.2169440  48.4234130  73.2999570  15.6815330  33.4630960  71.1773550
  16.2108090  32.6760760  71.0481500  16.3143650  34.1422150  71.4109080
  17.8753170  33.2006100  74.2318940  17.2455910  32.4993410  74.3989070
  17.3358310  33.9610230  74.0152100  29.0490180  49.3570900  73.9003800
  29.2242370  48.6708640  73.2564720  28.3511750  49.8817950  73.5080470
  18.0008730  32.4790080  86.6671430  17.7193000  32.9823680  85.9032250
  18.3828430  31.6811830  86.3013560  16.8917830  49.7465740  71.4539110
  17.6236650  49.4625020  70.9063000  17.1511500  49.5079020  72.3438490
  16.0532620  45.8630470  71.4585440  15.4241500  46.3315570  72.0071270
  16.1680450  45.0179690  71.8931630  24.6024190  31.8943660  87.2451900
  24.4889640  32.2138270  88.1403420  25.4193930  32.2956170  86.9489180
  27.3822680  49.0415190  86.7270590  28.1748000  48.5464420  86.5196550
  27.6755830  49.7205330  87.3346200  23.5082340  39.9136130  57.6086640
  23.4276390  38.9990740  57.3378350  23.0946760  40.4103200  56.9026350
  21.6400380  41.6915150  59.4895910  20.8642480  41.2115590  59.7794480
  22.2913310  41.0120800  59.3152070  15.6566210  42.0034960  60.3671670
  14.8251090  41.7483670  60.7668180  16.2647190  42.0745730  61.1029590
  15.6367470  46.0375050  60.5629690  15.9395510  45.1472790  60.3839910
  16.3811060  46.5945270  60.3351940  14.0658160  36.9636850  54.1514060
  13.1774860  37.3052820  54.0493940  14.3499350  36.7637170  53.2594890
  12.0291170  39.5642500  60.0353760  12.6007280  38.7964700  60.0357400
  12.0292710  39.8631260  59.1260370  21.8871120  48.3833350  57.8899030
  21.2682560  48.8390850  57.3193470  22.7422900  48.5384810  57.4888730
  21.0809370  44.3672340  59.4966070  21.0117650  43.4262280  59.3355200
  21.8429230  44.4573750  60.0688640  13.2716040  34.9726860  61.8222690
  13.0918880  34.0752610  62.1025450  12.8696120  35.5198730  62.4969640
  22.1114540  37.1742720  59.7235000  22.4879360  36.3014600  59.6108670
  22.0134050  37.5101420  58.8325440  16.2419550  35.5468350  55.1852440
  16.3486300  36.4472080  55.4921200  15.3311910  35.4986320  54.8947090
  25.8938660  34.6693160  56.6563340  26.7148280  34.1789730  56.6988820
  25.9272740  35.2590820  57.4095180  13.8902710  37.4687360  60.4305030
  14.5712820  37.7325730  61.0492430  13.5750760  36.6288230  60.7643040
  18.0827280  38.5154720  59.5177620  18.5905500  39.0135690  60.1582640
  18.6140520  37.7389920  59.3416980  16.3663380  33.1553280  63.7841040
  16.3681820  33.6725670  62.9786940  15.5367690  32.6783460  63.7610970
  22.7534470  43.2672590  55.2830940  22.1351740  43.7322040  54.7193660
  23.2657720  43.9600070  55.7000450  17.6166230  42.7948460  61.9614540
  17.2835610  43.4217380  62.6035610  17.7932910  43.3210340  61.1816210
  26.1300140  36.6093540  59.4290880  25.4255710  36.8978430  60.0093990
  26.4912300  37.4193650  59.0690440  16.0478710  34.8663240  61.7911490
  16.3895520  35.7105290  61.4965360  15.1094520  35.0146980  61.9076830
  16.8285330  44.7629260  63.7763720  17.4459330  45.4380340  63.4948170
  15.9678450  45.1717240  63.6851220  12.1217670  43.9529120  52.6570570
  11.7445650  44.4416220  51.9255470  12.3790740  44.6254400  53.2877100
  29.1987060  36.0548330  59.8200090  28.2511970  36.0887310  59.9515520
  29.5237050  36.8687280  60.2049450  19.7306600  32.3545510  58.1156080
  20.0381580  31.7992400  57.3991580  18.8007300  32.4889970  57.9329070
  25.2821660  48.0712800  60.4063540  25.2948820  47.6675090  59.5385800
  24.7296880  48.8460090  60.3024970  22.1187360  40.4194340  54.8516200
  21.1916640  40.3531720  55.0804670  22.2712180  41.3574470  54.7371440
  22.1056440  36.6911340  51.8483360  21.1660110  36.8525300  51.9335820
  22.4239700  37.4097020  51.3019350  25.5911210  38.1599180  62.7717260
  25.1782390  38.9852890  63.0257250  24.8587160  37.5744220  62.5793620
  17.7244000  40.9459080  57.6335930  17.3201000  40.2336330  57.1381830
  17.8107120  40.6012320  58.5223970  18.1925700  44.6326640  59.7975140
  17.8953990  44.0272110  59.1182920  19.1425520  44.6703950  59.6864500
  16.4372620  37.7202290  61.4134970  16.9887210  37.8297630  60.6388220
  16.9516130  38.0939890  62.1290200  26.2811310  48.2058510  63.4598240
  25.8041870  49.0130700  63.2670850  25.5973100  47.5536840  63.6124450
  17.2844130  44.3708330  66.4482940  16.3872660  44.5948300  66.6956340
  17.3097000  44.4943270  65.4994340  24.3249350  41.2201450  52.3624200
  24.7642630  40.3823880  52.2162020  25.0377770  41.8530850  52.4488340
  16.1115350  41.2421650  65.0240310  15.9723120  42.1144450  65.3927710
  15.2296710  40.8994460  64.8788250  22.4344730  46.1597520  56.3305440
  22.8740640  46.9021850  55.9160830  22.3731620  46.4024090  57.2544400
  17.9095700  47.1843350  67.2325460  17.8811130  47.5886300  66.3653890
  17.7460670  46.2553710  67.0697060  27.9066490  32.4744260  50.6765240
  27.5939150  32.5671090  51.5764310  28.6678960  33.0525290  50.6262670
  14.4248630  39.8404060  55.1342580  14.3046230  40.5666150  54.5223850
  14.1149520  39.0706970  54.6570490  12.0634000  43.0119200  60.9411220
  12.1414420  43.1467970  59.9966940  12.6775680  42.3035090  61.1339340
  13.3081630  44.7119390  57.3517400  12.9009710  44.8533980  56.4971000
  14.1994640  44.4279550  57.1488610  25.1014910  49.1466640  53.6868450
  24.9416050  48.8569580  54.5850280  24.9361620  48.3706770  53.1513680
  17.5803290  48.9265170  55.4640070  17.4045770  48.0100710  55.2507870
  16.7259030  49.2852460  55.7037870  24.8041040  46.6554200  52.2466450
  24.1106200  46.6531490  51.5868730  25.5463900  46.2313520  51.8160620
  24.3690970  48.2816910  56.3214940  24.8247920  47.5006290  56.6353560
  24.7083490  48.9923730  56.8656120  12.1193520  44.0533370  63.4805680
  12.2824560  43.5838730  62.6625050  12.5845970  43.5456930  64.1454520
  16.8912290  33.1839130  58.5166250  16.4480440  33.9648670  58.1850770
  17.4497280  33.5069020  59.2237190  21.1782100  36.0507650  64.1201570
  20.7161470  36.2590670  64.9321510  20.7760210  35.2367000  63.8172240
  26.1786610  37.2716600  65.2498230  25.3280200  36.9722350  65.5707300
  26.0188400  37.5158610  64.3382050  23.2736320  38.7718350  67.3497020
  23.5989730  37.9382100  67.0099250  24.0616650  39.2946870  67.4975350
  20.0071110  32.8049830  53.3972080  19.3825290  32.8009700  54.1225390
  19.9201230  31.9380790  53.0008050  18.9288190  33.7286460  60.3755850
  19.2260520  34.6349290  60.2947870  19.4773750  33.2405240  59.7615420
  16.6826510  38.3072700  56.2447500  16.4567430  38.0909870  57.1494120
  15.9019040  38.7401160  55.8993470  23.9124270  38.3136070  54.8438150
  23.3133160  39.0371870  54.6601770  24.4603880  38.2512850  54.0614600
  19.1225720  39.2058280  66.9107770  19.0269320  38.2653010  66.7608170
  19.9657700  39.4273350  66.5155840  22.5189140  36.9499610  56.8741430
  22.9118710  37.2671810  56.0610120  22.8805990  36.0711490  56.9885950
  14.2536260  35.6171950  65.0641550  13.8599650  36.4647160  65.2714330
  13.5654660  34.9798320  65.2550190  20.8281310  35.7006920  68.1338290
  20.1379630  35.5079120  68.7684380  21.5713610  35.9841560  68.6662590
  11.5553310  33.5400410  59.0971630  11.2666360  34.1103270  59.8096610
  12.2999070  33.0604860  59.4602860  11.7423540  37.4820530  50.3074350
  11.6598210  38.4251290  50.4489340  11.3906600  37.3395440  49.4286700
  23.1044280  39.5405360  60.9692210  22.3725400  40.0492170  61.3182310
  22.7068620  38.7235340  60.6680990  19.5421670  36.2159560  59.3744700
  19.5457730  35.7749510  58.5249240  20.4372790  36.5376890  59.4816520
  15.3924050  36.0986050  58.3338910  15.0524100  36.5761280  59.0905960
  14.6301370  35.6451170  57.9740010  19.6041820  37.2171640  52.3651460
  19.7254640  37.1758120  53.3137280  19.2190330  38.0795790  52.2098190
  23.5670190  34.9939040  60.3815150  23.5842930  35.4447690  61.2257000
  23.3185770  34.0944680  60.5948590  18.6163320  39.5272780  51.7634760
  18.0480220  39.0791030  51.1370670  19.3252320  39.8865560  51.2299910
  26.9940940  32.4071220  66.2201530  27.3186710  31.6760880  66.7459510
  27.0297450  32.0884860  65.3182520  13.6932500  43.4284800  65.6401490
  13.3087290  42.7878470  66.2384450  14.0044690  44.1320920  66.2096220
  19.8429640  40.2761340  61.1210110  20.2099770  39.8019910  61.8671450
  19.6534700  41.1502910  61.4618450  12.7070130  35.0205030  57.2503580
  12.4217050  34.6560700  58.0882200  12.6448990  34.2885490  56.6366720
  17.6329010  39.3169980  63.4394320  17.3286080  40.1961960  63.6644680
  18.5875470  39.3769770  63.4751760  16.1610800  43.5230970  54.0361170
  15.3873060  42.9828590  53.8759890  16.8905430  43.0037580  53.6978930
  22.3808720  33.9134290  53.9716950  21.5673330  33.4147460  53.8962260
  22.1870670  34.7532540  53.5553300  25.0957110  38.2853940  52.2679110
  25.9836730  38.5971170  52.0930450  25.0662200  37.4126190  51.8759690
  16.2048200  43.1911350  57.6739980  16.7226870  42.3879610  57.6196870
  15.7532220  43.1290490  58.5156810  21.0917700  44.4577630  52.9467280
  21.4333400  45.2019860  52.4510600  20.2630410  44.7708750  53.3092110
  13.6892740  40.1572720  64.5865680  13.3307680  40.8226570  65.1739020
  13.3947300  39.3256270  64.9578300  16.8905860  40.6156960  67.4705230
  16.5906000  40.7614140  66.5733050  17.6617100  40.0562250  67.3778620
  27.3671380  39.5965780  51.7358970  27.2835100  40.0280000  50.8855410
  28.0865570  40.0564130  52.1685790  20.0608390  44.5391160  55.7183200
  20.7479520  45.0860370  56.0990790  19.2740810  45.0831890  55.7532810
  12.2000790  40.1563980  51.2100280  13.0695640  40.4388780  51.4936200
  11.7091110  40.9699850  51.0949090  19.3635600  41.5437190  55.3308560
  19.8198380  42.3542440  55.5568750  19.0123810  41.2260330  56.1627050
  21.6668210  47.0543530  62.5600860  22.3110430  47.2602910  63.2374280
  22.0297650  46.2931930  62.1071710  15.2647380  31.8874840  55.8031080
  15.1362010  31.8792740  56.7516000  14.4409400  32.2257930  55.4522090
  26.7856010  45.3424500  51.0017450  26.5593590  44.6254940  51.5942090
  26.3952210  45.0936940  50.1639200  12.5672040  49.3691360  51.7761910
  12.9269680  49.9680700  51.1219180  12.4264380  49.9151250  52.5496940
  12.2641310  33.6465960  65.2637780  11.5499830  33.8462880  65.8690390
  12.6836350  32.8705530  65.6352580  26.3672260  43.2596440  52.6631610
  26.0793960  43.7209130  53.4509490  27.1624430  42.7994210  52.9315830
  12.5513900  47.6346220  66.2504310  12.6605020  46.6940960  66.1099700
  11.8994460  47.9000970  65.6018040  18.5840660  46.7522560  52.5935580
  18.5750760  47.4852250  51.9780090  17.6639020  46.5054140  52.6862540
  14.1847300  41.9737450  53.3382340  13.5775250  42.7136350  53.3477640
  14.6596650  42.0636810  52.5120540  23.7580090  36.1388270  63.0139230
  24.1260910  35.3183480  63.3418800  22.8978290  36.1990160  63.4294880
  27.1242120  35.0945210  53.8226790  26.4955280  35.1990880  53.1085020
  26.6294040  35.3141990  54.6120670  21.5700260  46.8150800  51.2560770
  21.6712240  46.6114790  50.3262750  20.6702000  46.5609080  51.4608550
  19.0926150  37.3731160  55.2384670  18.3842300  37.8417500  55.6798280
  19.3770630  36.7153170  55.8729860  20.7182080  38.7927860  63.2377200
  21.2167330  39.2673680  63.9029050  20.8605030  37.8691380  63.4447230
  23.1241580  34.0981820  56.6780460  23.0009360  34.1167950  55.7289970
  24.0726140  34.1460760  56.7978860  20.2118370  49.3337120  55.9508440
  20.4659870  49.2958510  55.0287810  19.2630850  49.2070450  55.9436690
  17.2961170  35.6816240  52.6135380  18.1451700  36.1186390  52.5475570
  16.9292440  35.9936500  53.4407440  27.9248940  35.0095820  64.0805590
  27.4222540  35.7501220  64.4199400  28.7405600  35.3979820  63.7642380
  16.1952590  41.9348600  51.0870910  16.9615860  41.8229960  51.6496340
  16.2727280  41.2386570  50.4347680  14.8899350  39.3673670  51.7703800
  14.9702940  38.4201180  51.8821200  15.7819100  39.6980550  51.8764460
  15.6914060  49.5169060  58.8738340  16.4276540  48.9684520  59.1446910
  16.0754980  50.3825070  58.7344330  12.5759540  45.5842630  54.7479850
  11.6499320  45.8263770  54.7385260  13.0415970  46.4116890  54.6264600
  14.6972340  48.7015130  68.0623920  15.4985070  49.0227180  68.4759320
  14.1824160  48.3410710  68.7843830  18.8016370  48.6899370  50.6963910
  19.5944980  48.9788200  50.2445700  18.2820720  48.2591540  50.0176390
  12.4170150  41.1888590  67.0059970  12.9209170  40.6095870  67.5776200
  11.6777570  41.4728820  67.5436340  19.3193770  43.9102780  50.5606260
  19.2144410  43.2955130  51.2867640  19.1517990  43.3868670  49.7769270
  19.4708090  42.5959580  66.5395490  18.7053760  43.1644580  66.4550160
  19.6524050  42.3035790  65.6463720  22.5596500  42.9722810  51.1648250
  22.0106600  43.4192110  51.8090990  23.1815760  42.4672060  51.6885920
  14.4493230  39.3318180  67.9010040  14.4898570  39.0332050  68.8095270
  15.3038730  39.7325790  67.7417560  18.2271620  41.9313730  53.0613550
  18.6488040  41.7653600  53.9044940  18.3522460  41.1213960  52.5668690
  16.3899040  37.9110280  65.8684530  15.8595500  37.4201230  65.2407870
  17.0587110  38.3394480  65.3342460  20.7399260  40.9551340  50.3090650
  21.2604920  40.2400360  49.9431800  21.3867660  41.5937210  50.6091160
  16.8771340  34.8772650  65.9481820  16.7828210  34.2593400  65.2232690
  16.2968730  35.6038940  65.7211730  19.6432780  33.4345890  62.9809210
  19.1950080  33.4570150  62.1354760  19.0097980  33.0364910  63.5779510
  20.0492330  42.3300220  63.6021650  20.4680440  43.1732950  63.4297890
  19.1300960  42.4672260  63.3728430  22.3856230  40.0616400  64.9859490
  22.5052440  39.4657540  65.7254330  23.2450230  40.0986090  64.5660790
  17.1230520  38.0046960  50.0071710  16.9219580  37.1414320  50.3685050
  16.9522570  37.9180320  49.0693310  17.8999750  48.6353230  64.7179380
  17.3620840  49.3599290  64.3988080  18.1533710  48.1583570  63.9276720
  19.1525000  36.6037750  66.2435310  19.7424690  36.2953600  66.9313130
  18.3345240  36.1317500  66.3995210  23.9718430  36.2203560  66.4768330
  23.2833950  35.5585100  66.4118320  24.6924450  35.7741830  66.9216790
  24.6018830  32.8155190  52.5358590  24.8821120  31.9723090  52.8918010
  23.8284560  33.0478300  53.0497340  15.9213320  35.1047580  49.9949590
  16.2239220  35.1115010  49.0868740  16.6607910  34.7545440  50.4917250
  20.7561960  49.8704440  64.9766030  20.6820660  50.7739580  65.2838400
  19.8540800  49.5516340  64.9488100  19.1398250  34.0482200  50.9805790
  18.7920250  33.3706190  50.4008240  19.3411020  33.5871710  51.7949180
  21.3047290  49.0362950  52.5992390  22.1998080  49.3747920  52.6211150
  21.3364920  48.3142360  51.9716670  14.9443450  44.4090000  50.8279390
  15.3818320  44.9519670  51.4836970  15.4291180  43.5836950  50.8375730
  12.1589250  47.1979030  58.2799650  12.4892260  46.3300090  58.0478290
  12.5880250  47.4037550  59.1104610  16.7551170  45.5288040  55.9401620
  16.4546710  45.4053010  56.8405530  16.6488660  44.6696630  55.5317350
  12.6479460  48.0649620  61.0181280  12.2110450  48.2450420  61.8505430
  13.2157140  48.8224240  60.8763000  12.4803890  40.5769850  57.3770160
  11.8252730  40.3081490  56.7329860  13.3181840  40.4674330  56.9272140
  29.0318720  42.3466290  50.3035020  29.3067560  43.2545170  50.1754240
  28.8429460  42.2828820  51.2397010  25.4294330  35.3711140  51.5988650
  25.8479210  35.1842120  50.7585310  25.1230390  34.5190190  51.9091580
  28.9284060  40.2835280  55.2964450  28.5527660  39.5163210  54.8645740
  28.1987180  40.6657980  55.7839380  13.5179820  40.9622420  61.9173500
  13.8852860  40.8749820  62.7969520  12.9490640  40.1988970  61.8180360
  13.0695820  37.8731510  65.8231920  12.1751870  37.8398270  66.1625630
  13.6093370  38.0718300  66.5883170  26.7571750  34.6563230  67.7083670
  27.6341930  34.6646630  68.0917670  26.7692590  33.9194070  67.0976020
  11.6941970  37.7868780  53.3195490  10.7906050  38.0498980  53.1447150
  12.1782590  38.0579950  52.5395450  28.2035020  38.5092770  58.5971690
  28.7272500  38.0155420  57.9661860  28.7894440  38.6443130  59.3419260
  14.2369180  36.8434320  51.2289870  14.9460880  36.4217540  50.7437150
  13.5209120  36.9109550  50.5973220  13.8843340  32.8973650  50.2692520
  14.6071470  33.4382590  50.5873740  14.1567860  32.6237070  49.3934060
  27.6934990  37.7666120  54.5364100  28.1894110  37.5336990  55.3212980
  27.4951060  36.9277960  54.1201740  13.5735530  32.1479840  60.1715140
  14.2211720  31.5977220  59.7310300  13.9937370  32.4022990  60.9930950
  29.1222150  36.4027070  57.0701780  29.0121430  36.2483110  58.0084050
  29.8829740  35.8748010  56.8277190  27.4687870  32.3421200  63.5284780
  28.1060090  32.9555340  63.8943970  27.6162760  32.3781860  62.5834010
  30.0112420  34.2334990  50.3107920  30.9361730  34.1016170  50.1026210
  29.9888210  34.3127810  51.2644370  30.0850910  35.0045650  52.9364630
  29.2902410  34.9390770  53.4657540  30.2894190  35.9396290  52.9249980
  27.0269330  49.0437200  56.9303020  27.6228400  48.7221770  56.2537440
  27.2847480  48.5709020  57.7216290  13.3267530  32.3035510  62.9140460
  12.9782350  32.7599330  63.6798640  12.9955230  31.4092640  62.9962890
  14.9331900  45.4755110  67.0793650  14.8901530  45.1048020  67.9608110
  15.0642910  46.4132680  67.2195470  18.6337930  47.0314700  62.6803370
  18.3929290  47.2989260  61.7933890  19.5740570  47.2020430  62.7354230
  20.8392350  33.4947390  66.4359880  20.7781240  34.0869220  67.1855290
  21.7792730  33.3873350  66.2910140  23.4766910  33.1517450  66.0752170
  24.0907320  33.4696740  65.4133250  24.0216470  32.6666040  66.6948030
  13.9988170  31.8311710  66.1891230  14.5471160  31.6499760  65.4257340
  14.0643480  31.0405820  66.7247540  14.7719930  48.4217360  64.1991430
  14.1780250  48.2902060  64.9381470  14.7643770  47.5855500  63.7333530
  24.2174950  31.7149590  62.4021460  23.3434790  32.0484700  62.1994390
  24.1085700  31.2422770  63.2273330  25.1246930  33.9220460  63.7863180
  24.7960290  33.1072220  63.4064910  26.0729230  33.8790270  63.6628870
  27.5781540  49.6932500  60.7600750  27.1184510  50.4448310  60.3858770
  26.9494000  48.9738970  60.7015550  14.4032160  45.7875740  63.1499470
  13.6766220  45.1681030  63.0825420  14.4641310  46.1816350  62.2797550
  18.0077260  48.0020740  59.9348880  18.5242280  47.3908100  59.4097140
  18.6574640  48.5049520  60.4259890  20.7472760  48.8929230  60.7617860
  21.0350570  48.6383530  59.8850870  21.2595980  48.3406590  61.3523430
  21.9649770  32.6319430  61.3414370  21.1821560  33.1064930  61.6211130
  21.6712700  31.7274260  61.2327550  26.5170840  33.3342530  59.3863460
  26.9578930  33.2787630  58.5385060  26.2478430  34.2500540  59.4573640
  28.3809410  32.9657770  57.3972280  28.3197810  32.0218990  57.2503300
  29.1601440  33.0737860  57.9425740  12.6862160  49.1050130  56.3596230
  12.5184200  48.4720810  57.0578120  11.8196670  49.3109530  56.0090420
  13.3090180  32.9366910  53.8628090  14.0669540  33.0495790  53.2892120
  12.8467350  33.7736110  53.8171520  19.8503990  35.0506180  56.8530400
  19.0378500  34.6763070  56.5126280  20.3545630  34.2951260  57.1551590
  24.3528970  31.7148630  58.0913470  24.9558340  32.2868840  58.5661990
  23.6121960  32.2788070  57.8687370  27.4963570  32.1170190  53.3653750
  27.6914200  33.0153640  53.6321180  26.7093440  31.8857270  53.8586700
  14.2924860  47.7983360  53.8046370  13.7672480  48.1791390  53.1008330
  14.2169440  48.4234130  54.5256080  15.6815330  33.4630960  52.4030060
  16.2108090  32.6760760  52.2738010  16.3143650  34.1422150  52.6365590
  17.8753170  33.2006100  55.4575450  17.2455910  32.4993410  55.6245580
  17.3358310  33.9610230  55.2408610  20.8145120  49.8145330  68.1286060
  21.7412430  49.5789600  68.1722020  20.7995550  50.6417330  67.6472090
  29.0490180  49.3570900  55.1260310  29.2242370  48.6708640  54.4821230
  28.3511750  49.8817950  54.7336980  18.0008730  32.4790080  67.8927940
  17.7193000  32.9823680  67.1288760  18.3828430  31.6811830  67.5270070
  16.8917830  49.7465740  52.6795620  17.6236650  49.4625020  52.1319510
  17.1511500  49.5079020  53.5695000  16.0532620  45.8630470  52.6841950
  15.4241500  46.3315570  53.2327780  16.1680450  45.0179690  53.1188140
  24.6024190  31.8943660  68.4708410  24.4889640  32.2138270  69.3659930
  25.4193930  32.2956170  68.1745690  23.5082340  39.9136130  38.8343150
  23.4276390  38.9990740  38.5634860  23.0946760  40.4103200  38.1282860
  21.6400380  41.6915150  40.7152420  20.8642480  41.2115590  41.0050990
  22.2913310  41.0120800  40.5408580  15.6566210  42.0034960  41.5928180
  14.8251090  41.7483670  41.9924690  16.2647190  42.0745730  42.3286100
  25.6607810  46.0975340  39.4951550  25.1989340  45.3262580  39.8238720
  26.4733360  46.1241410  40.0004000  15.6367470  46.0375050  41.7886200
  15.9395510  45.1472790  41.6096420  16.3811060  46.5945270  41.5608450
  14.0658160  36.9636850  35.3770570  13.1774860  37.3052820  35.2750450
  14.3499350  36.7637170  34.4851400  12.0291170  39.5642500  41.2610270
  12.6007280  38.7964700  41.2613910  12.0292710  39.8631260  40.3516880
  21.8871120  48.3833350  39.1155540  21.2682560  48.8390850  38.5449980
  22.7422900  48.5384810  38.7145240  21.0809370  44.3672340  40.7222580
  21.0117650  43.4262280  40.5611710  21.8429230  44.4573750  41.2945150
  13.2716040  34.9726860  43.0479200  13.0918880  34.0752610  43.3281960
  12.8696120  35.5198730  43.7226150  22.1114540  37.1742720  40.9491510
  22.4879360  36.3014600  40.8365180  22.0134050  37.5101420  40.0581950
  16.2419550  35.5468350  36.4108950  16.3486300  36.4472080  36.7177710
  15.3311910  35.4986320  36.1203600  25.8938660  34.6693160  37.8819850
  26.7148280  34.1789730  37.9245330  25.9272740  35.2590820  38.6351690
  13.8902710  37.4687360  41.6561540  14.5712820  37.7325730  42.2748940
  13.5750760  36.6288230  41.9899550  18.0827280  38.5154720  40.7434130
  18.5905500  39.0135690  41.3839150  18.6140520  37.7389920  40.5673490
  30.1838210  36.6859910  44.4463480  29.4790380  37.0741620  43.9278590
  30.4496130  37.3810200  45.0484410  16.3663380  33.1553280  45.0097550
  16.3681820  33.6725670  44.2043450  15.5367690  32.6783460  44.9867480
  22.7534470  43.2672590  36.5087450  22.1351740  43.7322040  35.9450170
  23.2657720  43.9600070  36.9256960  17.6166230  42.7948460  43.1871050
  17.2835610  43.4217380  43.8292120  17.7932910  43.3210340  42.4072720
  26.1300140  36.6093540  40.6547390  25.4255710  36.8978430  41.2350500
  26.4912300  37.4193650  40.2946950  16.0478710  34.8663240  43.0168000
  16.3895520  35.7105290  42.7221870  15.1094520  35.0146980  43.1333340
  16.8285330  44.7629260  45.0020230  17.4459330  45.4380340  44.7204680
  15.9678450  45.1717240  44.9107730  12.1217670  43.9529120  33.8827080
  11.7445650  44.4416220  33.1511980  12.3790740  44.6254400  34.5133610
  27.7462920  46.2268670  42.9174870  27.0626440  46.8967780  42.9091540
  28.2857210  46.4249320  42.1519730  29.1987060  36.0548330  41.0456600
  28.2511970  36.0887310  41.1772030  29.5237050  36.8687280  41.4305960
  19.7306600  32.3545510  39.3412590  20.0381580  31.7992400  38.6248090
  18.8007300  32.4889970  39.1585580  25.2821660  48.0712800  41.6320050
  25.2948820  47.6675090  40.7642310  24.7296880  48.8460090  41.5281480
  26.5767080  44.7929020  36.7210220  26.4663410  43.8503350  36.8459640
  26.5735330  45.1544660  37.6072980  24.6807100  42.9742640  42.9602660
  25.0975890  42.7602750  42.1256120  25.4046920  43.2315430  43.5311280
  22.1187360  40.4194340  36.0772710  21.1916640  40.3531720  36.3061180
  22.2712180  41.3574470  35.9627950  22.1056440  36.6911340  33.0739870
  21.1660110  36.8525300  33.1592330  22.4239700  37.4097020  32.5275860
  28.6269200  41.3729860  43.0518900  27.7987830  41.4422950  42.5769030
  29.2219680  41.9584170  42.5834730  26.1484650  41.9814640  36.5807960
  25.5297070  41.6434190  35.9334260  26.1309100  41.3374400  37.2887150
  25.5911210  38.1599180  43.9973770  25.1782390  38.9852890  44.2513760
  24.8587160  37.5744220  43.8050130  17.7244000  40.9459080  38.8592440
  17.3201000  40.2336330  38.3638340  17.8107120  40.6012320  39.7480480
  18.1925700  44.6326640  41.0231650  17.8953990  44.0272110  40.3439430
  19.1425520  44.6703950  40.9121010  16.4372620  37.7202290  42.6391480
  16.9887210  37.8297630  41.8644730  16.9516130  38.0939890  43.3546710
  26.2811310  48.2058510  44.6854750  25.8041870  49.0130700  44.4927360
  25.5973100  47.5536840  44.8380960  17.2844130  44.3708330  47.6739450
  16.3872660  44.5948300  47.9212850  17.3097000  44.4943270  46.7250850
  24.3249350  41.2201450  33.5880710  24.7642630  40.3823880  33.4418530
  25.0377770  41.8530850  33.6744850  16.1115350  41.2421650  46.2496820
  15.9723120  42.1144450  46.6184220  15.2296710  40.8994460  46.1044760
  22.4344730  46.1597520  37.5561950  22.8740640  46.9021850  37.1417340
  22.3731620  46.4024090  38.4800910  17.9095700  47.1843350  48.4581970
  17.8811130  47.5886300  47.5910400  17.7460670  46.2553710  48.2953570
  27.9066490  32.4744260  31.9021750  27.5939150  32.5671090  32.8020820
  28.6678960  33.0525290  31.8519180  14.4248630  39.8404060  36.3599090
  14.3046230  40.5666150  35.7480360  14.1149520  39.0706970  35.8827000
  29.8610520  47.9670450  49.7546140  30.3370240  48.4453340  50.4335220
  30.4817680  47.8987940  49.0291640  12.0634000  43.0119200  42.1667730
  12.1414420  43.1467970  41.2223450  12.6775680  42.3035090  42.3595850
  13.3081630  44.7119390  38.5773910  12.9009710  44.8533980  37.7227510
  14.1994640  44.4279550  38.3745120  29.2643770  45.1583300  46.9146150
  29.3906830  44.9195180  45.9963330  29.3065150  44.3267840  47.3868230
  23.1260510  48.8611300  45.4840960  23.6405180  48.7719310  46.2863390
  22.2829590  49.2071000  45.7768870  25.1014910  49.1466640  34.9124960
  24.9416050  48.8569580  35.8106790  24.9361620  48.3706770  34.3770190
  17.5803290  48.9265170  36.6896580  17.4045770  48.0100710  36.4764380
  16.7259030  49.2852460  36.9294380  24.8041040  46.6554200  33.4722960
  24.1106200  46.6531490  32.8125240  25.5463900  46.2313520  33.0417130
  24.3690970  48.2816910  37.5471450  24.8247920  47.5006290  37.8610070
  24.7083490  48.9923730  38.0912630  29.1167780  37.2115760  47.8795890
  28.5012050  37.7195430  47.3511350  28.7964200  36.3114090  47.8221830
  12.1193520  44.0533370  44.7062190  12.2824560  43.5838730  43.8881560
  12.5845970  43.5456930  45.3711030  16.8912290  33.1839130  39.7422760
  16.4480440  33.9648670  39.4107280  17.4497280  33.5069020  40.4493700
  21.1782100  36.0507650  45.3458080  20.7161470  36.2590670  46.1578020
  20.7760210  35.2367000  45.0428750  26.1786610  37.2716600  46.4754740
  25.3280200  36.9722350  46.7963810  26.0188400  37.5158610  45.5638560
  23.2736320  38.7718350  48.5753530  23.5989730  37.9382100  48.2355760
  24.0616650  39.2946870  48.7231860  20.0071110  32.8049830  34.6228590
  19.3825290  32.8009700  35.3481900  19.9201230  31.9380790  34.2264560
  18.9288190  33.7286460  41.6012360  19.2260520  34.6349290  41.5204380
  19.4773750  33.2405240  40.9871930  16.6826510  38.3072700  37.4704010
  16.4567430  38.0909870  38.3750630  15.9019040  38.7401160  37.1249980
  23.9124270  38.3136070  36.0694660  23.3133160  39.0371870  35.8858280
  24.4603880  38.2512850  35.2871110  19.1225720  39.2058280  48.1364280
  19.0269320  38.2653010  47.9864680  19.9657700  39.4273350  47.7412350
  22.5189140  36.9499610  38.0997940  22.9118710  37.2671810  37.2866630
  22.8805990  36.0711490  38.2142460  14.2536260  35.6171950  46.2898060
  13.8599650  36.4647160  46.4970840  13.5654660  34.9798320  46.4806700
  20.8281310  35.7006920  49.3594800  20.1379630  35.5079120  49.9940890
  21.5713610  35.9841560  49.8919100  11.5553310  33.5400410  40.3228140
  11.2666360  34.1103270  41.0353120  12.2999070  33.0604860  40.6859370
  11.7423540  37.4820530  31.5330860  11.6598210  38.4251290  31.6745850
  11.3906600  37.3395440  30.6543210  23.1044280  39.5405360  42.1948720
  22.3725400  40.0492170  42.5438820  22.7068620  38.7235340  41.8937500
  19.5421670  36.2159560  40.6001210  19.5457730  35.7749510  39.7505750
  20.4372790  36.5376890  40.7073030  15.3924050  36.0986050  39.5595420
  15.0524100  36.5761280  40.3162470  14.6301370  35.6451170  39.1996520
  19.6041820  37.2171640  33.5907970  19.7254640  37.1758120  34.5393790
  19.2190330  38.0795790  33.4354700  23.5670190  34.9939040  41.6071660
  23.5842930  35.4447690  42.4513510  23.3185770  34.0944680  41.8205100
  18.6163320  39.5272780  32.9891270  18.0480220  39.0791030  32.3627180
  19.3252320  39.8865560  32.4556420  26.9940940  32.4071220  47.4458040
  27.3186710  31.6760880  47.9716020  27.0297450  32.0884860  46.5439030
  13.6932500  43.4284800  46.8658000  13.3087290  42.7878470  47.4640960
  14.0044690  44.1320920  47.4352730  19.8429640  40.2761340  42.3466620
  20.2099770  39.8019910  43.0927960  19.6534700  41.1502910  42.6874960
  12.7070130  35.0205030  38.4760090  12.4217050  34.6560700  39.3138710
  12.6448990  34.2885490  37.8623230  17.6329010  39.3169980  44.6650830
  17.3286080  40.1961960  44.8901190  18.5875470  39.3769770  44.7008270
  16.1610800  43.5230970  35.2617680  15.3873060  42.9828590  35.1016400
  16.8905430  43.0037580  34.9235440  26.9198780  42.5196330  41.0544070
  27.6397900  43.0151620  40.6640180  26.7180600  41.8414220  40.4097940
  22.3808720  33.9134290  35.1973460  21.5673330  33.4147460  35.1218770
  22.1870670  34.7532540  34.7809810  22.3017580  42.5905390  46.9413070
  22.2354890  41.6701060  46.6870660  21.6722720  42.6880830  47.6557710
  25.0957110  38.2853940  33.4935620  25.9836730  38.5971170  33.3186960
  25.0662200  37.4126190  33.1016200  16.2048200  43.1911350  38.8996490
  16.7226870  42.3879610  38.8453380  15.7532220  43.1290490  39.7413320
  21.0917700  44.4577630  34.1723790  21.4333400  45.2019860  33.6767110
  20.2630410  44.7708750  34.5348620  13.6892740  40.1572720  45.8122190
  13.3307680  40.8226570  46.3995530  13.3947300  39.3256270  46.1834810
  16.8905860  40.6156960  48.6961740  16.5906000  40.7614140  47.7989560
  17.6617100  40.0562250  48.6035130  22.2334310  45.4125960  46.6916870
  22.2478850  44.4806920  46.4735780  21.5259410  45.4985720  47.3306640
  27.3671380  39.5965780  32.9615480  27.2835100  40.0280000  32.1111920
  28.0865570  40.0564130  33.3942300  28.4445520  42.0533300  46.0385450
  27.7193710  42.6462080  45.8414840  28.9720980  42.0456840  45.2398820
  28.3958630  46.4508040  35.6897610  27.7534790  45.7963660  35.9641330
  28.0089290  46.8563130  34.9138280  23.9745110  43.7793470  39.5369300
  24.3268930  43.1821600  38.8770670  23.0907440  43.4537700  39.7077550
  20.0608390  44.5391160  36.9439710  20.7479520  45.0860370  37.3247300
  19.2740810  45.0831890  36.9789320  12.2000790  40.1563980  32.4356790
  13.0695640  40.4388780  32.7192710  11.7091110  40.9699850  32.3205600
  19.3635600  41.5437190  36.5565070  19.8198380  42.3542440  36.7825260
  19.0123810  41.2260330  37.3883560  21.6668210  47.0543530  43.7857370
  22.3110430  47.2602910  44.4630790  22.0297650  46.2931930  43.3328220
  15.2647380  31.8874840  37.0287590  15.1362010  31.8792740  37.9772510
  14.4409400  32.2257930  36.6778600  22.9400290  45.0575880  42.5034820
  23.5822520  44.3569040  42.6166990  23.4649640  45.8374320  42.3231710
  26.7856010  45.3424500  32.2273960  26.5593590  44.6254940  32.8198600
  26.3952210  45.0936940  31.3895710  24.7137910  45.8570780  45.7070880
  25.0494150  46.4437470  46.3848800  23.7938250  45.7263490  45.9368670
  12.5672040  49.3691360  33.0018420  12.9269680  49.9680700  32.3475690
  12.4264380  49.9151250  33.7753450  12.2641310  33.6465960  46.4894290
  11.5499830  33.8462880  47.0946900  12.6836350  32.8705530  46.8609090
  26.3672260  43.2596440  33.8888120  26.0793960  43.7209130  34.6766000
  27.1624430  42.7994210  34.1572340  12.5513900  47.6346220  47.4760820
  12.6605020  46.6940960  47.3356210  11.8994460  47.9000970  46.8274550
  20.5426490  45.9062110  48.8758940  20.2223360  45.1871350  49.4204630
  19.8684850  46.5817180  48.9495000  18.5840660  46.7522560  33.8192090
  18.5750760  47.4852250  33.2036600  17.6639020  46.5054140  33.9119050
  14.1847300  41.9737450  34.5638850  13.5775250  42.7136350  34.5734150
  14.6596650  42.0636810  33.7377050  23.7580090  36.1388270  44.2395740
  24.1260910  35.3183480  44.5675310  22.8978290  36.1990160  44.6551390
  27.1242120  35.0945210  35.0483300  26.4955280  35.1990880  34.3341530
  26.6294040  35.3141990  35.8377180  21.5700260  46.8150800  32.4817280
  21.6712240  46.6114790  31.5519260  20.6702000  46.5609080  32.6865060
  19.0926150  37.3731160  36.4641180  18.3842300  37.8417500  36.9054790
  19.3770630  36.7153170  37.0986370  20.7182080  38.7927860  44.4633710
  21.2167330  39.2673680  45.1285560  20.8605030  37.8691380  44.6703740
  23.1241580  34.0981820  37.9036970  23.0009360  34.1167950  36.9546480
  24.0726140  34.1460760  38.0235370  20.2118370  49.3337120  37.1764950
  20.4659870  49.2958510  36.2544320  19.2630850  49.2070450  37.1693200
  17.2961170  35.6816240  33.8391890  18.1451700  36.1186390  33.7732080
  16.9292440  35.9936500  34.6663950  27.9248940  35.0095820  45.3062100
  27.4222540  35.7501220  45.6455910  28.7405600  35.3979820  44.9898890
  26.2170950  40.2529000  38.7523460  25.2761090  40.2679230  38.9271150
  26.5315020  39.4664960  39.1983760  16.1952590  41.9348600  32.3127420
  16.9615860  41.8229960  32.8752850  16.2727280  41.2386570  31.6604190
  14.8899350  39.3673670  32.9960310  14.9702940  38.4201180  33.1077710
  15.7819100  39.6980550  33.1020970  28.2196530  47.4237850  40.4277720
  28.3443950  48.2469020  40.9001530  29.0862090  47.2128580  40.0801870
  15.6914060  49.5169060  40.0994850  16.4276540  48.9684520  40.3703420
  16.0754980  50.3825070  39.9600840  12.5759540  45.5842630  35.9736360
  11.6499320  45.8263770  35.9641770  13.0415970  46.4116890  35.8521110
  14.6972340  48.7015130  49.2880430  15.4985070  49.0227180  49.7015830
  14.1824160  48.3410710  50.0100340  18.8016370  48.6899370  31.9220420
  19.5944980  48.9788200  31.4702210  18.2820720  48.2591540  31.2432900
  23.5336970  44.8095000  49.2355840  22.9275130  44.8326600  48.4951590
  23.2291080  44.0778040  49.7723090  24.9637340  48.5375290  47.8465250
  25.9159090  48.4533310  47.7965490  24.8165560  49.2017000  48.5199040
  27.8546540  47.9169500  33.3457160  27.5688050  47.5034640  32.5311340
  27.6566090  48.8457210  33.2257680  12.4170150  41.1888590  48.2316480
  12.9209170  40.6095870  48.8032710  11.6777570  41.4728820  48.7692850
  19.3193770  43.9102780  31.7862770  19.2144410  43.2955130  32.5124150
  19.1517990  43.3868670  31.0025780  19.4708090  42.5959580  47.7652000
  18.7053760  43.1644580  47.6806670  19.6524050  42.3035790  46.8720230
  22.5596500  42.9722810  32.3904760  22.0106600  43.4192110  33.0347500
  23.1815760  42.4672060  32.9142430  26.6131440  44.3264910  48.3227020
  27.3540910  44.6640670  47.8194480  25.8504120  44.4956970  47.7696790
  14.4493230  39.3318180  49.1266550  14.4898570  39.0332050  50.0351780
  15.3038730  39.7325790  48.9674070  18.2271620  41.9313730  34.2870060
  18.6488040  41.7653600  35.1301450  18.3522460  41.1213960  33.7925200
  16.3899040  37.9110280  47.0941040  15.8595500  37.4201230  46.4664380
  17.0587110  38.3394480  46.5598970  20.7399260  40.9551340  31.5347160
  21.2604920  40.2400360  31.1688310  21.3867660  41.5937210  31.8347670
  25.2877100  42.3779740  46.8582230  25.7018120  42.5324820  47.7072650
  24.3528100  42.5034960  47.0208010  25.7599270  39.7175900  48.8621380
  26.3420040  38.9628220  48.7741860  25.9361040  40.2483340  48.0852860
  16.8771340  34.8772650  47.1738330  16.7828210  34.2593400  46.4489200
  16.2968730  35.6038940  46.9468240  19.6432780  33.4345890  44.2065720
  19.1950080  33.4570150  43.3611270  19.0097980  33.0364910  44.8036020
  20.0492330  42.3300220  44.8278160  20.4680440  43.1732950  44.6554400
  19.1300960  42.4672260  44.5984940  22.3856230  40.0616400  46.2116000
  22.5052440  39.4657540  46.9510840  23.2450230  40.0986090  45.7917300
  24.7244130  40.6153590  44.7878510  24.1979350  41.1396210  44.1843650
  25.0675470  41.2480980  45.4188240  17.1230520  38.0046960  31.2328220
  16.9219580  37.1414320  31.5941560  16.9522570  37.9180320  30.2949820
  17.8999750  48.6353230  45.9435890  17.3620840  49.3599290  45.6244590
  18.1533710  48.1583570  45.1533230  19.1525000  36.6037750  47.4691820
  19.7424690  36.2953600  48.1569640  18.3345240  36.1317500  47.6251720
  23.9718430  36.2203560  47.7024840  23.2833950  35.5585100  47.6374830
  24.6924450  35.7741830  48.1473300  24.6018830  32.8155190  33.7615100
  24.8821120  31.9723090  34.1174520  23.8284560  33.0478300  34.2753850
  15.9213320  35.1047580  31.2206100  16.2239220  35.1115010  30.3125250
  16.6607910  34.7545440  31.7173760  20.7561960  49.8704440  46.2022540
  20.6820660  50.7739580  46.5094910  19.8540800  49.5516340  46.1744610
  19.1398250  34.0482200  32.2062300  18.7920250  33.3706190  31.6264750
  19.3411020  33.5871710  33.0205690  21.3047290  49.0362950  33.8248900
  22.1998080  49.3747920  33.8467660  21.3364920  48.3142360  33.1973180
  14.9443450  44.4090000  32.0535900  15.3818320  44.9519670  32.7093480
  15.4291180  43.5836950  32.0632240  12.1589250  47.1979030  39.5056160
  12.4892260  46.3300090  39.2734800  12.5880250  47.4037550  40.3361120
  16.7551170  45.5288040  37.1658130  16.4546710  45.4053010  38.0662040
  16.6488660  44.6696630  36.7573860  12.6479460  48.0649620  42.2437790
  12.2110450  48.2450420  43.0761940  13.2157140  48.8224240  42.1019510
  28.2841640  47.5666620  46.5315100  27.6843630  47.6259180  45.7879020
  28.4135540  46.6271600  46.6611950  29.5243090  45.3084440  31.8684810
  28.6936050  45.3761090  32.3392040  29.7014920  46.1988560  31.5651670
  28.9799550  42.0531920  34.3719010  29.7418460  42.6228570  34.4778700
  28.9953920  41.4859120  35.1427320  12.4803890  40.5769850  38.6026670
  11.8252730  40.3081490  37.9586370  13.3181840  40.4674330  38.1528650
  29.9859520  42.9082020  39.2160940  30.3568350  42.1249340  38.8096910
  30.6261450  43.5971120  39.0378240  26.9693280  44.2918600  44.6291260
  26.1553120  44.7215760  44.8917050  27.3767480  44.9037010  44.0160310
  29.0318720  42.3466290  31.5291530  29.3067560  43.2545170  31.4010750
  28.8429460  42.2828820  32.4653520  25.4294330  35.3711140  32.8245160
  25.8479210  35.1842120  31.9841820  25.1230390  34.5190190  33.1348090
  28.9284060  40.2835280  36.5220960  28.5527660  39.5163210  36.0902250
  28.1987180  40.6657980  37.0095890  13.5179820  40.9622420  43.1430010
  13.8852860  40.8749820  44.0226030  12.9490640  40.1988970  43.0436870
  28.3183680  39.4306800  46.1560480  28.0869770  39.2019550  45.2558430
  28.5788230  40.3506350  46.1105370  13.0695820  37.8731510  47.0488430
  12.1751870  37.8398270  47.3882140  13.6093370  38.0718300  47.8139680
  26.7571750  34.6563230  48.9340180  27.6341930  34.6646630  49.3174180
  26.7692590  33.9194070  48.3232530  11.6941970  37.7868780  34.5452000
  10.7906050  38.0498980  34.3703660  12.1782590  38.0579950  33.7651960
  28.2035020  38.5092770  39.8228200  28.7272500  38.0155420  39.1918370
  28.7894440  38.6443130  40.5675770  28.3824740  38.5932640  43.3447750
  27.4327450  38.5596180  43.4592740  28.5637750  39.5032750  43.1097520
  14.2369180  36.8434320  32.4546380  14.9460880  36.4217540  31.9693660
  13.5209120  36.9109550  31.8229730  13.8843340  32.8973650  31.4949030
  14.6071470  33.4382590  31.8130250  14.1567860  32.6237070  30.6190570
  27.6934990  37.7666120  35.7620610  28.1894110  37.5336990  36.5469490
  27.4951060  36.9277960  35.3458250  13.5735530  32.1479840  41.3971650
  14.2211720  31.5977220  40.9566810  13.9937370  32.4022990  42.2187460
  29.1222150  36.4027070  38.2958290  29.0121430  36.2483110  39.2340560
  29.8829740  35.8748010  38.0533700  27.4687870  32.3421200  44.7541290
  28.1060090  32.9555340  45.1200480  27.6162760  32.3781860  43.8090520
  30.0112420  34.2334990  31.5364430  30.9361730  34.1016170  31.3282720
  29.9888210  34.3127810  32.4900880  30.0850910  35.0045650  34.1621140
  29.2902410  34.9390770  34.6914050  30.2894190  35.9396290  34.1506490
  27.0269330  49.0437200  38.1559530  27.6228400  48.7221770  37.4793950
  27.2847480  48.5709020  38.9472800  13.3267530  32.3035510  44.1396970
  12.9782350  32.7599330  44.9055150  12.9955230  31.4092640  44.2219400
  14.9331900  45.4755110  48.3050160  14.8901530  45.1048020  49.1864620
  15.0642910  46.4132680  48.4451980  18.6337930  47.0314700  43.9059880
  18.3929290  47.2989260  43.0190400  19.5740570  47.2020430  43.9610740
  20.8392350  33.4947390  47.6616390  20.7781240  34.0869220  48.4111800
  21.7792730  33.3873350  47.5166650  23.4766910  33.1517450  47.3008680
  24.0907320  33.4696740  46.6389760  24.0216470  32.6666040  47.9204540
  29.8942090  49.0509080  44.7070520  29.4000370  49.4477950  43.9897650
  29.2855380  48.4258290  45.1007800  13.9988170  31.8311710  47.4147740
  14.5471160  31.6499760  46.6513850  14.0643480  31.0405820  47.9504050
  14.7719930  48.4217360  45.4247940  14.1780250  48.2902060  46.1637980
  14.7643770  47.5855500  44.9590040  24.2174950  31.7149590  43.6277970
  23.3434790  32.0484700  43.4250900  24.1085700  31.2422770  44.4529840
  25.1246930  33.9220460  45.0119690  24.7960290  33.1072220  44.6321420
  26.0729230  33.8790270  44.8885380  27.5781540  49.6932500  41.9857260
  27.1184510  50.4448310  41.6115280  26.9494000  48.9738970  41.9272060
  14.4032160  45.7875740  44.3755980  13.6766220  45.1681030  44.3081930
  14.4641310  46.1816350  43.5054060  18.0077260  48.0020740  41.1605390
  18.5242280  47.3908100  40.6353650  18.6574640  48.5049520  41.6516400
  20.7472760  48.8929230  41.9874370  21.0350570  48.6383530  41.1107380
  21.2595980  48.3406590  42.5779940  21.9649770  32.6319430  42.5670880
  21.1821560  33.1064930  42.8467640  21.6712700  31.7274260  42.4584060
  26.5170840  33.3342530  40.6119970  26.9578930  33.2787630  39.7641570
  26.2478430  34.2500540  40.6830150  28.3809410  32.9657770  38.6228790
  28.3197810  32.0218990  38.4759810  29.1601440  33.0737860  39.1682250
  12.6862160  49.1050130  37.5852740  12.5184200  48.4720810  38.2834630
  11.8196670  49.3109530  37.2346930  13.3090180  32.9366910  35.0884600
  14.0669540  33.0495790  34.5148630  12.8467350  33.7736110  35.0428030
  19.8503990  35.0506180  38.0786910  19.0378500  34.6763070  37.7382790
  20.3545630  34.2951260  38.3808100  24.3528970  31.7148630  39.3169980
  24.9558340  32.2868840  39.7918500  23.6121960  32.2788070  39.0943880
  27.4963570  32.1170190  34.5910260  27.6914200  33.0153640  34.8577690
  26.7093440  31.8857270  35.0843210  14.2924860  47.7983360  35.0302880
  13.7672480  48.1791390  34.3264840  14.2169440  48.4234130  35.7512590
  15.6815330  33.4630960  33.6286570  16.2108090  32.6760760  33.4994520
  16.3143650  34.1422150  33.8622100  17.8753170  33.2006100  36.6831960
  17.2455910  32.4993410  36.8502090  17.3358310  33.9610230  36.4665120
  20.8145120  49.8145330  49.3542570  21.7412430  49.5789600  49.3978530
  20.7995550  50.6417330  48.8728600  29.0490180  49.3570900  36.3516820
  29.2242370  48.6708640  35.7077740  28.3511750  49.8817950  35.9593490
  18.0008730  32.4790080  49.1184450  17.7193000  32.9823680  48.3545270
  18.3828430  31.6811830  48.7526580  16.8917830  49.7465740  33.9052130
  17.6236650  49.4625020  33.3576020  17.1511500  49.5079020  34.7951510
  16.0532620  45.8630470  33.9098460  15.4241500  46.3315570  34.4584290
  16.1680450  45.0179690  34.3444650  24.6024190  31.8943660  49.6964920
  24.4889640  32.2138270  50.5916440  25.4193930  32.2956170  49.4002200
  27.3822680  49.0415190  49.1783610  28.1748000  48.5464420  48.9709570
  27.6755830  49.7205330  49.7859220  23.5082340  39.9136130  20.0599660
  23.4276390  38.9990740  19.7891370  23.0946760  40.4103200  19.3539370
  21.6400380  41.6915150  21.9408930  20.8642480  41.2115590  22.2307500
  22.2913310  41.0120800  21.7665090  15.6566210  42.0034960  22.8184690
  14.8251090  41.7483670  23.2181200  16.2647190  42.0745730  23.5542610
  25.6607810  46.0975340  20.7208060  25.1989340  45.3262580  21.0495230
  26.4733360  46.1241410  21.2260510  15.6367470  46.0375050  23.0142710
  15.9395510  45.1472790  22.8352930  16.3811060  46.5945270  22.7864960
  14.0658160  36.9636850  16.6027080  13.1774860  37.3052820  16.5006960
  14.3499350  36.7637170  15.7107910  12.0291170  39.5642500  22.4866780
  12.6007280  38.7964700  22.4870420  12.0292710  39.8631260  21.5773390
  21.8871120  48.3833350  20.3412050  21.2682560  48.8390850  19.7706490
  22.7422900  48.5384810  19.9401750  21.0809370  44.3672340  21.9479090
  21.0117650  43.4262280  21.7868220  21.8429230  44.4573750  22.5201660
  13.2716040  34.9726860  24.2735710  13.0918880  34.0752610  24.5538470
  12.8696120  35.5198730  24.9482660  22.1114540  37.1742720  22.1748020
  22.4879360  36.3014600  22.0621690  22.0134050  37.5101420  21.2838460
  16.2419550  35.5468350  17.6365460  16.3486300  36.4472080  17.9434220
  15.3311910  35.4986320  17.3460110  25.8938660  34.6693160  19.1076360
  26.7148280  34.1789730  19.1501840  25.9272740  35.2590820  19.8608200
  13.8902710  37.4687360  22.8818050  14.5712820  37.7325730  23.5005450
  13.5750760  36.6288230  23.2156060  18.0827280  38.5154720  21.9690640
  18.5905500  39.0135690  22.6095660  18.6140520  37.7389920  21.7930000
  30.1838210  36.6859910  25.6719990  29.4790380  37.0741620  25.1535100
  30.4496130  37.3810200  26.2740920  16.3663380  33.1553280  26.2354060
  16.3681820  33.6725670  25.4299960  15.5367690  32.6783460  26.2123990
  22.7534470  43.2672590  17.7343960  22.1351740  43.7322040  17.1706680
  23.2657720  43.9600070  18.1513470  17.6166230  42.7948460  24.4127560
  17.2835610  43.4217380  25.0548630  17.7932910  43.3210340  23.6329230
  26.1300140  36.6093540  21.8803900  25.4255710  36.8978430  22.4607010
  26.4912300  37.4193650  21.5203460  16.0478710  34.8663240  24.2424510
  16.3895520  35.7105290  23.9478380  15.1094520  35.0146980  24.3589850
  16.8285330  44.7629260  26.2276740  17.4459330  45.4380340  25.9461190
  15.9678450  45.1717240  26.1364240  12.1217670  43.9529120  15.1083590
  11.7445650  44.4416220  14.3768490  12.3790740  44.6254400  15.7390120
  27.7462920  46.2268670  24.1431380  27.0626440  46.8967780  24.1348050
  28.2857210  46.4249320  23.3776240  29.1987060  36.0548330  22.2713110
  28.2511970  36.0887310  22.4028540  29.5237050  36.8687280  22.6562470
  19.7306600  32.3545510  20.5669100  20.0381580  31.7992400  19.8504600
  18.8007300  32.4889970  20.3842090  25.2821660  48.0712800  22.8576560
  25.2948820  47.6675090  21.9898820  24.7296880  48.8460090  22.7537990
  26.5767080  44.7929020  17.9466730  26.4663410  43.8503350  18.0716150
  26.5735330  45.1544660  18.8329490  24.6807100  42.9742640  24.1859170
  25.0975890  42.7602750  23.3512630  25.4046920  43.2315430  24.7567790
  22.1187360  40.4194340  17.3029220  21.1916640  40.3531720  17.5317690
  22.2712180  41.3574470  17.1884460  22.1056440  36.6911340  14.2996380
  21.1660110  36.8525300  14.3848840  22.4239700  37.4097020  13.7532370
  28.6269200  41.3729860  24.2775410  27.7987830  41.4422950  23.8025540
  29.2219680  41.9584170  23.8091240  26.1484650  41.9814640  17.8064470
  25.5297070  41.6434190  17.1590770  26.1309100  41.3374400  18.5143660
  25.5911210  38.1599180  25.2230280  25.1782390  38.9852890  25.4770270
  24.8587160  37.5744220  25.0306640  17.7244000  40.9459080  20.0848950
  17.3201000  40.2336330  19.5894850  17.8107120  40.6012320  20.9736990
  18.1925700  44.6326640  22.2488160  17.8953990  44.0272110  21.5695940
  19.1425520  44.6703950  22.1377520  16.4372620  37.7202290  23.8647990
  16.9887210  37.8297630  23.0901240  16.9516130  38.0939890  24.5803220
  26.2811310  48.2058510  25.9111260  25.8041870  49.0130700  25.7183870
  25.5973100  47.5536840  26.0637470  17.2844130  44.3708330  28.8995960
  16.3872660  44.5948300  29.1469360  17.3097000  44.4943270  27.9507360
  24.3249350  41.2201450  14.8137220  24.7642630  40.3823880  14.6675040
  25.0377770  41.8530850  14.9001360  16.1115350  41.2421650  27.4753330
  15.9723120  42.1144450  27.8440730  15.2296710  40.8994460  27.3301270
  22.4344730  46.1597520  18.7818460  22.8740640  46.9021850  18.3673850
  22.3731620  46.4024090  19.7057420  17.9095700  47.1843350  29.6838480
  17.8811130  47.5886300  28.8166910  17.7460670  46.2553710  29.5210080
  27.9066490  32.4744260  13.1278260  27.5939150  32.5671090  14.0277330
  28.6678960  33.0525290  13.0775690  14.4248630  39.8404060  17.5855600
  14.3046230  40.5666150  16.9736870  14.1149520  39.0706970  17.1083510
  29.8610520  47.9670450  30.9802650  30.3370240  48.4453340  31.6591730
  30.4817680  47.8987940  30.2548150  12.0634000  43.0119200  23.3924240
  12.1414420  43.1467970  22.4479960  12.6775680  42.3035090  23.5852360
  13.3081630  44.7119390  19.8030420  12.9009710  44.8533980  18.9484020
  14.1994640  44.4279550  19.6001630  29.2643770  45.1583300  28.1402660
  29.3906830  44.9195180  27.2219840  29.3065150  44.3267840  28.6124740
  23.1260510  48.8611300  26.7097470  23.6405180  48.7719310  27.5119900
  22.2829590  49.2071000  27.0025380  25.1014910  49.1466640  16.1381470
  24.9416050  48.8569580  17.0363300  24.9361620  48.3706770  15.6026700
  17.5803290  48.9265170  17.9153090  17.4045770  48.0100710  17.7020890
  16.7259030  49.2852460  18.1550890  24.8041040  46.6554200  14.6979470
  24.1106200  46.6531490  14.0381750  25.5463900  46.2313520  14.2673640
  24.3690970  48.2816910  18.7727960  24.8247920  47.5006290  19.0866580
  24.7083490  48.9923730  19.3169140  29.1167780  37.2115760  29.1052400
  28.5012050  37.7195430  28.5767860  28.7964200  36.3114090  29.0478340
  12.1193520  44.0533370  25.9318700  12.2824560  43.5838730  25.1138070
  12.5845970  43.5456930  26.5967540  16.8912290  33.1839130  20.9679270
  16.4480440  33.9648670  20.6363790  17.4497280  33.5069020  21.6750210
  21.1782100  36.0507650  26.5714590  20.7161470  36.2590670  27.3834530
  20.7760210  35.2367000  26.2685260  26.1786610  37.2716600  27.7011250
  25.3280200  36.9722350  28.0220320  26.0188400  37.5158610  26.7895070
  23.2736320  38.7718350  29.8010040  23.5989730  37.9382100  29.4612270
  24.0616650  39.2946870  29.9488370  20.0071110  32.8049830  15.8485100
  19.3825290  32.8009700  16.5738410  19.9201230  31.9380790  15.4521070
  18.9288190  33.7286460  22.8268870  19.2260520  34.6349290  22.7460890
  19.4773750  33.2405240  22.2128440  16.6826510  38.3072700  18.6960520
  16.4567430  38.0909870  19.6007140  15.9019040  38.7401160  18.3506490
  23.9124270  38.3136070  17.2951170  23.3133160  39.0371870  17.1114790
  24.4603880  38.2512850  16.5127620  19.1225720  39.2058280  29.3620790
  19.0269320  38.2653010  29.2121190  19.9657700  39.4273350  28.9668860
  22.5189140  36.9499610  19.3254450  22.9118710  37.2671810  18.5123140
  22.8805990  36.0711490  19.4398970  14.2536260  35.6171950  27.5154570
  13.8599650  36.4647160  27.7227350  13.5654660  34.9798320  27.7063210
  20.8281310  35.7006920  30.5851310  20.1379630  35.5079120  31.2197400
  21.5713610  35.9841560  31.1175610  11.5553310  33.5400410  21.5484650
  11.2666360  34.1103270  22.2609630  12.2999070  33.0604860  21.9115880
  11.7423540  37.4820530  12.7587370  11.6598210  38.4251290  12.9002360
  11.3906600  37.3395440  11.8799720  23.1044280  39.5405360  23.4205230
  22.3725400  40.0492170  23.7695330  22.7068620  38.7235340  23.1194010
  19.5421670  36.2159560  21.8257720  19.5457730  35.7749510  20.9762260
  20.4372790  36.5376890  21.9329540  15.3924050  36.0986050  20.7851930
  15.0524100  36.5761280  21.5418980  14.6301370  35.6451170  20.4253030
  19.6041820  37.2171640  14.8164480  19.7254640  37.1758120  15.7650300
  19.2190330  38.0795790  14.6611210  23.5670190  34.9939040  22.8328170
  23.5842930  35.4447690  23.6770020  23.3185770  34.0944680  23.0461610
  18.6163320  39.5272780  14.2147780  18.0480220  39.0791030  13.5883690
  19.3252320  39.8865560  13.6812930  26.9940940  32.4071220  28.6714550
  27.3186710  31.6760880  29.1972530  27.0297450  32.0884860  27.7695540
  13.6932500  43.4284800  28.0914510  13.3087290  42.7878470  28.6897470
  14.0044690  44.1320920  28.6609240  19.8429640  40.2761340  23.5723130
  20.2099770  39.8019910  24.3184470  19.6534700  41.1502910  23.9131470
  12.7070130  35.0205030  19.7016600  12.4217050  34.6560700  20.5395220
  12.6448990  34.2885490  19.0879740  17.6329010  39.3169980  25.8907340
  17.3286080  40.1961960  26.1157700  18.5875470  39.3769770  25.9264780
  16.1610800  43.5230970  16.4874190  15.3873060  42.9828590  16.3272910
  16.8905430  43.0037580  16.1491950  26.9198780  42.5196330  22.2800580
  27.6397900  43.0151620  21.8896690  26.7180600  41.8414220  21.6354450
  22.3808720  33.9134290  16.4229970  21.5673330  33.4147460  16.3475280
  22.1870670  34.7532540  16.0066320  22.3017580  42.5905390  28.1669580
  22.2354890  41.6701060  27.9127170  21.6722720  42.6880830  28.8814220
  25.0957110  38.2853940  14.7192130  25.9836730  38.5971170  14.5443470
  25.0662200  37.4126190  14.3272710  16.2048200  43.1911350  20.1253000
  16.7226870  42.3879610  20.0709890  15.7532220  43.1290490  20.9669830
  21.0917700  44.4577630  15.3980300  21.4333400  45.2019860  14.9023620
  20.2630410  44.7708750  15.7605130  13.6892740  40.1572720  27.0378700
  13.3307680  40.8226570  27.6252040  13.3947300  39.3256270  27.4091320
  16.8905860  40.6156960  29.9218250  16.5906000  40.7614140  29.0246070
  17.6617100  40.0562250  29.8291640  22.2334310  45.4125960  27.9173380
  22.2478850  44.4806920  27.6992290  21.5259410  45.4985720  28.5563150
  27.3671380  39.5965780  14.1871990  27.2835100  40.0280000  13.3368430
  28.0865570  40.0564130  14.6198810  28.4445520  42.0533300  27.2641960
  27.7193710  42.6462080  27.0671350  28.9720980  42.0456840  26.4655330
  28.3958630  46.4508040  16.9154120  27.7534790  45.7963660  17.1897840
  28.0089290  46.8563130  16.1394790  23.9745110  43.7793470  20.7625810
  24.3268930  43.1821600  20.1027180  23.0907440  43.4537700  20.9334060
  20.0608390  44.5391160  18.1696220  20.7479520  45.0860370  18.5503810
  19.2740810  45.0831890  18.2045830  12.2000790  40.1563980  13.6613300
  13.0695640  40.4388780  13.9449220  11.7091110  40.9699850  13.5462110
  19.3635600  41.5437190  17.7821580  19.8198380  42.3542440  18.0081770
  19.0123810  41.2260330  18.6140070  21.6668210  47.0543530  25.0113880
  22.3110430  47.2602910  25.6887300  22.0297650  46.2931930  24.5584730
  15.2647380  31.8874840  18.2544100  15.1362010  31.8792740  19.2029020
  14.4409400  32.2257930  17.9035110  22.9400290  45.0575880  23.7291330
  23.5822520  44.3569040  23.8423500  23.4649640  45.8374320  23.5488220
  26.7856010  45.3424500  13.4530470  26.5593590  44.6254940  14.0455110
  26.3952210  45.0936940  12.6152220  24.7137910  45.8570780  26.9327390
  25.0494150  46.4437470  27.6105310  23.7938250  45.7263490  27.1625180
  12.5672040  49.3691360  14.2274930  12.9269680  49.9680700  13.5732200
  12.4264380  49.9151250  15.0009960  12.2641310  33.6465960  27.7150800
  11.5499830  33.8462880  28.3203410  12.6836350  32.8705530  28.0865600
  26.3672260  43.2596440  15.1144630  26.0793960  43.7209130  15.9022510
  27.1624430  42.7994210  15.3828850  12.5513900  47.6346220  28.7017330
  12.6605020  46.6940960  28.5612720  11.8994460  47.9000970  28.0531060
  20.5426490  45.9062110  30.1015450  20.2223360  45.1871350  30.6461140
  19.8684850  46.5817180  30.1751510  18.5840660  46.7522560  15.0448600
  18.5750760  47.4852250  14.4293110  17.6639020  46.5054140  15.1375560
  14.1847300  41.9737450  15.7895360  13.5775250  42.7136350  15.7990660
  14.6596650  42.0636810  14.9633560  23.7580090  36.1388270  25.4652250
  24.1260910  35.3183480  25.7931820  22.8978290  36.1990160  25.8807900
  27.1242120  35.0945210  16.2739810  26.4955280  35.1990880  15.5598040
  26.6294040  35.3141990  17.0633690  21.5700260  46.8150800  13.7073790
  21.6712240  46.6114790  12.7775770  20.6702000  46.5609080  13.9121570
  19.0926150  37.3731160  17.6897690  18.3842300  37.8417500  18.1311300
  19.3770630  36.7153170  18.3242880  20.7182080  38.7927860  25.6890220
  21.2167330  39.2673680  26.3542070  20.8605030  37.8691380  25.8960250
  23.1241580  34.0981820  19.1293480  23.0009360  34.1167950  18.1802990
  24.0726140  34.1460760  19.2491880  20.2118370  49.3337120  18.4021460
  20.4659870  49.2958510  17.4800830  19.2630850  49.2070450  18.3949710
  17.2961170  35.6816240  15.0648400  18.1451700  36.1186390  14.9988590
  16.9292440  35.9936500  15.8920460  27.9248940  35.0095820  26.5318610
  27.4222540  35.7501220  26.8712420  28.7405600  35.3979820  26.2155400
  26.2170950  40.2529000  19.9779970  25.2761090  40.2679230  20.1527660
  26.5315020  39.4664960  20.4240270  16.1952590  41.9348600  13.5383930
  16.9615860  41.8229960  14.1009360  16.2727280  41.2386570  12.8860700
  14.8899350  39.3673670  14.2216820  14.9702940  38.4201180  14.3334220
  15.7819100  39.6980550  14.3277480  28.2196530  47.4237850  21.6534230
  28.3443950  48.2469020  22.1258040  29.0862090  47.2128580  21.3058380
  15.6914060  49.5169060  21.3251360  16.4276540  48.9684520  21.5959930
  16.0754980  50.3825070  21.1857350  12.5759540  45.5842630  17.1992870
  11.6499320  45.8263770  17.1898280  13.0415970  46.4116890  17.0777620
  14.6972340  48.7015130  30.5136940  15.4985070  49.0227180  30.9272340
  14.1824160  48.3410710  31.2356850  18.8016370  48.6899370  13.1476930
  19.5944980  48.9788200  12.6958720  18.2820720  48.2591540  12.4689410
  23.5336970  44.8095000  30.4612350  22.9275130  44.8326600  29.7208100
  23.2291080  44.0778040  30.9979600  24.9637340  48.5375290  29.0721760
  25.9159090  48.4533310  29.0222000  24.8165560  49.2017000  29.7455550
  27.8546540  47.9169500  14.5713670  27.5688050  47.5034640  13.7567850
  27.6566090  48.8457210  14.4514190  12.4170150  41.1888590  29.4572990
  12.9209170  40.6095870  30.0289220  11.6777570  41.4728820  29.9949360
  19.3193770  43.9102780  13.0119280  19.2144410  43.2955130  13.7380660
  19.1517990  43.3868670  12.2282290  19.4708090  42.5959580  28.9908510
  18.7053760  43.1644580  28.9063180  19.6524050  42.3035790  28.0976740
  22.5596500  42.9722810  13.6161270  22.0106600  43.4192110  14.2604010
  23.1815760  42.4672060  14.1398940  26.6131440  44.3264910  29.5483530
  27.3540910  44.6640670  29.0450990  25.8504120  44.4956970  28.9953300
  14.4493230  39.3318180  30.3523060  14.4898570  39.0332050  31.2608290
  15.3038730  39.7325790  30.1930580  18.2271620  41.9313730  15.5126570
  18.6488040  41.7653600  16.3557960  18.3522460  41.1213960  15.0181710
  16.3899040  37.9110280  28.3197550  15.8595500  37.4201230  27.6920890
  17.0587110  38.3394480  27.7855480  20.7399260  40.9551340  12.7603670
  21.2604920  40.2400360  12.3944820  21.3867660  41.5937210  13.0604180
  25.2877100  42.3779740  28.0838740  25.7018120  42.5324820  28.9329160
  24.3528100  42.5034960  28.2464520  25.7599270  39.7175900  30.0877890
  26.3420040  38.9628220  29.9998370  25.9361040  40.2483340  29.3109370
  16.8771340  34.8772650  28.3994840  16.7828210  34.2593400  27.6745710
  16.2968730  35.6038940  28.1724750  19.6432780  33.4345890  25.4322230
  19.1950080  33.4570150  24.5867780  19.0097980  33.0364910  26.0292530
  20.0492330  42.3300220  26.0534670  20.4680440  43.1732950  25.8810910
  19.1300960  42.4672260  25.8241450  22.3856230  40.0616400  27.4372510
  22.5052440  39.4657540  28.1767350  23.2450230  40.0986090  27.0173810
  24.7244130  40.6153590  26.0135020  24.1979350  41.1396210  25.4100160
  25.0675470  41.2480980  26.6444750  17.1230520  38.0046960  12.4584730
  16.9219580  37.1414320  12.8198070  16.9522570  37.9180320  11.5206330
  17.8999750  48.6353230  27.1692400  17.3620840  49.3599290  26.8501100
  18.1533710  48.1583570  26.3789740  19.1525000  36.6037750  28.6948330
  19.7424690  36.2953600  29.3826150  18.3345240  36.1317500  28.8508230
  23.9718430  36.2203560  28.9281350  23.2833950  35.5585100  28.8631340
  24.6924450  35.7741830  29.3729810  24.6018830  32.8155190  14.9871610
  24.8821120  31.9723090  15.3431030  23.8284560  33.0478300  15.5010360
  15.9213320  35.1047580  12.4462610  16.2239220  35.1115010  11.5381760
  16.6607910  34.7545440  12.9430270  20.7561960  49.8704440  27.4279050
  20.6820660  50.7739580  27.7351420  19.8540800  49.5516340  27.4001120
  19.1398250  34.0482200  13.4318810  18.7920250  33.3706190  12.8521260
  19.3411020  33.5871710  14.2462200  21.3047290  49.0362950  15.0505410
  22.1998080  49.3747920  15.0724170  21.3364920  48.3142360  14.4229690
  14.9443450  44.4090000  13.2792410  15.3818320  44.9519670  13.9349990
  15.4291180  43.5836950  13.2888750  12.1589250  47.1979030  20.7312670
  12.4892260  46.3300090  20.4991310  12.5880250  47.4037550  21.5617630
  16.7551170  45.5288040  18.3914640  16.4546710  45.4053010  19.2918550
  16.6488660  44.6696630  17.9830370  12.6479460  48.0649620  23.4694300
  12.2110450  48.2450420  24.3018450  13.2157140  48.8224240  23.3276020
  28.2841640  47.5666620  27.7571610  27.6843630  47.6259180  27.0135530
  28.4135540  46.6271600  27.8868460  29.5243090  45.3084440  13.0941320
  28.6936050  45.3761090  13.5648550  29.7014920  46.1988560  12.7908180
  28.9799550  42.0531920  15.5975520  29.7418460  42.6228570  15.7035210
  28.9953920  41.4859120  16.3683830  12.4803890  40.5769850  19.8283180
  11.8252730  40.3081490  19.1842880  13.3181840  40.4674330  19.3785160
  29.9859520  42.9082020  20.4417450  30.3568350  42.1249340  20.0353420
  30.6261450  43.5971120  20.2634750  26.9693280  44.2918600  25.8547770
  26.1553120  44.7215760  26.1173560  27.3767480  44.9037010  25.2416820
  29.0318720  42.3466290  12.7548040  29.3067560  43.2545170  12.6267260
  28.8429460  42.2828820  13.6910030  25.4294330  35.3711140  14.0501670
  25.8479210  35.1842120  13.2098330  25.1230390  34.5190190  14.3604600
  28.9284060  40.2835280  17.7477470  28.5527660  39.5163210  17.3158760
  28.1987180  40.6657980  18.2352400  13.5179820  40.9622420  24.3686520
  13.8852860  40.8749820  25.2482540  12.9490640  40.1988970  24.2693380
  28.3183680  39.4306800  27.3816990  28.0869770  39.2019550  26.4814940
  28.5788230  40.3506350  27.3361880  13.0695820  37.8731510  28.2744940
  12.1751870  37.8398270  28.6138650  13.6093370  38.0718300  29.0396190
  26.7571750  34.6563230  30.1596690  27.6341930  34.6646630  30.5430690
  26.7692590  33.9194070  29.5489040  11.6941970  37.7868780  15.7708510
  10.7906050  38.0498980  15.5960170  12.1782590  38.0579950  14.9908470
  28.2035020  38.5092770  21.0484710  28.7272500  38.0155420  20.4174880
  28.7894440  38.6443130  21.7932280  28.3824740  38.5932640  24.5704260
  27.4327450  38.5596180  24.6849250  28.5637750  39.5032750  24.3354030
  14.2369180  36.8434320  13.6802890  14.9460880  36.4217540  13.1950170
  13.5209120  36.9109550  13.0486240  13.8843340  32.8973650  12.7205540
  14.6071470  33.4382590  13.0386760  14.1567860  32.6237070  11.8447080
  27.6934990  37.7666120  16.9877120  28.1894110  37.5336990  17.7726000
  27.4951060  36.9277960  16.5714760  13.5735530  32.1479840  22.6228160
  14.2211720  31.5977220  22.1823320  13.9937370  32.4022990  23.4443970
  29.1222150  36.4027070  19.5214800  29.0121430  36.2483110  20.4597070
  29.8829740  35.8748010  19.2790210  27.4687870  32.3421200  25.9797800
  28.1060090  32.9555340  26.3456990  27.6162760  32.3781860  25.0347030
  30.0112420  34.2334990  12.7620940  30.9361730  34.1016170  12.5539230
  29.9888210  34.3127810  13.7157390  30.0850910  35.0045650  15.3877650
  29.2902410  34.9390770  15.9170560  30.2894190  35.9396290  15.3763000
  27.0269330  49.0437200  19.3816040  27.6228400  48.7221770  18.7050460
  27.2847480  48.5709020  20.1729310  13.3267530  32.3035510  25.3653480
  12.9782350  32.7599330  26.1311660  12.9955230  31.4092640  25.4475910
  14.9331900  45.4755110  29.5306670  14.8901530  45.1048020  30.4121130
  15.0642910  46.4132680  29.6708490  18.6337930  47.0314700  25.1316390
  18.3929290  47.2989260  24.2446910  19.5740570  47.2020430  25.1867250
  20.8392350  33.4947390  28.8872900  20.7781240  34.0869220  29.6368310
  21.7792730  33.3873350  28.7423160  23.4766910  33.1517450  28.5265190
  24.0907320  33.4696740  27.8646270  24.0216470  32.6666040  29.1461050
  29.8942090  49.0509080  25.9327030  29.4000370  49.4477950  25.2154160
  29.2855380  48.4258290  26.3264310  13.9988170  31.8311710  28.6404250
  14.5471160  31.6499760  27.8770360  14.0643480  31.0405820  29.1760560
  14.7719930  48.4217360  26.6504450  14.1780250  48.2902060  27.3894490
  14.7643770  47.5855500  26.1846550  24.2174950  31.7149590  24.8534480
  23.3434790  32.0484700  24.6507410  24.1085700  31.2422770  25.6786350
  25.1246930  33.9220460  26.2376200  24.7960290  33.1072220  25.8577930
  26.0729230  33.8790270  26.1141890  27.5781540  49.6932500  23.2113770
  27.1184510  50.4448310  22.8371790  26.9494000  48.9738970  23.1528570
  14.4032160  45.7875740  25.6012490  13.6766220  45.1681030  25.5338440
  14.4641310  46.1816350  24.7310570  18.0077260  48.0020740  22.3861900
  18.5242280  47.3908100  21.8610160  18.6574640  48.5049520  22.8772910
  20.7472760  48.8929230  23.2130880  21.0350570  48.6383530  22.3363890
  21.2595980  48.3406590  23.8036450  21.9649770  32.6319430  23.7927390
  21.1821560  33.1064930  24.0724150  21.6712700  31.7274260  23.6840570
  26.5170840  33.3342530  21.8376480  26.9578930  33.2787630  20.9898080
  26.2478430  34.2500540  21.9086660  28.3809410  32.9657770  19.8485300
  28.3197810  32.0218990  19.7016320  29.1601440  33.0737860  20.3938760
  12.6862160  49.1050130  18.8109250  12.5184200  48.4720810  19.5091140
  11.8196670  49.3109530  18.4603440  13.3090180  32.9366910  16.3141110
  14.0669540  33.0495790  15.7405140  12.8467350  33.7736110  16.2684540
  19.8503990  35.0506180  19.3043420  19.0378500  34.6763070  18.9639300
  20.3545630  34.2951260  19.6064610  24.3528970  31.7148630  20.5426490
  24.9558340  32.2868840  21.0175010  23.6121960  32.2788070  20.3200390
  27.4963570  32.1170190  15.8166770  27.6914200  33.0153640  16.0834200
  26.7093440  31.8857270  16.3099720  14.2924860  47.7983360  16.2559390
  13.7672480  48.1791390  15.5521350  14.2169440  48.4234130  16.9769100
  15.6815330  33.4630960  14.8543080  16.2108090  32.6760760  14.7251030
  16.3143650  34.1422150  15.0878610  17.8753170  33.2006100  17.9088470
  17.2455910  32.4993410  18.0758600  17.3358310  33.9610230  17.6921630
  20.8145120  49.8145330  30.5799080  21.7412430  49.5789600  30.6235040
  20.7995550  50.6417330  30.0985110  29.0490180  49.3570900  17.5773330
  29.2242370  48.6708640  16.9334250  28.3511750  49.8817950  17.1850000
  18.0008730  32.4790080  30.3440960  17.7193000  32.9823680  29.5801780
  18.3828430  31.6811830  29.9783090  16.8917830  49.7465740  15.1308640
  17.6236650  49.4625020  14.5832530  17.1511500  49.5079020  16.0208020
  16.0532620  45.8630470  15.1354970  15.4241500  46.3315570  15.6840800
  16.1680450  45.0179690  15.5701160  24.6024190  31.8943660  30.9221430
  24.4889640  32.2138270  31.8172950  25.4193930  32.2956170  30.6258710
  27.3822680  49.0415190  30.4040120  28.1748000  48.5464420  30.1966080
  27.6755830  49.7205330  31.0115730  21.6400380  41.6915150   3.1665440
  20.8642480  41.2115590   3.4564010  22.2913310  41.0120800   2.9921600
  15.6566210  42.0034960   4.0441200  14.8251090  41.7483670   4.4437710
  16.2647190  42.0745730   4.7799120  25.6607810  46.0975340   1.9464570
  25.1989340  45.3262580   2.2751740  26.4733360  46.1241410   2.4517020
  15.6367470  46.0375050   4.2399220  15.9395510  45.1472790   4.0609440
  16.3811060  46.5945270   4.0121470  12.0291170  39.5642500   3.7123290
  12.6007280  38.7964700   3.7126930  12.0292710  39.8631260   2.8029900
  21.0809370  44.3672340   3.1735600  21.0117650  43.4262280   3.0124730
  21.8429230  44.4573750   3.7458170  13.2716040  34.9726860   5.4992220
  13.0918880  34.0752610   5.7794980  12.8696120  35.5198730   6.1739170
  22.1114540  37.1742720   3.4004530  22.4879360  36.3014600   3.2878200
  22.0134050  37.5101420   2.5094970  13.8902710  37.4687360   4.1074560
  14.5712820  37.7325730   4.7261960  13.5750760  36.6288230   4.4412570
  18.0827280  38.5154720   3.1947150  18.5905500  39.0135690   3.8352170
  18.6140520  37.7389920   3.0186510  30.1838210  36.6859910   6.8976500
  29.4790380  37.0741620   6.3791610  30.4496130  37.3810200   7.4997430
  16.3663380  33.1553280   7.4610570  16.3681820  33.6725670   6.6556470
  15.5367690  32.6783460   7.4380500  17.6166230  42.7948460   5.6384070
  17.2835610  43.4217380   6.2805140  17.7932910  43.3210340   4.8585740
  26.1300140  36.6093540   3.1060410  25.4255710  36.8978430   3.6863520
  26.4912300  37.4193650   2.7459970  16.0478710  34.8663240   5.4681020
  16.3895520  35.7105290   5.1734890  15.1094520  35.0146980   5.5846360
  16.8285330  44.7629260   7.4533250  17.4459330  45.4380340   7.1717700
  15.9678450  45.1717240   7.3620750  27.7462920  46.2268670   5.3687890
  27.0626440  46.8967780   5.3604560  28.2857210  46.4249320   4.6032750
  29.1987060  36.0548330   3.4969620  28.2511970  36.0887310   3.6285050
  29.5237050  36.8687280   3.8818980  25.2821660  48.0712800   4.0833070
  25.2948820  47.6675090   3.2155330  24.7296880  48.8460090   3.9794500
  24.6807100  42.9742640   5.4115680  25.0975890  42.7602750   4.5769140
  25.4046920  43.2315430   5.9824300  28.6269200  41.3729860   5.5031920
  27.7987830  41.4422950   5.0282050  29.2219680  41.9584170   5.0347750
  25.5911210  38.1599180   6.4486790  25.1782390  38.9852890   6.7026780
  24.8587160  37.5744220   6.2563150  18.1925700  44.6326640   3.4744670
  17.8953990  44.0272110   2.7952450  19.1425520  44.6703950   3.3634030
  16.4372620  37.7202290   5.0904500  16.9887210  37.8297630   4.3157750
  16.9516130  38.0939890   5.8059730  26.2811310  48.2058510   7.1367770
  25.8041870  49.0130700   6.9440380  25.5973100  47.5536840   7.2893980
  17.2844130  44.3708330  10.1252470  16.3872660  44.5948300  10.3725870
  17.3097000  44.4943270   9.1763870  16.1115350  41.2421650   8.7009840
  15.9723120  42.1144450   9.0697240  15.2296710  40.8994460   8.5557780
  17.9095700  47.1843350  10.9094990  17.8811130  47.5886300  10.0423420
  17.7460670  46.2553710  10.7466590  29.8610520  47.9670450  12.2059160
  30.3370240  48.4453340  12.8848240  30.4817680  47.8987940  11.4804660
  12.0634000  43.0119200   4.6180750  12.1414420  43.1467970   3.6736470
  12.6775680  42.3035090   4.8108870  29.2643770  45.1583300   9.3659170
  29.3906830  44.9195180   8.4476350  29.3065150  44.3267840   9.8381250
  23.1260510  48.8611300   7.9353980  23.6405180  48.7719310   8.7376410
  22.2829590  49.2071000   8.2281890  29.1167780  37.2115760  10.3308910
  28.5012050  37.7195430   9.8024370  28.7964200  36.3114090  10.2734850
  12.1193520  44.0533370   7.1575210  12.2824560  43.5838730   6.3394580
  12.5845970  43.5456930   7.8224050  16.8912290  33.1839130   2.1935780
  16.4480440  33.9648670   1.8620300  17.4497280  33.5069020   2.9006720
  21.1782100  36.0507650   7.7971100  20.7161470  36.2590670   8.6091040
  20.7760210  35.2367000   7.4941770  26.1786610  37.2716600   8.9267760
  25.3280200  36.9722350   9.2476830  26.0188400  37.5158610   8.0151580
  23.2736320  38.7718350  11.0266550  23.5989730  37.9382100  10.6868780
  24.0616650  39.2946870  11.1744880  18.9288190  33.7286460   4.0525380
  19.2260520  34.6349290   3.9717400  19.4773750  33.2405240   3.4384950
  19.1225720  39.2058280  10.5877300  19.0269320  38.2653010  10.4377700
  19.9657700  39.4273350  10.1925370  14.2536260  35.6171950   8.7411080
  13.8599650  36.4647160   8.9483860  13.5654660  34.9798320   8.9319720
  20.8281310  35.7006920  11.8107820  20.1379630  35.5079120  12.4453910
  21.5713610  35.9841560  12.3432120  11.5553310  33.5400410   2.7741160
  11.2666360  34.1103270   3.4866140  12.2999070  33.0604860   3.1372390
  23.1044280  39.5405360   4.6461740  22.3725400  40.0492170   4.9951840
  22.7068620  38.7235340   4.3450520  19.5421670  36.2159560   3.0514230
  19.5457730  35.7749510   2.2018770  20.4372790  36.5376890   3.1586050
  15.3924050  36.0986050   2.0108440  15.0524100  36.5761280   2.7675490
  14.6301370  35.6451170   1.6509540  23.5670190  34.9939040   4.0584680
  23.5842930  35.4447690   4.9026530  23.3185770  34.0944680   4.2718120
  26.9940940  32.4071220   9.8971060  27.3186710  31.6760880  10.4229040
  27.0297450  32.0884860   8.9952050  13.6932500  43.4284800   9.3171020
  13.3087290  42.7878470   9.9153980  14.0044690  44.1320920   9.8865750
  19.8429640  40.2761340   4.7979640  20.2099770  39.8019910   5.5440980
  19.6534700  41.1502910   5.1387980  17.6329010  39.3169980   7.1163850
  17.3286080  40.1961960   7.3414210  18.5875470  39.3769770   7.1521290
  26.9198780  42.5196330   3.5057090  27.6397900  43.0151620   3.1153200
  26.7180600  41.8414220   2.8610960  22.3017580  42.5905390   9.3926090
  22.2354890  41.6701060   9.1383680  21.6722720  42.6880830  10.1070730
  13.6892740  40.1572720   8.2635210  13.3307680  40.8226570   8.8508550
  13.3947300  39.3256270   8.6347830  16.8905860  40.6156960  11.1474760
  16.5906000  40.7614140  10.2502580  17.6617100  40.0562250  11.0548150
  22.2334310  45.4125960   9.1429890  22.2478850  44.4806920   8.9248800
  21.5259410  45.4985720   9.7819660  28.4445520  42.0533300   8.4898470
  27.7193710  42.6462080   8.2927860  28.9720980  42.0456840   7.6911840
  21.6668210  47.0543530   6.2370390  22.3110430  47.2602910   6.9143810
  22.0297650  46.2931930   5.7841240  22.9400290  45.0575880   4.9547840
  23.5822520  44.3569040   5.0680010  23.4649640  45.8374320   4.7744730
  24.7137910  45.8570780   8.1583900  25.0494150  46.4437470   8.8361820
  23.7938250  45.7263490   8.3881690  12.2641310  33.6465960   8.9407310
  11.5499830  33.8462880   9.5459920  12.6836350  32.8705530   9.3122110
  12.5513900  47.6346220   9.9273840  12.6605020  46.6940960   9.7869230
  11.8994460  47.9000970   9.2787570  20.5426490  45.9062110  11.3271960
  20.2223360  45.1871350  11.8717650  19.8684850  46.5817180  11.4008020
  23.7580090  36.1388270   6.6908760  24.1260910  35.3183480   7.0188330
  22.8978290  36.1990160   7.1064410  20.7182080  38.7927860   6.9146730
  21.2167330  39.2673680   7.5798580  20.8605030  37.8691380   7.1216760
  27.9248940  35.0095820   7.7575120  27.4222540  35.7501220   8.0968930
  28.7405600  35.3979820   7.4411910  28.2196530  47.4237850   2.8790740
  28.3443950  48.2469020   3.3514550  29.0862090  47.2128580   2.5314890
  15.6914060  49.5169060   2.5507870  16.4276540  48.9684520   2.8216440
  16.0754980  50.3825070   2.4113860  14.6972340  48.7015130  11.7393450
  15.4985070  49.0227180  12.1528850  14.1824160  48.3410710  12.4613360
  23.5336970  44.8095000  11.6868860  22.9275130  44.8326600  10.9464610
  23.2291080  44.0778040  12.2236110  24.9637340  48.5375290  10.2978270
  25.9159090  48.4533310  10.2478510  24.8165560  49.2017000  10.9712060
  12.4170150  41.1888590  10.6829500  12.9209170  40.6095870  11.2545730
  11.6777570  41.4728820  11.2205870  19.4708090  42.5959580  10.2165020
  18.7053760  43.1644580  10.1319690  19.6524050  42.3035790   9.3233250
  26.6131440  44.3264910  10.7740040  27.3540910  44.6640670  10.2707500
  25.8504120  44.4956970  10.2209810  14.4493230  39.3318180  11.5779570
  14.4898570  39.0332050  12.4864800  15.3038730  39.7325790  11.4187090
  16.3899040  37.9110280   9.5454060  15.8595500  37.4201230   8.9177400
  17.0587110  38.3394480   9.0111990  25.2877100  42.3779740   9.3095250
  25.7018120  42.5324820  10.1585670  24.3528100  42.5034960   9.4721030
  25.7599270  39.7175900  11.3134400  26.3420040  38.9628220  11.2254880
  25.9361040  40.2483340  10.5365880  16.8771340  34.8772650   9.6251350
  16.7828210  34.2593400   8.9002220  16.2968730  35.6038940   9.3981260
  19.6432780  33.4345890   6.6578740  19.1950080  33.4570150   5.8124290
  19.0097980  33.0364910   7.2549040  20.0492330  42.3300220   7.2791180
  20.4680440  43.1732950   7.1067420  19.1300960  42.4672260   7.0497960
  22.3856230  40.0616400   8.6629020  22.5052440  39.4657540   9.4023860
  23.2450230  40.0986090   8.2430320  24.7244130  40.6153590   7.2391530
  24.1979350  41.1396210   6.6356670  25.0675470  41.2480980   7.8701260
  17.8999750  48.6353230   8.3948910  17.3620840  49.3599290   8.0757610
  18.1533710  48.1583570   7.6046250  19.1525000  36.6037750   9.9204840
  19.7424690  36.2953600  10.6082660  18.3345240  36.1317500  10.0764740
  23.9718430  36.2203560  10.1537860  23.2833950  35.5585100  10.0887850
  24.6924450  35.7741830  10.5986320  20.7561960  49.8704440   8.6535560
  20.6820660  50.7739580   8.9607930  19.8540800  49.5516340   8.6257630
  12.1589250  47.1979030   1.9569180  12.4892260  46.3300090   1.7247820
  12.5880250  47.4037550   2.7874140  12.6479460  48.0649620   4.6950810
  12.2110450  48.2450420   5.5274960  13.2157140  48.8224240   4.5532530
  28.2841640  47.5666620   8.9828120  27.6843630  47.6259180   8.2392040
  28.4135540  46.6271600   9.1124970  26.9693280  44.2918600   7.0804280
  26.1553120  44.7215760   7.3430070  27.3767480  44.9037010   6.4673330
  13.5179820  40.9622420   5.5943030  13.8852860  40.8749820   6.4739050
  12.9490640  40.1988970   5.4949890  28.3183680  39.4306800   8.6073500
  28.0869770  39.2019550   7.7071450  28.5788230  40.3506350   8.5618390
  13.0695820  37.8731510   9.5001450  12.1751870  37.8398270   9.8395160
  13.6093370  38.0718300  10.2652700  26.7571750  34.6563230  11.3853200
  27.6341930  34.6646630  11.7687200  26.7692590  33.9194070  10.7745550
  28.2035020  38.5092770   2.2741220  28.7272500  38.0155420   1.6431390
  28.7894440  38.6443130   3.0188790  28.3824740  38.5932640   5.7960770
  27.4327450  38.5596180   5.9105760  28.5637750  39.5032750   5.5610540
  13.5735530  32.1479840   3.8484670  14.2211720  31.5977220   3.4079830
  13.9937370  32.4022990   4.6700480  27.4687870  32.3421200   7.2054310
  28.1060090  32.9555340   7.5713500  27.6162760  32.3781860   6.2603540
  13.3267530  32.3035510   6.5909990  12.9782350  32.7599330   7.3568170
  12.9955230  31.4092640   6.6732420  14.9331900  45.4755110  10.7563180
  14.8901530  45.1048020  11.6377640  15.0642910  46.4132680  10.8965000
  18.6337930  47.0314700   6.3572900  18.3929290  47.2989260   5.4703420
  19.5740570  47.2020430   6.4123760  20.8392350  33.4947390  10.1129410
  20.7781240  34.0869220  10.8624820  21.7792730  33.3873350   9.9679670
  23.4766910  33.1517450   9.7521700  24.0907320  33.4696740   9.0902780
  24.0216470  32.6666040  10.3717560  29.8942090  49.0509080   7.1583540
  29.4000370  49.4477950   6.4410670  29.2855380  48.4258290   7.5520820
  13.9988170  31.8311710   9.8660760  14.5471160  31.6499760   9.1026870
  14.0643480  31.0405820  10.4017070  14.7719930  48.4217360   7.8760960
  14.1780250  48.2902060   8.6151000  14.7643770  47.5855500   7.4103060
  24.2174950  31.7149590   6.0790990  23.3434790  32.0484700   5.8763920
  24.1085700  31.2422770   6.9042860  25.1246930  33.9220460   7.4632710
  24.7960290  33.1072220   7.0834440  26.0729230  33.8790270   7.3398400
  27.5781540  49.6932500   4.4370280  27.1184510  50.4448310   4.0628300
  26.9494000  48.9738970   4.3785080  14.4032160  45.7875740   6.8269000
  13.6766220  45.1681030   6.7594950  14.4641310  46.1816350   5.9567080
  18.0077260  48.0020740   3.6118410  18.5242280  47.3908100   3.0866670
  18.6574640  48.5049520   4.1029420  20.7472760  48.8929230   4.4387390
  21.0350570  48.6383530   3.5620400  21.2595980  48.3406590   5.0292960
  21.9649770  32.6319430   5.0183900  21.1821560  33.1064930   5.2980660
  21.6712700  31.7274260   4.9097080  26.5170840  33.3342530   3.0632990
  26.9578930  33.2787630   2.2154590  26.2478430  34.2500540   3.1343170
  24.3528970  31.7148630   1.7683000  24.9558340  32.2868840   2.2431520
  23.6121960  32.2788070   1.5456900  20.8145120  49.8145330  11.8055590
  21.7412430  49.5789600  11.8491550  20.7995550  50.6417330  11.3241620
  18.0008730  32.4790080  11.5697470  17.7193000  32.9823680  10.8058290
  18.3828430  31.6811830  11.2039600  24.6024190  31.8943660  12.1477940
  24.4889640  32.2138270  13.0429460  25.4193930  32.2956170  11.8515220
  27.3822680  49.0415190  11.6296630  28.1748000  48.5464420  11.4222590
  27.6755830  49.7205330  12.2372240  23.5082340  21.1392640 151.4804090
  23.4276390  20.2247250 151.2095800  23.0946760  21.6359710 150.7743800
  21.6400380  22.9171660 153.3613360  20.8642480  22.4372100 153.6511930
  22.2913310  22.2377310 153.1869520  25.6607810  27.3231850 152.1412490
  25.1989340  26.5519090 152.4699660  26.4733360  27.3497920 152.6464940
  15.6367470  27.2631560 154.4347140  15.9395510  26.3729300 154.2557360
  16.3811060  27.8201780 154.2069390  14.0658160  18.1893360 148.0231510
  13.1774860  18.5309330 147.9211390  14.3499350  17.9893680 147.1312340
  12.0291170  20.7899010 153.9071210  12.6007280  20.0221210 153.9074850
  12.0292710  21.0887770 152.9977820  21.8871120  29.6089860 151.7616480
  21.2682560  30.0647360 151.1910920  22.7422900  29.7641320 151.3606180
  21.0809370  25.5928850 153.3683520  21.0117650  24.6518790 153.2072650
  21.8429230  25.6830260 153.9406090  22.1114540  18.3999230 153.5952450
  22.4879360  17.5271110 153.4826120  22.0134050  18.7357930 152.7042890
  16.2419550  16.7724860 149.0569890  16.3486300  17.6728590 149.3638650
  15.3311910  16.7242830 148.7664540  25.8938660  15.8949670 150.5280790
  26.7148280  15.4046240 150.5706270  25.9272740  16.4847330 151.2812630
  18.0827280  19.7411230 153.3895070  18.5905500  20.2392200 154.0300090
  18.6140520  18.9646430 153.2134430  22.7534470  24.4929100 149.1548390
  22.1351740  24.9578550 148.5911110  23.2657720  25.1856580 149.5717900
  26.1300140  17.8350050 153.3008330  25.4255710  18.1234940 153.8811440
  26.4912300  18.6450160 152.9407890  12.1217670  25.1785630 146.5288020
  11.7445650  25.6672730 145.7972920  12.3790740  25.8510910 147.1594550
  29.1987060  17.2804840 153.6917540  28.2511970  17.3143820 153.8232970
  29.5237050  18.0943790 154.0766900  19.7306600  13.5802020 151.9873530
  20.0381580  13.0248910 151.2709030  18.8007300  13.7146480 151.8046520
  25.2821660  29.2969310 154.2780990  25.2948820  28.8931600 153.4103250
  24.7296880  30.0716600 154.1742420  26.5767080  26.0185530 149.3671160
  26.4663410  25.0759860 149.4920580  26.5735330  26.3801170 150.2533920
  22.1187360  21.6450850 148.7233650  21.1916640  21.5788230 148.9522120
  22.2712180  22.5830980 148.6088890  22.1056440  17.9167850 145.7200810
  21.1660110  18.0781810 145.8053270  22.4239700  18.6353530 145.1736800
  26.1484650  23.2071150 149.2268900  25.5297070  22.8690700 148.5795200
  26.1309100  22.5630910 149.9348090  17.7244000  22.1715590 151.5053380
  17.3201000  21.4592840 151.0099280  17.8107120  21.8268830 152.3941420
  18.1925700  25.8583150 153.6692590  17.8953990  25.2528620 152.9900370
  19.1425520  25.8960460 153.5581950  24.3249350  22.4457960 146.2341650
  24.7642630  21.6080390 146.0879470  25.0377770  23.0787360 146.3205790
  22.4344730  27.3854030 150.2022890  22.8740640  28.1278360 149.7878280
  22.3731620  27.6280600 151.1261850  27.9066490  13.7000770 144.5482690
  27.5939150  13.7927600 145.4481760  28.6678960  14.2781800 144.4980120
  14.4248630  21.0660570 149.0060030  14.3046230  21.7922660 148.3941300
  14.1149520  20.2963480 148.5287940  13.3081630  25.9375900 151.2234850
  12.9009710  26.0790490 150.3688450  14.1994640  25.6536060 151.0206060
  25.1014910  30.3723150 147.5585900  24.9416050  30.0826090 148.4567730
  24.9361620  29.5963280 147.0231130  17.5803290  30.1521680 149.3357520
  17.4045770  29.2357220 149.1225320  16.7259030  30.5108970 149.5755320
  24.8041040  27.8810710 146.1183900  24.1106200  27.8788000 145.4586180
  25.5463900  27.4570030 145.6878070  24.3690970  29.5073420 150.1932390
  24.8247920  28.7262800 150.5071010  24.7083490  30.2180240 150.7373570
  16.8912290  14.4095640 152.3883700  16.4480440  15.1905180 152.0568220
  17.4497280  14.7325530 153.0954640  20.0071110  14.0306340 147.2689530
  19.3825290  14.0266210 147.9942840  19.9201230  13.1637300 146.8725500
  18.9288190  14.9542970 154.2473300  19.2260520  15.8605800 154.1665320
  19.4773750  14.4661750 153.6332870  16.6826510  19.5329210 150.1164950
  16.4567430  19.3166380 151.0211570  15.9019040  19.9657670 149.7710920
  23.9124270  19.5392580 148.7155600  23.3133160  20.2628380 148.5319220
  24.4603880  19.4769360 147.9332050  22.5189140  18.1756120 150.7458880
  22.9118710  18.4928320 149.9327570  22.8805990  17.2968000 150.8603400
  11.5553310  14.7656920 152.9689080  11.2666360  15.3359780 153.6814060
  12.2999070  14.2861370 153.3320310  11.7423540  18.7077040 144.1791800
  11.6598210  19.6507800 144.3206790  11.3906600  18.5651950 143.3004150
  19.5421670  17.4416070 153.2462150  19.5457730  17.0006020 152.3966690
  20.4372790  17.7633400 153.3533970  15.3924050  17.3242560 152.2056360
  15.0524100  17.8017790 152.9623410  14.6301370  16.8707680 151.8457460
  19.6041820  18.4428150 146.2368910  19.7254640  18.4014630 147.1854730
  19.2190330  19.3052300 146.0815640  18.6163320  20.7529290 145.6352210
  18.0480220  20.3047540 145.0088120  19.3252320  21.1122070 145.1017360
  12.7070130  16.2461540 151.1221030  12.4217050  15.8817210 151.9599650
  12.6448990  15.5142000 150.5084170  16.1610800  24.7487480 147.9078620
  15.3873060  24.2085100 147.7477340  16.8905430  24.2294090 147.5696380
  26.9198780  23.7452840 153.7005010  27.6397900  24.2408130 153.3101120
  26.7180600  23.0670730 153.0558880  22.3808720  15.1390800 147.8434400
  21.5673330  14.6403970 147.7679710  22.1870670  15.9789050 147.4270750
  25.0957110  19.5110450 146.1396560  25.9836730  19.8227680 145.9647900
  25.0662200  18.6382700 145.7477140  16.2048200  24.4167860 151.5457430
  16.7226870  23.6136120 151.4914320  15.7532220  24.3547000 152.3874260
  21.0917700  25.6834140 146.8184730  21.4333400  26.4276370 146.3228050
  20.2630410  25.9965260 147.1809560  27.3671380  20.8222290 145.6076420
  27.2835100  21.2536510 144.7572860  28.0865570  21.2820640 146.0403240
  28.3958630  27.6764550 148.3358550  27.7534790  27.0220170 148.6102270
  28.0089290  28.0819640 147.5599220  23.9745110  25.0049980 152.1830240
  24.3268930  24.4078110 151.5231610  23.0907440  24.6794210 152.3538490
  20.0608390  25.7647670 149.5900650  20.7479520  26.3116880 149.9708240
  19.2740810  26.3088400 149.6250260  12.2000790  21.3820490 145.0817730
  13.0695640  21.6645290 145.3653650  11.7091110  22.1956360 144.9666540
  19.3635600  22.7693700 149.2026010  19.8198380  23.5798950 149.4286200
  19.0123810  22.4516840 150.0344500  15.2647380  13.1131350 149.6748530
  15.1362010  13.1049250 150.6233450  14.4409400  13.4514440 149.3239540
  26.7856010  26.5681010 144.8734900  26.5593590  25.8511450 145.4659540
  26.3952210  26.3193450 144.0356650  12.5672040  30.5947870 145.6479360
  12.9269680  31.1937210 144.9936630  12.4264380  31.1407760 146.4214390
  26.3672260  24.4852950 146.5349060  26.0793960  24.9465640 147.3226940
  27.1624430  24.0250720 146.8033280  18.5840660  27.9779070 146.4653030
  18.5750760  28.7108760 145.8497540  17.6639020  27.7310650 146.5579990
  14.1847300  23.1993960 147.2099790  13.5775250  23.9392860 147.2195090
  14.6596650  23.2893320 146.3837990  27.1242120  16.3201720 147.6944240
  26.4955280  16.4247390 146.9802470  26.6294040  16.5398500 148.4838120
  21.5700260  28.0407310 145.1278220  21.6712240  27.8371300 144.1980200
  20.6702000  27.7865590 145.3326000  19.0926150  18.5987670 149.1102120
  18.3842300  19.0674010 149.5515730  19.3770630  17.9409680 149.7447310
  23.1241580  15.3238330 150.5497910  23.0009360  15.3424460 149.6007420
  24.0726140  15.3717270 150.6696310  20.2118370  30.5593630 149.8225890
  20.4659870  30.5215020 148.9005260  19.2630850  30.4326960 149.8154140
  17.2961170  16.9072750 146.4852830  18.1451700  17.3442900 146.4193020
  16.9292440  17.2193010 147.3124890  26.2170950  21.4785510 151.3984400
  25.2761090  21.4935740 151.5732090  26.5315020  20.6921470 151.8444700
  16.1952590  23.1605110 144.9588360  16.9615860  23.0486470 145.5213790
  16.2727280  22.4643080 144.3065130  14.8899350  20.5930180 145.6421250
  14.9702940  19.6457690 145.7538650  15.7819100  20.9237060 145.7481910
  28.2196530  28.6494360 153.0738660  28.3443950  29.4725530 153.5462470
  29.0862090  28.4385090 152.7262810  15.6914060  30.7425570 152.7455790
  16.4276540  30.1941030 153.0164360  16.0754980  31.6081580 152.6061780
  12.5759540  26.8099140 148.6197300  11.6499320  27.0520280 148.6102710
  13.0415970  27.6373400 148.4982050  18.8016370  29.9155880 144.5681360
  19.5944980  30.2044710 144.1163150  18.2820720  29.4848050 143.8893840
  27.8546540  29.1426010 145.9918100  27.5688050  28.7291150 145.1772280
  27.6566090  30.0713720 145.8718620  19.3193770  25.1359290 144.4323710
  19.2144410  24.5211640 145.1585090  19.1517990  24.6125180 143.6486720
  22.5596500  24.1979320 145.0365700  22.0106600  24.6448620 145.6808440
  23.1815760  23.6928570 145.5603370  18.2271620  23.1570240 146.9331000
  18.6488040  22.9910110 147.7762390  18.3522460  22.3470470 146.4386140
  20.7399260  22.1807850 144.1808100  21.2604920  21.4656870 143.8149250
  21.3867660  22.8193720 144.4808610  17.1230520  19.2303470 143.8789160
  16.9219580  18.3670830 144.2402500  16.9522570  19.1436830 142.9410760
  24.6018830  14.0411700 146.4076040  24.8821120  13.1979600 146.7635460
  23.8284560  14.2734810 146.9214790  15.9213320  16.3304090 143.8667040
  16.2239220  16.3371520 142.9586190  16.6607910  15.9801950 144.3634700
  19.1398250  15.2738710 144.8523240  18.7920250  14.5962700 144.2725690
  19.3411020  14.8128220 145.6666630  21.3047290  30.2619460 146.4709840
  22.1998080  30.6004430 146.4928600  21.3364920  29.5398870 145.8434120
  14.9443450  25.6346510 144.6996840  15.3818320  26.1776180 145.3554420
  15.4291180  24.8093460 144.7093180  12.1589250  28.4235540 152.1517100
  12.4892260  27.5556600 151.9195740  12.5880250  28.6294060 152.9822060
  16.7551170  26.7544550 149.8119070  16.4546710  26.6309520 150.7122980
  16.6488660  25.8953140 149.4034800  29.5243090  26.5340950 144.5145750
  28.6936050  26.6017600 144.9852980  29.7014920  27.4245070 144.2112610
  28.9799550  23.2788430 147.0179950  29.7418460  23.8485080 147.1239640
  28.9953920  22.7115630 147.7888260  12.4803890  21.8026360 151.2487610
  11.8252730  21.5338000 150.6047310  13.3181840  21.6930840 150.7989590
  29.9859520  24.1338530 151.8621880  30.3568350  23.3505850 151.4557850
  30.6261450  24.8227630 151.6839180  29.0318720  23.5722800 144.1752470
  29.3067560  24.4801680 144.0471690  28.8429460  23.5085330 145.1114460
  25.4294330  16.5967650 145.4706100  25.8479210  16.4098630 144.6302760
  25.1230390  15.7446700 145.7809030  28.9284060  21.5091790 149.1681900
  28.5527660  20.7419720 148.7363190  28.1987180  21.8914490 149.6556830
  11.6941970  19.0125290 147.1912940  10.7906050  19.2755490 147.0164600
  12.1782590  19.2836460 146.4112900  28.2035020  19.7349280 152.4689140
  28.7272500  19.2411930 151.8379310  28.7894440  19.8699640 153.2136710
  14.2369180  18.0690830 145.1007320  14.9460880  17.6474050 144.6154600
  13.5209120  18.1366060 144.4690670  13.8843340  14.1230160 144.1409970
  14.6071470  14.6639100 144.4591190  14.1567860  13.8493580 143.2651510
  27.6934990  18.9922630 148.4081550  28.1894110  18.7593500 149.1930430
  27.4951060  18.1534470 147.9919190  29.1222150  17.6283580 150.9419230
  29.0121430  17.4739620 151.8801500  29.8829740  17.1004520 150.6994640
  30.0112420  15.4591500 144.1825370  30.9361730  15.3272680 143.9743660
  29.9888210  15.5384320 145.1361820  30.0850910  16.2302160 146.8082080
  29.2902410  16.1647280 147.3374990  30.2894190  17.1652800 146.7967430
  27.0269330  30.2693710 150.8020470  27.6228400  29.9478280 150.1254890
  27.2847480  29.7965530 151.5933740  18.0077260  29.2277250 153.8066330
  18.5242280  28.6164610 153.2814590  18.6574640  29.7306030 154.2977340
  26.5170840  14.5599040 153.2580910  26.9578930  14.5044140 152.4102510
  26.2478430  15.4757050 153.3291090  28.3809410  14.1914280 151.2689730
  28.3197810  13.2475500 151.1220750  29.1601440  14.2994370 151.8143190
  12.6862160  30.3306640 150.2313680  12.5184200  29.6977320 150.9295570
  11.8196670  30.5366040 149.8807870  13.3090180  14.1623420 147.7345540
  14.0669540  14.2752300 147.1609570  12.8467350  14.9992620 147.6888970
  19.8503990  16.2762690 150.7247850  19.0378500  15.9019580 150.3843730
  20.3545630  15.5207770 151.0269040  24.3528970  12.9405140 151.9630920
  24.9558340  13.5125350 152.4379440  23.6121960  13.5044580 151.7404820
  27.4963570  13.3426700 147.2371200  27.6914200  14.2410150 147.5038630
  26.7093440  13.1113780 147.7304150  14.2924860  29.0239870 147.6763820
  13.7672480  29.4047900 146.9725780  14.2169440  29.6490640 148.3973530
  15.6815330  14.6887470 146.2747510  16.2108090  13.9017270 146.1455460
  16.3143650  15.3678660 146.5083040  17.8753170  14.4262610 149.3292900
  17.2455910  13.7249920 149.4963030  17.3358310  15.1866740 149.1126060
  29.0490180  30.5827410 148.9977760  29.2242370  29.8965150 148.3538680
  28.3511750  31.1074460 148.6054430  16.8917830  30.9722250 146.5513070
  17.6236650  30.6881530 146.0036960  17.1511500  30.7335530 147.4412450
  16.0532620  27.0886980 146.5559400  15.4241500  27.5572080 147.1045230
  16.1680450  26.2436200 146.9905590  23.5082340  21.1392640 132.7060600
  23.4276390  20.2247250 132.4352310  23.0946760  21.6359710 132.0000310
  21.6400380  22.9171660 134.5869870  20.8642480  22.4372100 134.8768440
  22.2913310  22.2377310 134.4126030  15.6566210  23.2291470 135.4645630
  14.8251090  22.9740180 135.8642140  16.2647190  23.3002240 136.2003550
  25.6607810  27.3231850 133.3669000  25.1989340  26.5519090 133.6956170
  26.4733360  27.3497920 133.8721450  15.6367470  27.2631560 135.6603650
  15.9395510  26.3729300 135.4813870  16.3811060  27.8201780 135.4325900
  14.0658160  18.1893360 129.2488020  13.1774860  18.5309330 129.1467900
  14.3499350  17.9893680 128.3568850  12.0291170  20.7899010 135.1327720
  12.6007280  20.0221210 135.1331360  12.0292710  21.0887770 134.2234330
  21.8871120  29.6089860 132.9872990  21.2682560  30.0647360 132.4167430
  22.7422900  29.7641320 132.5862690  21.0809370  25.5928850 134.5940030
  21.0117650  24.6518790 134.4329160  21.8429230  25.6830260 135.1662600
  13.2716040  16.1983370 136.9196650  13.0918880  15.3009120 137.1999410
  12.8696120  16.7455240 137.5943600  22.1114540  18.3999230 134.8208960
  22.4879360  17.5271110 134.7082630  22.0134050  18.7357930 133.9299400
  16.2419550  16.7724860 130.2826400  16.3486300  17.6728590 130.5895160
  15.3311910  16.7242830 129.9921050  25.8938660  15.8949670 131.7537300
  26.7148280  15.4046240 131.7962780  25.9272740  16.4847330 132.5069140
  13.8902710  18.6943870 135.5278990  14.5712820  18.9582240 136.1466390
  13.5750760  17.8544740 135.8617000  18.0827280  19.7411230 134.6151580
  18.5905500  20.2392200 135.2556600  18.6140520  18.9646430 134.4390940
  30.1838210  17.9116420 138.3180930  29.4790380  18.2998130 137.7996040
  30.4496130  18.6066710 138.9201860  16.3663380  14.3809790 138.8815000
  16.3681820  14.8982180 138.0760900  15.5367690  13.9039970 138.8584930
  22.7534470  24.4929100 130.3804900  22.1351740  24.9578550 129.8167620
  23.2657720  25.1856580 130.7974410  17.6166230  24.0204970 137.0588500
  17.2835610  24.6473890 137.7009570  17.7932910  24.5466850 136.2790170
  26.1300140  17.8350050 134.5264840  25.4255710  18.1234940 135.1067950
  26.4912300  18.6450160 134.1664400  16.0478710  16.0919750 136.8885450
  16.3895520  16.9361800 136.5939320  15.1094520  16.2403490 137.0050790
  16.8285330  25.9885770 138.8737680  17.4459330  26.6636850 138.5922130
  15.9678450  26.3973750 138.7825180  12.1217670  25.1785630 127.7544530
  11.7445650  25.6672730 127.0229430  12.3790740  25.8510910 128.3851060
  27.7462920  27.4525180 136.7892320  27.0626440  28.1224290 136.7808990
  28.2857210  27.6505830 136.0237180  29.1987060  17.2804840 134.9174050
  28.2511970  17.3143820 135.0489480  29.5237050  18.0943790 135.3023410
  19.7306600  13.5802020 133.2130040  20.0381580  13.0248910 132.4965540
  18.8007300  13.7146480 133.0303030  25.2821660  29.2969310 135.5037500
  25.2948820  28.8931600 134.6359760  24.7296880  30.0716600 135.3998930
  26.5767080  26.0185530 130.5927670  26.4663410  25.0759860 130.7177090
  26.5735330  26.3801170 131.4790430  24.6807100  24.1999150 136.8320110
  25.0975890  23.9859260 135.9973570  25.4046920  24.4571940 137.4028730
  22.1187360  21.6450850 129.9490160  21.1916640  21.5788230 130.1778630
  22.2712180  22.5830980 129.8345400  22.1056440  17.9167850 126.9457320
  21.1660110  18.0781810 127.0309780  22.4239700  18.6353530 126.3993310
  28.6269200  22.5986370 136.9236350  27.7987830  22.6679460 136.4486480
  29.2219680  23.1840680 136.4552180  26.1484650  23.2071150 130.4525410
  25.5297070  22.8690700 129.8051710  26.1309100  22.5630910 131.1604600
  25.5911210  19.3855690 137.8691220  25.1782390  20.2109400 138.1231210
  24.8587160  18.8000730 137.6767580  17.7244000  22.1715590 132.7309890
  17.3201000  21.4592840 132.2355790  17.8107120  21.8268830 133.6197930
  18.1925700  25.8583150 134.8949100  17.8953990  25.2528620 134.2156880
  19.1425520  25.8960460 134.7838460  16.4372620  18.9458800 136.5108930
  16.9887210  19.0554140 135.7362180  16.9516130  19.3196400 137.2264160
  26.2811310  29.4315020 138.5572200  25.8041870  30.2387210 138.3644810
  25.5973100  28.7793350 138.7098410  17.2844130  25.5964840 141.5456900
  16.3872660  25.8204810 141.7930300  17.3097000  25.7199780 140.5968300
  24.3249350  22.4457960 127.4598160  24.7642630  21.6080390 127.3135980
  25.0377770  23.0787360 127.5462300  16.1115350  22.4678160 140.1214270
  15.9723120  23.3400960 140.4901670  15.2296710  22.1250970 139.9762210
  22.4344730  27.3854030 131.4279400  22.8740640  28.1278360 131.0134790
  22.3731620  27.6280600 132.3518360  17.9095700  28.4099860 142.3299420
  17.8811130  28.8142810 141.4627850  17.7460670  27.4810220 142.1671020
  27.9066490  13.7000770 125.7739200  27.5939150  13.7927600 126.6738270
  28.6678960  14.2781800 125.7236630  14.4248630  21.0660570 130.2316540
  14.3046230  21.7922660 129.6197810  14.1149520  20.2963480 129.7544450
  29.8610520  29.1926960 143.6263590  30.3370240  29.6709850 144.3052670
  30.4817680  29.1244450 142.9009090  12.0634000  24.2375710 136.0385180
  12.1414420  24.3724480 135.0940900  12.6775680  23.5291600 136.2313300
  13.3081630  25.9375900 132.4491360  12.9009710  26.0790490 131.5944960
  14.1994640  25.6536060 132.2462570  29.2643770  26.3839810 140.7863600
  29.3906830  26.1451690 139.8680780  29.3065150  25.5524350 141.2585680
  23.1260510  30.0867810 139.3558410  23.6405180  29.9975820 140.1580840
  22.2829590  30.4327510 139.6486320  25.1014910  30.3723150 128.7842410
  24.9416050  30.0826090 129.6824240  24.9361620  29.5963280 128.2487640
  17.5803290  30.1521680 130.5614030  17.4045770  29.2357220 130.3481830
  16.7259030  30.5108970 130.8011830  24.8041040  27.8810710 127.3440410
  24.1106200  27.8788000 126.6842690  25.5463900  27.4570030 126.9134580
  24.3690970  29.5073420 131.4188900  24.8247920  28.7262800 131.7327520
  24.7083490  30.2180240 131.9630080  29.1167780  18.4372270 141.7513340
  28.5012050  18.9451940 141.2228800  28.7964200  17.5370600 141.6939280
  12.1193520  25.2789880 138.5779640  12.2824560  24.8095240 137.7599010
  12.5845970  24.7713440 139.2428480  16.8912290  14.4095640 133.6140210
  16.4480440  15.1905180 133.2824730  17.4497280  14.7325530 134.3211150
  21.1782100  17.2764160 139.2175530  20.7161470  17.4847180 140.0295470
  20.7760210  16.4623510 138.9146200  26.1786610  18.4973110 140.3472190
  25.3280200  18.1978860 140.6681260  26.0188400  18.7415120 139.4356010
  23.2736320  19.9974860 142.4470980  23.5989730  19.1638610 142.1073210
  24.0616650  20.5203380 142.5949310  20.0071110  14.0306340 128.4946040
  19.3825290  14.0266210 129.2199350  19.9201230  13.1637300 128.0982010
  18.9288190  14.9542970 135.4729810  19.2260520  15.8605800 135.3921830
  19.4773750  14.4661750 134.8589380  16.6826510  19.5329210 131.3421460
  16.4567430  19.3166380 132.2468080  15.9019040  19.9657670 130.9967430
  23.9124270  19.5392580 129.9412110  23.3133160  20.2628380 129.7575730
  24.4603880  19.4769360 129.1588560  19.1225720  20.4314790 142.0081730
  19.0269320  19.4909520 141.8582130  19.9657700  20.6529860 141.6129800
  22.5189140  18.1756120 131.9715390  22.9118710  18.4928320 131.1584080
  22.8805990  17.2968000 132.0859910  14.2536260  16.8428460 140.1615510
  13.8599650  17.6903670 140.3688290  13.5654660  16.2054830 140.3524150
  20.8281310  16.9263430 143.2312250  20.1379630  16.7335630 143.8658340
  21.5713610  17.2098070 143.7636550  11.5553310  14.7656920 134.1945590
  11.2666360  15.3359780 134.9070570  12.2999070  14.2861370 134.5576820
  11.7423540  18.7077040 125.4048310  11.6598210  19.6507800 125.5463300
  11.3906600  18.5651950 124.5260660  23.1044280  20.7661870 136.0666170
  22.3725400  21.2748680 136.4156270  22.7068620  19.9491850 135.7654950
  19.5421670  17.4416070 134.4718660  19.5457730  17.0006020 133.6223200
  20.4372790  17.7633400 134.5790480  15.3924050  17.3242560 133.4312870
  15.0524100  17.8017790 134.1879920  14.6301370  16.8707680 133.0713970
  19.6041820  18.4428150 127.4625420  19.7254640  18.4014630 128.4111240
  19.2190330  19.3052300 127.3072150  23.5670190  16.2195550 135.4789110
  23.5842930  16.6704200 136.3230960  23.3185770  15.3201190 135.6922550
  18.6163320  20.7529290 126.8608720  18.0480220  20.3047540 126.2344630
  19.3252320  21.1122070 126.3273870  26.9940940  13.6327730 141.3175490
  27.3186710  12.9017390 141.8433470  27.0297450  13.3141370 140.4156480
  13.6932500  24.6541310 140.7375450  13.3087290  24.0134980 141.3358410
  14.0044690  25.3577430 141.3070180  19.8429640  21.5017850 136.2184070
  20.2099770  21.0276420 136.9645410  19.6534700  22.3759420 136.5592410
  12.7070130  16.2461540 132.3477540  12.4217050  15.8817210 133.1856160
  12.6448990  15.5142000 131.7340680  17.6329010  20.5426490 138.5368280
  17.3286080  21.4218470 138.7618640  18.5875470  20.6026280 138.5725720
  16.1610800  24.7487480 129.1335130  15.3873060  24.2085100 128.9733850
  16.8905430  24.2294090 128.7952890  26.9198780  23.7452840 134.9261520
  27.6397900  24.2408130 134.5357630  26.7180600  23.0670730 134.2815390
  22.3808720  15.1390800 129.0690910  21.5673330  14.6403970 128.9936220
  22.1870670  15.9789050 128.6527260  22.3017580  23.8161900 140.8130520
  22.2354890  22.8957570 140.5588110  21.6722720  23.9137340 141.5275160
  25.0957110  19.5110450 127.3653070  25.9836730  19.8227680 127.1904410
  25.0662200  18.6382700 126.9733650  16.2048200  24.4167860 132.7713940
  16.7226870  23.6136120 132.7170830  15.7532220  24.3547000 133.6130770
  21.0917700  25.6834140 128.0441240  21.4333400  26.4276370 127.5484560
  20.2630410  25.9965260 128.4066070  13.6892740  21.3829230 139.6839640
  13.3307680  22.0483080 140.2712980  13.3947300  20.5512780 140.0552260
  16.8905860  21.8413470 142.5679190  16.5906000  21.9870650 141.6707010
  17.6617100  21.2818760 142.4752580  22.2334310  26.6382470 140.5634320
  22.2478850  25.7063430 140.3453230  21.5259410  26.7242230 141.2024090
  27.3671380  20.8222290 126.8332930  27.2835100  21.2536510 125.9829370
  28.0865570  21.2820640 127.2659750  28.4445520  23.2789810 139.9102900
  27.7193710  23.8718590 139.7132290  28.9720980  23.2713350 139.1116270
  28.3958630  27.6764550 129.5615060  27.7534790  27.0220170 129.8358780
  28.0089290  28.0819640 128.7855730  23.9745110  25.0049980 133.4086750
  24.3268930  24.4078110 132.7488120  23.0907440  24.6794210 133.5795000
  20.0608390  25.7647670 130.8157160  20.7479520  26.3116880 131.1964750
  19.2740810  26.3088400 130.8506770  12.2000790  21.3820490 126.3074240
  13.0695640  21.6645290 126.5910160  11.7091110  22.1956360 126.1923050
  19.3635600  22.7693700 130.4282520  19.8198380  23.5798950 130.6542710
  19.0123810  22.4516840 131.2601010  21.6668210  28.2800040 137.6574820
  22.3110430  28.4859420 138.3348240  22.0297650  27.5188440 137.2045670
  15.2647380  13.1131350 130.9005040  15.1362010  13.1049250 131.8489960
  14.4409400  13.4514440 130.5496050  22.9400290  26.2832390 136.3752270
  23.5822520  25.5825550 136.4884440  23.4649640  27.0630830 136.1949160
  26.7856010  26.5681010 126.0991410  26.5593590  25.8511450 126.6916050
  26.3952210  26.3193450 125.2613160  24.7137910  27.0827290 139.5788330
  25.0494150  27.6693980 140.2566250  23.7938250  26.9520000 139.8086120
  12.5672040  30.5947870 126.8735870  12.9269680  31.1937210 126.2193140
  12.4264380  31.1407760 127.6470900  12.2641310  14.8722470 140.3611740
  11.5499830  15.0719390 140.9664350  12.6836350  14.0962040 140.7326540
  26.3672260  24.4852950 127.7605570  26.0793960  24.9465640 128.5483450
  27.1624430  24.0250720 128.0289790  12.5513900  28.8602730 141.3478270
  12.6605020  27.9197470 141.2073660  11.8994460  29.1257480 140.6992000
  20.5426490  27.1318620 142.7476390  20.2223360  26.4127860 143.2922080
  19.8684850  27.8073690 142.8212450  18.5840660  27.9779070 127.6909540
  18.5750760  28.7108760 127.0754050  17.6639020  27.7310650 127.7836500
  14.1847300  23.1993960 128.4356300  13.5775250  23.9392860 128.4451600
  14.6596650  23.2893320 127.6094500  23.7580090  17.3644780 138.1113190
  24.1260910  16.5439990 138.4392760  22.8978290  17.4246670 138.5268840
  27.1242120  16.3201720 128.9200750  26.4955280  16.4247390 128.2058980
  26.6294040  16.5398500 129.7094630  21.5700260  28.0407310 126.3534730
  21.6712240  27.8371300 125.4236710  20.6702000  27.7865590 126.5582510
  19.0926150  18.5987670 130.3358630  18.3842300  19.0674010 130.7772240
  19.3770630  17.9409680 130.9703820  20.7182080  20.0184370 138.3351160
  21.2167330  20.4930190 139.0003010  20.8605030  19.0947890 138.5421190
  23.1241580  15.3238330 131.7754420  23.0009360  15.3424460 130.8263930
  24.0726140  15.3717270 131.8952820  20.2118370  30.5593630 131.0482400
  20.4659870  30.5215020 130.1261770  19.2630850  30.4326960 131.0410650
  17.2961170  16.9072750 127.7109340  18.1451700  17.3442900 127.6449530
  16.9292440  17.2193010 128.5381400  27.9248940  16.2352330 139.1779550
  27.4222540  16.9757730 139.5173360  28.7405600  16.6236330 138.8616340
  26.2170950  21.4785510 132.6240910  25.2761090  21.4935740 132.7988600
  26.5315020  20.6921470 133.0701210  16.1952590  23.1605110 126.1844870
  16.9615860  23.0486470 126.7470300  16.2727280  22.4643080 125.5321640
  14.8899350  20.5930180 126.8677760  14.9702940  19.6457690 126.9795160
  15.7819100  20.9237060 126.9738420  28.2196530  28.6494360 134.2995170
  28.3443950  29.4725530 134.7718980  29.0862090  28.4385090 133.9519320
  15.6914060  30.7425570 133.9712300  16.4276540  30.1941030 134.2420870
  16.0754980  31.6081580 133.8318290  12.5759540  26.8099140 129.8453810
  11.6499320  27.0520280 129.8359220  13.0415970  27.6373400 129.7238560
  14.6972340  29.9271640 143.1597880  15.4985070  30.2483690 143.5733280
  14.1824160  29.5667220 143.8817790  18.8016370  29.9155880 125.7937870
  19.5944980  30.2044710 125.3419660  18.2820720  29.4848050 125.1150350
  23.5336970  26.0351510 143.1073290  22.9275130  26.0583110 142.3669040
  23.2291080  25.3034550 143.6440540  24.9637340  29.7631800 141.7182700
  25.9159090  29.6789820 141.6682940  24.8165560  30.4273510 142.3916490
  27.8546540  29.1426010 127.2174610  27.5688050  28.7291150 126.4028790
  27.6566090  30.0713720 127.0975130  12.4170150  22.4145100 142.1033930
  12.9209170  21.8352380 142.6750160  11.6777570  22.6985330 142.6410300
  19.3193770  25.1359290 125.6580220  19.2144410  24.5211640 126.3841600
  19.1517990  24.6125180 124.8743230  19.4708090  23.8216090 141.6369450
  18.7053760  24.3901090 141.5524120  19.6524050  23.5292300 140.7437680
  22.5596500  24.1979320 126.2622210  22.0106600  24.6448620 126.9064950
  23.1815760  23.6928570 126.7859880  26.6131440  25.5521420 142.1944470
  27.3540910  25.8897180 141.6911930  25.8504120  25.7213480 141.6414240
  14.4493230  20.5574690 142.9984000  14.4898570  20.2588560 143.9069230
  15.3038730  20.9582300 142.8391520  18.2271620  23.1570240 128.1587510
  18.6488040  22.9910110 129.0018900  18.3522460  22.3470470 127.6642650
  16.3899040  19.1366790 140.9658490  15.8595500  18.6457740 140.3381830
  17.0587110  19.5650990 140.4316420  20.7399260  22.1807850 125.4064610
  21.2604920  21.4656870 125.0405760  21.3867660  22.8193720 125.7065120
  25.2877100  23.6036250 140.7299680  25.7018120  23.7581330 141.5790100
  24.3528100  23.7291470 140.8925460  25.7599270  20.9432410 142.7338830
  26.3420040  20.1884730 142.6459310  25.9361040  21.4739850 141.9570310
  16.8771340  16.1029160 141.0455780  16.7828210  15.4849910 140.3206650
  16.2968730  16.8295450 140.8185690  19.6432780  14.6602400 138.0783170
  19.1950080  14.6826660 137.2328720  19.0097980  14.2621420 138.6753470
  20.0492330  23.5556730 138.6995610  20.4680440  24.3989460 138.5271850
  19.1300960  23.6928770 138.4702390  22.3856230  21.2872910 140.0833450
  22.5052440  20.6914050 140.8228290  23.2450230  21.3242600 139.6634750
  24.7244130  21.8410100 138.6595960  24.1979350  22.3652720 138.0561100
  25.0675470  22.4737490 139.2905690  17.1230520  19.2303470 125.1045670
  16.9219580  18.3670830 125.4659010  16.9522570  19.1436830 124.1667270
  17.8999750  29.8609740 139.8153340  17.3620840  30.5855800 139.4962040
  18.1533710  29.3840080 139.0250680  19.1525000  17.8294260 141.3409270
  19.7424690  17.5210110 142.0287090  18.3345240  17.3574010 141.4969170
  23.9718430  17.4460070 141.5742290  23.2833950  16.7841610 141.5092280
  24.6924450  16.9998340 142.0190750  24.6018830  14.0411700 127.6332550
  24.8821120  13.1979600 127.9891970  23.8284560  14.2734810 128.1471300
  15.9213320  16.3304090 125.0923550  16.2239220  16.3371520 124.1842700
  16.6607910  15.9801950 125.5891210  20.7561960  31.0960950 140.0739990
  20.6820660  31.9996090 140.3812360  19.8540800  30.7772850 140.0462060
  19.1398250  15.2738710 126.0779750  18.7920250  14.5962700 125.4982200
  19.3411020  14.8128220 126.8923140  21.3047290  30.2619460 127.6966350
  22.1998080  30.6004430 127.7185110  21.3364920  29.5398870 127.0690630
  14.9443450  25.6346510 125.9253350  15.3818320  26.1776180 126.5810930
  15.4291180  24.8093460 125.9349690  12.1589250  28.4235540 133.3773610
  12.4892260  27.5556600 133.1452250  12.5880250  28.6294060 134.2078570
  16.7551170  26.7544550 131.0375580  16.4546710  26.6309520 131.9379490
  16.6488660  25.8953140 130.6291310  12.6479460  29.2906130 136.1155240
  12.2110450  29.4706930 136.9479390  13.2157140  30.0480750 135.9736960
  28.2841640  28.7923130 140.4032550  27.6843630  28.8515690 139.6596470
  28.4135540  27.8528110 140.5329400  29.5243090  26.5340950 125.7402260
  28.6936050  26.6017600 126.2109490  29.7014920  27.4245070 125.4369120
  28.9799550  23.2788430 128.2436460  29.7418460  23.8485080 128.3496150
  28.9953920  22.7115630 129.0144770  12.4803890  21.8026360 132.4744120
  11.8252730  21.5338000 131.8303820  13.3181840  21.6930840 132.0246100
  29.9859520  24.1338530 133.0878390  30.3568350  23.3505850 132.6814360
  30.6261450  24.8227630 132.9095690  26.9693280  25.5175110 138.5008710
  26.1553120  25.9472270 138.7634500  27.3767480  26.1293520 137.8877760
  29.0318720  23.5722800 125.4008980  29.3067560  24.4801680 125.2728200
  28.8429460  23.5085330 126.3370970  25.4294330  16.5967650 126.6962610
  25.8479210  16.4098630 125.8559270  25.1230390  15.7446700 127.0065540
  28.9284060  21.5091790 130.3938410  28.5527660  20.7419720 129.9619700
  28.1987180  21.8914490 130.8813340  13.5179820  22.1878930 137.0147460
  13.8852860  22.1006330 137.8943480  12.9490640  21.4245480 136.9154320
  28.3183680  20.6563310 140.0277930  28.0869770  20.4276060 139.1275880
  28.5788230  21.5762860 139.9822820  13.0695820  19.0988020 140.9205880
  12.1751870  19.0654780 141.2599590  13.6093370  19.2974810 141.6857130
  26.7571750  15.8819740 142.8057630  27.6341930  15.8903140 143.1891630
  26.7692590  15.1450580 142.1949980  11.6941970  19.0125290 128.4169450
  10.7906050  19.2755490 128.2421110  12.1782590  19.2836460 127.6369410
  28.2035020  19.7349280 133.6945650  28.7272500  19.2411930 133.0635820
  28.7894440  19.8699640 134.4393220  28.3824740  19.8189150 137.2165200
  27.4327450  19.7852690 137.3310190  28.5637750  20.7289260 136.9814970
  14.2369180  18.0690830 126.3263830  14.9460880  17.6474050 125.8411110
  13.5209120  18.1366060 125.6947180  13.8843340  14.1230160 125.3666480
  14.6071470  14.6639100 125.6847700  14.1567860  13.8493580 124.4908020
  27.6934990  18.9922630 129.6338060  28.1894110  18.7593500 130.4186940
  27.4951060  18.1534470 129.2175700  13.5735530  13.3736350 135.2689100
  14.2211720  12.8233730 134.8284260  13.9937370  13.6279500 136.0904910
  29.1222150  17.6283580 132.1675740  29.0121430  17.4739620 133.1058010
  29.8829740  17.1004520 131.9251150  27.4687870  13.5677710 138.6258740
  28.1060090  14.1811850 138.9917930  27.6162760  13.6038370 137.6807970
  30.0112420  15.4591500 125.4081880  30.9361730  15.3272680 125.2000170
  29.9888210  15.5384320 126.3618330  30.0850910  16.2302160 128.0338590
  29.2902410  16.1647280 128.5631500  30.2894190  17.1652800 128.0223940
  27.0269330  30.2693710 132.0276980  27.6228400  29.9478280 131.3511400
  27.2847480  29.7965530 132.8190250  13.3267530  13.5292020 138.0114420
  12.9782350  13.9855840 138.7772600  12.9955230  12.6349150 138.0936850
  14.9331900  26.7011620 142.1767610  14.8901530  26.3304530 143.0582070
  15.0642910  27.6389190 142.3169430  18.6337930  28.2571210 137.7777330
  18.3929290  28.5245770 136.8907850  19.5740570  28.4276940 137.8328190
  20.8392350  14.7203900 141.5333840  20.7781240  15.3125730 142.2829250
  21.7792730  14.6129860 141.3884100  23.4766910  14.3773960 141.1726130
  24.0907320  14.6953250 140.5107210  24.0216470  13.8922550 141.7921990
  29.8942090  30.2765590 138.5787970  29.4000370  30.6734460 137.8615100
  29.2855380  29.6514800 138.9725250  13.9988170  13.0568220 141.2865190
  14.5471160  12.8756270 140.5231300  14.0643480  12.2662330 141.8221500
  14.7719930  29.6473870 139.2965390  14.1780250  29.5158570 140.0355430
  14.7643770  28.8112010 138.8307490  24.2174950  12.9406100 137.4995420
  23.3434790  13.2741210 137.2968350  24.1085700  12.4679280 138.3247290
  25.1246930  15.1476970 138.8837140  24.7960290  14.3328730 138.5038870
  26.0729230  15.1046780 138.7602830  27.5781540  30.9189010 135.8574710
  27.1184510  31.6704820 135.4832730  26.9494000  30.1995480 135.7989510
  14.4032160  27.0132250 138.2473430  13.6766220  26.3937540 138.1799380
  14.4641310  27.4072860 137.3771510  18.0077260  29.2277250 135.0322840
  18.5242280  28.6164610 134.5071100  18.6574640  29.7306030 135.5233850
  20.7472760  30.1185740 135.8591820  21.0350570  29.8640040 134.9824830
  21.2595980  29.5663100 136.4497390  21.9649770  13.8575940 136.4388330
  21.1821560  14.3321440 136.7185090  21.6712700  12.9530770 136.3301510
  26.5170840  14.5599040 134.4837420  26.9578930  14.5044140 133.6359020
  26.2478430  15.4757050 134.5547600  28.3809410  14.1914280 132.4946240
  28.3197810  13.2475500 132.3477260  29.1601440  14.2994370 133.0399700
  12.6862160  30.3306640 131.4570190  12.5184200  29.6977320 132.1552080
  11.8196670  30.5366040 131.1064380  13.3090180  14.1623420 128.9602050
  14.0669540  14.2752300 128.3866080  12.8467350  14.9992620 128.9145480
  19.8503990  16.2762690 131.9504360  19.0378500  15.9019580 131.6100240
  20.3545630  15.5207770 132.2525550  24.3528970  12.9405140 133.1887430
  24.9558340  13.5125350 133.6635950  23.6121960  13.5044580 132.9661330
  27.4963570  13.3426700 128.4627710  27.6914200  14.2410150 128.7295140
  26.7093440  13.1113780 128.9560660  14.2924860  29.0239870 128.9020330
  13.7672480  29.4047900 128.1982290  14.2169440  29.6490640 129.6230040
  15.6815330  14.6887470 127.5004020  16.2108090  13.9017270 127.3711970
  16.3143650  15.3678660 127.7339550  17.8753170  14.4262610 130.5549410
  17.2455910  13.7249920 130.7219540  17.3358310  15.1866740 130.3382570
  20.8145120  31.0401840 143.2260020  21.7412430  30.8046110 143.2695980
  20.7995550  31.8673840 142.7446050  29.0490180  30.5827410 130.2234270
  29.2242370  29.8965150 129.5795190  28.3511750  31.1074460 129.8310940
  18.0008730  13.7046590 142.9901900  17.7193000  14.2080190 142.2262720
  18.3828430  12.9068340 142.6244030  16.8917830  30.9722250 127.7769580
  17.6236650  30.6881530 127.2293470  17.1511500  30.7335530 128.6668960
  16.0532620  27.0886980 127.7815910  15.4241500  27.5572080 128.3301740
  16.1680450  26.2436200 128.2162100  24.6024190  13.1200170 143.5682370
  24.4889640  13.4394780 144.4633890  25.4193930  13.5212680 143.2719650
  27.3822680  30.2671700 143.0501060  28.1748000  29.7720930 142.8427020
  27.6755830  30.9461840 143.6576670  23.5082340  21.1392640 113.9317110
  23.4276390  20.2247250 113.6608820  23.0946760  21.6359710 113.2256820
  21.6400380  22.9171660 115.8126380  20.8642480  22.4372100 116.1024950
  22.2913310  22.2377310 115.6382540  15.6566210  23.2291470 116.6902140
  14.8251090  22.9740180 117.0898650  16.2647190  23.3002240 117.4260060
  25.6607810  27.3231850 114.5925510  25.1989340  26.5519090 114.9212680
  26.4733360  27.3497920 115.0977960  15.6367470  27.2631560 116.8860160
  15.9395510  26.3729300 116.7070380  16.3811060  27.8201780 116.6582410
  14.0658160  18.1893360 110.4744530  13.1774860  18.5309330 110.3724410
  14.3499350  17.9893680 109.5825360  12.0291170  20.7899010 116.3584230
  12.6007280  20.0221210 116.3587870  12.0292710  21.0887770 115.4490840
  21.8871120  29.6089860 114.2129500  21.2682560  30.0647360 113.6423940
  22.7422900  29.7641320 113.8119200  21.0809370  25.5928850 115.8196540
  21.0117650  24.6518790 115.6585670  21.8429230  25.6830260 116.3919110
  13.2716040  16.1983370 118.1453160  13.0918880  15.3009120 118.4255920
  12.8696120  16.7455240 118.8200110  22.1114540  18.3999230 116.0465470
  22.4879360  17.5271110 115.9339140  22.0134050  18.7357930 115.1555910
  16.2419550  16.7724860 111.5082910  16.3486300  17.6728590 111.8151670
  15.3311910  16.7242830 111.2177560  25.8938660  15.8949670 112.9793810
  26.7148280  15.4046240 113.0219290  25.9272740  16.4847330 113.7325650
  13.8902710  18.6943870 116.7535500  14.5712820  18.9582240 117.3722900
  13.5750760  17.8544740 117.0873510  18.0827280  19.7411230 115.8408090
  18.5905500  20.2392200 116.4813110  18.6140520  18.9646430 115.6647450
  30.1838210  17.9116420 119.5437440  29.4790380  18.2998130 119.0252550
  30.4496130  18.6066710 120.1458370  16.3663380  14.3809790 120.1071510
  16.3681820  14.8982180 119.3017410  15.5367690  13.9039970 120.0841440
  22.7534470  24.4929100 111.6061410  22.1351740  24.9578550 111.0424130
  23.2657720  25.1856580 112.0230920  17.6166230  24.0204970 118.2845010
  17.2835610  24.6473890 118.9266080  17.7932910  24.5466850 117.5046680
  26.1300140  17.8350050 115.7521350  25.4255710  18.1234940 116.3324460
  26.4912300  18.6450160 115.3920910  16.0478710  16.0919750 118.1141960
  16.3895520  16.9361800 117.8195830  15.1094520  16.2403490 118.2307300
  16.8285330  25.9885770 120.0994190  17.4459330  26.6636850 119.8178640
  15.9678450  26.3973750 120.0081690  12.1217670  25.1785630 108.9801040
  11.7445650  25.6672730 108.2485940  12.3790740  25.8510910 109.6107570
  27.7462920  27.4525180 118.0148830  27.0626440  28.1224290 118.0065500
  28.2857210  27.6505830 117.2493690  29.1987060  17.2804840 116.1430560
  28.2511970  17.3143820 116.2745990  29.5237050  18.0943790 116.5279920
  19.7306600  13.5802020 114.4386550  20.0381580  13.0248910 113.7222050
  18.8007300  13.7146480 114.2559540  25.2821660  29.2969310 116.7294010
  25.2948820  28.8931600 115.8616270  24.7296880  30.0716600 116.6255440
  26.5767080  26.0185530 111.8184180  26.4663410  25.0759860 111.9433600
  26.5735330  26.3801170 112.7046940  24.6807100  24.1999150 118.0576620
  25.0975890  23.9859260 117.2230080  25.4046920  24.4571940 118.6285240
  22.1187360  21.6450850 111.1746670  21.1916640  21.5788230 111.4035140
  22.2712180  22.5830980 111.0601910  22.1056440  17.9167850 108.1713830
  21.1660110  18.0781810 108.2566290  22.4239700  18.6353530 107.6249820
  28.6269200  22.5986370 118.1492860  27.7987830  22.6679460 117.6742990
  29.2219680  23.1840680 117.6808690  26.1484650  23.2071150 111.6781920
  25.5297070  22.8690700 111.0308220  26.1309100  22.5630910 112.3861110
  25.5911210  19.3855690 119.0947730  25.1782390  20.2109400 119.3487720
  24.8587160  18.8000730 118.9024090  17.7244000  22.1715590 113.9566400
  17.3201000  21.4592840 113.4612300  17.8107120  21.8268830 114.8454440
  18.1925700  25.8583150 116.1205610  17.8953990  25.2528620 115.4413390
  19.1425520  25.8960460 116.0094970  16.4372620  18.9458800 117.7365440
  16.9887210  19.0554140 116.9618690  16.9516130  19.3196400 118.4520670
  26.2811310  29.4315020 119.7828710  25.8041870  30.2387210 119.5901320
  25.5973100  28.7793350 119.9354920  17.2844130  25.5964840 122.7713410
  16.3872660  25.8204810 123.0186810  17.3097000  25.7199780 121.8224810
  24.3249350  22.4457960 108.6854670  24.7642630  21.6080390 108.5392490
  25.0377770  23.0787360 108.7718810  16.1115350  22.4678160 121.3470780
  15.9723120  23.3400960 121.7158180  15.2296710  22.1250970 121.2018720
  22.4344730  27.3854030 112.6535910  22.8740640  28.1278360 112.2391300
  22.3731620  27.6280600 113.5774870  17.9095700  28.4099860 123.5555930
  17.8811130  28.8142810 122.6884360  17.7460670  27.4810220 123.3927530
  27.9066490  13.7000770 106.9995710  27.5939150  13.7927600 107.8994780
  28.6678960  14.2781800 106.9493140  14.4248630  21.0660570 111.4573050
  14.3046230  21.7922660 110.8454320  14.1149520  20.2963480 110.9800960
  29.8610520  29.1926960 124.8520100  30.3370240  29.6709850 125.5309180
  30.4817680  29.1244450 124.1265600  12.0634000  24.2375710 117.2641690
  12.1414420  24.3724480 116.3197410  12.6775680  23.5291600 117.4569810
  13.3081630  25.9375900 113.6747870  12.9009710  26.0790490 112.8201470
  14.1994640  25.6536060 113.4719080  29.2643770  26.3839810 122.0120110
  29.3906830  26.1451690 121.0937290  29.3065150  25.5524350 122.4842190
  23.1260510  30.0867810 120.5814920  23.6405180  29.9975820 121.3837350
  22.2829590  30.4327510 120.8742830  25.1014910  30.3723150 110.0098920
  24.9416050  30.0826090 110.9080750  24.9361620  29.5963280 109.4744150
  17.5803290  30.1521680 111.7870540  17.4045770  29.2357220 111.5738340
  16.7259030  30.5108970 112.0268340  24.8041040  27.8810710 108.5696920
  24.1106200  27.8788000 107.9099200  25.5463900  27.4570030 108.1391090
  24.3690970  29.5073420 112.6445410  24.8247920  28.7262800 112.9584030
  24.7083490  30.2180240 113.1886590  29.1167780  18.4372270 122.9769850
  28.5012050  18.9451940 122.4485310  28.7964200  17.5370600 122.9195790
  12.1193520  25.2789880 119.8036150  12.2824560  24.8095240 118.9855520
  12.5845970  24.7713440 120.4684990  16.8912290  14.4095640 114.8396720
  16.4480440  15.1905180 114.5081240  17.4497280  14.7325530 115.5467660
  21.1782100  17.2764160 120.4432040  20.7161470  17.4847180 121.2551980
  20.7760210  16.4623510 120.1402710  26.1786610  18.4973110 121.5728700
  25.3280200  18.1978860 121.8937770  26.0188400  18.7415120 120.6612520
  23.2736320  19.9974860 123.6727490  23.5989730  19.1638610 123.3329720
  24.0616650  20.5203380 123.8205820  20.0071110  14.0306340 109.7202550
  19.3825290  14.0266210 110.4455860  19.9201230  13.1637300 109.3238520
  18.9288190  14.9542970 116.6986320  19.2260520  15.8605800 116.6178340
  19.4773750  14.4661750 116.0845890  16.6826510  19.5329210 112.5677970
  16.4567430  19.3166380 113.4724590  15.9019040  19.9657670 112.2223940
  23.9124270  19.5392580 111.1668620  23.3133160  20.2628380 110.9832240
  24.4603880  19.4769360 110.3845070  19.1225720  20.4314790 123.2338240
  19.0269320  19.4909520 123.0838640  19.9657700  20.6529860 122.8386310
  22.5189140  18.1756120 113.1971900  22.9118710  18.4928320 112.3840590
  22.8805990  17.2968000 113.3116420  14.2536260  16.8428460 121.3872020
  13.8599650  17.6903670 121.5944800  13.5654660  16.2054830 121.5780660
  20.8281310  16.9263430 124.4568760  20.1379630  16.7335630 125.0914850
  21.5713610  17.2098070 124.9893060  11.5553310  14.7656920 115.4202100
  11.2666360  15.3359780 116.1327080  12.2999070  14.2861370 115.7833330
  11.7423540  18.7077040 106.6304820  11.6598210  19.6507800 106.7719810
  11.3906600  18.5651950 105.7517170  23.1044280  20.7661870 117.2922680
  22.3725400  21.2748680 117.6412780  22.7068620  19.9491850 116.9911460
  19.5421670  17.4416070 115.6975170  19.5457730  17.0006020 114.8479710
  20.4372790  17.7633400 115.8046990  15.3924050  17.3242560 114.6569380
  15.0524100  17.8017790 115.4136430  14.6301370  16.8707680 114.2970480
  19.6041820  18.4428150 108.6881930  19.7254640  18.4014630 109.6367750
  19.2190330  19.3052300 108.5328660  23.5670190  16.2195550 116.7045620
  23.5842930  16.6704200 117.5487470  23.3185770  15.3201190 116.9179060
  18.6163320  20.7529290 108.0865230  18.0480220  20.3047540 107.4601140
  19.3252320  21.1122070 107.5530380  26.9940940  13.6327730 122.5432000
  27.3186710  12.9017390 123.0689980  27.0297450  13.3141370 121.6412990
  13.6932500  24.6541310 121.9631960  13.3087290  24.0134980 122.5614920
  14.0044690  25.3577430 122.5326690  19.8429640  21.5017850 117.4440580
  20.2099770  21.0276420 118.1901920  19.6534700  22.3759420 117.7848920
  12.7070130  16.2461540 113.5734050  12.4217050  15.8817210 114.4112670
  12.6448990  15.5142000 112.9597190  17.6329010  20.5426490 119.7624790
  17.3286080  21.4218470 119.9875150  18.5875470  20.6026280 119.7982230
  16.1610800  24.7487480 110.3591640  15.3873060  24.2085100 110.1990360
  16.8905430  24.2294090 110.0209400  26.9198780  23.7452840 116.1518030
  27.6397900  24.2408130 115.7614140  26.7180600  23.0670730 115.5071900
  22.3808720  15.1390800 110.2947420  21.5673330  14.6403970 110.2192730
  22.1870670  15.9789050 109.8783770  22.3017580  23.8161900 122.0387030
  22.2354890  22.8957570 121.7844620  21.6722720  23.9137340 122.7531670
  25.0957110  19.5110450 108.5909580  25.9836730  19.8227680 108.4160920
  25.0662200  18.6382700 108.1990160  16.2048200  24.4167860 113.9970450
  16.7226870  23.6136120 113.9427340  15.7532220  24.3547000 114.8387280
  21.0917700  25.6834140 109.2697750  21.4333400  26.4276370 108.7741070
  20.2630410  25.9965260 109.6322580  13.6892740  21.3829230 120.9096150
  13.3307680  22.0483080 121.4969490  13.3947300  20.5512780 121.2808770
  16.8905860  21.8413470 123.7935700  16.5906000  21.9870650 122.8963520
  17.6617100  21.2818760 123.7009090  22.2334310  26.6382470 121.7890830
  22.2478850  25.7063430 121.5709740  21.5259410  26.7242230 122.4280600
  27.3671380  20.8222290 108.0589440  27.2835100  21.2536510 107.2085880
  28.0865570  21.2820640 108.4916260  28.4445520  23.2789810 121.1359410
  27.7193710  23.8718590 120.9388800  28.9720980  23.2713350 120.3372780
  28.3958630  27.6764550 110.7871570  27.7534790  27.0220170 111.0615290
  28.0089290  28.0819640 110.0112240  23.9745110  25.0049980 114.6343260
  24.3268930  24.4078110 113.9744630  23.0907440  24.6794210 114.8051510
  20.0608390  25.7647670 112.0413670  20.7479520  26.3116880 112.4221260
  19.2740810  26.3088400 112.0763280  12.2000790  21.3820490 107.5330750
  13.0695640  21.6645290 107.8166670  11.7091110  22.1956360 107.4179560
  19.3635600  22.7693700 111.6539030  19.8198380  23.5798950 111.8799220
  19.0123810  22.4516840 112.4857520  21.6668210  28.2800040 118.8831330
  22.3110430  28.4859420 119.5604750  22.0297650  27.5188440 118.4302180
  15.2647380  13.1131350 112.1261550  15.1362010  13.1049250 113.0746470
  14.4409400  13.4514440 111.7752560  22.9400290  26.2832390 117.6008780
  23.5822520  25.5825550 117.7140950  23.4649640  27.0630830 117.4205670
  26.7856010  26.5681010 107.3247920  26.5593590  25.8511450 107.9172560
  26.3952210  26.3193450 106.4869670  24.7137910  27.0827290 120.8044840
  25.0494150  27.6693980 121.4822760  23.7938250  26.9520000 121.0342630
  12.5672040  30.5947870 108.0992380  12.9269680  31.1937210 107.4449650
  12.4264380  31.1407760 108.8727410  12.2641310  14.8722470 121.5868250
  11.5499830  15.0719390 122.1920860  12.6836350  14.0962040 121.9583050
  26.3672260  24.4852950 108.9862080  26.0793960  24.9465640 109.7739960
  27.1624430  24.0250720 109.2546300  12.5513900  28.8602730 122.5734780
  12.6605020  27.9197470 122.4330170  11.8994460  29.1257480 121.9248510
  20.5426490  27.1318620 123.9732900  20.2223360  26.4127860 124.5178590
  19.8684850  27.8073690 124.0468960  18.5840660  27.9779070 108.9166050
  18.5750760  28.7108760 108.3010560  17.6639020  27.7310650 109.0093010
  14.1847300  23.1993960 109.6612810  13.5775250  23.9392860 109.6708110
  14.6596650  23.2893320 108.8351010  23.7580090  17.3644780 119.3369700
  24.1260910  16.5439990 119.6649270  22.8978290  17.4246670 119.7525350
  27.1242120  16.3201720 110.1457260  26.4955280  16.4247390 109.4315490
  26.6294040  16.5398500 110.9351140  21.5700260  28.0407310 107.5791240
  21.6712240  27.8371300 106.6493220  20.6702000  27.7865590 107.7839020
  19.0926150  18.5987670 111.5615140  18.3842300  19.0674010 112.0028750
  19.3770630  17.9409680 112.1960330  20.7182080  20.0184370 119.5607670
  21.2167330  20.4930190 120.2259520  20.8605030  19.0947890 119.7677700
  23.1241580  15.3238330 113.0010930  23.0009360  15.3424460 112.0520440
  24.0726140  15.3717270 113.1209330  20.2118370  30.5593630 112.2738910
  20.4659870  30.5215020 111.3518280  19.2630850  30.4326960 112.2667160
  17.2961170  16.9072750 108.9365850  18.1451700  17.3442900 108.8706040
  16.9292440  17.2193010 109.7637910  27.9248940  16.2352330 120.4036060
  27.4222540  16.9757730 120.7429870  28.7405600  16.6236330 120.0872850
  26.2170950  21.4785510 113.8497420  25.2761090  21.4935740 114.0245110
  26.5315020  20.6921470 114.2957720  16.1952590  23.1605110 107.4101380
  16.9615860  23.0486470 107.9726810  16.2727280  22.4643080 106.7578150
  14.8899350  20.5930180 108.0934270  14.9702940  19.6457690 108.2051670
  15.7819100  20.9237060 108.1994930  28.2196530  28.6494360 115.5251680
  28.3443950  29.4725530 115.9975490  29.0862090  28.4385090 115.1775830
  15.6914060  30.7425570 115.1968810  16.4276540  30.1941030 115.4677380
  16.0754980  31.6081580 115.0574800  12.5759540  26.8099140 111.0710320
  11.6499320  27.0520280 111.0615730  13.0415970  27.6373400 110.9495070
  14.6972340  29.9271640 124.3854390  15.4985070  30.2483690 124.7989790
  14.1824160  29.5667220 125.1074300  18.8016370  29.9155880 107.0194380
  19.5944980  30.2044710 106.5676170  18.2820720  29.4848050 106.3406860
  23.5336970  26.0351510 124.3329800  22.9275130  26.0583110 123.5925550
  23.2291080  25.3034550 124.8697050  24.9637340  29.7631800 122.9439210
  25.9159090  29.6789820 122.8939450  24.8165560  30.4273510 123.6173000
  27.8546540  29.1426010 108.4431120  27.5688050  28.7291150 107.6285300
  27.6566090  30.0713720 108.3231640  12.4170150  22.4145100 123.3290440
  12.9209170  21.8352380 123.9006670  11.6777570  22.6985330 123.8666810
  19.3193770  25.1359290 106.8836730  19.2144410  24.5211640 107.6098110
  19.1517990  24.6125180 106.0999740  19.4708090  23.8216090 122.8625960
  18.7053760  24.3901090 122.7780630  19.6524050  23.5292300 121.9694190
  22.5596500  24.1979320 107.4878720  22.0106600  24.6448620 108.1321460
  23.1815760  23.6928570 108.0116390  26.6131440  25.5521420 123.4200980
  27.3540910  25.8897180 122.9168440  25.8504120  25.7213480 122.8670750
  14.4493230  20.5574690 124.2240510  14.4898570  20.2588560 125.1325740
  15.3038730  20.9582300 124.0648030  18.2271620  23.1570240 109.3844020
  18.6488040  22.9910110 110.2275410  18.3522460  22.3470470 108.8899160
  16.3899040  19.1366790 122.1915000  15.8595500  18.6457740 121.5638340
  17.0587110  19.5650990 121.6572930  20.7399260  22.1807850 106.6321120
  21.2604920  21.4656870 106.2662270  21.3867660  22.8193720 106.9321630
  25.2877100  23.6036250 121.9556190  25.7018120  23.7581330 122.8046610
  24.3528100  23.7291470 122.1181970  25.7599270  20.9432410 123.9595340
  26.3420040  20.1884730 123.8715820  25.9361040  21.4739850 123.1826820
  16.8771340  16.1029160 122.2712290  16.7828210  15.4849910 121.5463160
  16.2968730  16.8295450 122.0442200  19.6432780  14.6602400 119.3039680
  19.1950080  14.6826660 118.4585230  19.0097980  14.2621420 119.9009980
  20.0492330  23.5556730 119.9252120  20.4680440  24.3989460 119.7528360
  19.1300960  23.6928770 119.6958900  22.3856230  21.2872910 121.3089960
  22.5052440  20.6914050 122.0484800  23.2450230  21.3242600 120.8891260
  24.7244130  21.8410100 119.8852470  24.1979350  22.3652720 119.2817610
  25.0675470  22.4737490 120.5162200  17.1230520  19.2303470 106.3302180
  16.9219580  18.3670830 106.6915520  16.9522570  19.1436830 105.3923780
  17.8999750  29.8609740 121.0409850  17.3620840  30.5855800 120.7218550
  18.1533710  29.3840080 120.2507190  19.1525000  17.8294260 122.5665780
  19.7424690  17.5210110 123.2543600  18.3345240  17.3574010 122.7225680
  23.9718430  17.4460070 122.7998800  23.2833950  16.7841610 122.7348790
  24.6924450  16.9998340 123.2447260  24.6018830  14.0411700 108.8589060
  24.8821120  13.1979600 109.2148480  23.8284560  14.2734810 109.3727810
  15.9213320  16.3304090 106.3180060  16.2239220  16.3371520 105.4099210
  16.6607910  15.9801950 106.8147720  20.7561960  31.0960950 121.2996500
  20.6820660  31.9996090 121.6068870  19.8540800  30.7772850 121.2718570
  19.1398250  15.2738710 107.3036260  18.7920250  14.5962700 106.7238710
  19.3411020  14.8128220 108.1179650  21.3047290  30.2619460 108.9222860
  22.1998080  30.6004430 108.9441620  21.3364920  29.5398870 108.2947140
  14.9443450  25.6346510 107.1509860  15.3818320  26.1776180 107.8067440
  15.4291180  24.8093460 107.1606200  12.1589250  28.4235540 114.6030120
  12.4892260  27.5556600 114.3708760  12.5880250  28.6294060 115.4335080
  16.7551170  26.7544550 112.2632090  16.4546710  26.6309520 113.1636000
  16.6488660  25.8953140 111.8547820  12.6479460  29.2906130 117.3411750
  12.2110450  29.4706930 118.1735900  13.2157140  30.0480750 117.1993470
  28.2841640  28.7923130 121.6289060  27.6843630  28.8515690 120.8852980
  28.4135540  27.8528110 121.7585910  29.5243090  26.5340950 106.9658770
  28.6936050  26.6017600 107.4366000  29.7014920  27.4245070 106.6625630
  28.9799550  23.2788430 109.4692970  29.7418460  23.8485080 109.5752660
  28.9953920  22.7115630 110.2401280  12.4803890  21.8026360 113.7000630
  11.8252730  21.5338000 113.0560330  13.3181840  21.6930840 113.2502610
  29.9859520  24.1338530 114.3134900  30.3568350  23.3505850 113.9070870
  30.6261450  24.8227630 114.1352200  26.9693280  25.5175110 119.7265220
  26.1553120  25.9472270 119.9891010  27.3767480  26.1293520 119.1134270
  29.0318720  23.5722800 106.6265490  29.3067560  24.4801680 106.4984710
  28.8429460  23.5085330 107.5627480  25.4294330  16.5967650 107.9219120
  25.8479210  16.4098630 107.0815780  25.1230390  15.7446700 108.2322050
  28.9284060  21.5091790 111.6194920  28.5527660  20.7419720 111.1876210
  28.1987180  21.8914490 112.1069850  13.5179820  22.1878930 118.2403970
  13.8852860  22.1006330 119.1199990  12.9490640  21.4245480 118.1410830
  28.3183680  20.6563310 121.2534440  28.0869770  20.4276060 120.3532390
  28.5788230  21.5762860 121.2079330  13.0695820  19.0988020 122.1462390
  12.1751870  19.0654780 122.4856100  13.6093370  19.2974810 122.9113640
  26.7571750  15.8819740 124.0314140  27.6341930  15.8903140 124.4148140
  26.7692590  15.1450580 123.4206490  11.6941970  19.0125290 109.6425960
  10.7906050  19.2755490 109.4677620  12.1782590  19.2836460 108.8625920
  28.2035020  19.7349280 114.9202160  28.7272500  19.2411930 114.2892330
  28.7894440  19.8699640 115.6649730  28.3824740  19.8189150 118.4421710
  27.4327450  19.7852690 118.5566700  28.5637750  20.7289260 118.2071480
  14.2369180  18.0690830 107.5520340  14.9460880  17.6474050 107.0667620
  13.5209120  18.1366060 106.9203690  13.8843340  14.1230160 106.5922990
  14.6071470  14.6639100 106.9104210  14.1567860  13.8493580 105.7164530
  27.6934990  18.9922630 110.8594570  28.1894110  18.7593500 111.6443450
  27.4951060  18.1534470 110.4432210  13.5735530  13.3736350 116.4945610
  14.2211720  12.8233730 116.0540770  13.9937370  13.6279500 117.3161420
  29.1222150  17.6283580 113.3932250  29.0121430  17.4739620 114.3314520
  29.8829740  17.1004520 113.1507660  27.4687870  13.5677710 119.8515250
  28.1060090  14.1811850 120.2174440  27.6162760  13.6038370 118.9064480
  30.0112420  15.4591500 106.6338390  30.9361730  15.3272680 106.4256680
  29.9888210  15.5384320 107.5874840  30.0850910  16.2302160 109.2595100
  29.2902410  16.1647280 109.7888010  30.2894190  17.1652800 109.2480450
  27.0269330  30.2693710 113.2533490  27.6228400  29.9478280 112.5767910
  27.2847480  29.7965530 114.0446760  13.3267530  13.5292020 119.2370930
  12.9782350  13.9855840 120.0029110  12.9955230  12.6349150 119.3193360
  14.9331900  26.7011620 123.4024120  14.8901530  26.3304530 124.2838580
  15.0642910  27.6389190 123.5425940  18.6337930  28.2571210 119.0033840
  18.3929290  28.5245770 118.1164360  19.5740570  28.4276940 119.0584700
  20.8392350  14.7203900 122.7590350  20.7781240  15.3125730 123.5085760
  21.7792730  14.6129860 122.6140610  23.4766910  14.3773960 122.3982640
  24.0907320  14.6953250 121.7363720  24.0216470  13.8922550 123.0178500
  29.8942090  30.2765590 119.8044480  29.4000370  30.6734460 119.0871610
  29.2855380  29.6514800 120.1981760  13.9988170  13.0568220 122.5121700
  14.5471160  12.8756270 121.7487810  14.0643480  12.2662330 123.0478010
  14.7719930  29.6473870 120.5221900  14.1780250  29.5158570 121.2611940
  14.7643770  28.8112010 120.0564000  24.2174950  12.9406100 118.7251930
  23.3434790  13.2741210 118.5224860  24.1085700  12.4679280 119.5503800
  25.1246930  15.1476970 120.1093650  24.7960290  14.3328730 119.7295380
  26.0729230  15.1046780 119.9859340  27.5781540  30.9189010 117.0831220
  27.1184510  31.6704820 116.7089240  26.9494000  30.1995480 117.0246020
  14.4032160  27.0132250 119.4729940  13.6766220  26.3937540 119.4055890
  14.4641310  27.4072860 118.6028020  18.0077260  29.2277250 116.2579350
  18.5242280  28.6164610 115.7327610  18.6574640  29.7306030 116.7490360
  20.7472760  30.1185740 117.0848330  21.0350570  29.8640040 116.2081340
  21.2595980  29.5663100 117.6753900  21.9649770  13.8575940 117.6644840
  21.1821560  14.3321440 117.9441600  21.6712700  12.9530770 117.5558020
  26.5170840  14.5599040 115.7093930  26.9578930  14.5044140 114.8615530
  26.2478430  15.4757050 115.7804110  28.3809410  14.1914280 113.7202750
  28.3197810  13.2475500 113.5733770  29.1601440  14.2994370 114.2656210
  12.6862160  30.3306640 112.6826700  12.5184200  29.6977320 113.3808590
  11.8196670  30.5366040 112.3320890  13.3090180  14.1623420 110.1858560
  14.0669540  14.2752300 109.6122590  12.8467350  14.9992620 110.1401990
  19.8503990  16.2762690 113.1760870  19.0378500  15.9019580 112.8356750
  20.3545630  15.5207770 113.4782060  24.3528970  12.9405140 114.4143940
  24.9558340  13.5125350 114.8892460  23.6121960  13.5044580 114.1917840
  27.4963570  13.3426700 109.6884220  27.6914200  14.2410150 109.9551650
  26.7093440  13.1113780 110.1817170  14.2924860  29.0239870 110.1276840
  13.7672480  29.4047900 109.4238800  14.2169440  29.6490640 110.8486550
  15.6815330  14.6887470 108.7260530  16.2108090  13.9017270 108.5968480
  16.3143650  15.3678660 108.9596060  17.8753170  14.4262610 111.7805920
  17.2455910  13.7249920 111.9476050  17.3358310  15.1866740 111.5639080
  20.8145120  31.0401840 124.4516530  21.7412430  30.8046110 124.4952490
  20.7995550  31.8673840 123.9702560  29.0490180  30.5827410 111.4490780
  29.2242370  29.8965150 110.8051700  28.3511750  31.1074460 111.0567450
  18.0008730  13.7046590 124.2158410  17.7193000  14.2080190 123.4519230
  18.3828430  12.9068340 123.8500540  16.8917830  30.9722250 109.0026090
  17.6236650  30.6881530 108.4549980  17.1511500  30.7335530 109.8925470
  16.0532620  27.0886980 109.0072420  15.4241500  27.5572080 109.5558250
  16.1680450  26.2436200 109.4418610  24.6024190  13.1200170 124.7938880
  24.4889640  13.4394780 125.6890400  25.4193930  13.5212680 124.4976160
  27.3822680  30.2671700 124.2757570  28.1748000  29.7720930 124.0683530
  27.6755830  30.9461840 124.8833180  23.5082340  21.1392640  95.1573620
  23.4276390  20.2247250  94.8865330  23.0946760  21.6359710  94.4513330
  21.6400380  22.9171660  97.0382890  20.8642480  22.4372100  97.3281460
  22.2913310  22.2377310  96.8639050  15.6566210  23.2291470  97.9158650
  14.8251090  22.9740180  98.3155160  16.2647190  23.3002240  98.6516570
  25.6607810  27.3231850  95.8182020  25.1989340  26.5519090  96.1469190
  26.4733360  27.3497920  96.3234470  15.6367470  27.2631560  98.1116670
  15.9395510  26.3729300  97.9326890  16.3811060  27.8201780  97.8838920
  14.0658160  18.1893360  91.7001040  13.1774860  18.5309330  91.5980920
  14.3499350  17.9893680  90.8081870  12.0291170  20.7899010  97.5840740
  12.6007280  20.0221210  97.5844380  12.0292710  21.0887770  96.6747350
  21.8871120  29.6089860  95.4386010  21.2682560  30.0647360  94.8680450
  22.7422900  29.7641320  95.0375710  21.0809370  25.5928850  97.0453050
  21.0117650  24.6518790  96.8842180  21.8429230  25.6830260  97.6175620
  13.2716040  16.1983370  99.3709670  13.0918880  15.3009120  99.6512430
  12.8696120  16.7455240 100.0456620  22.1114540  18.3999230  97.2721980
  22.4879360  17.5271110  97.1595650  22.0134050  18.7357930  96.3812420
  16.2419550  16.7724860  92.7339420  16.3486300  17.6728590  93.0408180
  15.3311910  16.7242830  92.4434070  25.8938660  15.8949670  94.2050320
  26.7148280  15.4046240  94.2475800  25.9272740  16.4847330  94.9582160
  13.8902710  18.6943870  97.9792010  14.5712820  18.9582240  98.5979410
  13.5750760  17.8544740  98.3130020  18.0827280  19.7411230  97.0664600
  18.5905500  20.2392200  97.7069620  18.6140520  18.9646430  96.8903960
  30.1838210  17.9116420 100.7693950  29.4790380  18.2998130 100.2509060
  30.4496130  18.6066710 101.3714880  16.3663380  14.3809790 101.3328020
  16.3681820  14.8982180 100.5273920  15.5367690  13.9039970 101.3097950
  22.7534470  24.4929100  92.8317920  22.1351740  24.9578550  92.2680640
  23.2657720  25.1856580  93.2487430  17.6166230  24.0204970  99.5101520
  17.2835610  24.6473890 100.1522590  17.7932910  24.5466850  98.7303190
  26.1300140  17.8350050  96.9777860  25.4255710  18.1234940  97.5580970
  26.4912300  18.6450160  96.6177420  16.0478710  16.0919750  99.3398470
  16.3895520  16.9361800  99.0452340  15.1094520  16.2403490  99.4563810
  16.8285330  25.9885770 101.3250700  17.4459330  26.6636850 101.0435150
  15.9678450  26.3973750 101.2338200  12.1217670  25.1785630  90.2057550
  11.7445650  25.6672730  89.4742450  12.3790740  25.8510910  90.8364080
  27.7462920  27.4525180  99.2405340  27.0626440  28.1224290  99.2322010
  28.2857210  27.6505830  98.4750200  29.1987060  17.2804840  97.3687070
  28.2511970  17.3143820  97.5002500  29.5237050  18.0943790  97.7536430
  19.7306600  13.5802020  95.6643060  20.0381580  13.0248910  94.9478560
  18.8007300  13.7146480  95.4816050  25.2821660  29.2969310  97.9550520
  25.2948820  28.8931600  97.0872780  24.7296880  30.0716600  97.8511950
  26.5767080  26.0185530  93.0440690  26.4663410  25.0759860  93.1690110
  26.5735330  26.3801170  93.9303450  24.6807100  24.1999150  99.2833130
  25.0975890  23.9859260  98.4486590  25.4046920  24.4571940  99.8541750
  22.1187360  21.6450850  92.4003180  21.1916640  21.5788230  92.6291650
  22.2712180  22.5830980  92.2858420  22.1056440  17.9167850  89.3970340
  21.1660110  18.0781810  89.4822800  22.4239700  18.6353530  88.8506330
  28.6269200  22.5986370  99.3749370  27.7987830  22.6679460  98.8999500
  29.2219680  23.1840680  98.9065200  26.1484650  23.2071150  92.9038430
  25.5297070  22.8690700  92.2564730  26.1309100  22.5630910  93.6117620
  25.5911210  19.3855690 100.3204240  25.1782390  20.2109400 100.5744230
  24.8587160  18.8000730 100.1280600  17.7244000  22.1715590  95.1822910
  17.3201000  21.4592840  94.6868810  17.8107120  21.8268830  96.0710950
  18.1925700  25.8583150  97.3462120  17.8953990  25.2528620  96.6669900
  19.1425520  25.8960460  97.2351480  16.4372620  18.9458800  98.9621950
  16.9887210  19.0554140  98.1875200  16.9516130  19.3196400  99.6777180
  26.2811310  29.4315020 101.0085220  25.8041870  30.2387210 100.8157830
  25.5973100  28.7793350 101.1611430  17.2844130  25.5964840 103.9969920
  16.3872660  25.8204810 104.2443320  17.3097000  25.7199780 103.0481320
  24.3249350  22.4457960  89.9111180  24.7642630  21.6080390  89.7649000
  25.0377770  23.0787360  89.9975320  16.1115350  22.4678160 102.5727290
  15.9723120  23.3400960 102.9414690  15.2296710  22.1250970 102.4275230
  22.4344730  27.3854030  93.8792420  22.8740640  28.1278360  93.4647810
  22.3731620  27.6280600  94.8031380  17.9095700  28.4099860 104.7812440
  17.8811130  28.8142810 103.9140870  17.7460670  27.4810220 104.6184040
  27.9066490  13.7000770  88.2252220  27.5939150  13.7927600  89.1251290
  28.6678960  14.2781800  88.1749650  14.4248630  21.0660570  92.6829560
  14.3046230  21.7922660  92.0710830  14.1149520  20.2963480  92.2057470
  29.8610520  29.1926960 106.0776610  30.3370240  29.6709850 106.7565690
  30.4817680  29.1244450 105.3522110  12.0634000  24.2375710  98.4898200
  12.1414420  24.3724480  97.5453920  12.6775680  23.5291600  98.6826320
  13.3081630  25.9375900  94.9004380  12.9009710  26.0790490  94.0457980
  14.1994640  25.6536060  94.6975590  29.2643770  26.3839810 103.2376620
  29.3906830  26.1451690 102.3193800  29.3065150  25.5524350 103.7098700
  23.1260510  30.0867810 101.8071430  23.6405180  29.9975820 102.6093860
  22.2829590  30.4327510 102.0999340  25.1014910  30.3723150  91.2355430
  24.9416050  30.0826090  92.1337260  24.9361620  29.5963280  90.7000660
  17.5803290  30.1521680  93.0127050  17.4045770  29.2357220  92.7994850
  16.7259030  30.5108970  93.2524850  24.8041040  27.8810710  89.7953430
  24.1106200  27.8788000  89.1355710  25.5463900  27.4570030  89.3647600
  24.3690970  29.5073420  93.8701920  24.8247920  28.7262800  94.1840540
  24.7083490  30.2180240  94.4143100  29.1167780  18.4372270 104.2026360
  28.5012050  18.9451940 103.6741820  28.7964200  17.5370600 104.1452300
  12.1193520  25.2789880 101.0292660  12.2824560  24.8095240 100.2112030
  12.5845970  24.7713440 101.6941500  16.8912290  14.4095640  96.0653230
  16.4480440  15.1905180  95.7337750  17.4497280  14.7325530  96.7724170
  21.1782100  17.2764160 101.6688550  20.7161470  17.4847180 102.4808490
  20.7760210  16.4623510 101.3659220  26.1786610  18.4973110 102.7985210
  25.3280200  18.1978860 103.1194280  26.0188400  18.7415120 101.8869030
  23.2736320  19.9974860 104.8984000  23.5989730  19.1638610 104.5586230
  24.0616650  20.5203380 105.0462330  20.0071110  14.0306340  90.9459060
  19.3825290  14.0266210  91.6712370  19.9201230  13.1637300  90.5495030
  18.9288190  14.9542970  97.9242830  19.2260520  15.8605800  97.8434850
  19.4773750  14.4661750  97.3102400  16.6826510  19.5329210  93.7934480
  16.4567430  19.3166380  94.6981100  15.9019040  19.9657670  93.4480450
  23.9124270  19.5392580  92.3925130  23.3133160  20.2628380  92.2088750
  24.4603880  19.4769360  91.6101580  19.1225720  20.4314790 104.4594750
  19.0269320  19.4909520 104.3095150  19.9657700  20.6529860 104.0642820
  22.5189140  18.1756120  94.4228410  22.9118710  18.4928320  93.6097100
  22.8805990  17.2968000  94.5372930  14.2536260  16.8428460 102.6128530
  13.8599650  17.6903670 102.8201310  13.5654660  16.2054830 102.8037170
  20.8281310  16.9263430 105.6825270  20.1379630  16.7335630 106.3171360
  21.5713610  17.2098070 106.2149570  11.5553310  14.7656920  96.6458610
  11.2666360  15.3359780  97.3583590  12.2999070  14.2861370  97.0089840
  11.7423540  18.7077040  87.8561330  11.6598210  19.6507800  87.9976320
  11.3906600  18.5651950  86.9773680  23.1044280  20.7661870  98.5179190
  22.3725400  21.2748680  98.8669290  22.7068620  19.9491850  98.2167970
  19.5421670  17.4416070  96.9231680  19.5457730  17.0006020  96.0736220
  20.4372790  17.7633400  97.0303500  15.3924050  17.3242560  95.8825890
  15.0524100  17.8017790  96.6392940  14.6301370  16.8707680  95.5226990
  19.6041820  18.4428150  89.9138440  19.7254640  18.4014630  90.8624260
  19.2190330  19.3052300  89.7585170  23.5670190  16.2195550  97.9302130
  23.5842930  16.6704200  98.7743980  23.3185770  15.3201190  98.1435570
  18.6163320  20.7529290  89.3121740  18.0480220  20.3047540  88.6857650
  19.3252320  21.1122070  88.7786890  26.9940940  13.6327730 103.7688510
  27.3186710  12.9017390 104.2946490  27.0297450  13.3141370 102.8669500
  13.6932500  24.6541310 103.1888470  13.3087290  24.0134980 103.7871430
  14.0044690  25.3577430 103.7583200  19.8429640  21.5017850  98.6697090
  20.2099770  21.0276420  99.4158430  19.6534700  22.3759420  99.0105430
  12.7070130  16.2461540  94.7990560  12.4217050  15.8817210  95.6369180
  12.6448990  15.5142000  94.1853700  17.6329010  20.5426490 100.9881300
  17.3286080  21.4218470 101.2131660  18.5875470  20.6026280 101.0238740
  16.1610800  24.7487480  91.5848150  15.3873060  24.2085100  91.4246870
  16.8905430  24.2294090  91.2465910  26.9198780  23.7452840  97.3774540
  27.6397900  24.2408130  96.9870650  26.7180600  23.0670730  96.7328410
  22.3808720  15.1390800  91.5203930  21.5673330  14.6403970  91.4449240
  22.1870670  15.9789050  91.1040280  22.3017580  23.8161900 103.2643540
  22.2354890  22.8957570 103.0101130  21.6722720  23.9137340 103.9788180
  25.0957110  19.5110450  89.8166090  25.9836730  19.8227680  89.6417430
  25.0662200  18.6382700  89.4246670  16.2048200  24.4167860  95.2226960
  16.7226870  23.6136120  95.1683850  15.7532220  24.3547000  96.0643790
  21.0917700  25.6834140  90.4954260  21.4333400  26.4276370  89.9997580
  20.2630410  25.9965260  90.8579090  13.6892740  21.3829230 102.1352660
  13.3307680  22.0483080 102.7226000  13.3947300  20.5512780 102.5065280
  16.8905860  21.8413470 105.0192210  16.5906000  21.9870650 104.1220030
  17.6617100  21.2818760 104.9265600  22.2334310  26.6382470 103.0147340
  22.2478850  25.7063430 102.7966250  21.5259410  26.7242230 103.6537110
  27.3671380  20.8222290  89.2845950  27.2835100  21.2536510  88.4342390
  28.0865570  21.2820640  89.7172770  28.4445520  23.2789810 102.3615920
  27.7193710  23.8718590 102.1645310  28.9720980  23.2713350 101.5629290
  28.3958630  27.6764550  92.0128080  27.7534790  27.0220170  92.2871800
  28.0089290  28.0819640  91.2368750  23.9745110  25.0049980  95.8599770
  24.3268930  24.4078110  95.2001140  23.0907440  24.6794210  96.0308020
  20.0608390  25.7647670  93.2670180  20.7479520  26.3116880  93.6477770
  19.2740810  26.3088400  93.3019790  12.2000790  21.3820490  88.7587260
  13.0695640  21.6645290  89.0423180  11.7091110  22.1956360  88.6436070
  19.3635600  22.7693700  92.8795540  19.8198380  23.5798950  93.1055730
  19.0123810  22.4516840  93.7114030  21.6668210  28.2800040 100.1087840
  22.3110430  28.4859420 100.7861260  22.0297650  27.5188440  99.6558690
  15.2647380  13.1131350  93.3518060  15.1362010  13.1049250  94.3002980
  14.4409400  13.4514440  93.0009070  22.9400290  26.2832390  98.8265290
  23.5822520  25.5825550  98.9397460  23.4649640  27.0630830  98.6462180
  26.7856010  26.5681010  88.5504430  26.5593590  25.8511450  89.1429070
  26.3952210  26.3193450  87.7126180  24.7137910  27.0827290 102.0301350
  25.0494150  27.6693980 102.7079270  23.7938250  26.9520000 102.2599140
  12.5672040  30.5947870  89.3248890  12.9269680  31.1937210  88.6706160
  12.4264380  31.1407760  90.0983920  12.2641310  14.8722470 102.8124760
  11.5499830  15.0719390 103.4177370  12.6836350  14.0962040 103.1839560
  26.3672260  24.4852950  90.2118590  26.0793960  24.9465640  90.9996470
  27.1624430  24.0250720  90.4802810  12.5513900  28.8602730 103.7991290
  12.6605020  27.9197470 103.6586680  11.8994460  29.1257480 103.1505020
  20.5426490  27.1318620 105.1989410  20.2223360  26.4127860 105.7435100
  19.8684850  27.8073690 105.2725470  18.5840660  27.9779070  90.1422560
  18.5750760  28.7108760  89.5267070  17.6639020  27.7310650  90.2349520
  14.1847300  23.1993960  90.8869320  13.5775250  23.9392860  90.8964620
  14.6596650  23.2893320  90.0607520  23.7580090  17.3644780 100.5626210
  24.1260910  16.5439990 100.8905780  22.8978290  17.4246670 100.9781860
  27.1242120  16.3201720  91.3713770  26.4955280  16.4247390  90.6572000
  26.6294040  16.5398500  92.1607650  21.5700260  28.0407310  88.8047750
  21.6712240  27.8371300  87.8749730  20.6702000  27.7865590  89.0095530
  19.0926150  18.5987670  92.7871650  18.3842300  19.0674010  93.2285260
  19.3770630  17.9409680  93.4216840  20.7182080  20.0184370 100.7864180
  21.2167330  20.4930190 101.4516030  20.8605030  19.0947890 100.9934210
  23.1241580  15.3238330  94.2267440  23.0009360  15.3424460  93.2776950
  24.0726140  15.3717270  94.3465840  20.2118370  30.5593630  93.4995420
  20.4659870  30.5215020  92.5774790  19.2630850  30.4326960  93.4923670
  17.2961170  16.9072750  90.1622360  18.1451700  17.3442900  90.0962550
  16.9292440  17.2193010  90.9894420  27.9248940  16.2352330 101.6292570
  27.4222540  16.9757730 101.9686380  28.7405600  16.6236330 101.3129360
  26.2170950  21.4785510  95.0753930  25.2761090  21.4935740  95.2501620
  26.5315020  20.6921470  95.5214230  16.1952590  23.1605110  88.6357890
  16.9615860  23.0486470  89.1983320  16.2727280  22.4643080  87.9834660
  14.8899350  20.5930180  89.3190780  14.9702940  19.6457690  89.4308180
  15.7819100  20.9237060  89.4251440  28.2196530  28.6494360  96.7508190
  28.3443950  29.4725530  97.2232000  29.0862090  28.4385090  96.4032340
  15.6914060  30.7425570  96.4225320  16.4276540  30.1941030  96.6933890
  16.0754980  31.6081580  96.2831310  12.5759540  26.8099140  92.2966830
  11.6499320  27.0520280  92.2872240  13.0415970  27.6373400  92.1751580
  14.6972340  29.9271640 105.6110900  15.4985070  30.2483690 106.0246300
  14.1824160  29.5667220 106.3330810  18.8016370  29.9155880  88.2450890
  19.5944980  30.2044710  87.7932680  18.2820720  29.4848050  87.5663370
  23.5336970  26.0351510 105.5586310  22.9275130  26.0583110 104.8182060
  23.2291080  25.3034550 106.0953560  24.9637340  29.7631800 104.1695720
  25.9159090  29.6789820 104.1195960  24.8165560  30.4273510 104.8429510
  27.8546540  29.1426010  89.6687630  27.5688050  28.7291150  88.8541810
  27.6566090  30.0713720  89.5488150  12.4170150  22.4145100 104.5546950
  12.9209170  21.8352380 105.1263180  11.6777570  22.6985330 105.0923320
  19.3193770  25.1359290  88.1093240  19.2144410  24.5211640  88.8354620
  19.1517990  24.6125180  87.3256250  19.4708090  23.8216090 104.0882470
  18.7053760  24.3901090 104.0037140  19.6524050  23.5292300 103.1950700
  22.5596500  24.1979320  88.7135230  22.0106600  24.6448620  89.3577970
  23.1815760  23.6928570  89.2372900  26.6131440  25.5521420 104.6457490
  27.3540910  25.8897180 104.1424950  25.8504120  25.7213480 104.0927260
  14.4493230  20.5574690 105.4497020  14.4898570  20.2588560 106.3582250
  15.3038730  20.9582300 105.2904540  18.2271620  23.1570240  90.6100530
  18.6488040  22.9910110  91.4531920  18.3522460  22.3470470  90.1155670
  16.3899040  19.1366790 103.4171510  15.8595500  18.6457740 102.7894850
  17.0587110  19.5650990 102.8829440  20.7399260  22.1807850  87.8577630
  21.2604920  21.4656870  87.4918780  21.3867660  22.8193720  88.1578140
  25.2877100  23.6036250 103.1812700  25.7018120  23.7581330 104.0303120
  24.3528100  23.7291470 103.3438480  25.7599270  20.9432410 105.1851850
  26.3420040  20.1884730 105.0972330  25.9361040  21.4739850 104.4083330
  16.8771340  16.1029160 103.4968800  16.7828210  15.4849910 102.7719670
  16.2968730  16.8295450 103.2698710  19.6432780  14.6602400 100.5296190
  19.1950080  14.6826660  99.6841740  19.0097980  14.2621420 101.1266490
  20.0492330  23.5556730 101.1508630  20.4680440  24.3989460 100.9784870
  19.1300960  23.6928770 100.9215410  22.3856230  21.2872910 102.5346470
  22.5052440  20.6914050 103.2741310  23.2450230  21.3242600 102.1147770
  24.7244130  21.8410100 101.1108980  24.1979350  22.3652720 100.5074120
  25.0675470  22.4737490 101.7418710  17.1230520  19.2303470  87.5558690
  16.9219580  18.3670830  87.9172030  16.9522570  19.1436830  86.6180290
  17.8999750  29.8609740 102.2666360  17.3620840  30.5855800 101.9475060
  18.1533710  29.3840080 101.4763700  19.1525000  17.8294260 103.7922290
  19.7424690  17.5210110 104.4800110  18.3345240  17.3574010 103.9482190
  23.9718430  17.4460070 104.0255310  23.2833950  16.7841610 103.9605300
  24.6924450  16.9998340 104.4703770  24.6018830  14.0411700  90.0845570
  24.8821120  13.1979600  90.4404990  23.8284560  14.2734810  90.5984320
  15.9213320  16.3304090  87.5436570  16.2239220  16.3371520  86.6355720
  16.6607910  15.9801950  88.0404230  20.7561960  31.0960950 102.5253010
  20.6820660  31.9996090 102.8325380  19.8540800  30.7772850 102.4975080
  19.1398250  15.2738710  88.5292770  18.7920250  14.5962700  87.9495220
  19.3411020  14.8128220  89.3436160  21.3047290  30.2619460  90.1479370
  22.1998080  30.6004430  90.1698130  21.3364920  29.5398870  89.5203650
  14.9443450  25.6346510  88.3766370  15.3818320  26.1776180  89.0323950
  15.4291180  24.8093460  88.3862710  12.1589250  28.4235540  95.8286630
  12.4892260  27.5556600  95.5965270  12.5880250  28.6294060  96.6591590
  16.7551170  26.7544550  93.4888600  16.4546710  26.6309520  94.3892510
  16.6488660  25.8953140  93.0804330  12.6479460  29.2906130  98.5668260
  12.2110450  29.4706930  99.3992410  13.2157140  30.0480750  98.4249980
  28.2841640  28.7923130 102.8545570  27.6843630  28.8515690 102.1109490
  28.4135540  27.8528110 102.9842420  29.5243090  26.5340950  88.1915280
  28.6936050  26.6017600  88.6622510  29.7014920  27.4245070  87.8882140
  28.9799550  23.2788430  90.6949480  29.7418460  23.8485080  90.8009170
  28.9953920  22.7115630  91.4657790  12.4803890  21.8026360  94.9257140
  11.8252730  21.5338000  94.2816840  13.3181840  21.6930840  94.4759120
  29.9859520  24.1338530  95.5391410  30.3568350  23.3505850  95.1327380
  30.6261450  24.8227630  95.3608710  26.9693280  25.5175110 100.9521730
  26.1553120  25.9472270 101.2147520  27.3767480  26.1293520 100.3390780
  29.0318720  23.5722800  87.8522000  29.3067560  24.4801680  87.7241220
  28.8429460  23.5085330  88.7883990  25.4294330  16.5967650  89.1475630
  25.8479210  16.4098630  88.3072290  25.1230390  15.7446700  89.4578560
  28.9284060  21.5091790  92.8451430  28.5527660  20.7419720  92.4132720
  28.1987180  21.8914490  93.3326360  13.5179820  22.1878930  99.4660480
  13.8852860  22.1006330 100.3456500  12.9490640  21.4245480  99.3667340
  28.3183680  20.6563310 102.4790950  28.0869770  20.4276060 101.5788900
  28.5788230  21.5762860 102.4335840  13.0695820  19.0988020 103.3718900
  12.1751870  19.0654780 103.7112610  13.6093370  19.2974810 104.1370150
  26.7571750  15.8819740 105.2570650  27.6341930  15.8903140 105.6404650
  26.7692590  15.1450580 104.6463000  11.6941970  19.0125290  90.8682470
  10.7906050  19.2755490  90.6934130  12.1782590  19.2836460  90.0882430
  28.2035020  19.7349280  96.1458670  28.7272500  19.2411930  95.5148840
  28.7894440  19.8699640  96.8906240  28.3824740  19.8189150  99.6678220
  27.4327450  19.7852690  99.7823210  28.5637750  20.7289260  99.4327990
  14.2369180  18.0690830  88.7776850  14.9460880  17.6474050  88.2924130
  13.5209120  18.1366060  88.1460200  13.8843340  14.1230160  87.8179500
  14.6071470  14.6639100  88.1360720  14.1567860  13.8493580  86.9421040
  27.6934990  18.9922630  92.0851080  28.1894110  18.7593500  92.8699960
  27.4951060  18.1534470  91.6688720  13.5735530  13.3736350  97.7202120
  14.2211720  12.8233730  97.2797280  13.9937370  13.6279500  98.5417930
  29.1222150  17.6283580  94.6188760  29.0121430  17.4739620  95.5571030
  29.8829740  17.1004520  94.3764170  27.4687870  13.5677710 101.0771760
  28.1060090  14.1811850 101.4430950  27.6162760  13.6038370 100.1320990
  30.0112420  15.4591500  87.8594900  30.9361730  15.3272680  87.6513190
  29.9888210  15.5384320  88.8131350  30.0850910  16.2302160  90.4851610
  29.2902410  16.1647280  91.0144520  30.2894190  17.1652800  90.4736960
  27.0269330  30.2693710  94.4790000  27.6228400  29.9478280  93.8024420
  27.2847480  29.7965530  95.2703270  13.3267530  13.5292020 100.4627440
  12.9782350  13.9855840 101.2285620  12.9955230  12.6349150 100.5449870
  14.9331900  26.7011620 104.6280630  14.8901530  26.3304530 105.5095090
  15.0642910  27.6389190 104.7682450  18.6337930  28.2571210 100.2290350
  18.3929290  28.5245770  99.3420870  19.5740570  28.4276940 100.2841210
  20.8392350  14.7203900 103.9846860  20.7781240  15.3125730 104.7342270
  21.7792730  14.6129860 103.8397120  23.4766910  14.3773960 103.6239150
  24.0907320  14.6953250 102.9620230  24.0216470  13.8922550 104.2435010
  29.8942090  30.2765590 101.0300990  29.4000370  30.6734460 100.3128120
  29.2855380  29.6514800 101.4238270  13.9988170  13.0568220 103.7378210
  14.5471160  12.8756270 102.9744320  14.0643480  12.2662330 104.2734520
  14.7719930  29.6473870 101.7478410  14.1780250  29.5158570 102.4868450
  14.7643770  28.8112010 101.2820510  24.2174950  12.9406100  99.9508440
  23.3434790  13.2741210  99.7481370  24.1085700  12.4679280 100.7760310
  25.1246930  15.1476970 101.3350160  24.7960290  14.3328730 100.9551890
  26.0729230  15.1046780 101.2115850  27.5781540  30.9189010  98.3087730
  27.1184510  31.6704820  97.9345750  26.9494000  30.1995480  98.2502530
  14.4032160  27.0132250 100.6986450  13.6766220  26.3937540 100.6312400
  14.4641310  27.4072860  99.8284530  18.0077260  29.2277250  97.4835860
  18.5242280  28.6164610  96.9584120  18.6574640  29.7306030  97.9746870
  20.7472760  30.1185740  98.3104840  21.0350570  29.8640040  97.4337850
  21.2595980  29.5663100  98.9010410  21.9649770  13.8575940  98.8901350
  21.1821560  14.3321440  99.1698110  21.6712700  12.9530770  98.7814530
  26.5170840  14.5599040  96.9350440  26.9578930  14.5044140  96.0872040
  26.2478430  15.4757050  97.0060620  28.3809410  14.1914280  94.9459260
  28.3197810  13.2475500  94.7990280  29.1601440  14.2994370  95.4912720
  12.6862160  30.3306640  93.9083210  12.5184200  29.6977320  94.6065100
  11.8196670  30.5366040  93.5577400  13.3090180  14.1623420  91.4115070
  14.0669540  14.2752300  90.8379100  12.8467350  14.9992620  91.3658500
  19.8503990  16.2762690  94.4017380  19.0378500  15.9019580  94.0613260
  20.3545630  15.5207770  94.7038570  24.3528970  12.9405140  95.6400450
  24.9558340  13.5125350  96.1148970  23.6121960  13.5044580  95.4174350
  27.4963570  13.3426700  90.9140730  27.6914200  14.2410150  91.1808160
  26.7093440  13.1113780  91.4073680  14.2924860  29.0239870  91.3533350
  13.7672480  29.4047900  90.6495310  14.2169440  29.6490640  92.0743060
  15.6815330  14.6887470  89.9517040  16.2108090  13.9017270  89.8224990
  16.3143650  15.3678660  90.1852570  17.8753170  14.4262610  93.0062430
  17.2455910  13.7249920  93.1732560  17.3358310  15.1866740  92.7895590
  20.8145120  31.0401840 105.6773040  21.7412430  30.8046110 105.7209000
  20.7995550  31.8673840 105.1959070  29.0490180  30.5827410  92.6747290
  29.2242370  29.8965150  92.0308210  28.3511750  31.1074460  92.2823960
  18.0008730  13.7046590 105.4414920  17.7193000  14.2080190 104.6775740
  18.3828430  12.9068340 105.0757050  16.8917830  30.9722250  90.2282600
  17.6236650  30.6881530  89.6806490  17.1511500  30.7335530  91.1181980
  16.0532620  27.0886980  90.2328930  15.4241500  27.5572080  90.7814760
  16.1680450  26.2436200  90.6675120  24.6024190  13.1200170 106.0195390
  24.4889640  13.4394780 106.9146910  25.4193930  13.5212680 105.7232670
  27.3822680  30.2671700 105.5014080  28.1748000  29.7720930 105.2940040
  27.6755830  30.9461840 106.1089690  23.5082340  21.1392640  76.3830130
  23.4276390  20.2247250  76.1121840  23.0946760  21.6359710  75.6769840
  21.6400380  22.9171660  78.2639400  20.8642480  22.4372100  78.5537970
  22.2913310  22.2377310  78.0895560  15.6566210  23.2291470  79.1415160
  14.8251090  22.9740180  79.5411670  16.2647190  23.3002240  79.8773080
  25.6607810  27.3231850  77.0438530  25.1989340  26.5519090  77.3725700
  26.4733360  27.3497920  77.5490980  15.6367470  27.2631560  79.3373180
  15.9395510  26.3729300  79.1583400  16.3811060  27.8201780  79.1095430
  14.0658160  18.1893360  72.9257550  13.1774860  18.5309330  72.8237430
  14.3499350  17.9893680  72.0338380  12.0291170  20.7899010  78.8097250
  12.6007280  20.0221210  78.8100890  12.0292710  21.0887770  77.9003860
  21.8871120  29.6089860  76.6642520  21.2682560  30.0647360  76.0936960
  22.7422900  29.7641320  76.2632220  21.0809370  25.5928850  78.2709560
  21.0117650  24.6518790  78.1098690  21.8429230  25.6830260  78.8432130
  13.2716040  16.1983370  80.5966180  13.0918880  15.3009120  80.8768940
  12.8696120  16.7455240  81.2713130  22.1114540  18.3999230  78.4978490
  22.4879360  17.5271110  78.3852160  22.0134050  18.7357930  77.6068930
  16.2419550  16.7724860  73.9595930  16.3486300  17.6728590  74.2664690
  15.3311910  16.7242830  73.6690580  25.8938660  15.8949670  75.4306830
  26.7148280  15.4046240  75.4732310  25.9272740  16.4847330  76.1838670
  13.8902710  18.6943870  79.2048520  14.5712820  18.9582240  79.8235920
  13.5750760  17.8544740  79.5386530  18.0827280  19.7411230  78.2921110
  18.5905500  20.2392200  78.9326130  18.6140520  18.9646430  78.1160470
  30.1838210  17.9116420  81.9950460  29.4790380  18.2998130  81.4765570
  30.4496130  18.6066710  82.5971390  16.3663380  14.3809790  82.5584530
  16.3681820  14.8982180  81.7530430  15.5367690  13.9039970  82.5354460
  22.7534470  24.4929100  74.0574430  22.1351740  24.9578550  73.4937150
  23.2657720  25.1856580  74.4743940  17.6166230  24.0204970  80.7358030
  17.2835610  24.6473890  81.3779100  17.7932910  24.5466850  79.9559700
  26.1300140  17.8350050  78.2034370  25.4255710  18.1234940  78.7837480
  26.4912300  18.6450160  77.8433930  16.0478710  16.0919750  80.5654980
  16.3895520  16.9361800  80.2708850  15.1094520  16.2403490  80.6820320
  16.8285330  25.9885770  82.5507210  17.4459330  26.6636850  82.2691660
  15.9678450  26.3973750  82.4594710  12.1217670  25.1785630  71.4314060
  11.7445650  25.6672730  70.6998960  12.3790740  25.8510910  72.0620590
  27.7462920  27.4525180  80.4661850  27.0626440  28.1224290  80.4578520
  28.2857210  27.6505830  79.7006710  29.1987060  17.2804840  78.5943580
  28.2511970  17.3143820  78.7259010  29.5237050  18.0943790  78.9792940
  19.7306600  13.5802020  76.8899570  20.0381580  13.0248910  76.1735070
  18.8007300  13.7146480  76.7072560  25.2821660  29.2969310  79.1807030
  25.2948820  28.8931600  78.3129290  24.7296880  30.0716600  79.0768460
  26.5767080  26.0185530  74.2697200  26.4663410  25.0759860  74.3946620
  26.5735330  26.3801170  75.1559960  24.6807100  24.1999150  80.5089640
  25.0975890  23.9859260  79.6743100  25.4046920  24.4571940  81.0798260
  22.1187360  21.6450850  73.6259690  21.1916640  21.5788230  73.8548160
  22.2712180  22.5830980  73.5114930  22.1056440  17.9167850  70.6226850
  21.1660110  18.0781810  70.7079310  22.4239700  18.6353530  70.0762840
  28.6269200  22.5986370  80.6005880  27.7987830  22.6679460  80.1256010
  29.2219680  23.1840680  80.1321710  26.1484650  23.2071150  74.1294940
  25.5297070  22.8690700  73.4821240  26.1309100  22.5630910  74.8374130
  25.5911210  19.3855690  81.5460750  25.1782390  20.2109400  81.8000740
  24.8587160  18.8000730  81.3537110  17.7244000  22.1715590  76.4079420
  17.3201000  21.4592840  75.9125320  17.8107120  21.8268830  77.2967460
  18.1925700  25.8583150  78.5718630  17.8953990  25.2528620  77.8926410
  19.1425520  25.8960460  78.4607990  16.4372620  18.9458800  80.1878460
  16.9887210  19.0554140  79.4131710  16.9516130  19.3196400  80.9033690
  26.2811310  29.4315020  82.2341730  25.8041870  30.2387210  82.0414340
  25.5973100  28.7793350  82.3867940  17.2844130  25.5964840  85.2226430
  16.3872660  25.8204810  85.4699830  17.3097000  25.7199780  84.2737830
  24.3249350  22.4457960  71.1367690  24.7642630  21.6080390  70.9905510
  25.0377770  23.0787360  71.2231830  16.1115350  22.4678160  83.7983800
  15.9723120  23.3400960  84.1671200  15.2296710  22.1250970  83.6531740
  22.4344730  27.3854030  75.1048930  22.8740640  28.1278360  74.6904320
  22.3731620  27.6280600  76.0287890  17.9095700  28.4099860  86.0068950
  17.8811130  28.8142810  85.1397380  17.7460670  27.4810220  85.8440550
  27.9066490  13.7000770  69.4508730  27.5939150  13.7927600  70.3507800
  28.6678960  14.2781800  69.4006160  14.4248630  21.0660570  73.9086070
  14.3046230  21.7922660  73.2967340  14.1149520  20.2963480  73.4313980
  29.8610520  29.1926960  87.3033120  30.3370240  29.6709850  87.9822200
  30.4817680  29.1244450  86.5778620  12.0634000  24.2375710  79.7154710
  12.1414420  24.3724480  78.7710430  12.6775680  23.5291600  79.9082830
  13.3081630  25.9375900  76.1260890  12.9009710  26.0790490  75.2714490
  14.1994640  25.6536060  75.9232100  29.2643770  26.3839810  84.4633130
  29.3906830  26.1451690  83.5450310  29.3065150  25.5524350  84.9355210
  23.1260510  30.0867810  83.0327940  23.6405180  29.9975820  83.8350370
  22.2829590  30.4327510  83.3255850  25.1014910  30.3723150  72.4611940
  24.9416050  30.0826090  73.3593770  24.9361620  29.5963280  71.9257170
  17.5803290  30.1521680  74.2383560  17.4045770  29.2357220  74.0251360
  16.7259030  30.5108970  74.4781360  24.8041040  27.8810710  71.0209940
  24.1106200  27.8788000  70.3612220  25.5463900  27.4570030  70.5904110
  24.3690970  29.5073420  75.0958430  24.8247920  28.7262800  75.4097050
  24.7083490  30.2180240  75.6399610  29.1167780  18.4372270  85.4282870
  28.5012050  18.9451940  84.8998330  28.7964200  17.5370600  85.3708810
  12.1193520  25.2789880  82.2549170  12.2824560  24.8095240  81.4368540
  12.5845970  24.7713440  82.9198010  16.8912290  14.4095640  77.2909740
  16.4480440  15.1905180  76.9594260  17.4497280  14.7325530  77.9980680
  21.1782100  17.2764160  82.8945060  20.7161470  17.4847180  83.7065000
  20.7760210  16.4623510  82.5915730  26.1786610  18.4973110  84.0241720
  25.3280200  18.1978860  84.3450790  26.0188400  18.7415120  83.1125540
  23.2736320  19.9974860  86.1240510  23.5989730  19.1638610  85.7842740
  24.0616650  20.5203380  86.2718840  20.0071110  14.0306340  72.1715570
  19.3825290  14.0266210  72.8968880  19.9201230  13.1637300  71.7751540
  18.9288190  14.9542970  79.1499340  19.2260520  15.8605800  79.0691360
  19.4773750  14.4661750  78.5358910  16.6826510  19.5329210  75.0190990
  16.4567430  19.3166380  75.9237610  15.9019040  19.9657670  74.6736960
  23.9124270  19.5392580  73.6181640  23.3133160  20.2628380  73.4345260
  24.4603880  19.4769360  72.8358090  19.1225720  20.4314790  85.6851260
  19.0269320  19.4909520  85.5351660  19.9657700  20.6529860  85.2899330
  22.5189140  18.1756120  75.6484920  22.9118710  18.4928320  74.8353610
  22.8805990  17.2968000  75.7629440  14.2536260  16.8428460  83.8385040
  13.8599650  17.6903670  84.0457820  13.5654660  16.2054830  84.0293680
  20.8281310  16.9263430  86.9081780  20.1379630  16.7335630  87.5427870
  21.5713610  17.2098070  87.4406080  11.5553310  14.7656920  77.8715120
  11.2666360  15.3359780  78.5840100  12.2999070  14.2861370  78.2346350
  11.7423540  18.7077040  69.0817840  11.6598210  19.6507800  69.2232830
  11.3906600  18.5651950  68.2030190  23.1044280  20.7661870  79.7435700
  22.3725400  21.2748680  80.0925800  22.7068620  19.9491850  79.4424480
  19.5421670  17.4416070  78.1488190  19.5457730  17.0006020  77.2992730
  20.4372790  17.7633400  78.2560010  15.3924050  17.3242560  77.1082400
  15.0524100  17.8017790  77.8649450  14.6301370  16.8707680  76.7483500
  19.6041820  18.4428150  71.1394950  19.7254640  18.4014630  72.0880770
  19.2190330  19.3052300  70.9841680  23.5670190  16.2195550  79.1558640
  23.5842930  16.6704200  80.0000490  23.3185770  15.3201190  79.3692080
  18.6163320  20.7529290  70.5378250  18.0480220  20.3047540  69.9114160
  19.3252320  21.1122070  70.0043400  26.9940940  13.6327730  84.9945020
  27.3186710  12.9017390  85.5203000  27.0297450  13.3141370  84.0926010
  13.6932500  24.6541310  84.4144980  13.3087290  24.0134980  85.0127940
  14.0044690  25.3577430  84.9839710  19.8429640  21.5017850  79.8953600
  20.2099770  21.0276420  80.6414940  19.6534700  22.3759420  80.2361940
  12.7070130  16.2461540  76.0247070  12.4217050  15.8817210  76.8625690
  12.6448990  15.5142000  75.4110210  17.6329010  20.5426490  82.2137810
  17.3286080  21.4218470  82.4388170  18.5875470  20.6026280  82.2495250
  16.1610800  24.7487480  72.8104660  15.3873060  24.2085100  72.6503380
  16.8905430  24.2294090  72.4722420  26.9198780  23.7452840  78.6031050
  27.6397900  24.2408130  78.2127160  26.7180600  23.0670730  77.9584920
  22.3808720  15.1390800  72.7460440  21.5673330  14.6403970  72.6705750
  22.1870670  15.9789050  72.3296790  22.3017580  23.8161900  84.4900050
  22.2354890  22.8957570  84.2357640  21.6722720  23.9137340  85.2044690
  25.0957110  19.5110450  71.0422600  25.9836730  19.8227680  70.8673940
  25.0662200  18.6382700  70.6503180  16.2048200  24.4167860  76.4483470
  16.7226870  23.6136120  76.3940360  15.7532220  24.3547000  77.2900300
  21.0917700  25.6834140  71.7210770  21.4333400  26.4276370  71.2254090
  20.2630410  25.9965260  72.0835600  13.6892740  21.3829230  83.3609170
  13.3307680  22.0483080  83.9482510  13.3947300  20.5512780  83.7321790
  16.8905860  21.8413470  86.2448720  16.5906000  21.9870650  85.3476540
  17.6617100  21.2818760  86.1522110  22.2334310  26.6382470  84.2403850
  22.2478850  25.7063430  84.0222760  21.5259410  26.7242230  84.8793620
  27.3671380  20.8222290  70.5102460  27.2835100  21.2536510  69.6598900
  28.0865570  21.2820640  70.9429280  28.4445520  23.2789810  83.5872430
  27.7193710  23.8718590  83.3901820  28.9720980  23.2713350  82.7885800
  28.3958630  27.6764550  73.2384590  27.7534790  27.0220170  73.5128310
  28.0089290  28.0819640  72.4625260  23.9745110  25.0049980  77.0856280
  24.3268930  24.4078110  76.4257650  23.0907440  24.6794210  77.2564530
  20.0608390  25.7647670  74.4926690  20.7479520  26.3116880  74.8734280
  19.2740810  26.3088400  74.5276300  12.2000790  21.3820490  69.9843770
  13.0695640  21.6645290  70.2679690  11.7091110  22.1956360  69.8692580
  19.3635600  22.7693700  74.1052050  19.8198380  23.5798950  74.3312240
  19.0123810  22.4516840  74.9370540  21.6668210  28.2800040  81.3344350
  22.3110430  28.4859420  82.0117770  22.0297650  27.5188440  80.8815200
  15.2647380  13.1131350  74.5774570  15.1362010  13.1049250  75.5259490
  14.4409400  13.4514440  74.2265580  22.9400290  26.2832390  80.0521800
  23.5822520  25.5825550  80.1653970  23.4649640  27.0630830  79.8718690
  26.7856010  26.5681010  69.7760940  26.5593590  25.8511450  70.3685580
  26.3952210  26.3193450  68.9382690  24.7137910  27.0827290  83.2557860
  25.0494150  27.6693980  83.9335780  23.7938250  26.9520000  83.4855650
  12.5672040  30.5947870  70.5505400  12.9269680  31.1937210  69.8962670
  12.4264380  31.1407760  71.3240430  12.2641310  14.8722470  84.0381270
  11.5499830  15.0719390  84.6433880  12.6836350  14.0962040  84.4096070
  26.3672260  24.4852950  71.4375100  26.0793960  24.9465640  72.2252980
  27.1624430  24.0250720  71.7059320  12.5513900  28.8602730  85.0247800
  12.6605020  27.9197470  84.8843190  11.8994460  29.1257480  84.3761530
  20.5426490  27.1318620  86.4245920  20.2223360  26.4127860  86.9691610
  19.8684850  27.8073690  86.4981980  18.5840660  27.9779070  71.3679070
  18.5750760  28.7108760  70.7523580  17.6639020  27.7310650  71.4606030
  14.1847300  23.1993960  72.1125830  13.5775250  23.9392860  72.1221130
  14.6596650  23.2893320  71.2864030  23.7580090  17.3644780  81.7882720
  24.1260910  16.5439990  82.1162290  22.8978290  17.4246670  82.2038370
  27.1242120  16.3201720  72.5970280  26.4955280  16.4247390  71.8828510
  26.6294040  16.5398500  73.3864160  21.5700260  28.0407310  70.0304260
  21.6712240  27.8371300  69.1006240  20.6702000  27.7865590  70.2352040
  19.0926150  18.5987670  74.0128160  18.3842300  19.0674010  74.4541770
  19.3770630  17.9409680  74.6473350  20.7182080  20.0184370  82.0120690
  21.2167330  20.4930190  82.6772540  20.8605030  19.0947890  82.2190720
  23.1241580  15.3238330  75.4523950  23.0009360  15.3424460  74.5033460
  24.0726140  15.3717270  75.5722350  20.2118370  30.5593630  74.7251930
  20.4659870  30.5215020  73.8031300  19.2630850  30.4326960  74.7180180
  17.2961170  16.9072750  71.3878870  18.1451700  17.3442900  71.3219060
  16.9292440  17.2193010  72.2150930  27.9248940  16.2352330  82.8549080
  27.4222540  16.9757730  83.1942890  28.7405600  16.6236330  82.5385870
  26.2170950  21.4785510  76.3010440  25.2761090  21.4935740  76.4758130
  26.5315020  20.6921470  76.7470740  16.1952590  23.1605110  69.8614400
  16.9615860  23.0486470  70.4239830  16.2727280  22.4643080  69.2091170
  14.8899350  20.5930180  70.5447290  14.9702940  19.6457690  70.6564690
  15.7819100  20.9237060  70.6507950  28.2196530  28.6494360  77.9764700
  28.3443950  29.4725530  78.4488510  29.0862090  28.4385090  77.6288850
  15.6914060  30.7425570  77.6481830  16.4276540  30.1941030  77.9190400
  16.0754980  31.6081580  77.5087820  12.5759540  26.8099140  73.5223340
  11.6499320  27.0520280  73.5128750  13.0415970  27.6373400  73.4008090
  14.6972340  29.9271640  86.8367410  15.4985070  30.2483690  87.2502810
  14.1824160  29.5667220  87.5587320  18.8016370  29.9155880  69.4707400
  19.5944980  30.2044710  69.0189190  18.2820720  29.4848050  68.7919880
  23.5336970  26.0351510  86.7842820  22.9275130  26.0583110  86.0438570
  23.2291080  25.3034550  87.3210070  24.9637340  29.7631800  85.3952230
  25.9159090  29.6789820  85.3452470  24.8165560  30.4273510  86.0686020
  27.8546540  29.1426010  70.8944140  27.5688050  28.7291150  70.0798320
  27.6566090  30.0713720  70.7744660  12.4170150  22.4145100  85.7803460
  12.9209170  21.8352380  86.3519690  11.6777570  22.6985330  86.3179830
  19.3193770  25.1359290  69.3349750  19.2144410  24.5211640  70.0611130
  19.1517990  24.6125180  68.5512760  19.4708090  23.8216090  85.3138980
  18.7053760  24.3901090  85.2293650  19.6524050  23.5292300  84.4207210
  22.5596500  24.1979320  69.9391740  22.0106600  24.6448620  70.5834480
  23.1815760  23.6928570  70.4629410  26.6131440  25.5521420  85.8714000
  27.3540910  25.8897180  85.3681460  25.8504120  25.7213480  85.3183770
  14.4493230  20.5574690  86.6753530  14.4898570  20.2588560  87.5838760
  15.3038730  20.9582300  86.5161050  18.2271620  23.1570240  71.8357040
  18.6488040  22.9910110  72.6788430  18.3522460  22.3470470  71.3412180
  16.3899040  19.1366790  84.6428020  15.8595500  18.6457740  84.0151360
  17.0587110  19.5650990  84.1085950  20.7399260  22.1807850  69.0834140
  21.2604920  21.4656870  68.7175290  21.3867660  22.8193720  69.3834650
  25.2877100  23.6036250  84.4069210  25.7018120  23.7581330  85.2559630
  24.3528100  23.7291470  84.5694990  25.7599270  20.9432410  86.4108360
  26.3420040  20.1884730  86.3228840  25.9361040  21.4739850  85.6339840
  16.8771340  16.1029160  84.7225310  16.7828210  15.4849910  83.9976180
  16.2968730  16.8295450  84.4955220  19.6432780  14.6602400  81.7552700
  19.1950080  14.6826660  80.9098250  19.0097980  14.2621420  82.3523000
  20.0492330  23.5556730  82.3765140  20.4680440  24.3989460  82.2041380
  19.1300960  23.6928770  82.1471920  22.3856230  21.2872910  83.7602980
  22.5052440  20.6914050  84.4997820  23.2450230  21.3242600  83.3404280
  24.7244130  21.8410100  82.3365490  24.1979350  22.3652720  81.7330630
  25.0675470  22.4737490  82.9675220  17.1230520  19.2303470  68.7815200
  16.9219580  18.3670830  69.1428540  16.9522570  19.1436830  67.8436800
  17.8999750  29.8609740  83.4922870  17.3620840  30.5855800  83.1731570
  18.1533710  29.3840080  82.7020210  19.1525000  17.8294260  85.0178800
  19.7424690  17.5210110  85.7056620  18.3345240  17.3574010  85.1738700
  23.9718430  17.4460070  85.2511820  23.2833950  16.7841610  85.1861810
  24.6924450  16.9998340  85.6960280  24.6018830  14.0411700  71.3102080
  24.8821120  13.1979600  71.6661500  23.8284560  14.2734810  71.8240830
  15.9213320  16.3304090  68.7693080  16.2239220  16.3371520  67.8612230
  16.6607910  15.9801950  69.2660740  20.7561960  31.0960950  83.7509520
  20.6820660  31.9996090  84.0581890  19.8540800  30.7772850  83.7231590
  19.1398250  15.2738710  69.7549280  18.7920250  14.5962700  69.1751730
  19.3411020  14.8128220  70.5692670  21.3047290  30.2619460  71.3735880
  22.1998080  30.6004430  71.3954640  21.3364920  29.5398870  70.7460160
  14.9443450  25.6346510  69.6022880  15.3818320  26.1776180  70.2580460
  15.4291180  24.8093460  69.6119220  12.1589250  28.4235540  77.0543140
  12.4892260  27.5556600  76.8221780  12.5880250  28.6294060  77.8848100
  16.7551170  26.7544550  74.7145110  16.4546710  26.6309520  75.6149020
  16.6488660  25.8953140  74.3060840  12.6479460  29.2906130  79.7924770
  12.2110450  29.4706930  80.6248920  13.2157140  30.0480750  79.6506490
  28.2841640  28.7923130  84.0802080  27.6843630  28.8515690  83.3366000
  28.4135540  27.8528110  84.2098930  29.5243090  26.5340950  69.4171790
  28.6936050  26.6017600  69.8879020  29.7014920  27.4245070  69.1138650
  28.9799550  23.2788430  71.9205990  29.7418460  23.8485080  72.0265680
  28.9953920  22.7115630  72.6914300  12.4803890  21.8026360  76.1513650
  11.8252730  21.5338000  75.5073350  13.3181840  21.6930840  75.7015630
  29.9859520  24.1338530  76.7647920  30.3568350  23.3505850  76.3583890
  30.6261450  24.8227630  76.5865220  26.9693280  25.5175110  82.1778240
  26.1553120  25.9472270  82.4404030  27.3767480  26.1293520  81.5647290
  29.0318720  23.5722800  69.0778510  29.3067560  24.4801680  68.9497730
  28.8429460  23.5085330  70.0140500  25.4294330  16.5967650  70.3732140
  25.8479210  16.4098630  69.5328800  25.1230390  15.7446700  70.6835070
  28.9284060  21.5091790  74.0707940  28.5527660  20.7419720  73.6389230
  28.1987180  21.8914490  74.5582870  13.5179820  22.1878930  80.6916990
  13.8852860  22.1006330  81.5713010  12.9490640  21.4245480  80.5923850
  28.3183680  20.6563310  83.7047460  28.0869770  20.4276060  82.8045410
  28.5788230  21.5762860  83.6592350  13.0695820  19.0988020  84.5975410
  12.1751870  19.0654780  84.9369120  13.6093370  19.2974810  85.3626660
  26.7571750  15.8819740  86.4827160  27.6341930  15.8903140  86.8661160
  26.7692590  15.1450580  85.8719510  11.6941970  19.0125290  72.0938980
  10.7906050  19.2755490  71.9190640  12.1782590  19.2836460  71.3138940
  28.2035020  19.7349280  77.3715180  28.7272500  19.2411930  76.7405350
  28.7894440  19.8699640  78.1162750  28.3824740  19.8189150  80.8934730
  27.4327450  19.7852690  81.0079720  28.5637750  20.7289260  80.6584500
  14.2369180  18.0690830  70.0033360  14.9460880  17.6474050  69.5180640
  13.5209120  18.1366060  69.3716710  13.8843340  14.1230160  69.0436010
  14.6071470  14.6639100  69.3617230  14.1567860  13.8493580  68.1677550
  27.6934990  18.9922630  73.3107590  28.1894110  18.7593500  74.0956470
  27.4951060  18.1534470  72.8945230  13.5735530  13.3736350  78.9458630
  14.2211720  12.8233730  78.5053790  13.9937370  13.6279500  79.7674440
  29.1222150  17.6283580  75.8445270  29.0121430  17.4739620  76.7827540
  29.8829740  17.1004520  75.6020680  27.4687870  13.5677710  82.3028270
  28.1060090  14.1811850  82.6687460  27.6162760  13.6038370  81.3577500
  30.0112420  15.4591500  69.0851410  30.9361730  15.3272680  68.8769700
  29.9888210  15.5384320  70.0387860  30.0850910  16.2302160  71.7108120
  29.2902410  16.1647280  72.2401030  30.2894190  17.1652800  71.6993470
  27.0269330  30.2693710  75.7046510  27.6228400  29.9478280  75.0280930
  27.2847480  29.7965530  76.4959780  13.3267530  13.5292020  81.6883950
  12.9782350  13.9855840  82.4542130  12.9955230  12.6349150  81.7706380
  14.9331900  26.7011620  85.8537140  14.8901530  26.3304530  86.7351600
  15.0642910  27.6389190  85.9938960  18.6337930  28.2571210  81.4546860
  18.3929290  28.5245770  80.5677380  19.5740570  28.4276940  81.5097720
  20.8392350  14.7203900  85.2103370  20.7781240  15.3125730  85.9598780
  21.7792730  14.6129860  85.0653630  23.4766910  14.3773960  84.8495660
  24.0907320  14.6953250  84.1876740  24.0216470  13.8922550  85.4691520
  29.8942090  30.2765590  82.2557500  29.4000370  30.6734460  81.5384630
  29.2855380  29.6514800  82.6494780  13.9988170  13.0568220  84.9634720
  14.5471160  12.8756270  84.2000830  14.0643480  12.2662330  85.4991030
  14.7719930  29.6473870  82.9734920  14.1780250  29.5158570  83.7124960
  14.7643770  28.8112010  82.5077020  24.2174950  12.9406100  81.1764950
  23.3434790  13.2741210  80.9737880  24.1085700  12.4679280  82.0016820
  25.1246930  15.1476970  82.5606670  24.7960290  14.3328730  82.1808400
  26.0729230  15.1046780  82.4372360  27.5781540  30.9189010  79.5344240
  27.1184510  31.6704820  79.1602260  26.9494000  30.1995480  79.4759040
  14.4032160  27.0132250  81.9242960  13.6766220  26.3937540  81.8568910
  14.4641310  27.4072860  81.0541040  18.0077260  29.2277250  78.7092370
  18.5242280  28.6164610  78.1840630  18.6574640  29.7306030  79.2003380
  20.7472760  30.1185740  79.5361350  21.0350570  29.8640040  78.6594360
  21.2595980  29.5663100  80.1266920  21.9649770  13.8575940  80.1157860
  21.1821560  14.3321440  80.3954620  21.6712700  12.9530770  80.0071040
  26.5170840  14.5599040  78.1606950  26.9578930  14.5044140  77.3128550
  26.2478430  15.4757050  78.2317130  28.3809410  14.1914280  76.1715770
  28.3197810  13.2475500  76.0246790  29.1601440  14.2994370  76.7169230
  12.6862160  30.3306640  75.1339720  12.5184200  29.6977320  75.8321610
  11.8196670  30.5366040  74.7833910  13.3090180  14.1623420  72.6371580
  14.0669540  14.2752300  72.0635610  12.8467350  14.9992620  72.5915010
  19.8503990  16.2762690  75.6273890  19.0378500  15.9019580  75.2869770
  20.3545630  15.5207770  75.9295080  24.3528970  12.9405140  76.8656960
  24.9558340  13.5125350  77.3405480  23.6121960  13.5044580  76.6430860
  27.4963570  13.3426700  72.1397240  27.6914200  14.2410150  72.4064670
  26.7093440  13.1113780  72.6330190  14.2924860  29.0239870  72.5789860
  13.7672480  29.4047900  71.8751820  14.2169440  29.6490640  73.2999570
  15.6815330  14.6887470  71.1773550  16.2108090  13.9017270  71.0481500
  16.3143650  15.3678660  71.4109080  17.8753170  14.4262610  74.2318940
  17.2455910  13.7249920  74.3989070  17.3358310  15.1866740  74.0152100
  20.8145120  31.0401840  86.9029550  21.7412430  30.8046110  86.9465510
  20.7995550  31.8673840  86.4215580  29.0490180  30.5827410  73.9003800
  29.2242370  29.8965150  73.2564720  28.3511750  31.1074460  73.5080470
  18.0008730  13.7046590  86.6671430  17.7193000  14.2080190  85.9032250
  18.3828430  12.9068340  86.3013560  16.8917830  30.9722250  71.4539110
  17.6236650  30.6881530  70.9063000  17.1511500  30.7335530  72.3438490
  16.0532620  27.0886980  71.4585440  15.4241500  27.5572080  72.0071270
  16.1680450  26.2436200  71.8931630  24.6024190  13.1200170  87.2451900
  24.4889640  13.4394780  88.1403420  25.4193930  13.5212680  86.9489180
  27.3822680  30.2671700  86.7270590  28.1748000  29.7720930  86.5196550
  27.6755830  30.9461840  87.3346200  23.5082340  21.1392640  57.6086640
  23.4276390  20.2247250  57.3378350  23.0946760  21.6359710  56.9026350
  21.6400380  22.9171660  59.4895910  20.8642480  22.4372100  59.7794480
  22.2913310  22.2377310  59.3152070  15.6566210  23.2291470  60.3671670
  14.8251090  22.9740180  60.7668180  16.2647190  23.3002240  61.1029590
  25.6607810  27.3231850  58.2695040  25.1989340  26.5519090  58.5982210
  26.4733360  27.3497920  58.7747490  15.6367470  27.2631560  60.5629690
  15.9395510  26.3729300  60.3839910  16.3811060  27.8201780  60.3351940
  14.0658160  18.1893360  54.1514060  13.1774860  18.5309330  54.0493940
  14.3499350  17.9893680  53.2594890  12.0291170  20.7899010  60.0353760
  12.6007280  20.0221210  60.0357400  12.0292710  21.0887770  59.1260370
  21.8871120  29.6089860  57.8899030  21.2682560  30.0647360  57.3193470
  22.7422900  29.7641320  57.4888730  21.0809370  25.5928850  59.4966070
  21.0117650  24.6518790  59.3355200  21.8429230  25.6830260  60.0688640
  13.2716040  16.1983370  61.8222690  13.0918880  15.3009120  62.1025450
  12.8696120  16.7455240  62.4969640  22.1114540  18.3999230  59.7235000
  22.4879360  17.5271110  59.6108670  22.0134050  18.7357930  58.8325440
  16.2419550  16.7724860  55.1852440  16.3486300  17.6728590  55.4921200
  15.3311910  16.7242830  54.8947090  25.8938660  15.8949670  56.6563340
  26.7148280  15.4046240  56.6988820  25.9272740  16.4847330  57.4095180
  13.8902710  18.6943870  60.4305030  14.5712820  18.9582240  61.0492430
  13.5750760  17.8544740  60.7643040  18.0827280  19.7411230  59.5177620
  18.5905500  20.2392200  60.1582640  18.6140520  18.9646430  59.3416980
  30.1838210  17.9116420  63.2206970  29.4790380  18.2998130  62.7022080
  30.4496130  18.6066710  63.8227900  16.3663380  14.3809790  63.7841040
  16.3681820  14.8982180  62.9786940  15.5367690  13.9039970  63.7610970
  22.7534470  24.4929100  55.2830940  22.1351740  24.9578550  54.7193660
  23.2657720  25.1856580  55.7000450  17.6166230  24.0204970  61.9614540
  17.2835610  24.6473890  62.6035610  17.7932910  24.5466850  61.1816210
  26.1300140  17.8350050  59.4290880  25.4255710  18.1234940  60.0093990
  26.4912300  18.6450160  59.0690440  16.0478710  16.0919750  61.7911490
  16.3895520  16.9361800  61.4965360  15.1094520  16.2403490  61.9076830
  16.8285330  25.9885770  63.7763720  17.4459330  26.6636850  63.4948170
  15.9678450  26.3973750  63.6851220  12.1217670  25.1785630  52.6570570
  11.7445650  25.6672730  51.9255470  12.3790740  25.8510910  53.2877100
  27.7462920  27.4525180  61.6918360  27.0626440  28.1224290  61.6835030
  28.2857210  27.6505830  60.9263220  29.1987060  17.2804840  59.8200090
  28.2511970  17.3143820  59.9515520  29.5237050  18.0943790  60.2049450
  19.7306600  13.5802020  58.1156080  20.0381580  13.0248910  57.3991580
  18.8007300  13.7146480  57.9329070  25.2821660  29.2969310  60.4063540
  25.2948820  28.8931600  59.5385800  24.7296880  30.0716600  60.3024970
  26.5767080  26.0185530  55.4953710  26.4663410  25.0759860  55.6203130
  26.5735330  26.3801170  56.3816470  24.6807100  24.1999150  61.7346150
  25.0975890  23.9859260  60.8999610  25.4046920  24.4571940  62.3054770
  22.1187360  21.6450850  54.8516200  21.1916640  21.5788230  55.0804670
  22.2712180  22.5830980  54.7371440  22.1056440  17.9167850  51.8483360
  21.1660110  18.0781810  51.9335820  22.4239700  18.6353530  51.3019350
  28.6269200  22.5986370  61.8262390  27.7987830  22.6679460  61.3512520
  29.2219680  23.1840680  61.3578220  26.1484650  23.2071150  55.3551450
  25.5297070  22.8690700  54.7077750  26.1309100  22.5630910  56.0630640
  25.5911210  19.3855690  62.7717260  25.1782390  20.2109400  63.0257250
  24.8587160  18.8000730  62.5793620  17.7244000  22.1715590  57.6335930
  17.3201000  21.4592840  57.1381830  17.8107120  21.8268830  58.5223970
  18.1925700  25.8583150  59.7975140  17.8953990  25.2528620  59.1182920
  19.1425520  25.8960460  59.6864500  16.4372620  18.9458800  61.4134970
  16.9887210  19.0554140  60.6388220  16.9516130  19.3196400  62.1290200
  26.2811310  29.4315020  63.4598240  25.8041870  30.2387210  63.2670850
  25.5973100  28.7793350  63.6124450  17.2844130  25.5964840  66.4482940
  16.3872660  25.8204810  66.6956340  17.3097000  25.7199780  65.4994340
  24.3249350  22.4457960  52.3624200  24.7642630  21.6080390  52.2162020
  25.0377770  23.0787360  52.4488340  16.1115350  22.4678160  65.0240310
  15.9723120  23.3400960  65.3927710  15.2296710  22.1250970  64.8788250
  22.4344730  27.3854030  56.3305440  22.8740640  28.1278360  55.9160830
  22.3731620  27.6280600  57.2544400  17.9095700  28.4099860  67.2325460
  17.8811130  28.8142810  66.3653890  17.7460670  27.4810220  67.0697060
  27.9066490  13.7000770  50.6765240  27.5939150  13.7927600  51.5764310
  28.6678960  14.2781800  50.6262670  14.4248630  21.0660570  55.1342580
  14.3046230  21.7922660  54.5223850  14.1149520  20.2963480  54.6570490
  29.8610520  29.1926960  68.5289630  30.3370240  29.6709850  69.2078710
  30.4817680  29.1244450  67.8035130  12.0634000  24.2375710  60.9411220
  12.1414420  24.3724480  59.9966940  12.6775680  23.5291600  61.1339340
  13.3081630  25.9375900  57.3517400  12.9009710  26.0790490  56.4971000
  14.1994640  25.6536060  57.1488610  29.2643770  26.3839810  65.6889640
  29.3906830  26.1451690  64.7706820  29.3065150  25.5524350  66.1611720
  23.1260510  30.0867810  64.2584450  23.6405180  29.9975820  65.0606880
  22.2829590  30.4327510  64.5512360  25.1014910  30.3723150  53.6868450
  24.9416050  30.0826090  54.5850280  24.9361620  29.5963280  53.1513680
  17.5803290  30.1521680  55.4640070  17.4045770  29.2357220  55.2507870
  16.7259030  30.5108970  55.7037870  24.8041040  27.8810710  52.2466450
  24.1106200  27.8788000  51.5868730  25.5463900  27.4570030  51.8160620
  24.3690970  29.5073420  56.3214940  24.8247920  28.7262800  56.6353560
  24.7083490  30.2180240  56.8656120  29.1167780  18.4372270  66.6539380
  28.5012050  18.9451940  66.1254840  28.7964200  17.5370600  66.5965320
  12.1193520  25.2789880  63.4805680  12.2824560  24.8095240  62.6625050
  12.5845970  24.7713440  64.1454520  16.8912290  14.4095640  58.5166250
  16.4480440  15.1905180  58.1850770  17.4497280  14.7325530  59.2237190
  21.1782100  17.2764160  64.1201570  20.7161470  17.4847180  64.9321510
  20.7760210  16.4623510  63.8172240  26.1786610  18.4973110  65.2498230
  25.3280200  18.1978860  65.5707300  26.0188400  18.7415120  64.3382050
  23.2736320  19.9974860  67.3497020  23.5989730  19.1638610  67.0099250
  24.0616650  20.5203380  67.4975350  20.0071110  14.0306340  53.3972080
  19.3825290  14.0266210  54.1225390  19.9201230  13.1637300  53.0008050
  18.9288190  14.9542970  60.3755850  19.2260520  15.8605800  60.2947870
  19.4773750  14.4661750  59.7615420  16.6826510  19.5329210  56.2447500
  16.4567430  19.3166380  57.1494120  15.9019040  19.9657670  55.8993470
  23.9124270  19.5392580  54.8438150  23.3133160  20.2628380  54.6601770
  24.4603880  19.4769360  54.0614600  19.1225720  20.4314790  66.9107770
  19.0269320  19.4909520  66.7608170  19.9657700  20.6529860  66.5155840
  22.5189140  18.1756120  56.8741430  22.9118710  18.4928320  56.0610120
  22.8805990  17.2968000  56.9885950  14.2536260  16.8428460  65.0641550
  13.8599650  17.6903670  65.2714330  13.5654660  16.2054830  65.2550190
  20.8281310  16.9263430  68.1338290  20.1379630  16.7335630  68.7684380
  21.5713610  17.2098070  68.6662590  11.5553310  14.7656920  59.0971630
  11.2666360  15.3359780  59.8096610  12.2999070  14.2861370  59.4602860
  11.7423540  18.7077040  50.3074350  11.6598210  19.6507800  50.4489340
  11.3906600  18.5651950  49.4286700  23.1044280  20.7661870  60.9692210
  22.3725400  21.2748680  61.3182310  22.7068620  19.9491850  60.6680990
  19.5421670  17.4416070  59.3744700  19.5457730  17.0006020  58.5249240
  20.4372790  17.7633400  59.4816520  15.3924050  17.3242560  58.3338910
  15.0524100  17.8017790  59.0905960  14.6301370  16.8707680  57.9740010
  19.6041820  18.4428150  52.3651460  19.7254640  18.4014630  53.3137280
  19.2190330  19.3052300  52.2098190  23.5670190  16.2195550  60.3815150
  23.5842930  16.6704200  61.2257000  23.3185770  15.3201190  60.5948590
  18.6163320  20.7529290  51.7634760  18.0480220  20.3047540  51.1370670
  19.3252320  21.1122070  51.2299910  26.9940940  13.6327730  66.2201530
  27.3186710  12.9017390  66.7459510  27.0297450  13.3141370  65.3182520
  13.6932500  24.6541310  65.6401490  13.3087290  24.0134980  66.2384450
  14.0044690  25.3577430  66.2096220  19.8429640  21.5017850  61.1210110
  20.2099770  21.0276420  61.8671450  19.6534700  22.3759420  61.4618450
  12.7070130  16.2461540  57.2503580  12.4217050  15.8817210  58.0882200
  12.6448990  15.5142000  56.6366720  17.6329010  20.5426490  63.4394320
  17.3286080  21.4218470  63.6644680  18.5875470  20.6026280  63.4751760
  16.1610800  24.7487480  54.0361170  15.3873060  24.2085100  53.8759890
  16.8905430  24.2294090  53.6978930  26.9198780  23.7452840  59.8287560
  27.6397900  24.2408130  59.4383670  26.7180600  23.0670730  59.1841430
  22.3808720  15.1390800  53.9716950  21.5673330  14.6403970  53.8962260
  22.1870670  15.9789050  53.5553300  22.3017580  23.8161900  65.7156560
  22.2354890  22.8957570  65.4614150  21.6722720  23.9137340  66.4301200
  25.0957110  19.5110450  52.2679110  25.9836730  19.8227680  52.0930450
  25.0662200  18.6382700  51.8759690  16.2048200  24.4167860  57.6739980
  16.7226870  23.6136120  57.6196870  15.7532220  24.3547000  58.5156810
  21.0917700  25.6834140  52.9467280  21.4333400  26.4276370  52.4510600
  20.2630410  25.9965260  53.3092110  13.6892740  21.3829230  64.5865680
  13.3307680  22.0483080  65.1739020  13.3947300  20.5512780  64.9578300
  16.8905860  21.8413470  67.4705230  16.5906000  21.9870650  66.5733050
  17.6617100  21.2818760  67.3778620  22.2334310  26.6382470  65.4660360
  22.2478850  25.7063430  65.2479270  21.5259410  26.7242230  66.1050130
  27.3671380  20.8222290  51.7358970  27.2835100  21.2536510  50.8855410
  28.0865570  21.2820640  52.1685790  28.4445520  23.2789810  64.8128940
  27.7193710  23.8718590  64.6158330  28.9720980  23.2713350  64.0142310
  28.3958630  27.6764550  54.4641100  27.7534790  27.0220170  54.7384820
  28.0089290  28.0819640  53.6881770  23.9745110  25.0049980  58.3112790
  24.3268930  24.4078110  57.6514160  23.0907440  24.6794210  58.4821040
  20.0608390  25.7647670  55.7183200  20.7479520  26.3116880  56.0990790
  19.2740810  26.3088400  55.7532810  12.2000790  21.3820490  51.2100280
  13.0695640  21.6645290  51.4936200  11.7091110  22.1956360  51.0949090
  19.3635600  22.7693700  55.3308560  19.8198380  23.5798950  55.5568750
  19.0123810  22.4516840  56.1627050  21.6668210  28.2800040  62.5600860
  22.3110430  28.4859420  63.2374280  22.0297650  27.5188440  62.1071710
  15.2647380  13.1131350  55.8031080  15.1362010  13.1049250  56.7516000
  14.4409400  13.4514440  55.4522090  22.9400290  26.2832390  61.2778310
  23.5822520  25.5825550  61.3910480  23.4649640  27.0630830  61.0975200
  26.7856010  26.5681010  51.0017450  26.5593590  25.8511450  51.5942090
  26.3952210  26.3193450  50.1639200  24.7137910  27.0827290  64.4814370
  25.0494150  27.6693980  65.1592290  23.7938250  26.9520000  64.7112160
  12.5672040  30.5947870  51.7761910  12.9269680  31.1937210  51.1219180
  12.4264380  31.1407760  52.5496940  12.2641310  14.8722470  65.2637780
  11.5499830  15.0719390  65.8690390  12.6836350  14.0962040  65.6352580
  26.3672260  24.4852950  52.6631610  26.0793960  24.9465640  53.4509490
  27.1624430  24.0250720  52.9315830  12.5513900  28.8602730  66.2504310
  12.6605020  27.9197470  66.1099700  11.8994460  29.1257480  65.6018040
  20.5426490  27.1318620  67.6502430  20.2223360  26.4127860  68.1948120
  19.8684850  27.8073690  67.7238490  18.5840660  27.9779070  52.5935580
  18.5750760  28.7108760  51.9780090  17.6639020  27.7310650  52.6862540
  14.1847300  23.1993960  53.3382340  13.5775250  23.9392860  53.3477640
  14.6596650  23.2893320  52.5120540  23.7580090  17.3644780  63.0139230
  24.1260910  16.5439990  63.3418800  22.8978290  17.4246670  63.4294880
  27.1242120  16.3201720  53.8226790  26.4955280  16.4247390  53.1085020
  26.6294040  16.5398500  54.6120670  21.5700260  28.0407310  51.2560770
  21.6712240  27.8371300  50.3262750  20.6702000  27.7865590  51.4608550
  19.0926150  18.5987670  55.2384670  18.3842300  19.0674010  55.6798280
  19.3770630  17.9409680  55.8729860  20.7182080  20.0184370  63.2377200
  21.2167330  20.4930190  63.9029050  20.8605030  19.0947890  63.4447230
  23.1241580  15.3238330  56.6780460  23.0009360  15.3424460  55.7289970
  24.0726140  15.3717270  56.7978860  20.2118370  30.5593630  55.9508440
  20.4659870  30.5215020  55.0287810  19.2630850  30.4326960  55.9436690
  17.2961170  16.9072750  52.6135380  18.1451700  17.3442900  52.5475570
  16.9292440  17.2193010  53.4407440  27.9248940  16.2352330  64.0805590
  27.4222540  16.9757730  64.4199400  28.7405600  16.6236330  63.7642380
  26.2170950  21.4785510  57.5266950  25.2761090  21.4935740  57.7014640
  26.5315020  20.6921470  57.9727250  16.1952590  23.1605110  51.0870910
  16.9615860  23.0486470  51.6496340  16.2727280  22.4643080  50.4347680
  14.8899350  20.5930180  51.7703800  14.9702940  19.6457690  51.8821200
  15.7819100  20.9237060  51.8764460  28.2196530  28.6494360  59.2021210
  28.3443950  29.4725530  59.6745020  29.0862090  28.4385090  58.8545360
  15.6914060  30.7425570  58.8738340  16.4276540  30.1941030  59.1446910
  16.0754980  31.6081580  58.7344330  12.5759540  26.8099140  54.7479850
  11.6499320  27.0520280  54.7385260  13.0415970  27.6373400  54.6264600
  14.6972340  29.9271640  68.0623920  15.4985070  30.2483690  68.4759320
  14.1824160  29.5667220  68.7843830  18.8016370  29.9155880  50.6963910
  19.5944980  30.2044710  50.2445700  18.2820720  29.4848050  50.0176390
  23.5336970  26.0351510  68.0099330  22.9275130  26.0583110  67.2695080
  23.2291080  25.3034550  68.5466580  24.9637340  29.7631800  66.6208740
  25.9159090  29.6789820  66.5708980  24.8165560  30.4273510  67.2942530
  27.8546540  29.1426010  52.1200650  27.5688050  28.7291150  51.3054830
  27.6566090  30.0713720  52.0001170  12.4170150  22.4145100  67.0059970
  12.9209170  21.8352380  67.5776200  11.6777570  22.6985330  67.5436340
  19.3193770  25.1359290  50.5606260  19.2144410  24.5211640  51.2867640
  19.1517990  24.6125180  49.7769270  19.4708090  23.8216090  66.5395490
  18.7053760  24.3901090  66.4550160  19.6524050  23.5292300  65.6463720
  22.5596500  24.1979320  51.1648250  22.0106600  24.6448620  51.8090990
  23.1815760  23.6928570  51.6885920  26.6131440  25.5521420  67.0970510
  27.3540910  25.8897180  66.5937970  25.8504120  25.7213480  66.5440280
  14.4493230  20.5574690  67.9010040  14.4898570  20.2588560  68.8095270
  15.3038730  20.9582300  67.7417560  18.2271620  23.1570240  53.0613550
  18.6488040  22.9910110  53.9044940  18.3522460  22.3470470  52.5668690
  16.3899040  19.1366790  65.8684530  15.8595500  18.6457740  65.2407870
  17.0587110  19.5650990  65.3342460  20.7399260  22.1807850  50.3090650
  21.2604920  21.4656870  49.9431800  21.3867660  22.8193720  50.6091160
  25.2877100  23.6036250  65.6325720  25.7018120  23.7581330  66.4816140
  24.3528100  23.7291470  65.7951500  25.7599270  20.9432410  67.6364870
  26.3420040  20.1884730  67.5485350  25.9361040  21.4739850  66.8596350
  16.8771340  16.1029160  65.9481820  16.7828210  15.4849910  65.2232690
  16.2968730  16.8295450  65.7211730  19.6432780  14.6602400  62.9809210
  19.1950080  14.6826660  62.1354760  19.0097980  14.2621420  63.5779510
  20.0492330  23.5556730  63.6021650  20.4680440  24.3989460  63.4297890
  19.1300960  23.6928770  63.3728430  22.3856230  21.2872910  64.9859490
  22.5052440  20.6914050  65.7254330  23.2450230  21.3242600  64.5660790
  24.7244130  21.8410100  63.5622000  24.1979350  22.3652720  62.9587140
  25.0675470  22.4737490  64.1931730  17.1230520  19.2303470  50.0071710
  16.9219580  18.3670830  50.3685050  16.9522570  19.1436830  49.0693310
  17.8999750  29.8609740  64.7179380  17.3620840  30.5855800  64.3988080
  18.1533710  29.3840080  63.9276720  19.1525000  17.8294260  66.2435310
  19.7424690  17.5210110  66.9313130  18.3345240  17.3574010  66.3995210
  23.9718430  17.4460070  66.4768330  23.2833950  16.7841610  66.4118320
  24.6924450  16.9998340  66.9216790  24.6018830  14.0411700  52.5358590
  24.8821120  13.1979600  52.8918010  23.8284560  14.2734810  53.0497340
  15.9213320  16.3304090  49.9949590  16.2239220  16.3371520  49.0868740
  16.6607910  15.9801950  50.4917250  20.7561960  31.0960950  64.9766030
  20.6820660  31.9996090  65.2838400  19.8540800  30.7772850  64.9488100
  19.1398250  15.2738710  50.9805790  18.7920250  14.5962700  50.4008240
  19.3411020  14.8128220  51.7949180  21.3047290  30.2619460  52.5992390
  22.1998080  30.6004430  52.6211150  21.3364920  29.5398870  51.9716670
  14.9443450  25.6346510  50.8279390  15.3818320  26.1776180  51.4836970
  15.4291180  24.8093460  50.8375730  12.1589250  28.4235540  58.2799650
  12.4892260  27.5556600  58.0478290  12.5880250  28.6294060  59.1104610
  16.7551170  26.7544550  55.9401620  16.4546710  26.6309520  56.8405530
  16.6488660  25.8953140  55.5317350  12.6479460  29.2906130  61.0181280
  12.2110450  29.4706930  61.8505430  13.2157140  30.0480750  60.8763000
  28.2841640  28.7923130  65.3058590  27.6843630  28.8515690  64.5622510
  28.4135540  27.8528110  65.4355440  29.5243090  26.5340950  50.6428300
  28.6936050  26.6017600  51.1135530  29.7014920  27.4245070  50.3395160
  28.9799550  23.2788430  53.1462500  29.7418460  23.8485080  53.2522190
  28.9953920  22.7115630  53.9170810  12.4803890  21.8026360  57.3770160
  11.8252730  21.5338000  56.7329860  13.3181840  21.6930840  56.9272140
  29.9859520  24.1338530  57.9904430  30.3568350  23.3505850  57.5840400
  30.6261450  24.8227630  57.8121730  26.9693280  25.5175110  63.4034750
  26.1553120  25.9472270  63.6660540  27.3767480  26.1293520  62.7903800
  29.0318720  23.5722800  50.3035020  29.3067560  24.4801680  50.1754240
  28.8429460  23.5085330  51.2397010  25.4294330  16.5967650  51.5988650
  25.8479210  16.4098630  50.7585310  25.1230390  15.7446700  51.9091580
  28.9284060  21.5091790  55.2964450  28.5527660  20.7419720  54.8645740
  28.1987180  21.8914490  55.7839380  13.5179820  22.1878930  61.9173500
  13.8852860  22.1006330  62.7969520  12.9490640  21.4245480  61.8180360
  28.3183680  20.6563310  64.9303970  28.0869770  20.4276060  64.0301920
  28.5788230  21.5762860  64.8848860  13.0695820  19.0988020  65.8231920
  12.1751870  19.0654780  66.1625630  13.6093370  19.2974810  66.5883170
  26.7571750  15.8819740  67.7083670  27.6341930  15.8903140  68.0917670
  26.7692590  15.1450580  67.0976020  11.6941970  19.0125290  53.3195490
  10.7906050  19.2755490  53.1447150  12.1782590  19.2836460  52.5395450
  28.2035020  19.7349280  58.5971690  28.7272500  19.2411930  57.9661860
  28.7894440  19.8699640  59.3419260  28.3824740  19.8189150  62.1191240
  27.4327450  19.7852690  62.2336230  28.5637750  20.7289260  61.8841010
  14.2369180  18.0690830  51.2289870  14.9460880  17.6474050  50.7437150
  13.5209120  18.1366060  50.5973220  13.8843340  14.1230160  50.2692520
  14.6071470  14.6639100  50.5873740  14.1567860  13.8493580  49.3934060
  27.6934990  18.9922630  54.5364100  28.1894110  18.7593500  55.3212980
  27.4951060  18.1534470  54.1201740  13.5735530  13.3736350  60.1715140
  14.2211720  12.8233730  59.7310300  13.9937370  13.6279500  60.9930950
  29.1222150  17.6283580  57.0701780  29.0121430  17.4739620  58.0084050
  29.8829740  17.1004520  56.8277190  27.4687870  13.5677710  63.5284780
  28.1060090  14.1811850  63.8943970  27.6162760  13.6038370  62.5834010
  30.0112420  15.4591500  50.3107920  30.9361730  15.3272680  50.1026210
  29.9888210  15.5384320  51.2644370  30.0850910  16.2302160  52.9364630
  29.2902410  16.1647280  53.4657540  30.2894190  17.1652800  52.9249980
  27.0269330  30.2693710  56.9303020  27.6228400  29.9478280  56.2537440
  27.2847480  29.7965530  57.7216290  13.3267530  13.5292020  62.9140460
  12.9782350  13.9855840  63.6798640  12.9955230  12.6349150  62.9962890
  14.9331900  26.7011620  67.0793650  14.8901530  26.3304530  67.9608110
  15.0642910  27.6389190  67.2195470  18.6337930  28.2571210  62.6803370
  18.3929290  28.5245770  61.7933890  19.5740570  28.4276940  62.7354230
  20.8392350  14.7203900  66.4359880  20.7781240  15.3125730  67.1855290
  21.7792730  14.6129860  66.2910140  23.4766910  14.3773960  66.0752170
  24.0907320  14.6953250  65.4133250  24.0216470  13.8922550  66.6948030
  29.8942090  30.2765590  63.4814010  29.4000370  30.6734460  62.7641140
  29.2855380  29.6514800  63.8751290  13.9988170  13.0568220  66.1891230
  14.5471160  12.8756270  65.4257340  14.0643480  12.2662330  66.7247540
  14.7719930  29.6473870  64.1991430  14.1780250  29.5158570  64.9381470
  14.7643770  28.8112010  63.7333530  24.2174950  12.9406100  62.4021460
  23.3434790  13.2741210  62.1994390  24.1085700  12.4679280  63.2273330
  25.1246930  15.1476970  63.7863180  24.7960290  14.3328730  63.4064910
  26.0729230  15.1046780  63.6628870  27.5781540  30.9189010  60.7600750
  27.1184510  31.6704820  60.3858770  26.9494000  30.1995480  60.7015550
  14.4032160  27.0132250  63.1499470  13.6766220  26.3937540  63.0825420
  14.4641310  27.4072860  62.2797550  18.0077260  29.2277250  59.9348880
  18.5242280  28.6164610  59.4097140  18.6574640  29.7306030  60.4259890
  20.7472760  30.1185740  60.7617860  21.0350570  29.8640040  59.8850870
  21.2595980  29.5663100  61.3523430  21.9649770  13.8575940  61.3414370
  21.1821560  14.3321440  61.6211130  21.6712700  12.9530770  61.2327550
  26.5170840  14.5599040  59.3863460  26.9578930  14.5044140  58.5385060
  26.2478430  15.4757050  59.4573640  28.3809410  14.1914280  57.3972280
  28.3197810  13.2475500  57.2503300  29.1601440  14.2994370  57.9425740
  12.6862160  30.3306640  56.3596230  12.5184200  29.6977320  57.0578120
  11.8196670  30.5366040  56.0090420  13.3090180  14.1623420  53.8628090
  14.0669540  14.2752300  53.2892120  12.8467350  14.9992620  53.8171520
  19.8503990  16.2762690  56.8530400  19.0378500  15.9019580  56.5126280
  20.3545630  15.5207770  57.1551590  24.3528970  12.9405140  58.0913470
  24.9558340  13.5125350  58.5661990  23.6121960  13.5044580  57.8687370
  27.4963570  13.3426700  53.3653750  27.6914200  14.2410150  53.6321180
  26.7093440  13.1113780  53.8586700  14.2924860  29.0239870  53.8046370
  13.7672480  29.4047900  53.1008330  14.2169440  29.6490640  54.5256080
  15.6815330  14.6887470  52.4030060  16.2108090  13.9017270  52.2738010
  16.3143650  15.3678660  52.6365590  17.8753170  14.4262610  55.4575450
  17.2455910  13.7249920  55.6245580  17.3358310  15.1866740  55.2408610
  20.8145120  31.0401840  68.1286060  21.7412430  30.8046110  68.1722020
  20.7995550  31.8673840  67.6472090  29.0490180  30.5827410  55.1260310
  29.2242370  29.8965150  54.4821230  28.3511750  31.1074460  54.7336980
  18.0008730  13.7046590  67.8927940  17.7193000  14.2080190  67.1288760
  18.3828430  12.9068340  67.5270070  16.8917830  30.9722250  52.6795620
  17.6236650  30.6881530  52.1319510  17.1511500  30.7335530  53.5695000
  16.0532620  27.0886980  52.6841950  15.4241500  27.5572080  53.2327780
  16.1680450  26.2436200  53.1188140  24.6024190  13.1200170  68.4708410
  24.4889640  13.4394780  69.3659930  25.4193930  13.5212680  68.1745690
  27.3822680  30.2671700  67.9527100  28.1748000  29.7720930  67.7453060
  27.6755830  30.9461840  68.5602710  23.5082340  21.1392640  38.8343150
  23.4276390  20.2247250  38.5634860  23.0946760  21.6359710  38.1282860
  21.6400380  22.9171660  40.7152420  20.8642480  22.4372100  41.0050990
  22.2913310  22.2377310  40.5408580  15.6566210  23.2291470  41.5928180
  14.8251090  22.9740180  41.9924690  16.2647190  23.3002240  42.3286100
  25.6607810  27.3231850  39.4951550  25.1989340  26.5519090  39.8238720
  26.4733360  27.3497920  40.0004000  15.6367470  27.2631560  41.7886200
  15.9395510  26.3729300  41.6096420  16.3811060  27.8201780  41.5608450
  14.0658160  18.1893360  35.3770570  13.1774860  18.5309330  35.2750450
  14.3499350  17.9893680  34.4851400  12.0291170  20.7899010  41.2610270
  12.6007280  20.0221210  41.2613910  12.0292710  21.0887770  40.3516880
  21.8871120  29.6089860  39.1155540  21.2682560  30.0647360  38.5449980
  22.7422900  29.7641320  38.7145240  21.0809370  25.5928850  40.7222580
  21.0117650  24.6518790  40.5611710  21.8429230  25.6830260  41.2945150
  13.2716040  16.1983370  43.0479200  13.0918880  15.3009120  43.3281960
  12.8696120  16.7455240  43.7226150  22.1114540  18.3999230  40.9491510
  22.4879360  17.5271110  40.8365180  22.0134050  18.7357930  40.0581950
  16.2419550  16.7724860  36.4108950  16.3486300  17.6728590  36.7177710
  15.3311910  16.7242830  36.1203600  25.8938660  15.8949670  37.8819850
  26.7148280  15.4046240  37.9245330  25.9272740  16.4847330  38.6351690
  13.8902710  18.6943870  41.6561540  14.5712820  18.9582240  42.2748940
  13.5750760  17.8544740  41.9899550  18.0827280  19.7411230  40.7434130
  18.5905500  20.2392200  41.3839150  18.6140520  18.9646430  40.5673490
  30.1838210  17.9116420  44.4463480  29.4790380  18.2998130  43.9278590
  30.4496130  18.6066710  45.0484410  16.3663380  14.3809790  45.0097550
  16.3681820  14.8982180  44.2043450  15.5367690  13.9039970  44.9867480
  22.7534470  24.4929100  36.5087450  22.1351740  24.9578550  35.9450170
  23.2657720  25.1856580  36.9256960  17.6166230  24.0204970  43.1871050
  17.2835610  24.6473890  43.8292120  17.7932910  24.5466850  42.4072720
  26.1300140  17.8350050  40.6547390  25.4255710  18.1234940  41.2350500
  26.4912300  18.6450160  40.2946950  16.0478710  16.0919750  43.0168000
  16.3895520  16.9361800  42.7221870  15.1094520  16.2403490  43.1333340
  16.8285330  25.9885770  45.0020230  17.4459330  26.6636850  44.7204680
  15.9678450  26.3973750  44.9107730  12.1217670  25.1785630  33.8827080
  11.7445650  25.6672730  33.1511980  12.3790740  25.8510910  34.5133610
  27.7462920  27.4525180  42.9174870  27.0626440  28.1224290  42.9091540
  28.2857210  27.6505830  42.1519730  29.1987060  17.2804840  41.0456600
  28.2511970  17.3143820  41.1772030  29.5237050  18.0943790  41.4305960
  19.7306600  13.5802020  39.3412590  20.0381580  13.0248910  38.6248090
  18.8007300  13.7146480  39.1585580  25.2821660  29.2969310  41.6320050
  25.2948820  28.8931600  40.7642310  24.7296880  30.0716600  41.5281480
  26.5767080  26.0185530  36.7210220  26.4663410  25.0759860  36.8459640
  26.5735330  26.3801170  37.6072980  24.6807100  24.1999150  42.9602660
  25.0975890  23.9859260  42.1256120  25.4046920  24.4571940  43.5311280
  22.1187360  21.6450850  36.0772710  21.1916640  21.5788230  36.3061180
  22.2712180  22.5830980  35.9627950  22.1056440  17.9167850  33.0739870
  21.1660110  18.0781810  33.1592330  22.4239700  18.6353530  32.5275860
  28.6269200  22.5986370  43.0518900  27.7987830  22.6679460  42.5769030
  29.2219680  23.1840680  42.5834730  26.1484650  23.2071150  36.5807960
  25.5297070  22.8690700  35.9334260  26.1309100  22.5630910  37.2887150
  25.5911210  19.3855690  43.9973770  25.1782390  20.2109400  44.2513760
  24.8587160  18.8000730  43.8050130  17.7244000  22.1715590  38.8592440
  17.3201000  21.4592840  38.3638340  17.8107120  21.8268830  39.7480480
  18.1925700  25.8583150  41.0231650  17.8953990  25.2528620  40.3439430
  19.1425520  25.8960460  40.9121010  16.4372620  18.9458800  42.6391480
  16.9887210  19.0554140  41.8644730  16.9516130  19.3196400  43.3546710
  26.2811310  29.4315020  44.6854750  25.8041870  30.2387210  44.4927360
  25.5973100  28.7793350  44.8380960  17.2844130  25.5964840  47.6739450
  16.3872660  25.8204810  47.9212850  17.3097000  25.7199780  46.7250850
  24.3249350  22.4457960  33.5880710  24.7642630  21.6080390  33.4418530
  25.0377770  23.0787360  33.6744850  16.1115350  22.4678160  46.2496820
  15.9723120  23.3400960  46.6184220  15.2296710  22.1250970  46.1044760
  22.4344730  27.3854030  37.5561950  22.8740640  28.1278360  37.1417340
  22.3731620  27.6280600  38.4800910  17.9095700  28.4099860  48.4581970
  17.8811130  28.8142810  47.5910400  17.7460670  27.4810220  48.2953570
  27.9066490  13.7000770  31.9021750  27.5939150  13.7927600  32.8020820
  28.6678960  14.2781800  31.8519180  14.4248630  21.0660570  36.3599090
  14.3046230  21.7922660  35.7480360  14.1149520  20.2963480  35.8827000
  29.8610520  29.1926960  49.7546140  30.3370240  29.6709850  50.4335220
  30.4817680  29.1244450  49.0291640  12.0634000  24.2375710  42.1667730
  12.1414420  24.3724480  41.2223450  12.6775680  23.5291600  42.3595850
  13.3081630  25.9375900  38.5773910  12.9009710  26.0790490  37.7227510
  14.1994640  25.6536060  38.3745120  29.2643770  26.3839810  46.9146150
  29.3906830  26.1451690  45.9963330  29.3065150  25.5524350  47.3868230
  23.1260510  30.0867810  45.4840960  23.6405180  29.9975820  46.2863390
  22.2829590  30.4327510  45.7768870  25.1014910  30.3723150  34.9124960
  24.9416050  30.0826090  35.8106790  24.9361620  29.5963280  34.3770190
  17.5803290  30.1521680  36.6896580  17.4045770  29.2357220  36.4764380
  16.7259030  30.5108970  36.9294380  24.8041040  27.8810710  33.4722960
  24.1106200  27.8788000  32.8125240  25.5463900  27.4570030  33.0417130
  24.3690970  29.5073420  37.5471450  24.8247920  28.7262800  37.8610070
  24.7083490  30.2180240  38.0912630  29.1167780  18.4372270  47.8795890
  28.5012050  18.9451940  47.3511350  28.7964200  17.5370600  47.8221830
  12.1193520  25.2789880  44.7062190  12.2824560  24.8095240  43.8881560
  12.5845970  24.7713440  45.3711030  16.8912290  14.4095640  39.7422760
  16.4480440  15.1905180  39.4107280  17.4497280  14.7325530  40.4493700
  21.1782100  17.2764160  45.3458080  20.7161470  17.4847180  46.1578020
  20.7760210  16.4623510  45.0428750  26.1786610  18.4973110  46.4754740
  25.3280200  18.1978860  46.7963810  26.0188400  18.7415120  45.5638560
  23.2736320  19.9974860  48.5753530  23.5989730  19.1638610  48.2355760
  24.0616650  20.5203380  48.7231860  20.0071110  14.0306340  34.6228590
  19.3825290  14.0266210  35.3481900  19.9201230  13.1637300  34.2264560
  18.9288190  14.9542970  41.6012360  19.2260520  15.8605800  41.5204380
  19.4773750  14.4661750  40.9871930  16.6826510  19.5329210  37.4704010
  16.4567430  19.3166380  38.3750630  15.9019040  19.9657670  37.1249980
  23.9124270  19.5392580  36.0694660  23.3133160  20.2628380  35.8858280
  24.4603880  19.4769360  35.2871110  19.1225720  20.4314790  48.1364280
  19.0269320  19.4909520  47.9864680  19.9657700  20.6529860  47.7412350
  22.5189140  18.1756120  38.0997940  22.9118710  18.4928320  37.2866630
  22.8805990  17.2968000  38.2142460  14.2536260  16.8428460  46.2898060
  13.8599650  17.6903670  46.4970840  13.5654660  16.2054830  46.4806700
  20.8281310  16.9263430  49.3594800  20.1379630  16.7335630  49.9940890
  21.5713610  17.2098070  49.8919100  11.5553310  14.7656920  40.3228140
  11.2666360  15.3359780  41.0353120  12.2999070  14.2861370  40.6859370
  11.7423540  18.7077040  31.5330860  11.6598210  19.6507800  31.6745850
  11.3906600  18.5651950  30.6543210  23.1044280  20.7661870  42.1948720
  22.3725400  21.2748680  42.5438820  22.7068620  19.9491850  41.8937500
  19.5421670  17.4416070  40.6001210  19.5457730  17.0006020  39.7505750
  20.4372790  17.7633400  40.7073030  15.3924050  17.3242560  39.5595420
  15.0524100  17.8017790  40.3162470  14.6301370  16.8707680  39.1996520
  19.6041820  18.4428150  33.5907970  19.7254640  18.4014630  34.5393790
  19.2190330  19.3052300  33.4354700  23.5670190  16.2195550  41.6071660
  23.5842930  16.6704200  42.4513510  23.3185770  15.3201190  41.8205100
  18.6163320  20.7529290  32.9891270  18.0480220  20.3047540  32.3627180
  19.3252320  21.1122070  32.4556420  26.9940940  13.6327730  47.4458040
  27.3186710  12.9017390  47.9716020  27.0297450  13.3141370  46.5439030
  13.6932500  24.6541310  46.8658000  13.3087290  24.0134980  47.4640960
  14.0044690  25.3577430  47.4352730  19.8429640  21.5017850  42.3466620
  20.2099770  21.0276420  43.0927960  19.6534700  22.3759420  42.6874960
  12.7070130  16.2461540  38.4760090  12.4217050  15.8817210  39.3138710
  12.6448990  15.5142000  37.8623230  17.6329010  20.5426490  44.6650830
  17.3286080  21.4218470  44.8901190  18.5875470  20.6026280  44.7008270
  16.1610800  24.7487480  35.2617680  15.3873060  24.2085100  35.1016400
  16.8905430  24.2294090  34.9235440  26.9198780  23.7452840  41.0544070
  27.6397900  24.2408130  40.6640180  26.7180600  23.0670730  40.4097940
  22.3808720  15.1390800  35.1973460  21.5673330  14.6403970  35.1218770
  22.1870670  15.9789050  34.7809810  22.3017580  23.8161900  46.9413070
  22.2354890  22.8957570  46.6870660  21.6722720  23.9137340  47.6557710
  25.0957110  19.5110450  33.4935620  25.9836730  19.8227680  33.3186960
  25.0662200  18.6382700  33.1016200  16.2048200  24.4167860  38.8996490
  16.7226870  23.6136120  38.8453380  15.7532220  24.3547000  39.7413320
  21.0917700  25.6834140  34.1723790  21.4333400  26.4276370  33.6767110
  20.2630410  25.9965260  34.5348620  13.6892740  21.3829230  45.8122190
  13.3307680  22.0483080  46.3995530  13.3947300  20.5512780  46.1834810
  16.8905860  21.8413470  48.6961740  16.5906000  21.9870650  47.7989560
  17.6617100  21.2818760  48.6035130  22.2334310  26.6382470  46.6916870
  22.2478850  25.7063430  46.4735780  21.5259410  26.7242230  47.3306640
  27.3671380  20.8222290  32.9615480  27.2835100  21.2536510  32.1111920
  28.0865570  21.2820640  33.3942300  28.4445520  23.2789810  46.0385450
  27.7193710  23.8718590  45.8414840  28.9720980  23.2713350  45.2398820
  28.3958630  27.6764550  35.6897610  27.7534790  27.0220170  35.9641330
  28.0089290  28.0819640  34.9138280  23.9745110  25.0049980  39.5369300
  24.3268930  24.4078110  38.8770670  23.0907440  24.6794210  39.7077550
  20.0608390  25.7647670  36.9439710  20.7479520  26.3116880  37.3247300
  19.2740810  26.3088400  36.9789320  12.2000790  21.3820490  32.4356790
  13.0695640  21.6645290  32.7192710  11.7091110  22.1956360  32.3205600
  19.3635600  22.7693700  36.5565070  19.8198380  23.5798950  36.7825260
  19.0123810  22.4516840  37.3883560  21.6668210  28.2800040  43.7857370
  22.3110430  28.4859420  44.4630790  22.0297650  27.5188440  43.3328220
  15.2647380  13.1131350  37.0287590  15.1362010  13.1049250  37.9772510
  14.4409400  13.4514440  36.6778600  22.9400290  26.2832390  42.5034820
  23.5822520  25.5825550  42.6166990  23.4649640  27.0630830  42.3231710
  26.7856010  26.5681010  32.2273960  26.5593590  25.8511450  32.8198600
  26.3952210  26.3193450  31.3895710  24.7137910  27.0827290  45.7070880
  25.0494150  27.6693980  46.3848800  23.7938250  26.9520000  45.9368670
  12.5672040  30.5947870  33.0018420  12.9269680  31.1937210  32.3475690
  12.4264380  31.1407760  33.7753450  12.2641310  14.8722470  46.4894290
  11.5499830  15.0719390  47.0946900  12.6836350  14.0962040  46.8609090
  26.3672260  24.4852950  33.8888120  26.0793960  24.9465640  34.6766000
  27.1624430  24.0250720  34.1572340  12.5513900  28.8602730  47.4760820
  12.6605020  27.9197470  47.3356210  11.8994460  29.1257480  46.8274550
  20.5426490  27.1318620  48.8758940  20.2223360  26.4127860  49.4204630
  19.8684850  27.8073690  48.9495000  18.5840660  27.9779070  33.8192090
  18.5750760  28.7108760  33.2036600  17.6639020  27.7310650  33.9119050
  14.1847300  23.1993960  34.5638850  13.5775250  23.9392860  34.5734150
  14.6596650  23.2893320  33.7377050  23.7580090  17.3644780  44.2395740
  24.1260910  16.5439990  44.5675310  22.8978290  17.4246670  44.6551390
  27.1242120  16.3201720  35.0483300  26.4955280  16.4247390  34.3341530
  26.6294040  16.5398500  35.8377180  21.5700260  28.0407310  32.4817280
  21.6712240  27.8371300  31.5519260  20.6702000  27.7865590  32.6865060
  19.0926150  18.5987670  36.4641180  18.3842300  19.0674010  36.9054790
  19.3770630  17.9409680  37.0986370  20.7182080  20.0184370  44.4633710
  21.2167330  20.4930190  45.1285560  20.8605030  19.0947890  44.6703740
  23.1241580  15.3238330  37.9036970  23.0009360  15.3424460  36.9546480
  24.0726140  15.3717270  38.0235370  20.2118370  30.5593630  37.1764950
  20.4659870  30.5215020  36.2544320  19.2630850  30.4326960  37.1693200
  17.2961170  16.9072750  33.8391890  18.1451700  17.3442900  33.7732080
  16.9292440  17.2193010  34.6663950  27.9248940  16.2352330  45.3062100
  27.4222540  16.9757730  45.6455910  28.7405600  16.6236330  44.9898890
  26.2170950  21.4785510  38.7523460  25.2761090  21.4935740  38.9271150
  26.5315020  20.6921470  39.1983760  16.1952590  23.1605110  32.3127420
  16.9615860  23.0486470  32.8752850  16.2727280  22.4643080  31.6604190
  14.8899350  20.5930180  32.9960310  14.9702940  19.6457690  33.1077710
  15.7819100  20.9237060  33.1020970  28.2196530  28.6494360  40.4277720
  28.3443950  29.4725530  40.9001530  29.0862090  28.4385090  40.0801870
  15.6914060  30.7425570  40.0994850  16.4276540  30.1941030  40.3703420
  16.0754980  31.6081580  39.9600840  12.5759540  26.8099140  35.9736360
  11.6499320  27.0520280  35.9641770  13.0415970  27.6373400  35.8521110
  14.6972340  29.9271640  49.2880430  15.4985070  30.2483690  49.7015830
  14.1824160  29.5667220  50.0100340  18.8016370  29.9155880  31.9220420
  19.5944980  30.2044710  31.4702210  18.2820720  29.4848050  31.2432900
  23.5336970  26.0351510  49.2355840  22.9275130  26.0583110  48.4951590
  23.2291080  25.3034550  49.7723090  24.9637340  29.7631800  47.8465250
  25.9159090  29.6789820  47.7965490  24.8165560  30.4273510  48.5199040
  27.8546540  29.1426010  33.3457160  27.5688050  28.7291150  32.5311340
  27.6566090  30.0713720  33.2257680  12.4170150  22.4145100  48.2316480
  12.9209170  21.8352380  48.8032710  11.6777570  22.6985330  48.7692850
  19.3193770  25.1359290  31.7862770  19.2144410  24.5211640  32.5124150
  19.1517990  24.6125180  31.0025780  19.4708090  23.8216090  47.7652000
  18.7053760  24.3901090  47.6806670  19.6524050  23.5292300  46.8720230
  22.5596500  24.1979320  32.3904760  22.0106600  24.6448620  33.0347500
  23.1815760  23.6928570  32.9142430  26.6131440  25.5521420  48.3227020
  27.3540910  25.8897180  47.8194480  25.8504120  25.7213480  47.7696790
  14.4493230  20.5574690  49.1266550  14.4898570  20.2588560  50.0351780
  15.3038730  20.9582300  48.9674070  18.2271620  23.1570240  34.2870060
  18.6488040  22.9910110  35.1301450  18.3522460  22.3470470  33.7925200
  16.3899040  19.1366790  47.0941040  15.8595500  18.6457740  46.4664380
  17.0587110  19.5650990  46.5598970  20.7399260  22.1807850  31.5347160
  21.2604920  21.4656870  31.1688310  21.3867660  22.8193720  31.8347670
  25.2877100  23.6036250  46.8582230  25.7018120  23.7581330  47.7072650
  24.3528100  23.7291470  47.0208010  25.7599270  20.9432410  48.8621380
  26.3420040  20.1884730  48.7741860  25.9361040  21.4739850  48.0852860
  16.8771340  16.1029160  47.1738330  16.7828210  15.4849910  46.4489200
  16.2968730  16.8295450  46.9468240  19.6432780  14.6602400  44.2065720
  19.1950080  14.6826660  43.3611270  19.0097980  14.2621420  44.8036020
  20.0492330  23.5556730  44.8278160  20.4680440  24.3989460  44.6554400
  19.1300960  23.6928770  44.5984940  22.3856230  21.2872910  46.2116000
  22.5052440  20.6914050  46.9510840  23.2450230  21.3242600  45.7917300
  24.7244130  21.8410100  44.7878510  24.1979350  22.3652720  44.1843650
  25.0675470  22.4737490  45.4188240  17.1230520  19.2303470  31.2328220
  16.9219580  18.3670830  31.5941560  16.9522570  19.1436830  30.2949820
  17.8999750  29.8609740  45.9435890  17.3620840  30.5855800  45.6244590
  18.1533710  29.3840080  45.1533230  19.1525000  17.8294260  47.4691820
  19.7424690  17.5210110  48.1569640  18.3345240  17.3574010  47.6251720
  23.9718430  17.4460070  47.7024840  23.2833950  16.7841610  47.6374830
  24.6924450  16.9998340  48.1473300  24.6018830  14.0411700  33.7615100
  24.8821120  13.1979600  34.1174520  23.8284560  14.2734810  34.2753850
  15.9213320  16.3304090  31.2206100  16.2239220  16.3371520  30.3125250
  16.6607910  15.9801950  31.7173760  20.7561960  31.0960950  46.2022540
  20.6820660  31.9996090  46.5094910  19.8540800  30.7772850  46.1744610
  19.1398250  15.2738710  32.2062300  18.7920250  14.5962700  31.6264750
  19.3411020  14.8128220  33.0205690  21.3047290  30.2619460  33.8248900
  22.1998080  30.6004430  33.8467660  21.3364920  29.5398870  33.1973180
  14.9443450  25.6346510  32.0535900  15.3818320  26.1776180  32.7093480
  15.4291180  24.8093460  32.0632240  12.1589250  28.4235540  39.5056160
  12.4892260  27.5556600  39.2734800  12.5880250  28.6294060  40.3361120
  16.7551170  26.7544550  37.1658130  16.4546710  26.6309520  38.0662040
  16.6488660  25.8953140  36.7573860  12.6479460  29.2906130  42.2437790
  12.2110450  29.4706930  43.0761940  13.2157140  30.0480750  42.1019510
  28.2841640  28.7923130  46.5315100  27.6843630  28.8515690  45.7879020
  28.4135540  27.8528110  46.6611950  29.5243090  26.5340950  31.8684810
  28.6936050  26.6017600  32.3392040  29.7014920  27.4245070  31.5651670
  28.9799550  23.2788430  34.3719010  29.7418460  23.8485080  34.4778700
  28.9953920  22.7115630  35.1427320  12.4803890  21.8026360  38.6026670
  11.8252730  21.5338000  37.9586370  13.3181840  21.6930840  38.1528650
  29.9859520  24.1338530  39.2160940  30.3568350  23.3505850  38.8096910
  30.6261450  24.8227630  39.0378240  26.9693280  25.5175110  44.6291260
  26.1553120  25.9472270  44.8917050  27.3767480  26.1293520  44.0160310
  29.0318720  23.5722800  31.5291530  29.3067560  24.4801680  31.4010750
  28.8429460  23.5085330  32.4653520  25.4294330  16.5967650  32.8245160
  25.8479210  16.4098630  31.9841820  25.1230390  15.7446700  33.1348090
  28.9284060  21.5091790  36.5220960  28.5527660  20.7419720  36.0902250
  28.1987180  21.8914490  37.0095890  13.5179820  22.1878930  43.1430010
  13.8852860  22.1006330  44.0226030  12.9490640  21.4245480  43.0436870
  28.3183680  20.6563310  46.1560480  28.0869770  20.4276060  45.2558430
  28.5788230  21.5762860  46.1105370  13.0695820  19.0988020  47.0488430
  12.1751870  19.0654780  47.3882140  13.6093370  19.2974810  47.8139680
  26.7571750  15.8819740  48.9340180  27.6341930  15.8903140  49.3174180
  26.7692590  15.1450580  48.3232530  11.6941970  19.0125290  34.5452000
  10.7906050  19.2755490  34.3703660  12.1782590  19.2836460  33.7651960
  28.2035020  19.7349280  39.8228200  28.7272500  19.2411930  39.1918370
  28.7894440  19.8699640  40.5675770  28.3824740  19.8189150  43.3447750
  27.4327450  19.7852690  43.4592740  28.5637750  20.7289260  43.1097520
  14.2369180  18.0690830  32.4546380  14.9460880  17.6474050  31.9693660
  13.5209120  18.1366060  31.8229730  13.8843340  14.1230160  31.4949030
  14.6071470  14.6639100  31.8130250  14.1567860  13.8493580  30.6190570
  27.6934990  18.9922630  35.7620610  28.1894110  18.7593500  36.5469490
  27.4951060  18.1534470  35.3458250  13.5735530  13.3736350  41.3971650
  14.2211720  12.8233730  40.9566810  13.9937370  13.6279500  42.2187460
  29.1222150  17.6283580  38.2958290  29.0121430  17.4739620  39.2340560
  29.8829740  17.1004520  38.0533700  27.4687870  13.5677710  44.7541290
  28.1060090  14.1811850  45.1200480  27.6162760  13.6038370  43.8090520
  30.0112420  15.4591500  31.5364430  30.9361730  15.3272680  31.3282720
  29.9888210  15.5384320  32.4900880  30.0850910  16.2302160  34.1621140
  29.2902410  16.1647280  34.6914050  30.2894190  17.1652800  34.1506490
  27.0269330  30.2693710  38.1559530  27.6228400  29.9478280  37.4793950
  27.2847480  29.7965530  38.9472800  13.3267530  13.5292020  44.1396970
  12.9782350  13.9855840  44.9055150  12.9955230  12.6349150  44.2219400
  14.9331900  26.7011620  48.3050160  14.8901530  26.3304530  49.1864620
  15.0642910  27.6389190  48.4451980  18.6337930  28.2571210  43.9059880
  18.3929290  28.5245770  43.0190400  19.5740570  28.4276940  43.9610740
  20.8392350  14.7203900  47.6616390  20.7781240  15.3125730  48.4111800
  21.7792730  14.6129860  47.5166650  23.4766910  14.3773960  47.3008680
  24.0907320  14.6953250  46.6389760  24.0216470  13.8922550  47.9204540
  29.8942090  30.2765590  44.7070520  29.4000370  30.6734460  43.9897650
  29.2855380  29.6514800  45.1007800  13.9988170  13.0568220  47.4147740
  14.5471160  12.8756270  46.6513850  14.0643480  12.2662330  47.9504050
  14.7719930  29.6473870  45.4247940  14.1780250  29.5158570  46.1637980
  14.7643770  28.8112010  44.9590040  24.2174950  12.9406100  43.6277970
  23.3434790  13.2741210  43.4250900  24.1085700  12.4679280  44.4529840
  25.1246930  15.1476970  45.0119690  24.7960290  14.3328730  44.6321420
  26.0729230  15.1046780  44.8885380  27.5781540  30.9189010  41.9857260
  27.1184510  31.6704820  41.6115280  26.9494000  30.1995480  41.9272060
  14.4032160  27.0132250  44.3755980  13.6766220  26.3937540  44.3081930
  14.4641310  27.4072860  43.5054060  18.0077260  29.2277250  41.1605390
  18.5242280  28.6164610  40.6353650  18.6574640  29.7306030  41.6516400
  20.7472760  30.1185740  41.9874370  21.0350570  29.8640040  41.1107380
  21.2595980  29.5663100  42.5779940  21.9649770  13.8575940  42.5670880
  21.1821560  14.3321440  42.8467640  21.6712700  12.9530770  42.4584060
  26.5170840  14.5599040  40.6119970  26.9578930  14.5044140  39.7641570
  26.2478430  15.4757050  40.6830150  28.3809410  14.1914280  38.6228790
  28.3197810  13.2475500  38.4759810  29.1601440  14.2994370  39.1682250
  12.6862160  30.3306640  37.5852740  12.5184200  29.6977320  38.2834630
  11.8196670  30.5366040  37.2346930  13.3090180  14.1623420  35.0884600
  14.0669540  14.2752300  34.5148630  12.8467350  14.9992620  35.0428030
  19.8503990  16.2762690  38.0786910  19.0378500  15.9019580  37.7382790
  20.3545630  15.5207770  38.3808100  24.3528970  12.9405140  39.3169980
  24.9558340  13.5125350  39.7918500  23.6121960  13.5044580  39.0943880
  27.4963570  13.3426700  34.5910260  27.6914200  14.2410150  34.8577690
  26.7093440  13.1113780  35.0843210  14.2924860  29.0239870  35.0302880
  13.7672480  29.4047900  34.3264840  14.2169440  29.6490640  35.7512590
  15.6815330  14.6887470  33.6286570  16.2108090  13.9017270  33.4994520
  16.3143650  15.3678660  33.8622100  17.8753170  14.4262610  36.6831960
  17.2455910  13.7249920  36.8502090  17.3358310  15.1866740  36.4665120
  20.8145120  31.0401840  49.3542570  21.7412430  30.8046110  49.3978530
  20.7995550  31.8673840  48.8728600  29.0490180  30.5827410  36.3516820
  29.2242370  29.8965150  35.7077740  28.3511750  31.1074460  35.9593490
  18.0008730  13.7046590  49.1184450  17.7193000  14.2080190  48.3545270
  18.3828430  12.9068340  48.7526580  16.8917830  30.9722250  33.9052130
  17.6236650  30.6881530  33.3576020  17.1511500  30.7335530  34.7951510
  16.0532620  27.0886980  33.9098460  15.4241500  27.5572080  34.4584290
  16.1680450  26.2436200  34.3444650  24.6024190  13.1200170  49.6964920
  24.4889640  13.4394780  50.5916440  25.4193930  13.5212680  49.4002200
  27.3822680  30.2671700  49.1783610  28.1748000  29.7720930  48.9709570
  27.6755830  30.9461840  49.7859220  23.5082340  21.1392640  20.0599660
  23.4276390  20.2247250  19.7891370  23.0946760  21.6359710  19.3539370
  21.6400380  22.9171660  21.9408930  20.8642480  22.4372100  22.2307500
  22.2913310  22.2377310  21.7665090  15.6566210  23.2291470  22.8184690
  14.8251090  22.9740180  23.2181200  16.2647190  23.3002240  23.5542610
  25.6607810  27.3231850  20.7208060  25.1989340  26.5519090  21.0495230
  26.4733360  27.3497920  21.2260510  15.6367470  27.2631560  23.0142710
  15.9395510  26.3729300  22.8352930  16.3811060  27.8201780  22.7864960
  14.0658160  18.1893360  16.6027080  13.1774860  18.5309330  16.5006960
  14.3499350  17.9893680  15.7107910  12.0291170  20.7899010  22.4866780
  12.6007280  20.0221210  22.4870420  12.0292710  21.0887770  21.5773390
  21.8871120  29.6089860  20.3412050  21.2682560  30.0647360  19.7706490
  22.7422900  29.7641320  19.9401750  21.0809370  25.5928850  21.9479090
  21.0117650  24.6518790  21.7868220  21.8429230  25.6830260  22.5201660
  13.2716040  16.1983370  24.2735710  13.0918880  15.3009120  24.5538470
  12.8696120  16.7455240  24.9482660  22.1114540  18.3999230  22.1748020
  22.4879360  17.5271110  22.0621690  22.0134050  18.7357930  21.2838460
  16.2419550  16.7724860  17.6365460  16.3486300  17.6728590  17.9434220
  15.3311910  16.7242830  17.3460110  25.8938660  15.8949670  19.1076360
  26.7148280  15.4046240  19.1501840  25.9272740  16.4847330  19.8608200
  13.8902710  18.6943870  22.8818050  14.5712820  18.9582240  23.5005450
  13.5750760  17.8544740  23.2156060  18.0827280  19.7411230  21.9690640
  18.5905500  20.2392200  22.6095660  18.6140520  18.9646430  21.7930000
  30.1838210  17.9116420  25.6719990  29.4790380  18.2998130  25.1535100
  30.4496130  18.6066710  26.2740920  16.3663380  14.3809790  26.2354060
  16.3681820  14.8982180  25.4299960  15.5367690  13.9039970  26.2123990
  22.7534470  24.4929100  17.7343960  22.1351740  24.9578550  17.1706680
  23.2657720  25.1856580  18.1513470  17.6166230  24.0204970  24.4127560
  17.2835610  24.6473890  25.0548630  17.7932910  24.5466850  23.6329230
  26.1300140  17.8350050  21.8803900  25.4255710  18.1234940  22.4607010
  26.4912300  18.6450160  21.5203460  16.0478710  16.0919750  24.2424510
  16.3895520  16.9361800  23.9478380  15.1094520  16.2403490  24.3589850
  16.8285330  25.9885770  26.2276740  17.4459330  26.6636850  25.9461190
  15.9678450  26.3973750  26.1364240  12.1217670  25.1785630  15.1083590
  11.7445650  25.6672730  14.3768490  12.3790740  25.8510910  15.7390120
  27.7462920  27.4525180  24.1431380  27.0626440  28.1224290  24.1348050
  28.2857210  27.6505830  23.3776240  29.1987060  17.2804840  22.2713110
  28.2511970  17.3143820  22.4028540  29.5237050  18.0943790  22.6562470
  19.7306600  13.5802020  20.5669100  20.0381580  13.0248910  19.8504600
  18.8007300  13.7146480  20.3842090  25.2821660  29.2969310  22.8576560
  25.2948820  28.8931600  21.9898820  24.7296880  30.0716600  22.7537990
  26.5767080  26.0185530  17.9466730  26.4663410  25.0759860  18.0716150
  26.5735330  26.3801170  18.8329490  24.6807100  24.1999150  24.1859170
  25.0975890  23.9859260  23.3512630  25.4046920  24.4571940  24.7567790
  22.1187360  21.6450850  17.3029220  21.1916640  21.5788230  17.5317690
  22.2712180  22.5830980  17.1884460  22.1056440  17.9167850  14.2996380
  21.1660110  18.0781810  14.3848840  22.4239700  18.6353530  13.7532370
  28.6269200  22.5986370  24.2775410  27.7987830  22.6679460  23.8025540
  29.2219680  23.1840680  23.8091240  26.1484650  23.2071150  17.8064470
  25.5297070  22.8690700  17.1590770  26.1309100  22.5630910  18.5143660
  25.5911210  19.3855690  25.2230280  25.1782390  20.2109400  25.4770270
  24.8587160  18.8000730  25.0306640  17.7244000  22.1715590  20.0848950
  17.3201000  21.4592840  19.5894850  17.8107120  21.8268830  20.9736990
  18.1925700  25.8583150  22.2488160  17.8953990  25.2528620  21.5695940
  19.1425520  25.8960460  22.1377520  16.4372620  18.9458800  23.8647990
  16.9887210  19.0554140  23.0901240  16.9516130  19.3196400  24.5803220
  26.2811310  29.4315020  25.9111260  25.8041870  30.2387210  25.7183870
  25.5973100  28.7793350  26.0637470  17.2844130  25.5964840  28.8995960
  16.3872660  25.8204810  29.1469360  17.3097000  25.7199780  27.9507360
  24.3249350  22.4457960  14.8137220  24.7642630  21.6080390  14.6675040
  25.0377770  23.0787360  14.9001360  16.1115350  22.4678160  27.4753330
  15.9723120  23.3400960  27.8440730  15.2296710  22.1250970  27.3301270
  22.4344730  27.3854030  18.7818460  22.8740640  28.1278360  18.3673850
  22.3731620  27.6280600  19.7057420  17.9095700  28.4099860  29.6838480
  17.8811130  28.8142810  28.8166910  17.7460670  27.4810220  29.5210080
  27.9066490  13.7000770  13.1278260  27.5939150  13.7927600  14.0277330
  28.6678960  14.2781800  13.0775690  14.4248630  21.0660570  17.5855600
  14.3046230  21.7922660  16.9736870  14.1149520  20.2963480  17.1083510
  29.8610520  29.1926960  30.9802650  30.3370240  29.6709850  31.6591730
  30.4817680  29.1244450  30.2548150  12.0634000  24.2375710  23.3924240
  12.1414420  24.3724480  22.4479960  12.6775680  23.5291600  23.5852360
  13.3081630  25.9375900  19.8030420  12.9009710  26.0790490  18.9484020
  14.1994640  25.6536060  19.6001630  29.2643770  26.3839810  28.1402660
  29.3906830  26.1451690  27.2219840  29.3065150  25.5524350  28.6124740
  23.1260510  30.0867810  26.7097470  23.6405180  29.9975820  27.5119900
  22.2829590  30.4327510  27.0025380  25.1014910  30.3723150  16.1381470
  24.9416050  30.0826090  17.0363300  24.9361620  29.5963280  15.6026700
  17.5803290  30.1521680  17.9153090  17.4045770  29.2357220  17.7020890
  16.7259030  30.5108970  18.1550890  24.8041040  27.8810710  14.6979470
  24.1106200  27.8788000  14.0381750  25.5463900  27.4570030  14.2673640
  24.3690970  29.5073420  18.7727960  24.8247920  28.7262800  19.0866580
  24.7083490  30.2180240  19.3169140  29.1167780  18.4372270  29.1052400
  28.5012050  18.9451940  28.5767860  28.7964200  17.5370600  29.0478340
  12.1193520  25.2789880  25.9318700  12.2824560  24.8095240  25.1138070
  12.5845970  24.7713440  26.5967540  16.8912290  14.4095640  20.9679270
  16.4480440  15.1905180  20.6363790  17.4497280  14.7325530  21.6750210
  21.1782100  17.2764160  26.5714590  20.7161470  17.4847180  27.3834530
  20.7760210  16.4623510  26.2685260  26.1786610  18.4973110  27.7011250
  25.3280200  18.1978860  28.0220320  26.0188400  18.7415120  26.7895070
  23.2736320  19.9974860  29.8010040  23.5989730  19.1638610  29.4612270
  24.0616650  20.5203380  29.9488370  20.0071110  14.0306340  15.8485100
  19.3825290  14.0266210  16.5738410  19.9201230  13.1637300  15.4521070
  18.9288190  14.9542970  22.8268870  19.2260520  15.8605800  22.7460890
  19.4773750  14.4661750  22.2128440  16.6826510  19.5329210  18.6960520
  16.4567430  19.3166380  19.6007140  15.9019040  19.9657670  18.3506490
  23.9124270  19.5392580  17.2951170  23.3133160  20.2628380  17.1114790
  24.4603880  19.4769360  16.5127620  19.1225720  20.4314790  29.3620790
  19.0269320  19.4909520  29.2121190  19.9657700  20.6529860  28.9668860
  22.5189140  18.1756120  19.3254450  22.9118710  18.4928320  18.5123140
  22.8805990  17.2968000  19.4398970  14.2536260  16.8428460  27.5154570
  13.8599650  17.6903670  27.7227350  13.5654660  16.2054830  27.7063210
  20.8281310  16.9263430  30.5851310  20.1379630  16.7335630  31.2197400
  21.5713610  17.2098070  31.1175610  11.5553310  14.7656920  21.5484650
  11.2666360  15.3359780  22.2609630  12.2999070  14.2861370  21.9115880
  11.7423540  18.7077040  12.7587370  11.6598210  19.6507800  12.9002360
  11.3906600  18.5651950  11.8799720  23.1044280  20.7661870  23.4205230
  22.3725400  21.2748680  23.7695330  22.7068620  19.9491850  23.1194010
  19.5421670  17.4416070  21.8257720  19.5457730  17.0006020  20.9762260
  20.4372790  17.7633400  21.9329540  15.3924050  17.3242560  20.7851930
  15.0524100  17.8017790  21.5418980  14.6301370  16.8707680  20.4253030
  19.6041820  18.4428150  14.8164480  19.7254640  18.4014630  15.7650300
  19.2190330  19.3052300  14.6611210  23.5670190  16.2195550  22.8328170
  23.5842930  16.6704200  23.6770020  23.3185770  15.3201190  23.0461610
  18.6163320  20.7529290  14.2147780  18.0480220  20.3047540  13.5883690
  19.3252320  21.1122070  13.6812930  26.9940940  13.6327730  28.6714550
  27.3186710  12.9017390  29.1972530  27.0297450  13.3141370  27.7695540
  13.6932500  24.6541310  28.0914510  13.3087290  24.0134980  28.6897470
  14.0044690  25.3577430  28.6609240  19.8429640  21.5017850  23.5723130
  20.2099770  21.0276420  24.3184470  19.6534700  22.3759420  23.9131470
  12.7070130  16.2461540  19.7016600  12.4217050  15.8817210  20.5395220
  12.6448990  15.5142000  19.0879740  17.6329010  20.5426490  25.8907340
  17.3286080  21.4218470  26.1157700  18.5875470  20.6026280  25.9264780
  16.1610800  24.7487480  16.4874190  15.3873060  24.2085100  16.3272910
  16.8905430  24.2294090  16.1491950  26.9198780  23.7452840  22.2800580
  27.6397900  24.2408130  21.8896690  26.7180600  23.0670730  21.6354450
  22.3808720  15.1390800  16.4229970  21.5673330  14.6403970  16.3475280
  22.1870670  15.9789050  16.0066320  22.3017580  23.8161900  28.1669580
  22.2354890  22.8957570  27.9127170  21.6722720  23.9137340  28.8814220
  25.0957110  19.5110450  14.7192130  25.9836730  19.8227680  14.5443470
  25.0662200  18.6382700  14.3272710  16.2048200  24.4167860  20.1253000
  16.7226870  23.6136120  20.0709890  15.7532220  24.3547000  20.9669830
  21.0917700  25.6834140  15.3980300  21.4333400  26.4276370  14.9023620
  20.2630410  25.9965260  15.7605130  13.6892740  21.3829230  27.0378700
  13.3307680  22.0483080  27.6252040  13.3947300  20.5512780  27.4091320
  16.8905860  21.8413470  29.9218250  16.5906000  21.9870650  29.0246070
  17.6617100  21.2818760  29.8291640  22.2334310  26.6382470  27.9173380
  22.2478850  25.7063430  27.6992290  21.5259410  26.7242230  28.5563150
  27.3671380  20.8222290  14.1871990  27.2835100  21.2536510  13.3368430
  28.0865570  21.2820640  14.6198810  28.4445520  23.2789810  27.2641960
  27.7193710  23.8718590  27.0671350  28.9720980  23.2713350  26.4655330
  28.3958630  27.6764550  16.9154120  27.7534790  27.0220170  17.1897840
  28.0089290  28.0819640  16.1394790  23.9745110  25.0049980  20.7625810
  24.3268930  24.4078110  20.1027180  23.0907440  24.6794210  20.9334060
  20.0608390  25.7647670  18.1696220  20.7479520  26.3116880  18.5503810
  19.2740810  26.3088400  18.2045830  12.2000790  21.3820490  13.6613300
  13.0695640  21.6645290  13.9449220  11.7091110  22.1956360  13.5462110
  19.3635600  22.7693700  17.7821580  19.8198380  23.5798950  18.0081770
  19.0123810  22.4516840  18.6140070  21.6668210  28.2800040  25.0113880
  22.3110430  28.4859420  25.6887300  22.0297650  27.5188440  24.5584730
  15.2647380  13.1131350  18.2544100  15.1362010  13.1049250  19.2029020
  14.4409400  13.4514440  17.9035110  22.9400290  26.2832390  23.7291330
  23.5822520  25.5825550  23.8423500  23.4649640  27.0630830  23.5488220
  26.7856010  26.5681010  13.4530470  26.5593590  25.8511450  14.0455110
  26.3952210  26.3193450  12.6152220  24.7137910  27.0827290  26.9327390
  25.0494150  27.6693980  27.6105310  23.7938250  26.9520000  27.1625180
  12.5672040  30.5947870  14.2274930  12.9269680  31.1937210  13.5732200
  12.4264380  31.1407760  15.0009960  12.2641310  14.8722470  27.7150800
  11.5499830  15.0719390  28.3203410  12.6836350  14.0962040  28.0865600
  26.3672260  24.4852950  15.1144630  26.0793960  24.9465640  15.9022510
  27.1624430  24.0250720  15.3828850  12.5513900  28.8602730  28.7017330
  12.6605020  27.9197470  28.5612720  11.8994460  29.1257480  28.0531060
  20.5426490  27.1318620  30.1015450  20.2223360  26.4127860  30.6461140
  19.8684850  27.8073690  30.1751510  18.5840660  27.9779070  15.0448600
  18.5750760  28.7108760  14.4293110  17.6639020  27.7310650  15.1375560
  14.1847300  23.1993960  15.7895360  13.5775250  23.9392860  15.7990660
  14.6596650  23.2893320  14.9633560  23.7580090  17.3644780  25.4652250
  24.1260910  16.5439990  25.7931820  22.8978290  17.4246670  25.8807900
  27.1242120  16.3201720  16.2739810  26.4955280  16.4247390  15.5598040
  26.6294040  16.5398500  17.0633690  21.5700260  28.0407310  13.7073790
  21.6712240  27.8371300  12.7775770  20.6702000  27.7865590  13.9121570
  19.0926150  18.5987670  17.6897690  18.3842300  19.0674010  18.1311300
  19.3770630  17.9409680  18.3242880  20.7182080  20.0184370  25.6890220
  21.2167330  20.4930190  26.3542070  20.8605030  19.0947890  25.8960250
  23.1241580  15.3238330  19.1293480  23.0009360  15.3424460  18.1802990
  24.0726140  15.3717270  19.2491880  20.2118370  30.5593630  18.4021460
  20.4659870  30.5215020  17.4800830  19.2630850  30.4326960  18.3949710
  17.2961170  16.9072750  15.0648400  18.1451700  17.3442900  14.9988590
  16.9292440  17.2193010  15.8920460  27.9248940  16.2352330  26.5318610
  27.4222540  16.9757730  26.8712420  28.7405600  16.6236330  26.2155400
  26.2170950  21.4785510  19.9779970  25.2761090  21.4935740  20.1527660
  26.5315020  20.6921470  20.4240270  16.1952590  23.1605110  13.5383930
  16.9615860  23.0486470  14.1009360  16.2727280  22.4643080  12.8860700
  14.8899350  20.5930180  14.2216820  14.9702940  19.6457690  14.3334220
  15.7819100  20.9237060  14.3277480  28.2196530  28.6494360  21.6534230
  28.3443950  29.4725530  22.1258040  29.0862090  28.4385090  21.3058380
  15.6914060  30.7425570  21.3251360  16.4276540  30.1941030  21.5959930
  16.0754980  31.6081580  21.1857350  12.5759540  26.8099140  17.1992870
  11.6499320  27.0520280  17.1898280  13.0415970  27.6373400  17.0777620
  14.6972340  29.9271640  30.5136940  15.4985070  30.2483690  30.9272340
  14.1824160  29.5667220  31.2356850  18.8016370  29.9155880  13.1476930
  19.5944980  30.2044710  12.6958720  18.2820720  29.4848050  12.4689410
  23.5336970  26.0351510  30.4612350  22.9275130  26.0583110  29.7208100
  23.2291080  25.3034550  30.9979600  24.9637340  29.7631800  29.0721760
  25.9159090  29.6789820  29.0222000  24.8165560  30.4273510  29.7455550
  27.8546540  29.1426010  14.5713670  27.5688050  28.7291150  13.7567850
  27.6566090  30.0713720  14.4514190  12.4170150  22.4145100  29.4572990
  12.9209170  21.8352380  30.0289220  11.6777570  22.6985330  29.9949360
  19.3193770  25.1359290  13.0119280  19.2144410  24.5211640  13.7380660
  19.1517990  24.6125180  12.2282290  19.4708090  23.8216090  28.9908510
  18.7053760  24.3901090  28.9063180  19.6524050  23.5292300  28.0976740
  22.5596500  24.1979320  13.6161270  22.0106600  24.6448620  14.2604010
  23.1815760  23.6928570  14.1398940  26.6131440  25.5521420  29.5483530
  27.3540910  25.8897180  29.0450990  25.8504120  25.7213480  28.9953300
  14.4493230  20.5574690  30.3523060  14.4898570  20.2588560  31.2608290
  15.3038730  20.9582300  30.1930580  18.2271620  23.1570240  15.5126570
  18.6488040  22.9910110  16.3557960  18.3522460  22.3470470  15.0181710
  16.3899040  19.1366790  28.3197550  15.8595500  18.6457740  27.6920890
  17.0587110  19.5650990  27.7855480  20.7399260  22.1807850  12.7603670
  21.2604920  21.4656870  12.3944820  21.3867660  22.8193720  13.0604180
  25.2877100  23.6036250  28.0838740  25.7018120  23.7581330  28.9329160
  24.3528100  23.7291470  28.2464520  25.7599270  20.9432410  30.0877890
  26.3420040  20.1884730  29.9998370  25.9361040  21.4739850  29.3109370
  16.8771340  16.1029160  28.3994840  16.7828210  15.4849910  27.6745710
  16.2968730  16.8295450  28.1724750  19.6432780  14.6602400  25.4322230
  19.1950080  14.6826660  24.5867780  19.0097980  14.2621420  26.0292530
  20.0492330  23.5556730  26.0534670  20.4680440  24.3989460  25.8810910
  19.1300960  23.6928770  25.8241450  22.3856230  21.2872910  27.4372510
  22.5052440  20.6914050  28.1767350  23.2450230  21.3242600  27.0173810
  24.7244130  21.8410100  26.0135020  24.1979350  22.3652720  25.4100160
  25.0675470  22.4737490  26.6444750  17.1230520  19.2303470  12.4584730
  16.9219580  18.3670830  12.8198070  16.9522570  19.1436830  11.5206330
  17.8999750  29.8609740  27.1692400  17.3620840  30.5855800  26.8501100
  18.1533710  29.3840080  26.3789740  19.1525000  17.8294260  28.6948330
  19.7424690  17.5210110  29.3826150  18.3345240  17.3574010  28.8508230
  23.9718430  17.4460070  28.9281350  23.2833950  16.7841610  28.8631340
  24.6924450  16.9998340  29.3729810  24.6018830  14.0411700  14.9871610
  24.8821120  13.1979600  15.3431030  23.8284560  14.2734810  15.5010360
  15.9213320  16.3304090  12.4462610  16.2239220  16.3371520  11.5381760
  16.6607910  15.9801950  12.9430270  20.7561960  31.0960950  27.4279050
  20.6820660  31.9996090  27.7351420  19.8540800  30.7772850  27.4001120
  19.1398250  15.2738710  13.4318810  18.7920250  14.5962700  12.8521260
  19.3411020  14.8128220  14.2462200  21.3047290  30.2619460  15.0505410
  22.1998080  30.6004430  15.0724170  21.3364920  29.5398870  14.4229690
  14.9443450  25.6346510  13.2792410  15.3818320  26.1776180  13.9349990
  15.4291180  24.8093460  13.2888750  12.1589250  28.4235540  20.7312670
  12.4892260  27.5556600  20.4991310  12.5880250  28.6294060  21.5617630
  16.7551170  26.7544550  18.3914640  16.4546710  26.6309520  19.2918550
  16.6488660  25.8953140  17.9830370  12.6479460  29.2906130  23.4694300
  12.2110450  29.4706930  24.3018450  13.2157140  30.0480750  23.3276020
  28.2841640  28.7923130  27.7571610  27.6843630  28.8515690  27.0135530
  28.4135540  27.8528110  27.8868460  29.5243090  26.5340950  13.0941320
  28.6936050  26.6017600  13.5648550  29.7014920  27.4245070  12.7908180
  28.9799550  23.2788430  15.5975520  29.7418460  23.8485080  15.7035210
  28.9953920  22.7115630  16.3683830  12.4803890  21.8026360  19.8283180
  11.8252730  21.5338000  19.1842880  13.3181840  21.6930840  19.3785160
  29.9859520  24.1338530  20.4417450  30.3568350  23.3505850  20.0353420
  30.6261450  24.8227630  20.2634750  26.9693280  25.5175110  25.8547770
  26.1553120  25.9472270  26.1173560  27.3767480  26.1293520  25.2416820
  29.0318720  23.5722800  12.7548040  29.3067560  24.4801680  12.6267260
  28.8429460  23.5085330  13.6910030  25.4294330  16.5967650  14.0501670
  25.8479210  16.4098630  13.2098330  25.1230390  15.7446700  14.3604600
  28.9284060  21.5091790  17.7477470  28.5527660  20.7419720  17.3158760
  28.1987180  21.8914490  18.2352400  13.5179820  22.1878930  24.3686520
  13.8852860  22.1006330  25.2482540  12.9490640  21.4245480  24.2693380
  28.3183680  20.6563310  27.3816990  28.0869770  20.4276060  26.4814940
  28.5788230  21.5762860  27.3361880  13.0695820  19.0988020  28.2744940
  12.1751870  19.0654780  28.6138650  13.6093370  19.2974810  29.0396190
  26.7571750  15.8819740  30.1596690  27.6341930  15.8903140  30.5430690
  26.7692590  15.1450580  29.5489040  11.6941970  19.0125290  15.7708510
  10.7906050  19.2755490  15.5960170  12.1782590  19.2836460  14.9908470
  28.2035020  19.7349280  21.0484710  28.7272500  19.2411930  20.4174880
  28.7894440  19.8699640  21.7932280  28.3824740  19.8189150  24.5704260
  27.4327450  19.7852690  24.6849250  28.5637750  20.7289260  24.3354030
  14.2369180  18.0690830  13.6802890  14.9460880  17.6474050  13.1950170
  13.5209120  18.1366060  13.0486240  13.8843340  14.1230160  12.7205540
  14.6071470  14.6639100  13.0386760  14.1567860  13.8493580  11.8447080
  27.6934990  18.9922630  16.9877120  28.1894110  18.7593500  17.7726000
  27.4951060  18.1534470  16.5714760  13.5735530  13.3736350  22.6228160
  14.2211720  12.8233730  22.1823320  13.9937370  13.6279500  23.4443970
  29.1222150  17.6283580  19.5214800  29.0121430  17.4739620  20.4597070
  29.8829740  17.1004520  19.2790210  27.4687870  13.5677710  25.9797800
  28.1060090  14.1811850  26.3456990  27.6162760  13.6038370  25.0347030
  30.0112420  15.4591500  12.7620940  30.9361730  15.3272680  12.5539230
  29.9888210  15.5384320  13.7157390  30.0850910  16.2302160  15.3877650
  29.2902410  16.1647280  15.9170560  30.2894190  17.1652800  15.3763000
  27.0269330  30.2693710  19.3816040  27.6228400  29.9478280  18.7050460
  27.2847480  29.7965530  20.1729310  13.3267530  13.5292020  25.3653480
  12.9782350  13.9855840  26.1311660  12.9955230  12.6349150  25.4475910
  14.9331900  26.7011620  29.5306670  14.8901530  26.3304530  30.4121130
  15.0642910  27.6389190  29.6708490  18.6337930  28.2571210  25.1316390
  18.3929290  28.5245770  24.2446910  19.5740570  28.4276940  25.1867250
  20.8392350  14.7203900  28.8872900  20.7781240  15.3125730  29.6368310
  21.7792730  14.6129860  28.7423160  23.4766910  14.3773960  28.5265190
  24.0907320  14.6953250  27.8646270  24.0216470  13.8922550  29.1461050
  29.8942090  30.2765590  25.9327030  29.4000370  30.6734460  25.2154160
  29.2855380  29.6514800  26.3264310  13.9988170  13.0568220  28.6404250
  14.5471160  12.8756270  27.8770360  14.0643480  12.2662330  29.1760560
  14.7719930  29.6473870  26.6504450  14.1780250  29.5158570  27.3894490
  14.7643770  28.8112010  26.1846550  24.2174950  12.9406100  24.8534480
  23.3434790  13.2741210  24.6507410  24.1085700  12.4679280  25.6786350
  25.1246930  15.1476970  26.2376200  24.7960290  14.3328730  25.8577930
  26.0729230  15.1046780  26.1141890  27.5781540  30.9189010  23.2113770
  27.1184510  31.6704820  22.8371790  26.9494000  30.1995480  23.1528570
  14.4032160  27.0132250  25.6012490  13.6766220  26.3937540  25.5338440
  14.4641310  27.4072860  24.7310570  18.0077260  29.2277250  22.3861900
  18.5242280  28.6164610  21.8610160  18.6574640  29.7306030  22.8772910
  20.7472760  30.1185740  23.2130880  21.0350570  29.8640040  22.3363890
  21.2595980  29.5663100  23.8036450  21.9649770  13.8575940  23.7927390
  21.1821560  14.3321440  24.0724150  21.6712700  12.9530770  23.6840570
  26.5170840  14.5599040  21.8376480  26.9578930  14.5044140  20.9898080
  26.2478430  15.4757050  21.9086660  28.3809410  14.1914280  19.8485300
  28.3197810  13.2475500  19.7016320  29.1601440  14.2994370  20.3938760
  12.6862160  30.3306640  18.8109250  12.5184200  29.6977320  19.5091140
  11.8196670  30.5366040  18.4603440  13.3090180  14.1623420  16.3141110
  14.0669540  14.2752300  15.7405140  12.8467350  14.9992620  16.2684540
  19.8503990  16.2762690  19.3043420  19.0378500  15.9019580  18.9639300
  20.3545630  15.5207770  19.6064610  24.3528970  12.9405140  20.5426490
  24.9558340  13.5125350  21.0175010  23.6121960  13.5044580  20.3200390
  27.4963570  13.3426700  15.8166770  27.6914200  14.2410150  16.0834200
  26.7093440  13.1113780  16.3099720  14.2924860  29.0239870  16.2559390
  13.7672480  29.4047900  15.5521350  14.2169440  29.6490640  16.9769100
  15.6815330  14.6887470  14.8543080  16.2108090  13.9017270  14.7251030
  16.3143650  15.3678660  15.0878610  17.8753170  14.4262610  17.9088470
  17.2455910  13.7249920  18.0758600  17.3358310  15.1866740  17.6921630
  20.8145120  31.0401840  30.5799080  21.7412430  30.8046110  30.6235040
  20.7995550  31.8673840  30.0985110  29.0490180  30.5827410  17.5773330
  29.2242370  29.8965150  16.9334250  28.3511750  31.1074460  17.1850000
  18.0008730  13.7046590  30.3440960  17.7193000  14.2080190  29.5801780
  18.3828430  12.9068340  29.9783090  16.8917830  30.9722250  15.1308640
  17.6236650  30.6881530  14.5832530  17.1511500  30.7335530  16.0208020
  16.0532620  27.0886980  15.1354970  15.4241500  27.5572080  15.6840800
  16.1680450  26.2436200  15.5701160  24.6024190  13.1200170  30.9221430
  24.4889640  13.4394780  31.8172950  25.4193930  13.5212680  30.6258710
  27.3822680  30.2671700  30.4040120  28.1748000  29.7720930  30.1966080
  27.6755830  30.9461840  31.0115730  21.6400380  22.9171660   3.1665440
  20.8642480  22.4372100   3.4564010  22.2913310  22.2377310   2.9921600
  15.6566210  23.2291470   4.0441200  14.8251090  22.9740180   4.4437710
  16.2647190  23.3002240   4.7799120  25.6607810  27.3231850   1.9464570
  25.1989340  26.5519090   2.2751740  26.4733360  27.3497920   2.4517020
  15.6367470  27.2631560   4.2399220  15.9395510  26.3729300   4.0609440
  16.3811060  27.8201780   4.0121470  12.0291170  20.7899010   3.7123290
  12.6007280  20.0221210   3.7126930  12.0292710  21.0887770   2.8029900
  21.0809370  25.5928850   3.1735600  21.0117650  24.6518790   3.0124730
  21.8429230  25.6830260   3.7458170  13.2716040  16.1983370   5.4992220
  13.0918880  15.3009120   5.7794980  12.8696120  16.7455240   6.1739170
  22.1114540  18.3999230   3.4004530  22.4879360  17.5271110   3.2878200
  22.0134050  18.7357930   2.5094970  13.8902710  18.6943870   4.1074560
  14.5712820  18.9582240   4.7261960  13.5750760  17.8544740   4.4412570
  18.0827280  19.7411230   3.1947150  18.5905500  20.2392200   3.8352170
  18.6140520  18.9646430   3.0186510  30.1838210  17.9116420   6.8976500
  29.4790380  18.2998130   6.3791610  30.4496130  18.6066710   7.4997430
  16.3663380  14.3809790   7.4610570  16.3681820  14.8982180   6.6556470
  15.5367690  13.9039970   7.4380500  17.6166230  24.0204970   5.6384070
  17.2835610  24.6473890   6.2805140  17.7932910  24.5466850   4.8585740
  26.1300140  17.8350050   3.1060410  25.4255710  18.1234940   3.6863520
  26.4912300  18.6450160   2.7459970  16.0478710  16.0919750   5.4681020
  16.3895520  16.9361800   5.1734890  15.1094520  16.2403490   5.5846360
  16.8285330  25.9885770   7.4533250  17.4459330  26.6636850   7.1717700
  15.9678450  26.3973750   7.3620750  27.7462920  27.4525180   5.3687890
  27.0626440  28.1224290   5.3604560  28.2857210  27.6505830   4.6032750
  29.1987060  17.2804840   3.4969620  28.2511970  17.3143820   3.6285050
  29.5237050  18.0943790   3.8818980  25.2821660  29.2969310   4.0833070
  25.2948820  28.8931600   3.2155330  24.7296880  30.0716600   3.9794500
  24.6807100  24.1999150   5.4115680  25.0975890  23.9859260   4.5769140
  25.4046920  24.4571940   5.9824300  28.6269200  22.5986370   5.5031920
  27.7987830  22.6679460   5.0282050  29.2219680  23.1840680   5.0347750
  25.5911210  19.3855690   6.4486790  25.1782390  20.2109400   6.7026780
  24.8587160  18.8000730   6.2563150  18.1925700  25.8583150   3.4744670
  17.8953990  25.2528620   2.7952450  19.1425520  25.8960460   3.3634030
  16.4372620  18.9458800   5.0904500  16.9887210  19.0554140   4.3157750
  16.9516130  19.3196400   5.8059730  26.2811310  29.4315020   7.1367770
  25.8041870  30.2387210   6.9440380  25.5973100  28.7793350   7.2893980
  17.2844130  25.5964840  10.1252470  16.3872660  25.8204810  10.3725870
  17.3097000  25.7199780   9.1763870  16.1115350  22.4678160   8.7009840
  15.9723120  23.3400960   9.0697240  15.2296710  22.1250970   8.5557780
  17.9095700  28.4099860  10.9094990  17.8811130  28.8142810  10.0423420
  17.7460670  27.4810220  10.7466590  29.8610520  29.1926960  12.2059160
  30.3370240  29.6709850  12.8848240  30.4817680  29.1244450  11.4804660
  12.0634000  24.2375710   4.6180750  12.1414420  24.3724480   3.6736470
  12.6775680  23.5291600   4.8108870  29.2643770  26.3839810   9.3659170
  29.3906830  26.1451690   8.4476350  29.3065150  25.5524350   9.8381250
  23.1260510  30.0867810   7.9353980  23.6405180  29.9975820   8.7376410
  22.2829590  30.4327510   8.2281890  29.1167780  18.4372270  10.3308910
  28.5012050  18.9451940   9.8024370  28.7964200  17.5370600  10.2734850
  12.1193520  25.2789880   7.1575210  12.2824560  24.8095240   6.3394580
  12.5845970  24.7713440   7.8224050  16.8912290  14.4095640   2.1935780
  16.4480440  15.1905180   1.8620300  17.4497280  14.7325530   2.9006720
  21.1782100  17.2764160   7.7971100  20.7161470  17.4847180   8.6091040
  20.7760210  16.4623510   7.4941770  26.1786610  18.4973110   8.9267760
  25.3280200  18.1978860   9.2476830  26.0188400  18.7415120   8.0151580
  23.2736320  19.9974860  11.0266550  23.5989730  19.1638610  10.6868780
  24.0616650  20.5203380  11.1744880  18.9288190  14.9542970   4.0525380
  19.2260520  15.8605800   3.9717400  19.4773750  14.4661750   3.4384950
  19.1225720  20.4314790  10.5877300  19.0269320  19.4909520  10.4377700
  19.9657700  20.6529860  10.1925370  14.2536260  16.8428460   8.7411080
  13.8599650  17.6903670   8.9483860  13.5654660  16.2054830   8.9319720
  20.8281310  16.9263430  11.8107820  20.1379630  16.7335630  12.4453910
  21.5713610  17.2098070  12.3432120  11.5553310  14.7656920   2.7741160
  11.2666360  15.3359780   3.4866140  12.2999070  14.2861370   3.1372390
  23.1044280  20.7661870   4.6461740  22.3725400  21.2748680   4.9951840
  22.7068620  19.9491850   4.3450520  19.5421670  17.4416070   3.0514230
  19.5457730  17.0006020   2.2018770  20.4372790  17.7633400   3.1586050
  15.3924050  17.3242560   2.0108440  15.0524100  17.8017790   2.7675490
  14.6301370  16.8707680   1.6509540  23.5670190  16.2195550   4.0584680
  23.5842930  16.6704200   4.9026530  23.3185770  15.3201190   4.2718120
  26.9940940  13.6327730   9.8971060  27.3186710  12.9017390  10.4229040
  27.0297450  13.3141370   8.9952050  13.6932500  24.6541310   9.3171020
  13.3087290  24.0134980   9.9153980  14.0044690  25.3577430   9.8865750
  19.8429640  21.5017850   4.7979640  20.2099770  21.0276420   5.5440980
  19.6534700  22.3759420   5.1387980  17.6329010  20.5426490   7.1163850
  17.3286080  21.4218470   7.3414210  18.5875470  20.6026280   7.1521290
  26.9198780  23.7452840   3.5057090  27.6397900  24.2408130   3.1153200
  26.7180600  23.0670730   2.8610960  22.3017580  23.8161900   9.3926090
  22.2354890  22.8957570   9.1383680  21.6722720  23.9137340  10.1070730
  13.6892740  21.3829230   8.2635210  13.3307680  22.0483080   8.8508550
  13.3947300  20.5512780   8.6347830  16.8905860  21.8413470  11.1474760
  16.5906000  21.9870650  10.2502580  17.6617100  21.2818760  11.0548150
  22.2334310  26.6382470   9.1429890  22.2478850  25.7063430   8.9248800
  21.5259410  26.7242230   9.7819660  28.4445520  23.2789810   8.4898470
  27.7193710  23.8718590   8.2927860  28.9720980  23.2713350   7.6911840
  21.6668210  28.2800040   6.2370390  22.3110430  28.4859420   6.9143810
  22.0297650  27.5188440   5.7841240  22.9400290  26.2832390   4.9547840
  23.5822520  25.5825550   5.0680010  23.4649640  27.0630830   4.7744730
  24.7137910  27.0827290   8.1583900  25.0494150  27.6693980   8.8361820
  23.7938250  26.9520000   8.3881690  12.2641310  14.8722470   8.9407310
  11.5499830  15.0719390   9.5459920  12.6836350  14.0962040   9.3122110
  12.5513900  28.8602730   9.9273840  12.6605020  27.9197470   9.7869230
  11.8994460  29.1257480   9.2787570  20.5426490  27.1318620  11.3271960
  20.2223360  26.4127860  11.8717650  19.8684850  27.8073690  11.4008020
  23.7580090  17.3644780   6.6908760  24.1260910  16.5439990   7.0188330
  22.8978290  17.4246670   7.1064410  20.7182080  20.0184370   6.9146730
  21.2167330  20.4930190   7.5798580  20.8605030  19.0947890   7.1216760
  27.9248940  16.2352330   7.7575120  27.4222540  16.9757730   8.0968930
  28.7405600  16.6236330   7.4411910  28.2196530  28.6494360   2.8790740
  28.3443950  29.4725530   3.3514550  29.0862090  28.4385090   2.5314890
  15.6914060  30.7425570   2.5507870  16.4276540  30.1941030   2.8216440
  16.0754980  31.6081580   2.4113860  14.6972340  29.9271640  11.7393450
  15.4985070  30.2483690  12.1528850  14.1824160  29.5667220  12.4613360
  23.5336970  26.0351510  11.6868860  22.9275130  26.0583110  10.9464610
  23.2291080  25.3034550  12.2236110  24.9637340  29.7631800  10.2978270
  25.9159090  29.6789820  10.2478510  24.8165560  30.4273510  10.9712060
  12.4170150  22.4145100  10.6829500  12.9209170  21.8352380  11.2545730
  11.6777570  22.6985330  11.2205870  19.4708090  23.8216090  10.2165020
  18.7053760  24.3901090  10.1319690  19.6524050  23.5292300   9.3233250
  26.6131440  25.5521420  10.7740040  27.3540910  25.8897180  10.2707500
  25.8504120  25.7213480  10.2209810  14.4493230  20.5574690  11.5779570
  14.4898570  20.2588560  12.4864800  15.3038730  20.9582300  11.4187090
  16.3899040  19.1366790   9.5454060  15.8595500  18.6457740   8.9177400
  17.0587110  19.5650990   9.0111990  25.2877100  23.6036250   9.3095250
  25.7018120  23.7581330  10.1585670  24.3528100  23.7291470   9.4721030
  25.7599270  20.9432410  11.3134400  26.3420040  20.1884730  11.2254880
  25.9361040  21.4739850  10.5365880  16.8771340  16.1029160   9.6251350
  16.7828210  15.4849910   8.9002220  16.2968730  16.8295450   9.3981260
  19.6432780  14.6602400   6.6578740  19.1950080  14.6826660   5.8124290
  19.0097980  14.2621420   7.2549040  20.0492330  23.5556730   7.2791180
  20.4680440  24.3989460   7.1067420  19.1300960  23.6928770   7.0497960
  22.3856230  21.2872910   8.6629020  22.5052440  20.6914050   9.4023860
  23.2450230  21.3242600   8.2430320  24.7244130  21.8410100   7.2391530
  24.1979350  22.3652720   6.6356670  25.0675470  22.4737490   7.8701260
  17.8999750  29.8609740   8.3948910  17.3620840  30.5855800   8.0757610
  18.1533710  29.3840080   7.6046250  19.1525000  17.8294260   9.9204840
  19.7424690  17.5210110  10.6082660  18.3345240  17.3574010  10.0764740
  23.9718430  17.4460070  10.1537860  23.2833950  16.7841610  10.0887850
  24.6924450  16.9998340  10.5986320  20.7561960  31.0960950   8.6535560
  20.6820660  31.9996090   8.9607930  19.8540800  30.7772850   8.6257630
  12.1589250  28.4235540   1.9569180  12.4892260  27.5556600   1.7247820
  12.5880250  28.6294060   2.7874140  12.6479460  29.2906130   4.6950810
  12.2110450  29.4706930   5.5274960  13.2157140  30.0480750   4.5532530
  28.2841640  28.7923130   8.9828120  27.6843630  28.8515690   8.2392040
  28.4135540  27.8528110   9.1124970  26.9693280  25.5175110   7.0804280
  26.1553120  25.9472270   7.3430070  27.3767480  26.1293520   6.4673330
  13.5179820  22.1878930   5.5943030  13.8852860  22.1006330   6.4739050
  12.9490640  21.4245480   5.4949890  28.3183680  20.6563310   8.6073500
  28.0869770  20.4276060   7.7071450  28.5788230  21.5762860   8.5618390
  13.0695820  19.0988020   9.5001450  12.1751870  19.0654780   9.8395160
  13.6093370  19.2974810  10.2652700  26.7571750  15.8819740  11.3853200
  27.6341930  15.8903140  11.7687200  26.7692590  15.1450580  10.7745550
  28.2035020  19.7349280   2.2741220  28.7272500  19.2411930   1.6431390
  28.7894440  19.8699640   3.0188790  28.3824740  19.8189150   5.7960770
  27.4327450  19.7852690   5.9105760  28.5637750  20.7289260   5.5610540
  13.5735530  13.3736350   3.8484670  14.2211720  12.8233730   3.4079830
  13.9937370  13.6279500   4.6700480  27.4687870  13.5677710   7.2054310
  28.1060090  14.1811850   7.5713500  27.6162760  13.6038370   6.2603540
  13.3267530  13.5292020   6.5909990  12.9782350  13.9855840   7.3568170
  12.9955230  12.6349150   6.6732420  14.9331900  26.7011620  10.7563180
  14.8901530  26.3304530  11.6377640  15.0642910  27.6389190  10.8965000
  18.6337930  28.2571210   6.3572900  18.3929290  28.5245770   5.4703420
  19.5740570  28.4276940   6.4123760  20.8392350  14.7203900  10.1129410
  20.7781240  15.3125730  10.8624820  21.7792730  14.6129860   9.9679670
  23.4766910  14.3773960   9.7521700  24.0907320  14.6953250   9.0902780
  24.0216470  13.8922550  10.3717560  29.8942090  30.2765590   7.1583540
  29.4000370  30.6734460   6.4410670  29.2855380  29.6514800   7.5520820
  13.9988170  13.0568220   9.8660760  14.5471160  12.8756270   9.1026870
  14.0643480  12.2662330  10.4017070  14.7719930  29.6473870   7.8760960
  14.1780250  29.5158570   8.6151000  14.7643770  28.8112010   7.4103060
  24.2174950  12.9406100   6.0790990  23.3434790  13.2741210   5.8763920
  24.1085700  12.4679280   6.9042860  25.1246930  15.1476970   7.4632710
  24.7960290  14.3328730   7.0834440  26.0729230  15.1046780   7.3398400
  27.5781540  30.9189010   4.4370280  27.1184510  31.6704820   4.0628300
  26.9494000  30.1995480   4.3785080  14.4032160  27.0132250   6.8269000
  13.6766220  26.3937540   6.7594950  14.4641310  27.4072860   5.9567080
  18.0077260  29.2277250   3.6118410  18.5242280  28.6164610   3.0866670
  18.6574640  29.7306030   4.1029420  20.7472760  30.1185740   4.4387390
  21.0350570  29.8640040   3.5620400  21.2595980  29.5663100   5.0292960
  21.9649770  13.8575940   5.0183900  21.1821560  14.3321440   5.2980660
  21.6712700  12.9530770   4.9097080  26.5170840  14.5599040   3.0632990
  26.9578930  14.5044140   2.2154590  26.2478430  15.4757050   3.1343170
  24.3528970  12.9405140   1.7683000  24.9558340  13.5125350   2.2431520
  23.6121960  13.5044580   1.5456900  20.8145120  31.0401840  11.8055590
  21.7412430  30.8046110  11.8491550  20.7995550  31.8673840  11.3241620
  18.0008730  13.7046590  11.5697470  17.7193000  14.2080190  10.8058290
  18.3828430  12.9068340  11.2039600  24.6024190  13.1200170  12.1477940
  24.4889640  13.4394780  13.0429460  25.4193930  13.5212680  11.8515220
  27.3822680  30.2671700  11.6296630  28.1748000  29.7720930  11.4222590
  27.6755830  30.9461840  12.2372240  21.6400380   4.1428170 153.3613360
  20.8642480   3.6628610 153.6511930  22.2913310   3.4633820 153.1869520
  25.6607810   8.5488360 152.1412490  25.1989340   7.7775600 152.4699660
  26.4733360   8.5754430 152.6464940  15.6367470   8.4888070 154.4347140
  15.9395510   7.5985810 154.2557360  16.3811060   9.0458290 154.2069390
  21.8871120  10.8346370 151.7616480  21.2682560  11.2903870 151.1910920
  22.7422900  10.9897830 151.3606180  21.0809370   6.8185360 153.3683520
  21.0117650   5.8775300 153.2072650  21.8429230   6.9086770 153.9406090
  22.7534470   5.7185610 149.1548390  22.1351740   6.1835060 148.5911110
  23.2657720   6.4113090 149.5717900  12.1217670   6.4042140 146.5288020
  11.7445650   6.8929240 145.7972920  12.3790740   7.0767420 147.1594550
  25.2821660  10.5225820 154.2780990  25.2948820  10.1188110 153.4103250
  24.7296880  11.2973110 154.1742420  26.5767080   7.2442040 149.3671160
  26.4663410   6.3016370 149.4920580  26.5735330   7.6057680 150.2533920
  22.1187360   2.8707360 148.7233650  21.1916640   2.8044740 148.9522120
  22.2712180   3.8087490 148.6088890  26.1484650   4.4327660 149.2268900
  25.5297070   4.0947210 148.5795200  26.1309100   3.7887420 149.9348090
  17.7244000   3.3972100 151.5053380  17.3201000   2.6849350 151.0099280
  17.8107120   3.0525340 152.3941420  18.1925700   7.0839660 153.6692590
  17.8953990   6.4785130 152.9900370  19.1425520   7.1216970 153.5581950
  24.3249350   3.6714470 146.2341650  24.7642630   2.8336900 146.0879470
  25.0377770   4.3043870 146.3205790  22.4344730   8.6110540 150.2022890
  22.8740640   9.3534870 149.7878280  22.3731620   8.8537110 151.1261850
  13.3081630   7.1632410 151.2234850  12.9009710   7.3047000 150.3688450
  14.1994640   6.8792570 151.0206060  25.1014910  11.5979660 147.5585900
  24.9416050  11.3082600 148.4567730  24.9361620  10.8219790 147.0231130
  17.5803290  11.3778190 149.3357520  17.4045770  10.4613730 149.1225320
  16.7259030  11.7365480 149.5755320  24.8041040   9.1067220 146.1183900
  24.1106200   9.1044510 145.4586180  25.5463900   8.6826540 145.6878070
  24.3690970  10.7329930 150.1932390  24.8247920   9.9519310 150.5071010
  24.7083490  11.4436750 150.7373570  16.1610800   5.9743990 147.9078620
  15.3873060   5.4341610 147.7477340  16.8905430   5.4550600 147.5696380
  26.9198780   4.9709350 153.7005010  27.6397900   5.4664640 153.3101120
  26.7180600   4.2927240 153.0558880  16.2048200   5.6424370 151.5457430
  16.7226870   4.8392630 151.4914320  15.7532220   5.5803510 152.3874260
  21.0917700   6.9090650 146.8184730  21.4333400   7.6532880 146.3228050
  20.2630410   7.2221770 147.1809560  27.3671380   2.0478800 145.6076420
  27.2835100   2.4793020 144.7572860  28.0865570   2.5077150 146.0403240
  28.3958630   8.9021060 148.3358550  27.7534790   8.2476680 148.6102270
  28.0089290   9.3076150 147.5599220  23.9745110   6.2306490 152.1830240
  24.3268930   5.6334620 151.5231610  23.0907440   5.9050720 152.3538490
  20.0608390   6.9904180 149.5900650  20.7479520   7.5373390 149.9708240
  19.2740810   7.5344910 149.6250260  12.2000790   2.6077000 145.0817730
  13.0695640   2.8901800 145.3653650  11.7091110   3.4212870 144.9666540
  19.3635600   3.9950210 149.2026010  19.8198380   4.8055460 149.4286200
  19.0123810   3.6773350 150.0344500  26.7856010   7.7937520 144.8734900
  26.5593590   7.0767960 145.4659540  26.3952210   7.5449960 144.0356650
  12.5672040  11.8204380 145.6479360  12.9269680  12.4193720 144.9936630
  12.4264380  12.3664270 146.4214390  26.3672260   5.7109460 146.5349060
  26.0793960   6.1722150 147.3226940  27.1624430   5.2507230 146.8033280
  18.5840660   9.2035580 146.4653030  18.5750760   9.9365270 145.8497540
  17.6639020   8.9567160 146.5579990  14.1847300   4.4250470 147.2099790
  13.5775250   5.1649370 147.2195090  14.6596650   4.5149830 146.3837990
  21.5700260   9.2663820 145.1278220  21.6712240   9.0627810 144.1980200
  20.6702000   9.0122100 145.3326000  20.2118370  11.7850140 149.8225890
  20.4659870  11.7471530 148.9005260  19.2630850  11.6583470 149.8154140
  26.2170950   2.7042020 151.3984400  25.2761090   2.7192250 151.5732090
  26.5315020   1.9177980 151.8444700  16.1952590   4.3861620 144.9588360
  16.9615860   4.2742980 145.5213790  16.2727280   3.6899590 144.3065130
  28.2196530   9.8750870 153.0738660  28.3443950  10.6982040 153.5462470
  29.0862090   9.6641600 152.7262810  15.6914060  11.9682080 152.7455790
  16.4276540  11.4197540 153.0164360  16.0754980  12.8338090 152.6061780
  12.5759540   8.0355650 148.6197300  11.6499320   8.2776790 148.6102710
  13.0415970   8.8629910 148.4982050  18.8016370  11.1412390 144.5681360
  19.5944980  11.4301220 144.1163150  18.2820720  10.7104560 143.8893840
  27.8546540  10.3682520 145.9918100  27.5688050   9.9547660 145.1772280
  27.6566090  11.2970230 145.8718620  19.3193770   6.3615800 144.4323710
  19.2144410   5.7468150 145.1585090  19.1517990   5.8381690 143.6486720
  22.5596500   5.4235830 145.0365700  22.0106600   5.8705130 145.6808440
  23.1815760   4.9185080 145.5603370  18.2271620   4.3826750 146.9331000
  18.6488040   4.2166620 147.7762390  18.3522460   3.5726980 146.4386140
  20.7399260   3.4064360 144.1808100  21.2604920   2.6913380 143.8149250
  21.3867660   4.0450230 144.4808610  21.3047290  11.4875970 146.4709840
  22.1998080  11.8260940 146.4928600  21.3364920  10.7655380 145.8434120
  14.9443450   6.8603020 144.6996840  15.3818320   7.4032690 145.3554420
  15.4291180   6.0349970 144.7093180  12.1589250   9.6492050 152.1517100
  12.4892260   8.7813110 151.9195740  12.5880250   9.8550570 152.9822060
  16.7551170   7.9801060 149.8119070  16.4546710   7.8566030 150.7122980
  16.6488660   7.1209650 149.4034800  29.5243090   7.7597460 144.5145750
  28.6936050   7.8274110 144.9852980  29.7014920   8.6501580 144.2112610
  28.9799550   4.5044940 147.0179950  29.7418460   5.0741590 147.1239640
  28.9953920   3.9372140 147.7888260  12.4803890   3.0282870 151.2487610
  11.8252730   2.7594510 150.6047310  13.3181840   2.9187350 150.7989590
  29.9859520   5.3595040 151.8621880  30.3568350   4.5762360 151.4557850
  30.6261450   6.0484140 151.6839180  29.0318720   4.7979310 144.1752470
  29.3067560   5.7058190 144.0471690  28.8429460   4.7341840 145.1114460
  28.9284060   2.7348300 149.1681900  28.5527660   1.9676230 148.7363190
  28.1987180   3.1171000 149.6556830  27.0269330  11.4950220 150.8020470
  27.6228400  11.1734790 150.1254890  27.2847480  11.0222040 151.5933740
  18.0077260  10.4533760 153.8066330  18.5242280   9.8421120 153.2814590
  18.6574640  10.9562540 154.2977340  12.6862160  11.5563150 150.2313680
  12.5184200  10.9233830 150.9295570  11.8196670  11.7622550 149.8807870
  14.2924860  10.2496380 147.6763820  13.7672480  10.6304410 146.9725780
  14.2169440  10.8747150 148.3973530  29.0490180  11.8083920 148.9977760
  29.2242370  11.1221660 148.3538680  28.3511750  12.3330970 148.6054430
  16.8917830  12.1978760 146.5513070  17.6236650  11.9138040 146.0036960
  17.1511500  11.9592040 147.4412450  16.0532620   8.3143490 146.5559400
  15.4241500   8.7828590 147.1045230  16.1680450   7.4692710 146.9905590
  21.6400380   4.1428170 134.5869870  20.8642480   3.6628610 134.8768440
  22.2913310   3.4633820 134.4126030  15.6566210   4.4547980 135.4645630
  14.8251090   4.1996690 135.8642140  16.2647190   4.5258750 136.2003550
  25.6607810   8.5488360 133.3669000  25.1989340   7.7775600 133.6956170
  26.4733360   8.5754430 133.8721450  15.6367470   8.4888070 135.6603650
  15.9395510   7.5985810 135.4813870  16.3811060   9.0458290 135.4325900
  21.8871120  10.8346370 132.9872990  21.2682560  11.2903870 132.4167430
  22.7422900  10.9897830 132.5862690  21.0809370   6.8185360 134.5940030
  21.0117650   5.8775300 134.4329160  21.8429230   6.9086770 135.1662600
  22.7534470   5.7185610 130.3804900  22.1351740   6.1835060 129.8167620
  23.2657720   6.4113090 130.7974410  17.6166230   5.2461480 137.0588500
  17.2835610   5.8730400 137.7009570  17.7932910   5.7723360 136.2790170
  16.8285330   7.2142280 138.8737680  17.4459330   7.8893360 138.5922130
  15.9678450   7.6230260 138.7825180  12.1217670   6.4042140 127.7544530
  11.7445650   6.8929240 127.0229430  12.3790740   7.0767420 128.3851060
  27.7462920   8.6781690 136.7892320  27.0626440   9.3480800 136.7808990
  28.2857210   8.8762340 136.0237180  25.2821660  10.5225820 135.5037500
  25.2948820  10.1188110 134.6359760  24.7296880  11.2973110 135.3998930
  26.5767080   7.2442040 130.5927670  26.4663410   6.3016370 130.7177090
  26.5735330   7.6057680 131.4790430  24.6807100   5.4255660 136.8320110
  25.0975890   5.2115770 135.9973570  25.4046920   5.6828450 137.4028730
  22.1187360   2.8707360 129.9490160  21.1916640   2.8044740 130.1778630
  22.2712180   3.8087490 129.8345400  28.6269200   3.8242880 136.9236350
  27.7987830   3.8935970 136.4486480  29.2219680   4.4097190 136.4552180
  26.1484650   4.4327660 130.4525410  25.5297070   4.0947210 129.8051710
  26.1309100   3.7887420 131.1604600  17.7244000   3.3972100 132.7309890
  17.3201000   2.6849350 132.2355790  17.8107120   3.0525340 133.6197930
  18.1925700   7.0839660 134.8949100  17.8953990   6.4785130 134.2156880
  19.1425520   7.1216970 134.7838460  26.2811310  10.6571530 138.5572200
  25.8041870  11.4643720 138.3644810  25.5973100  10.0049860 138.7098410
  17.2844130   6.8221350 141.5456900  16.3872660   7.0461320 141.7930300
  17.3097000   6.9456290 140.5968300  24.3249350   3.6714470 127.4598160
  24.7642630   2.8336900 127.3135980  25.0377770   4.3043870 127.5462300
  16.1115350   3.6934670 140.1214270  15.9723120   4.5657470 140.4901670
  15.2296710   3.3507480 139.9762210  22.4344730   8.6110540 131.4279400
  22.8740640   9.3534870 131.0134790  22.3731620   8.8537110 132.3518360
  17.9095700   9.6356370 142.3299420  17.8811130  10.0399320 141.4627850
  17.7460670   8.7066730 142.1671020  29.8610520  10.4183470 143.6263590
  30.3370240  10.8966360 144.3052670  30.4817680  10.3500960 142.9009090
  12.0634000   5.4632220 136.0385180  12.1414420   5.5980990 135.0940900
  12.6775680   4.7548110 136.2313300  13.3081630   7.1632410 132.4491360
  12.9009710   7.3047000 131.5944960  14.1994640   6.8792570 132.2462570
  29.2643770   7.6096320 140.7863600  29.3906830   7.3708200 139.8680780
  29.3065150   6.7780860 141.2585680  23.1260510  11.3124320 139.3558410
  23.6405180  11.2232330 140.1580840  22.2829590  11.6584020 139.6486320
  25.1014910  11.5979660 128.7842410  24.9416050  11.3082600 129.6824240
  24.9361620  10.8219790 128.2487640  17.5803290  11.3778190 130.5614030
  17.4045770  10.4613730 130.3481830  16.7259030  11.7365480 130.8011830
  24.8041040   9.1067220 127.3440410  24.1106200   9.1044510 126.6842690
  25.5463900   8.6826540 126.9134580  24.3690970  10.7329930 131.4188900
  24.8247920   9.9519310 131.7327520  24.7083490  11.4436750 131.9630080
  12.1193520   6.5046390 138.5779640  12.2824560   6.0351750 137.7599010
  12.5845970   5.9969950 139.2428480  13.6932500   5.8797820 140.7375450
  13.3087290   5.2391490 141.3358410  14.0044690   6.5833940 141.3070180
  19.8429640   2.7274360 136.2184070  20.2099770   2.2532930 136.9645410
  19.6534700   3.6015930 136.5592410  17.6329010   1.7683000 138.5368280
  17.3286080   2.6474980 138.7618640  18.5875470   1.8282790 138.5725720
  16.1610800   5.9743990 129.1335130  15.3873060   5.4341610 128.9733850
  16.8905430   5.4550600 128.7952890  26.9198780   4.9709350 134.9261520
  27.6397900   5.4664640 134.5357630  26.7180600   4.2927240 134.2815390
  22.3017580   5.0418410 140.8130520  22.2354890   4.1214080 140.5588110
  21.6722720   5.1393850 141.5275160  16.2048200   5.6424370 132.7713940
  16.7226870   4.8392630 132.7170830  15.7532220   5.5803510 133.6130770
  21.0917700   6.9090650 128.0441240  21.4333400   7.6532880 127.5484560
  20.2630410   7.2221770 128.4066070  13.6892740   2.6085740 139.6839640
  13.3307680   3.2739590 140.2712980  13.3947300   1.7769290 140.0552260
  16.8905860   3.0669980 142.5679190  16.5906000   3.2127160 141.6707010
  17.6617100   2.5075270 142.4752580  22.2334310   7.8638980 140.5634320
  22.2478850   6.9319940 140.3453230  21.5259410   7.9498740 141.2024090
  27.3671380   2.0478800 126.8332930  27.2835100   2.4793020 125.9829370
  28.0865570   2.5077150 127.2659750  28.4445520   4.5046320 139.9102900
  27.7193710   5.0975100 139.7132290  28.9720980   4.4969860 139.1116270
  28.3958630   8.9021060 129.5615060  27.7534790   8.2476680 129.8358780
  28.0089290   9.3076150 128.7855730  23.9745110   6.2306490 133.4086750
  24.3268930   5.6334620 132.7488120  23.0907440   5.9050720 133.5795000
  20.0608390   6.9904180 130.8157160  20.7479520   7.5373390 131.1964750
  19.2740810   7.5344910 130.8506770  12.2000790   2.6077000 126.3074240
  13.0695640   2.8901800 126.5910160  11.7091110   3.4212870 126.1923050
  19.3635600   3.9950210 130.4282520  19.8198380   4.8055460 130.6542710
  19.0123810   3.6773350 131.2601010  21.6668210   9.5056550 137.6574820
  22.3110430   9.7115930 138.3348240  22.0297650   8.7444950 137.2045670
  22.9400290   7.5088900 136.3752270  23.5822520   6.8082060 136.4884440
  23.4649640   8.2887340 136.1949160  26.7856010   7.7937520 126.0991410
  26.5593590   7.0767960 126.6916050  26.3952210   7.5449960 125.2613160
  24.7137910   8.3083800 139.5788330  25.0494150   8.8950490 140.2566250
  23.7938250   8.1776510 139.8086120  12.5672040  11.8204380 126.8735870
  12.9269680  12.4193720 126.2193140  12.4264380  12.3664270 127.6470900
  26.3672260   5.7109460 127.7605570  26.0793960   6.1722150 128.5483450
  27.1624430   5.2507230 128.0289790  12.5513900  10.0859240 141.3478270
  12.6605020   9.1453980 141.2073660  11.8994460  10.3513990 140.6992000
  20.5426490   8.3575130 142.7476390  20.2223360   7.6384370 143.2922080
  19.8684850   9.0330200 142.8212450  18.5840660   9.2035580 127.6909540
  18.5750760   9.9365270 127.0754050  17.6639020   8.9567160 127.7836500
  14.1847300   4.4250470 128.4356300  13.5775250   5.1649370 128.4451600
  14.6596650   4.5149830 127.6094500  21.5700260   9.2663820 126.3534730
  21.6712240   9.0627810 125.4236710  20.6702000   9.0122100 126.5582510
  20.2118370  11.7850140 131.0482400  20.4659870  11.7471530 130.1261770
  19.2630850  11.6583470 131.0410650  26.2170950   2.7042020 132.6240910
  25.2761090   2.7192250 132.7988600  26.5315020   1.9177980 133.0701210
  16.1952590   4.3861620 126.1844870  16.9615860   4.2742980 126.7470300
  16.2727280   3.6899590 125.5321640  28.2196530   9.8750870 134.2995170
  28.3443950  10.6982040 134.7718980  29.0862090   9.6641600 133.9519320
  15.6914060  11.9682080 133.9712300  16.4276540  11.4197540 134.2420870
  16.0754980  12.8338090 133.8318290  12.5759540   8.0355650 129.8453810
  11.6499320   8.2776790 129.8359220  13.0415970   8.8629910 129.7238560
  14.6972340  11.1528150 143.1597880  15.4985070  11.4740200 143.5733280
  14.1824160  10.7923730 143.8817790  18.8016370  11.1412390 125.7937870
  19.5944980  11.4301220 125.3419660  18.2820720  10.7104560 125.1150350
  23.5336970   7.2608020 143.1073290  22.9275130   7.2839620 142.3669040
  23.2291080   6.5291060 143.6440540  24.9637340  10.9888310 141.7182700
  25.9159090  10.9046330 141.6682940  24.8165560  11.6530020 142.3916490
  27.8546540  10.3682520 127.2174610  27.5688050   9.9547660 126.4028790
  27.6566090  11.2970230 127.0975130  12.4170150   3.6401610 142.1033930
  12.9209170   3.0608890 142.6750160  11.6777570   3.9241840 142.6410300
  19.3193770   6.3615800 125.6580220  19.2144410   5.7468150 126.3841600
  19.1517990   5.8381690 124.8743230  19.4708090   5.0472600 141.6369450
  18.7053760   5.6157600 141.5524120  19.6524050   4.7548810 140.7437680
  22.5596500   5.4235830 126.2622210  22.0106600   5.8705130 126.9064950
  23.1815760   4.9185080 126.7859880  26.6131440   6.7777930 142.1944470
  27.3540910   7.1153690 141.6911930  25.8504120   6.9469990 141.6414240
  18.2271620   4.3826750 128.1587510  18.6488040   4.2166620 129.0018900
  18.3522460   3.5726980 127.6642650  20.7399260   3.4064360 125.4064610
  21.2604920   2.6913380 125.0405760  21.3867660   4.0450230 125.7065120
  25.2877100   4.8292760 140.7299680  25.7018120   4.9837840 141.5790100
  24.3528100   4.9547980 140.8925460  20.0492330   4.7813240 138.6995610
  20.4680440   5.6245970 138.5271850  19.1300960   4.9185280 138.4702390
  22.3856230   2.5129420 140.0833450  22.5052440   1.9170560 140.8228290
  23.2450230   2.5499110 139.6634750  24.7244130   3.0666610 138.6595960
  24.1979350   3.5909230 138.0561100  25.0675470   3.6994000 139.2905690
  17.8999750  11.0866250 139.8153340  17.3620840  11.8112310 139.4962040
  18.1533710  10.6096590 139.0250680  20.7561960  12.3217460 140.0739990
  20.6820660  13.2252600 140.3812360  19.8540800  12.0029360 140.0462060
  21.3047290  11.4875970 127.6966350  22.1998080  11.8260940 127.7185110
  21.3364920  10.7655380 127.0690630  14.9443450   6.8603020 125.9253350
  15.3818320   7.4032690 126.5810930  15.4291180   6.0349970 125.9349690
  12.1589250   9.6492050 133.3773610  12.4892260   8.7813110 133.1452250
  12.5880250   9.8550570 134.2078570  16.7551170   7.9801060 131.0375580
  16.4546710   7.8566030 131.9379490  16.6488660   7.1209650 130.6291310
  12.6479460  10.5162640 136.1155240  12.2110450  10.6963440 136.9479390
  13.2157140  11.2737260 135.9736960  28.2841640  10.0179640 140.4032550
  27.6843630  10.0772200 139.6596470  28.4135540   9.0784620 140.5329400
  29.5243090   7.7597460 125.7402260  28.6936050   7.8274110 126.2109490
  29.7014920   8.6501580 125.4369120  28.9799550   4.5044940 128.2436460
  29.7418460   5.0741590 128.3496150  28.9953920   3.9372140 129.0144770
  12.4803890   3.0282870 132.4744120  11.8252730   2.7594510 131.8303820
  13.3181840   2.9187350 132.0246100  29.9859520   5.3595040 133.0878390
  30.3568350   4.5762360 132.6814360  30.6261450   6.0484140 132.9095690
  26.9693280   6.7431620 138.5008710  26.1553120   7.1728780 138.7634500
  27.3767480   7.3550030 137.8877760  29.0318720   4.7979310 125.4008980
  29.3067560   5.7058190 125.2728200  28.8429460   4.7341840 126.3370970
  28.9284060   2.7348300 130.3938410  28.5527660   1.9676230 129.9619700
  28.1987180   3.1171000 130.8813340  13.5179820   3.4135440 137.0147460
  13.8852860   3.3262840 137.8943480  12.9490640   2.6501990 136.9154320
  28.3183680   1.8819820 140.0277930  28.0869770   1.6532570 139.1275880
  28.5788230   2.8019370 139.9822820  27.0269330  11.4950220 132.0276980
  27.6228400  11.1734790 131.3511400  27.2847480  11.0222040 132.8190250
  14.9331900   7.9268130 142.1767610  14.8901530   7.5561040 143.0582070
  15.0642910   8.8645700 142.3169430  18.6337930   9.4827720 137.7777330
  18.3929290   9.7502280 136.8907850  19.5740570   9.6533450 137.8328190
  29.8942090  11.5022100 138.5787970  29.4000370  11.8990970 137.8615100
  29.2855380  10.8771310 138.9725250  14.7719930  10.8730380 139.2965390
  14.1780250  10.7415080 140.0355430  14.7643770  10.0368520 138.8307490
  27.5781540  12.1445520 135.8574710  27.1184510  12.8961330 135.4832730
  26.9494000  11.4251990 135.7989510  14.4032160   8.2388760 138.2473430
  13.6766220   7.6194050 138.1799380  14.4641310   8.6329370 137.3771510
  18.0077260  10.4533760 135.0322840  18.5242280   9.8421120 134.5071100
  18.6574640  10.9562540 135.5233850  20.7472760  11.3442250 135.8591820
  21.0350570  11.0896550 134.9824830  21.2595980  10.7919610 136.4497390
  12.6862160  11.5563150 131.4570190  12.5184200  10.9233830 132.1552080
  11.8196670  11.7622550 131.1064380  14.2924860  10.2496380 128.9020330
  13.7672480  10.6304410 128.1982290  14.2169440  10.8747150 129.6230040
  20.8145120  12.2658350 143.2260020  21.7412430  12.0302620 143.2695980
  20.7995550  13.0930350 142.7446050  29.0490180  11.8083920 130.2234270
  29.2242370  11.1221660 129.5795190  28.3511750  12.3330970 129.8310940
  16.8917830  12.1978760 127.7769580  17.6236650  11.9138040 127.2293470
  17.1511500  11.9592040 128.6668960  16.0532620   8.3143490 127.7815910
  15.4241500   8.7828590 128.3301740  16.1680450   7.4692710 128.2162100
  27.3822680  11.4928210 143.0501060  28.1748000  10.9977440 142.8427020
  27.6755830  12.1718350 143.6576670  21.6400380   4.1428170 115.8126380
  20.8642480   3.6628610 116.1024950  22.2913310   3.4633820 115.6382540
  15.6566210   4.4547980 116.6902140  14.8251090   4.1996690 117.0898650
  16.2647190   4.5258750 117.4260060  25.6607810   8.5488360 114.5925510
  25.1989340   7.7775600 114.9212680  26.4733360   8.5754430 115.0977960
  15.6367470   8.4888070 116.8860160  15.9395510   7.5985810 116.7070380
  16.3811060   9.0458290 116.6582410  21.8871120  10.8346370 114.2129500
  21.2682560  11.2903870 113.6423940  22.7422900  10.9897830 113.8119200
  21.0809370   6.8185360 115.8196540  21.0117650   5.8775300 115.6585670
  21.8429230   6.9086770 116.3919110  22.7534470   5.7185610 111.6061410
  22.1351740   6.1835060 111.0424130  23.2657720   6.4113090 112.0230920
  17.6166230   5.2461480 118.2845010  17.2835610   5.8730400 118.9266080
  17.7932910   5.7723360 117.5046680  16.8285330   7.2142280 120.0994190
  17.4459330   7.8893360 119.8178640  15.9678450   7.6230260 120.0081690
  12.1217670   6.4042140 108.9801040  11.7445650   6.8929240 108.2485940
  12.3790740   7.0767420 109.6107570  27.7462920   8.6781690 118.0148830
  27.0626440   9.3480800 118.0065500  28.2857210   8.8762340 117.2493690
  25.2821660  10.5225820 116.7294010  25.2948820  10.1188110 115.8616270
  24.7296880  11.2973110 116.6255440  26.5767080   7.2442040 111.8184180
  26.4663410   6.3016370 111.9433600  26.5735330   7.6057680 112.7046940
  24.6807100   5.4255660 118.0576620  25.0975890   5.2115770 117.2230080
  25.4046920   5.6828450 118.6285240  22.1187360   2.8707360 111.1746670
  21.1916640   2.8044740 111.4035140  22.2712180   3.8087490 111.0601910
  28.6269200   3.8242880 118.1492860  27.7987830   3.8935970 117.6742990
  29.2219680   4.4097190 117.6808690  26.1484650   4.4327660 111.6781920
  25.5297070   4.0947210 111.0308220  26.1309100   3.7887420 112.3861110
  17.7244000   3.3972100 113.9566400  17.3201000   2.6849350 113.4612300
  17.8107120   3.0525340 114.8454440  18.1925700   7.0839660 116.1205610
  17.8953990   6.4785130 115.4413390  19.1425520   7.1216970 116.0094970
  26.2811310  10.6571530 119.7828710  25.8041870  11.4643720 119.5901320
  25.5973100  10.0049860 119.9354920  17.2844130   6.8221350 122.7713410
  16.3872660   7.0461320 123.0186810  17.3097000   6.9456290 121.8224810
  24.3249350   3.6714470 108.6854670  24.7642630   2.8336900 108.5392490
  25.0377770   4.3043870 108.7718810  16.1115350   3.6934670 121.3470780
  15.9723120   4.5657470 121.7158180  15.2296710   3.3507480 121.2018720
  22.4344730   8.6110540 112.6535910  22.8740640   9.3534870 112.2391300
  22.3731620   8.8537110 113.5774870  17.9095700   9.6356370 123.5555930
  17.8811130  10.0399320 122.6884360  17.7460670   8.7066730 123.3927530
  29.8610520  10.4183470 124.8520100  30.3370240  10.8966360 125.5309180
  30.4817680  10.3500960 124.1265600  12.0634000   5.4632220 117.2641690
  12.1414420   5.5980990 116.3197410  12.6775680   4.7548110 117.4569810
  13.3081630   7.1632410 113.6747870  12.9009710   7.3047000 112.8201470
  14.1994640   6.8792570 113.4719080  29.2643770   7.6096320 122.0120110
  29.3906830   7.3708200 121.0937290  29.3065150   6.7780860 122.4842190
  23.1260510  11.3124320 120.5814920  23.6405180  11.2232330 121.3837350
  22.2829590  11.6584020 120.8742830  25.1014910  11.5979660 110.0098920
  24.9416050  11.3082600 110.9080750  24.9361620  10.8219790 109.4744150
  17.5803290  11.3778190 111.7870540  17.4045770  10.4613730 111.5738340
  16.7259030  11.7365480 112.0268340  24.8041040   9.1067220 108.5696920
  24.1106200   9.1044510 107.9099200  25.5463900   8.6826540 108.1391090
  24.3690970  10.7329930 112.6445410  24.8247920   9.9519310 112.9584030
  24.7083490  11.4436750 113.1886590  12.1193520   6.5046390 119.8036150
  12.2824560   6.0351750 118.9855520  12.5845970   5.9969950 120.4684990
  13.6932500   5.8797820 121.9631960  13.3087290   5.2391490 122.5614920
  14.0044690   6.5833940 122.5326690  19.8429640   2.7274360 117.4440580
  20.2099770   2.2532930 118.1901920  19.6534700   3.6015930 117.7848920
  17.6329010   1.7683000 119.7624790  17.3286080   2.6474980 119.9875150
  18.5875470   1.8282790 119.7982230  16.1610800   5.9743990 110.3591640
  15.3873060   5.4341610 110.1990360  16.8905430   5.4550600 110.0209400
  26.9198780   4.9709350 116.1518030  27.6397900   5.4664640 115.7614140
  26.7180600   4.2927240 115.5071900  22.3017580   5.0418410 122.0387030
  22.2354890   4.1214080 121.7844620  21.6722720   5.1393850 122.7531670
  16.2048200   5.6424370 113.9970450  16.7226870   4.8392630 113.9427340
  15.7532220   5.5803510 114.8387280  21.0917700   6.9090650 109.2697750
  21.4333400   7.6532880 108.7741070  20.2630410   7.2221770 109.6322580
  13.6892740   2.6085740 120.9096150  13.3307680   3.2739590 121.4969490
  13.3947300   1.7769290 121.2808770  16.8905860   3.0669980 123.7935700
  16.5906000   3.2127160 122.8963520  17.6617100   2.5075270 123.7009090
  22.2334310   7.8638980 121.7890830  22.2478850   6.9319940 121.5709740
  21.5259410   7.9498740 122.4280600  27.3671380   2.0478800 108.0589440
  27.2835100   2.4793020 107.2085880  28.0865570   2.5077150 108.4916260
  28.4445520   4.5046320 121.1359410  27.7193710   5.0975100 120.9388800
  28.9720980   4.4969860 120.3372780  28.3958630   8.9021060 110.7871570
  27.7534790   8.2476680 111.0615290  28.0089290   9.3076150 110.0112240
  23.9745110   6.2306490 114.6343260  24.3268930   5.6334620 113.9744630
  23.0907440   5.9050720 114.8051510  20.0608390   6.9904180 112.0413670
  20.7479520   7.5373390 112.4221260  19.2740810   7.5344910 112.0763280
  12.2000790   2.6077000 107.5330750  13.0695640   2.8901800 107.8166670
  11.7091110   3.4212870 107.4179560  19.3635600   3.9950210 111.6539030
  19.8198380   4.8055460 111.8799220  19.0123810   3.6773350 112.4857520
  21.6668210   9.5056550 118.8831330  22.3110430   9.7115930 119.5604750
  22.0297650   8.7444950 118.4302180  22.9400290   7.5088900 117.6008780
  23.5822520   6.8082060 117.7140950  23.4649640   8.2887340 117.4205670
  26.7856010   7.7937520 107.3247920  26.5593590   7.0767960 107.9172560
  26.3952210   7.5449960 106.4869670  24.7137910   8.3083800 120.8044840
  25.0494150   8.8950490 121.4822760  23.7938250   8.1776510 121.0342630
  12.5672040  11.8204380 108.0992380  12.9269680  12.4193720 107.4449650
  12.4264380  12.3664270 108.8727410  26.3672260   5.7109460 108.9862080
  26.0793960   6.1722150 109.7739960  27.1624430   5.2507230 109.2546300
  12.5513900  10.0859240 122.5734780  12.6605020   9.1453980 122.4330170
  11.8994460  10.3513990 121.9248510  20.5426490   8.3575130 123.9732900
  20.2223360   7.6384370 124.5178590  19.8684850   9.0330200 124.0468960
  18.5840660   9.2035580 108.9166050  18.5750760   9.9365270 108.3010560
  17.6639020   8.9567160 109.0093010  14.1847300   4.4250470 109.6612810
  13.5775250   5.1649370 109.6708110  14.6596650   4.5149830 108.8351010
  21.5700260   9.2663820 107.5791240  21.6712240   9.0627810 106.6493220
  20.6702000   9.0122100 107.7839020  20.2118370  11.7850140 112.2738910
  20.4659870  11.7471530 111.3518280  19.2630850  11.6583470 112.2667160
  26.2170950   2.7042020 113.8497420  25.2761090   2.7192250 114.0245110
  26.5315020   1.9177980 114.2957720  16.1952590   4.3861620 107.4101380
  16.9615860   4.2742980 107.9726810  16.2727280   3.6899590 106.7578150
  28.2196530   9.8750870 115.5251680  28.3443950  10.6982040 115.9975490
  29.0862090   9.6641600 115.1775830  15.6914060  11.9682080 115.1968810
  16.4276540  11.4197540 115.4677380  16.0754980  12.8338090 115.0574800
  12.5759540   8.0355650 111.0710320  11.6499320   8.2776790 111.0615730
  13.0415970   8.8629910 110.9495070  14.6972340  11.1528150 124.3854390
  15.4985070  11.4740200 124.7989790  14.1824160  10.7923730 125.1074300
  18.8016370  11.1412390 107.0194380  19.5944980  11.4301220 106.5676170
  18.2820720  10.7104560 106.3406860  23.5336970   7.2608020 124.3329800
  22.9275130   7.2839620 123.5925550  23.2291080   6.5291060 124.8697050
  24.9637340  10.9888310 122.9439210  25.9159090  10.9046330 122.8939450
  24.8165560  11.6530020 123.6173000  27.8546540  10.3682520 108.4431120
  27.5688050   9.9547660 107.6285300  27.6566090  11.2970230 108.3231640
  12.4170150   3.6401610 123.3290440  12.9209170   3.0608890 123.9006670
  11.6777570   3.9241840 123.8666810  19.3193770   6.3615800 106.8836730
  19.2144410   5.7468150 107.6098110  19.1517990   5.8381690 106.0999740
  19.4708090   5.0472600 122.8625960  18.7053760   5.6157600 122.7780630
  19.6524050   4.7548810 121.9694190  22.5596500   5.4235830 107.4878720
  22.0106600   5.8705130 108.1321460  23.1815760   4.9185080 108.0116390
  26.6131440   6.7777930 123.4200980  27.3540910   7.1153690 122.9168440
  25.8504120   6.9469990 122.8670750  18.2271620   4.3826750 109.3844020
  18.6488040   4.2166620 110.2275410  18.3522460   3.5726980 108.8899160
  20.7399260   3.4064360 106.6321120  21.2604920   2.6913380 106.2662270
  21.3867660   4.0450230 106.9321630  25.2877100   4.8292760 121.9556190
  25.7018120   4.9837840 122.8046610  24.3528100   4.9547980 122.1181970
  20.0492330   4.7813240 119.9252120  20.4680440   5.6245970 119.7528360
  19.1300960   4.9185280 119.6958900  22.3856230   2.5129420 121.3089960
  22.5052440   1.9170560 122.0484800  23.2450230   2.5499110 120.8891260
  24.7244130   3.0666610 119.8852470  24.1979350   3.5909230 119.2817610
  25.0675470   3.6994000 120.5162200  17.8999750  11.0866250 121.0409850
  17.3620840  11.8112310 120.7218550  18.1533710  10.6096590 120.2507190
  20.7561960  12.3217460 121.2996500  20.6820660  13.2252600 121.6068870
  19.8540800  12.0029360 121.2718570  21.3047290  11.4875970 108.9222860
  22.1998080  11.8260940 108.9441620  21.3364920  10.7655380 108.2947140
  14.9443450   6.8603020 107.1509860  15.3818320   7.4032690 107.8067440
  15.4291180   6.0349970 107.1606200  12.1589250   9.6492050 114.6030120
  12.4892260   8.7813110 114.3708760  12.5880250   9.8550570 115.4335080
  16.7551170   7.9801060 112.2632090  16.4546710   7.8566030 113.1636000
  16.6488660   7.1209650 111.8547820  12.6479460  10.5162640 117.3411750
  12.2110450  10.6963440 118.1735900  13.2157140  11.2737260 117.1993470
  28.2841640  10.0179640 121.6289060  27.6843630  10.0772200 120.8852980
  28.4135540   9.0784620 121.7585910  29.5243090   7.7597460 106.9658770
  28.6936050   7.8274110 107.4366000  29.7014920   8.6501580 106.6625630
  28.9799550   4.5044940 109.4692970  29.7418460   5.0741590 109.5752660
  28.9953920   3.9372140 110.2401280  12.4803890   3.0282870 113.7000630
  11.8252730   2.7594510 113.0560330  13.3181840   2.9187350 113.2502610
  29.9859520   5.3595040 114.3134900  30.3568350   4.5762360 113.9070870
  30.6261450   6.0484140 114.1352200  26.9693280   6.7431620 119.7265220
  26.1553120   7.1728780 119.9891010  27.3767480   7.3550030 119.1134270
  29.0318720   4.7979310 106.6265490  29.3067560   5.7058190 106.4984710
  28.8429460   4.7341840 107.5627480  28.9284060   2.7348300 111.6194920
  28.5527660   1.9676230 111.1876210  28.1987180   3.1171000 112.1069850
  13.5179820   3.4135440 118.2403970  13.8852860   3.3262840 119.1199990
  12.9490640   2.6501990 118.1410830  28.3183680   1.8819820 121.2534440
  28.0869770   1.6532570 120.3532390  28.5788230   2.8019370 121.2079330
  27.0269330  11.4950220 113.2533490  27.6228400  11.1734790 112.5767910
  27.2847480  11.0222040 114.0446760  14.9331900   7.9268130 123.4024120
  14.8901530   7.5561040 124.2838580  15.0642910   8.8645700 123.5425940
  18.6337930   9.4827720 119.0033840  18.3929290   9.7502280 118.1164360
  19.5740570   9.6533450 119.0584700  29.8942090  11.5022100 119.8044480
  29.4000370  11.8990970 119.0871610  29.2855380  10.8771310 120.1981760
  14.7719930  10.8730380 120.5221900  14.1780250  10.7415080 121.2611940
  14.7643770  10.0368520 120.0564000  27.5781540  12.1445520 117.0831220
  27.1184510  12.8961330 116.7089240  26.9494000  11.4251990 117.0246020
  14.4032160   8.2388760 119.4729940  13.6766220   7.6194050 119.4055890
  14.4641310   8.6329370 118.6028020  18.0077260  10.4533760 116.2579350
  18.5242280   9.8421120 115.7327610  18.6574640  10.9562540 116.7490360
  20.7472760  11.3442250 117.0848330  21.0350570  11.0896550 116.2081340
  21.2595980  10.7919610 117.6753900  12.6862160  11.5563150 112.6826700
  12.5184200  10.9233830 113.3808590  11.8196670  11.7622550 112.3320890
  14.2924860  10.2496380 110.1276840  13.7672480  10.6304410 109.4238800
  14.2169440  10.8747150 110.8486550  20.8145120  12.2658350 124.4516530
  21.7412430  12.0302620 124.4952490  20.7995550  13.0930350 123.9702560
  29.0490180  11.8083920 111.4490780  29.2242370  11.1221660 110.8051700
  28.3511750  12.3330970 111.0567450  16.8917830  12.1978760 109.0026090
  17.6236650  11.9138040 108.4549980  17.1511500  11.9592040 109.8925470
  16.0532620   8.3143490 109.0072420  15.4241500   8.7828590 109.5558250
  16.1680450   7.4692710 109.4418610  27.3822680  11.4928210 124.2757570
  28.1748000  10.9977440 124.0683530  27.6755830  12.1718350 124.8833180
  21.6400380   4.1428170  97.0382890  20.8642480   3.6628610  97.3281460
  22.2913310   3.4633820  96.8639050  15.6566210   4.4547980  97.9158650
  14.8251090   4.1996690  98.3155160  16.2647190   4.5258750  98.6516570
  25.6607810   8.5488360  95.8182020  25.1989340   7.7775600  96.1469190
  26.4733360   8.5754430  96.3234470  15.6367470   8.4888070  98.1116670
  15.9395510   7.5985810  97.9326890  16.3811060   9.0458290  97.8838920
  21.8871120  10.8346370  95.4386010  21.2682560  11.2903870  94.8680450
  22.7422900  10.9897830  95.0375710  21.0809370   6.8185360  97.0453050
  21.0117650   5.8775300  96.8842180  21.8429230   6.9086770  97.6175620
  22.7534470   5.7185610  92.8317920  22.1351740   6.1835060  92.2680640
  23.2657720   6.4113090  93.2487430  17.6166230   5.2461480  99.5101520
  17.2835610   5.8730400 100.1522590  17.7932910   5.7723360  98.7303190
  16.8285330   7.2142280 101.3250700  17.4459330   7.8893360 101.0435150
  15.9678450   7.6230260 101.2338200  12.1217670   6.4042140  90.2057550
  11.7445650   6.8929240  89.4742450  12.3790740   7.0767420  90.8364080
  27.7462920   8.6781690  99.2405340  27.0626440   9.3480800  99.2322010
  28.2857210   8.8762340  98.4750200  25.2821660  10.5225820  97.9550520
  25.2948820  10.1188110  97.0872780  24.7296880  11.2973110  97.8511950
  26.5767080   7.2442040  93.0440690  26.4663410   6.3016370  93.1690110
  26.5735330   7.6057680  93.9303450  24.6807100   5.4255660  99.2833130
  25.0975890   5.2115770  98.4486590  25.4046920   5.6828450  99.8541750
  22.1187360   2.8707360  92.4003180  21.1916640   2.8044740  92.6291650
  22.2712180   3.8087490  92.2858420  28.6269200   3.8242880  99.3749370
  27.7987830   3.8935970  98.8999500  29.2219680   4.4097190  98.9065200
  26.1484650   4.4327660  92.9038430  25.5297070   4.0947210  92.2564730
  26.1309100   3.7887420  93.6117620  17.7244000   3.3972100  95.1822910
  17.3201000   2.6849350  94.6868810  17.8107120   3.0525340  96.0710950
  18.1925700   7.0839660  97.3462120  17.8953990   6.4785130  96.6669900
  19.1425520   7.1216970  97.2351480  26.2811310  10.6571530 101.0085220
  25.8041870  11.4643720 100.8157830  25.5973100  10.0049860 101.1611430
  17.2844130   6.8221350 103.9969920  16.3872660   7.0461320 104.2443320
  17.3097000   6.9456290 103.0481320  24.3249350   3.6714470  89.9111180
  24.7642630   2.8336900  89.7649000  25.0377770   4.3043870  89.9975320
  16.1115350   3.6934670 102.5727290  15.9723120   4.5657470 102.9414690
  15.2296710   3.3507480 102.4275230  22.4344730   8.6110540  93.8792420
  22.8740640   9.3534870  93.4647810  22.3731620   8.8537110  94.8031380
  17.9095700   9.6356370 104.7812440  17.8811130  10.0399320 103.9140870
  17.7460670   8.7066730 104.6184040  29.8610520  10.4183470 106.0776610
  30.3370240  10.8966360 106.7565690  30.4817680  10.3500960 105.3522110
  12.0634000   5.4632220  98.4898200  12.1414420   5.5980990  97.5453920
  12.6775680   4.7548110  98.6826320  13.3081630   7.1632410  94.9004380
  12.9009710   7.3047000  94.0457980  14.1994640   6.8792570  94.6975590
  29.2643770   7.6096320 103.2376620  29.3906830   7.3708200 102.3193800
  29.3065150   6.7780860 103.7098700  23.1260510  11.3124320 101.8071430
  23.6405180  11.2232330 102.6093860  22.2829590  11.6584020 102.0999340
  25.1014910  11.5979660  91.2355430  24.9416050  11.3082600  92.1337260
  24.9361620  10.8219790  90.7000660  17.5803290  11.3778190  93.0127050
  17.4045770  10.4613730  92.7994850  16.7259030  11.7365480  93.2524850
  24.8041040   9.1067220  89.7953430  24.1106200   9.1044510  89.1355710
  25.5463900   8.6826540  89.3647600  24.3690970  10.7329930  93.8701920
  24.8247920   9.9519310  94.1840540  24.7083490  11.4436750  94.4143100
  12.1193520   6.5046390 101.0292660  12.2824560   6.0351750 100.2112030
  12.5845970   5.9969950 101.6941500  13.6932500   5.8797820 103.1888470
  13.3087290   5.2391490 103.7871430  14.0044690   6.5833940 103.7583200
  19.8429640   2.7274360  98.6697090  20.2099770   2.2532930  99.4158430
  19.6534700   3.6015930  99.0105430  17.6329010   1.7683000 100.9881300
  17.3286080   2.6474980 101.2131660  18.5875470   1.8282790 101.0238740
  16.1610800   5.9743990  91.5848150  15.3873060   5.4341610  91.4246870
  16.8905430   5.4550600  91.2465910  26.9198780   4.9709350  97.3774540
  27.6397900   5.4664640  96.9870650  26.7180600   4.2927240  96.7328410
  22.3017580   5.0418410 103.2643540  22.2354890   4.1214080 103.0101130
  21.6722720   5.1393850 103.9788180  16.2048200   5.6424370  95.2226960
  16.7226870   4.8392630  95.1683850  15.7532220   5.5803510  96.0643790
  21.0917700   6.9090650  90.4954260  21.4333400   7.6532880  89.9997580
  20.2630410   7.2221770  90.8579090  13.6892740   2.6085740 102.1352660
  13.3307680   3.2739590 102.7226000  13.3947300   1.7769290 102.5065280
  16.8905860   3.0669980 105.0192210  16.5906000   3.2127160 104.1220030
  17.6617100   2.5075270 104.9265600  22.2334310   7.8638980 103.0147340
  22.2478850   6.9319940 102.7966250  21.5259410   7.9498740 103.6537110
  27.3671380   2.0478800  89.2845950  27.2835100   2.4793020  88.4342390
  28.0865570   2.5077150  89.7172770  28.4445520   4.5046320 102.3615920
  27.7193710   5.0975100 102.1645310  28.9720980   4.4969860 101.5629290
  28.3958630   8.9021060  92.0128080  27.7534790   8.2476680  92.2871800
  28.0089290   9.3076150  91.2368750  23.9745110   6.2306490  95.8599770
  24.3268930   5.6334620  95.2001140  23.0907440   5.9050720  96.0308020
  20.0608390   6.9904180  93.2670180  20.7479520   7.5373390  93.6477770
  19.2740810   7.5344910  93.3019790  12.2000790   2.6077000  88.7587260
  13.0695640   2.8901800  89.0423180  11.7091110   3.4212870  88.6436070
  19.3635600   3.9950210  92.8795540  19.8198380   4.8055460  93.1055730
  19.0123810   3.6773350  93.7114030  21.6668210   9.5056550 100.1087840
  22.3110430   9.7115930 100.7861260  22.0297650   8.7444950  99.6558690
  22.9400290   7.5088900  98.8265290  23.5822520   6.8082060  98.9397460
  23.4649640   8.2887340  98.6462180  26.7856010   7.7937520  88.5504430
  26.5593590   7.0767960  89.1429070  26.3952210   7.5449960  87.7126180
  24.7137910   8.3083800 102.0301350  25.0494150   8.8950490 102.7079270
  23.7938250   8.1776510 102.2599140  12.5672040  11.8204380  89.3248890
  12.9269680  12.4193720  88.6706160  12.4264380  12.3664270  90.0983920
  26.3672260   5.7109460  90.2118590  26.0793960   6.1722150  90.9996470
  27.1624430   5.2507230  90.4802810  12.5513900  10.0859240 103.7991290
  12.6605020   9.1453980 103.6586680  11.8994460  10.3513990 103.1505020
  20.5426490   8.3575130 105.1989410  20.2223360   7.6384370 105.7435100
  19.8684850   9.0330200 105.2725470  18.5840660   9.2035580  90.1422560
  18.5750760   9.9365270  89.5267070  17.6639020   8.9567160  90.2349520
  14.1847300   4.4250470  90.8869320  13.5775250   5.1649370  90.8964620
  14.6596650   4.5149830  90.0607520  21.5700260   9.2663820  88.8047750
  21.6712240   9.0627810  87.8749730  20.6702000   9.0122100  89.0095530
  20.2118370  11.7850140  93.4995420  20.4659870  11.7471530  92.5774790
  19.2630850  11.6583470  93.4923670  26.2170950   2.7042020  95.0753930
  25.2761090   2.7192250  95.2501620  26.5315020   1.9177980  95.5214230
  16.1952590   4.3861620  88.6357890  16.9615860   4.2742980  89.1983320
  16.2727280   3.6899590  87.9834660  28.2196530   9.8750870  96.7508190
  28.3443950  10.6982040  97.2232000  29.0862090   9.6641600  96.4032340
  15.6914060  11.9682080  96.4225320  16.4276540  11.4197540  96.6933890
  16.0754980  12.8338090  96.2831310  12.5759540   8.0355650  92.2966830
  11.6499320   8.2776790  92.2872240  13.0415970   8.8629910  92.1751580
  14.6972340  11.1528150 105.6110900  15.4985070  11.4740200 106.0246300
  14.1824160  10.7923730 106.3330810  18.8016370  11.1412390  88.2450890
  19.5944980  11.4301220  87.7932680  18.2820720  10.7104560  87.5663370
  23.5336970   7.2608020 105.5586310  22.9275130   7.2839620 104.8182060
  23.2291080   6.5291060 106.0953560  24.9637340  10.9888310 104.1695720
  25.9159090  10.9046330 104.1195960  24.8165560  11.6530020 104.8429510
  27.8546540  10.3682520  89.6687630  27.5688050   9.9547660  88.8541810
  27.6566090  11.2970230  89.5488150  12.4170150   3.6401610 104.5546950
  12.9209170   3.0608890 105.1263180  11.6777570   3.9241840 105.0923320
  19.3193770   6.3615800  88.1093240  19.2144410   5.7468150  88.8354620
  19.1517990   5.8381690  87.3256250  19.4708090   5.0472600 104.0882470
  18.7053760   5.6157600 104.0037140  19.6524050   4.7548810 103.1950700
  22.5596500   5.4235830  88.7135230  22.0106600   5.8705130  89.3577970
  23.1815760   4.9185080  89.2372900  26.6131440   6.7777930 104.6457490
  27.3540910   7.1153690 104.1424950  25.8504120   6.9469990 104.0927260
  18.2271620   4.3826750  90.6100530  18.6488040   4.2166620  91.4531920
  18.3522460   3.5726980  90.1155670  20.7399260   3.4064360  87.8577630
  21.2604920   2.6913380  87.4918780  21.3867660   4.0450230  88.1578140
  25.2877100   4.8292760 103.1812700  25.7018120   4.9837840 104.0303120
  24.3528100   4.9547980 103.3438480  20.0492330   4.7813240 101.1508630
  20.4680440   5.6245970 100.9784870  19.1300960   4.9185280 100.9215410
  22.3856230   2.5129420 102.5346470  22.5052440   1.9170560 103.2741310
  23.2450230   2.5499110 102.1147770  24.7244130   3.0666610 101.1108980
  24.1979350   3.5909230 100.5074120  25.0675470   3.6994000 101.7418710
  17.8999750  11.0866250 102.2666360  17.3620840  11.8112310 101.9475060
  18.1533710  10.6096590 101.4763700  20.7561960  12.3217460 102.5253010
  20.6820660  13.2252600 102.8325380  19.8540800  12.0029360 102.4975080
  21.3047290  11.4875970  90.1479370  22.1998080  11.8260940  90.1698130
  21.3364920  10.7655380  89.5203650  14.9443450   6.8603020  88.3766370
  15.3818320   7.4032690  89.0323950  15.4291180   6.0349970  88.3862710
  12.1589250   9.6492050  95.8286630  12.4892260   8.7813110  95.5965270
  12.5880250   9.8550570  96.6591590  16.7551170   7.9801060  93.4888600
  16.4546710   7.8566030  94.3892510  16.6488660   7.1209650  93.0804330
  12.6479460  10.5162640  98.5668260  12.2110450  10.6963440  99.3992410
  13.2157140  11.2737260  98.4249980  28.2841640  10.0179640 102.8545570
  27.6843630  10.0772200 102.1109490  28.4135540   9.0784620 102.9842420
  29.5243090   7.7597460  88.1915280  28.6936050   7.8274110  88.6622510
  29.7014920   8.6501580  87.8882140  28.9799550   4.5044940  90.6949480
  29.7418460   5.0741590  90.8009170  28.9953920   3.9372140  91.4657790
  12.4803890   3.0282870  94.9257140  11.8252730   2.7594510  94.2816840
  13.3181840   2.9187350  94.4759120  29.9859520   5.3595040  95.5391410
  30.3568350   4.5762360  95.1327380  30.6261450   6.0484140  95.3608710
  26.9693280   6.7431620 100.9521730  26.1553120   7.1728780 101.2147520
  27.3767480   7.3550030 100.3390780  29.0318720   4.7979310  87.8522000
  29.3067560   5.7058190  87.7241220  28.8429460   4.7341840  88.7883990
  28.9284060   2.7348300  92.8451430  28.5527660   1.9676230  92.4132720
  28.1987180   3.1171000  93.3326360  13.5179820   3.4135440  99.4660480
  13.8852860   3.3262840 100.3456500  12.9490640   2.6501990  99.3667340
  28.3183680   1.8819820 102.4790950  28.0869770   1.6532570 101.5788900
  28.5788230   2.8019370 102.4335840  27.0269330  11.4950220  94.4790000
  27.6228400  11.1734790  93.8024420  27.2847480  11.0222040  95.2703270
  14.9331900   7.9268130 104.6280630  14.8901530   7.5561040 105.5095090
  15.0642910   8.8645700 104.7682450  18.6337930   9.4827720 100.2290350
  18.3929290   9.7502280  99.3420870  19.5740570   9.6533450 100.2841210
  29.8942090  11.5022100 101.0300990  29.4000370  11.8990970 100.3128120
  29.2855380  10.8771310 101.4238270  14.7719930  10.8730380 101.7478410
  14.1780250  10.7415080 102.4868450  14.7643770  10.0368520 101.2820510
  27.5781540  12.1445520  98.3087730  27.1184510  12.8961330  97.9345750
  26.9494000  11.4251990  98.2502530  14.4032160   8.2388760 100.6986450
  13.6766220   7.6194050 100.6312400  14.4641310   8.6329370  99.8284530
  18.0077260  10.4533760  97.4835860  18.5242280   9.8421120  96.9584120
  18.6574640  10.9562540  97.9746870  20.7472760  11.3442250  98.3104840
  21.0350570  11.0896550  97.4337850  21.2595980  10.7919610  98.9010410
  12.6862160  11.5563150  93.9083210  12.5184200  10.9233830  94.6065100
  11.8196670  11.7622550  93.5577400  14.2924860  10.2496380  91.3533350
  13.7672480  10.6304410  90.6495310  14.2169440  10.8747150  92.0743060
  20.8145120  12.2658350 105.6773040  21.7412430  12.0302620 105.7209000
  20.7995550  13.0930350 105.1959070  29.0490180  11.8083920  92.6747290
  29.2242370  11.1221660  92.0308210  28.3511750  12.3330970  92.2823960
  16.8917830  12.1978760  90.2282600  17.6236650  11.9138040  89.6806490
  17.1511500  11.9592040  91.1181980  16.0532620   8.3143490  90.2328930
  15.4241500   8.7828590  90.7814760  16.1680450   7.4692710  90.6675120
  27.3822680  11.4928210 105.5014080  28.1748000  10.9977440 105.2940040
  27.6755830  12.1718350 106.1089690  21.6400380   4.1428170  78.2639400
  20.8642480   3.6628610  78.5537970  22.2913310   3.4633820  78.0895560
  15.6566210   4.4547980  79.1415160  14.8251090   4.1996690  79.5411670
  16.2647190   4.5258750  79.8773080  25.6607810   8.5488360  77.0438530
  25.1989340   7.7775600  77.3725700  26.4733360   8.5754430  77.5490980
  15.6367470   8.4888070  79.3373180  15.9395510   7.5985810  79.1583400
  16.3811060   9.0458290  79.1095430  21.8871120  10.8346370  76.6642520
  21.2682560  11.2903870  76.0936960  22.7422900  10.9897830  76.2632220
  21.0809370   6.8185360  78.2709560  21.0117650   5.8775300  78.1098690
  21.8429230   6.9086770  78.8432130  22.7534470   5.7185610  74.0574430
  22.1351740   6.1835060  73.4937150  23.2657720   6.4113090  74.4743940
  17.6166230   5.2461480  80.7358030  17.2835610   5.8730400  81.3779100
  17.7932910   5.7723360  79.9559700  16.8285330   7.2142280  82.5507210
  17.4459330   7.8893360  82.2691660  15.9678450   7.6230260  82.4594710
  12.1217670   6.4042140  71.4314060  11.7445650   6.8929240  70.6998960
  12.3790740   7.0767420  72.0620590  27.7462920   8.6781690  80.4661850
  27.0626440   9.3480800  80.4578520  28.2857210   8.8762340  79.7006710
  25.2821660  10.5225820  79.1807030  25.2948820  10.1188110  78.3129290
  24.7296880  11.2973110  79.0768460  26.5767080   7.2442040  74.2697200
  26.4663410   6.3016370  74.3946620  26.5735330   7.6057680  75.1559960
  24.6807100   5.4255660  80.5089640  25.0975890   5.2115770  79.6743100
  25.4046920   5.6828450  81.0798260  22.1187360   2.8707360  73.6259690
  21.1916640   2.8044740  73.8548160  22.2712180   3.8087490  73.5114930
  28.6269200   3.8242880  80.6005880  27.7987830   3.8935970  80.1256010
  29.2219680   4.4097190  80.1321710  26.1484650   4.4327660  74.1294940
  25.5297070   4.0947210  73.4821240  26.1309100   3.7887420  74.8374130
  17.7244000   3.3972100  76.4079420  17.3201000   2.6849350  75.9125320
  17.8107120   3.0525340  77.2967460  18.1925700   7.0839660  78.5718630
  17.8953990   6.4785130  77.8926410  19.1425520   7.1216970  78.4607990
  26.2811310  10.6571530  82.2341730  25.8041870  11.4643720  82.0414340
  25.5973100  10.0049860  82.3867940  17.2844130   6.8221350  85.2226430
  16.3872660   7.0461320  85.4699830  17.3097000   6.9456290  84.2737830
  24.3249350   3.6714470  71.1367690  24.7642630   2.8336900  70.9905510
  25.0377770   4.3043870  71.2231830  16.1115350   3.6934670  83.7983800
  15.9723120   4.5657470  84.1671200  15.2296710   3.3507480  83.6531740
  22.4344730   8.6110540  75.1048930  22.8740640   9.3534870  74.6904320
  22.3731620   8.8537110  76.0287890  17.9095700   9.6356370  86.0068950
  17.8811130  10.0399320  85.1397380  17.7460670   8.7066730  85.8440550
  29.8610520  10.4183470  87.3033120  30.3370240  10.8966360  87.9822200
  30.4817680  10.3500960  86.5778620  12.0634000   5.4632220  79.7154710
  12.1414420   5.5980990  78.7710430  12.6775680   4.7548110  79.9082830
  13.3081630   7.1632410  76.1260890  12.9009710   7.3047000  75.2714490
  14.1994640   6.8792570  75.9232100  29.2643770   7.6096320  84.4633130
  29.3906830   7.3708200  83.5450310  29.3065150   6.7780860  84.9355210
  23.1260510  11.3124320  83.0327940  23.6405180  11.2232330  83.8350370
  22.2829590  11.6584020  83.3255850  25.1014910  11.5979660  72.4611940
  24.9416050  11.3082600  73.3593770  24.9361620  10.8219790  71.9257170
  17.5803290  11.3778190  74.2383560  17.4045770  10.4613730  74.0251360
  16.7259030  11.7365480  74.4781360  24.8041040   9.1067220  71.0209940
  24.1106200   9.1044510  70.3612220  25.5463900   8.6826540  70.5904110
  24.3690970  10.7329930  75.0958430  24.8247920   9.9519310  75.4097050
  24.7083490  11.4436750  75.6399610  12.1193520   6.5046390  82.2549170
  12.2824560   6.0351750  81.4368540  12.5845970   5.9969950  82.9198010
  13.6932500   5.8797820  84.4144980  13.3087290   5.2391490  85.0127940
  14.0044690   6.5833940  84.9839710  19.8429640   2.7274360  79.8953600
  20.2099770   2.2532930  80.6414940  19.6534700   3.6015930  80.2361940
  17.6329010   1.7683000  82.2137810  17.3286080   2.6474980  82.4388170
  18.5875470   1.8282790  82.2495250  16.1610800   5.9743990  72.8104660
  15.3873060   5.4341610  72.6503380  16.8905430   5.4550600  72.4722420
  26.9198780   4.9709350  78.6031050  27.6397900   5.4664640  78.2127160
  26.7180600   4.2927240  77.9584920  22.3017580   5.0418410  84.4900050
  22.2354890   4.1214080  84.2357640  21.6722720   5.1393850  85.2044690
  16.2048200   5.6424370  76.4483470  16.7226870   4.8392630  76.3940360
  15.7532220   5.5803510  77.2900300  21.0917700   6.9090650  71.7210770
  21.4333400   7.6532880  71.2254090  20.2630410   7.2221770  72.0835600
  13.6892740   2.6085740  83.3609170  13.3307680   3.2739590  83.9482510
  13.3947300   1.7769290  83.7321790  16.8905860   3.0669980  86.2448720
  16.5906000   3.2127160  85.3476540  17.6617100   2.5075270  86.1522110
  22.2334310   7.8638980  84.2403850  22.2478850   6.9319940  84.0222760
  21.5259410   7.9498740  84.8793620  27.3671380   2.0478800  70.5102460
  27.2835100   2.4793020  69.6598900  28.0865570   2.5077150  70.9429280
  28.4445520   4.5046320  83.5872430  27.7193710   5.0975100  83.3901820
  28.9720980   4.4969860  82.7885800  28.3958630   8.9021060  73.2384590
  27.7534790   8.2476680  73.5128310  28.0089290   9.3076150  72.4625260
  23.9745110   6.2306490  77.0856280  24.3268930   5.6334620  76.4257650
  23.0907440   5.9050720  77.2564530  20.0608390   6.9904180  74.4926690
  20.7479520   7.5373390  74.8734280  19.2740810   7.5344910  74.5276300
  12.2000790   2.6077000  69.9843770  13.0695640   2.8901800  70.2679690
  11.7091110   3.4212870  69.8692580  19.3635600   3.9950210  74.1052050
  19.8198380   4.8055460  74.3312240  19.0123810   3.6773350  74.9370540
  21.6668210   9.5056550  81.3344350  22.3110430   9.7115930  82.0117770
  22.0297650   8.7444950  80.8815200  22.9400290   7.5088900  80.0521800
  23.5822520   6.8082060  80.1653970  23.4649640   8.2887340  79.8718690
  26.7856010   7.7937520  69.7760940  26.5593590   7.0767960  70.3685580
  26.3952210   7.5449960  68.9382690  24.7137910   8.3083800  83.2557860
  25.0494150   8.8950490  83.9335780  23.7938250   8.1776510  83.4855650
  12.5672040  11.8204380  70.5505400  12.9269680  12.4193720  69.8962670
  12.4264380  12.3664270  71.3240430  26.3672260   5.7109460  71.4375100
  26.0793960   6.1722150  72.2252980  27.1624430   5.2507230  71.7059320
  12.5513900  10.0859240  85.0247800  12.6605020   9.1453980  84.8843190
  11.8994460  10.3513990  84.3761530  20.5426490   8.3575130  86.4245920
  20.2223360   7.6384370  86.9691610  19.8684850   9.0330200  86.4981980
  18.5840660   9.2035580  71.3679070  18.5750760   9.9365270  70.7523580
  17.6639020   8.9567160  71.4606030  14.1847300   4.4250470  72.1125830
  13.5775250   5.1649370  72.1221130  14.6596650   4.5149830  71.2864030
  21.5700260   9.2663820  70.0304260  21.6712240   9.0627810  69.1006240
  20.6702000   9.0122100  70.2352040  20.2118370  11.7850140  74.7251930
  20.4659870  11.7471530  73.8031300  19.2630850  11.6583470  74.7180180
  26.2170950   2.7042020  76.3010440  25.2761090   2.7192250  76.4758130
  26.5315020   1.9177980  76.7470740  16.1952590   4.3861620  69.8614400
  16.9615860   4.2742980  70.4239830  16.2727280   3.6899590  69.2091170
  28.2196530   9.8750870  77.9764700  28.3443950  10.6982040  78.4488510
  29.0862090   9.6641600  77.6288850  15.6914060  11.9682080  77.6481830
  16.4276540  11.4197540  77.9190400  16.0754980  12.8338090  77.5087820
  12.5759540   8.0355650  73.5223340  11.6499320   8.2776790  73.5128750
  13.0415970   8.8629910  73.4008090  14.6972340  11.1528150  86.8367410
  15.4985070  11.4740200  87.2502810  14.1824160  10.7923730  87.5587320
  18.8016370  11.1412390  69.4707400  19.5944980  11.4301220  69.0189190
  18.2820720  10.7104560  68.7919880  23.5336970   7.2608020  86.7842820
  22.9275130   7.2839620  86.0438570  23.2291080   6.5291060  87.3210070
  24.9637340  10.9888310  85.3952230  25.9159090  10.9046330  85.3452470
  24.8165560  11.6530020  86.0686020  27.8546540  10.3682520  70.8944140
  27.5688050   9.9547660  70.0798320  27.6566090  11.2970230  70.7744660
  12.4170150   3.6401610  85.7803460  12.9209170   3.0608890  86.3519690
  11.6777570   3.9241840  86.3179830  19.3193770   6.3615800  69.3349750
  19.2144410   5.7468150  70.0611130  19.1517990   5.8381690  68.5512760
  19.4708090   5.0472600  85.3138980  18.7053760   5.6157600  85.2293650
  19.6524050   4.7548810  84.4207210  22.5596500   5.4235830  69.9391740
  22.0106600   5.8705130  70.5834480  23.1815760   4.9185080  70.4629410
  26.6131440   6.7777930  85.8714000  27.3540910   7.1153690  85.3681460
  25.8504120   6.9469990  85.3183770  18.2271620   4.3826750  71.8357040
  18.6488040   4.2166620  72.6788430  18.3522460   3.5726980  71.3412180
  20.7399260   3.4064360  69.0834140  21.2604920   2.6913380  68.7175290
  21.3867660   4.0450230  69.3834650  25.2877100   4.8292760  84.4069210
  25.7018120   4.9837840  85.2559630  24.3528100   4.9547980  84.5694990
  20.0492330   4.7813240  82.3765140  20.4680440   5.6245970  82.2041380
  19.1300960   4.9185280  82.1471920  22.3856230   2.5129420  83.7602980
  22.5052440   1.9170560  84.4997820  23.2450230   2.5499110  83.3404280
  24.7244130   3.0666610  82.3365490  24.1979350   3.5909230  81.7330630
  25.0675470   3.6994000  82.9675220  17.8999750  11.0866250  83.4922870
  17.3620840  11.8112310  83.1731570  18.1533710  10.6096590  82.7020210
  20.7561960  12.3217460  83.7509520  20.6820660  13.2252600  84.0581890
  19.8540800  12.0029360  83.7231590  21.3047290  11.4875970  71.3735880
  22.1998080  11.8260940  71.3954640  21.3364920  10.7655380  70.7460160
  14.9443450   6.8603020  69.6022880  15.3818320   7.4032690  70.2580460
  15.4291180   6.0349970  69.6119220  12.1589250   9.6492050  77.0543140
  12.4892260   8.7813110  76.8221780  12.5880250   9.8550570  77.8848100
  16.7551170   7.9801060  74.7145110  16.4546710   7.8566030  75.6149020
  16.6488660   7.1209650  74.3060840  12.6479460  10.5162640  79.7924770
  12.2110450  10.6963440  80.6248920  13.2157140  11.2737260  79.6506490
  28.2841640  10.0179640  84.0802080  27.6843630  10.0772200  83.3366000
  28.4135540   9.0784620  84.2098930  29.5243090   7.7597460  69.4171790
  28.6936050   7.8274110  69.8879020  29.7014920   8.6501580  69.1138650
  28.9799550   4.5044940  71.9205990  29.7418460   5.0741590  72.0265680
  28.9953920   3.9372140  72.6914300  12.4803890   3.0282870  76.1513650
  11.8252730   2.7594510  75.5073350  13.3181840   2.9187350  75.7015630
  29.9859520   5.3595040  76.7647920  30.3568350   4.5762360  76.3583890
  30.6261450   6.0484140  76.5865220  26.9693280   6.7431620  82.1778240
  26.1553120   7.1728780  82.4404030  27.3767480   7.3550030  81.5647290
  29.0318720   4.7979310  69.0778510  29.3067560   5.7058190  68.9497730
  28.8429460   4.7341840  70.0140500  28.9284060   2.7348300  74.0707940
  28.5527660   1.9676230  73.6389230  28.1987180   3.1171000  74.5582870
  13.5179820   3.4135440  80.6916990  13.8852860   3.3262840  81.5713010
  12.9490640   2.6501990  80.5923850  28.3183680   1.8819820  83.7047460
  28.0869770   1.6532570  82.8045410  28.5788230   2.8019370  83.6592350
  27.0269330  11.4950220  75.7046510  27.6228400  11.1734790  75.0280930
  27.2847480  11.0222040  76.4959780  14.9331900   7.9268130  85.8537140
  14.8901530   7.5561040  86.7351600  15.0642910   8.8645700  85.9938960
  18.6337930   9.4827720  81.4546860  18.3929290   9.7502280  80.5677380
  19.5740570   9.6533450  81.5097720  29.8942090  11.5022100  82.2557500
  29.4000370  11.8990970  81.5384630  29.2855380  10.8771310  82.6494780
  14.7719930  10.8730380  82.9734920  14.1780250  10.7415080  83.7124960
  14.7643770  10.0368520  82.5077020  27.5781540  12.1445520  79.5344240
  27.1184510  12.8961330  79.1602260  26.9494000  11.4251990  79.4759040
  14.4032160   8.2388760  81.9242960  13.6766220   7.6194050  81.8568910
  14.4641310   8.6329370  81.0541040  18.0077260  10.4533760  78.7092370
  18.5242280   9.8421120  78.1840630  18.6574640  10.9562540  79.2003380
  20.7472760  11.3442250  79.5361350  21.0350570  11.0896550  78.6594360
  21.2595980  10.7919610  80.1266920  12.6862160  11.5563150  75.1339720
  12.5184200  10.9233830  75.8321610  11.8196670  11.7622550  74.7833910
  14.2924860  10.2496380  72.5789860  13.7672480  10.6304410  71.8751820
  14.2169440  10.8747150  73.2999570  20.8145120  12.2658350  86.9029550
  21.7412430  12.0302620  86.9465510  20.7995550  13.0930350  86.4215580
  29.0490180  11.8083920  73.9003800  29.2242370  11.1221660  73.2564720
  28.3511750  12.3330970  73.5080470  16.8917830  12.1978760  71.4539110
  17.6236650  11.9138040  70.9063000  17.1511500  11.9592040  72.3438490
  16.0532620   8.3143490  71.4585440  15.4241500   8.7828590  72.0071270
  16.1680450   7.4692710  71.8931630  27.3822680  11.4928210  86.7270590
  28.1748000  10.9977440  86.5196550  27.6755830  12.1718350  87.3346200
  21.6400380   4.1428170  59.4895910  20.8642480   3.6628610  59.7794480
  22.2913310   3.4633820  59.3152070  15.6566210   4.4547980  60.3671670
  14.8251090   4.1996690  60.7668180  16.2647190   4.5258750  61.1029590
  25.6607810   8.5488360  58.2695040  25.1989340   7.7775600  58.5982210
  26.4733360   8.5754430  58.7747490  15.6367470   8.4888070  60.5629690
  15.9395510   7.5985810  60.3839910  16.3811060   9.0458290  60.3351940
  21.8871120  10.8346370  57.8899030  21.2682560  11.2903870  57.3193470
  22.7422900  10.9897830  57.4888730  21.0809370   6.8185360  59.4966070
  21.0117650   5.8775300  59.3355200  21.8429230   6.9086770  60.0688640
  22.7534470   5.7185610  55.2830940  22.1351740   6.1835060  54.7193660
  23.2657720   6.4113090  55.7000450  17.6166230   5.2461480  61.9614540
  17.2835610   5.8730400  62.6035610  17.7932910   5.7723360  61.1816210
  16.8285330   7.2142280  63.7763720  17.4459330   7.8893360  63.4948170
  15.9678450   7.6230260  63.6851220  12.1217670   6.4042140  52.6570570
  11.7445650   6.8929240  51.9255470  12.3790740   7.0767420  53.2877100
  27.7462920   8.6781690  61.6918360  27.0626440   9.3480800  61.6835030
  28.2857210   8.8762340  60.9263220  25.2821660  10.5225820  60.4063540
  25.2948820  10.1188110  59.5385800  24.7296880  11.2973110  60.3024970
  26.5767080   7.2442040  55.4953710  26.4663410   6.3016370  55.6203130
  26.5735330   7.6057680  56.3816470  24.6807100   5.4255660  61.7346150
  25.0975890   5.2115770  60.8999610  25.4046920   5.6828450  62.3054770
  22.1187360   2.8707360  54.8516200  21.1916640   2.8044740  55.0804670
  22.2712180   3.8087490  54.7371440  28.6269200   3.8242880  61.8262390
  27.7987830   3.8935970  61.3512520  29.2219680   4.4097190  61.3578220
  26.1484650   4.4327660  55.3551450  25.5297070   4.0947210  54.7077750
  26.1309100   3.7887420  56.0630640  17.7244000   3.3972100  57.6335930
  17.3201000   2.6849350  57.1381830  17.8107120   3.0525340  58.5223970
  18.1925700   7.0839660  59.7975140  17.8953990   6.4785130  59.1182920
  19.1425520   7.1216970  59.6864500  26.2811310  10.6571530  63.4598240
  25.8041870  11.4643720  63.2670850  25.5973100  10.0049860  63.6124450
  17.2844130   6.8221350  66.4482940  16.3872660   7.0461320  66.6956340
  17.3097000   6.9456290  65.4994340  24.3249350   3.6714470  52.3624200
  24.7642630   2.8336900  52.2162020  25.0377770   4.3043870  52.4488340
  16.1115350   3.6934670  65.0240310  15.9723120   4.5657470  65.3927710
  15.2296710   3.3507480  64.8788250  22.4344730   8.6110540  56.3305440
  22.8740640   9.3534870  55.9160830  22.3731620   8.8537110  57.2544400
  17.9095700   9.6356370  67.2325460  17.8811130  10.0399320  66.3653890
  17.7460670   8.7066730  67.0697060  29.8610520  10.4183470  68.5289630
  30.3370240  10.8966360  69.2078710  30.4817680  10.3500960  67.8035130
  12.0634000   5.4632220  60.9411220  12.1414420   5.5980990  59.9966940
  12.6775680   4.7548110  61.1339340  13.3081630   7.1632410  57.3517400
  12.9009710   7.3047000  56.4971000  14.1994640   6.8792570  57.1488610
  29.2643770   7.6096320  65.6889640  29.3906830   7.3708200  64.7706820
  29.3065150   6.7780860  66.1611720  23.1260510  11.3124320  64.2584450
  23.6405180  11.2232330  65.0606880  22.2829590  11.6584020  64.5512360
  25.1014910  11.5979660  53.6868450  24.9416050  11.3082600  54.5850280
  24.9361620  10.8219790  53.1513680  17.5803290  11.3778190  55.4640070
  17.4045770  10.4613730  55.2507870  16.7259030  11.7365480  55.7037870
  24.8041040   9.1067220  52.2466450  24.1106200   9.1044510  51.5868730
  25.5463900   8.6826540  51.8160620  24.3690970  10.7329930  56.3214940
  24.8247920   9.9519310  56.6353560  24.7083490  11.4436750  56.8656120
  12.1193520   6.5046390  63.4805680  12.2824560   6.0351750  62.6625050
  12.5845970   5.9969950  64.1454520  13.6932500   5.8797820  65.6401490
  13.3087290   5.2391490  66.2384450  14.0044690   6.5833940  66.2096220
  19.8429640   2.7274360  61.1210110  20.2099770   2.2532930  61.8671450
  19.6534700   3.6015930  61.4618450  17.6329010   1.7683000  63.4394320
  17.3286080   2.6474980  63.6644680  18.5875470   1.8282790  63.4751760
  16.1610800   5.9743990  54.0361170  15.3873060   5.4341610  53.8759890
  16.8905430   5.4550600  53.6978930  26.9198780   4.9709350  59.8287560
  27.6397900   5.4664640  59.4383670  26.7180600   4.2927240  59.1841430
  22.3017580   5.0418410  65.7156560  22.2354890   4.1214080  65.4614150
  21.6722720   5.1393850  66.4301200  16.2048200   5.6424370  57.6739980
  16.7226870   4.8392630  57.6196870  15.7532220   5.5803510  58.5156810
  21.0917700   6.9090650  52.9467280  21.4333400   7.6532880  52.4510600
  20.2630410   7.2221770  53.3092110  13.6892740   2.6085740  64.5865680
  13.3307680   3.2739590  65.1739020  13.3947300   1.7769290  64.9578300
  16.8905860   3.0669980  67.4705230  16.5906000   3.2127160  66.5733050
  17.6617100   2.5075270  67.3778620  22.2334310   7.8638980  65.4660360
  22.2478850   6.9319940  65.2479270  21.5259410   7.9498740  66.1050130
  27.3671380   2.0478800  51.7358970  27.2835100   2.4793020  50.8855410
  28.0865570   2.5077150  52.1685790  28.4445520   4.5046320  64.8128940
  27.7193710   5.0975100  64.6158330  28.9720980   4.4969860  64.0142310
  28.3958630   8.9021060  54.4641100  27.7534790   8.2476680  54.7384820
  28.0089290   9.3076150  53.6881770  23.9745110   6.2306490  58.3112790
  24.3268930   5.6334620  57.6514160  23.0907440   5.9050720  58.4821040
  20.0608390   6.9904180  55.7183200  20.7479520   7.5373390  56.0990790
  19.2740810   7.5344910  55.7532810  12.2000790   2.6077000  51.2100280
  13.0695640   2.8901800  51.4936200  11.7091110   3.4212870  51.0949090
  19.3635600   3.9950210  55.3308560  19.8198380   4.8055460  55.5568750
  19.0123810   3.6773350  56.1627050  21.6668210   9.5056550  62.5600860
  22.3110430   9.7115930  63.2374280  22.0297650   8.7444950  62.1071710
  22.9400290   7.5088900  61.2778310  23.5822520   6.8082060  61.3910480
  23.4649640   8.2887340  61.0975200  26.7856010   7.7937520  51.0017450
  26.5593590   7.0767960  51.5942090  26.3952210   7.5449960  50.1639200
  24.7137910   8.3083800  64.4814370  25.0494150   8.8950490  65.1592290
  23.7938250   8.1776510  64.7112160  12.5672040  11.8204380  51.7761910
  12.9269680  12.4193720  51.1219180  12.4264380  12.3664270  52.5496940
  26.3672260   5.7109460  52.6631610  26.0793960   6.1722150  53.4509490
  27.1624430   5.2507230  52.9315830  12.5513900  10.0859240  66.2504310
  12.6605020   9.1453980  66.1099700  11.8994460  10.3513990  65.6018040
  20.5426490   8.3575130  67.6502430  20.2223360   7.6384370  68.1948120
  19.8684850   9.0330200  67.7238490  18.5840660   9.2035580  52.5935580
  18.5750760   9.9365270  51.9780090  17.6639020   8.9567160  52.6862540
  14.1847300   4.4250470  53.3382340  13.5775250   5.1649370  53.3477640
  14.6596650   4.5149830  52.5120540  21.5700260   9.2663820  51.2560770
  21.6712240   9.0627810  50.3262750  20.6702000   9.0122100  51.4608550
  20.2118370  11.7850140  55.9508440  20.4659870  11.7471530  55.0287810
  19.2630850  11.6583470  55.9436690  26.2170950   2.7042020  57.5266950
  25.2761090   2.7192250  57.7014640  26.5315020   1.9177980  57.9727250
  16.1952590   4.3861620  51.0870910  16.9615860   4.2742980  51.6496340
  16.2727280   3.6899590  50.4347680  28.2196530   9.8750870  59.2021210
  28.3443950  10.6982040  59.6745020  29.0862090   9.6641600  58.8545360
  15.6914060  11.9682080  58.8738340  16.4276540  11.4197540  59.1446910
  16.0754980  12.8338090  58.7344330  12.5759540   8.0355650  54.7479850
  11.6499320   8.2776790  54.7385260  13.0415970   8.8629910  54.6264600
  14.6972340  11.1528150  68.0623920  15.4985070  11.4740200  68.4759320
  14.1824160  10.7923730  68.7843830  18.8016370  11.1412390  50.6963910
  19.5944980  11.4301220  50.2445700  18.2820720  10.7104560  50.0176390
  23.5336970   7.2608020  68.0099330  22.9275130   7.2839620  67.2695080
  23.2291080   6.5291060  68.5466580  24.9637340  10.9888310  66.6208740
  25.9159090  10.9046330  66.5708980  24.8165560  11.6530020  67.2942530
  27.8546540  10.3682520  52.1200650  27.5688050   9.9547660  51.3054830
  27.6566090  11.2970230  52.0001170  12.4170150   3.6401610  67.0059970
  12.9209170   3.0608890  67.5776200  11.6777570   3.9241840  67.5436340
  19.3193770   6.3615800  50.5606260  19.2144410   5.7468150  51.2867640
  19.1517990   5.8381690  49.7769270  19.4708090   5.0472600  66.5395490
  18.7053760   5.6157600  66.4550160  19.6524050   4.7548810  65.6463720
  22.5596500   5.4235830  51.1648250  22.0106600   5.8705130  51.8090990
  23.1815760   4.9185080  51.6885920  26.6131440   6.7777930  67.0970510
  27.3540910   7.1153690  66.5937970  25.8504120   6.9469990  66.5440280
  18.2271620   4.3826750  53.0613550  18.6488040   4.2166620  53.9044940
  18.3522460   3.5726980  52.5668690  20.7399260   3.4064360  50.3090650
  21.2604920   2.6913380  49.9431800  21.3867660   4.0450230  50.6091160
  25.2877100   4.8292760  65.6325720  25.7018120   4.9837840  66.4816140
  24.3528100   4.9547980  65.7951500  20.0492330   4.7813240  63.6021650
  20.4680440   5.6245970  63.4297890  19.1300960   4.9185280  63.3728430
  22.3856230   2.5129420  64.9859490  22.5052440   1.9170560  65.7254330
  23.2450230   2.5499110  64.5660790  24.7244130   3.0666610  63.5622000
  24.1979350   3.5909230  62.9587140  25.0675470   3.6994000  64.1931730
  17.8999750  11.0866250  64.7179380  17.3620840  11.8112310  64.3988080
  18.1533710  10.6096590  63.9276720  20.7561960  12.3217460  64.9766030
  20.6820660  13.2252600  65.2838400  19.8540800  12.0029360  64.9488100
  21.3047290  11.4875970  52.5992390  22.1998080  11.8260940  52.6211150
  21.3364920  10.7655380  51.9716670  14.9443450   6.8603020  50.8279390
  15.3818320   7.4032690  51.4836970  15.4291180   6.0349970  50.8375730
  12.1589250   9.6492050  58.2799650  12.4892260   8.7813110  58.0478290
  12.5880250   9.8550570  59.1104610  16.7551170   7.9801060  55.9401620
  16.4546710   7.8566030  56.8405530  16.6488660   7.1209650  55.5317350
  12.6479460  10.5162640  61.0181280  12.2110450  10.6963440  61.8505430
  13.2157140  11.2737260  60.8763000  28.2841640  10.0179640  65.3058590
  27.6843630  10.0772200  64.5622510  28.4135540   9.0784620  65.4355440
  29.5243090   7.7597460  50.6428300  28.6936050   7.8274110  51.1135530
  29.7014920   8.6501580  50.3395160  28.9799550   4.5044940  53.1462500
  29.7418460   5.0741590  53.2522190  28.9953920   3.9372140  53.9170810
  12.4803890   3.0282870  57.3770160  11.8252730   2.7594510  56.7329860
  13.3181840   2.9187350  56.9272140  29.9859520   5.3595040  57.9904430
  30.3568350   4.5762360  57.5840400  30.6261450   6.0484140  57.8121730
  26.9693280   6.7431620  63.4034750  26.1553120   7.1728780  63.6660540
  27.3767480   7.3550030  62.7903800  29.0318720   4.7979310  50.3035020
  29.3067560   5.7058190  50.1754240  28.8429460   4.7341840  51.2397010
  28.9284060   2.7348300  55.2964450  28.5527660   1.9676230  54.8645740
  28.1987180   3.1171000  55.7839380  13.5179820   3.4135440  61.9173500
  13.8852860   3.3262840  62.7969520  12.9490640   2.6501990  61.8180360
  28.3183680   1.8819820  64.9303970  28.0869770   1.6532570  64.0301920
  28.5788230   2.8019370  64.8848860  27.0269330  11.4950220  56.9303020
  27.6228400  11.1734790  56.2537440  27.2847480  11.0222040  57.7216290
  14.9331900   7.9268130  67.0793650  14.8901530   7.5561040  67.9608110
  15.0642910   8.8645700  67.2195470  18.6337930   9.4827720  62.6803370
  18.3929290   9.7502280  61.7933890  19.5740570   9.6533450  62.7354230
  29.8942090  11.5022100  63.4814010  29.4000370  11.8990970  62.7641140
  29.2855380  10.8771310  63.8751290  14.7719930  10.8730380  64.1991430
  14.1780250  10.7415080  64.9381470  14.7643770  10.0368520  63.7333530
  27.5781540  12.1445520  60.7600750  27.1184510  12.8961330  60.3858770
  26.9494000  11.4251990  60.7015550  14.4032160   8.2388760  63.1499470
  13.6766220   7.6194050  63.0825420  14.4641310   8.6329370  62.2797550
  18.0077260  10.4533760  59.9348880  18.5242280   9.8421120  59.4097140
  18.6574640  10.9562540  60.4259890  20.7472760  11.3442250  60.7617860
  21.0350570  11.0896550  59.8850870  21.2595980  10.7919610  61.3523430
  12.6862160  11.5563150  56.3596230  12.5184200  10.9233830  57.0578120
  11.8196670  11.7622550  56.0090420  14.2924860  10.2496380  53.8046370
  13.7672480  10.6304410  53.1008330  14.2169440  10.8747150  54.5256080
  20.8145120  12.2658350  68.1286060  21.7412430  12.0302620  68.1722020
  20.7995550  13.0930350  67.6472090  29.0490180  11.8083920  55.1260310
  29.2242370  11.1221660  54.4821230  28.3511750  12.3330970  54.7336980
  16.8917830  12.1978760  52.6795620  17.6236650  11.9138040  52.1319510
  17.1511500  11.9592040  53.5695000  16.0532620   8.3143490  52.6841950
  15.4241500   8.7828590  53.2327780  16.1680450   7.4692710  53.1188140
  27.3822680  11.4928210  67.9527100  28.1748000  10.9977440  67.7453060
  27.6755830  12.1718350  68.5602710  21.6400380   4.1428170  40.7152420
  20.8642480   3.6628610  41.0050990  22.2913310   3.4633820  40.5408580
  15.6566210   4.4547980  41.5928180  14.8251090   4.1996690  41.9924690
  16.2647190   4.5258750  42.3286100  25.6607810   8.5488360  39.4951550
  25.1989340   7.7775600  39.8238720  26.4733360   8.5754430  40.0004000
  15.6367470   8.4888070  41.7886200  15.9395510   7.5985810  41.6096420
  16.3811060   9.0458290  41.5608450  21.8871120  10.8346370  39.1155540
  21.2682560  11.2903870  38.5449980  22.7422900  10.9897830  38.7145240
  21.0809370   6.8185360  40.7222580  21.0117650   5.8775300  40.5611710
  21.8429230   6.9086770  41.2945150  22.7534470   5.7185610  36.5087450
  22.1351740   6.1835060  35.9450170  23.2657720   6.4113090  36.9256960
  17.6166230   5.2461480  43.1871050  17.2835610   5.8730400  43.8292120
  17.7932910   5.7723360  42.4072720  16.8285330   7.2142280  45.0020230
  17.4459330   7.8893360  44.7204680  15.9678450   7.6230260  44.9107730
  12.1217670   6.4042140  33.8827080  11.7445650   6.8929240  33.1511980
  12.3790740   7.0767420  34.5133610  27.7462920   8.6781690  42.9174870
  27.0626440   9.3480800  42.9091540  28.2857210   8.8762340  42.1519730
  25.2821660  10.5225820  41.6320050  25.2948820  10.1188110  40.7642310
  24.7296880  11.2973110  41.5281480  26.5767080   7.2442040  36.7210220
  26.4663410   6.3016370  36.8459640  26.5735330   7.6057680  37.6072980
  24.6807100   5.4255660  42.9602660  25.0975890   5.2115770  42.1256120
  25.4046920   5.6828450  43.5311280  22.1187360   2.8707360  36.0772710
  21.1916640   2.8044740  36.3061180  22.2712180   3.8087490  35.9627950
  28.6269200   3.8242880  43.0518900  27.7987830   3.8935970  42.5769030
  29.2219680   4.4097190  42.5834730  26.1484650   4.4327660  36.5807960
  25.5297070   4.0947210  35.9334260  26.1309100   3.7887420  37.2887150
  17.7244000   3.3972100  38.8592440  17.3201000   2.6849350  38.3638340
  17.8107120   3.0525340  39.7480480  18.1925700   7.0839660  41.0231650
  17.8953990   6.4785130  40.3439430  19.1425520   7.1216970  40.9121010
  26.2811310  10.6571530  44.6854750  25.8041870  11.4643720  44.4927360
  25.5973100  10.0049860  44.8380960  17.2844130   6.8221350  47.6739450
  16.3872660   7.0461320  47.9212850  17.3097000   6.9456290  46.7250850
  24.3249350   3.6714470  33.5880710  24.7642630   2.8336900  33.4418530
  25.0377770   4.3043870  33.6744850  16.1115350   3.6934670  46.2496820
  15.9723120   4.5657470  46.6184220  15.2296710   3.3507480  46.1044760
  22.4344730   8.6110540  37.5561950  22.8740640   9.3534870  37.1417340
  22.3731620   8.8537110  38.4800910  17.9095700   9.6356370  48.4581970
  17.8811130  10.0399320  47.5910400  17.7460670   8.7066730  48.2953570
  29.8610520  10.4183470  49.7546140  30.3370240  10.8966360  50.4335220
  30.4817680  10.3500960  49.0291640  12.0634000   5.4632220  42.1667730
  12.1414420   5.5980990  41.2223450  12.6775680   4.7548110  42.3595850
  13.3081630   7.1632410  38.5773910  12.9009710   7.3047000  37.7227510
  14.1994640   6.8792570  38.3745120  29.2643770   7.6096320  46.9146150
  29.3906830   7.3708200  45.9963330  29.3065150   6.7780860  47.3868230
  23.1260510  11.3124320  45.4840960  23.6405180  11.2232330  46.2863390
  22.2829590  11.6584020  45.7768870  25.1014910  11.5979660  34.9124960
  24.9416050  11.3082600  35.8106790  24.9361620  10.8219790  34.3770190
  17.5803290  11.3778190  36.6896580  17.4045770  10.4613730  36.4764380
  16.7259030  11.7365480  36.9294380  24.8041040   9.1067220  33.4722960
  24.1106200   9.1044510  32.8125240  25.5463900   8.6826540  33.0417130
  24.3690970  10.7329930  37.5471450  24.8247920   9.9519310  37.8610070
  24.7083490  11.4436750  38.0912630  12.1193520   6.5046390  44.7062190
  12.2824560   6.0351750  43.8881560  12.5845970   5.9969950  45.3711030
  13.6932500   5.8797820  46.8658000  13.3087290   5.2391490  47.4640960
  14.0044690   6.5833940  47.4352730  19.8429640   2.7274360  42.3466620
  20.2099770   2.2532930  43.0927960  19.6534700   3.6015930  42.6874960
  17.6329010   1.7683000  44.6650830  17.3286080   2.6474980  44.8901190
  18.5875470   1.8282790  44.7008270  16.1610800   5.9743990  35.2617680
  15.3873060   5.4341610  35.1016400  16.8905430   5.4550600  34.9235440
  26.9198780   4.9709350  41.0544070  27.6397900   5.4664640  40.6640180
  26.7180600   4.2927240  40.4097940  22.3017580   5.0418410  46.9413070
  22.2354890   4.1214080  46.6870660  21.6722720   5.1393850  47.6557710
  16.2048200   5.6424370  38.8996490  16.7226870   4.8392630  38.8453380
  15.7532220   5.5803510  39.7413320  21.0917700   6.9090650  34.1723790
  21.4333400   7.6532880  33.6767110  20.2630410   7.2221770  34.5348620
  13.6892740   2.6085740  45.8122190  13.3307680   3.2739590  46.3995530
  13.3947300   1.7769290  46.1834810  16.8905860   3.0669980  48.6961740
  16.5906000   3.2127160  47.7989560  17.6617100   2.5075270  48.6035130
  22.2334310   7.8638980  46.6916870  22.2478850   6.9319940  46.4735780
  21.5259410   7.9498740  47.3306640  27.3671380   2.0478800  32.9615480
  27.2835100   2.4793020  32.1111920  28.0865570   2.5077150  33.3942300
  28.4445520   4.5046320  46.0385450  27.7193710   5.0975100  45.8414840
  28.9720980   4.4969860  45.2398820  28.3958630   8.9021060  35.6897610
  27.7534790   8.2476680  35.9641330  28.0089290   9.3076150  34.9138280
  23.9745110   6.2306490  39.5369300  24.3268930   5.6334620  38.8770670
  23.0907440   5.9050720  39.7077550  20.0608390   6.9904180  36.9439710
  20.7479520   7.5373390  37.3247300  19.2740810   7.5344910  36.9789320
  12.2000790   2.6077000  32.4356790  13.0695640   2.8901800  32.7192710
  11.7091110   3.4212870  32.3205600  19.3635600   3.9950210  36.5565070
  19.8198380   4.8055460  36.7825260  19.0123810   3.6773350  37.3883560
  21.6668210   9.5056550  43.7857370  22.3110430   9.7115930  44.4630790
  22.0297650   8.7444950  43.3328220  22.9400290   7.5088900  42.5034820
  23.5822520   6.8082060  42.6166990  23.4649640   8.2887340  42.3231710
  26.7856010   7.7937520  32.2273960  26.5593590   7.0767960  32.8198600
  26.3952210   7.5449960  31.3895710  24.7137910   8.3083800  45.7070880
  25.0494150   8.8950490  46.3848800  23.7938250   8.1776510  45.9368670
  12.5672040  11.8204380  33.0018420  12.9269680  12.4193720  32.3475690
  12.4264380  12.3664270  33.7753450  26.3672260   5.7109460  33.8888120
  26.0793960   6.1722150  34.6766000  27.1624430   5.2507230  34.1572340
  12.5513900  10.0859240  47.4760820  12.6605020   9.1453980  47.3356210
  11.8994460  10.3513990  46.8274550  20.5426490   8.3575130  48.8758940
  20.2223360   7.6384370  49.4204630  19.8684850   9.0330200  48.9495000
  18.5840660   9.2035580  33.8192090  18.5750760   9.9365270  33.2036600
  17.6639020   8.9567160  33.9119050  14.1847300   4.4250470  34.5638850
  13.5775250   5.1649370  34.5734150  14.6596650   4.5149830  33.7377050
  21.5700260   9.2663820  32.4817280  21.6712240   9.0627810  31.5519260
  20.6702000   9.0122100  32.6865060  20.2118370  11.7850140  37.1764950
  20.4659870  11.7471530  36.2544320  19.2630850  11.6583470  37.1693200
  26.2170950   2.7042020  38.7523460  25.2761090   2.7192250  38.9271150
  26.5315020   1.9177980  39.1983760  16.1952590   4.3861620  32.3127420
  16.9615860   4.2742980  32.8752850  16.2727280   3.6899590  31.6604190
  28.2196530   9.8750870  40.4277720  28.3443950  10.6982040  40.9001530
  29.0862090   9.6641600  40.0801870  15.6914060  11.9682080  40.0994850
  16.4276540  11.4197540  40.3703420  16.0754980  12.8338090  39.9600840
  12.5759540   8.0355650  35.9736360  11.6499320   8.2776790  35.9641770
  13.0415970   8.8629910  35.8521110  14.6972340  11.1528150  49.2880430
  15.4985070  11.4740200  49.7015830  14.1824160  10.7923730  50.0100340
  18.8016370  11.1412390  31.9220420  19.5944980  11.4301220  31.4702210
  18.2820720  10.7104560  31.2432900  23.5336970   7.2608020  49.2355840
  22.9275130   7.2839620  48.4951590  23.2291080   6.5291060  49.7723090
  24.9637340  10.9888310  47.8465250  25.9159090  10.9046330  47.7965490
  24.8165560  11.6530020  48.5199040  27.8546540  10.3682520  33.3457160
  27.5688050   9.9547660  32.5311340  27.6566090  11.2970230  33.2257680
  12.4170150   3.6401610  48.2316480  12.9209170   3.0608890  48.8032710
  11.6777570   3.9241840  48.7692850  19.3193770   6.3615800  31.7862770
  19.2144410   5.7468150  32.5124150  19.1517990   5.8381690  31.0025780
  19.4708090   5.0472600  47.7652000  18.7053760   5.6157600  47.6806670
  19.6524050   4.7548810  46.8720230  22.5596500   5.4235830  32.3904760
  22.0106600   5.8705130  33.0347500  23.1815760   4.9185080  32.9142430
  26.6131440   6.7777930  48.3227020  27.3540910   7.1153690  47.8194480
  25.8504120   6.9469990  47.7696790  18.2271620   4.3826750  34.2870060
  18.6488040   4.2166620  35.1301450  18.3522460   3.5726980  33.7925200
  20.7399260   3.4064360  31.5347160  21.2604920   2.6913380  31.1688310
  21.3867660   4.0450230  31.8347670  25.2877100   4.8292760  46.8582230
  25.7018120   4.9837840  47.7072650  24.3528100   4.9547980  47.0208010
  20.0492330   4.7813240  44.8278160  20.4680440   5.6245970  44.6554400
  19.1300960   4.9185280  44.5984940  22.3856230   2.5129420  46.2116000
  22.5052440   1.9170560  46.9510840  23.2450230   2.5499110  45.7917300
  24.7244130   3.0666610  44.7878510  24.1979350   3.5909230  44.1843650
  25.0675470   3.6994000  45.4188240  17.8999750  11.0866250  45.9435890
  17.3620840  11.8112310  45.6244590  18.1533710  10.6096590  45.1533230
  20.7561960  12.3217460  46.2022540  20.6820660  13.2252600  46.5094910
  19.8540800  12.0029360  46.1744610  21.3047290  11.4875970  33.8248900
  22.1998080  11.8260940  33.8467660  21.3364920  10.7655380  33.1973180
  14.9443450   6.8603020  32.0535900  15.3818320   7.4032690  32.7093480
  15.4291180   6.0349970  32.0632240  12.1589250   9.6492050  39.5056160
  12.4892260   8.7813110  39.2734800  12.5880250   9.8550570  40.3361120
  16.7551170   7.9801060  37.1658130  16.4546710   7.8566030  38.0662040
  16.6488660   7.1209650  36.7573860  12.6479460  10.5162640  42.2437790
  12.2110450  10.6963440  43.0761940  13.2157140  11.2737260  42.1019510
  28.2841640  10.0179640  46.5315100  27.6843630  10.0772200  45.7879020
  28.4135540   9.0784620  46.6611950  29.5243090   7.7597460  31.8684810
  28.6936050   7.8274110  32.3392040  29.7014920   8.6501580  31.5651670
  28.9799550   4.5044940  34.3719010  29.7418460   5.0741590  34.4778700
  28.9953920   3.9372140  35.1427320  12.4803890   3.0282870  38.6026670
  11.8252730   2.7594510  37.9586370  13.3181840   2.9187350  38.1528650
  29.9859520   5.3595040  39.2160940  30.3568350   4.5762360  38.8096910
  30.6261450   6.0484140  39.0378240  26.9693280   6.7431620  44.6291260
  26.1553120   7.1728780  44.8917050  27.3767480   7.3550030  44.0160310
  29.0318720   4.7979310  31.5291530  29.3067560   5.7058190  31.4010750
  28.8429460   4.7341840  32.4653520  28.9284060   2.7348300  36.5220960
  28.5527660   1.9676230  36.0902250  28.1987180   3.1171000  37.0095890
  13.5179820   3.4135440  43.1430010  13.8852860   3.3262840  44.0226030
  12.9490640   2.6501990  43.0436870  28.3183680   1.8819820  46.1560480
  28.0869770   1.6532570  45.2558430  28.5788230   2.8019370  46.1105370
  27.0269330  11.4950220  38.1559530  27.6228400  11.1734790  37.4793950
  27.2847480  11.0222040  38.9472800  14.9331900   7.9268130  48.3050160
  14.8901530   7.5561040  49.1864620  15.0642910   8.8645700  48.4451980
  18.6337930   9.4827720  43.9059880  18.3929290   9.7502280  43.0190400
  19.5740570   9.6533450  43.9610740  29.8942090  11.5022100  44.7070520
  29.4000370  11.8990970  43.9897650  29.2855380  10.8771310  45.1007800
  14.7719930  10.8730380  45.4247940  14.1780250  10.7415080  46.1637980
  14.7643770  10.0368520  44.9590040  27.5781540  12.1445520  41.9857260
  27.1184510  12.8961330  41.6115280  26.9494000  11.4251990  41.9272060
  14.4032160   8.2388760  44.3755980  13.6766220   7.6194050  44.3081930
  14.4641310   8.6329370  43.5054060  18.0077260  10.4533760  41.1605390
  18.5242280   9.8421120  40.6353650  18.6574640  10.9562540  41.6516400
  20.7472760  11.3442250  41.9874370  21.0350570  11.0896550  41.1107380
  21.2595980  10.7919610  42.5779940  12.6862160  11.5563150  37.5852740
  12.5184200  10.9233830  38.2834630  11.8196670  11.7622550  37.2346930
  14.2924860  10.2496380  35.0302880  13.7672480  10.6304410  34.3264840
  14.2169440  10.8747150  35.7512590  20.8145120  12.2658350  49.3542570
  21.7412430  12.0302620  49.3978530  20.7995550  13.0930350  48.8728600
  29.0490180  11.8083920  36.3516820  29.2242370  11.1221660  35.7077740
  28.3511750  12.3330970  35.9593490  16.8917830  12.1978760  33.9052130
  17.6236650  11.9138040  33.3576020  17.1511500  11.9592040  34.7951510
  16.0532620   8.3143490  33.9098460  15.4241500   8.7828590  34.4584290
  16.1680450   7.4692710  34.3444650  27.3822680  11.4928210  49.1783610
  28.1748000  10.9977440  48.9709570  27.6755830  12.1718350  49.7859220
  21.6400380   4.1428170  21.9408930  20.8642480   3.6628610  22.2307500
  22.2913310   3.4633820  21.7665090  15.6566210   4.4547980  22.8184690
  14.8251090   4.1996690  23.2181200  16.2647190   4.5258750  23.5542610
  25.6607810   8.5488360  20.7208060  25.1989340   7.7775600  21.0495230
  26.4733360   8.5754430  21.2260510  15.6367470   8.4888070  23.0142710
  15.9395510   7.5985810  22.8352930  16.3811060   9.0458290  22.7864960
  21.8871120  10.8346370  20.3412050  21.2682560  11.2903870  19.7706490
  22.7422900  10.9897830  19.9401750  21.0809370   6.8185360  21.9479090
  21.0117650   5.8775300  21.7868220  21.8429230   6.9086770  22.5201660
  22.7534470   5.7185610  17.7343960  22.1351740   6.1835060  17.1706680
  23.2657720   6.4113090  18.1513470  17.6166230   5.2461480  24.4127560
  17.2835610   5.8730400  25.0548630  17.7932910   5.7723360  23.6329230
  16.8285330   7.2142280  26.2276740  17.4459330   7.8893360  25.9461190
  15.9678450   7.6230260  26.1364240  12.1217670   6.4042140  15.1083590
  11.7445650   6.8929240  14.3768490  12.3790740   7.0767420  15.7390120
  27.7462920   8.6781690  24.1431380  27.0626440   9.3480800  24.1348050
  28.2857210   8.8762340  23.3776240  25.2821660  10.5225820  22.8576560
  25.2948820  10.1188110  21.9898820  24.7296880  11.2973110  22.7537990
  26.5767080   7.2442040  17.9466730  26.4663410   6.3016370  18.0716150
  26.5735330   7.6057680  18.8329490  24.6807100   5.4255660  24.1859170
  25.0975890   5.2115770  23.3512630  25.4046920   5.6828450  24.7567790
  22.1187360   2.8707360  17.3029220  21.1916640   2.8044740  17.5317690
  22.2712180   3.8087490  17.1884460  28.6269200   3.8242880  24.2775410
  27.7987830   3.8935970  23.8025540  29.2219680   4.4097190  23.8091240
  26.1484650   4.4327660  17.8064470  25.5297070   4.0947210  17.1590770
  26.1309100   3.7887420  18.5143660  17.7244000   3.3972100  20.0848950
  17.3201000   2.6849350  19.5894850  17.8107120   3.0525340  20.9736990
  18.1925700   7.0839660  22.2488160  17.8953990   6.4785130  21.5695940
  19.1425520   7.1216970  22.1377520  26.2811310  10.6571530  25.9111260
  25.8041870  11.4643720  25.7183870  25.5973100  10.0049860  26.0637470
  17.2844130   6.8221350  28.8995960  16.3872660   7.0461320  29.1469360
  17.3097000   6.9456290  27.9507360  24.3249350   3.6714470  14.8137220
  24.7642630   2.8336900  14.6675040  25.0377770   4.3043870  14.9001360
  16.1115350   3.6934670  27.4753330  15.9723120   4.5657470  27.8440730
  15.2296710   3.3507480  27.3301270  22.4344730   8.6110540  18.7818460
  22.8740640   9.3534870  18.3673850  22.3731620   8.8537110  19.7057420
  17.9095700   9.6356370  29.6838480  17.8811130  10.0399320  28.8166910
  17.7460670   8.7066730  29.5210080  29.8610520  10.4183470  30.9802650
  30.3370240  10.8966360  31.6591730  30.4817680  10.3500960  30.2548150
  12.0634000   5.4632220  23.3924240  12.1414420   5.5980990  22.4479960
  12.6775680   4.7548110  23.5852360  13.3081630   7.1632410  19.8030420
  12.9009710   7.3047000  18.9484020  14.1994640   6.8792570  19.6001630
  29.2643770   7.6096320  28.1402660  29.3906830   7.3708200  27.2219840
  29.3065150   6.7780860  28.6124740  23.1260510  11.3124320  26.7097470
  23.6405180  11.2232330  27.5119900  22.2829590  11.6584020  27.0025380
  25.1014910  11.5979660  16.1381470  24.9416050  11.3082600  17.0363300
  24.9361620  10.8219790  15.6026700  17.5803290  11.3778190  17.9153090
  17.4045770  10.4613730  17.7020890  16.7259030  11.7365480  18.1550890
  24.8041040   9.1067220  14.6979470  24.1106200   9.1044510  14.0381750
  25.5463900   8.6826540  14.2673640  24.3690970  10.7329930  18.7727960
  24.8247920   9.9519310  19.0866580  24.7083490  11.4436750  19.3169140
  12.1193520   6.5046390  25.9318700  12.2824560   6.0351750  25.1138070
  12.5845970   5.9969950  26.5967540  13.6932500   5.8797820  28.0914510
  13.3087290   5.2391490  28.6897470  14.0044690   6.5833940  28.6609240
  19.8429640   2.7274360  23.5723130  20.2099770   2.2532930  24.3184470
  19.6534700   3.6015930  23.9131470  17.6329010   1.7683000  25.8907340
  17.3286080   2.6474980  26.1157700  18.5875470   1.8282790  25.9264780
  16.1610800   5.9743990  16.4874190  15.3873060   5.4341610  16.3272910
  16.8905430   5.4550600  16.1491950  26.9198780   4.9709350  22.2800580
  27.6397900   5.4664640  21.8896690  26.7180600   4.2927240  21.6354450
  22.3017580   5.0418410  28.1669580  22.2354890   4.1214080  27.9127170
  21.6722720   5.1393850  28.8814220  16.2048200   5.6424370  20.1253000
  16.7226870   4.8392630  20.0709890  15.7532220   5.5803510  20.9669830
  21.0917700   6.9090650  15.3980300  21.4333400   7.6532880  14.9023620
  20.2630410   7.2221770  15.7605130  13.6892740   2.6085740  27.0378700
  13.3307680   3.2739590  27.6252040  13.3947300   1.7769290  27.4091320
  16.8905860   3.0669980  29.9218250  16.5906000   3.2127160  29.0246070
  17.6617100   2.5075270  29.8291640  22.2334310   7.8638980  27.9173380
  22.2478850   6.9319940  27.6992290  21.5259410   7.9498740  28.5563150
  27.3671380   2.0478800  14.1871990  27.2835100   2.4793020  13.3368430
  28.0865570   2.5077150  14.6198810  28.4445520   4.5046320  27.2641960
  27.7193710   5.0975100  27.0671350  28.9720980   4.4969860  26.4655330
  28.3958630   8.9021060  16.9154120  27.7534790   8.2476680  17.1897840
  28.0089290   9.3076150  16.1394790  23.9745110   6.2306490  20.7625810
  24.3268930   5.6334620  20.1027180  23.0907440   5.9050720  20.9334060
  20.0608390   6.9904180  18.1696220  20.7479520   7.5373390  18.5503810
  19.2740810   7.5344910  18.2045830  12.2000790   2.6077000  13.6613300
  13.0695640   2.8901800  13.9449220  11.7091110   3.4212870  13.5462110
  19.3635600   3.9950210  17.7821580  19.8198380   4.8055460  18.0081770
  19.0123810   3.6773350  18.6140070  21.6668210   9.5056550  25.0113880
  22.3110430   9.7115930  25.6887300  22.0297650   8.7444950  24.5584730
  22.9400290   7.5088900  23.7291330  23.5822520   6.8082060  23.8423500
  23.4649640   8.2887340  23.5488220  26.7856010   7.7937520  13.4530470
  26.5593590   7.0767960  14.0455110  26.3952210   7.5449960  12.6152220
  24.7137910   8.3083800  26.9327390  25.0494150   8.8950490  27.6105310
  23.7938250   8.1776510  27.1625180  12.5672040  11.8204380  14.2274930
  12.9269680  12.4193720  13.5732200  12.4264380  12.3664270  15.0009960
  26.3672260   5.7109460  15.1144630  26.0793960   6.1722150  15.9022510
  27.1624430   5.2507230  15.3828850  12.5513900  10.0859240  28.7017330
  12.6605020   9.1453980  28.5612720  11.8994460  10.3513990  28.0531060
  20.5426490   8.3575130  30.1015450  20.2223360   7.6384370  30.6461140
  19.8684850   9.0330200  30.1751510  18.5840660   9.2035580  15.0448600
  18.5750760   9.9365270  14.4293110  17.6639020   8.9567160  15.1375560
  14.1847300   4.4250470  15.7895360  13.5775250   5.1649370  15.7990660
  14.6596650   4.5149830  14.9633560  21.5700260   9.2663820  13.7073790
  21.6712240   9.0627810  12.7775770  20.6702000   9.0122100  13.9121570
  20.2118370  11.7850140  18.4021460  20.4659870  11.7471530  17.4800830
  19.2630850  11.6583470  18.3949710  26.2170950   2.7042020  19.9779970
  25.2761090   2.7192250  20.1527660  26.5315020   1.9177980  20.4240270
  16.1952590   4.3861620  13.5383930  16.9615860   4.2742980  14.1009360
  16.2727280   3.6899590  12.8860700  28.2196530   9.8750870  21.6534230
  28.3443950  10.6982040  22.1258040  29.0862090   9.6641600  21.3058380
  15.6914060  11.9682080  21.3251360  16.4276540  11.4197540  21.5959930
  16.0754980  12.8338090  21.1857350  12.5759540   8.0355650  17.1992870
  11.6499320   8.2776790  17.1898280  13.0415970   8.8629910  17.0777620
  14.6972340  11.1528150  30.5136940  15.4985070  11.4740200  30.9272340
  14.1824160  10.7923730  31.2356850  18.8016370  11.1412390  13.1476930
  19.5944980  11.4301220  12.6958720  18.2820720  10.7104560  12.4689410
  23.5336970   7.2608020  30.4612350  22.9275130   7.2839620  29.7208100
  23.2291080   6.5291060  30.9979600  24.9637340  10.9888310  29.0721760
  25.9159090  10.9046330  29.0222000  24.8165560  11.6530020  29.7455550
  27.8546540  10.3682520  14.5713670  27.5688050   9.9547660  13.7567850
  27.6566090  11.2970230  14.4514190  12.4170150   3.6401610  29.4572990
  12.9209170   3.0608890  30.0289220  11.6777570   3.9241840  29.9949360
  19.3193770   6.3615800  13.0119280  19.2144410   5.7468150  13.7380660
  19.1517990   5.8381690  12.2282290  19.4708090   5.0472600  28.9908510
  18.7053760   5.6157600  28.9063180  19.6524050   4.7548810  28.0976740
  22.5596500   5.4235830  13.6161270  22.0106600   5.8705130  14.2604010
  23.1815760   4.9185080  14.1398940  26.6131440   6.7777930  29.5483530
  27.3540910   7.1153690  29.0450990  25.8504120   6.9469990  28.9953300
  18.2271620   4.3826750  15.5126570  18.6488040   4.2166620  16.3557960
  18.3522460   3.5726980  15.0181710  20.7399260   3.4064360  12.7603670
  21.2604920   2.6913380  12.3944820  21.3867660   4.0450230  13.0604180
  25.2877100   4.8292760  28.0838740  25.7018120   4.9837840  28.9329160
  24.3528100   4.9547980  28.2464520  20.0492330   4.7813240  26.0534670
  20.4680440   5.6245970  25.8810910  19.1300960   4.9185280  25.8241450
  22.3856230   2.5129420  27.4372510  22.5052440   1.9170560  28.1767350
  23.2450230   2.5499110  27.0173810  24.7244130   3.0666610  26.0135020
  24.1979350   3.5909230  25.4100160  25.0675470   3.6994000  26.6444750
  17.8999750  11.0866250  27.1692400  17.3620840  11.8112310  26.8501100
  18.1533710  10.6096590  26.3789740  20.7561960  12.3217460  27.4279050
  20.6820660  13.2252600  27.7351420  19.8540800  12.0029360  27.4001120
  21.3047290  11.4875970  15.0505410  22.1998080  11.8260940  15.0724170
  21.3364920  10.7655380  14.4229690  14.9443450   6.8603020  13.2792410
  15.3818320   7.4032690  13.9349990  15.4291180   6.0349970  13.2888750
  12.1589250   9.6492050  20.7312670  12.4892260   8.7813110  20.4991310
  12.5880250   9.8550570  21.5617630  16.7551170   7.9801060  18.3914640
  16.4546710   7.8566030  19.2918550  16.6488660   7.1209650  17.9830370
  12.6479460  10.5162640  23.4694300  12.2110450  10.6963440  24.3018450
  13.2157140  11.2737260  23.3276020  28.2841640  10.0179640  27.7571610
  27.6843630  10.0772200  27.0135530  28.4135540   9.0784620  27.8868460
  29.5243090   7.7597460  13.0941320  28.6936050   7.8274110  13.5648550
  29.7014920   8.6501580  12.7908180  28.9799550   4.5044940  15.5975520
  29.7418460   5.0741590  15.7035210  28.9953920   3.9372140  16.3683830
  12.4803890   3.0282870  19.8283180  11.8252730   2.7594510  19.1842880
  13.3181840   2.9187350  19.3785160  29.9859520   5.3595040  20.4417450
  30.3568350   4.5762360  20.0353420  30.6261450   6.0484140  20.2634750
  26.9693280   6.7431620  25.8547770  26.1553120   7.1728780  26.1173560
  27.3767480   7.3550030  25.2416820  29.0318720   4.7979310  12.7548040
  29.3067560   5.7058190  12.6267260  28.8429460   4.7341840  13.6910030
  28.9284060   2.7348300  17.7477470  28.5527660   1.9676230  17.3158760
  28.1987180   3.1171000  18.2352400  13.5179820   3.4135440  24.3686520
  13.8852860   3.3262840  25.2482540  12.9490640   2.6501990  24.2693380
  28.3183680   1.8819820  27.3816990  28.0869770   1.6532570  26.4814940
  28.5788230   2.8019370  27.3361880  27.0269330  11.4950220  19.3816040
  27.6228400  11.1734790  18.7050460  27.2847480  11.0222040  20.1729310
  14.9331900   7.9268130  29.5306670  14.8901530   7.5561040  30.4121130
  15.0642910   8.8645700  29.6708490  18.6337930   9.4827720  25.1316390
  18.3929290   9.7502280  24.2446910  19.5740570   9.6533450  25.1867250
  29.8942090  11.5022100  25.9327030  29.4000370  11.8990970  25.2154160
  29.2855380  10.8771310  26.3264310  14.7719930  10.8730380  26.6504450
  14.1780250  10.7415080  27.3894490  14.7643770  10.0368520  26.1846550
  27.5781540  12.1445520  23.2113770  27.1184510  12.8961330  22.8371790
  26.9494000  11.4251990  23.1528570  14.4032160   8.2388760  25.6012490
  13.6766220   7.6194050  25.5338440  14.4641310   8.6329370  24.7310570
  18.0077260  10.4533760  22.3861900  18.5242280   9.8421120  21.8610160
  18.6574640  10.9562540  22.8772910  20.7472760  11.3442250  23.2130880
  21.0350570  11.0896550  22.3363890  21.2595980  10.7919610  23.8036450
  12.6862160  11.5563150  18.8109250  12.5184200  10.9233830  19.5091140
  11.8196670  11.7622550  18.4603440  14.2924860  10.2496380  16.2559390
  13.7672480  10.6304410  15.5521350  14.2169440  10.8747150  16.9769100
  20.8145120  12.2658350  30.5799080  21.7412430  12.0302620  30.6235040
  20.7995550  13.0930350  30.0985110  29.0490180  11.8083920  17.5773330
  29.2242370  11.1221660  16.9334250  28.3511750  12.3330970  17.1850000
  16.8917830  12.1978760  15.1308640  17.6236650  11.9138040  14.5832530
  17.1511500  11.9592040  16.0208020  16.0532620   8.3143490  15.1354970
  15.4241500   8.7828590  15.6840800  16.1680450   7.4692710  15.5701160
  27.3822680  11.4928210  30.4040120  28.1748000  10.9977440  30.1966080
  27.6755830  12.1718350  31.0115730  21.6400380   4.1428170   3.1665440
  20.8642480   3.6628610   3.4564010  22.2913310   3.4633820   2.9921600
  15.6566210   4.4547980   4.0441200  14.8251090   4.1996690   4.4437710
  16.2647190   4.5258750   4.7799120  25.6607810   8.5488360   1.9464570
  25.1989340   7.7775600   2.2751740  26.4733360   8.5754430   2.4517020
  15.6367470   8.4888070   4.2399220  15.9395510   7.5985810   4.0609440
  16.3811060   9.0458290   4.0121470  21.0809370   6.8185360   3.1735600
  21.0117650   5.8775300   3.0124730  21.8429230   6.9086770   3.7458170
  17.6166230   5.2461480   5.6384070  17.2835610   5.8730400   6.2805140
  17.7932910   5.7723360   4.8585740  16.8285330   7.2142280   7.4533250
  17.4459330   7.8893360   7.1717700  15.9678450   7.6230260   7.3620750
  27.7462920   8.6781690   5.3687890  27.0626440   9.3480800   5.3604560
  28.2857210   8.8762340   4.6032750  25.2821660  10.5225820   4.0833070
  25.2948820  10.1188110   3.2155330  24.7296880  11.2973110   3.9794500
  24.6807100   5.4255660   5.4115680  25.0975890   5.2115770   4.5769140
  25.4046920   5.6828450   5.9824300  28.6269200   3.8242880   5.5031920
  27.7987830   3.8935970   5.0282050  29.2219680   4.4097190   5.0347750
  18.1925700   7.0839660   3.4744670  17.8953990   6.4785130   2.7952450
  19.1425520   7.1216970   3.3634030  26.2811310  10.6571530   7.1367770
  25.8041870  11.4643720   6.9440380  25.5973100  10.0049860   7.2893980
  17.2844130   6.8221350  10.1252470  16.3872660   7.0461320  10.3725870
  17.3097000   6.9456290   9.1763870  16.1115350   3.6934670   8.7009840
  15.9723120   4.5657470   9.0697240  15.2296710   3.3507480   8.5557780
  17.9095700   9.6356370  10.9094990  17.8811130  10.0399320  10.0423420
  17.7460670   8.7066730  10.7466590  29.8610520  10.4183470  12.2059160
  30.3370240  10.8966360  12.8848240  30.4817680  10.3500960  11.4804660
  12.0634000   5.4632220   4.6180750  12.1414420   5.5980990   3.6736470
  12.6775680   4.7548110   4.8108870  29.2643770   7.6096320   9.3659170
  29.3906830   7.3708200   8.4476350  29.3065150   6.7780860   9.8381250
  23.1260510  11.3124320   7.9353980  23.6405180  11.2232330   8.7376410
  22.2829590  11.6584020   8.2281890  12.1193520   6.5046390   7.1575210
  12.2824560   6.0351750   6.3394580  12.5845970   5.9969950   7.8224050
  13.6932500   5.8797820   9.3171020  13.3087290   5.2391490   9.9153980
  14.0044690   6.5833940   9.8865750  19.8429640   2.7274360   4.7979640
  20.2099770   2.2532930   5.5440980  19.6534700   3.6015930   5.1387980
  17.6329010   1.7683000   7.1163850  17.3286080   2.6474980   7.3414210
  18.5875470   1.8282790   7.1521290  26.9198780   4.9709350   3.5057090
  27.6397900   5.4664640   3.1153200  26.7180600   4.2927240   2.8610960
  22.3017580   5.0418410   9.3926090  22.2354890   4.1214080   9.1383680
  21.6722720   5.1393850  10.1070730  13.6892740   2.6085740   8.2635210
  13.3307680   3.2739590   8.8508550  13.3947300   1.7769290   8.6347830
  16.8905860   3.0669980  11.1474760  16.5906000   3.2127160  10.2502580
  17.6617100   2.5075270  11.0548150  22.2334310   7.8638980   9.1429890
  22.2478850   6.9319940   8.9248800  21.5259410   7.9498740   9.7819660
  28.4445520   4.5046320   8.4898470  27.7193710   5.0975100   8.2927860
  28.9720980   4.4969860   7.6911840  21.6668210   9.5056550   6.2370390
  22.3110430   9.7115930   6.9143810  22.0297650   8.7444950   5.7841240
  22.9400290   7.5088900   4.9547840  23.5822520   6.8082060   5.0680010
  23.4649640   8.2887340   4.7744730  24.7137910   8.3083800   8.1583900
  25.0494150   8.8950490   8.8361820  23.7938250   8.1776510   8.3881690
  12.5513900  10.0859240   9.9273840  12.6605020   9.1453980   9.7869230
  11.8994460  10.3513990   9.2787570  20.5426490   8.3575130  11.3271960
  20.2223360   7.6384370  11.8717650  19.8684850   9.0330200  11.4008020
  28.2196530   9.8750870   2.8790740  28.3443950  10.6982040   3.3514550
  29.0862090   9.6641600   2.5314890  15.6914060  11.9682080   2.5507870
  16.4276540  11.4197540   2.8216440  16.0754980  12.8338090   2.4113860
  14.6972340  11.1528150  11.7393450  15.4985070  11.4740200  12.1528850
  14.1824160  10.7923730  12.4613360  23.5336970   7.2608020  11.6868860
  22.9275130   7.2839620  10.9464610  23.2291080   6.5291060  12.2236110
  24.9637340  10.9888310  10.2978270  25.9159090  10.9046330  10.2478510
  24.8165560  11.6530020  10.9712060  12.4170150   3.6401610  10.6829500
  12.9209170   3.0608890  11.2545730  11.6777570   3.9241840  11.2205870
  19.4708090   5.0472600  10.2165020  18.7053760   5.6157600  10.1319690
  19.6524050   4.7548810   9.3233250  26.6131440   6.7777930  10.7740040
  27.3540910   7.1153690  10.2707500  25.8504120   6.9469990  10.2209810
  25.2877100   4.8292760   9.3095250  25.7018120   4.9837840  10.1585670
  24.3528100   4.9547980   9.4721030  20.0492330   4.7813240   7.2791180
  20.4680440   5.6245970   7.1067420  19.1300960   4.9185280   7.0497960
  22.3856230   2.5129420   8.6629020  22.5052440   1.9170560   9.4023860
  23.2450230   2.5499110   8.2430320  24.7244130   3.0666610   7.2391530
  24.1979350   3.5909230   6.6356670  25.0675470   3.6994000   7.8701260
  17.8999750  11.0866250   8.3948910  17.3620840  11.8112310   8.0757610
  18.1533710  10.6096590   7.6046250  20.7561960  12.3217460   8.6535560
  20.6820660  13.2252600   8.9607930  19.8540800  12.0029360   8.6257630
  12.1589250   9.6492050   1.9569180  12.4892260   8.7813110   1.7247820
  12.5880250   9.8550570   2.7874140  12.6479460  10.5162640   4.6950810
  12.2110450  10.6963440   5.5274960  13.2157140  11.2737260   4.5532530
  28.2841640  10.0179640   8.9828120  27.6843630  10.0772200   8.2392040
  28.4135540   9.0784620   9.1124970  26.9693280   6.7431620   7.0804280
  26.1553120   7.1728780   7.3430070  27.3767480   7.3550030   6.4673330
  13.5179820   3.4135440   5.5943030  13.8852860   3.3262840   6.4739050
  12.9490640   2.6501990   5.4949890  28.3183680   1.8819820   8.6073500
  28.0869770   1.6532570   7.7071450  28.5788230   2.8019370   8.5618390
  14.9331900   7.9268130  10.7563180  14.8901530   7.5561040  11.6377640
  15.0642910   8.8645700  10.8965000  18.6337930   9.4827720   6.3572900
  18.3929290   9.7502280   5.4703420  19.5740570   9.6533450   6.4123760
  29.8942090  11.5022100   7.1583540  29.4000370  11.8990970   6.4410670
  29.2855380  10.8771310   7.5520820  14.7719930  10.8730380   7.8760960
  14.1780250  10.7415080   8.6151000  14.7643770  10.0368520   7.4103060
  27.5781540  12.1445520   4.4370280  27.1184510  12.8961330   4.0628300
  26.9494000  11.4251990   4.3785080  14.4032160   8.2388760   6.8269000
  13.6766220   7.6194050   6.7594950  14.4641310   8.6329370   5.9567080
  18.0077260  10.4533760   3.6118410  18.5242280   9.8421120   3.0866670
  18.6574640  10.9562540   4.1029420  20.7472760  11.3442250   4.4387390
  21.0350570  11.0896550   3.5620400  21.2595980  10.7919610   5.0292960
  20.8145120  12.2658350  11.8055590  21.7412430  12.0302620  11.8491550
  20.7995550  13.0930350  11.3241620  27.3822680  11.4928210  11.6296630
  28.1748000  10.9977440  11.4222590  27.6755830  12.1718350  12.2372240
   4.7338850 152.5597070 151.4804090   4.6532900 151.6451680 151.2095800
   4.3203270 153.0564140 150.7743800   2.8656890 154.3376090 153.3613360
   2.0898990 153.8576530 153.6511930   3.5169820 153.6581740 153.1869520
   3.3371050 149.8203660 153.5952450   3.7135870 148.9475540 153.4826120
   3.2390560 150.1562360 152.7042890   7.1195170 147.3154100 150.5280790
   7.9404790 146.8250670 150.5706270   7.1529250 147.9051760 151.2812630
   7.3556650 149.2554480 153.3008330   6.6512220 149.5439370 153.8811440
   7.7168810 150.0654590 152.9407890  10.4243570 148.7009270 153.6917540
   9.4768480 148.7348250 153.8232970  10.7493560 149.5148220 154.0766900
   3.3443870 153.0655280 148.7233650   2.4173150 152.9992660 148.9522120
   3.4968690 154.0035410 148.6088890   3.3312950 149.3372280 145.7200810
   2.3916620 149.4986240 145.8053270   3.6496210 150.0557960 145.1736800
   7.3741160 154.6275580 149.2268900   6.7553580 154.2895130 148.5795200
   7.3565610 153.9835340 149.9348090   5.5505860 153.8662390 146.2341650
   5.9899140 153.0284820 146.0879470   6.2634280 154.4991790 146.3205790
   9.1323000 145.1205200 144.5482690   8.8195660 145.2132030 145.4481760
   9.8935470 145.6986230 144.4980120   5.1380780 150.9597010 148.7155600
   4.5389670 151.6832810 148.5319220   5.6860390 150.8973790 147.9332050
   3.7445650 149.5960550 150.7458880   4.1375220 149.9132750 149.9327570
   4.1062500 148.7172430 150.8603400   3.6065230 146.5595230 147.8434400
   2.7929840 146.0608400 147.7679710   3.4127180 147.3993480 147.4270750
   6.3213620 150.9314880 146.1396560   7.2093240 151.2432110 145.9647900
   6.2918710 150.0587130 145.7477140   8.5927890 152.2426720 145.6076420
   8.5091610 152.6740940 144.7572860   9.3122080 152.7025070 146.0403240
   8.3498630 147.7406150 147.6944240   7.7211790 147.8451820 146.9802470
   7.8550550 147.9602930 148.4838120   4.3498090 146.7442760 150.5497910
   4.2265870 146.7628890 149.6007420   5.2982650 146.7921700 150.6696310
   7.4427460 152.8989940 151.3984400   6.5017600 152.9140170 151.5732090
   7.7571530 152.1125900 151.8444700   1.9655770 153.6012280 144.1808100
   2.4861430 152.8861300 143.8149250   2.6124170 154.2398150 144.4808610
   5.8275340 145.4616130 146.4076040   6.1077630 144.6184030 146.7635460
   5.0541070 145.6939240 146.9214790   6.6550840 148.0172080 145.4706100
   7.0735720 147.8303060 144.6302760   6.3486900 147.1651130 145.7809030
  10.1540570 152.9296220 149.1681900   9.7784170 152.1624150 148.7363190
   9.4243690 153.3118920 149.6556830   9.4291530 151.1553710 152.4689140
   9.9529010 150.6616360 151.8379310  10.0150950 151.2904070 153.2136710
   8.9191500 150.4127060 148.4081550   9.4150620 150.1797930 149.1930430
   8.7207570 149.5738900 147.9919190  10.3478660 149.0488010 150.9419230
  10.2377940 148.8944050 151.8801500  11.1086250 148.5208950 150.6994640
  11.2368930 146.8795930 144.1825370  12.1618240 146.7477110 143.9743660
  11.2144720 146.9588750 145.1361820  11.3107420 147.6506590 146.8082080
  10.5158920 147.5851710 147.3374990  11.5150700 148.5857230 146.7967430
   7.7427350 145.9803470 153.2580910   8.1835440 145.9248570 152.4102510
   7.4734940 146.8961480 153.3291090   9.6065920 145.6118710 151.2689730
   9.5454320 144.6679930 151.1220750  10.3857950 145.7198800 151.8143190
   5.5785480 144.3609570 151.9630920   6.1814850 144.9329780 152.4379440
   4.8378470 144.9249010 151.7404820   8.7220080 144.7631130 147.2371200
   8.9170710 145.6614580 147.5038630   7.9349950 144.5318210 147.7304150
   4.7338850 152.5597070 132.7060600   4.6532900 151.6451680 132.4352310
   4.3203270 153.0564140 132.0000310   2.8656890 154.3376090 134.5869870
   2.0898990 153.8576530 134.8768440   3.5169820 153.6581740 134.4126030
   3.3371050 149.8203660 134.8208960   3.7135870 148.9475540 134.7082630
   3.2390560 150.1562360 133.9299400   7.1195170 147.3154100 131.7537300
   7.9404790 146.8250670 131.7962780   7.1529250 147.9051760 132.5069140
  11.4094720 149.3320850 138.3180930  10.7046890 149.7202560 137.7996040
  11.6752640 150.0271140 138.9201860   7.3556650 149.2554480 134.5264840
   6.6512220 149.5439370 135.1067950   7.7168810 150.0654590 134.1664400
  10.4243570 148.7009270 134.9174050   9.4768480 148.7348250 135.0489480
  10.7493560 149.5148220 135.3023410   3.3443870 153.0655280 129.9490160
   2.4173150 152.9992660 130.1778630   3.4968690 154.0035410 129.8345400
   3.3312950 149.3372280 126.9457320   2.3916620 149.4986240 127.0309780
   3.6496210 150.0557960 126.3993310   9.8525710 154.0190800 136.9236350
   9.0244340 154.0883890 136.4486480  10.4476190 154.6045110 136.4552180
   7.3741160 154.6275580 130.4525410   6.7553580 154.2895130 129.8051710
   7.3565610 153.9835340 131.1604600   6.8167720 150.8060120 137.8691220
   6.4038900 151.6313830 138.1231210   6.0843670 150.2205160 137.6767580
   5.5505860 153.8662390 127.4598160   5.9899140 153.0284820 127.3135980
   6.2634280 154.4991790 127.5462300   9.1323000 145.1205200 125.7739200
   8.8195660 145.2132030 126.6738270   9.8935470 145.6986230 125.7236630
  10.3424290 149.8576700 141.7513340   9.7268560 150.3656370 141.2228800
  10.0220710 148.9575030 141.6939280   2.4038610 148.6968590 139.2175530
   1.9417980 148.9051610 140.0295470   2.0016720 147.8827940 138.9146200
   7.4043120 149.9177540 140.3472190   6.5536710 149.6183290 140.6681260
   7.2444910 150.1619550 139.4356010   4.4992830 151.4179290 142.4470980
   4.8246240 150.5843040 142.1073210   5.2873160 151.9407810 142.5949310
   5.1380780 150.9597010 129.9412110   4.5389670 151.6832810 129.7575730
   5.6860390 150.8973790 129.1588560   3.7445650 149.5960550 131.9715390
   4.1375220 149.9132750 131.1584080   4.1062500 148.7172430 132.0859910
   2.0537820 148.3467860 143.2312250   1.3636140 148.1540060 143.8658340
   2.7970120 148.6302500 143.7636550   4.3300790 152.1866300 136.0666170
   3.5981910 152.6953110 136.4156270   3.9325130 151.3696280 135.7654950
   4.7926700 147.6399980 135.4789110   4.8099440 148.0908630 136.3230960
   4.5442280 146.7405620 135.6922550   8.2197450 145.0532160 141.3175490
   8.5443220 144.3221820 141.8433470   8.2553960 144.7345800 140.4156480
   3.6065230 146.5595230 129.0690910   2.7929840 146.0608400 128.9936220
   3.4127180 147.3993480 128.6527260   6.3213620 150.9314880 127.3653070
   7.2093240 151.2432110 127.1904410   6.2918710 150.0587130 126.9733650
   8.5927890 152.2426720 126.8332930   8.5091610 152.6740940 125.9829370
   9.3122080 152.7025070 127.2659750   4.9836600 148.7849210 138.1113190
   5.3517420 147.9644420 138.4392760   4.1234800 148.8451100 138.5268840
   8.3498630 147.7406150 128.9200750   7.7211790 147.8451820 128.2058980
   7.8550550 147.9602930 129.7094630   1.9438590 151.4388800 138.3351160
   2.4423840 151.9134620 139.0003010   2.0861540 150.5152320 138.5421190
   4.3498090 146.7442760 131.7754420   4.2265870 146.7628890 130.8263930
   5.2982650 146.7921700 131.8952820   9.1505450 147.6556760 139.1779550
   8.6479050 148.3962160 139.5173360   9.9662110 148.0440760 138.8616340
   7.4427460 152.8989940 132.6240910   6.5017600 152.9140170 132.7988600
   7.7571530 152.1125900 133.0701210   1.9655770 153.6012280 125.4064610
   2.4861430 152.8861300 125.0405760   2.6124170 154.2398150 125.7065120
   6.9855780 152.3636840 142.7338830   7.5676550 151.6089160 142.6459310
   7.1617550 152.8944280 141.9570310   3.6112740 152.7077340 140.0833450
   3.7308950 152.1118480 140.8228290   4.4706740 152.7447030 139.6634750
   5.9500640 153.2614530 138.6595960   5.4235860 153.7857150 138.0561100
   6.2931980 153.8941920 139.2905690   5.1974940 148.8664500 141.5742290
   4.5090460 148.2046040 141.5092280   5.9180960 148.4202770 142.0190750
   5.8275340 145.4616130 127.6332550   6.1077630 144.6184030 127.9891970
   5.0541070 145.6939240 128.1471300   6.6550840 148.0172080 126.6962610
   7.0735720 147.8303060 125.8559270   6.3486900 147.1651130 127.0065540
  10.1540570 152.9296220 130.3938410   9.7784170 152.1624150 129.9619700
   9.4243690 153.3118920 130.8813340   9.5440190 152.0767740 140.0277930
   9.3126280 151.8480490 139.1275880   9.8044740 152.9967290 139.9822820
   7.9828260 147.3024170 142.8057630   8.8598440 147.3107570 143.1891630
   7.9949100 146.5655010 142.1949980   9.4291530 151.1553710 133.6945650
   9.9529010 150.6616360 133.0635820  10.0150950 151.2904070 134.4393220
   9.6081250 151.2393580 137.2165200   8.6583960 151.2057120 137.3310190
   9.7894260 152.1493690 136.9814970   8.9191500 150.4127060 129.6338060
   9.4150620 150.1797930 130.4186940   8.7207570 149.5738900 129.2175700
  10.3478660 149.0488010 132.1675740  10.2377940 148.8944050 133.1058010
  11.1086250 148.5208950 131.9251150   8.6944380 144.9882140 138.6258740
   9.3316600 145.6016280 138.9917930   8.8419270 145.0242800 137.6807970
  11.2368930 146.8795930 125.4081880  12.1618240 146.7477110 125.2000170
  11.2144720 146.9588750 126.3618330  11.3107420 147.6506590 128.0338590
  10.5158920 147.5851710 128.5631500  11.5150700 148.5857230 128.0223940
   2.0648860 146.1408330 141.5333840   2.0037750 146.7330160 142.2829250
   3.0049240 146.0334290 141.3884100   4.7023420 145.7978390 141.1726130
   5.3163830 146.1157680 140.5107210   5.2472980 145.3126980 141.7921990
   5.4431460 144.3610530 137.4995420   4.5691300 144.6945640 137.2968350
   5.3342210 143.8883710 138.3247290   6.3503440 146.5681400 138.8837140
   6.0216800 145.7533160 138.5038870   7.2985740 146.5251210 138.7602830
   3.1906280 145.2780370 136.4388330   2.4078070 145.7525870 136.7185090
   2.8969210 144.3735200 136.3301510   7.7427350 145.9803470 134.4837420
   8.1835440 145.9248570 133.6359020   7.4734940 146.8961480 134.5547600
   9.6065920 145.6118710 132.4946240   9.5454320 144.6679930 132.3477260
  10.3857950 145.7198800 133.0399700   5.5785480 144.3609570 133.1887430
   6.1814850 144.9329780 133.6635950   4.8378470 144.9249010 132.9661330
   8.7220080 144.7631130 128.4627710   8.9170710 145.6614580 128.7295140
   7.9349950 144.5318210 128.9560660   5.8280700 144.5404600 143.5682370
   5.7146150 144.8599210 144.4633890   6.6450440 144.9417110 143.2719650
   4.7338850 152.5597070 113.9317110   4.6532900 151.6451680 113.6608820
   4.3203270 153.0564140 113.2256820   2.8656890 154.3376090 115.8126380
   2.0898990 153.8576530 116.1024950   3.5169820 153.6581740 115.6382540
   3.3371050 149.8203660 116.0465470   3.7135870 148.9475540 115.9339140
   3.2390560 150.1562360 115.1555910   7.1195170 147.3154100 112.9793810
   7.9404790 146.8250670 113.0219290   7.1529250 147.9051760 113.7325650
  11.4094720 149.3320850 119.5437440  10.7046890 149.7202560 119.0252550
  11.6752640 150.0271140 120.1458370   7.3556650 149.2554480 115.7521350
   6.6512220 149.5439370 116.3324460   7.7168810 150.0654590 115.3920910
  10.4243570 148.7009270 116.1430560   9.4768480 148.7348250 116.2745990
  10.7493560 149.5148220 116.5279920   3.3443870 153.0655280 111.1746670
   2.4173150 152.9992660 111.4035140   3.4968690 154.0035410 111.0601910
   3.3312950 149.3372280 108.1713830   2.3916620 149.4986240 108.2566290
   3.6496210 150.0557960 107.6249820   9.8525710 154.0190800 118.1492860
   9.0244340 154.0883890 117.6742990  10.4476190 154.6045110 117.6808690
   7.3741160 154.6275580 111.6781920   6.7553580 154.2895130 111.0308220
   7.3565610 153.9835340 112.3861110   6.8167720 150.8060120 119.0947730
   6.4038900 151.6313830 119.3487720   6.0843670 150.2205160 118.9024090
   5.5505860 153.8662390 108.6854670   5.9899140 153.0284820 108.5392490
   6.2634280 154.4991790 108.7718810   9.1323000 145.1205200 106.9995710
   8.8195660 145.2132030 107.8994780   9.8935470 145.6986230 106.9493140
  10.3424290 149.8576700 122.9769850   9.7268560 150.3656370 122.4485310
  10.0220710 148.9575030 122.9195790   2.4038610 148.6968590 120.4432040
   1.9417980 148.9051610 121.2551980   2.0016720 147.8827940 120.1402710
   7.4043120 149.9177540 121.5728700   6.5536710 149.6183290 121.8937770
   7.2444910 150.1619550 120.6612520   4.4992830 151.4179290 123.6727490
   4.8246240 150.5843040 123.3329720   5.2873160 151.9407810 123.8205820
   5.1380780 150.9597010 111.1668620   4.5389670 151.6832810 110.9832240
   5.6860390 150.8973790 110.3845070   3.7445650 149.5960550 113.1971900
   4.1375220 149.9132750 112.3840590   4.1062500 148.7172430 113.3116420
   2.0537820 148.3467860 124.4568760   1.3636140 148.1540060 125.0914850
   2.7970120 148.6302500 124.9893060   4.3300790 152.1866300 117.2922680
   3.5981910 152.6953110 117.6412780   3.9325130 151.3696280 116.9911460
   4.7926700 147.6399980 116.7045620   4.8099440 148.0908630 117.5487470
   4.5442280 146.7405620 116.9179060   8.2197450 145.0532160 122.5432000
   8.5443220 144.3221820 123.0689980   8.2553960 144.7345800 121.6412990
   3.6065230 146.5595230 110.2947420   2.7929840 146.0608400 110.2192730
   3.4127180 147.3993480 109.8783770   6.3213620 150.9314880 108.5909580
   7.2093240 151.2432110 108.4160920   6.2918710 150.0587130 108.1990160
   8.5927890 152.2426720 108.0589440   8.5091610 152.6740940 107.2085880
   9.3122080 152.7025070 108.4916260   4.9836600 148.7849210 119.3369700
   5.3517420 147.9644420 119.6649270   4.1234800 148.8451100 119.7525350
   8.3498630 147.7406150 110.1457260   7.7211790 147.8451820 109.4315490
   7.8550550 147.9602930 110.9351140   1.9438590 151.4388800 119.5607670
   2.4423840 151.9134620 120.2259520   2.0861540 150.5152320 119.7677700
   4.3498090 146.7442760 113.0010930   4.2265870 146.7628890 112.0520440
   5.2982650 146.7921700 113.1209330   9.1505450 147.6556760 120.4036060
   8.6479050 148.3962160 120.7429870   9.9662110 148.0440760 120.0872850
   7.4427460 152.8989940 113.8497420   6.5017600 152.9140170 114.0245110
   7.7571530 152.1125900 114.2957720   1.9655770 153.6012280 106.6321120
   2.4861430 152.8861300 106.2662270   2.6124170 154.2398150 106.9321630
   6.9855780 152.3636840 123.9595340   7.5676550 151.6089160 123.8715820
   7.1617550 152.8944280 123.1826820   3.6112740 152.7077340 121.3089960
   3.7308950 152.1118480 122.0484800   4.4706740 152.7447030 120.8891260
   5.9500640 153.2614530 119.8852470   5.4235860 153.7857150 119.2817610
   6.2931980 153.8941920 120.5162200   5.1974940 148.8664500 122.7998800
   4.5090460 148.2046040 122.7348790   5.9180960 148.4202770 123.2447260
   5.8275340 145.4616130 108.8589060   6.1077630 144.6184030 109.2148480
   5.0541070 145.6939240 109.3727810   6.6550840 148.0172080 107.9219120
   7.0735720 147.8303060 107.0815780   6.3486900 147.1651130 108.2322050
  10.1540570 152.9296220 111.6194920   9.7784170 152.1624150 111.1876210
   9.4243690 153.3118920 112.1069850   9.5440190 152.0767740 121.2534440
   9.3126280 151.8480490 120.3532390   9.8044740 152.9967290 121.2079330
   7.9828260 147.3024170 124.0314140   8.8598440 147.3107570 124.4148140
   7.9949100 146.5655010 123.4206490   9.4291530 151.1553710 114.9202160
   9.9529010 150.6616360 114.2892330  10.0150950 151.2904070 115.6649730
   9.6081250 151.2393580 118.4421710   8.6583960 151.2057120 118.5566700
   9.7894260 152.1493690 118.2071480   8.9191500 150.4127060 110.8594570
   9.4150620 150.1797930 111.6443450   8.7207570 149.5738900 110.4432210
  10.3478660 149.0488010 113.3932250  10.2377940 148.8944050 114.3314520
  11.1086250 148.5208950 113.1507660   8.6944380 144.9882140 119.8515250
   9.3316600 145.6016280 120.2174440   8.8419270 145.0242800 118.9064480
  11.2368930 146.8795930 106.6338390  12.1618240 146.7477110 106.4256680
  11.2144720 146.9588750 107.5874840  11.3107420 147.6506590 109.2595100
  10.5158920 147.5851710 109.7888010  11.5150700 148.5857230 109.2480450
   2.0648860 146.1408330 122.7590350   2.0037750 146.7330160 123.5085760
   3.0049240 146.0334290 122.6140610   4.7023420 145.7978390 122.3982640
   5.3163830 146.1157680 121.7363720   5.2472980 145.3126980 123.0178500
   5.4431460 144.3610530 118.7251930   4.5691300 144.6945640 118.5224860
   5.3342210 143.8883710 119.5503800   6.3503440 146.5681400 120.1093650
   6.0216800 145.7533160 119.7295380   7.2985740 146.5251210 119.9859340
   3.1906280 145.2780370 117.6644840   2.4078070 145.7525870 117.9441600
   2.8969210 144.3735200 117.5558020   7.7427350 145.9803470 115.7093930
   8.1835440 145.9248570 114.8615530   7.4734940 146.8961480 115.7804110
   9.6065920 145.6118710 113.7202750   9.5454320 144.6679930 113.5733770
  10.3857950 145.7198800 114.2656210   5.5785480 144.3609570 114.4143940
   6.1814850 144.9329780 114.8892460   4.8378470 144.9249010 114.1917840
   8.7220080 144.7631130 109.6884220   8.9170710 145.6614580 109.9551650
   7.9349950 144.5318210 110.1817170   5.8280700 144.5404600 124.7938880
   5.7146150 144.8599210 125.6890400   6.6450440 144.9417110 124.4976160
   4.7338850 152.5597070  95.1573620   4.6532900 151.6451680  94.8865330
   4.3203270 153.0564140  94.4513330   2.8656890 154.3376090  97.0382890
   2.0898990 153.8576530  97.3281460   3.5169820 153.6581740  96.8639050
   3.3371050 149.8203660  97.2721980   3.7135870 148.9475540  97.1595650
   3.2390560 150.1562360  96.3812420   7.1195170 147.3154100  94.2050320
   7.9404790 146.8250670  94.2475800   7.1529250 147.9051760  94.9582160
  11.4094720 149.3320850 100.7693950  10.7046890 149.7202560 100.2509060
  11.6752640 150.0271140 101.3714880   7.3556650 149.2554480  96.9777860
   6.6512220 149.5439370  97.5580970   7.7168810 150.0654590  96.6177420
  10.4243570 148.7009270  97.3687070   9.4768480 148.7348250  97.5002500
  10.7493560 149.5148220  97.7536430   3.3443870 153.0655280  92.4003180
   2.4173150 152.9992660  92.6291650   3.4968690 154.0035410  92.2858420
   3.3312950 149.3372280  89.3970340   2.3916620 149.4986240  89.4822800
   3.6496210 150.0557960  88.8506330   9.8525710 154.0190800  99.3749370
   9.0244340 154.0883890  98.8999500  10.4476190 154.6045110  98.9065200
   7.3741160 154.6275580  92.9038430   6.7553580 154.2895130  92.2564730
   7.3565610 153.9835340  93.6117620   6.8167720 150.8060120 100.3204240
   6.4038900 151.6313830 100.5744230   6.0843670 150.2205160 100.1280600
   5.5505860 153.8662390  89.9111180   5.9899140 153.0284820  89.7649000
   6.2634280 154.4991790  89.9975320   9.1323000 145.1205200  88.2252220
   8.8195660 145.2132030  89.1251290   9.8935470 145.6986230  88.1749650
  10.3424290 149.8576700 104.2026360   9.7268560 150.3656370 103.6741820
  10.0220710 148.9575030 104.1452300   2.4038610 148.6968590 101.6688550
   1.9417980 148.9051610 102.4808490   2.0016720 147.8827940 101.3659220
   7.4043120 149.9177540 102.7985210   6.5536710 149.6183290 103.1194280
   7.2444910 150.1619550 101.8869030   4.4992830 151.4179290 104.8984000
   4.8246240 150.5843040 104.5586230   5.2873160 151.9407810 105.0462330
   5.1380780 150.9597010  92.3925130   4.5389670 151.6832810  92.2088750
   5.6860390 150.8973790  91.6101580   3.7445650 149.5960550  94.4228410
   4.1375220 149.9132750  93.6097100   4.1062500 148.7172430  94.5372930
   2.0537820 148.3467860 105.6825270   1.3636140 148.1540060 106.3171360
   2.7970120 148.6302500 106.2149570   4.3300790 152.1866300  98.5179190
   3.5981910 152.6953110  98.8669290   3.9325130 151.3696280  98.2167970
   4.7926700 147.6399980  97.9302130   4.8099440 148.0908630  98.7743980
   4.5442280 146.7405620  98.1435570   8.2197450 145.0532160 103.7688510
   8.5443220 144.3221820 104.2946490   8.2553960 144.7345800 102.8669500
   3.6065230 146.5595230  91.5203930   2.7929840 146.0608400  91.4449240
   3.4127180 147.3993480  91.1040280   6.3213620 150.9314880  89.8166090
   7.2093240 151.2432110  89.6417430   6.2918710 150.0587130  89.4246670
   8.5927890 152.2426720  89.2845950   8.5091610 152.6740940  88.4342390
   9.3122080 152.7025070  89.7172770   4.9836600 148.7849210 100.5626210
   5.3517420 147.9644420 100.8905780   4.1234800 148.8451100 100.9781860
   8.3498630 147.7406150  91.3713770   7.7211790 147.8451820  90.6572000
   7.8550550 147.9602930  92.1607650   1.9438590 151.4388800 100.7864180
   2.4423840 151.9134620 101.4516030   2.0861540 150.5152320 100.9934210
   4.3498090 146.7442760  94.2267440   4.2265870 146.7628890  93.2776950
   5.2982650 146.7921700  94.3465840   9.1505450 147.6556760 101.6292570
   8.6479050 148.3962160 101.9686380   9.9662110 148.0440760 101.3129360
   7.4427460 152.8989940  95.0753930   6.5017600 152.9140170  95.2501620
   7.7571530 152.1125900  95.5214230   1.9655770 153.6012280  87.8577630
   2.4861430 152.8861300  87.4918780   2.6124170 154.2398150  88.1578140
   6.9855780 152.3636840 105.1851850   7.5676550 151.6089160 105.0972330
   7.1617550 152.8944280 104.4083330   3.6112740 152.7077340 102.5346470
   3.7308950 152.1118480 103.2741310   4.4706740 152.7447030 102.1147770
   5.9500640 153.2614530 101.1108980   5.4235860 153.7857150 100.5074120
   6.2931980 153.8941920 101.7418710   5.1974940 148.8664500 104.0255310
   4.5090460 148.2046040 103.9605300   5.9180960 148.4202770 104.4703770
   5.8275340 145.4616130  90.0845570   6.1077630 144.6184030  90.4404990
   5.0541070 145.6939240  90.5984320   6.6550840 148.0172080  89.1475630
   7.0735720 147.8303060  88.3072290   6.3486900 147.1651130  89.4578560
  10.1540570 152.9296220  92.8451430   9.7784170 152.1624150  92.4132720
   9.4243690 153.3118920  93.3326360   9.5440190 152.0767740 102.4790950
   9.3126280 151.8480490 101.5788900   9.8044740 152.9967290 102.4335840
   7.9828260 147.3024170 105.2570650   8.8598440 147.3107570 105.6404650
   7.9949100 146.5655010 104.6463000   9.4291530 151.1553710  96.1458670
   9.9529010 150.6616360  95.5148840  10.0150950 151.2904070  96.8906240
   9.6081250 151.2393580  99.6678220   8.6583960 151.2057120  99.7823210
   9.7894260 152.1493690  99.4327990   8.9191500 150.4127060  92.0851080
   9.4150620 150.1797930  92.8699960   8.7207570 149.5738900  91.6688720
  10.3478660 149.0488010  94.6188760  10.2377940 148.8944050  95.5571030
  11.1086250 148.5208950  94.3764170   8.6944380 144.9882140 101.0771760
   9.3316600 145.6016280 101.4430950   8.8419270 145.0242800 100.1320990
  11.2368930 146.8795930  87.8594900  12.1618240 146.7477110  87.6513190
  11.2144720 146.9588750  88.8131350  11.3107420 147.6506590  90.4851610
  10.5158920 147.5851710  91.0144520  11.5150700 148.5857230  90.4736960
   2.0648860 146.1408330 103.9846860   2.0037750 146.7330160 104.7342270
   3.0049240 146.0334290 103.8397120   4.7023420 145.7978390 103.6239150
   5.3163830 146.1157680 102.9620230   5.2472980 145.3126980 104.2435010
   5.4431460 144.3610530  99.9508440   4.5691300 144.6945640  99.7481370
   5.3342210 143.8883710 100.7760310   6.3503440 146.5681400 101.3350160
   6.0216800 145.7533160 100.9551890   7.2985740 146.5251210 101.2115850
   3.1906280 145.2780370  98.8901350   2.4078070 145.7525870  99.1698110
   2.8969210 144.3735200  98.7814530   7.7427350 145.9803470  96.9350440
   8.1835440 145.9248570  96.0872040   7.4734940 146.8961480  97.0060620
   9.6065920 145.6118710  94.9459260   9.5454320 144.6679930  94.7990280
  10.3857950 145.7198800  95.4912720   5.5785480 144.3609570  95.6400450
   6.1814850 144.9329780  96.1148970   4.8378470 144.9249010  95.4174350
   8.7220080 144.7631130  90.9140730   8.9170710 145.6614580  91.1808160
   7.9349950 144.5318210  91.4073680   5.8280700 144.5404600 106.0195390
   5.7146150 144.8599210 106.9146910   6.6450440 144.9417110 105.7232670
   4.7338850 152.5597070  76.3830130   4.6532900 151.6451680  76.1121840
   4.3203270 153.0564140  75.6769840   2.8656890 154.3376090  78.2639400
   2.0898990 153.8576530  78.5537970   3.5169820 153.6581740  78.0895560
   3.3371050 149.8203660  78.4978490   3.7135870 148.9475540  78.3852160
   3.2390560 150.1562360  77.6068930   7.1195170 147.3154100  75.4306830
   7.9404790 146.8250670  75.4732310   7.1529250 147.9051760  76.1838670
  11.4094720 149.3320850  81.9950460  10.7046890 149.7202560  81.4765570
  11.6752640 150.0271140  82.5971390   7.3556650 149.2554480  78.2034370
   6.6512220 149.5439370  78.7837480   7.7168810 150.0654590  77.8433930
  10.4243570 148.7009270  78.5943580   9.4768480 148.7348250  78.7259010
  10.7493560 149.5148220  78.9792940   3.3443870 153.0655280  73.6259690
   2.4173150 152.9992660  73.8548160   3.4968690 154.0035410  73.5114930
   3.3312950 149.3372280  70.6226850   2.3916620 149.4986240  70.7079310
   3.6496210 150.0557960  70.0762840   9.8525710 154.0190800  80.6005880
   9.0244340 154.0883890  80.1256010  10.4476190 154.6045110  80.1321710
   7.3741160 154.6275580  74.1294940   6.7553580 154.2895130  73.4821240
   7.3565610 153.9835340  74.8374130   6.8167720 150.8060120  81.5460750
   6.4038900 151.6313830  81.8000740   6.0843670 150.2205160  81.3537110
   5.5505860 153.8662390  71.1367690   5.9899140 153.0284820  70.9905510
   6.2634280 154.4991790  71.2231830   9.1323000 145.1205200  69.4508730
   8.8195660 145.2132030  70.3507800   9.8935470 145.6986230  69.4006160
  10.3424290 149.8576700  85.4282870   9.7268560 150.3656370  84.8998330
  10.0220710 148.9575030  85.3708810   2.4038610 148.6968590  82.8945060
   1.9417980 148.9051610  83.7065000   2.0016720 147.8827940  82.5915730
   7.4043120 149.9177540  84.0241720   6.5536710 149.6183290  84.3450790
   7.2444910 150.1619550  83.1125540   4.4992830 151.4179290  86.1240510
   4.8246240 150.5843040  85.7842740   5.2873160 151.9407810  86.2718840
   5.1380780 150.9597010  73.6181640   4.5389670 151.6832810  73.4345260
   5.6860390 150.8973790  72.8358090   3.7445650 149.5960550  75.6484920
   4.1375220 149.9132750  74.8353610   4.1062500 148.7172430  75.7629440
   2.0537820 148.3467860  86.9081780   1.3636140 148.1540060  87.5427870
   2.7970120 148.6302500  87.4406080   4.3300790 152.1866300  79.7435700
   3.5981910 152.6953110  80.0925800   3.9325130 151.3696280  79.4424480
   4.7926700 147.6399980  79.1558640   4.8099440 148.0908630  80.0000490
   4.5442280 146.7405620  79.3692080   8.2197450 145.0532160  84.9945020
   8.5443220 144.3221820  85.5203000   8.2553960 144.7345800  84.0926010
   3.6065230 146.5595230  72.7460440   2.7929840 146.0608400  72.6705750
   3.4127180 147.3993480  72.3296790   6.3213620 150.9314880  71.0422600
   7.2093240 151.2432110  70.8673940   6.2918710 150.0587130  70.6503180
   8.5927890 152.2426720  70.5102460   8.5091610 152.6740940  69.6598900
   9.3122080 152.7025070  70.9429280   4.9836600 148.7849210  81.7882720
   5.3517420 147.9644420  82.1162290   4.1234800 148.8451100  82.2038370
   8.3498630 147.7406150  72.5970280   7.7211790 147.8451820  71.8828510
   7.8550550 147.9602930  73.3864160   1.9438590 151.4388800  82.0120690
   2.4423840 151.9134620  82.6772540   2.0861540 150.5152320  82.2190720
   4.3498090 146.7442760  75.4523950   4.2265870 146.7628890  74.5033460
   5.2982650 146.7921700  75.5722350   9.1505450 147.6556760  82.8549080
   8.6479050 148.3962160  83.1942890   9.9662110 148.0440760  82.5385870
   7.4427460 152.8989940  76.3010440   6.5017600 152.9140170  76.4758130
   7.7571530 152.1125900  76.7470740   1.9655770 153.6012280  69.0834140
   2.4861430 152.8861300  68.7175290   2.6124170 154.2398150  69.3834650
   6.9855780 152.3636840  86.4108360   7.5676550 151.6089160  86.3228840
   7.1617550 152.8944280  85.6339840   3.6112740 152.7077340  83.7602980
   3.7308950 152.1118480  84.4997820   4.4706740 152.7447030  83.3404280
   5.9500640 153.2614530  82.3365490   5.4235860 153.7857150  81.7330630
   6.2931980 153.8941920  82.9675220   5.1974940 148.8664500  85.2511820
   4.5090460 148.2046040  85.1861810   5.9180960 148.4202770  85.6960280
   5.8275340 145.4616130  71.3102080   6.1077630 144.6184030  71.6661500
   5.0541070 145.6939240  71.8240830   6.6550840 148.0172080  70.3732140
   7.0735720 147.8303060  69.5328800   6.3486900 147.1651130  70.6835070
  10.1540570 152.9296220  74.0707940   9.7784170 152.1624150  73.6389230
   9.4243690 153.3118920  74.5582870   9.5440190 152.0767740  83.7047460
   9.3126280 151.8480490  82.8045410   9.8044740 152.9967290  83.6592350
   7.9828260 147.3024170  86.4827160   8.8598440 147.3107570  86.8661160
   7.9949100 146.5655010  85.8719510   9.4291530 151.1553710  77.3715180
   9.9529010 150.6616360  76.7405350  10.0150950 151.2904070  78.1162750
   9.6081250 151.2393580  80.8934730   8.6583960 151.2057120  81.0079720
   9.7894260 152.1493690  80.6584500   8.9191500 150.4127060  73.3107590
   9.4150620 150.1797930  74.0956470   8.7207570 149.5738900  72.8945230
  10.3478660 149.0488010  75.8445270  10.2377940 148.8944050  76.7827540
  11.1086250 148.5208950  75.6020680   8.6944380 144.9882140  82.3028270
   9.3316600 145.6016280  82.6687460   8.8419270 145.0242800  81.3577500
  11.2368930 146.8795930  69.0851410  12.1618240 146.7477110  68.8769700
  11.2144720 146.9588750  70.0387860  11.3107420 147.6506590  71.7108120
  10.5158920 147.5851710  72.2401030  11.5150700 148.5857230  71.6993470
   2.0648860 146.1408330  85.2103370   2.0037750 146.7330160  85.9598780
   3.0049240 146.0334290  85.0653630   4.7023420 145.7978390  84.8495660
   5.3163830 146.1157680  84.1876740   5.2472980 145.3126980  85.4691520
   5.4431460 144.3610530  81.1764950   4.5691300 144.6945640  80.9737880
   5.3342210 143.8883710  82.0016820   6.3503440 146.5681400  82.5606670
   6.0216800 145.7533160  82.1808400   7.2985740 146.5251210  82.4372360
   3.1906280 145.2780370  80.1157860   2.4078070 145.7525870  80.3954620
   2.8969210 144.3735200  80.0071040   7.7427350 145.9803470  78.1606950
   8.1835440 145.9248570  77.3128550   7.4734940 146.8961480  78.2317130
   9.6065920 145.6118710  76.1715770   9.5454320 144.6679930  76.0246790
  10.3857950 145.7198800  76.7169230   5.5785480 144.3609570  76.8656960
   6.1814850 144.9329780  77.3405480   4.8378470 144.9249010  76.6430860
   8.7220080 144.7631130  72.1397240   8.9170710 145.6614580  72.4064670
   7.9349950 144.5318210  72.6330190   5.8280700 144.5404600  87.2451900
   5.7146150 144.8599210  88.1403420   6.6450440 144.9417110  86.9489180
   4.7338850 152.5597070  57.6086640   4.6532900 151.6451680  57.3378350
   4.3203270 153.0564140  56.9026350   2.8656890 154.3376090  59.4895910
   2.0898990 153.8576530  59.7794480   3.5169820 153.6581740  59.3152070
   3.3371050 149.8203660  59.7235000   3.7135870 148.9475540  59.6108670
   3.2390560 150.1562360  58.8325440   7.1195170 147.3154100  56.6563340
   7.9404790 146.8250670  56.6988820   7.1529250 147.9051760  57.4095180
  11.4094720 149.3320850  63.2206970  10.7046890 149.7202560  62.7022080
  11.6752640 150.0271140  63.8227900   7.3556650 149.2554480  59.4290880
   6.6512220 149.5439370  60.0093990   7.7168810 150.0654590  59.0690440
  10.4243570 148.7009270  59.8200090   9.4768480 148.7348250  59.9515520
  10.7493560 149.5148220  60.2049450   3.3443870 153.0655280  54.8516200
   2.4173150 152.9992660  55.0804670   3.4968690 154.0035410  54.7371440
   3.3312950 149.3372280  51.8483360   2.3916620 149.4986240  51.9335820
   3.6496210 150.0557960  51.3019350   9.8525710 154.0190800  61.8262390
   9.0244340 154.0883890  61.3512520  10.4476190 154.6045110  61.3578220
   7.3741160 154.6275580  55.3551450   6.7553580 154.2895130  54.7077750
   7.3565610 153.9835340  56.0630640   6.8167720 150.8060120  62.7717260
   6.4038900 151.6313830  63.0257250   6.0843670 150.2205160  62.5793620
   5.5505860 153.8662390  52.3624200   5.9899140 153.0284820  52.2162020
   6.2634280 154.4991790  52.4488340   9.1323000 145.1205200  50.6765240
   8.8195660 145.2132030  51.5764310   9.8935470 145.6986230  50.6262670
  10.3424290 149.8576700  66.6539380   9.7268560 150.3656370  66.1254840
  10.0220710 148.9575030  66.5965320   2.4038610 148.6968590  64.1201570
   1.9417980 148.9051610  64.9321510   2.0016720 147.8827940  63.8172240
   7.4043120 149.9177540  65.2498230   6.5536710 149.6183290  65.5707300
   7.2444910 150.1619550  64.3382050   4.4992830 151.4179290  67.3497020
   4.8246240 150.5843040  67.0099250   5.2873160 151.9407810  67.4975350
   5.1380780 150.9597010  54.8438150   4.5389670 151.6832810  54.6601770
   5.6860390 150.8973790  54.0614600   3.7445650 149.5960550  56.8741430
   4.1375220 149.9132750  56.0610120   4.1062500 148.7172430  56.9885950
   2.0537820 148.3467860  68.1338290   1.3636140 148.1540060  68.7684380
   2.7970120 148.6302500  68.6662590   4.3300790 152.1866300  60.9692210
   3.5981910 152.6953110  61.3182310   3.9325130 151.3696280  60.6680990
   4.7926700 147.6399980  60.3815150   4.8099440 148.0908630  61.2257000
   4.5442280 146.7405620  60.5948590   8.2197450 145.0532160  66.2201530
   8.5443220 144.3221820  66.7459510   8.2553960 144.7345800  65.3182520
   3.6065230 146.5595230  53.9716950   2.7929840 146.0608400  53.8962260
   3.4127180 147.3993480  53.5553300   6.3213620 150.9314880  52.2679110
   7.2093240 151.2432110  52.0930450   6.2918710 150.0587130  51.8759690
   8.5927890 152.2426720  51.7358970   8.5091610 152.6740940  50.8855410
   9.3122080 152.7025070  52.1685790   4.9836600 148.7849210  63.0139230
   5.3517420 147.9644420  63.3418800   4.1234800 148.8451100  63.4294880
   8.3498630 147.7406150  53.8226790   7.7211790 147.8451820  53.1085020
   7.8550550 147.9602930  54.6120670   1.9438590 151.4388800  63.2377200
   2.4423840 151.9134620  63.9029050   2.0861540 150.5152320  63.4447230
   4.3498090 146.7442760  56.6780460   4.2265870 146.7628890  55.7289970
   5.2982650 146.7921700  56.7978860   9.1505450 147.6556760  64.0805590
   8.6479050 148.3962160  64.4199400   9.9662110 148.0440760  63.7642380
   7.4427460 152.8989940  57.5266950   6.5017600 152.9140170  57.7014640
   7.7571530 152.1125900  57.9727250   1.9655770 153.6012280  50.3090650
   2.4861430 152.8861300  49.9431800   2.6124170 154.2398150  50.6091160
   6.9855780 152.3636840  67.6364870   7.5676550 151.6089160  67.5485350
   7.1617550 152.8944280  66.8596350   3.6112740 152.7077340  64.9859490
   3.7308950 152.1118480  65.7254330   4.4706740 152.7447030  64.5660790
   5.9500640 153.2614530  63.5622000   5.4235860 153.7857150  62.9587140
   6.2931980 153.8941920  64.1931730   5.1974940 148.8664500  66.4768330
   4.5090460 148.2046040  66.4118320   5.9180960 148.4202770  66.9216790
   5.8275340 145.4616130  52.5358590   6.1077630 144.6184030  52.8918010
   5.0541070 145.6939240  53.0497340   6.6550840 148.0172080  51.5988650
   7.0735720 147.8303060  50.7585310   6.3486900 147.1651130  51.9091580
  10.1540570 152.9296220  55.2964450   9.7784170 152.1624150  54.8645740
   9.4243690 153.3118920  55.7839380   9.5440190 152.0767740  64.9303970
   9.3126280 151.8480490  64.0301920   9.8044740 152.9967290  64.8848860
   7.9828260 147.3024170  67.7083670   8.8598440 147.3107570  68.0917670
   7.9949100 146.5655010  67.0976020   9.4291530 151.1553710  58.5971690
   9.9529010 150.6616360  57.9661860  10.0150950 151.2904070  59.3419260
   9.6081250 151.2393580  62.1191240   8.6583960 151.2057120  62.2336230
   9.7894260 152.1493690  61.8841010   8.9191500 150.4127060  54.5364100
   9.4150620 150.1797930  55.3212980   8.7207570 149.5738900  54.1201740
  10.3478660 149.0488010  57.0701780  10.2377940 148.8944050  58.0084050
  11.1086250 148.5208950  56.8277190   8.6944380 144.9882140  63.5284780
   9.3316600 145.6016280  63.8943970   8.8419270 145.0242800  62.5834010
  11.2368930 146.8795930  50.3107920  12.1618240 146.7477110  50.1026210
  11.2144720 146.9588750  51.2644370  11.3107420 147.6506590  52.9364630
  10.5158920 147.5851710  53.4657540  11.5150700 148.5857230  52.9249980
   2.0648860 146.1408330  66.4359880   2.0037750 146.7330160  67.1855290
   3.0049240 146.0334290  66.2910140   4.7023420 145.7978390  66.0752170
   5.3163830 146.1157680  65.4133250   5.2472980 145.3126980  66.6948030
   5.4431460 144.3610530  62.4021460   4.5691300 144.6945640  62.1994390
   5.3342210 143.8883710  63.2273330   6.3503440 146.5681400  63.7863180
   6.0216800 145.7533160  63.4064910   7.2985740 146.5251210  63.6628870
   3.1906280 145.2780370  61.3414370   2.4078070 145.7525870  61.6211130
   2.8969210 144.3735200  61.2327550   7.7427350 145.9803470  59.3863460
   8.1835440 145.9248570  58.5385060   7.4734940 146.8961480  59.4573640
   9.6065920 145.6118710  57.3972280   9.5454320 144.6679930  57.2503300
  10.3857950 145.7198800  57.9425740   5.5785480 144.3609570  58.0913470
   6.1814850 144.9329780  58.5661990   4.8378470 144.9249010  57.8687370
   8.7220080 144.7631130  53.3653750   8.9170710 145.6614580  53.6321180
   7.9349950 144.5318210  53.8586700   5.8280700 144.5404600  68.4708410
   5.7146150 144.8599210  69.3659930   6.6450440 144.9417110  68.1745690
   4.7338850 152.5597070  38.8343150   4.6532900 151.6451680  38.5634860
   4.3203270 153.0564140  38.1282860   2.8656890 154.3376090  40.7152420
   2.0898990 153.8576530  41.0050990   3.5169820 153.6581740  40.5408580
   3.3371050 149.8203660  40.9491510   3.7135870 148.9475540  40.8365180
   3.2390560 150.1562360  40.0581950   7.1195170 147.3154100  37.8819850
   7.9404790 146.8250670  37.9245330   7.1529250 147.9051760  38.6351690
  11.4094720 149.3320850  44.4463480  10.7046890 149.7202560  43.9278590
  11.6752640 150.0271140  45.0484410   7.3556650 149.2554480  40.6547390
   6.6512220 149.5439370  41.2350500   7.7168810 150.0654590  40.2946950
  10.4243570 148.7009270  41.0456600   9.4768480 148.7348250  41.1772030
  10.7493560 149.5148220  41.4305960   3.3443870 153.0655280  36.0772710
   2.4173150 152.9992660  36.3061180   3.4968690 154.0035410  35.9627950
   3.3312950 149.3372280  33.0739870   2.3916620 149.4986240  33.1592330
   3.6496210 150.0557960  32.5275860   9.8525710 154.0190800  43.0518900
   9.0244340 154.0883890  42.5769030  10.4476190 154.6045110  42.5834730
   7.3741160 154.6275580  36.5807960   6.7553580 154.2895130  35.9334260
   7.3565610 153.9835340  37.2887150   6.8167720 150.8060120  43.9973770
   6.4038900 151.6313830  44.2513760   6.0843670 150.2205160  43.8050130
   5.5505860 153.8662390  33.5880710   5.9899140 153.0284820  33.4418530
   6.2634280 154.4991790  33.6744850   9.1323000 145.1205200  31.9021750
   8.8195660 145.2132030  32.8020820   9.8935470 145.6986230  31.8519180
  10.3424290 149.8576700  47.8795890   9.7268560 150.3656370  47.3511350
  10.0220710 148.9575030  47.8221830   2.4038610 148.6968590  45.3458080
   1.9417980 148.9051610  46.1578020   2.0016720 147.8827940  45.0428750
   7.4043120 149.9177540  46.4754740   6.5536710 149.6183290  46.7963810
   7.2444910 150.1619550  45.5638560   4.4992830 151.4179290  48.5753530
   4.8246240 150.5843040  48.2355760   5.2873160 151.9407810  48.7231860
   5.1380780 150.9597010  36.0694660   4.5389670 151.6832810  35.8858280
   5.6860390 150.8973790  35.2871110   3.7445650 149.5960550  38.0997940
   4.1375220 149.9132750  37.2866630   4.1062500 148.7172430  38.2142460
   2.0537820 148.3467860  49.3594800   1.3636140 148.1540060  49.9940890
   2.7970120 148.6302500  49.8919100   4.3300790 152.1866300  42.1948720
   3.5981910 152.6953110  42.5438820   3.9325130 151.3696280  41.8937500
   4.7926700 147.6399980  41.6071660   4.8099440 148.0908630  42.4513510
   4.5442280 146.7405620  41.8205100   8.2197450 145.0532160  47.4458040
   8.5443220 144.3221820  47.9716020   8.2553960 144.7345800  46.5439030
   3.6065230 146.5595230  35.1973460   2.7929840 146.0608400  35.1218770
   3.4127180 147.3993480  34.7809810   6.3213620 150.9314880  33.4935620
   7.2093240 151.2432110  33.3186960   6.2918710 150.0587130  33.1016200
   8.5927890 152.2426720  32.9615480   8.5091610 152.6740940  32.1111920
   9.3122080 152.7025070  33.3942300   4.9836600 148.7849210  44.2395740
   5.3517420 147.9644420  44.5675310   4.1234800 148.8451100  44.6551390
   8.3498630 147.7406150  35.0483300   7.7211790 147.8451820  34.3341530
   7.8550550 147.9602930  35.8377180   1.9438590 151.4388800  44.4633710
   2.4423840 151.9134620  45.1285560   2.0861540 150.5152320  44.6703740
   4.3498090 146.7442760  37.9036970   4.2265870 146.7628890  36.9546480
   5.2982650 146.7921700  38.0235370   9.1505450 147.6556760  45.3062100
   8.6479050 148.3962160  45.6455910   9.9662110 148.0440760  44.9898890
   7.4427460 152.8989940  38.7523460   6.5017600 152.9140170  38.9271150
   7.7571530 152.1125900  39.1983760   1.9655770 153.6012280  31.5347160
   2.4861430 152.8861300  31.1688310   2.6124170 154.2398150  31.8347670
   6.9855780 152.3636840  48.8621380   7.5676550 151.6089160  48.7741860
   7.1617550 152.8944280  48.0852860   3.6112740 152.7077340  46.2116000
   3.7308950 152.1118480  46.9510840   4.4706740 152.7447030  45.7917300
   5.9500640 153.2614530  44.7878510   5.4235860 153.7857150  44.1843650
   6.2931980 153.8941920  45.4188240   5.1974940 148.8664500  47.7024840
   4.5090460 148.2046040  47.6374830   5.9180960 148.4202770  48.1473300
   5.8275340 145.4616130  33.7615100   6.1077630 144.6184030  34.1174520
   5.0541070 145.6939240  34.2753850   6.6550840 148.0172080  32.8245160
   7.0735720 147.8303060  31.9841820   6.3486900 147.1651130  33.1348090
  10.1540570 152.9296220  36.5220960   9.7784170 152.1624150  36.0902250
   9.4243690 153.3118920  37.0095890   9.5440190 152.0767740  46.1560480
   9.3126280 151.8480490  45.2558430   9.8044740 152.9967290  46.1105370
   7.9828260 147.3024170  48.9340180   8.8598440 147.3107570  49.3174180
   7.9949100 146.5655010  48.3232530   9.4291530 151.1553710  39.8228200
   9.9529010 150.6616360  39.1918370  10.0150950 151.2904070  40.5675770
   9.6081250 151.2393580  43.3447750   8.6583960 151.2057120  43.4592740
   9.7894260 152.1493690  43.1097520   8.9191500 150.4127060  35.7620610
   9.4150620 150.1797930  36.5469490   8.7207570 149.5738900  35.3458250
  10.3478660 149.0488010  38.2958290  10.2377940 148.8944050  39.2340560
  11.1086250 148.5208950  38.0533700   8.6944380 144.9882140  44.7541290
   9.3316600 145.6016280  45.1200480   8.8419270 145.0242800  43.8090520
  11.2368930 146.8795930  31.5364430  12.1618240 146.7477110  31.3282720
  11.2144720 146.9588750  32.4900880  11.3107420 147.6506590  34.1621140
  10.5158920 147.5851710  34.6914050  11.5150700 148.5857230  34.1506490
   2.0648860 146.1408330  47.6616390   2.0037750 146.7330160  48.4111800
   3.0049240 146.0334290  47.5166650   4.7023420 145.7978390  47.3008680
   5.3163830 146.1157680  46.6389760   5.2472980 145.3126980  47.9204540
   5.4431460 144.3610530  43.6277970   4.5691300 144.6945640  43.4250900
   5.3342210 143.8883710  44.4529840   6.3503440 146.5681400  45.0119690
   6.0216800 145.7533160  44.6321420   7.2985740 146.5251210  44.8885380
   3.1906280 145.2780370  42.5670880   2.4078070 145.7525870  42.8467640
   2.8969210 144.3735200  42.4584060   7.7427350 145.9803470  40.6119970
   8.1835440 145.9248570  39.7641570   7.4734940 146.8961480  40.6830150
   9.6065920 145.6118710  38.6228790   9.5454320 144.6679930  38.4759810
  10.3857950 145.7198800  39.1682250   5.5785480 144.3609570  39.3169980
   6.1814850 144.9329780  39.7918500   4.8378470 144.9249010  39.0943880
   8.7220080 144.7631130  34.5910260   8.9170710 145.6614580  34.8577690
   7.9349950 144.5318210  35.0843210   5.8280700 144.5404600  49.6964920
   5.7146150 144.8599210  50.5916440   6.6450440 144.9417110  49.4002200
   4.7338850 152.5597070  20.0599660   4.6532900 151.6451680  19.7891370
   4.3203270 153.0564140  19.3539370   2.8656890 154.3376090  21.9408930
   2.0898990 153.8576530  22.2307500   3.5169820 153.6581740  21.7665090
   3.3371050 149.8203660  22.1748020   3.7135870 148.9475540  22.0621690
   3.2390560 150.1562360  21.2838460   7.1195170 147.3154100  19.1076360
   7.9404790 146.8250670  19.1501840   7.1529250 147.9051760  19.8608200
  11.4094720 149.3320850  25.6719990  10.7046890 149.7202560  25.1535100
  11.6752640 150.0271140  26.2740920   7.3556650 149.2554480  21.8803900
   6.6512220 149.5439370  22.4607010   7.7168810 150.0654590  21.5203460
  10.4243570 148.7009270  22.2713110   9.4768480 148.7348250  22.4028540
  10.7493560 149.5148220  22.6562470   3.3443870 153.0655280  17.3029220
   2.4173150 152.9992660  17.5317690   3.4968690 154.0035410  17.1884460
   3.3312950 149.3372280  14.2996380   2.3916620 149.4986240  14.3848840
   3.6496210 150.0557960  13.7532370   9.8525710 154.0190800  24.2775410
   9.0244340 154.0883890  23.8025540  10.4476190 154.6045110  23.8091240
   7.3741160 154.6275580  17.8064470   6.7553580 154.2895130  17.1590770
   7.3565610 153.9835340  18.5143660   6.8167720 150.8060120  25.2230280
   6.4038900 151.6313830  25.4770270   6.0843670 150.2205160  25.0306640
   5.5505860 153.8662390  14.8137220   5.9899140 153.0284820  14.6675040
   6.2634280 154.4991790  14.9001360   9.1323000 145.1205200  13.1278260
   8.8195660 145.2132030  14.0277330   9.8935470 145.6986230  13.0775690
  10.3424290 149.8576700  29.1052400   9.7268560 150.3656370  28.5767860
  10.0220710 148.9575030  29.0478340   2.4038610 148.6968590  26.5714590
   1.9417980 148.9051610  27.3834530   2.0016720 147.8827940  26.2685260
   7.4043120 149.9177540  27.7011250   6.5536710 149.6183290  28.0220320
   7.2444910 150.1619550  26.7895070   4.4992830 151.4179290  29.8010040
   4.8246240 150.5843040  29.4612270   5.2873160 151.9407810  29.9488370
   5.1380780 150.9597010  17.2951170   4.5389670 151.6832810  17.1114790
   5.6860390 150.8973790  16.5127620   3.7445650 149.5960550  19.3254450
   4.1375220 149.9132750  18.5123140   4.1062500 148.7172430  19.4398970
   2.0537820 148.3467860  30.5851310   1.3636140 148.1540060  31.2197400
   2.7970120 148.6302500  31.1175610   4.3300790 152.1866300  23.4205230
   3.5981910 152.6953110  23.7695330   3.9325130 151.3696280  23.1194010
   4.7926700 147.6399980  22.8328170   4.8099440 148.0908630  23.6770020
   4.5442280 146.7405620  23.0461610   8.2197450 145.0532160  28.6714550
   8.5443220 144.3221820  29.1972530   8.2553960 144.7345800  27.7695540
   3.6065230 146.5595230  16.4229970   2.7929840 146.0608400  16.3475280
   3.4127180 147.3993480  16.0066320   6.3213620 150.9314880  14.7192130
   7.2093240 151.2432110  14.5443470   6.2918710 150.0587130  14.3272710
   8.5927890 152.2426720  14.1871990   8.5091610 152.6740940  13.3368430
   9.3122080 152.7025070  14.6198810   4.9836600 148.7849210  25.4652250
   5.3517420 147.9644420  25.7931820   4.1234800 148.8451100  25.8807900
   8.3498630 147.7406150  16.2739810   7.7211790 147.8451820  15.5598040
   7.8550550 147.9602930  17.0633690   1.9438590 151.4388800  25.6890220
   2.4423840 151.9134620  26.3542070   2.0861540 150.5152320  25.8960250
   4.3498090 146.7442760  19.1293480   4.2265870 146.7628890  18.1802990
   5.2982650 146.7921700  19.2491880   9.1505450 147.6556760  26.5318610
   8.6479050 148.3962160  26.8712420   9.9662110 148.0440760  26.2155400
   7.4427460 152.8989940  19.9779970   6.5017600 152.9140170  20.1527660
   7.7571530 152.1125900  20.4240270   1.9655770 153.6012280  12.7603670
   2.4861430 152.8861300  12.3944820   2.6124170 154.2398150  13.0604180
   6.9855780 152.3636840  30.0877890   7.5676550 151.6089160  29.9998370
   7.1617550 152.8944280  29.3109370   3.6112740 152.7077340  27.4372510
   3.7308950 152.1118480  28.1767350   4.4706740 152.7447030  27.0173810
   5.9500640 153.2614530  26.0135020   5.4235860 153.7857150  25.4100160
   6.2931980 153.8941920  26.6444750   5.1974940 148.8664500  28.9281350
   4.5090460 148.2046040  28.8631340   5.9180960 148.4202770  29.3729810
   5.8275340 145.4616130  14.9871610   6.1077630 144.6184030  15.3431030
   5.0541070 145.6939240  15.5010360   6.6550840 148.0172080  14.0501670
   7.0735720 147.8303060  13.2098330   6.3486900 147.1651130  14.3604600
  10.1540570 152.9296220  17.7477470   9.7784170 152.1624150  17.3158760
   9.4243690 153.3118920  18.2352400   9.5440190 152.0767740  27.3816990
   9.3126280 151.8480490  26.4814940   9.8044740 152.9967290  27.3361880
   7.9828260 147.3024170  30.1596690   8.8598440 147.3107570  30.5430690
   7.9949100 146.5655010  29.5489040   9.4291530 151.1553710  21.0484710
   9.9529010 150.6616360  20.4174880  10.0150950 151.2904070  21.7932280
   9.6081250 151.2393580  24.5704260   8.6583960 151.2057120  24.6849250
   9.7894260 152.1493690  24.3354030   8.9191500 150.4127060  16.9877120
   9.4150620 150.1797930  17.7726000   8.7207570 149.5738900  16.5714760
  10.3478660 149.0488010  19.5214800  10.2377940 148.8944050  20.4597070
  11.1086250 148.5208950  19.2790210   8.6944380 144.9882140  25.9797800
   9.3316600 145.6016280  26.3456990   8.8419270 145.0242800  25.0347030
  11.2368930 146.8795930  12.7620940  12.1618240 146.7477110  12.5539230
  11.2144720 146.9588750  13.7157390  11.3107420 147.6506590  15.3877650
  10.5158920 147.5851710  15.9170560  11.5150700 148.5857230  15.3763000
   2.0648860 146.1408330  28.8872900   2.0037750 146.7330160  29.6368310
   3.0049240 146.0334290  28.7423160   4.7023420 145.7978390  28.5265190
   5.3163830 146.1157680  27.8646270   5.2472980 145.3126980  29.1461050
   5.4431460 144.3610530  24.8534480   4.5691300 144.6945640  24.6507410
   5.3342210 143.8883710  25.6786350   6.3503440 146.5681400  26.2376200
   6.0216800 145.7533160  25.8577930   7.2985740 146.5251210  26.1141890
   3.1906280 145.2780370  23.7927390   2.4078070 145.7525870  24.0724150
   2.8969210 144.3735200  23.6840570   7.7427350 145.9803470  21.8376480
   8.1835440 145.9248570  20.9898080   7.4734940 146.8961480  21.9086660
   9.6065920 145.6118710  19.8485300   9.5454320 144.6679930  19.7016320
  10.3857950 145.7198800  20.3938760   5.5785480 144.3609570  20.5426490
   6.1814850 144.9329780  21.0175010   4.8378470 144.9249010  20.3200390
   8.7220080 144.7631130  15.8166770   8.9170710 145.6614580  16.0834200
   7.9349950 144.5318210  16.3099720   5.8280700 144.5404600  30.9221430
   5.7146150 144.8599210  31.8172950   6.6450440 144.9417110  30.6258710
   2.8656890 154.3376090   3.1665440   2.0898990 153.8576530   3.4564010
   3.5169820 153.6581740   2.9921600   3.3371050 149.8203660   3.4004530
   3.7135870 148.9475540   3.2878200   3.2390560 150.1562360   2.5094970
  11.4094720 149.3320850   6.8976500  10.7046890 149.7202560   6.3791610
  11.6752640 150.0271140   7.4997430   7.3556650 149.2554480   3.1060410
   6.6512220 149.5439370   3.6863520   7.7168810 150.0654590   2.7459970
  10.4243570 148.7009270   3.4969620   9.4768480 148.7348250   3.6285050
  10.7493560 149.5148220   3.8818980   9.8525710 154.0190800   5.5031920
   9.0244340 154.0883890   5.0282050  10.4476190 154.6045110   5.0347750
   6.8167720 150.8060120   6.4486790   6.4038900 151.6313830   6.7026780
   6.0843670 150.2205160   6.2563150  10.3424290 149.8576700  10.3308910
   9.7268560 150.3656370   9.8024370  10.0220710 148.9575030  10.2734850
   2.4038610 148.6968590   7.7971100   1.9417980 148.9051610   8.6091040
   2.0016720 147.8827940   7.4941770   7.4043120 149.9177540   8.9267760
   6.5536710 149.6183290   9.2476830   7.2444910 150.1619550   8.0151580
   4.4992830 151.4179290  11.0266550   4.8246240 150.5843040  10.6868780
   5.2873160 151.9407810  11.1744880   2.0537820 148.3467860  11.8107820
   1.3636140 148.1540060  12.4453910   2.7970120 148.6302500  12.3432120
   4.3300790 152.1866300   4.6461740   3.5981910 152.6953110   4.9951840
   3.9325130 151.3696280   4.3450520   4.7926700 147.6399980   4.0584680
   4.8099440 148.0908630   4.9026530   4.5442280 146.7405620   4.2718120
   8.2197450 145.0532160   9.8971060   8.5443220 144.3221820  10.4229040
   8.2553960 144.7345800   8.9952050   4.9836600 148.7849210   6.6908760
   5.3517420 147.9644420   7.0188330   4.1234800 148.8451100   7.1064410
   1.9438590 151.4388800   6.9146730   2.4423840 151.9134620   7.5798580
   2.0861540 150.5152320   7.1216760   9.1505450 147.6556760   7.7575120
   8.6479050 148.3962160   8.0968930   9.9662110 148.0440760   7.4411910
   6.9855780 152.3636840  11.3134400   7.5676550 151.6089160  11.2254880
   7.1617550 152.8944280  10.5365880   3.6112740 152.7077340   8.6629020
   3.7308950 152.1118480   9.4023860   4.4706740 152.7447030   8.2430320
   5.9500640 153.2614530   7.2391530   5.4235860 153.7857150   6.6356670
   6.2931980 153.8941920   7.8701260   5.1974940 148.8664500  10.1537860
   4.5090460 148.2046040  10.0887850   5.9180960 148.4202770  10.5986320
   9.5440190 152.0767740   8.6073500   9.3126280 151.8480490   7.7071450
   9.8044740 152.9967290   8.5618390   7.9828260 147.3024170  11.3853200
   8.8598440 147.3107570  11.7687200   7.9949100 146.5655010  10.7745550
   9.4291530 151.1553710   2.2741220   9.9529010 150.6616360   1.6431390
  10.0150950 151.2904070   3.0188790   9.6081250 151.2393580   5.7960770
   8.6583960 151.2057120   5.9105760   9.7894260 152.1493690   5.5610540
   8.6944380 144.9882140   7.2054310   9.3316600 145.6016280   7.5713500
   8.8419270 145.0242800   6.2603540   2.0648860 146.1408330  10.1129410
   2.0037750 146.7330160  10.8624820   3.0049240 146.0334290   9.9679670
   4.7023420 145.7978390   9.7521700   5.3163830 146.1157680   9.0902780
   5.2472980 145.3126980  10.3717560   5.4431460 144.3610530   6.0790990
   4.5691300 144.6945640   5.8763920   5.3342210 143.8883710   6.9042860
   6.3503440 146.5681400   7.4632710   6.0216800 145.7533160   7.0834440
   7.2985740 146.5251210   7.3398400   3.1906280 145.2780370   5.0183900
   2.4078070 145.7525870   5.2980660   2.8969210 144.3735200   4.9097080
   7.7427350 145.9803470   3.0632990   8.1835440 145.9248570   2.2154590
   7.4734940 146.8961480   3.1343170   5.5785480 144.3609570   1.7683000
   6.1814850 144.9329780   2.2431520   4.8378470 144.9249010   1.5456900
   5.8280700 144.5404600  12.1477940   5.7146150 144.8599210  13.0429460
   6.6450440 144.9417110  11.8515220   4.7338850 133.7853580 151.4804090
   4.6532900 132.8708190 151.2095800   4.3203270 134.2820650 150.7743800
   2.8656890 135.5632600 153.3613360   2.0898990 135.0833040 153.6511930
   3.5169820 134.8838250 153.1869520   6.8864320 139.9692790 152.1412490
   6.4245850 139.1980030 152.4699660   7.6989870 139.9958860 152.6464940
   3.1127630 142.2550800 151.7616480   2.4939070 142.7108300 151.1910920
   3.9679410 142.4102260 151.3606180   2.3065880 138.2389790 153.3683520
   2.2374160 137.2979730 153.2072650   3.0685740 138.3291200 153.9406090
   3.3371050 131.0460170 153.5952450   3.7135870 130.1732050 153.4826120
   3.2390560 131.3818870 152.7042890   7.1195170 128.5410610 150.5280790
   7.9404790 128.0507180 150.5706270   7.1529250 129.1308270 151.2812630
   3.9790980 137.1390040 149.1548390   3.3608250 137.6039490 148.5911110
   4.4914230 137.8317520 149.5717900   7.3556650 130.4810990 153.3008330
   6.6512220 130.7695880 153.8811440   7.7168810 131.2911100 152.9407890
  10.4243570 129.9265780 153.6917540   9.4768480 129.9604760 153.8232970
  10.7493560 130.7404730 154.0766900   6.5078170 141.9430250 154.2780990
   6.5205330 141.5392540 153.4103250   5.9553390 142.7177540 154.1742420
   7.8023590 138.6646470 149.3671160   7.6919920 137.7220800 149.4920580
   7.7991840 139.0262110 150.2533920   3.3443870 134.2911790 148.7233650
   2.4173150 134.2249170 148.9522120   3.4968690 135.2291920 148.6088890
   3.3312950 130.5628790 145.7200810   2.3916620 130.7242750 145.8053270
   3.6496210 131.2814470 145.1736800   7.3741160 135.8532090 149.2268900
   6.7553580 135.5151640 148.5795200   7.3565610 135.2091850 149.9348090
   5.5505860 135.0918900 146.2341650   5.9899140 134.2541330 146.0879470
   6.2634280 135.7248300 146.3205790   3.6601240 140.0314970 150.2022890
   4.0997150 140.7739300 149.7878280   3.5988130 140.2741540 151.1261850
   9.1323000 126.3461710 144.5482690   8.8195660 126.4388540 145.4481760
   9.8935470 126.9242740 144.4980120   6.3271420 143.0184090 147.5585900
   6.1672560 142.7287030 148.4567730   6.1618130 142.2424220 147.0231130
   6.0297550 140.5271650 146.1183900   5.3362710 140.5248940 145.4586180
   6.7720410 140.1030970 145.6878070   5.5947480 142.1534360 150.1932390
   6.0504430 141.3723740 150.5071010   5.9340000 142.8641180 150.7373570
   5.1380780 132.1853520 148.7155600   4.5389670 132.9089320 148.5319220
   5.6860390 132.1230300 147.9332050   3.7445650 130.8217060 150.7458880
   4.1375220 131.1389260 149.9327570   4.1062500 129.9428940 150.8603400
   8.1455290 136.3913780 153.7005010   8.8654410 136.8869070 153.3101120
   7.9437110 135.7131670 153.0558880   3.6065230 127.7851740 147.8434400
   2.7929840 127.2864910 147.7679710   3.4127180 128.6249990 147.4270750
   6.3213620 132.1571390 146.1396560   7.2093240 132.4688620 145.9647900
   6.2918710 131.2843640 145.7477140   2.3174210 138.3295080 146.8184730
   2.6589910 139.0737310 146.3228050   1.4886920 138.6426200 147.1809560
   8.5927890 133.4683230 145.6076420   8.5091610 133.8997450 144.7572860
   9.3122080 133.9281580 146.0403240   9.6215140 140.3225490 148.3358550
   8.9791300 139.6681110 148.6102270   9.2345800 140.7280580 147.5599220
   5.2001620 137.6510920 152.1830240   5.5525440 137.0539050 151.5231610
   4.3163950 137.3255150 152.3538490   8.0112520 139.2141950 144.8734900
   7.7850100 138.4972390 145.4659540   7.6208720 138.9654390 144.0356650
   7.5928770 137.1313890 146.5349060   7.3050470 137.5926580 147.3226940
   8.3880940 136.6711660 146.8033280   8.3498630 128.9662660 147.6944240
   7.7211790 129.0708330 146.9802470   7.8550550 129.1859440 148.4838120
   2.7956770 140.6868250 145.1278220   2.8968750 140.4832240 144.1980200
   1.8958510 140.4326530 145.3326000   4.3498090 127.9699270 150.5497910
   4.2265870 127.9885400 149.6007420   5.2982650 128.0178210 150.6696310
   7.4427460 134.1246450 151.3984400   6.5017600 134.1396680 151.5732090
   7.7571530 133.3382410 151.8444700   9.4453040 141.2955300 153.0738660
   9.5700460 142.1186470 153.5462470  10.3118600 141.0846030 152.7262810
   9.0803050 141.7886950 145.9918100   8.7944560 141.3752090 145.1772280
   8.8822600 142.7174660 145.8718620   3.7853010 136.8440260 145.0365700
   3.2363110 137.2909560 145.6808440   4.4072270 136.3389510 145.5603370
   1.9655770 134.8268790 144.1808100   2.4861430 134.1117810 143.8149250
   2.6124170 135.4654660 144.4808610   5.8275340 126.6872640 146.4076040
   6.1077630 125.8440540 146.7635460   5.0541070 126.9195750 146.9214790
   2.5303800 142.9080400 146.4709840   3.4254590 143.2465370 146.4928600
   2.5621430 142.1859810 145.8434120  10.7499600 139.1801890 144.5145750
   9.9192560 139.2478540 144.9852980  10.9271430 140.0706010 144.2112610
  10.2056060 135.9249370 147.0179950  10.9674970 136.4946020 147.1239640
  10.2210430 135.3576570 147.7888260  11.2116030 136.7799470 151.8621880
  11.5824860 135.9966790 151.4557850  11.8517960 137.4688570 151.6839180
  10.2575230 136.2183740 144.1752470  10.5324070 137.1262620 144.0471690
  10.0685970 136.1546270 145.1114460   6.6550840 129.2428590 145.4706100
   7.0735720 129.0559570 144.6302760   6.3486900 128.3907640 145.7809030
  10.1540570 134.1552730 149.1681900   9.7784170 133.3880660 148.7363190
   9.4243690 134.5375430 149.6556830   9.4291530 132.3810220 152.4689140
   9.9529010 131.8872870 151.8379310  10.0150950 132.5160580 153.2136710
   8.9191500 131.6383570 148.4081550   9.4150620 131.4054440 149.1930430
   8.7207570 130.7995410 147.9919190  10.3478660 130.2744520 150.9419230
  10.2377940 130.1200560 151.8801500  11.1086250 129.7465460 150.6994640
  11.2368930 128.1052440 144.1825370  12.1618240 127.9733620 143.9743660
  11.2144720 128.1845260 145.1361820  11.3107420 128.8763100 146.8082080
  10.5158920 128.8108220 147.3374990  11.5150700 129.8113740 146.7967430
   8.2525840 142.9154650 150.8020470   8.8484910 142.5939220 150.1254890
   8.5103990 142.4426470 151.5933740   7.7427350 127.2059980 153.2580910
   8.1835440 127.1505080 152.4102510   7.4734940 128.1217990 153.3291090
   9.6065920 126.8375220 151.2689730   9.5454320 125.8936440 151.1220750
  10.3857950 126.9455310 151.8143190   5.5785480 125.5866080 151.9630920
   6.1814850 126.1586290 152.4379440   4.8378470 126.1505520 151.7404820
   8.7220080 125.9887640 147.2371200   8.9170710 126.8871090 147.5038630
   7.9349950 125.7574720 147.7304150  10.2746690 143.2288350 148.9977760
  10.4498880 142.5426090 148.3538680   9.5768260 143.7535400 148.6054430
   4.7338850 133.7853580 132.7060600   4.6532900 132.8708190 132.4352310
   4.3203270 134.2820650 132.0000310   2.8656890 135.5632600 134.5869870
   2.0898990 135.0833040 134.8768440   3.5169820 134.8838250 134.4126030
   6.8864320 139.9692790 133.3669000   6.4245850 139.1980030 133.6956170
   7.6989870 139.9958860 133.8721450   3.1127630 142.2550800 132.9872990
   2.4939070 142.7108300 132.4167430   3.9679410 142.4102260 132.5862690
   2.3065880 138.2389790 134.5940030   2.2374160 137.2979730 134.4329160
   3.0685740 138.3291200 135.1662600   3.3371050 131.0460170 134.8208960
   3.7135870 130.1732050 134.7082630   3.2390560 131.3818870 133.9299400
   7.1195170 128.5410610 131.7537300   7.9404790 128.0507180 131.7962780
   7.1529250 129.1308270 132.5069140  11.4094720 130.5577360 138.3180930
  10.7046890 130.9459070 137.7996040  11.6752640 131.2527650 138.9201860
   3.9790980 137.1390040 130.3804900   3.3608250 137.6039490 129.8167620
   4.4914230 137.8317520 130.7974410   7.3556650 130.4810990 134.5264840
   6.6512220 130.7695880 135.1067950   7.7168810 131.2911100 134.1664400
   8.9719430 140.0986120 136.7892320   8.2882950 140.7685230 136.7808990
   9.5113720 140.2966770 136.0237180  10.4243570 129.9265780 134.9174050
   9.4768480 129.9604760 135.0489480  10.7493560 130.7404730 135.3023410
   6.5078170 141.9430250 135.5037500   6.5205330 141.5392540 134.6359760
   5.9553390 142.7177540 135.3998930   7.8023590 138.6646470 130.5927670
   7.6919920 137.7220800 130.7177090   7.7991840 139.0262110 131.4790430
   5.9063610 136.8460090 136.8320110   6.3232400 136.6320200 135.9973570
   6.6303430 137.1032880 137.4028730   3.3443870 134.2911790 129.9490160
   2.4173150 134.2249170 130.1778630   3.4968690 135.2291920 129.8345400
   3.3312950 130.5628790 126.9457320   2.3916620 130.7242750 127.0309780
   3.6496210 131.2814470 126.3993310   9.8525710 135.2447310 136.9236350
   9.0244340 135.3140400 136.4486480  10.4476190 135.8301620 136.4552180
   7.3741160 135.8532090 130.4525410   6.7553580 135.5151640 129.8051710
   7.3565610 135.2091850 131.1604600   6.8167720 132.0316630 137.8691220
   6.4038900 132.8570340 138.1231210   6.0843670 131.4461670 137.6767580
   7.5067820 142.0775960 138.5572200   7.0298380 142.8848150 138.3644810
   6.8229610 141.4254290 138.7098410   5.5505860 135.0918900 127.4598160
   5.9899140 134.2541330 127.3135980   6.2634280 135.7248300 127.5462300
   3.6601240 140.0314970 131.4279400   4.0997150 140.7739300 131.0134790
   3.5988130 140.2741540 132.3518360   9.1323000 126.3461710 125.7739200
   8.8195660 126.4388540 126.6738270   9.8935470 126.9242740 125.7236630
  11.0867030 141.8387900 143.6263590  11.5626750 142.3170790 144.3052670
  11.7074190 141.7705390 142.9009090  10.4900280 139.0300750 140.7863600
  10.6163340 138.7912630 139.8680780  10.5321660 138.1985290 141.2585680
   4.3517020 142.7328750 139.3558410   4.8661690 142.6436760 140.1580840
   3.5086100 143.0788450 139.6486320   6.3271420 143.0184090 128.7842410
   6.1672560 142.7287030 129.6824240   6.1618130 142.2424220 128.2487640
   6.0297550 140.5271650 127.3440410   5.3362710 140.5248940 126.6842690
   6.7720410 140.1030970 126.9134580   5.5947480 142.1534360 131.4188900
   6.0504430 141.3723740 131.7327520   5.9340000 142.8641180 131.9630080
  10.3424290 131.0833210 141.7513340   9.7268560 131.5912880 141.2228800
  10.0220710 130.1831540 141.6939280   2.4038610 129.9225100 139.2175530
   1.9417980 130.1308120 140.0295470   2.0016720 129.1084450 138.9146200
   7.4043120 131.1434050 140.3472190   6.5536710 130.8439800 140.6681260
   7.2444910 131.3876060 139.4356010   4.4992830 132.6435800 142.4470980
   4.8246240 131.8099550 142.1073210   5.2873160 133.1664320 142.5949310
   5.1380780 132.1853520 129.9412110   4.5389670 132.9089320 129.7575730
   5.6860390 132.1230300 129.1588560   3.7445650 130.8217060 131.9715390
   4.1375220 131.1389260 131.1584080   4.1062500 129.9428940 132.0859910
   2.0537820 129.5724370 143.2312250   1.3636140 129.3796570 143.8658340
   2.7970120 129.8559010 143.7636550   4.3300790 133.4122810 136.0666170
   3.5981910 133.9209620 136.4156270   3.9325130 132.5952790 135.7654950
   4.7926700 128.8656490 135.4789110   4.8099440 129.3165140 136.3230960
   4.5442280 127.9662130 135.6922550   8.2197450 126.2788670 141.3175490
   8.5443220 125.5478330 141.8433470   8.2553960 125.9602310 140.4156480
   8.1455290 136.3913780 134.9261520   8.8654410 136.8869070 134.5357630
   7.9437110 135.7131670 134.2815390   3.6065230 127.7851740 129.0690910
   2.7929840 127.2864910 128.9936220   3.4127180 128.6249990 128.6527260
   3.5274090 136.4622840 140.8130520   3.4611400 135.5418510 140.5588110
   2.8979230 136.5598280 141.5275160   6.3213620 132.1571390 127.3653070
   7.2093240 132.4688620 127.1904410   6.2918710 131.2843640 126.9733650
   2.3174210 138.3295080 128.0441240   2.6589910 139.0737310 127.5484560
   1.4886920 138.6426200 128.4066070   3.4590820 139.2843410 140.5634320
   3.4735360 138.3524370 140.3453230   2.7515920 139.3703170 141.2024090
   8.5927890 133.4683230 126.8332930   8.5091610 133.8997450 125.9829370
   9.3122080 133.9281580 127.2659750   9.6702030 135.9250750 139.9102900
   8.9450220 136.5179530 139.7132290  10.1977490 135.9174290 139.1116270
   9.6215140 140.3225490 129.5615060   8.9791300 139.6681110 129.8358780
   9.2345800 140.7280580 128.7855730   5.2001620 137.6510920 133.4086750
   5.5525440 137.0539050 132.7488120   4.3163950 137.3255150 133.5795000
   2.8924720 140.9260980 137.6574820   3.5366940 141.1320360 138.3348240
   3.2554160 140.1649380 137.2045670   4.1656800 138.9293330 136.3752270
   4.8079030 138.2286490 136.4884440   4.6906150 139.7091770 136.1949160
   8.0112520 139.2141950 126.0991410   7.7850100 138.4972390 126.6916050
   7.6208720 138.9654390 125.2613160   5.9394420 139.7288230 139.5788330
   6.2750660 140.3154920 140.2566250   5.0194760 139.5980940 139.8086120
   7.5928770 137.1313890 127.7605570   7.3050470 137.5926580 128.5483450
   8.3880940 136.6711660 128.0289790   1.7683000 139.7779560 142.7476390
   1.4479870 139.0588800 143.2922080   1.0941360 140.4534630 142.8212450
   4.9836600 130.0105720 138.1113190   5.3517420 129.1900930 138.4392760
   4.1234800 130.0707610 138.5268840   8.3498630 128.9662660 128.9200750
   7.7211790 129.0708330 128.2058980   7.8550550 129.1859440 129.7094630
   2.7956770 140.6868250 126.3534730   2.8968750 140.4832240 125.4236710
   1.8958510 140.4326530 126.5582510   1.9438590 132.6645310 138.3351160
   2.4423840 133.1391130 139.0003010   2.0861540 131.7408830 138.5421190
   4.3498090 127.9699270 131.7754420   4.2265870 127.9885400 130.8263930
   5.2982650 128.0178210 131.8952820   9.1505450 128.8813270 139.1779550
   8.6479050 129.6218670 139.5173360   9.9662110 129.2697270 138.8616340
   7.4427460 134.1246450 132.6240910   6.5017600 134.1396680 132.7988600
   7.7571530 133.3382410 133.0701210   9.4453040 141.2955300 134.2995170
   9.5700460 142.1186470 134.7718980  10.3118600 141.0846030 133.9519320
   4.7593480 138.6812450 143.1073290   4.1531640 138.7044050 142.3669040
   4.4547590 137.9495490 143.6440540   6.1893850 142.4092740 141.7182700
   7.1415600 142.3250760 141.6682940   6.0422070 143.0734450 142.3916490
   9.0803050 141.7886950 127.2174610   8.7944560 141.3752090 126.4028790
   8.8822600 142.7174660 127.0975130   3.7853010 136.8440260 126.2622210
   3.2363110 137.2909560 126.9064950   4.4072270 136.3389510 126.7859880
   7.8387950 138.1982360 142.1944470   8.5797420 138.5358120 141.6911930
   7.0760630 138.3674420 141.6414240   1.9655770 134.8268790 125.4064610
   2.4861430 134.1117810 125.0405760   2.6124170 135.4654660 125.7065120
   6.5133610 136.2497190 140.7299680   6.9274630 136.4042270 141.5790100
   5.5784610 136.3752410 140.8925460   6.9855780 133.5893350 142.7338830
   7.5676550 132.8345670 142.6459310   7.1617550 134.1200790 141.9570310
   3.6112740 133.9333850 140.0833450   3.7308950 133.3374990 140.8228290
   4.4706740 133.9703540 139.6634750   5.9500640 134.4871040 138.6595960
   5.4235860 135.0113660 138.0561100   6.2931980 135.1198430 139.2905690
   5.1974940 130.0921010 141.5742290   4.5090460 129.4302550 141.5092280
   5.9180960 129.6459280 142.0190750   5.8275340 126.6872640 127.6332550
   6.1077630 125.8440540 127.9891970   5.0541070 126.9195750 128.1471300
   1.9818470 143.7421890 140.0739990   1.9077170 144.6457030 140.3812360
   1.0797310 143.4233790 140.0462060   2.5303800 142.9080400 127.6966350
   3.4254590 143.2465370 127.7185110   2.5621430 142.1859810 127.0690630
   9.5098150 141.4384070 140.4032550   8.9100140 141.4976630 139.6596470
   9.6392050 140.4989050 140.5329400  10.7499600 139.1801890 125.7402260
   9.9192560 139.2478540 126.2109490  10.9271430 140.0706010 125.4369120
  10.2056060 135.9249370 128.2436460  10.9674970 136.4946020 128.3496150
  10.2210430 135.3576570 129.0144770  11.2116030 136.7799470 133.0878390
  11.5824860 135.9966790 132.6814360  11.8517960 137.4688570 132.9095690
   8.1949790 138.1636050 138.5008710   7.3809630 138.5933210 138.7634500
   8.6023990 138.7754460 137.8877760  10.2575230 136.2183740 125.4008980
  10.5324070 137.1262620 125.2728200  10.0685970 136.1546270 126.3370970
   6.6550840 129.2428590 126.6962610   7.0735720 129.0559570 125.8559270
   6.3486900 128.3907640 127.0065540  10.1540570 134.1552730 130.3938410
   9.7784170 133.3880660 129.9619700   9.4243690 134.5375430 130.8813340
   9.5440190 133.3024250 140.0277930   9.3126280 133.0737000 139.1275880
   9.8044740 134.2223800 139.9822820   7.9828260 128.5280680 142.8057630
   8.8598440 128.5364080 143.1891630   7.9949100 127.7911520 142.1949980
   9.4291530 132.3810220 133.6945650   9.9529010 131.8872870 133.0635820
  10.0150950 132.5160580 134.4393220   9.6081250 132.4650090 137.2165200
   8.6583960 132.4313630 137.3310190   9.7894260 133.3750200 136.9814970
   8.9191500 131.6383570 129.6338060   9.4150620 131.4054440 130.4186940
   8.7207570 130.7995410 129.2175700  10.3478660 130.2744520 132.1675740
  10.2377940 130.1200560 133.1058010  11.1086250 129.7465460 131.9251150
   8.6944380 126.2138650 138.6258740   9.3316600 126.8272790 138.9917930
   8.8419270 126.2499310 137.6807970  11.2368930 128.1052440 125.4081880
  12.1618240 127.9733620 125.2000170  11.2144720 128.1845260 126.3618330
  11.3107420 128.8763100 128.0338590  10.5158920 128.8108220 128.5631500
  11.5150700 129.8113740 128.0223940   8.2525840 142.9154650 132.0276980
   8.8484910 142.5939220 131.3511400   8.5103990 142.4426470 132.8190250
   2.0648860 127.3664840 141.5333840   2.0037750 127.9586670 142.2829250
   3.0049240 127.2590800 141.3884100   4.7023420 127.0234900 141.1726130
   5.3163830 127.3414190 140.5107210   5.2472980 126.5383490 141.7921990
  11.1198600 142.9226530 138.5787970  10.6256880 143.3195400 137.8615100
  10.5111890 142.2975740 138.9725250   5.4431460 125.5867040 137.4995420
   4.5691300 125.9202150 137.2968350   5.3342210 125.1140220 138.3247290
   6.3503440 127.7937910 138.8837140   6.0216800 126.9789670 138.5038870
   7.2985740 127.7507720 138.7602830   8.8038050 143.5649950 135.8574710
   8.3441020 144.3165760 135.4832730   8.1750510 142.8456420 135.7989510
   1.9729270 142.7646680 135.8591820   2.2607080 142.5100980 134.9824830
   2.4852490 142.2124040 136.4497390   3.1906280 126.5036880 136.4388330
   2.4078070 126.9782380 136.7185090   2.8969210 125.5991710 136.3301510
   7.7427350 127.2059980 134.4837420   8.1835440 127.1505080 133.6359020
   7.4734940 128.1217990 134.5547600   9.6065920 126.8375220 132.4946240
   9.5454320 125.8936440 132.3477260  10.3857950 126.9455310 133.0399700
   5.5785480 125.5866080 133.1887430   6.1814850 126.1586290 133.6635950
   4.8378470 126.1505520 132.9661330   8.7220080 125.9887640 128.4627710
   8.9170710 126.8871090 128.7295140   7.9349950 125.7574720 128.9560660
   2.0401630 143.6862780 143.2260020   2.9668940 143.4507050 143.2695980
   2.0252060 144.5134780 142.7446050  10.2746690 143.2288350 130.2234270
  10.4498880 142.5426090 129.5795190   9.5768260 143.7535400 129.8310940
   5.8280700 125.7661110 143.5682370   5.7146150 126.0855720 144.4633890
   6.6450440 126.1673620 143.2719650   8.6079190 142.9132640 143.0501060
   9.4004510 142.4181870 142.8427020   8.9012340 143.5922780 143.6576670
   4.7338850 133.7853580 113.9317110   4.6532900 132.8708190 113.6608820
   4.3203270 134.2820650 113.2256820   2.8656890 135.5632600 115.8126380
   2.0898990 135.0833040 116.1024950   3.5169820 134.8838250 115.6382540
   6.8864320 139.9692790 114.5925510   6.4245850 139.1980030 114.9212680
   7.6989870 139.9958860 115.0977960   3.1127630 142.2550800 114.2129500
   2.4939070 142.7108300 113.6423940   3.9679410 142.4102260 113.8119200
   2.3065880 138.2389790 115.8196540   2.2374160 137.2979730 115.6585670
   3.0685740 138.3291200 116.3919110   3.3371050 131.0460170 116.0465470
   3.7135870 130.1732050 115.9339140   3.2390560 131.3818870 115.1555910
   7.1195170 128.5410610 112.9793810   7.9404790 128.0507180 113.0219290
   7.1529250 129.1308270 113.7325650  11.4094720 130.5577360 119.5437440
  10.7046890 130.9459070 119.0252550  11.6752640 131.2527650 120.1458370
   3.9790980 137.1390040 111.6061410   3.3608250 137.6039490 111.0424130
   4.4914230 137.8317520 112.0230920   7.3556650 130.4810990 115.7521350
   6.6512220 130.7695880 116.3324460   7.7168810 131.2911100 115.3920910
   8.9719430 140.0986120 118.0148830   8.2882950 140.7685230 118.0065500
   9.5113720 140.2966770 117.2493690  10.4243570 129.9265780 116.1430560
   9.4768480 129.9604760 116.2745990  10.7493560 130.7404730 116.5279920
   6.5078170 141.9430250 116.7294010   6.5205330 141.5392540 115.8616270
   5.9553390 142.7177540 116.6255440   7.8023590 138.6646470 111.8184180
   7.6919920 137.7220800 111.9433600   7.7991840 139.0262110 112.7046940
   5.9063610 136.8460090 118.0576620   6.3232400 136.6320200 117.2230080
   6.6303430 137.1032880 118.6285240   3.3443870 134.2911790 111.1746670
   2.4173150 134.2249170 111.4035140   3.4968690 135.2291920 111.0601910
   3.3312950 130.5628790 108.1713830   2.3916620 130.7242750 108.2566290
   3.6496210 131.2814470 107.6249820   9.8525710 135.2447310 118.1492860
   9.0244340 135.3140400 117.6742990  10.4476190 135.8301620 117.6808690
   7.3741160 135.8532090 111.6781920   6.7553580 135.5151640 111.0308220
   7.3565610 135.2091850 112.3861110   6.8167720 132.0316630 119.0947730
   6.4038900 132.8570340 119.3487720   6.0843670 131.4461670 118.9024090
   7.5067820 142.0775960 119.7828710   7.0298380 142.8848150 119.5901320
   6.8229610 141.4254290 119.9354920   5.5505860 135.0918900 108.6854670
   5.9899140 134.2541330 108.5392490   6.2634280 135.7248300 108.7718810
   3.6601240 140.0314970 112.6535910   4.0997150 140.7739300 112.2391300
   3.5988130 140.2741540 113.5774870   9.1323000 126.3461710 106.9995710
   8.8195660 126.4388540 107.8994780   9.8935470 126.9242740 106.9493140
  11.0867030 141.8387900 124.8520100  11.5626750 142.3170790 125.5309180
  11.7074190 141.7705390 124.1265600  10.4900280 139.0300750 122.0120110
  10.6163340 138.7912630 121.0937290  10.5321660 138.1985290 122.4842190
   4.3517020 142.7328750 120.5814920   4.8661690 142.6436760 121.3837350
   3.5086100 143.0788450 120.8742830   6.3271420 143.0184090 110.0098920
   6.1672560 142.7287030 110.9080750   6.1618130 142.2424220 109.4744150
   6.0297550 140.5271650 108.5696920   5.3362710 140.5248940 107.9099200
   6.7720410 140.1030970 108.1391090   5.5947480 142.1534360 112.6445410
   6.0504430 141.3723740 112.9584030   5.9340000 142.8641180 113.1886590
  10.3424290 131.0833210 122.9769850   9.7268560 131.5912880 122.4485310
  10.0220710 130.1831540 122.9195790   2.4038610 129.9225100 120.4432040
   1.9417980 130.1308120 121.2551980   2.0016720 129.1084450 120.1402710
   7.4043120 131.1434050 121.5728700   6.5536710 130.8439800 121.8937770
   7.2444910 131.3876060 120.6612520   4.4992830 132.6435800 123.6727490
   4.8246240 131.8099550 123.3329720   5.2873160 133.1664320 123.8205820
   5.1380780 132.1853520 111.1668620   4.5389670 132.9089320 110.9832240
   5.6860390 132.1230300 110.3845070   3.7445650 130.8217060 113.1971900
   4.1375220 131.1389260 112.3840590   4.1062500 129.9428940 113.3116420
   2.0537820 129.5724370 124.4568760   1.3636140 129.3796570 125.0914850
   2.7970120 129.8559010 124.9893060   4.3300790 133.4122810 117.2922680
   3.5981910 133.9209620 117.6412780   3.9325130 132.5952790 116.9911460
   4.7926700 128.8656490 116.7045620   4.8099440 129.3165140 117.5487470
   4.5442280 127.9662130 116.9179060   8.2197450 126.2788670 122.5432000
   8.5443220 125.5478330 123.0689980   8.2553960 125.9602310 121.6412990
   8.1455290 136.3913780 116.1518030   8.8654410 136.8869070 115.7614140
   7.9437110 135.7131670 115.5071900   3.6065230 127.7851740 110.2947420
   2.7929840 127.2864910 110.2192730   3.4127180 128.6249990 109.8783770
   3.5274090 136.4622840 122.0387030   3.4611400 135.5418510 121.7844620
   2.8979230 136.5598280 122.7531670   6.3213620 132.1571390 108.5909580
   7.2093240 132.4688620 108.4160920   6.2918710 131.2843640 108.1990160
   2.3174210 138.3295080 109.2697750   2.6589910 139.0737310 108.7741070
   1.4886920 138.6426200 109.6322580   3.4590820 139.2843410 121.7890830
   3.4735360 138.3524370 121.5709740   2.7515920 139.3703170 122.4280600
   8.5927890 133.4683230 108.0589440   8.5091610 133.8997450 107.2085880
   9.3122080 133.9281580 108.4916260   9.6702030 135.9250750 121.1359410
   8.9450220 136.5179530 120.9388800  10.1977490 135.9174290 120.3372780
   9.6215140 140.3225490 110.7871570   8.9791300 139.6681110 111.0615290
   9.2345800 140.7280580 110.0112240   5.2001620 137.6510920 114.6343260
   5.5525440 137.0539050 113.9744630   4.3163950 137.3255150 114.8051510
   2.8924720 140.9260980 118.8831330   3.5366940 141.1320360 119.5604750
   3.2554160 140.1649380 118.4302180   4.1656800 138.9293330 117.6008780
   4.8079030 138.2286490 117.7140950   4.6906150 139.7091770 117.4205670
   8.0112520 139.2141950 107.3247920   7.7850100 138.4972390 107.9172560
   7.6208720 138.9654390 106.4869670   5.9394420 139.7288230 120.8044840
   6.2750660 140.3154920 121.4822760   5.0194760 139.5980940 121.0342630
   7.5928770 137.1313890 108.9862080   7.3050470 137.5926580 109.7739960
   8.3880940 136.6711660 109.2546300   1.7683000 139.7779560 123.9732900
   1.4479870 139.0588800 124.5178590   1.0941360 140.4534630 124.0468960
   4.9836600 130.0105720 119.3369700   5.3517420 129.1900930 119.6649270
   4.1234800 130.0707610 119.7525350   8.3498630 128.9662660 110.1457260
   7.7211790 129.0708330 109.4315490   7.8550550 129.1859440 110.9351140
   2.7956770 140.6868250 107.5791240   2.8968750 140.4832240 106.6493220
   1.8958510 140.4326530 107.7839020   1.9438590 132.6645310 119.5607670
   2.4423840 133.1391130 120.2259520   2.0861540 131.7408830 119.7677700
   4.3498090 127.9699270 113.0010930   4.2265870 127.9885400 112.0520440
   5.2982650 128.0178210 113.1209330   9.1505450 128.8813270 120.4036060
   8.6479050 129.6218670 120.7429870   9.9662110 129.2697270 120.0872850
   7.4427460 134.1246450 113.8497420   6.5017600 134.1396680 114.0245110
   7.7571530 133.3382410 114.2957720   9.4453040 141.2955300 115.5251680
   9.5700460 142.1186470 115.9975490  10.3118600 141.0846030 115.1775830
   4.7593480 138.6812450 124.3329800   4.1531640 138.7044050 123.5925550
   4.4547590 137.9495490 124.8697050   6.1893850 142.4092740 122.9439210
   7.1415600 142.3250760 122.8939450   6.0422070 143.0734450 123.6173000
   9.0803050 141.7886950 108.4431120   8.7944560 141.3752090 107.6285300
   8.8822600 142.7174660 108.3231640   3.7853010 136.8440260 107.4878720
   3.2363110 137.2909560 108.1321460   4.4072270 136.3389510 108.0116390
   7.8387950 138.1982360 123.4200980   8.5797420 138.5358120 122.9168440
   7.0760630 138.3674420 122.8670750   1.9655770 134.8268790 106.6321120
   2.4861430 134.1117810 106.2662270   2.6124170 135.4654660 106.9321630
   6.5133610 136.2497190 121.9556190   6.9274630 136.4042270 122.8046610
   5.5784610 136.3752410 122.1181970   6.9855780 133.5893350 123.9595340
   7.5676550 132.8345670 123.8715820   7.1617550 134.1200790 123.1826820
   3.6112740 133.9333850 121.3089960   3.7308950 133.3374990 122.0484800
   4.4706740 133.9703540 120.8891260   5.9500640 134.4871040 119.8852470
   5.4235860 135.0113660 119.2817610   6.2931980 135.1198430 120.5162200
   5.1974940 130.0921010 122.7998800   4.5090460 129.4302550 122.7348790
   5.9180960 129.6459280 123.2447260   5.8275340 126.6872640 108.8589060
   6.1077630 125.8440540 109.2148480   5.0541070 126.9195750 109.3727810
   1.9818470 143.7421890 121.2996500   1.9077170 144.6457030 121.6068870
   1.0797310 143.4233790 121.2718570   2.5303800 142.9080400 108.9222860
   3.4254590 143.2465370 108.9441620   2.5621430 142.1859810 108.2947140
   9.5098150 141.4384070 121.6289060   8.9100140 141.4976630 120.8852980
   9.6392050 140.4989050 121.7585910  10.7499600 139.1801890 106.9658770
   9.9192560 139.2478540 107.4366000  10.9271430 140.0706010 106.6625630
  10.2056060 135.9249370 109.4692970  10.9674970 136.4946020 109.5752660
  10.2210430 135.3576570 110.2401280  11.2116030 136.7799470 114.3134900
  11.5824860 135.9966790 113.9070870  11.8517960 137.4688570 114.1352200
   8.1949790 138.1636050 119.7265220   7.3809630 138.5933210 119.9891010
   8.6023990 138.7754460 119.1134270  10.2575230 136.2183740 106.6265490
  10.5324070 137.1262620 106.4984710  10.0685970 136.1546270 107.5627480
   6.6550840 129.2428590 107.9219120   7.0735720 129.0559570 107.0815780
   6.3486900 128.3907640 108.2322050  10.1540570 134.1552730 111.6194920
   9.7784170 133.3880660 111.1876210   9.4243690 134.5375430 112.1069850
   9.5440190 133.3024250 121.2534440   9.3126280 133.0737000 120.3532390
   9.8044740 134.2223800 121.2079330   7.9828260 128.5280680 124.0314140
   8.8598440 128.5364080 124.4148140   7.9949100 127.7911520 123.4206490
   9.4291530 132.3810220 114.9202160   9.9529010 131.8872870 114.2892330
  10.0150950 132.5160580 115.6649730   9.6081250 132.4650090 118.4421710
   8.6583960 132.4313630 118.5566700   9.7894260 133.3750200 118.2071480
   8.9191500 131.6383570 110.8594570   9.4150620 131.4054440 111.6443450
   8.7207570 130.7995410 110.4432210  10.3478660 130.2744520 113.3932250
  10.2377940 130.1200560 114.3314520  11.1086250 129.7465460 113.1507660
   8.6944380 126.2138650 119.8515250   9.3316600 126.8272790 120.2174440
   8.8419270 126.2499310 118.9064480  11.2368930 128.1052440 106.6338390
  12.1618240 127.9733620 106.4256680  11.2144720 128.1845260 107.5874840
  11.3107420 128.8763100 109.2595100  10.5158920 128.8108220 109.7888010
  11.5150700 129.8113740 109.2480450   8.2525840 142.9154650 113.2533490
   8.8484910 142.5939220 112.5767910   8.5103990 142.4426470 114.0446760
   2.0648860 127.3664840 122.7590350   2.0037750 127.9586670 123.5085760
   3.0049240 127.2590800 122.6140610   4.7023420 127.0234900 122.3982640
   5.3163830 127.3414190 121.7363720   5.2472980 126.5383490 123.0178500
  11.1198600 142.9226530 119.8044480  10.6256880 143.3195400 119.0871610
  10.5111890 142.2975740 120.1981760   5.4431460 125.5867040 118.7251930
   4.5691300 125.9202150 118.5224860   5.3342210 125.1140220 119.5503800
   6.3503440 127.7937910 120.1093650   6.0216800 126.9789670 119.7295380
   7.2985740 127.7507720 119.9859340   8.8038050 143.5649950 117.0831220
   8.3441020 144.3165760 116.7089240   8.1750510 142.8456420 117.0246020
   1.9729270 142.7646680 117.0848330   2.2607080 142.5100980 116.2081340
   2.4852490 142.2124040 117.6753900   3.1906280 126.5036880 117.6644840
   2.4078070 126.9782380 117.9441600   2.8969210 125.5991710 117.5558020
   7.7427350 127.2059980 115.7093930   8.1835440 127.1505080 114.8615530
   7.4734940 128.1217990 115.7804110   9.6065920 126.8375220 113.7202750
   9.5454320 125.8936440 113.5733770  10.3857950 126.9455310 114.2656210
   5.5785480 125.5866080 114.4143940   6.1814850 126.1586290 114.8892460
   4.8378470 126.1505520 114.1917840   8.7220080 125.9887640 109.6884220
   8.9170710 126.8871090 109.9551650   7.9349950 125.7574720 110.1817170
   2.0401630 143.6862780 124.4516530   2.9668940 143.4507050 124.4952490
   2.0252060 144.5134780 123.9702560  10.2746690 143.2288350 111.4490780
  10.4498880 142.5426090 110.8051700   9.5768260 143.7535400 111.0567450
   5.8280700 125.7661110 124.7938880   5.7146150 126.0855720 125.6890400
   6.6450440 126.1673620 124.4976160   8.6079190 142.9132640 124.2757570
   9.4004510 142.4181870 124.0683530   8.9012340 143.5922780 124.8833180
   4.7338850 133.7853580  95.1573620   4.6532900 132.8708190  94.8865330
   4.3203270 134.2820650  94.4513330   2.8656890 135.5632600  97.0382890
   2.0898990 135.0833040  97.3281460   3.5169820 134.8838250  96.8639050
   6.8864320 139.9692790  95.8182020   6.4245850 139.1980030  96.1469190
   7.6989870 139.9958860  96.3234470   3.1127630 142.2550800  95.4386010
   2.4939070 142.7108300  94.8680450   3.9679410 142.4102260  95.0375710
   2.3065880 138.2389790  97.0453050   2.2374160 137.2979730  96.8842180
   3.0685740 138.3291200  97.6175620   3.3371050 131.0460170  97.2721980
   3.7135870 130.1732050  97.1595650   3.2390560 131.3818870  96.3812420
   7.1195170 128.5410610  94.2050320   7.9404790 128.0507180  94.2475800
   7.1529250 129.1308270  94.9582160  11.4094720 130.5577360 100.7693950
  10.7046890 130.9459070 100.2509060  11.6752640 131.2527650 101.3714880
   3.9790980 137.1390040  92.8317920   3.3608250 137.6039490  92.2680640
   4.4914230 137.8317520  93.2487430   7.3556650 130.4810990  96.9777860
   6.6512220 130.7695880  97.5580970   7.7168810 131.2911100  96.6177420
   8.9719430 140.0986120  99.2405340   8.2882950 140.7685230  99.2322010
   9.5113720 140.2966770  98.4750200  10.4243570 129.9265780  97.3687070
   9.4768480 129.9604760  97.5002500  10.7493560 130.7404730  97.7536430
   6.5078170 141.9430250  97.9550520   6.5205330 141.5392540  97.0872780
   5.9553390 142.7177540  97.8511950   7.8023590 138.6646470  93.0440690
   7.6919920 137.7220800  93.1690110   7.7991840 139.0262110  93.9303450
   5.9063610 136.8460090  99.2833130   6.3232400 136.6320200  98.4486590
   6.6303430 137.1032880  99.8541750   3.3443870 134.2911790  92.4003180
   2.4173150 134.2249170  92.6291650   3.4968690 135.2291920  92.2858420
   3.3312950 130.5628790  89.3970340   2.3916620 130.7242750  89.4822800
   3.6496210 131.2814470  88.8506330   9.8525710 135.2447310  99.3749370
   9.0244340 135.3140400  98.8999500  10.4476190 135.8301620  98.9065200
   7.3741160 135.8532090  92.9038430   6.7553580 135.5151640  92.2564730
   7.3565610 135.2091850  93.6117620   6.8167720 132.0316630 100.3204240
   6.4038900 132.8570340 100.5744230   6.0843670 131.4461670 100.1280600
   7.5067820 142.0775960 101.0085220   7.0298380 142.8848150 100.8157830
   6.8229610 141.4254290 101.1611430   5.5505860 135.0918900  89.9111180
   5.9899140 134.2541330  89.7649000   6.2634280 135.7248300  89.9975320
   3.6601240 140.0314970  93.8792420   4.0997150 140.7739300  93.4647810
   3.5988130 140.2741540  94.8031380   9.1323000 126.3461710  88.2252220
   8.8195660 126.4388540  89.1251290   9.8935470 126.9242740  88.1749650
  11.0867030 141.8387900 106.0776610  11.5626750 142.3170790 106.7565690
  11.7074190 141.7705390 105.3522110  10.4900280 139.0300750 103.2376620
  10.6163340 138.7912630 102.3193800  10.5321660 138.1985290 103.7098700
   4.3517020 142.7328750 101.8071430   4.8661690 142.6436760 102.6093860
   3.5086100 143.0788450 102.0999340   6.3271420 143.0184090  91.2355430
   6.1672560 142.7287030  92.1337260   6.1618130 142.2424220  90.7000660
   6.0297550 140.5271650  89.7953430   5.3362710 140.5248940  89.1355710
   6.7720410 140.1030970  89.3647600   5.5947480 142.1534360  93.8701920
   6.0504430 141.3723740  94.1840540   5.9340000 142.8641180  94.4143100
  10.3424290 131.0833210 104.2026360   9.7268560 131.5912880 103.6741820
  10.0220710 130.1831540 104.1452300   2.4038610 129.9225100 101.6688550
   1.9417980 130.1308120 102.4808490   2.0016720 129.1084450 101.3659220
   7.4043120 131.1434050 102.7985210   6.5536710 130.8439800 103.1194280
   7.2444910 131.3876060 101.8869030   4.4992830 132.6435800 104.8984000
   4.8246240 131.8099550 104.5586230   5.2873160 133.1664320 105.0462330
   5.1380780 132.1853520  92.3925130   4.5389670 132.9089320  92.2088750
   5.6860390 132.1230300  91.6101580   3.7445650 130.8217060  94.4228410
   4.1375220 131.1389260  93.6097100   4.1062500 129.9428940  94.5372930
   2.0537820 129.5724370 105.6825270   1.3636140 129.3796570 106.3171360
   2.7970120 129.8559010 106.2149570   4.3300790 133.4122810  98.5179190
   3.5981910 133.9209620  98.8669290   3.9325130 132.5952790  98.2167970
   4.7926700 128.8656490  97.9302130   4.8099440 129.3165140  98.7743980
   4.5442280 127.9662130  98.1435570   8.2197450 126.2788670 103.7688510
   8.5443220 125.5478330 104.2946490   8.2553960 125.9602310 102.8669500
   8.1455290 136.3913780  97.3774540   8.8654410 136.8869070  96.9870650
   7.9437110 135.7131670  96.7328410   3.6065230 127.7851740  91.5203930
   2.7929840 127.2864910  91.4449240   3.4127180 128.6249990  91.1040280
   3.5274090 136.4622840 103.2643540   3.4611400 135.5418510 103.0101130
   2.8979230 136.5598280 103.9788180   6.3213620 132.1571390  89.8166090
   7.2093240 132.4688620  89.6417430   6.2918710 131.2843640  89.4246670
   2.3174210 138.3295080  90.4954260   2.6589910 139.0737310  89.9997580
   1.4886920 138.6426200  90.8579090   3.4590820 139.2843410 103.0147340
   3.4735360 138.3524370 102.7966250   2.7515920 139.3703170 103.6537110
   8.5927890 133.4683230  89.2845950   8.5091610 133.8997450  88.4342390
   9.3122080 133.9281580  89.7172770   9.6702030 135.9250750 102.3615920
   8.9450220 136.5179530 102.1645310  10.1977490 135.9174290 101.5629290
   9.6215140 140.3225490  92.0128080   8.9791300 139.6681110  92.2871800
   9.2345800 140.7280580  91.2368750   5.2001620 137.6510920  95.8599770
   5.5525440 137.0539050  95.2001140   4.3163950 137.3255150  96.0308020
   2.8924720 140.9260980 100.1087840   3.5366940 141.1320360 100.7861260
   3.2554160 140.1649380  99.6558690   4.1656800 138.9293330  98.8265290
   4.8079030 138.2286490  98.9397460   4.6906150 139.7091770  98.6462180
   8.0112520 139.2141950  88.5504430   7.7850100 138.4972390  89.1429070
   7.6208720 138.9654390  87.7126180   5.9394420 139.7288230 102.0301350
   6.2750660 140.3154920 102.7079270   5.0194760 139.5980940 102.2599140
   7.5928770 137.1313890  90.2118590   7.3050470 137.5926580  90.9996470
   8.3880940 136.6711660  90.4802810   1.7683000 139.7779560 105.1989410
   1.4479870 139.0588800 105.7435100   1.0941360 140.4534630 105.2725470
   4.9836600 130.0105720 100.5626210   5.3517420 129.1900930 100.8905780
   4.1234800 130.0707610 100.9781860   8.3498630 128.9662660  91.3713770
   7.7211790 129.0708330  90.6572000   7.8550550 129.1859440  92.1607650
   2.7956770 140.6868250  88.8047750   2.8968750 140.4832240  87.8749730
   1.8958510 140.4326530  89.0095530   1.9438590 132.6645310 100.7864180
   2.4423840 133.1391130 101.4516030   2.0861540 131.7408830 100.9934210
   4.3498090 127.9699270  94.2267440   4.2265870 127.9885400  93.2776950
   5.2982650 128.0178210  94.3465840   9.1505450 128.8813270 101.6292570
   8.6479050 129.6218670 101.9686380   9.9662110 129.2697270 101.3129360
   7.4427460 134.1246450  95.0753930   6.5017600 134.1396680  95.2501620
   7.7571530 133.3382410  95.5214230   9.4453040 141.2955300  96.7508190
   9.5700460 142.1186470  97.2232000  10.3118600 141.0846030  96.4032340
   4.7593480 138.6812450 105.5586310   4.1531640 138.7044050 104.8182060
   4.4547590 137.9495490 106.0953560   6.1893850 142.4092740 104.1695720
   7.1415600 142.3250760 104.1195960   6.0422070 143.0734450 104.8429510
   9.0803050 141.7886950  89.6687630   8.7944560 141.3752090  88.8541810
   8.8822600 142.7174660  89.5488150   3.7853010 136.8440260  88.7135230
   3.2363110 137.2909560  89.3577970   4.4072270 136.3389510  89.2372900
   7.8387950 138.1982360 104.6457490   8.5797420 138.5358120 104.1424950
   7.0760630 138.3674420 104.0927260   1.9655770 134.8268790  87.8577630
   2.4861430 134.1117810  87.4918780   2.6124170 135.4654660  88.1578140
   6.5133610 136.2497190 103.1812700   6.9274630 136.4042270 104.0303120
   5.5784610 136.3752410 103.3438480   6.9855780 133.5893350 105.1851850
   7.5676550 132.8345670 105.0972330   7.1617550 134.1200790 104.4083330
   3.6112740 133.9333850 102.5346470   3.7308950 133.3374990 103.2741310
   4.4706740 133.9703540 102.1147770   5.9500640 134.4871040 101.1108980
   5.4235860 135.0113660 100.5074120   6.2931980 135.1198430 101.7418710
   5.1974940 130.0921010 104.0255310   4.5090460 129.4302550 103.9605300
   5.9180960 129.6459280 104.4703770   5.8275340 126.6872640  90.0845570
   6.1077630 125.8440540  90.4404990   5.0541070 126.9195750  90.5984320
   1.9818470 143.7421890 102.5253010   1.9077170 144.6457030 102.8325380
   1.0797310 143.4233790 102.4975080   2.5303800 142.9080400  90.1479370
   3.4254590 143.2465370  90.1698130   2.5621430 142.1859810  89.5203650
   9.5098150 141.4384070 102.8545570   8.9100140 141.4976630 102.1109490
   9.6392050 140.4989050 102.9842420  10.7499600 139.1801890  88.1915280
   9.9192560 139.2478540  88.6622510  10.9271430 140.0706010  87.8882140
  10.2056060 135.9249370  90.6949480  10.9674970 136.4946020  90.8009170
  10.2210430 135.3576570  91.4657790  11.2116030 136.7799470  95.5391410
  11.5824860 135.9966790  95.1327380  11.8517960 137.4688570  95.3608710
   8.1949790 138.1636050 100.9521730   7.3809630 138.5933210 101.2147520
   8.6023990 138.7754460 100.3390780  10.2575230 136.2183740  87.8522000
  10.5324070 137.1262620  87.7241220  10.0685970 136.1546270  88.7883990
   6.6550840 129.2428590  89.1475630   7.0735720 129.0559570  88.3072290
   6.3486900 128.3907640  89.4578560  10.1540570 134.1552730  92.8451430
   9.7784170 133.3880660  92.4132720   9.4243690 134.5375430  93.3326360
   9.5440190 133.3024250 102.4790950   9.3126280 133.0737000 101.5788900
   9.8044740 134.2223800 102.4335840   7.9828260 128.5280680 105.2570650
   8.8598440 128.5364080 105.6404650   7.9949100 127.7911520 104.6463000
   9.4291530 132.3810220  96.1458670   9.9529010 131.8872870  95.5148840
  10.0150950 132.5160580  96.8906240   9.6081250 132.4650090  99.6678220
   8.6583960 132.4313630  99.7823210   9.7894260 133.3750200  99.4327990
   8.9191500 131.6383570  92.0851080   9.4150620 131.4054440  92.8699960
   8.7207570 130.7995410  91.6688720  10.3478660 130.2744520  94.6188760
  10.2377940 130.1200560  95.5571030  11.1086250 129.7465460  94.3764170
   8.6944380 126.2138650 101.0771760   9.3316600 126.8272790 101.4430950
   8.8419270 126.2499310 100.1320990  11.2368930 128.1052440  87.8594900
  12.1618240 127.9733620  87.6513190  11.2144720 128.1845260  88.8131350
  11.3107420 128.8763100  90.4851610  10.5158920 128.8108220  91.0144520
  11.5150700 129.8113740  90.4736960   8.2525840 142.9154650  94.4790000
   8.8484910 142.5939220  93.8024420   8.5103990 142.4426470  95.2703270
   2.0648860 127.3664840 103.9846860   2.0037750 127.9586670 104.7342270
   3.0049240 127.2590800 103.8397120   4.7023420 127.0234900 103.6239150
   5.3163830 127.3414190 102.9620230   5.2472980 126.5383490 104.2435010
  11.1198600 142.9226530 101.0300990  10.6256880 143.3195400 100.3128120
  10.5111890 142.2975740 101.4238270   5.4431460 125.5867040  99.9508440
   4.5691300 125.9202150  99.7481370   5.3342210 125.1140220 100.7760310
   6.3503440 127.7937910 101.3350160   6.0216800 126.9789670 100.9551890
   7.2985740 127.7507720 101.2115850   8.8038050 143.5649950  98.3087730
   8.3441020 144.3165760  97.9345750   8.1750510 142.8456420  98.2502530
   1.9729270 142.7646680  98.3104840   2.2607080 142.5100980  97.4337850
   2.4852490 142.2124040  98.9010410   3.1906280 126.5036880  98.8901350
   2.4078070 126.9782380  99.1698110   2.8969210 125.5991710  98.7814530
   7.7427350 127.2059980  96.9350440   8.1835440 127.1505080  96.0872040
   7.4734940 128.1217990  97.0060620   9.6065920 126.8375220  94.9459260
   9.5454320 125.8936440  94.7990280  10.3857950 126.9455310  95.4912720
   5.5785480 125.5866080  95.6400450   6.1814850 126.1586290  96.1148970
   4.8378470 126.1505520  95.4174350   8.7220080 125.9887640  90.9140730
   8.9170710 126.8871090  91.1808160   7.9349950 125.7574720  91.4073680
   2.0401630 143.6862780 105.6773040   2.9668940 143.4507050 105.7209000
   2.0252060 144.5134780 105.1959070  10.2746690 143.2288350  92.6747290
  10.4498880 142.5426090  92.0308210   9.5768260 143.7535400  92.2823960
   5.8280700 125.7661110 106.0195390   5.7146150 126.0855720 106.9146910
   6.6450440 126.1673620 105.7232670   8.6079190 142.9132640 105.5014080
   9.4004510 142.4181870 105.2940040   8.9012340 143.5922780 106.1089690
   4.7338850 133.7853580  76.3830130   4.6532900 132.8708190  76.1121840
   4.3203270 134.2820650  75.6769840   2.8656890 135.5632600  78.2639400
   2.0898990 135.0833040  78.5537970   3.5169820 134.8838250  78.0895560
   6.8864320 139.9692790  77.0438530   6.4245850 139.1980030  77.3725700
   7.6989870 139.9958860  77.5490980   3.1127630 142.2550800  76.6642520
   2.4939070 142.7108300  76.0936960   3.9679410 142.4102260  76.2632220
   2.3065880 138.2389790  78.2709560   2.2374160 137.2979730  78.1098690
   3.0685740 138.3291200  78.8432130   3.3371050 131.0460170  78.4978490
   3.7135870 130.1732050  78.3852160   3.2390560 131.3818870  77.6068930
   7.1195170 128.5410610  75.4306830   7.9404790 128.0507180  75.4732310
   7.1529250 129.1308270  76.1838670  11.4094720 130.5577360  81.9950460
  10.7046890 130.9459070  81.4765570  11.6752640 131.2527650  82.5971390
   3.9790980 137.1390040  74.0574430   3.3608250 137.6039490  73.4937150
   4.4914230 137.8317520  74.4743940   7.3556650 130.4810990  78.2034370
   6.6512220 130.7695880  78.7837480   7.7168810 131.2911100  77.8433930
   8.9719430 140.0986120  80.4661850   8.2882950 140.7685230  80.4578520
   9.5113720 140.2966770  79.7006710  10.4243570 129.9265780  78.5943580
   9.4768480 129.9604760  78.7259010  10.7493560 130.7404730  78.9792940
   6.5078170 141.9430250  79.1807030   6.5205330 141.5392540  78.3129290
   5.9553390 142.7177540  79.0768460   7.8023590 138.6646470  74.2697200
   7.6919920 137.7220800  74.3946620   7.7991840 139.0262110  75.1559960
   5.9063610 136.8460090  80.5089640   6.3232400 136.6320200  79.6743100
   6.6303430 137.1032880  81.0798260   3.3443870 134.2911790  73.6259690
   2.4173150 134.2249170  73.8548160   3.4968690 135.2291920  73.5114930
   3.3312950 130.5628790  70.6226850   2.3916620 130.7242750  70.7079310
   3.6496210 131.2814470  70.0762840   9.8525710 135.2447310  80.6005880
   9.0244340 135.3140400  80.1256010  10.4476190 135.8301620  80.1321710
   7.3741160 135.8532090  74.1294940   6.7553580 135.5151640  73.4821240
   7.3565610 135.2091850  74.8374130   6.8167720 132.0316630  81.5460750
   6.4038900 132.8570340  81.8000740   6.0843670 131.4461670  81.3537110
   7.5067820 142.0775960  82.2341730   7.0298380 142.8848150  82.0414340
   6.8229610 141.4254290  82.3867940   5.5505860 135.0918900  71.1367690
   5.9899140 134.2541330  70.9905510   6.2634280 135.7248300  71.2231830
   3.6601240 140.0314970  75.1048930   4.0997150 140.7739300  74.6904320
   3.5988130 140.2741540  76.0287890   9.1323000 126.3461710  69.4508730
   8.8195660 126.4388540  70.3507800   9.8935470 126.9242740  69.4006160
  11.0867030 141.8387900  87.3033120  11.5626750 142.3170790  87.9822200
  11.7074190 141.7705390  86.5778620  10.4900280 139.0300750  84.4633130
  10.6163340 138.7912630  83.5450310  10.5321660 138.1985290  84.9355210
   4.3517020 142.7328750  83.0327940   4.8661690 142.6436760  83.8350370
   3.5086100 143.0788450  83.3255850   6.3271420 143.0184090  72.4611940
   6.1672560 142.7287030  73.3593770   6.1618130 142.2424220  71.9257170
   6.0297550 140.5271650  71.0209940   5.3362710 140.5248940  70.3612220
   6.7720410 140.1030970  70.5904110   5.5947480 142.1534360  75.0958430
   6.0504430 141.3723740  75.4097050   5.9340000 142.8641180  75.6399610
  10.3424290 131.0833210  85.4282870   9.7268560 131.5912880  84.8998330
  10.0220710 130.1831540  85.3708810   2.4038610 129.9225100  82.8945060
   1.9417980 130.1308120  83.7065000   2.0016720 129.1084450  82.5915730
   7.4043120 131.1434050  84.0241720   6.5536710 130.8439800  84.3450790
   7.2444910 131.3876060  83.1125540   4.4992830 132.6435800  86.1240510
   4.8246240 131.8099550  85.7842740   5.2873160 133.1664320  86.2718840
   5.1380780 132.1853520  73.6181640   4.5389670 132.9089320  73.4345260
   5.6860390 132.1230300  72.8358090   3.7445650 130.8217060  75.6484920
   4.1375220 131.1389260  74.8353610   4.1062500 129.9428940  75.7629440
   2.0537820 129.5724370  86.9081780   1.3636140 129.3796570  87.5427870
   2.7970120 129.8559010  87.4406080   4.3300790 133.4122810  79.7435700
   3.5981910 133.9209620  80.0925800   3.9325130 132.5952790  79.4424480
   4.7926700 128.8656490  79.1558640   4.8099440 129.3165140  80.0000490
   4.5442280 127.9662130  79.3692080   8.2197450 126.2788670  84.9945020
   8.5443220 125.5478330  85.5203000   8.2553960 125.9602310  84.0926010
   8.1455290 136.3913780  78.6031050   8.8654410 136.8869070  78.2127160
   7.9437110 135.7131670  77.9584920   3.6065230 127.7851740  72.7460440
   2.7929840 127.2864910  72.6705750   3.4127180 128.6249990  72.3296790
   3.5274090 136.4622840  84.4900050   3.4611400 135.5418510  84.2357640
   2.8979230 136.5598280  85.2044690   6.3213620 132.1571390  71.0422600
   7.2093240 132.4688620  70.8673940   6.2918710 131.2843640  70.6503180
   2.3174210 138.3295080  71.7210770   2.6589910 139.0737310  71.2254090
   1.4886920 138.6426200  72.0835600   3.4590820 139.2843410  84.2403850
   3.4735360 138.3524370  84.0222760   2.7515920 139.3703170  84.8793620
   8.5927890 133.4683230  70.5102460   8.5091610 133.8997450  69.6598900
   9.3122080 133.9281580  70.9429280   9.6702030 135.9250750  83.5872430
   8.9450220 136.5179530  83.3901820  10.1977490 135.9174290  82.7885800
   9.6215140 140.3225490  73.2384590   8.9791300 139.6681110  73.5128310
   9.2345800 140.7280580  72.4625260   5.2001620 137.6510920  77.0856280
   5.5525440 137.0539050  76.4257650   4.3163950 137.3255150  77.2564530
   2.8924720 140.9260980  81.3344350   3.5366940 141.1320360  82.0117770
   3.2554160 140.1649380  80.8815200   4.1656800 138.9293330  80.0521800
   4.8079030 138.2286490  80.1653970   4.6906150 139.7091770  79.8718690
   8.0112520 139.2141950  69.7760940   7.7850100 138.4972390  70.3685580
   7.6208720 138.9654390  68.9382690   5.9394420 139.7288230  83.2557860
   6.2750660 140.3154920  83.9335780   5.0194760 139.5980940  83.4855650
   7.5928770 137.1313890  71.4375100   7.3050470 137.5926580  72.2252980
   8.3880940 136.6711660  71.7059320   1.7683000 139.7779560  86.4245920
   1.4479870 139.0588800  86.9691610   1.0941360 140.4534630  86.4981980
   4.9836600 130.0105720  81.7882720   5.3517420 129.1900930  82.1162290
   4.1234800 130.0707610  82.2038370   8.3498630 128.9662660  72.5970280
   7.7211790 129.0708330  71.8828510   7.8550550 129.1859440  73.3864160
   2.7956770 140.6868250  70.0304260   2.8968750 140.4832240  69.1006240
   1.8958510 140.4326530  70.2352040   1.9438590 132.6645310  82.0120690
   2.4423840 133.1391130  82.6772540   2.0861540 131.7408830  82.2190720
   4.3498090 127.9699270  75.4523950   4.2265870 127.9885400  74.5033460
   5.2982650 128.0178210  75.5722350   9.1505450 128.8813270  82.8549080
   8.6479050 129.6218670  83.1942890   9.9662110 129.2697270  82.5385870
   7.4427460 134.1246450  76.3010440   6.5017600 134.1396680  76.4758130
   7.7571530 133.3382410  76.7470740   9.4453040 141.2955300  77.9764700
   9.5700460 142.1186470  78.4488510  10.3118600 141.0846030  77.6288850
   4.7593480 138.6812450  86.7842820   4.1531640 138.7044050  86.0438570
   4.4547590 137.9495490  87.3210070   6.1893850 142.4092740  85.3952230
   7.1415600 142.3250760  85.3452470   6.0422070 143.0734450  86.0686020
   9.0803050 141.7886950  70.8944140   8.7944560 141.3752090  70.0798320
   8.8822600 142.7174660  70.7744660   3.7853010 136.8440260  69.9391740
   3.2363110 137.2909560  70.5834480   4.4072270 136.3389510  70.4629410
   7.8387950 138.1982360  85.8714000   8.5797420 138.5358120  85.3681460
   7.0760630 138.3674420  85.3183770   1.9655770 134.8268790  69.0834140
   2.4861430 134.1117810  68.7175290   2.6124170 135.4654660  69.3834650
   6.5133610 136.2497190  84.4069210   6.9274630 136.4042270  85.2559630
   5.5784610 136.3752410  84.5694990   6.9855780 133.5893350  86.4108360
   7.5676550 132.8345670  86.3228840   7.1617550 134.1200790  85.6339840
   3.6112740 133.9333850  83.7602980   3.7308950 133.3374990  84.4997820
   4.4706740 133.9703540  83.3404280   5.9500640 134.4871040  82.3365490
   5.4235860 135.0113660  81.7330630   6.2931980 135.1198430  82.9675220
   5.1974940 130.0921010  85.2511820   4.5090460 129.4302550  85.1861810
   5.9180960 129.6459280  85.6960280   5.8275340 126.6872640  71.3102080
   6.1077630 125.8440540  71.6661500   5.0541070 126.9195750  71.8240830
   1.9818470 143.7421890  83.7509520   1.9077170 144.6457030  84.0581890
   1.0797310 143.4233790  83.7231590   2.5303800 142.9080400  71.3735880
   3.4254590 143.2465370  71.3954640   2.5621430 142.1859810  70.7460160
   9.5098150 141.4384070  84.0802080   8.9100140 141.4976630  83.3366000
   9.6392050 140.4989050  84.2098930  10.7499600 139.1801890  69.4171790
   9.9192560 139.2478540  69.8879020  10.9271430 140.0706010  69.1138650
  10.2056060 135.9249370  71.9205990  10.9674970 136.4946020  72.0265680
  10.2210430 135.3576570  72.6914300  11.2116030 136.7799470  76.7647920
  11.5824860 135.9966790  76.3583890  11.8517960 137.4688570  76.5865220
   8.1949790 138.1636050  82.1778240   7.3809630 138.5933210  82.4404030
   8.6023990 138.7754460  81.5647290  10.2575230 136.2183740  69.0778510
  10.5324070 137.1262620  68.9497730  10.0685970 136.1546270  70.0140500
   6.6550840 129.2428590  70.3732140   7.0735720 129.0559570  69.5328800
   6.3486900 128.3907640  70.6835070  10.1540570 134.1552730  74.0707940
   9.7784170 133.3880660  73.6389230   9.4243690 134.5375430  74.5582870
   9.5440190 133.3024250  83.7047460   9.3126280 133.0737000  82.8045410
   9.8044740 134.2223800  83.6592350   7.9828260 128.5280680  86.4827160
   8.8598440 128.5364080  86.8661160   7.9949100 127.7911520  85.8719510
   9.4291530 132.3810220  77.3715180   9.9529010 131.8872870  76.7405350
  10.0150950 132.5160580  78.1162750   9.6081250 132.4650090  80.8934730
   8.6583960 132.4313630  81.0079720   9.7894260 133.3750200  80.6584500
   8.9191500 131.6383570  73.3107590   9.4150620 131.4054440  74.0956470
   8.7207570 130.7995410  72.8945230  10.3478660 130.2744520  75.8445270
  10.2377940 130.1200560  76.7827540  11.1086250 129.7465460  75.6020680
   8.6944380 126.2138650  82.3028270   9.3316600 126.8272790  82.6687460
   8.8419270 126.2499310  81.3577500  11.2368930 128.1052440  69.0851410
  12.1618240 127.9733620  68.8769700  11.2144720 128.1845260  70.0387860
  11.3107420 128.8763100  71.7108120  10.5158920 128.8108220  72.2401030
  11.5150700 129.8113740  71.6993470   8.2525840 142.9154650  75.7046510
   8.8484910 142.5939220  75.0280930   8.5103990 142.4426470  76.4959780
   2.0648860 127.3664840  85.2103370   2.0037750 127.9586670  85.9598780
   3.0049240 127.2590800  85.0653630   4.7023420 127.0234900  84.8495660
   5.3163830 127.3414190  84.1876740   5.2472980 126.5383490  85.4691520
  11.1198600 142.9226530  82.2557500  10.6256880 143.3195400  81.5384630
  10.5111890 142.2975740  82.6494780   5.4431460 125.5867040  81.1764950
   4.5691300 125.9202150  80.9737880   5.3342210 125.1140220  82.0016820
   6.3503440 127.7937910  82.5606670   6.0216800 126.9789670  82.1808400
   7.2985740 127.7507720  82.4372360   8.8038050 143.5649950  79.5344240
   8.3441020 144.3165760  79.1602260   8.1750510 142.8456420  79.4759040
   1.9729270 142.7646680  79.5361350   2.2607080 142.5100980  78.6594360
   2.4852490 142.2124040  80.1266920   3.1906280 126.5036880  80.1157860
   2.4078070 126.9782380  80.3954620   2.8969210 125.5991710  80.0071040
   7.7427350 127.2059980  78.1606950   8.1835440 127.1505080  77.3128550
   7.4734940 128.1217990  78.2317130   9.6065920 126.8375220  76.1715770
   9.5454320 125.8936440  76.0246790  10.3857950 126.9455310  76.7169230
   5.5785480 125.5866080  76.8656960   6.1814850 126.1586290  77.3405480
   4.8378470 126.1505520  76.6430860   8.7220080 125.9887640  72.1397240
   8.9170710 126.8871090  72.4064670   7.9349950 125.7574720  72.6330190
   2.0401630 143.6862780  86.9029550   2.9668940 143.4507050  86.9465510
   2.0252060 144.5134780  86.4215580  10.2746690 143.2288350  73.9003800
  10.4498880 142.5426090  73.2564720   9.5768260 143.7535400  73.5080470
   5.8280700 125.7661110  87.2451900   5.7146150 126.0855720  88.1403420
   6.6450440 126.1673620  86.9489180   8.6079190 142.9132640  86.7270590
   9.4004510 142.4181870  86.5196550   8.9012340 143.5922780  87.3346200
   4.7338850 133.7853580  57.6086640   4.6532900 132.8708190  57.3378350
   4.3203270 134.2820650  56.9026350   2.8656890 135.5632600  59.4895910
   2.0898990 135.0833040  59.7794480   3.5169820 134.8838250  59.3152070
   6.8864320 139.9692790  58.2695040   6.4245850 139.1980030  58.5982210
   7.6989870 139.9958860  58.7747490   3.1127630 142.2550800  57.8899030
   2.4939070 142.7108300  57.3193470   3.9679410 142.4102260  57.4888730
   2.3065880 138.2389790  59.4966070   2.2374160 137.2979730  59.3355200
   3.0685740 138.3291200  60.0688640   3.3371050 131.0460170  59.7235000
   3.7135870 130.1732050  59.6108670   3.2390560 131.3818870  58.8325440
   7.1195170 128.5410610  56.6563340   7.9404790 128.0507180  56.6988820
   7.1529250 129.1308270  57.4095180  11.4094720 130.5577360  63.2206970
  10.7046890 130.9459070  62.7022080  11.6752640 131.2527650  63.8227900
   3.9790980 137.1390040  55.2830940   3.3608250 137.6039490  54.7193660
   4.4914230 137.8317520  55.7000450   7.3556650 130.4810990  59.4290880
   6.6512220 130.7695880  60.0093990   7.7168810 131.2911100  59.0690440
   8.9719430 140.0986120  61.6918360   8.2882950 140.7685230  61.6835030
   9.5113720 140.2966770  60.9263220  10.4243570 129.9265780  59.8200090
   9.4768480 129.9604760  59.9515520  10.7493560 130.7404730  60.2049450
   6.5078170 141.9430250  60.4063540   6.5205330 141.5392540  59.5385800
   5.9553390 142.7177540  60.3024970   7.8023590 138.6646470  55.4953710
   7.6919920 137.7220800  55.6203130   7.7991840 139.0262110  56.3816470
   5.9063610 136.8460090  61.7346150   6.3232400 136.6320200  60.8999610
   6.6303430 137.1032880  62.3054770   3.3443870 134.2911790  54.8516200
   2.4173150 134.2249170  55.0804670   3.4968690 135.2291920  54.7371440
   3.3312950 130.5628790  51.8483360   2.3916620 130.7242750  51.9335820
   3.6496210 131.2814470  51.3019350   9.8525710 135.2447310  61.8262390
   9.0244340 135.3140400  61.3512520  10.4476190 135.8301620  61.3578220
   7.3741160 135.8532090  55.3551450   6.7553580 135.5151640  54.7077750
   7.3565610 135.2091850  56.0630640   6.8167720 132.0316630  62.7717260
   6.4038900 132.8570340  63.0257250   6.0843670 131.4461670  62.5793620
   7.5067820 142.0775960  63.4598240   7.0298380 142.8848150  63.2670850
   6.8229610 141.4254290  63.6124450   5.5505860 135.0918900  52.3624200
   5.9899140 134.2541330  52.2162020   6.2634280 135.7248300  52.4488340
   3.6601240 140.0314970  56.3305440   4.0997150 140.7739300  55.9160830
   3.5988130 140.2741540  57.2544400   9.1323000 126.3461710  50.6765240
   8.8195660 126.4388540  51.5764310   9.8935470 126.9242740  50.6262670
  11.0867030 141.8387900  68.5289630  11.5626750 142.3170790  69.2078710
  11.7074190 141.7705390  67.8035130  10.4900280 139.0300750  65.6889640
  10.6163340 138.7912630  64.7706820  10.5321660 138.1985290  66.1611720
   4.3517020 142.7328750  64.2584450   4.8661690 142.6436760  65.0606880
   3.5086100 143.0788450  64.5512360   6.3271420 143.0184090  53.6868450
   6.1672560 142.7287030  54.5850280   6.1618130 142.2424220  53.1513680
   6.0297550 140.5271650  52.2466450   5.3362710 140.5248940  51.5868730
   6.7720410 140.1030970  51.8160620   5.5947480 142.1534360  56.3214940
   6.0504430 141.3723740  56.6353560   5.9340000 142.8641180  56.8656120
  10.3424290 131.0833210  66.6539380   9.7268560 131.5912880  66.1254840
  10.0220710 130.1831540  66.5965320   2.4038610 129.9225100  64.1201570
   1.9417980 130.1308120  64.9321510   2.0016720 129.1084450  63.8172240
   7.4043120 131.1434050  65.2498230   6.5536710 130.8439800  65.5707300
   7.2444910 131.3876060  64.3382050   4.4992830 132.6435800  67.3497020
   4.8246240 131.8099550  67.0099250   5.2873160 133.1664320  67.4975350
   5.1380780 132.1853520  54.8438150   4.5389670 132.9089320  54.6601770
   5.6860390 132.1230300  54.0614600   3.7445650 130.8217060  56.8741430
   4.1375220 131.1389260  56.0610120   4.1062500 129.9428940  56.9885950
   2.0537820 129.5724370  68.1338290   1.3636140 129.3796570  68.7684380
   2.7970120 129.8559010  68.6662590   4.3300790 133.4122810  60.9692210
   3.5981910 133.9209620  61.3182310   3.9325130 132.5952790  60.6680990
   4.7926700 128.8656490  60.3815150   4.8099440 129.3165140  61.2257000
   4.5442280 127.9662130  60.5948590   8.2197450 126.2788670  66.2201530
   8.5443220 125.5478330  66.7459510   8.2553960 125.9602310  65.3182520
   8.1455290 136.3913780  59.8287560   8.8654410 136.8869070  59.4383670
   7.9437110 135.7131670  59.1841430   3.6065230 127.7851740  53.9716950
   2.7929840 127.2864910  53.8962260   3.4127180 128.6249990  53.5553300
   3.5274090 136.4622840  65.7156560   3.4611400 135.5418510  65.4614150
   2.8979230 136.5598280  66.4301200   6.3213620 132.1571390  52.2679110
   7.2093240 132.4688620  52.0930450   6.2918710 131.2843640  51.8759690
   2.3174210 138.3295080  52.9467280   2.6589910 139.0737310  52.4510600
   1.4886920 138.6426200  53.3092110   3.4590820 139.2843410  65.4660360
   3.4735360 138.3524370  65.2479270   2.7515920 139.3703170  66.1050130
   8.5927890 133.4683230  51.7358970   8.5091610 133.8997450  50.8855410
   9.3122080 133.9281580  52.1685790   9.6702030 135.9250750  64.8128940
   8.9450220 136.5179530  64.6158330  10.1977490 135.9174290  64.0142310
   9.6215140 140.3225490  54.4641100   8.9791300 139.6681110  54.7384820
   9.2345800 140.7280580  53.6881770   5.2001620 137.6510920  58.3112790
   5.5525440 137.0539050  57.6514160   4.3163950 137.3255150  58.4821040
   2.8924720 140.9260980  62.5600860   3.5366940 141.1320360  63.2374280
   3.2554160 140.1649380  62.1071710   4.1656800 138.9293330  61.2778310
   4.8079030 138.2286490  61.3910480   4.6906150 139.7091770  61.0975200
   8.0112520 139.2141950  51.0017450   7.7850100 138.4972390  51.5942090
   7.6208720 138.9654390  50.1639200   5.9394420 139.7288230  64.4814370
   6.2750660 140.3154920  65.1592290   5.0194760 139.5980940  64.7112160
   7.5928770 137.1313890  52.6631610   7.3050470 137.5926580  53.4509490
   8.3880940 136.6711660  52.9315830   1.7683000 139.7779560  67.6502430
   1.4479870 139.0588800  68.1948120   1.0941360 140.4534630  67.7238490
   4.9836600 130.0105720  63.0139230   5.3517420 129.1900930  63.3418800
   4.1234800 130.0707610  63.4294880   8.3498630 128.9662660  53.8226790
   7.7211790 129.0708330  53.1085020   7.8550550 129.1859440  54.6120670
   2.7956770 140.6868250  51.2560770   2.8968750 140.4832240  50.3262750
   1.8958510 140.4326530  51.4608550   1.9438590 132.6645310  63.2377200
   2.4423840 133.1391130  63.9029050   2.0861540 131.7408830  63.4447230
   4.3498090 127.9699270  56.6780460   4.2265870 127.9885400  55.7289970
   5.2982650 128.0178210  56.7978860   9.1505450 128.8813270  64.0805590
   8.6479050 129.6218670  64.4199400   9.9662110 129.2697270  63.7642380
   7.4427460 134.1246450  57.5266950   6.5017600 134.1396680  57.7014640
   7.7571530 133.3382410  57.9727250   9.4453040 141.2955300  59.2021210
   9.5700460 142.1186470  59.6745020  10.3118600 141.0846030  58.8545360
   4.7593480 138.6812450  68.0099330   4.1531640 138.7044050  67.2695080
   4.4547590 137.9495490  68.5466580   6.1893850 142.4092740  66.6208740
   7.1415600 142.3250760  66.5708980   6.0422070 143.0734450  67.2942530
   9.0803050 141.7886950  52.1200650   8.7944560 141.3752090  51.3054830
   8.8822600 142.7174660  52.0001170   3.7853010 136.8440260  51.1648250
   3.2363110 137.2909560  51.8090990   4.4072270 136.3389510  51.6885920
   7.8387950 138.1982360  67.0970510   8.5797420 138.5358120  66.5937970
   7.0760630 138.3674420  66.5440280   1.9655770 134.8268790  50.3090650
   2.4861430 134.1117810  49.9431800   2.6124170 135.4654660  50.6091160
   6.5133610 136.2497190  65.6325720   6.9274630 136.4042270  66.4816140
   5.5784610 136.3752410  65.7951500   6.9855780 133.5893350  67.6364870
   7.5676550 132.8345670  67.5485350   7.1617550 134.1200790  66.8596350
   3.6112740 133.9333850  64.9859490   3.7308950 133.3374990  65.7254330
   4.4706740 133.9703540  64.5660790   5.9500640 134.4871040  63.5622000
   5.4235860 135.0113660  62.9587140   6.2931980 135.1198430  64.1931730
   5.1974940 130.0921010  66.4768330   4.5090460 129.4302550  66.4118320
   5.9180960 129.6459280  66.9216790   5.8275340 126.6872640  52.5358590
   6.1077630 125.8440540  52.8918010   5.0541070 126.9195750  53.0497340
   1.9818470 143.7421890  64.9766030   1.9077170 144.6457030  65.2838400
   1.0797310 143.4233790  64.9488100   2.5303800 142.9080400  52.5992390
   3.4254590 143.2465370  52.6211150   2.5621430 142.1859810  51.9716670
   9.5098150 141.4384070  65.3058590   8.9100140 141.4976630  64.5622510
   9.6392050 140.4989050  65.4355440  10.7499600 139.1801890  50.6428300
   9.9192560 139.2478540  51.1135530  10.9271430 140.0706010  50.3395160
  10.2056060 135.9249370  53.1462500  10.9674970 136.4946020  53.2522190
  10.2210430 135.3576570  53.9170810  11.2116030 136.7799470  57.9904430
  11.5824860 135.9966790  57.5840400  11.8517960 137.4688570  57.8121730
   8.1949790 138.1636050  63.4034750   7.3809630 138.5933210  63.6660540
   8.6023990 138.7754460  62.7903800  10.2575230 136.2183740  50.3035020
  10.5324070 137.1262620  50.1754240  10.0685970 136.1546270  51.2397010
   6.6550840 129.2428590  51.5988650   7.0735720 129.0559570  50.7585310
   6.3486900 128.3907640  51.9091580  10.1540570 134.1552730  55.2964450
   9.7784170 133.3880660  54.8645740   9.4243690 134.5375430  55.7839380
   9.5440190 133.3024250  64.9303970   9.3126280 133.0737000  64.0301920
   9.8044740 134.2223800  64.8848860   7.9828260 128.5280680  67.7083670
   8.8598440 128.5364080  68.0917670   7.9949100 127.7911520  67.0976020
   9.4291530 132.3810220  58.5971690   9.9529010 131.8872870  57.9661860
  10.0150950 132.5160580  59.3419260   9.6081250 132.4650090  62.1191240
   8.6583960 132.4313630  62.2336230   9.7894260 133.3750200  61.8841010
   8.9191500 131.6383570  54.5364100   9.4150620 131.4054440  55.3212980
   8.7207570 130.7995410  54.1201740  10.3478660 130.2744520  57.0701780
  10.2377940 130.1200560  58.0084050  11.1086250 129.7465460  56.8277190
   8.6944380 126.2138650  63.5284780   9.3316600 126.8272790  63.8943970
   8.8419270 126.2499310  62.5834010  11.2368930 128.1052440  50.3107920
  12.1618240 127.9733620  50.1026210  11.2144720 128.1845260  51.2644370
  11.3107420 128.8763100  52.9364630  10.5158920 128.8108220  53.4657540
  11.5150700 129.8113740  52.9249980   8.2525840 142.9154650  56.9303020
   8.8484910 142.5939220  56.2537440   8.5103990 142.4426470  57.7216290
   2.0648860 127.3664840  66.4359880   2.0037750 127.9586670  67.1855290
   3.0049240 127.2590800  66.2910140   4.7023420 127.0234900  66.0752170
   5.3163830 127.3414190  65.4133250   5.2472980 126.5383490  66.6948030
  11.1198600 142.9226530  63.4814010  10.6256880 143.3195400  62.7641140
  10.5111890 142.2975740  63.8751290   5.4431460 125.5867040  62.4021460
   4.5691300 125.9202150  62.1994390   5.3342210 125.1140220  63.2273330
   6.3503440 127.7937910  63.7863180   6.0216800 126.9789670  63.4064910
   7.2985740 127.7507720  63.6628870   8.8038050 143.5649950  60.7600750
   8.3441020 144.3165760  60.3858770   8.1750510 142.8456420  60.7015550
   1.9729270 142.7646680  60.7617860   2.2607080 142.5100980  59.8850870
   2.4852490 142.2124040  61.3523430   3.1906280 126.5036880  61.3414370
   2.4078070 126.9782380  61.6211130   2.8969210 125.5991710  61.2327550
   7.7427350 127.2059980  59.3863460   8.1835440 127.1505080  58.5385060
   7.4734940 128.1217990  59.4573640   9.6065920 126.8375220  57.3972280
   9.5454320 125.8936440  57.2503300  10.3857950 126.9455310  57.9425740
   5.5785480 125.5866080  58.0913470   6.1814850 126.1586290  58.5661990
   4.8378470 126.1505520  57.8687370   8.7220080 125.9887640  53.3653750
   8.9170710 126.8871090  53.6321180   7.9349950 125.7574720  53.8586700
   2.0401630 143.6862780  68.1286060   2.9668940 143.4507050  68.1722020
   2.0252060 144.5134780  67.6472090  10.2746690 143.2288350  55.1260310
  10.4498880 142.5426090  54.4821230   9.5768260 143.7535400  54.7336980
   5.8280700 125.7661110  68.4708410   5.7146150 126.0855720  69.3659930
   6.6450440 126.1673620  68.1745690   8.6079190 142.9132640  67.9527100
   9.4004510 142.4181870  67.7453060   8.9012340 143.5922780  68.5602710
   4.7338850 133.7853580  38.8343150   4.6532900 132.8708190  38.5634860
   4.3203270 134.2820650  38.1282860   2.8656890 135.5632600  40.7152420
   2.0898990 135.0833040  41.0050990   3.5169820 134.8838250  40.5408580
   6.8864320 139.9692790  39.4951550   6.4245850 139.1980030  39.8238720
   7.6989870 139.9958860  40.0004000   3.1127630 142.2550800  39.1155540
   2.4939070 142.7108300  38.5449980   3.9679410 142.4102260  38.7145240
   2.3065880 138.2389790  40.7222580   2.2374160 137.2979730  40.5611710
   3.0685740 138.3291200  41.2945150   3.3371050 131.0460170  40.9491510
   3.7135870 130.1732050  40.8365180   3.2390560 131.3818870  40.0581950
   7.1195170 128.5410610  37.8819850   7.9404790 128.0507180  37.9245330
   7.1529250 129.1308270  38.6351690  11.4094720 130.5577360  44.4463480
  10.7046890 130.9459070  43.9278590  11.6752640 131.2527650  45.0484410
   3.9790980 137.1390040  36.5087450   3.3608250 137.6039490  35.9450170
   4.4914230 137.8317520  36.9256960   7.3556650 130.4810990  40.6547390
   6.6512220 130.7695880  41.2350500   7.7168810 131.2911100  40.2946950
   8.9719430 140.0986120  42.9174870   8.2882950 140.7685230  42.9091540
   9.5113720 140.2966770  42.1519730  10.4243570 129.9265780  41.0456600
   9.4768480 129.9604760  41.1772030  10.7493560 130.7404730  41.4305960
   6.5078170 141.9430250  41.6320050   6.5205330 141.5392540  40.7642310
   5.9553390 142.7177540  41.5281480   7.8023590 138.6646470  36.7210220
   7.6919920 137.7220800  36.8459640   7.7991840 139.0262110  37.6072980
   5.9063610 136.8460090  42.9602660   6.3232400 136.6320200  42.1256120
   6.6303430 137.1032880  43.5311280   3.3443870 134.2911790  36.0772710
   2.4173150 134.2249170  36.3061180   3.4968690 135.2291920  35.9627950
   3.3312950 130.5628790  33.0739870   2.3916620 130.7242750  33.1592330
   3.6496210 131.2814470  32.5275860   9.8525710 135.2447310  43.0518900
   9.0244340 135.3140400  42.5769030  10.4476190 135.8301620  42.5834730
   7.3741160 135.8532090  36.5807960   6.7553580 135.5151640  35.9334260
   7.3565610 135.2091850  37.2887150   6.8167720 132.0316630  43.9973770
   6.4038900 132.8570340  44.2513760   6.0843670 131.4461670  43.8050130
   7.5067820 142.0775960  44.6854750   7.0298380 142.8848150  44.4927360
   6.8229610 141.4254290  44.8380960   5.5505860 135.0918900  33.5880710
   5.9899140 134.2541330  33.4418530   6.2634280 135.7248300  33.6744850
   3.6601240 140.0314970  37.5561950   4.0997150 140.7739300  37.1417340
   3.5988130 140.2741540  38.4800910   9.1323000 126.3461710  31.9021750
   8.8195660 126.4388540  32.8020820   9.8935470 126.9242740  31.8519180
  11.0867030 141.8387900  49.7546140  11.5626750 142.3170790  50.4335220
  11.7074190 141.7705390  49.0291640  10.4900280 139.0300750  46.9146150
  10.6163340 138.7912630  45.9963330  10.5321660 138.1985290  47.3868230
   4.3517020 142.7328750  45.4840960   4.8661690 142.6436760  46.2863390
   3.5086100 143.0788450  45.7768870   6.3271420 143.0184090  34.9124960
   6.1672560 142.7287030  35.8106790   6.1618130 142.2424220  34.3770190
   6.0297550 140.5271650  33.4722960   5.3362710 140.5248940  32.8125240
   6.7720410 140.1030970  33.0417130   5.5947480 142.1534360  37.5471450
   6.0504430 141.3723740  37.8610070   5.9340000 142.8641180  38.0912630
  10.3424290 131.0833210  47.8795890   9.7268560 131.5912880  47.3511350
  10.0220710 130.1831540  47.8221830   2.4038610 129.9225100  45.3458080
   1.9417980 130.1308120  46.1578020   2.0016720 129.1084450  45.0428750
   7.4043120 131.1434050  46.4754740   6.5536710 130.8439800  46.7963810
   7.2444910 131.3876060  45.5638560   4.4992830 132.6435800  48.5753530
   4.8246240 131.8099550  48.2355760   5.2873160 133.1664320  48.7231860
   5.1380780 132.1853520  36.0694660   4.5389670 132.9089320  35.8858280
   5.6860390 132.1230300  35.2871110   3.7445650 130.8217060  38.0997940
   4.1375220 131.1389260  37.2866630   4.1062500 129.9428940  38.2142460
   2.0537820 129.5724370  49.3594800   1.3636140 129.3796570  49.9940890
   2.7970120 129.8559010  49.8919100   4.3300790 133.4122810  42.1948720
   3.5981910 133.9209620  42.5438820   3.9325130 132.5952790  41.8937500
   4.7926700 128.8656490  41.6071660   4.8099440 129.3165140  42.4513510
   4.5442280 127.9662130  41.8205100   8.2197450 126.2788670  47.4458040
   8.5443220 125.5478330  47.9716020   8.2553960 125.9602310  46.5439030
   8.1455290 136.3913780  41.0544070   8.8654410 136.8869070  40.6640180
   7.9437110 135.7131670  40.4097940   3.6065230 127.7851740  35.1973460
   2.7929840 127.2864910  35.1218770   3.4127180 128.6249990  34.7809810
   3.5274090 136.4622840  46.9413070   3.4611400 135.5418510  46.6870660
   2.8979230 136.5598280  47.6557710   6.3213620 132.1571390  33.4935620
   7.2093240 132.4688620  33.3186960   6.2918710 131.2843640  33.1016200
   2.3174210 138.3295080  34.1723790   2.6589910 139.0737310  33.6767110
   1.4886920 138.6426200  34.5348620   3.4590820 139.2843410  46.6916870
   3.4735360 138.3524370  46.4735780   2.7515920 139.3703170  47.3306640
   8.5927890 133.4683230  32.9615480   8.5091610 133.8997450  32.1111920
   9.3122080 133.9281580  33.3942300   9.6702030 135.9250750  46.0385450
   8.9450220 136.5179530  45.8414840  10.1977490 135.9174290  45.2398820
   9.6215140 140.3225490  35.6897610   8.9791300 139.6681110  35.9641330
   9.2345800 140.7280580  34.9138280   5.2001620 137.6510920  39.5369300
   5.5525440 137.0539050  38.8770670   4.3163950 137.3255150  39.7077550
   2.8924720 140.9260980  43.7857370   3.5366940 141.1320360  44.4630790
   3.2554160 140.1649380  43.3328220   4.1656800 138.9293330  42.5034820
   4.8079030 138.2286490  42.6166990   4.6906150 139.7091770  42.3231710
   8.0112520 139.2141950  32.2273960   7.7850100 138.4972390  32.8198600
   7.6208720 138.9654390  31.3895710   5.9394420 139.7288230  45.7070880
   6.2750660 140.3154920  46.3848800   5.0194760 139.5980940  45.9368670
   7.5928770 137.1313890  33.8888120   7.3050470 137.5926580  34.6766000
   8.3880940 136.6711660  34.1572340   1.7683000 139.7779560  48.8758940
   1.4479870 139.0588800  49.4204630   1.0941360 140.4534630  48.9495000
   4.9836600 130.0105720  44.2395740   5.3517420 129.1900930  44.5675310
   4.1234800 130.0707610  44.6551390   8.3498630 128.9662660  35.0483300
   7.7211790 129.0708330  34.3341530   7.8550550 129.1859440  35.8377180
   2.7956770 140.6868250  32.4817280   2.8968750 140.4832240  31.5519260
   1.8958510 140.4326530  32.6865060   1.9438590 132.6645310  44.4633710
   2.4423840 133.1391130  45.1285560   2.0861540 131.7408830  44.6703740
   4.3498090 127.9699270  37.9036970   4.2265870 127.9885400  36.9546480
   5.2982650 128.0178210  38.0235370   9.1505450 128.8813270  45.3062100
   8.6479050 129.6218670  45.6455910   9.9662110 129.2697270  44.9898890
   7.4427460 134.1246450  38.7523460   6.5017600 134.1396680  38.9271150
   7.7571530 133.3382410  39.1983760   9.4453040 141.2955300  40.4277720
   9.5700460 142.1186470  40.9001530  10.3118600 141.0846030  40.0801870
   4.7593480 138.6812450  49.2355840   4.1531640 138.7044050  48.4951590
   4.4547590 137.9495490  49.7723090   6.1893850 142.4092740  47.8465250
   7.1415600 142.3250760  47.7965490   6.0422070 143.0734450  48.5199040
   9.0803050 141.7886950  33.3457160   8.7944560 141.3752090  32.5311340
   8.8822600 142.7174660  33.2257680   3.7853010 136.8440260  32.3904760
   3.2363110 137.2909560  33.0347500   4.4072270 136.3389510  32.9142430
   7.8387950 138.1982360  48.3227020   8.5797420 138.5358120  47.8194480
   7.0760630 138.3674420  47.7696790   1.9655770 134.8268790  31.5347160
   2.4861430 134.1117810  31.1688310   2.6124170 135.4654660  31.8347670
   6.5133610 136.2497190  46.8582230   6.9274630 136.4042270  47.7072650
   5.5784610 136.3752410  47.0208010   6.9855780 133.5893350  48.8621380
   7.5676550 132.8345670  48.7741860   7.1617550 134.1200790  48.0852860
   3.6112740 133.9333850  46.2116000   3.7308950 133.3374990  46.9510840
   4.4706740 133.9703540  45.7917300   5.9500640 134.4871040  44.7878510
   5.4235860 135.0113660  44.1843650   6.2931980 135.1198430  45.4188240
   5.1974940 130.0921010  47.7024840   4.5090460 129.4302550  47.6374830
   5.9180960 129.6459280  48.1473300   5.8275340 126.6872640  33.7615100
   6.1077630 125.8440540  34.1174520   5.0541070 126.9195750  34.2753850
   1.9818470 143.7421890  46.2022540   1.9077170 144.6457030  46.5094910
   1.0797310 143.4233790  46.1744610   2.5303800 142.9080400  33.8248900
   3.4254590 143.2465370  33.8467660   2.5621430 142.1859810  33.1973180
   9.5098150 141.4384070  46.5315100   8.9100140 141.4976630  45.7879020
   9.6392050 140.4989050  46.6611950  10.7499600 139.1801890  31.8684810
   9.9192560 139.2478540  32.3392040  10.9271430 140.0706010  31.5651670
  10.2056060 135.9249370  34.3719010  10.9674970 136.4946020  34.4778700
  10.2210430 135.3576570  35.1427320  11.2116030 136.7799470  39.2160940
  11.5824860 135.9966790  38.8096910  11.8517960 137.4688570  39.0378240
   8.1949790 138.1636050  44.6291260   7.3809630 138.5933210  44.8917050
   8.6023990 138.7754460  44.0160310  10.2575230 136.2183740  31.5291530
  10.5324070 137.1262620  31.4010750  10.0685970 136.1546270  32.4653520
   6.6550840 129.2428590  32.8245160   7.0735720 129.0559570  31.9841820
   6.3486900 128.3907640  33.1348090  10.1540570 134.1552730  36.5220960
   9.7784170 133.3880660  36.0902250   9.4243690 134.5375430  37.0095890
   9.5440190 133.3024250  46.1560480   9.3126280 133.0737000  45.2558430
   9.8044740 134.2223800  46.1105370   7.9828260 128.5280680  48.9340180
   8.8598440 128.5364080  49.3174180   7.9949100 127.7911520  48.3232530
   9.4291530 132.3810220  39.8228200   9.9529010 131.8872870  39.1918370
  10.0150950 132.5160580  40.5675770   9.6081250 132.4650090  43.3447750
   8.6583960 132.4313630  43.4592740   9.7894260 133.3750200  43.1097520
   8.9191500 131.6383570  35.7620610   9.4150620 131.4054440  36.5469490
   8.7207570 130.7995410  35.3458250  10.3478660 130.2744520  38.2958290
  10.2377940 130.1200560  39.2340560  11.1086250 129.7465460  38.0533700
   8.6944380 126.2138650  44.7541290   9.3316600 126.8272790  45.1200480
   8.8419270 126.2499310  43.8090520  11.2368930 128.1052440  31.5364430
  12.1618240 127.9733620  31.3282720  11.2144720 128.1845260  32.4900880
  11.3107420 128.8763100  34.1621140  10.5158920 128.8108220  34.6914050
  11.5150700 129.8113740  34.1506490   8.2525840 142.9154650  38.1559530
   8.8484910 142.5939220  37.4793950   8.5103990 142.4426470  38.9472800
   2.0648860 127.3664840  47.6616390   2.0037750 127.9586670  48.4111800
   3.0049240 127.2590800  47.5166650   4.7023420 127.0234900  47.3008680
   5.3163830 127.3414190  46.6389760   5.2472980 126.5383490  47.9204540
  11.1198600 142.9226530  44.7070520  10.6256880 143.3195400  43.9897650
  10.5111890 142.2975740  45.1007800   5.4431460 125.5867040  43.6277970
   4.5691300 125.9202150  43.4250900   5.3342210 125.1140220  44.4529840
   6.3503440 127.7937910  45.0119690   6.0216800 126.9789670  44.6321420
   7.2985740 127.7507720  44.8885380   8.8038050 143.5649950  41.9857260
   8.3441020 144.3165760  41.6115280   8.1750510 142.8456420  41.9272060
   1.9729270 142.7646680  41.9874370   2.2607080 142.5100980  41.1107380
   2.4852490 142.2124040  42.5779940   3.1906280 126.5036880  42.5670880
   2.4078070 126.9782380  42.8467640   2.8969210 125.5991710  42.4584060
   7.7427350 127.2059980  40.6119970   8.1835440 127.1505080  39.7641570
   7.4734940 128.1217990  40.6830150   9.6065920 126.8375220  38.6228790
   9.5454320 125.8936440  38.4759810  10.3857950 126.9455310  39.1682250
   5.5785480 125.5866080  39.3169980   6.1814850 126.1586290  39.7918500
   4.8378470 126.1505520  39.0943880   8.7220080 125.9887640  34.5910260
   8.9170710 126.8871090  34.8577690   7.9349950 125.7574720  35.0843210
   2.0401630 143.6862780  49.3542570   2.9668940 143.4507050  49.3978530
   2.0252060 144.5134780  48.8728600  10.2746690 143.2288350  36.3516820
  10.4498880 142.5426090  35.7077740   9.5768260 143.7535400  35.9593490
   5.8280700 125.7661110  49.6964920   5.7146150 126.0855720  50.5916440
   6.6450440 126.1673620  49.4002200   8.6079190 142.9132640  49.1783610
   9.4004510 142.4181870  48.9709570   8.9012340 143.5922780  49.7859220
   4.7338850 133.7853580  20.0599660   4.6532900 132.8708190  19.7891370
   4.3203270 134.2820650  19.3539370   2.8656890 135.5632600  21.9408930
   2.0898990 135.0833040  22.2307500   3.5169820 134.8838250  21.7665090
   6.8864320 139.9692790  20.7208060   6.4245850 139.1980030  21.0495230
   7.6989870 139.9958860  21.2260510   3.1127630 142.2550800  20.3412050
   2.4939070 142.7108300  19.7706490   3.9679410 142.4102260  19.9401750
   2.3065880 138.2389790  21.9479090   2.2374160 137.2979730  21.7868220
   3.0685740 138.3291200  22.5201660   3.3371050 131.0460170  22.1748020
   3.7135870 130.1732050  22.0621690   3.2390560 131.3818870  21.2838460
   7.1195170 128.5410610  19.1076360   7.9404790 128.0507180  19.1501840
   7.1529250 129.1308270  19.8608200  11.4094720 130.5577360  25.6719990
  10.7046890 130.9459070  25.1535100  11.6752640 131.2527650  26.2740920
   3.9790980 137.1390040  17.7343960   3.3608250 137.6039490  17.1706680
   4.4914230 137.8317520  18.1513470   7.3556650 130.4810990  21.8803900
   6.6512220 130.7695880  22.4607010   7.7168810 131.2911100  21.5203460
   8.9719430 140.0986120  24.1431380   8.2882950 140.7685230  24.1348050
   9.5113720 140.2966770  23.3776240  10.4243570 129.9265780  22.2713110
   9.4768480 129.9604760  22.4028540  10.7493560 130.7404730  22.6562470
   6.5078170 141.9430250  22.8576560   6.5205330 141.5392540  21.9898820
   5.9553390 142.7177540  22.7537990   7.8023590 138.6646470  17.9466730
   7.6919920 137.7220800  18.0716150   7.7991840 139.0262110  18.8329490
   5.9063610 136.8460090  24.1859170   6.3232400 136.6320200  23.3512630
   6.6303430 137.1032880  24.7567790   3.3443870 134.2911790  17.3029220
   2.4173150 134.2249170  17.5317690   3.4968690 135.2291920  17.1884460
   3.3312950 130.5628790  14.2996380   2.3916620 130.7242750  14.3848840
   3.6496210 131.2814470  13.7532370   9.8525710 135.2447310  24.2775410
   9.0244340 135.3140400  23.8025540  10.4476190 135.8301620  23.8091240
   7.3741160 135.8532090  17.8064470   6.7553580 135.5151640  17.1590770
   7.3565610 135.2091850  18.5143660   6.8167720 132.0316630  25.2230280
   6.4038900 132.8570340  25.4770270   6.0843670 131.4461670  25.0306640
   7.5067820 142.0775960  25.9111260   7.0298380 142.8848150  25.7183870
   6.8229610 141.4254290  26.0637470   5.5505860 135.0918900  14.8137220
   5.9899140 134.2541330  14.6675040   6.2634280 135.7248300  14.9001360
   3.6601240 140.0314970  18.7818460   4.0997150 140.7739300  18.3673850
   3.5988130 140.2741540  19.7057420   9.1323000 126.3461710  13.1278260
   8.8195660 126.4388540  14.0277330   9.8935470 126.9242740  13.0775690
  11.0867030 141.8387900  30.9802650  11.5626750 142.3170790  31.6591730
  11.7074190 141.7705390  30.2548150  10.4900280 139.0300750  28.1402660
  10.6163340 138.7912630  27.2219840  10.5321660 138.1985290  28.6124740
   4.3517020 142.7328750  26.7097470   4.8661690 142.6436760  27.5119900
   3.5086100 143.0788450  27.0025380   6.3271420 143.0184090  16.1381470
   6.1672560 142.7287030  17.0363300   6.1618130 142.2424220  15.6026700
   6.0297550 140.5271650  14.6979470   5.3362710 140.5248940  14.0381750
   6.7720410 140.1030970  14.2673640   5.5947480 142.1534360  18.7727960
   6.0504430 141.3723740  19.0866580   5.9340000 142.8641180  19.3169140
  10.3424290 131.0833210  29.1052400   9.7268560 131.5912880  28.5767860
  10.0220710 130.1831540  29.0478340   2.4038610 129.9225100  26.5714590
   1.9417980 130.1308120  27.3834530   2.0016720 129.1084450  26.2685260
   7.4043120 131.1434050  27.7011250   6.5536710 130.8439800  28.0220320
   7.2444910 131.3876060  26.7895070   4.4992830 132.6435800  29.8010040
   4.8246240 131.8099550  29.4612270   5.2873160 133.1664320  29.9488370
   5.1380780 132.1853520  17.2951170   4.5389670 132.9089320  17.1114790
   5.6860390 132.1230300  16.5127620   3.7445650 130.8217060  19.3254450
   4.1375220 131.1389260  18.5123140   4.1062500 129.9428940  19.4398970
   2.0537820 129.5724370  30.5851310   1.3636140 129.3796570  31.2197400
   2.7970120 129.8559010  31.1175610   4.3300790 133.4122810  23.4205230
   3.5981910 133.9209620  23.7695330   3.9325130 132.5952790  23.1194010
   4.7926700 128.8656490  22.8328170   4.8099440 129.3165140  23.6770020
   4.5442280 127.9662130  23.0461610   8.2197450 126.2788670  28.6714550
   8.5443220 125.5478330  29.1972530   8.2553960 125.9602310  27.7695540
   8.1455290 136.3913780  22.2800580   8.8654410 136.8869070  21.8896690
   7.9437110 135.7131670  21.6354450   3.6065230 127.7851740  16.4229970
   2.7929840 127.2864910  16.3475280   3.4127180 128.6249990  16.0066320
   3.5274090 136.4622840  28.1669580   3.4611400 135.5418510  27.9127170
   2.8979230 136.5598280  28.8814220   6.3213620 132.1571390  14.7192130
   7.2093240 132.4688620  14.5443470   6.2918710 131.2843640  14.3272710
   2.3174210 138.3295080  15.3980300   2.6589910 139.0737310  14.9023620
   1.4886920 138.6426200  15.7605130   3.4590820 139.2843410  27.9173380
   3.4735360 138.3524370  27.6992290   2.7515920 139.3703170  28.5563150
   8.5927890 133.4683230  14.1871990   8.5091610 133.8997450  13.3368430
   9.3122080 133.9281580  14.6198810   9.6702030 135.9250750  27.2641960
   8.9450220 136.5179530  27.0671350  10.1977490 135.9174290  26.4655330
   9.6215140 140.3225490  16.9154120   8.9791300 139.6681110  17.1897840
   9.2345800 140.7280580  16.1394790   5.2001620 137.6510920  20.7625810
   5.5525440 137.0539050  20.1027180   4.3163950 137.3255150  20.9334060
   2.8924720 140.9260980  25.0113880   3.5366940 141.1320360  25.6887300
   3.2554160 140.1649380  24.5584730   4.1656800 138.9293330  23.7291330
   4.8079030 138.2286490  23.8423500   4.6906150 139.7091770  23.5488220
   8.0112520 139.2141950  13.4530470   7.7850100 138.4972390  14.0455110
   7.6208720 138.9654390  12.6152220   5.9394420 139.7288230  26.9327390
   6.2750660 140.3154920  27.6105310   5.0194760 139.5980940  27.1625180
   7.5928770 137.1313890  15.1144630   7.3050470 137.5926580  15.9022510
   8.3880940 136.6711660  15.3828850   1.7683000 139.7779560  30.1015450
   1.4479870 139.0588800  30.6461140   1.0941360 140.4534630  30.1751510
   4.9836600 130.0105720  25.4652250   5.3517420 129.1900930  25.7931820
   4.1234800 130.0707610  25.8807900   8.3498630 128.9662660  16.2739810
   7.7211790 129.0708330  15.5598040   7.8550550 129.1859440  17.0633690
   2.7956770 140.6868250  13.7073790   2.8968750 140.4832240  12.7775770
   1.8958510 140.4326530  13.9121570   1.9438590 132.6645310  25.6890220
   2.4423840 133.1391130  26.3542070   2.0861540 131.7408830  25.8960250
   4.3498090 127.9699270  19.1293480   4.2265870 127.9885400  18.1802990
   5.2982650 128.0178210  19.2491880   9.1505450 128.8813270  26.5318610
   8.6479050 129.6218670  26.8712420   9.9662110 129.2697270  26.2155400
   7.4427460 134.1246450  19.9779970   6.5017600 134.1396680  20.1527660
   7.7571530 133.3382410  20.4240270   9.4453040 141.2955300  21.6534230
   9.5700460 142.1186470  22.1258040  10.3118600 141.0846030  21.3058380
   4.7593480 138.6812450  30.4612350   4.1531640 138.7044050  29.7208100
   4.4547590 137.9495490  30.9979600   6.1893850 142.4092740  29.0721760
   7.1415600 142.3250760  29.0222000   6.0422070 143.0734450  29.7455550
   9.0803050 141.7886950  14.5713670   8.7944560 141.3752090  13.7567850
   8.8822600 142.7174660  14.4514190   3.7853010 136.8440260  13.6161270
   3.2363110 137.2909560  14.2604010   4.4072270 136.3389510  14.1398940
   7.8387950 138.1982360  29.5483530   8.5797420 138.5358120  29.0450990
   7.0760630 138.3674420  28.9953300   1.9655770 134.8268790  12.7603670
   2.4861430 134.1117810  12.3944820   2.6124170 135.4654660  13.0604180
   6.5133610 136.2497190  28.0838740   6.9274630 136.4042270  28.9329160
   5.5784610 136.3752410  28.2464520   6.9855780 133.5893350  30.0877890
   7.5676550 132.8345670  29.9998370   7.1617550 134.1200790  29.3109370
   3.6112740 133.9333850  27.4372510   3.7308950 133.3374990  28.1767350
   4.4706740 133.9703540  27.0173810   5.9500640 134.4871040  26.0135020
   5.4235860 135.0113660  25.4100160   6.2931980 135.1198430  26.6444750
   5.1974940 130.0921010  28.9281350   4.5090460 129.4302550  28.8631340
   5.9180960 129.6459280  29.3729810   5.8275340 126.6872640  14.9871610
   6.1077630 125.8440540  15.3431030   5.0541070 126.9195750  15.5010360
   1.9818470 143.7421890  27.4279050   1.9077170 144.6457030  27.7351420
   1.0797310 143.4233790  27.4001120   2.5303800 142.9080400  15.0505410
   3.4254590 143.2465370  15.0724170   2.5621430 142.1859810  14.4229690
   9.5098150 141.4384070  27.7571610   8.9100140 141.4976630  27.0135530
   9.6392050 140.4989050  27.8868460  10.7499600 139.1801890  13.0941320
   9.9192560 139.2478540  13.5648550  10.9271430 140.0706010  12.7908180
  10.2056060 135.9249370  15.5975520  10.9674970 136.4946020  15.7035210
  10.2210430 135.3576570  16.3683830  11.2116030 136.7799470  20.4417450
  11.5824860 135.9966790  20.0353420  11.8517960 137.4688570  20.2634750
   8.1949790 138.1636050  25.8547770   7.3809630 138.5933210  26.1173560
   8.6023990 138.7754460  25.2416820  10.2575230 136.2183740  12.7548040
  10.5324070 137.1262620  12.6267260  10.0685970 136.1546270  13.6910030
   6.6550840 129.2428590  14.0501670   7.0735720 129.0559570  13.2098330
   6.3486900 128.3907640  14.3604600  10.1540570 134.1552730  17.7477470
   9.7784170 133.3880660  17.3158760   9.4243690 134.5375430  18.2352400
   9.5440190 133.3024250  27.3816990   9.3126280 133.0737000  26.4814940
   9.8044740 134.2223800  27.3361880   7.9828260 128.5280680  30.1596690
   8.8598440 128.5364080  30.5430690   7.9949100 127.7911520  29.5489040
   9.4291530 132.3810220  21.0484710   9.9529010 131.8872870  20.4174880
  10.0150950 132.5160580  21.7932280   9.6081250 132.4650090  24.5704260
   8.6583960 132.4313630  24.6849250   9.7894260 133.3750200  24.3354030
   8.9191500 131.6383570  16.9877120   9.4150620 131.4054440  17.7726000
   8.7207570 130.7995410  16.5714760  10.3478660 130.2744520  19.5214800
  10.2377940 130.1200560  20.4597070  11.1086250 129.7465460  19.2790210
   8.6944380 126.2138650  25.9797800   9.3316600 126.8272790  26.3456990
   8.8419270 126.2499310  25.0347030  11.2368930 128.1052440  12.7620940
  12.1618240 127.9733620  12.5539230  11.2144720 128.1845260  13.7157390
  11.3107420 128.8763100  15.3877650  10.5158920 128.8108220  15.9170560
  11.5150700 129.8113740  15.3763000   8.2525840 142.9154650  19.3816040
   8.8484910 142.5939220  18.7050460   8.5103990 142.4426470  20.1729310
   2.0648860 127.3664840  28.8872900   2.0037750 127.9586670  29.6368310
   3.0049240 127.2590800  28.7423160   4.7023420 127.0234900  28.5265190
   5.3163830 127.3414190  27.8646270   5.2472980 126.5383490  29.1461050
  11.1198600 142.9226530  25.9327030  10.6256880 143.3195400  25.2154160
  10.5111890 142.2975740  26.3264310   5.4431460 125.5867040  24.8534480
   4.5691300 125.9202150  24.6507410   5.3342210 125.1140220  25.6786350
   6.3503440 127.7937910  26.2376200   6.0216800 126.9789670  25.8577930
   7.2985740 127.7507720  26.1141890   8.8038050 143.5649950  23.2113770
   8.3441020 144.3165760  22.8371790   8.1750510 142.8456420  23.1528570
   1.9729270 142.7646680  23.2130880   2.2607080 142.5100980  22.3363890
   2.4852490 142.2124040  23.8036450   3.1906280 126.5036880  23.7927390
   2.4078070 126.9782380  24.0724150   2.8969210 125.5991710  23.6840570
   7.7427350 127.2059980  21.8376480   8.1835440 127.1505080  20.9898080
   7.4734940 128.1217990  21.9086660   9.6065920 126.8375220  19.8485300
   9.5454320 125.8936440  19.7016320  10.3857950 126.9455310  20.3938760
   5.5785480 125.5866080  20.5426490   6.1814850 126.1586290  21.0175010
   4.8378470 126.1505520  20.3200390   8.7220080 125.9887640  15.8166770
   8.9170710 126.8871090  16.0834200   7.9349950 125.7574720  16.3099720
   2.0401630 143.6862780  30.5799080   2.9668940 143.4507050  30.6235040
   2.0252060 144.5134780  30.0985110  10.2746690 143.2288350  17.5773330
  10.4498880 142.5426090  16.9334250   9.5768260 143.7535400  17.1850000
   5.8280700 125.7661110  30.9221430   5.7146150 126.0855720  31.8172950
   6.6450440 126.1673620  30.6258710   8.6079190 142.9132640  30.4040120
   9.4004510 142.4181870  30.1966080   8.9012340 143.5922780  31.0115730
   2.8656890 135.5632600   3.1665440   2.0898990 135.0833040   3.4564010
   3.5169820 134.8838250   2.9921600   6.8864320 139.9692790   1.9464570
   6.4245850 139.1980030   2.2751740   7.6989870 139.9958860   2.4517020
   2.3065880 138.2389790   3.1735600   2.2374160 137.2979730   3.0124730
   3.0685740 138.3291200   3.7458170   3.3371050 131.0460170   3.4004530
   3.7135870 130.1732050   3.2878200   3.2390560 131.3818870   2.5094970
  11.4094720 130.5577360   6.8976500  10.7046890 130.9459070   6.3791610
  11.6752640 131.2527650   7.4997430   7.3556650 130.4810990   3.1060410
   6.6512220 130.7695880   3.6863520   7.7168810 131.2911100   2.7459970
   8.9719430 140.0986120   5.3687890   8.2882950 140.7685230   5.3604560
   9.5113720 140.2966770   4.6032750  10.4243570 129.9265780   3.4969620
   9.4768480 129.9604760   3.6285050  10.7493560 130.7404730   3.8818980
   6.5078170 141.9430250   4.0833070   6.5205330 141.5392540   3.2155330
   5.9553390 142.7177540   3.9794500   5.9063610 136.8460090   5.4115680
   6.3232400 136.6320200   4.5769140   6.6303430 137.1032880   5.9824300
   9.8525710 135.2447310   5.5031920   9.0244340 135.3140400   5.0282050
  10.4476190 135.8301620   5.0347750   6.8167720 132.0316630   6.4486790
   6.4038900 132.8570340   6.7026780   6.0843670 131.4461670   6.2563150
   7.5067820 142.0775960   7.1367770   7.0298380 142.8848150   6.9440380
   6.8229610 141.4254290   7.2893980  11.0867030 141.8387900  12.2059160
  11.5626750 142.3170790  12.8848240  11.7074190 141.7705390  11.4804660
  10.4900280 139.0300750   9.3659170  10.6163340 138.7912630   8.4476350
  10.5321660 138.1985290   9.8381250   4.3517020 142.7328750   7.9353980
   4.8661690 142.6436760   8.7376410   3.5086100 143.0788450   8.2281890
  10.3424290 131.0833210  10.3308910   9.7268560 131.5912880   9.8024370
  10.0220710 130.1831540  10.2734850   2.4038610 129.9225100   7.7971100
   1.9417980 130.1308120   8.6091040   2.0016720 129.1084450   7.4941770
   7.4043120 131.1434050   8.9267760   6.5536710 130.8439800   9.2476830
   7.2444910 131.3876060   8.0151580   4.4992830 132.6435800  11.0266550
   4.8246240 131.8099550  10.6868780   5.2873160 133.1664320  11.1744880
   2.0537820 129.5724370  11.8107820   1.3636140 129.3796570  12.4453910
   2.7970120 129.8559010  12.3432120   4.3300790 133.4122810   4.6461740
   3.5981910 133.9209620   4.9951840   3.9325130 132.5952790   4.3450520
   4.7926700 128.8656490   4.0584680   4.8099440 129.3165140   4.9026530
   4.5442280 127.9662130   4.2718120   8.2197450 126.2788670   9.8971060
   8.5443220 125.5478330  10.4229040   8.2553960 125.9602310   8.9952050
   8.1455290 136.3913780   3.5057090   8.8654410 136.8869070   3.1153200
   7.9437110 135.7131670   2.8610960   3.5274090 136.4622840   9.3926090
   3.4611400 135.5418510   9.1383680   2.8979230 136.5598280  10.1070730
   3.4590820 139.2843410   9.1429890   3.4735360 138.3524370   8.9248800
   2.7515920 139.3703170   9.7819660   9.6702030 135.9250750   8.4898470
   8.9450220 136.5179530   8.2927860  10.1977490 135.9174290   7.6911840
   2.8924720 140.9260980   6.2370390   3.5366940 141.1320360   6.9143810
   3.2554160 140.1649380   5.7841240   4.1656800 138.9293330   4.9547840
   4.8079030 138.2286490   5.0680010   4.6906150 139.7091770   4.7744730
   5.9394420 139.7288230   8.1583900   6.2750660 140.3154920   8.8361820
   5.0194760 139.5980940   8.3881690   1.7683000 139.7779560  11.3271960
   1.4479870 139.0588800  11.8717650   1.0941360 140.4534630  11.4008020
   4.9836600 130.0105720   6.6908760   5.3517420 129.1900930   7.0188330
   4.1234800 130.0707610   7.1064410   1.9438590 132.6645310   6.9146730
   2.4423840 133.1391130   7.5798580   2.0861540 131.7408830   7.1216760
   9.1505450 128.8813270   7.7575120   8.6479050 129.6218670   8.0968930
   9.9662110 129.2697270   7.4411910   9.4453040 141.2955300   2.8790740
   9.5700460 142.1186470   3.3514550  10.3118600 141.0846030   2.5314890
   4.7593480 138.6812450  11.6868860   4.1531640 138.7044050  10.9464610
   4.4547590 137.9495490  12.2236110   6.1893850 142.4092740  10.2978270
   7.1415600 142.3250760  10.2478510   6.0422070 143.0734450  10.9712060
   7.8387950 138.1982360  10.7740040   8.5797420 138.5358120  10.2707500
   7.0760630 138.3674420  10.2209810   6.5133610 136.2497190   9.3095250
   6.9274630 136.4042270  10.1585670   5.5784610 136.3752410   9.4721030
   6.9855780 133.5893350  11.3134400   7.5676550 132.8345670  11.2254880
   7.1617550 134.1200790  10.5365880   3.6112740 133.9333850   8.6629020
   3.7308950 133.3374990   9.4023860   4.4706740 133.9703540   8.2430320
   5.9500640 134.4871040   7.2391530   5.4235860 135.0113660   6.6356670
   6.2931980 135.1198430   7.8701260   5.1974940 130.0921010  10.1537860
   4.5090460 129.4302550  10.0887850   5.9180960 129.6459280  10.5986320
   1.9818470 143.7421890   8.6535560   1.9077170 144.6457030   8.9607930
   1.0797310 143.4233790   8.6257630   9.5098150 141.4384070   8.9828120
   8.9100140 141.4976630   8.2392040   9.6392050 140.4989050   9.1124970
   8.1949790 138.1636050   7.0804280   7.3809630 138.5933210   7.3430070
   8.6023990 138.7754460   6.4673330   9.5440190 133.3024250   8.6073500
   9.3126280 133.0737000   7.7071450   9.8044740 134.2223800   8.5618390
   7.9828260 128.5280680  11.3853200   8.8598440 128.5364080  11.7687200
   7.9949100 127.7911520  10.7745550   9.4291530 132.3810220   2.2741220
   9.9529010 131.8872870   1.6431390  10.0150950 132.5160580   3.0188790
   9.6081250 132.4650090   5.7960770   8.6583960 132.4313630   5.9105760
   9.7894260 133.3750200   5.5610540   8.6944380 126.2138650   7.2054310
   9.3316600 126.8272790   7.5713500   8.8419270 126.2499310   6.2603540
   2.0648860 127.3664840  10.1129410   2.0037750 127.9586670  10.8624820
   3.0049240 127.2590800   9.9679670   4.7023420 127.0234900   9.7521700
   5.3163830 127.3414190   9.0902780   5.2472980 126.5383490  10.3717560
  11.1198600 142.9226530   7.1583540  10.6256880 143.3195400   6.4410670
  10.5111890 142.2975740   7.5520820   5.4431460 125.5867040   6.0790990
   4.5691300 125.9202150   5.8763920   5.3342210 125.1140220   6.9042860
   6.3503440 127.7937910   7.4632710   6.0216800 126.9789670   7.0834440
   7.2985740 127.7507720   7.3398400   8.8038050 143.5649950   4.4370280
   8.3441020 144.3165760   4.0628300   8.1750510 142.8456420   4.3785080
   1.9729270 142.7646680   4.4387390   2.2607080 142.5100980   3.5620400
   2.4852490 142.2124040   5.0292960   3.1906280 126.5036880   5.0183900
   2.4078070 126.9782380   5.2980660   2.8969210 125.5991710   4.9097080
   7.7427350 127.2059980   3.0632990   8.1835440 127.1505080   2.2154590
   7.4734940 128.1217990   3.1343170   5.5785480 125.5866080   1.7683000
   6.1814850 126.1586290   2.2431520   4.8378470 126.1505520   1.5456900
   2.0401630 143.6862780  11.8055590   2.9668940 143.4507050  11.8491550
   2.0252060 144.5134780  11.3241620   5.8280700 125.7661110  12.1477940
   5.7146150 126.0855720  13.0429460   6.6450440 126.1673620  11.8515220
   8.6079190 142.9132640  11.6296630   9.4004510 142.4181870  11.4222590
   8.9012340 143.5922780  12.2372240   4.7338850 115.0110090 151.4804090
   4.6532900 114.0964700 151.2095800   4.3203270 115.5077160 150.7743800
   2.8656890 116.7889110 153.3613360   2.0898990 116.3089550 153.6511930
   3.5169820 116.1094760 153.1869520   6.8864320 121.1949300 152.1412490
   6.4245850 120.4236540 152.4699660   7.6989870 121.2215370 152.6464940
   3.1127630 123.4807310 151.7616480   2.4939070 123.9364810 151.1910920
   3.9679410 123.6358770 151.3606180   2.3065880 119.4646300 153.3683520
   2.2374160 118.5236240 153.2072650   3.0685740 119.5547710 153.9406090
   3.3371050 112.2716680 153.5952450   3.7135870 111.3988560 153.4826120
   3.2390560 112.6075380 152.7042890   7.1195170 109.7667120 150.5280790
   7.9404790 109.2763690 150.5706270   7.1529250 110.3564780 151.2812630
   3.9790980 118.3646550 149.1548390   3.3608250 118.8296000 148.5911110
   4.4914230 119.0574030 149.5717900   7.3556650 111.7067500 153.3008330
   6.6512220 111.9952390 153.8811440   7.7168810 112.5167610 152.9407890
  10.4243570 111.1522290 153.6917540   9.4768480 111.1861270 153.8232970
  10.7493560 111.9661240 154.0766900   6.5078170 123.1686760 154.2780990
   6.5205330 122.7649050 153.4103250   5.9553390 123.9434050 154.1742420
   7.8023590 119.8902980 149.3671160   7.6919920 118.9477310 149.4920580
   7.7991840 120.2518620 150.2533920   3.3443870 115.5168300 148.7233650
   2.4173150 115.4505680 148.9522120   3.4968690 116.4548430 148.6088890
   3.3312950 111.7885300 145.7200810   2.3916620 111.9499260 145.8053270
   3.6496210 112.5070980 145.1736800   7.3741160 117.0788600 149.2268900
   6.7553580 116.7408150 148.5795200   7.3565610 116.4348360 149.9348090
   5.5505860 116.3175410 146.2341650   5.9899140 115.4797840 146.0879470
   6.2634280 116.9504810 146.3205790   3.6601240 121.2571480 150.2022890
   4.0997150 121.9995810 149.7878280   3.5988130 121.4998050 151.1261850
   9.1323000 107.5718220 144.5482690   8.8195660 107.6645050 145.4481760
   9.8935470 108.1499250 144.4980120   6.3271420 124.2440600 147.5585900
   6.1672560 123.9543540 148.4567730   6.1618130 123.4680730 147.0231130
   6.0297550 121.7528160 146.1183900   5.3362710 121.7505450 145.4586180
   6.7720410 121.3287480 145.6878070   5.5947480 123.3790870 150.1932390
   6.0504430 122.5980250 150.5071010   5.9340000 124.0897690 150.7373570
   5.1380780 113.4110030 148.7155600   4.5389670 114.1345830 148.5319220
   5.6860390 113.3486810 147.9332050   3.7445650 112.0473570 150.7458880
   4.1375220 112.3645770 149.9327570   4.1062500 111.1685450 150.8603400
   8.1455290 117.6170290 153.7005010   8.8654410 118.1125580 153.3101120
   7.9437110 116.9388180 153.0558880   3.6065230 109.0108250 147.8434400
   2.7929840 108.5121420 147.7679710   3.4127180 109.8506500 147.4270750
   6.3213620 113.3827900 146.1396560   7.2093240 113.6945130 145.9647900
   6.2918710 112.5100150 145.7477140   2.3174210 119.5551590 146.8184730
   2.6589910 120.2993820 146.3228050   1.4886920 119.8682710 147.1809560
   8.5927890 114.6939740 145.6076420   8.5091610 115.1253960 144.7572860
   9.3122080 115.1538090 146.0403240   9.6215140 121.5482000 148.3358550
   8.9791300 120.8937620 148.6102270   9.2345800 121.9537090 147.5599220
   5.2001620 118.8767430 152.1830240   5.5525440 118.2795560 151.5231610
   4.3163950 118.5511660 152.3538490   8.0112520 120.4398460 144.8734900
   7.7850100 119.7228900 145.4659540   7.6208720 120.1910900 144.0356650
   7.5928770 118.3570400 146.5349060   7.3050470 118.8183090 147.3226940
   8.3880940 117.8968170 146.8033280   8.3498630 110.1919170 147.6944240
   7.7211790 110.2964840 146.9802470   7.8550550 110.4115950 148.4838120
   2.7956770 121.9124760 145.1278220   2.8968750 121.7088750 144.1980200
   1.8958510 121.6583040 145.3326000   4.3498090 109.1955780 150.5497910
   4.2265870 109.2141910 149.6007420   5.2982650 109.2434720 150.6696310
   7.4427460 115.3502960 151.3984400   6.5017600 115.3653190 151.5732090
   7.7571530 114.5638920 151.8444700   9.4453040 122.5211810 153.0738660
   9.5700460 123.3442980 153.5462470  10.3118600 122.3102540 152.7262810
   9.0803050 123.0143460 145.9918100   8.7944560 122.6008600 145.1772280
   8.8822600 123.9431170 145.8718620   3.7853010 118.0696770 145.0365700
   3.2363110 118.5166070 145.6808440   4.4072270 117.5646020 145.5603370
   1.9655770 116.0525300 144.1808100   2.4861430 115.3374320 143.8149250
   2.6124170 116.6911170 144.4808610   5.8275340 107.9129150 146.4076040
   6.1077630 107.0697050 146.7635460   5.0541070 108.1452260 146.9214790
   2.5303800 124.1336910 146.4709840   3.4254590 124.4721880 146.4928600
   2.5621430 123.4116320 145.8434120  10.7499600 120.4058400 144.5145750
   9.9192560 120.4735050 144.9852980  10.9271430 121.2962520 144.2112610
  10.2056060 117.1505880 147.0179950  10.9674970 117.7202530 147.1239640
  10.2210430 116.5833080 147.7888260  11.2116030 118.0055980 151.8621880
  11.5824860 117.2223300 151.4557850  11.8517960 118.6945080 151.6839180
  10.2575230 117.4440250 144.1752470  10.5324070 118.3519130 144.0471690
  10.0685970 117.3802780 145.1114460   6.6550840 110.4685100 145.4706100
   7.0735720 110.2816080 144.6302760   6.3486900 109.6164150 145.7809030
  10.1540570 115.3809240 149.1681900   9.7784170 114.6137170 148.7363190
   9.4243690 115.7631940 149.6556830   9.4291530 113.6066730 152.4689140
   9.9529010 113.1129380 151.8379310  10.0150950 113.7417090 153.2136710
   8.9191500 112.8640080 148.4081550   9.4150620 112.6310950 149.1930430
   8.7207570 112.0251920 147.9919190  10.3478660 111.5001030 150.9419230
  10.2377940 111.3457070 151.8801500  11.1086250 110.9721970 150.6994640
  11.2368930 109.3308950 144.1825370  12.1618240 109.1990130 143.9743660
  11.2144720 109.4101770 145.1361820  11.3107420 110.1019610 146.8082080
  10.5158920 110.0364730 147.3374990  11.5150700 111.0370250 146.7967430
   8.2525840 124.1411160 150.8020470   8.8484910 123.8195730 150.1254890
   8.5103990 123.6682980 151.5933740   7.7427350 108.4316490 153.2580910
   8.1835440 108.3761590 152.4102510   7.4734940 109.3474500 153.3291090
   9.6065920 108.0631730 151.2689730   9.5454320 107.1192950 151.1220750
  10.3857950 108.1711820 151.8143190   5.5785480 106.8122590 151.9630920
   6.1814850 107.3842800 152.4379440   4.8378470 107.3762030 151.7404820
   8.7220080 107.2144150 147.2371200   8.9170710 108.1127600 147.5038630
   7.9349950 106.9831230 147.7304150  10.2746690 124.4544860 148.9977760
  10.4498880 123.7682600 148.3538680   9.5768260 124.9791910 148.6054430
   4.7338850 115.0110090 132.7060600   4.6532900 114.0964700 132.4352310
   4.3203270 115.5077160 132.0000310   2.8656890 116.7889110 134.5869870
   2.0898990 116.3089550 134.8768440   3.5169820 116.1094760 134.4126030
   6.8864320 121.1949300 133.3669000   6.4245850 120.4236540 133.6956170
   7.6989870 121.2215370 133.8721450   3.1127630 123.4807310 132.9872990
   2.4939070 123.9364810 132.4167430   3.9679410 123.6358770 132.5862690
   2.3065880 119.4646300 134.5940030   2.2374160 118.5236240 134.4329160
   3.0685740 119.5547710 135.1662600   3.3371050 112.2716680 134.8208960
   3.7135870 111.3988560 134.7082630   3.2390560 112.6075380 133.9299400
   7.1195170 109.7667120 131.7537300   7.9404790 109.2763690 131.7962780
   7.1529250 110.3564780 132.5069140  11.4094720 111.7833870 138.3180930
  10.7046890 112.1715580 137.7996040  11.6752640 112.4784160 138.9201860
   3.9790980 118.3646550 130.3804900   3.3608250 118.8296000 129.8167620
   4.4914230 119.0574030 130.7974410   7.3556650 111.7067500 134.5264840
   6.6512220 111.9952390 135.1067950   7.7168810 112.5167610 134.1664400
   8.9719430 121.3242630 136.7892320   8.2882950 121.9941740 136.7808990
   9.5113720 121.5223280 136.0237180  10.4243570 111.1522290 134.9174050
   9.4768480 111.1861270 135.0489480  10.7493560 111.9661240 135.3023410
   6.5078170 123.1686760 135.5037500   6.5205330 122.7649050 134.6359760
   5.9553390 123.9434050 135.3998930   7.8023590 119.8902980 130.5927670
   7.6919920 118.9477310 130.7177090   7.7991840 120.2518620 131.4790430
   5.9063610 118.0716600 136.8320110   6.3232400 117.8576710 135.9973570
   6.6303430 118.3289390 137.4028730   3.3443870 115.5168300 129.9490160
   2.4173150 115.4505680 130.1778630   3.4968690 116.4548430 129.8345400
   3.3312950 111.7885300 126.9457320   2.3916620 111.9499260 127.0309780
   3.6496210 112.5070980 126.3993310   9.8525710 116.4703820 136.9236350
   9.0244340 116.5396910 136.4486480  10.4476190 117.0558130 136.4552180
   7.3741160 117.0788600 130.4525410   6.7553580 116.7408150 129.8051710
   7.3565610 116.4348360 131.1604600   6.8167720 113.2573140 137.8691220
   6.4038900 114.0826850 138.1231210   6.0843670 112.6718180 137.6767580
   7.5067820 123.3032470 138.5572200   7.0298380 124.1104660 138.3644810
   6.8229610 122.6510800 138.7098410   5.5505860 116.3175410 127.4598160
   5.9899140 115.4797840 127.3135980   6.2634280 116.9504810 127.5462300
   3.6601240 121.2571480 131.4279400   4.0997150 121.9995810 131.0134790
   3.5988130 121.4998050 132.3518360   9.1323000 107.5718220 125.7739200
   8.8195660 107.6645050 126.6738270   9.8935470 108.1499250 125.7236630
  11.0867030 123.0644410 143.6263590  11.5626750 123.5427300 144.3052670
  11.7074190 122.9961900 142.9009090  10.4900280 120.2557260 140.7863600
  10.6163340 120.0169140 139.8680780  10.5321660 119.4241800 141.2585680
   4.3517020 123.9585260 139.3558410   4.8661690 123.8693270 140.1580840
   3.5086100 124.3044960 139.6486320   6.3271420 124.2440600 128.7842410
   6.1672560 123.9543540 129.6824240   6.1618130 123.4680730 128.2487640
   6.0297550 121.7528160 127.3440410   5.3362710 121.7505450 126.6842690
   6.7720410 121.3287480 126.9134580   5.5947480 123.3790870 131.4188900
   6.0504430 122.5980250 131.7327520   5.9340000 124.0897690 131.9630080
  10.3424290 112.3089720 141.7513340   9.7268560 112.8169390 141.2228800
  10.0220710 111.4088050 141.6939280   2.4038610 111.1481610 139.2175530
   1.9417980 111.3564630 140.0295470   2.0016720 110.3340960 138.9146200
   7.4043120 112.3690560 140.3472190   6.5536710 112.0696310 140.6681260
   7.2444910 112.6132570 139.4356010   4.4992830 113.8692310 142.4470980
   4.8246240 113.0356060 142.1073210   5.2873160 114.3920830 142.5949310
   5.1380780 113.4110030 129.9412110   4.5389670 114.1345830 129.7575730
   5.6860390 113.3486810 129.1588560   3.7445650 112.0473570 131.9715390
   4.1375220 112.3645770 131.1584080   4.1062500 111.1685450 132.0859910
   2.0537820 110.7980880 143.2312250   1.3636140 110.6053080 143.8658340
   2.7970120 111.0815520 143.7636550   4.3300790 114.6379320 136.0666170
   3.5981910 115.1466130 136.4156270   3.9325130 113.8209300 135.7654950
   4.7926700 110.0913000 135.4789110   4.8099440 110.5421650 136.3230960
   4.5442280 109.1918640 135.6922550   8.2197450 107.5045180 141.3175490
   8.5443220 106.7734840 141.8433470   8.2553960 107.1858820 140.4156480
   8.1455290 117.6170290 134.9261520   8.8654410 118.1125580 134.5357630
   7.9437110 116.9388180 134.2815390   3.6065230 109.0108250 129.0690910
   2.7929840 108.5121420 128.9936220   3.4127180 109.8506500 128.6527260
   3.5274090 117.6879350 140.8130520   3.4611400 116.7675020 140.5588110
   2.8979230 117.7854790 141.5275160   6.3213620 113.3827900 127.3653070
   7.2093240 113.6945130 127.1904410   6.2918710 112.5100150 126.9733650
   2.3174210 119.5551590 128.0441240   2.6589910 120.2993820 127.5484560
   1.4886920 119.8682710 128.4066070   3.4590820 120.5099920 140.5634320
   3.4735360 119.5780880 140.3453230   2.7515920 120.5959680 141.2024090
   8.5927890 114.6939740 126.8332930   8.5091610 115.1253960 125.9829370
   9.3122080 115.1538090 127.2659750   9.6702030 117.1507260 139.9102900
   8.9450220 117.7436040 139.7132290  10.1977490 117.1430800 139.1116270
   9.6215140 121.5482000 129.5615060   8.9791300 120.8937620 129.8358780
   9.2345800 121.9537090 128.7855730   5.2001620 118.8767430 133.4086750
   5.5525440 118.2795560 132.7488120   4.3163950 118.5511660 133.5795000
   2.8924720 122.1517490 137.6574820   3.5366940 122.3576870 138.3348240
   3.2554160 121.3905890 137.2045670   4.1656800 120.1549840 136.3752270
   4.8079030 119.4543000 136.4884440   4.6906150 120.9348280 136.1949160
   8.0112520 120.4398460 126.0991410   7.7850100 119.7228900 126.6916050
   7.6208720 120.1910900 125.2613160   5.9394420 120.9544740 139.5788330
   6.2750660 121.5411430 140.2566250   5.0194760 120.8237450 139.8086120
   7.5928770 118.3570400 127.7605570   7.3050470 118.8183090 128.5483450
   8.3880940 117.8968170 128.0289790   1.7683000 121.0036070 142.7476390
   1.4479870 120.2845310 143.2922080   1.0941360 121.6791140 142.8212450
   4.9836600 111.2362230 138.1113190   5.3517420 110.4157440 138.4392760
   4.1234800 111.2964120 138.5268840   8.3498630 110.1919170 128.9200750
   7.7211790 110.2964840 128.2058980   7.8550550 110.4115950 129.7094630
   2.7956770 121.9124760 126.3534730   2.8968750 121.7088750 125.4236710
   1.8958510 121.6583040 126.5582510   1.9438590 113.8901820 138.3351160
   2.4423840 114.3647640 139.0003010   2.0861540 112.9665340 138.5421190
   4.3498090 109.1955780 131.7754420   4.2265870 109.2141910 130.8263930
   5.2982650 109.2434720 131.8952820   9.1505450 110.1069780 139.1779550
   8.6479050 110.8475180 139.5173360   9.9662110 110.4953780 138.8616340
   7.4427460 115.3502960 132.6240910   6.5017600 115.3653190 132.7988600
   7.7571530 114.5638920 133.0701210   9.4453040 122.5211810 134.2995170
   9.5700460 123.3442980 134.7718980  10.3118600 122.3102540 133.9519320
   4.7593480 119.9068960 143.1073290   4.1531640 119.9300560 142.3669040
   4.4547590 119.1752000 143.6440540   6.1893850 123.6349250 141.7182700
   7.1415600 123.5507270 141.6682940   6.0422070 124.2990960 142.3916490
   9.0803050 123.0143460 127.2174610   8.7944560 122.6008600 126.4028790
   8.8822600 123.9431170 127.0975130   3.7853010 118.0696770 126.2622210
   3.2363110 118.5166070 126.9064950   4.4072270 117.5646020 126.7859880
   7.8387950 119.4238870 142.1944470   8.5797420 119.7614630 141.6911930
   7.0760630 119.5930930 141.6414240   1.9655770 116.0525300 125.4064610
   2.4861430 115.3374320 125.0405760   2.6124170 116.6911170 125.7065120
   6.5133610 117.4753700 140.7299680   6.9274630 117.6298780 141.5790100
   5.5784610 117.6008920 140.8925460   6.9855780 114.8149860 142.7338830
   7.5676550 114.0602180 142.6459310   7.1617550 115.3457300 141.9570310
   3.6112740 115.1590360 140.0833450   3.7308950 114.5631500 140.8228290
   4.4706740 115.1960050 139.6634750   5.9500640 115.7127550 138.6595960
   5.4235860 116.2370170 138.0561100   6.2931980 116.3454940 139.2905690
   5.1974940 111.3177520 141.5742290   4.5090460 110.6559060 141.5092280
   5.9180960 110.8715790 142.0190750   5.8275340 107.9129150 127.6332550
   6.1077630 107.0697050 127.9891970   5.0541070 108.1452260 128.1471300
   1.9818470 124.9678400 140.0739990   1.9077170 125.8713540 140.3812360
   1.0797310 124.6490300 140.0462060   2.5303800 124.1336910 127.6966350
   3.4254590 124.4721880 127.7185110   2.5621430 123.4116320 127.0690630
   9.5098150 122.6640580 140.4032550   8.9100140 122.7233140 139.6596470
   9.6392050 121.7245560 140.5329400  10.7499600 120.4058400 125.7402260
   9.9192560 120.4735050 126.2109490  10.9271430 121.2962520 125.4369120
  10.2056060 117.1505880 128.2436460  10.9674970 117.7202530 128.3496150
  10.2210430 116.5833080 129.0144770  11.2116030 118.0055980 133.0878390
  11.5824860 117.2223300 132.6814360  11.8517960 118.6945080 132.9095690
   8.1949790 119.3892560 138.5008710   7.3809630 119.8189720 138.7634500
   8.6023990 120.0010970 137.8877760  10.2575230 117.4440250 125.4008980
  10.5324070 118.3519130 125.2728200  10.0685970 117.3802780 126.3370970
   6.6550840 110.4685100 126.6962610   7.0735720 110.2816080 125.8559270
   6.3486900 109.6164150 127.0065540  10.1540570 115.3809240 130.3938410
   9.7784170 114.6137170 129.9619700   9.4243690 115.7631940 130.8813340
   9.5440190 114.5280760 140.0277930   9.3126280 114.2993510 139.1275880
   9.8044740 115.4480310 139.9822820   7.9828260 109.7537190 142.8057630
   8.8598440 109.7620590 143.1891630   7.9949100 109.0168030 142.1949980
   9.4291530 113.6066730 133.6945650   9.9529010 113.1129380 133.0635820
  10.0150950 113.7417090 134.4393220   9.6081250 113.6906600 137.2165200
   8.6583960 113.6570140 137.3310190   9.7894260 114.6006710 136.9814970
   8.9191500 112.8640080 129.6338060   9.4150620 112.6310950 130.4186940
   8.7207570 112.0251920 129.2175700  10.3478660 111.5001030 132.1675740
  10.2377940 111.3457070 133.1058010  11.1086250 110.9721970 131.9251150
   8.6944380 107.4395160 138.6258740   9.3316600 108.0529300 138.9917930
   8.8419270 107.4755820 137.6807970  11.2368930 109.3308950 125.4081880
  12.1618240 109.1990130 125.2000170  11.2144720 109.4101770 126.3618330
  11.3107420 110.1019610 128.0338590  10.5158920 110.0364730 128.5631500
  11.5150700 111.0370250 128.0223940   8.2525840 124.1411160 132.0276980
   8.8484910 123.8195730 131.3511400   8.5103990 123.6682980 132.8190250
   2.0648860 108.5921350 141.5333840   2.0037750 109.1843180 142.2829250
   3.0049240 108.4847310 141.3884100   4.7023420 108.2491410 141.1726130
   5.3163830 108.5670700 140.5107210   5.2472980 107.7640000 141.7921990
  11.1198600 124.1483040 138.5787970  10.6256880 124.5451910 137.8615100
  10.5111890 123.5232250 138.9725250   5.4431460 106.8123550 137.4995420
   4.5691300 107.1458660 137.2968350   5.3342210 106.3396730 138.3247290
   6.3503440 109.0194420 138.8837140   6.0216800 108.2046180 138.5038870
   7.2985740 108.9764230 138.7602830   8.8038050 124.7906460 135.8574710
   8.3441020 125.5422270 135.4832730   8.1750510 124.0712930 135.7989510
   1.9729270 123.9903190 135.8591820   2.2607080 123.7357490 134.9824830
   2.4852490 123.4380550 136.4497390   3.1906280 107.7293390 136.4388330
   2.4078070 108.2038890 136.7185090   2.8969210 106.8248220 136.3301510
   7.7427350 108.4316490 134.4837420   8.1835440 108.3761590 133.6359020
   7.4734940 109.3474500 134.5547600   9.6065920 108.0631730 132.4946240
   9.5454320 107.1192950 132.3477260  10.3857950 108.1711820 133.0399700
   5.5785480 106.8122590 133.1887430   6.1814850 107.3842800 133.6635950
   4.8378470 107.3762030 132.9661330   8.7220080 107.2144150 128.4627710
   8.9170710 108.1127600 128.7295140   7.9349950 106.9831230 128.9560660
   2.0401630 124.9119290 143.2260020   2.9668940 124.6763560 143.2695980
   2.0252060 125.7391290 142.7446050  10.2746690 124.4544860 130.2234270
  10.4498880 123.7682600 129.5795190   9.5768260 124.9791910 129.8310940
   5.8280700 106.9917620 143.5682370   5.7146150 107.3112230 144.4633890
   6.6450440 107.3930130 143.2719650   8.6079190 124.1389150 143.0501060
   9.4004510 123.6438380 142.8427020   8.9012340 124.8179290 143.6576670
   4.7338850 115.0110090 113.9317110   4.6532900 114.0964700 113.6608820
   4.3203270 115.5077160 113.2256820   2.8656890 116.7889110 115.8126380
   2.0898990 116.3089550 116.1024950   3.5169820 116.1094760 115.6382540
   6.8864320 121.1949300 114.5925510   6.4245850 120.4236540 114.9212680
   7.6989870 121.2215370 115.0977960   3.1127630 123.4807310 114.2129500
   2.4939070 123.9364810 113.6423940   3.9679410 123.6358770 113.8119200
   2.3065880 119.4646300 115.8196540   2.2374160 118.5236240 115.6585670
   3.0685740 119.5547710 116.3919110   3.3371050 112.2716680 116.0465470
   3.7135870 111.3988560 115.9339140   3.2390560 112.6075380 115.1555910
   7.1195170 109.7667120 112.9793810   7.9404790 109.2763690 113.0219290
   7.1529250 110.3564780 113.7325650  11.4094720 111.7833870 119.5437440
  10.7046890 112.1715580 119.0252550  11.6752640 112.4784160 120.1458370
   3.9790980 118.3646550 111.6061410   3.3608250 118.8296000 111.0424130
   4.4914230 119.0574030 112.0230920   7.3556650 111.7067500 115.7521350
   6.6512220 111.9952390 116.3324460   7.7168810 112.5167610 115.3920910
   8.9719430 121.3242630 118.0148830   8.2882950 121.9941740 118.0065500
   9.5113720 121.5223280 117.2493690  10.4243570 111.1522290 116.1430560
   9.4768480 111.1861270 116.2745990  10.7493560 111.9661240 116.5279920
   6.5078170 123.1686760 116.7294010   6.5205330 122.7649050 115.8616270
   5.9553390 123.9434050 116.6255440   7.8023590 119.8902980 111.8184180
   7.6919920 118.9477310 111.9433600   7.7991840 120.2518620 112.7046940
   5.9063610 118.0716600 118.0576620   6.3232400 117.8576710 117.2230080
   6.6303430 118.3289390 118.6285240   3.3443870 115.5168300 111.1746670
   2.4173150 115.4505680 111.4035140   3.4968690 116.4548430 111.0601910
   3.3312950 111.7885300 108.1713830   2.3916620 111.9499260 108.2566290
   3.6496210 112.5070980 107.6249820   9.8525710 116.4703820 118.1492860
   9.0244340 116.5396910 117.6742990  10.4476190 117.0558130 117.6808690
   7.3741160 117.0788600 111.6781920   6.7553580 116.7408150 111.0308220
   7.3565610 116.4348360 112.3861110   6.8167720 113.2573140 119.0947730
   6.4038900 114.0826850 119.3487720   6.0843670 112.6718180 118.9024090
   7.5067820 123.3032470 119.7828710   7.0298380 124.1104660 119.5901320
   6.8229610 122.6510800 119.9354920   5.5505860 116.3175410 108.6854670
   5.9899140 115.4797840 108.5392490   6.2634280 116.9504810 108.7718810
   3.6601240 121.2571480 112.6535910   4.0997150 121.9995810 112.2391300
   3.5988130 121.4998050 113.5774870   9.1323000 107.5718220 106.9995710
   8.8195660 107.6645050 107.8994780   9.8935470 108.1499250 106.9493140
  11.0867030 123.0644410 124.8520100  11.5626750 123.5427300 125.5309180
  11.7074190 122.9961900 124.1265600  10.4900280 120.2557260 122.0120110
  10.6163340 120.0169140 121.0937290  10.5321660 119.4241800 122.4842190
   4.3517020 123.9585260 120.5814920   4.8661690 123.8693270 121.3837350
   3.5086100 124.3044960 120.8742830   6.3271420 124.2440600 110.0098920
   6.1672560 123.9543540 110.9080750   6.1618130 123.4680730 109.4744150
   6.0297550 121.7528160 108.5696920   5.3362710 121.7505450 107.9099200
   6.7720410 121.3287480 108.1391090   5.5947480 123.3790870 112.6445410
   6.0504430 122.5980250 112.9584030   5.9340000 124.0897690 113.1886590
  10.3424290 112.3089720 122.9769850   9.7268560 112.8169390 122.4485310
  10.0220710 111.4088050 122.9195790   2.4038610 111.1481610 120.4432040
   1.9417980 111.3564630 121.2551980   2.0016720 110.3340960 120.1402710
   7.4043120 112.3690560 121.5728700   6.5536710 112.0696310 121.8937770
   7.2444910 112.6132570 120.6612520   4.4992830 113.8692310 123.6727490
   4.8246240 113.0356060 123.3329720   5.2873160 114.3920830 123.8205820
   5.1380780 113.4110030 111.1668620   4.5389670 114.1345830 110.9832240
   5.6860390 113.3486810 110.3845070   3.7445650 112.0473570 113.1971900
   4.1375220 112.3645770 112.3840590   4.1062500 111.1685450 113.3116420
   2.0537820 110.7980880 124.4568760   1.3636140 110.6053080 125.0914850
   2.7970120 111.0815520 124.9893060   4.3300790 114.6379320 117.2922680
   3.5981910 115.1466130 117.6412780   3.9325130 113.8209300 116.9911460
   4.7926700 110.0913000 116.7045620   4.8099440 110.5421650 117.5487470
   4.5442280 109.1918640 116.9179060   8.2197450 107.5045180 122.5432000
   8.5443220 106.7734840 123.0689980   8.2553960 107.1858820 121.6412990
   8.1455290 117.6170290 116.1518030   8.8654410 118.1125580 115.7614140
   7.9437110 116.9388180 115.5071900   3.6065230 109.0108250 110.2947420
   2.7929840 108.5121420 110.2192730   3.4127180 109.8506500 109.8783770
   3.5274090 117.6879350 122.0387030   3.4611400 116.7675020 121.7844620
   2.8979230 117.7854790 122.7531670   6.3213620 113.3827900 108.5909580
   7.2093240 113.6945130 108.4160920   6.2918710 112.5100150 108.1990160
   2.3174210 119.5551590 109.2697750   2.6589910 120.2993820 108.7741070
   1.4886920 119.8682710 109.6322580   3.4590820 120.5099920 121.7890830
   3.4735360 119.5780880 121.5709740   2.7515920 120.5959680 122.4280600
   8.5927890 114.6939740 108.0589440   8.5091610 115.1253960 107.2085880
   9.3122080 115.1538090 108.4916260   9.6702030 117.1507260 121.1359410
   8.9450220 117.7436040 120.9388800  10.1977490 117.1430800 120.3372780
   9.6215140 121.5482000 110.7871570   8.9791300 120.8937620 111.0615290
   9.2345800 121.9537090 110.0112240   5.2001620 118.8767430 114.6343260
   5.5525440 118.2795560 113.9744630   4.3163950 118.5511660 114.8051510
   2.8924720 122.1517490 118.8831330   3.5366940 122.3576870 119.5604750
   3.2554160 121.3905890 118.4302180   4.1656800 120.1549840 117.6008780
   4.8079030 119.4543000 117.7140950   4.6906150 120.9348280 117.4205670
   8.0112520 120.4398460 107.3247920   7.7850100 119.7228900 107.9172560
   7.6208720 120.1910900 106.4869670   5.9394420 120.9544740 120.8044840
   6.2750660 121.5411430 121.4822760   5.0194760 120.8237450 121.0342630
   7.5928770 118.3570400 108.9862080   7.3050470 118.8183090 109.7739960
   8.3880940 117.8968170 109.2546300   1.7683000 121.0036070 123.9732900
   1.4479870 120.2845310 124.5178590   1.0941360 121.6791140 124.0468960
   4.9836600 111.2362230 119.3369700   5.3517420 110.4157440 119.6649270
   4.1234800 111.2964120 119.7525350   8.3498630 110.1919170 110.1457260
   7.7211790 110.2964840 109.4315490   7.8550550 110.4115950 110.9351140
   2.7956770 121.9124760 107.5791240   2.8968750 121.7088750 106.6493220
   1.8958510 121.6583040 107.7839020   1.9438590 113.8901820 119.5607670
   2.4423840 114.3647640 120.2259520   2.0861540 112.9665340 119.7677700
   4.3498090 109.1955780 113.0010930   4.2265870 109.2141910 112.0520440
   5.2982650 109.2434720 113.1209330   9.1505450 110.1069780 120.4036060
   8.6479050 110.8475180 120.7429870   9.9662110 110.4953780 120.0872850
   7.4427460 115.3502960 113.8497420   6.5017600 115.3653190 114.0245110
   7.7571530 114.5638920 114.2957720   9.4453040 122.5211810 115.5251680
   9.5700460 123.3442980 115.9975490  10.3118600 122.3102540 115.1775830
   4.7593480 119.9068960 124.3329800   4.1531640 119.9300560 123.5925550
   4.4547590 119.1752000 124.8697050   6.1893850 123.6349250 122.9439210
   7.1415600 123.5507270 122.8939450   6.0422070 124.2990960 123.6173000
   9.0803050 123.0143460 108.4431120   8.7944560 122.6008600 107.6285300
   8.8822600 123.9431170 108.3231640   3.7853010 118.0696770 107.4878720
   3.2363110 118.5166070 108.1321460   4.4072270 117.5646020 108.0116390
   7.8387950 119.4238870 123.4200980   8.5797420 119.7614630 122.9168440
   7.0760630 119.5930930 122.8670750   1.9655770 116.0525300 106.6321120
   2.4861430 115.3374320 106.2662270   2.6124170 116.6911170 106.9321630
   6.5133610 117.4753700 121.9556190   6.9274630 117.6298780 122.8046610
   5.5784610 117.6008920 122.1181970   6.9855780 114.8149860 123.9595340
   7.5676550 114.0602180 123.8715820   7.1617550 115.3457300 123.1826820
   3.6112740 115.1590360 121.3089960   3.7308950 114.5631500 122.0484800
   4.4706740 115.1960050 120.8891260   5.9500640 115.7127550 119.8852470
   5.4235860 116.2370170 119.2817610   6.2931980 116.3454940 120.5162200
   5.1974940 111.3177520 122.7998800   4.5090460 110.6559060 122.7348790
   5.9180960 110.8715790 123.2447260   5.8275340 107.9129150 108.8589060
   6.1077630 107.0697050 109.2148480   5.0541070 108.1452260 109.3727810
   1.9818470 124.9678400 121.2996500   1.9077170 125.8713540 121.6068870
   1.0797310 124.6490300 121.2718570   2.5303800 124.1336910 108.9222860
   3.4254590 124.4721880 108.9441620   2.5621430 123.4116320 108.2947140
   9.5098150 122.6640580 121.6289060   8.9100140 122.7233140 120.8852980
   9.6392050 121.7245560 121.7585910  10.7499600 120.4058400 106.9658770
   9.9192560 120.4735050 107.4366000  10.9271430 121.2962520 106.6625630
  10.2056060 117.1505880 109.4692970  10.9674970 117.7202530 109.5752660
  10.2210430 116.5833080 110.2401280  11.2116030 118.0055980 114.3134900
  11.5824860 117.2223300 113.9070870  11.8517960 118.6945080 114.1352200
   8.1949790 119.3892560 119.7265220   7.3809630 119.8189720 119.9891010
   8.6023990 120.0010970 119.1134270  10.2575230 117.4440250 106.6265490
  10.5324070 118.3519130 106.4984710  10.0685970 117.3802780 107.5627480
   6.6550840 110.4685100 107.9219120   7.0735720 110.2816080 107.0815780
   6.3486900 109.6164150 108.2322050  10.1540570 115.3809240 111.6194920
   9.7784170 114.6137170 111.1876210   9.4243690 115.7631940 112.1069850
   9.5440190 114.5280760 121.2534440   9.3126280 114.2993510 120.3532390
   9.8044740 115.4480310 121.2079330   7.9828260 109.7537190 124.0314140
   8.8598440 109.7620590 124.4148140   7.9949100 109.0168030 123.4206490
   9.4291530 113.6066730 114.9202160   9.9529010 113.1129380 114.2892330
  10.0150950 113.7417090 115.6649730   9.6081250 113.6906600 118.4421710
   8.6583960 113.6570140 118.5566700   9.7894260 114.6006710 118.2071480
   8.9191500 112.8640080 110.8594570   9.4150620 112.6310950 111.6443450
   8.7207570 112.0251920 110.4432210  10.3478660 111.5001030 113.3932250
  10.2377940 111.3457070 114.3314520  11.1086250 110.9721970 113.1507660
   8.6944380 107.4395160 119.8515250   9.3316600 108.0529300 120.2174440
   8.8419270 107.4755820 118.9064480  11.2368930 109.3308950 106.6338390
  12.1618240 109.1990130 106.4256680  11.2144720 109.4101770 107.5874840
  11.3107420 110.1019610 109.2595100  10.5158920 110.0364730 109.7888010
  11.5150700 111.0370250 109.2480450   8.2525840 124.1411160 113.2533490
   8.8484910 123.8195730 112.5767910   8.5103990 123.6682980 114.0446760
   2.0648860 108.5921350 122.7590350   2.0037750 109.1843180 123.5085760
   3.0049240 108.4847310 122.6140610   4.7023420 108.2491410 122.3982640
   5.3163830 108.5670700 121.7363720   5.2472980 107.7640000 123.0178500
  11.1198600 124.1483040 119.8044480  10.6256880 124.5451910 119.0871610
  10.5111890 123.5232250 120.1981760   5.4431460 106.8123550 118.7251930
   4.5691300 107.1458660 118.5224860   5.3342210 106.3396730 119.5503800
   6.3503440 109.0194420 120.1093650   6.0216800 108.2046180 119.7295380
   7.2985740 108.9764230 119.9859340   8.8038050 124.7906460 117.0831220
   8.3441020 125.5422270 116.7089240   8.1750510 124.0712930 117.0246020
   1.9729270 123.9903190 117.0848330   2.2607080 123.7357490 116.2081340
   2.4852490 123.4380550 117.6753900   3.1906280 107.7293390 117.6644840
   2.4078070 108.2038890 117.9441600   2.8969210 106.8248220 117.5558020
   7.7427350 108.4316490 115.7093930   8.1835440 108.3761590 114.8615530
   7.4734940 109.3474500 115.7804110   9.6065920 108.0631730 113.7202750
   9.5454320 107.1192950 113.5733770  10.3857950 108.1711820 114.2656210
   5.5785480 106.8122590 114.4143940   6.1814850 107.3842800 114.8892460
   4.8378470 107.3762030 114.1917840   8.7220080 107.2144150 109.6884220
   8.9170710 108.1127600 109.9551650   7.9349950 106.9831230 110.1817170
   2.0401630 124.9119290 124.4516530   2.9668940 124.6763560 124.4952490
   2.0252060 125.7391290 123.9702560  10.2746690 124.4544860 111.4490780
  10.4498880 123.7682600 110.8051700   9.5768260 124.9791910 111.0567450
   5.8280700 106.9917620 124.7938880   5.7146150 107.3112230 125.6890400
   6.6450440 107.3930130 124.4976160   8.6079190 124.1389150 124.2757570
   9.4004510 123.6438380 124.0683530   8.9012340 124.8179290 124.8833180
   4.7338850 115.0110090  95.1573620   4.6532900 114.0964700  94.8865330
   4.3203270 115.5077160  94.4513330   2.8656890 116.7889110  97.0382890
   2.0898990 116.3089550  97.3281460   3.5169820 116.1094760  96.8639050
   6.8864320 121.1949300  95.8182020   6.4245850 120.4236540  96.1469190
   7.6989870 121.2215370  96.3234470   3.1127630 123.4807310  95.4386010
   2.4939070 123.9364810  94.8680450   3.9679410 123.6358770  95.0375710
   2.3065880 119.4646300  97.0453050   2.2374160 118.5236240  96.8842180
   3.0685740 119.5547710  97.6175620   3.3371050 112.2716680  97.2721980
   3.7135870 111.3988560  97.1595650   3.2390560 112.6075380  96.3812420
   7.1195170 109.7667120  94.2050320   7.9404790 109.2763690  94.2475800
   7.1529250 110.3564780  94.9582160  11.4094720 111.7833870 100.7693950
  10.7046890 112.1715580 100.2509060  11.6752640 112.4784160 101.3714880
   3.9790980 118.3646550  92.8317920   3.3608250 118.8296000  92.2680640
   4.4914230 119.0574030  93.2487430   7.3556650 111.7067500  96.9777860
   6.6512220 111.9952390  97.5580970   7.7168810 112.5167610  96.6177420
   8.9719430 121.3242630  99.2405340   8.2882950 121.9941740  99.2322010
   9.5113720 121.5223280  98.4750200  10.4243570 111.1522290  97.3687070
   9.4768480 111.1861270  97.5002500  10.7493560 111.9661240  97.7536430
   6.5078170 123.1686760  97.9550520   6.5205330 122.7649050  97.0872780
   5.9553390 123.9434050  97.8511950   7.8023590 119.8902980  93.0440690
   7.6919920 118.9477310  93.1690110   7.7991840 120.2518620  93.9303450
   5.9063610 118.0716600  99.2833130   6.3232400 117.8576710  98.4486590
   6.6303430 118.3289390  99.8541750   3.3443870 115.5168300  92.4003180
   2.4173150 115.4505680  92.6291650   3.4968690 116.4548430  92.2858420
   3.3312950 111.7885300  89.3970340   2.3916620 111.9499260  89.4822800
   3.6496210 112.5070980  88.8506330   9.8525710 116.4703820  99.3749370
   9.0244340 116.5396910  98.8999500  10.4476190 117.0558130  98.9065200
   7.3741160 117.0788600  92.9038430   6.7553580 116.7408150  92.2564730
   7.3565610 116.4348360  93.6117620   6.8167720 113.2573140 100.3204240
   6.4038900 114.0826850 100.5744230   6.0843670 112.6718180 100.1280600
   7.5067820 123.3032470 101.0085220   7.0298380 124.1104660 100.8157830
   6.8229610 122.6510800 101.1611430   5.5505860 116.3175410  89.9111180
   5.9899140 115.4797840  89.7649000   6.2634280 116.9504810  89.9975320
   3.6601240 121.2571480  93.8792420   4.0997150 121.9995810  93.4647810
   3.5988130 121.4998050  94.8031380   9.1323000 107.5718220  88.2252220
   8.8195660 107.6645050  89.1251290   9.8935470 108.1499250  88.1749650
  11.0867030 123.0644410 106.0776610  11.5626750 123.5427300 106.7565690
  11.7074190 122.9961900 105.3522110  10.4900280 120.2557260 103.2376620
  10.6163340 120.0169140 102.3193800  10.5321660 119.4241800 103.7098700
   4.3517020 123.9585260 101.8071430   4.8661690 123.8693270 102.6093860
   3.5086100 124.3044960 102.0999340   6.3271420 124.2440600  91.2355430
   6.1672560 123.9543540  92.1337260   6.1618130 123.4680730  90.7000660
   6.0297550 121.7528160  89.7953430   5.3362710 121.7505450  89.1355710
   6.7720410 121.3287480  89.3647600   5.5947480 123.3790870  93.8701920
   6.0504430 122.5980250  94.1840540   5.9340000 124.0897690  94.4143100
  10.3424290 112.3089720 104.2026360   9.7268560 112.8169390 103.6741820
  10.0220710 111.4088050 104.1452300   2.4038610 111.1481610 101.6688550
   1.9417980 111.3564630 102.4808490   2.0016720 110.3340960 101.3659220
   7.4043120 112.3690560 102.7985210   6.5536710 112.0696310 103.1194280
   7.2444910 112.6132570 101.8869030   4.4992830 113.8692310 104.8984000
   4.8246240 113.0356060 104.5586230   5.2873160 114.3920830 105.0462330
   5.1380780 113.4110030  92.3925130   4.5389670 114.1345830  92.2088750
   5.6860390 113.3486810  91.6101580   3.7445650 112.0473570  94.4228410
   4.1375220 112.3645770  93.6097100   4.1062500 111.1685450  94.5372930
   2.0537820 110.7980880 105.6825270   1.3636140 110.6053080 106.3171360
   2.7970120 111.0815520 106.2149570   4.3300790 114.6379320  98.5179190
   3.5981910 115.1466130  98.8669290   3.9325130 113.8209300  98.2167970
   4.7926700 110.0913000  97.9302130   4.8099440 110.5421650  98.7743980
   4.5442280 109.1918640  98.1435570   8.2197450 107.5045180 103.7688510
   8.5443220 106.7734840 104.2946490   8.2553960 107.1858820 102.8669500
   8.1455290 117.6170290  97.3774540   8.8654410 118.1125580  96.9870650
   7.9437110 116.9388180  96.7328410   3.6065230 109.0108250  91.5203930
   2.7929840 108.5121420  91.4449240   3.4127180 109.8506500  91.1040280
   3.5274090 117.6879350 103.2643540   3.4611400 116.7675020 103.0101130
   2.8979230 117.7854790 103.9788180   6.3213620 113.3827900  89.8166090
   7.2093240 113.6945130  89.6417430   6.2918710 112.5100150  89.4246670
   2.3174210 119.5551590  90.4954260   2.6589910 120.2993820  89.9997580
   1.4886920 119.8682710  90.8579090   3.4590820 120.5099920 103.0147340
   3.4735360 119.5780880 102.7966250   2.7515920 120.5959680 103.6537110
   8.5927890 114.6939740  89.2845950   8.5091610 115.1253960  88.4342390
   9.3122080 115.1538090  89.7172770   9.6702030 117.1507260 102.3615920
   8.9450220 117.7436040 102.1645310  10.1977490 117.1430800 101.5629290
   9.6215140 121.5482000  92.0128080   8.9791300 120.8937620  92.2871800
   9.2345800 121.9537090  91.2368750   5.2001620 118.8767430  95.8599770
   5.5525440 118.2795560  95.2001140   4.3163950 118.5511660  96.0308020
   2.8924720 122.1517490 100.1087840   3.5366940 122.3576870 100.7861260
   3.2554160 121.3905890  99.6558690   4.1656800 120.1549840  98.8265290
   4.8079030 119.4543000  98.9397460   4.6906150 120.9348280  98.6462180
   8.0112520 120.4398460  88.5504430   7.7850100 119.7228900  89.1429070
   7.6208720 120.1910900  87.7126180   5.9394420 120.9544740 102.0301350
   6.2750660 121.5411430 102.7079270   5.0194760 120.8237450 102.2599140
   7.5928770 118.3570400  90.2118590   7.3050470 118.8183090  90.9996470
   8.3880940 117.8968170  90.4802810   1.7683000 121.0036070 105.1989410
   1.4479870 120.2845310 105.7435100   1.0941360 121.6791140 105.2725470
   4.9836600 111.2362230 100.5626210   5.3517420 110.4157440 100.8905780
   4.1234800 111.2964120 100.9781860   8.3498630 110.1919170  91.3713770
   7.7211790 110.2964840  90.6572000   7.8550550 110.4115950  92.1607650
   2.7956770 121.9124760  88.8047750   2.8968750 121.7088750  87.8749730
   1.8958510 121.6583040  89.0095530   1.9438590 113.8901820 100.7864180
   2.4423840 114.3647640 101.4516030   2.0861540 112.9665340 100.9934210
   4.3498090 109.1955780  94.2267440   4.2265870 109.2141910  93.2776950
   5.2982650 109.2434720  94.3465840   9.1505450 110.1069780 101.6292570
   8.6479050 110.8475180 101.9686380   9.9662110 110.4953780 101.3129360
   7.4427460 115.3502960  95.0753930   6.5017600 115.3653190  95.2501620
   7.7571530 114.5638920  95.5214230   9.4453040 122.5211810  96.7508190
   9.5700460 123.3442980  97.2232000  10.3118600 122.3102540  96.4032340
   4.7593480 119.9068960 105.5586310   4.1531640 119.9300560 104.8182060
   4.4547590 119.1752000 106.0953560   6.1893850 123.6349250 104.1695720
   7.1415600 123.5507270 104.1195960   6.0422070 124.2990960 104.8429510
   9.0803050 123.0143460  89.6687630   8.7944560 122.6008600  88.8541810
   8.8822600 123.9431170  89.5488150   3.7853010 118.0696770  88.7135230
   3.2363110 118.5166070  89.3577970   4.4072270 117.5646020  89.2372900
   7.8387950 119.4238870 104.6457490   8.5797420 119.7614630 104.1424950
   7.0760630 119.5930930 104.0927260   1.9655770 116.0525300  87.8577630
   2.4861430 115.3374320  87.4918780   2.6124170 116.6911170  88.1578140
   6.5133610 117.4753700 103.1812700   6.9274630 117.6298780 104.0303120
   5.5784610 117.6008920 103.3438480   6.9855780 114.8149860 105.1851850
   7.5676550 114.0602180 105.0972330   7.1617550 115.3457300 104.4083330
   3.6112740 115.1590360 102.5346470   3.7308950 114.5631500 103.2741310
   4.4706740 115.1960050 102.1147770   5.9500640 115.7127550 101.1108980
   5.4235860 116.2370170 100.5074120   6.2931980 116.3454940 101.7418710
   5.1974940 111.3177520 104.0255310   4.5090460 110.6559060 103.9605300
   5.9180960 110.8715790 104.4703770   5.8275340 107.9129150  90.0845570
   6.1077630 107.0697050  90.4404990   5.0541070 108.1452260  90.5984320
   1.9818470 124.9678400 102.5253010   1.9077170 125.8713540 102.8325380
   1.0797310 124.6490300 102.4975080   2.5303800 124.1336910  90.1479370
   3.4254590 124.4721880  90.1698130   2.5621430 123.4116320  89.5203650
   9.5098150 122.6640580 102.8545570   8.9100140 122.7233140 102.1109490
   9.6392050 121.7245560 102.9842420  10.7499600 120.4058400  88.1915280
   9.9192560 120.4735050  88.6622510  10.9271430 121.2962520  87.8882140
  10.2056060 117.1505880  90.6949480  10.9674970 117.7202530  90.8009170
  10.2210430 116.5833080  91.4657790  11.2116030 118.0055980  95.5391410
  11.5824860 117.2223300  95.1327380  11.8517960 118.6945080  95.3608710
   8.1949790 119.3892560 100.9521730   7.3809630 119.8189720 101.2147520
   8.6023990 120.0010970 100.3390780  10.2575230 117.4440250  87.8522000
  10.5324070 118.3519130  87.7241220  10.0685970 117.3802780  88.7883990
   6.6550840 110.4685100  89.1475630   7.0735720 110.2816080  88.3072290
   6.3486900 109.6164150  89.4578560  10.1540570 115.3809240  92.8451430
   9.7784170 114.6137170  92.4132720   9.4243690 115.7631940  93.3326360
   9.5440190 114.5280760 102.4790950   9.3126280 114.2993510 101.5788900
   9.8044740 115.4480310 102.4335840   7.9828260 109.7537190 105.2570650
   8.8598440 109.7620590 105.6404650   7.9949100 109.0168030 104.6463000
   9.4291530 113.6066730  96.1458670   9.9529010 113.1129380  95.5148840
  10.0150950 113.7417090  96.8906240   9.6081250 113.6906600  99.6678220
   8.6583960 113.6570140  99.7823210   9.7894260 114.6006710  99.4327990
   8.9191500 112.8640080  92.0851080   9.4150620 112.6310950  92.8699960
   8.7207570 112.0251920  91.6688720  10.3478660 111.5001030  94.6188760
  10.2377940 111.3457070  95.5571030  11.1086250 110.9721970  94.3764170
   8.6944380 107.4395160 101.0771760   9.3316600 108.0529300 101.4430950
   8.8419270 107.4755820 100.1320990  11.2368930 109.3308950  87.8594900
  12.1618240 109.1990130  87.6513190  11.2144720 109.4101770  88.8131350
  11.3107420 110.1019610  90.4851610  10.5158920 110.0364730  91.0144520
  11.5150700 111.0370250  90.4736960   8.2525840 124.1411160  94.4790000
   8.8484910 123.8195730  93.8024420   8.5103990 123.6682980  95.2703270
   2.0648860 108.5921350 103.9846860   2.0037750 109.1843180 104.7342270
   3.0049240 108.4847310 103.8397120   4.7023420 108.2491410 103.6239150
   5.3163830 108.5670700 102.9620230   5.2472980 107.7640000 104.2435010
  11.1198600 124.1483040 101.0300990  10.6256880 124.5451910 100.3128120
  10.5111890 123.5232250 101.4238270   5.4431460 106.8123550  99.9508440
   4.5691300 107.1458660  99.7481370   5.3342210 106.3396730 100.7760310
   6.3503440 109.0194420 101.3350160   6.0216800 108.2046180 100.9551890
   7.2985740 108.9764230 101.2115850   8.8038050 124.7906460  98.3087730
   8.3441020 125.5422270  97.9345750   8.1750510 124.0712930  98.2502530
   1.9729270 123.9903190  98.3104840   2.2607080 123.7357490  97.4337850
   2.4852490 123.4380550  98.9010410   3.1906280 107.7293390  98.8901350
   2.4078070 108.2038890  99.1698110   2.8969210 106.8248220  98.7814530
   7.7427350 108.4316490  96.9350440   8.1835440 108.3761590  96.0872040
   7.4734940 109.3474500  97.0060620   9.6065920 108.0631730  94.9459260
   9.5454320 107.1192950  94.7990280  10.3857950 108.1711820  95.4912720
   5.5785480 106.8122590  95.6400450   6.1814850 107.3842800  96.1148970
   4.8378470 107.3762030  95.4174350   8.7220080 107.2144150  90.9140730
   8.9170710 108.1127600  91.1808160   7.9349950 106.9831230  91.4073680
   2.0401630 124.9119290 105.6773040   2.9668940 124.6763560 105.7209000
   2.0252060 125.7391290 105.1959070  10.2746690 124.4544860  92.6747290
  10.4498880 123.7682600  92.0308210   9.5768260 124.9791910  92.2823960
   5.8280700 106.9917620 106.0195390   5.7146150 107.3112230 106.9146910
   6.6450440 107.3930130 105.7232670   8.6079190 124.1389150 105.5014080
   9.4004510 123.6438380 105.2940040   8.9012340 124.8179290 106.1089690
   4.7338850 115.0110090  76.3830130   4.6532900 114.0964700  76.1121840
   4.3203270 115.5077160  75.6769840   2.8656890 116.7889110  78.2639400
   2.0898990 116.3089550  78.5537970   3.5169820 116.1094760  78.0895560
   6.8864320 121.1949300  77.0438530   6.4245850 120.4236540  77.3725700
   7.6989870 121.2215370  77.5490980   3.1127630 123.4807310  76.6642520
   2.4939070 123.9364810  76.0936960   3.9679410 123.6358770  76.2632220
   2.3065880 119.4646300  78.2709560   2.2374160 118.5236240  78.1098690
   3.0685740 119.5547710  78.8432130   3.3371050 112.2716680  78.4978490
   3.7135870 111.3988560  78.3852160   3.2390560 112.6075380  77.6068930
   7.1195170 109.7667120  75.4306830   7.9404790 109.2763690  75.4732310
   7.1529250 110.3564780  76.1838670  11.4094720 111.7833870  81.9950460
  10.7046890 112.1715580  81.4765570  11.6752640 112.4784160  82.5971390
   3.9790980 118.3646550  74.0574430   3.3608250 118.8296000  73.4937150
   4.4914230 119.0574030  74.4743940   7.3556650 111.7067500  78.2034370
   6.6512220 111.9952390  78.7837480   7.7168810 112.5167610  77.8433930
   8.9719430 121.3242630  80.4661850   8.2882950 121.9941740  80.4578520
   9.5113720 121.5223280  79.7006710  10.4243570 111.1522290  78.5943580
   9.4768480 111.1861270  78.7259010  10.7493560 111.9661240  78.9792940
   6.5078170 123.1686760  79.1807030   6.5205330 122.7649050  78.3129290
   5.9553390 123.9434050  79.0768460   7.8023590 119.8902980  74.2697200
   7.6919920 118.9477310  74.3946620   7.7991840 120.2518620  75.1559960
   5.9063610 118.0716600  80.5089640   6.3232400 117.8576710  79.6743100
   6.6303430 118.3289390  81.0798260   3.3443870 115.5168300  73.6259690
   2.4173150 115.4505680  73.8548160   3.4968690 116.4548430  73.5114930
   3.3312950 111.7885300  70.6226850   2.3916620 111.9499260  70.7079310
   3.6496210 112.5070980  70.0762840   9.8525710 116.4703820  80.6005880
   9.0244340 116.5396910  80.1256010  10.4476190 117.0558130  80.1321710
   7.3741160 117.0788600  74.1294940   6.7553580 116.7408150  73.4821240
   7.3565610 116.4348360  74.8374130   6.8167720 113.2573140  81.5460750
   6.4038900 114.0826850  81.8000740   6.0843670 112.6718180  81.3537110
   7.5067820 123.3032470  82.2341730   7.0298380 124.1104660  82.0414340
   6.8229610 122.6510800  82.3867940   5.5505860 116.3175410  71.1367690
   5.9899140 115.4797840  70.9905510   6.2634280 116.9504810  71.2231830
   3.6601240 121.2571480  75.1048930   4.0997150 121.9995810  74.6904320
   3.5988130 121.4998050  76.0287890   9.1323000 107.5718220  69.4508730
   8.8195660 107.6645050  70.3507800   9.8935470 108.1499250  69.4006160
  11.0867030 123.0644410  87.3033120  11.5626750 123.5427300  87.9822200
  11.7074190 122.9961900  86.5778620  10.4900280 120.2557260  84.4633130
  10.6163340 120.0169140  83.5450310  10.5321660 119.4241800  84.9355210
   4.3517020 123.9585260  83.0327940   4.8661690 123.8693270  83.8350370
   3.5086100 124.3044960  83.3255850   6.3271420 124.2440600  72.4611940
   6.1672560 123.9543540  73.3593770   6.1618130 123.4680730  71.9257170
   6.0297550 121.7528160  71.0209940   5.3362710 121.7505450  70.3612220
   6.7720410 121.3287480  70.5904110   5.5947480 123.3790870  75.0958430
   6.0504430 122.5980250  75.4097050   5.9340000 124.0897690  75.6399610
  10.3424290 112.3089720  85.4282870   9.7268560 112.8169390  84.8998330
  10.0220710 111.4088050  85.3708810   2.4038610 111.1481610  82.8945060
   1.9417980 111.3564630  83.7065000   2.0016720 110.3340960  82.5915730
   7.4043120 112.3690560  84.0241720   6.5536710 112.0696310  84.3450790
   7.2444910 112.6132570  83.1125540   4.4992830 113.8692310  86.1240510
   4.8246240 113.0356060  85.7842740   5.2873160 114.3920830  86.2718840
   5.1380780 113.4110030  73.6181640   4.5389670 114.1345830  73.4345260
   5.6860390 113.3486810  72.8358090   3.7445650 112.0473570  75.6484920
   4.1375220 112.3645770  74.8353610   4.1062500 111.1685450  75.7629440
   2.0537820 110.7980880  86.9081780   1.3636140 110.6053080  87.5427870
   2.7970120 111.0815520  87.4406080   4.3300790 114.6379320  79.7435700
   3.5981910 115.1466130  80.0925800   3.9325130 113.8209300  79.4424480
   4.7926700 110.0913000  79.1558640   4.8099440 110.5421650  80.0000490
   4.5442280 109.1918640  79.3692080   8.2197450 107.5045180  84.9945020
   8.5443220 106.7734840  85.5203000   8.2553960 107.1858820  84.0926010
   8.1455290 117.6170290  78.6031050   8.8654410 118.1125580  78.2127160
   7.9437110 116.9388180  77.9584920   3.6065230 109.0108250  72.7460440
   2.7929840 108.5121420  72.6705750   3.4127180 109.8506500  72.3296790
   3.5274090 117.6879350  84.4900050   3.4611400 116.7675020  84.2357640
   2.8979230 117.7854790  85.2044690   6.3213620 113.3827900  71.0422600
   7.2093240 113.6945130  70.8673940   6.2918710 112.5100150  70.6503180
   2.3174210 119.5551590  71.7210770   2.6589910 120.2993820  71.2254090
   1.4886920 119.8682710  72.0835600   3.4590820 120.5099920  84.2403850
   3.4735360 119.5780880  84.0222760   2.7515920 120.5959680  84.8793620
   8.5927890 114.6939740  70.5102460   8.5091610 115.1253960  69.6598900
   9.3122080 115.1538090  70.9429280   9.6702030 117.1507260  83.5872430
   8.9450220 117.7436040  83.3901820  10.1977490 117.1430800  82.7885800
   9.6215140 121.5482000  73.2384590   8.9791300 120.8937620  73.5128310
   9.2345800 121.9537090  72.4625260   5.2001620 118.8767430  77.0856280
   5.5525440 118.2795560  76.4257650   4.3163950 118.5511660  77.2564530
   2.8924720 122.1517490  81.3344350   3.5366940 122.3576870  82.0117770
   3.2554160 121.3905890  80.8815200   4.1656800 120.1549840  80.0521800
   4.8079030 119.4543000  80.1653970   4.6906150 120.9348280  79.8718690
   8.0112520 120.4398460  69.7760940   7.7850100 119.7228900  70.3685580
   7.6208720 120.1910900  68.9382690   5.9394420 120.9544740  83.2557860
   6.2750660 121.5411430  83.9335780   5.0194760 120.8237450  83.4855650
   7.5928770 118.3570400  71.4375100   7.3050470 118.8183090  72.2252980
   8.3880940 117.8968170  71.7059320   1.7683000 121.0036070  86.4245920
   1.4479870 120.2845310  86.9691610   1.0941360 121.6791140  86.4981980
   4.9836600 111.2362230  81.7882720   5.3517420 110.4157440  82.1162290
   4.1234800 111.2964120  82.2038370   8.3498630 110.1919170  72.5970280
   7.7211790 110.2964840  71.8828510   7.8550550 110.4115950  73.3864160
   2.7956770 121.9124760  70.0304260   2.8968750 121.7088750  69.1006240
   1.8958510 121.6583040  70.2352040   1.9438590 113.8901820  82.0120690
   2.4423840 114.3647640  82.6772540   2.0861540 112.9665340  82.2190720
   4.3498090 109.1955780  75.4523950   4.2265870 109.2141910  74.5033460
   5.2982650 109.2434720  75.5722350   9.1505450 110.1069780  82.8549080
   8.6479050 110.8475180  83.1942890   9.9662110 110.4953780  82.5385870
   7.4427460 115.3502960  76.3010440   6.5017600 115.3653190  76.4758130
   7.7571530 114.5638920  76.7470740   9.4453040 122.5211810  77.9764700
   9.5700460 123.3442980  78.4488510  10.3118600 122.3102540  77.6288850
   4.7593480 119.9068960  86.7842820   4.1531640 119.9300560  86.0438570
   4.4547590 119.1752000  87.3210070   6.1893850 123.6349250  85.3952230
   7.1415600 123.5507270  85.3452470   6.0422070 124.2990960  86.0686020
   9.0803050 123.0143460  70.8944140   8.7944560 122.6008600  70.0798320
   8.8822600 123.9431170  70.7744660   3.7853010 118.0696770  69.9391740
   3.2363110 118.5166070  70.5834480   4.4072270 117.5646020  70.4629410
   7.8387950 119.4238870  85.8714000   8.5797420 119.7614630  85.3681460
   7.0760630 119.5930930  85.3183770   1.9655770 116.0525300  69.0834140
   2.4861430 115.3374320  68.7175290   2.6124170 116.6911170  69.3834650
   6.5133610 117.4753700  84.4069210   6.9274630 117.6298780  85.2559630
   5.5784610 117.6008920  84.5694990   6.9855780 114.8149860  86.4108360
   7.5676550 114.0602180  86.3228840   7.1617550 115.3457300  85.6339840
   3.6112740 115.1590360  83.7602980   3.7308950 114.5631500  84.4997820
   4.4706740 115.1960050  83.3404280   5.9500640 115.7127550  82.3365490
   5.4235860 116.2370170  81.7330630   6.2931980 116.3454940  82.9675220
   5.1974940 111.3177520  85.2511820   4.5090460 110.6559060  85.1861810
   5.9180960 110.8715790  85.6960280   5.8275340 107.9129150  71.3102080
   6.1077630 107.0697050  71.6661500   5.0541070 108.1452260  71.8240830
   1.9818470 124.9678400  83.7509520   1.9077170 125.8713540  84.0581890
   1.0797310 124.6490300  83.7231590   2.5303800 124.1336910  71.3735880
   3.4254590 124.4721880  71.3954640   2.5621430 123.4116320  70.7460160
   9.5098150 122.6640580  84.0802080   8.9100140 122.7233140  83.3366000
   9.6392050 121.7245560  84.2098930  10.7499600 120.4058400  69.4171790
   9.9192560 120.4735050  69.8879020  10.9271430 121.2962520  69.1138650
  10.2056060 117.1505880  71.9205990  10.9674970 117.7202530  72.0265680
  10.2210430 116.5833080  72.6914300  11.2116030 118.0055980  76.7647920
  11.5824860 117.2223300  76.3583890  11.8517960 118.6945080  76.5865220
   8.1949790 119.3892560  82.1778240   7.3809630 119.8189720  82.4404030
   8.6023990 120.0010970  81.5647290  10.2575230 117.4440250  69.0778510
  10.5324070 118.3519130  68.9497730  10.0685970 117.3802780  70.0140500
   6.6550840 110.4685100  70.3732140   7.0735720 110.2816080  69.5328800
   6.3486900 109.6164150  70.6835070  10.1540570 115.3809240  74.0707940
   9.7784170 114.6137170  73.6389230   9.4243690 115.7631940  74.5582870
   9.5440190 114.5280760  83.7047460   9.3126280 114.2993510  82.8045410
   9.8044740 115.4480310  83.6592350   7.9828260 109.7537190  86.4827160
   8.8598440 109.7620590  86.8661160   7.9949100 109.0168030  85.8719510
   9.4291530 113.6066730  77.3715180   9.9529010 113.1129380  76.7405350
  10.0150950 113.7417090  78.1162750   9.6081250 113.6906600  80.8934730
   8.6583960 113.6570140  81.0079720   9.7894260 114.6006710  80.6584500
   8.9191500 112.8640080  73.3107590   9.4150620 112.6310950  74.0956470
   8.7207570 112.0251920  72.8945230  10.3478660 111.5001030  75.8445270
  10.2377940 111.3457070  76.7827540  11.1086250 110.9721970  75.6020680
   8.6944380 107.4395160  82.3028270   9.3316600 108.0529300  82.6687460
   8.8419270 107.4755820  81.3577500  11.2368930 109.3308950  69.0851410
  12.1618240 109.1990130  68.8769700  11.2144720 109.4101770  70.0387860
  11.3107420 110.1019610  71.7108120  10.5158920 110.0364730  72.2401030
  11.5150700 111.0370250  71.6993470   8.2525840 124.1411160  75.7046510
   8.8484910 123.8195730  75.0280930   8.5103990 123.6682980  76.4959780
   2.0648860 108.5921350  85.2103370   2.0037750 109.1843180  85.9598780
   3.0049240 108.4847310  85.0653630   4.7023420 108.2491410  84.8495660
   5.3163830 108.5670700  84.1876740   5.2472980 107.7640000  85.4691520
  11.1198600 124.1483040  82.2557500  10.6256880 124.5451910  81.5384630
  10.5111890 123.5232250  82.6494780   5.4431460 106.8123550  81.1764950
   4.5691300 107.1458660  80.9737880   5.3342210 106.3396730  82.0016820
   6.3503440 109.0194420  82.5606670   6.0216800 108.2046180  82.1808400
   7.2985740 108.9764230  82.4372360   8.8038050 124.7906460  79.5344240
   8.3441020 125.5422270  79.1602260   8.1750510 124.0712930  79.4759040
   1.9729270 123.9903190  79.5361350   2.2607080 123.7357490  78.6594360
   2.4852490 123.4380550  80.1266920   3.1906280 107.7293390  80.1157860
   2.4078070 108.2038890  80.3954620   2.8969210 106.8248220  80.0071040
   7.7427350 108.4316490  78.1606950   8.1835440 108.3761590  77.3128550
   7.4734940 109.3474500  78.2317130   9.6065920 108.0631730  76.1715770
   9.5454320 107.1192950  76.0246790  10.3857950 108.1711820  76.7169230
   5.5785480 106.8122590  76.8656960   6.1814850 107.3842800  77.3405480
   4.8378470 107.3762030  76.6430860   8.7220080 107.2144150  72.1397240
   8.9170710 108.1127600  72.4064670   7.9349950 106.9831230  72.6330190
   2.0401630 124.9119290  86.9029550   2.9668940 124.6763560  86.9465510
   2.0252060 125.7391290  86.4215580  10.2746690 124.4544860  73.9003800
  10.4498880 123.7682600  73.2564720   9.5768260 124.9791910  73.5080470
   5.8280700 106.9917620  87.2451900   5.7146150 107.3112230  88.1403420
   6.6450440 107.3930130  86.9489180   8.6079190 124.1389150  86.7270590
   9.4004510 123.6438380  86.5196550   8.9012340 124.8179290  87.3346200
   4.7338850 115.0110090  57.6086640   4.6532900 114.0964700  57.3378350
   4.3203270 115.5077160  56.9026350   2.8656890 116.7889110  59.4895910
   2.0898990 116.3089550  59.7794480   3.5169820 116.1094760  59.3152070
   6.8864320 121.1949300  58.2695040   6.4245850 120.4236540  58.5982210
   7.6989870 121.2215370  58.7747490   3.1127630 123.4807310  57.8899030
   2.4939070 123.9364810  57.3193470   3.9679410 123.6358770  57.4888730
   2.3065880 119.4646300  59.4966070   2.2374160 118.5236240  59.3355200
   3.0685740 119.5547710  60.0688640   3.3371050 112.2716680  59.7235000
   3.7135870 111.3988560  59.6108670   3.2390560 112.6075380  58.8325440
   7.1195170 109.7667120  56.6563340   7.9404790 109.2763690  56.6988820
   7.1529250 110.3564780  57.4095180  11.4094720 111.7833870  63.2206970
  10.7046890 112.1715580  62.7022080  11.6752640 112.4784160  63.8227900
   3.9790980 118.3646550  55.2830940   3.3608250 118.8296000  54.7193660
   4.4914230 119.0574030  55.7000450   7.3556650 111.7067500  59.4290880
   6.6512220 111.9952390  60.0093990   7.7168810 112.5167610  59.0690440
   8.9719430 121.3242630  61.6918360   8.2882950 121.9941740  61.6835030
   9.5113720 121.5223280  60.9263220  10.4243570 111.1522290  59.8200090
   9.4768480 111.1861270  59.9515520  10.7493560 111.9661240  60.2049450
   6.5078170 123.1686760  60.4063540   6.5205330 122.7649050  59.5385800
   5.9553390 123.9434050  60.3024970   7.8023590 119.8902980  55.4953710
   7.6919920 118.9477310  55.6203130   7.7991840 120.2518620  56.3816470
   5.9063610 118.0716600  61.7346150   6.3232400 117.8576710  60.8999610
   6.6303430 118.3289390  62.3054770   3.3443870 115.5168300  54.8516200
   2.4173150 115.4505680  55.0804670   3.4968690 116.4548430  54.7371440
   3.3312950 111.7885300  51.8483360   2.3916620 111.9499260  51.9335820
   3.6496210 112.5070980  51.3019350   9.8525710 116.4703820  61.8262390
   9.0244340 116.5396910  61.3512520  10.4476190 117.0558130  61.3578220
   7.3741160 117.0788600  55.3551450   6.7553580 116.7408150  54.7077750
   7.3565610 116.4348360  56.0630640   6.8167720 113.2573140  62.7717260
   6.4038900 114.0826850  63.0257250   6.0843670 112.6718180  62.5793620
   7.5067820 123.3032470  63.4598240   7.0298380 124.1104660  63.2670850
   6.8229610 122.6510800  63.6124450   5.5505860 116.3175410  52.3624200
   5.9899140 115.4797840  52.2162020   6.2634280 116.9504810  52.4488340
   3.6601240 121.2571480  56.3305440   4.0997150 121.9995810  55.9160830
   3.5988130 121.4998050  57.2544400   9.1323000 107.5718220  50.6765240
   8.8195660 107.6645050  51.5764310   9.8935470 108.1499250  50.6262670
  11.0867030 123.0644410  68.5289630  11.5626750 123.5427300  69.2078710
  11.7074190 122.9961900  67.8035130  10.4900280 120.2557260  65.6889640
  10.6163340 120.0169140  64.7706820  10.5321660 119.4241800  66.1611720
   4.3517020 123.9585260  64.2584450   4.8661690 123.8693270  65.0606880
   3.5086100 124.3044960  64.5512360   6.3271420 124.2440600  53.6868450
   6.1672560 123.9543540  54.5850280   6.1618130 123.4680730  53.1513680
   6.0297550 121.7528160  52.2466450   5.3362710 121.7505450  51.5868730
   6.7720410 121.3287480  51.8160620   5.5947480 123.3790870  56.3214940
   6.0504430 122.5980250  56.6353560   5.9340000 124.0897690  56.8656120
  10.3424290 112.3089720  66.6539380   9.7268560 112.8169390  66.1254840
  10.0220710 111.4088050  66.5965320   2.4038610 111.1481610  64.1201570
   1.9417980 111.3564630  64.9321510   2.0016720 110.3340960  63.8172240
   7.4043120 112.3690560  65.2498230   6.5536710 112.0696310  65.5707300
   7.2444910 112.6132570  64.3382050   4.4992830 113.8692310  67.3497020
   4.8246240 113.0356060  67.0099250   5.2873160 114.3920830  67.4975350
   5.1380780 113.4110030  54.8438150   4.5389670 114.1345830  54.6601770
   5.6860390 113.3486810  54.0614600   3.7445650 112.0473570  56.8741430
   4.1375220 112.3645770  56.0610120   4.1062500 111.1685450  56.9885950
   2.0537820 110.7980880  68.1338290   1.3636140 110.6053080  68.7684380
   2.7970120 111.0815520  68.6662590   4.3300790 114.6379320  60.9692210
   3.5981910 115.1466130  61.3182310   3.9325130 113.8209300  60.6680990
   4.7926700 110.0913000  60.3815150   4.8099440 110.5421650  61.2257000
   4.5442280 109.1918640  60.5948590   8.2197450 107.5045180  66.2201530
   8.5443220 106.7734840  66.7459510   8.2553960 107.1858820  65.3182520
   8.1455290 117.6170290  59.8287560   8.8654410 118.1125580  59.4383670
   7.9437110 116.9388180  59.1841430   3.6065230 109.0108250  53.9716950
   2.7929840 108.5121420  53.8962260   3.4127180 109.8506500  53.5553300
   3.5274090 117.6879350  65.7156560   3.4611400 116.7675020  65.4614150
   2.8979230 117.7854790  66.4301200   6.3213620 113.3827900  52.2679110
   7.2093240 113.6945130  52.0930450   6.2918710 112.5100150  51.8759690
   2.3174210 119.5551590  52.9467280   2.6589910 120.2993820  52.4510600
   1.4886920 119.8682710  53.3092110   3.4590820 120.5099920  65.4660360
   3.4735360 119.5780880  65.2479270   2.7515920 120.5959680  66.1050130
   8.5927890 114.6939740  51.7358970   8.5091610 115.1253960  50.8855410
   9.3122080 115.1538090  52.1685790   9.6702030 117.1507260  64.8128940
   8.9450220 117.7436040  64.6158330  10.1977490 117.1430800  64.0142310
   9.6215140 121.5482000  54.4641100   8.9791300 120.8937620  54.7384820
   9.2345800 121.9537090  53.6881770   5.2001620 118.8767430  58.3112790
   5.5525440 118.2795560  57.6514160   4.3163950 118.5511660  58.4821040
   2.8924720 122.1517490  62.5600860   3.5366940 122.3576870  63.2374280
   3.2554160 121.3905890  62.1071710   4.1656800 120.1549840  61.2778310
   4.8079030 119.4543000  61.3910480   4.6906150 120.9348280  61.0975200
   8.0112520 120.4398460  51.0017450   7.7850100 119.7228900  51.5942090
   7.6208720 120.1910900  50.1639200   5.9394420 120.9544740  64.4814370
   6.2750660 121.5411430  65.1592290   5.0194760 120.8237450  64.7112160
   7.5928770 118.3570400  52.6631610   7.3050470 118.8183090  53.4509490
   8.3880940 117.8968170  52.9315830   1.7683000 121.0036070  67.6502430
   1.4479870 120.2845310  68.1948120   1.0941360 121.6791140  67.7238490
   4.9836600 111.2362230  63.0139230   5.3517420 110.4157440  63.3418800
   4.1234800 111.2964120  63.4294880   8.3498630 110.1919170  53.8226790
   7.7211790 110.2964840  53.1085020   7.8550550 110.4115950  54.6120670
   2.7956770 121.9124760  51.2560770   2.8968750 121.7088750  50.3262750
   1.8958510 121.6583040  51.4608550   1.9438590 113.8901820  63.2377200
   2.4423840 114.3647640  63.9029050   2.0861540 112.9665340  63.4447230
   4.3498090 109.1955780  56.6780460   4.2265870 109.2141910  55.7289970
   5.2982650 109.2434720  56.7978860   9.1505450 110.1069780  64.0805590
   8.6479050 110.8475180  64.4199400   9.9662110 110.4953780  63.7642380
   7.4427460 115.3502960  57.5266950   6.5017600 115.3653190  57.7014640
   7.7571530 114.5638920  57.9727250   9.4453040 122.5211810  59.2021210
   9.5700460 123.3442980  59.6745020  10.3118600 122.3102540  58.8545360
   4.7593480 119.9068960  68.0099330   4.1531640 119.9300560  67.2695080
   4.4547590 119.1752000  68.5466580   6.1893850 123.6349250  66.6208740
   7.1415600 123.5507270  66.5708980   6.0422070 124.2990960  67.2942530
   9.0803050 123.0143460  52.1200650   8.7944560 122.6008600  51.3054830
   8.8822600 123.9431170  52.0001170   3.7853010 118.0696770  51.1648250
   3.2363110 118.5166070  51.8090990   4.4072270 117.5646020  51.6885920
   7.8387950 119.4238870  67.0970510   8.5797420 119.7614630  66.5937970
   7.0760630 119.5930930  66.5440280   1.9655770 116.0525300  50.3090650
   2.4861430 115.3374320  49.9431800   2.6124170 116.6911170  50.6091160
   6.5133610 117.4753700  65.6325720   6.9274630 117.6298780  66.4816140
   5.5784610 117.6008920  65.7951500   6.9855780 114.8149860  67.6364870
   7.5676550 114.0602180  67.5485350   7.1617550 115.3457300  66.8596350
   3.6112740 115.1590360  64.9859490   3.7308950 114.5631500  65.7254330
   4.4706740 115.1960050  64.5660790   5.9500640 115.7127550  63.5622000
   5.4235860 116.2370170  62.9587140   6.2931980 116.3454940  64.1931730
   5.1974940 111.3177520  66.4768330   4.5090460 110.6559060  66.4118320
   5.9180960 110.8715790  66.9216790   5.8275340 107.9129150  52.5358590
   6.1077630 107.0697050  52.8918010   5.0541070 108.1452260  53.0497340
   1.9818470 124.9678400  64.9766030   1.9077170 125.8713540  65.2838400
   1.0797310 124.6490300  64.9488100   2.5303800 124.1336910  52.5992390
   3.4254590 124.4721880  52.6211150   2.5621430 123.4116320  51.9716670
   9.5098150 122.6640580  65.3058590   8.9100140 122.7233140  64.5622510
   9.6392050 121.7245560  65.4355440  10.7499600 120.4058400  50.6428300
   9.9192560 120.4735050  51.1135530  10.9271430 121.2962520  50.3395160
  10.2056060 117.1505880  53.1462500  10.9674970 117.7202530  53.2522190
  10.2210430 116.5833080  53.9170810  11.2116030 118.0055980  57.9904430
  11.5824860 117.2223300  57.5840400  11.8517960 118.6945080  57.8121730
   8.1949790 119.3892560  63.4034750   7.3809630 119.8189720  63.6660540
   8.6023990 120.0010970  62.7903800  10.2575230 117.4440250  50.3035020
  10.5324070 118.3519130  50.1754240  10.0685970 117.3802780  51.2397010
   6.6550840 110.4685100  51.5988650   7.0735720 110.2816080  50.7585310
   6.3486900 109.6164150  51.9091580  10.1540570 115.3809240  55.2964450
   9.7784170 114.6137170  54.8645740   9.4243690 115.7631940  55.7839380
   9.5440190 114.5280760  64.9303970   9.3126280 114.2993510  64.0301920
   9.8044740 115.4480310  64.8848860   7.9828260 109.7537190  67.7083670
   8.8598440 109.7620590  68.0917670   7.9949100 109.0168030  67.0976020
   9.4291530 113.6066730  58.5971690   9.9529010 113.1129380  57.9661860
  10.0150950 113.7417090  59.3419260   9.6081250 113.6906600  62.1191240
   8.6583960 113.6570140  62.2336230   9.7894260 114.6006710  61.8841010
   8.9191500 112.8640080  54.5364100   9.4150620 112.6310950  55.3212980
   8.7207570 112.0251920  54.1201740  10.3478660 111.5001030  57.0701780
  10.2377940 111.3457070  58.0084050  11.1086250 110.9721970  56.8277190
   8.6944380 107.4395160  63.5284780   9.3316600 108.0529300  63.8943970
   8.8419270 107.4755820  62.5834010  11.2368930 109.3308950  50.3107920
  12.1618240 109.1990130  50.1026210  11.2144720 109.4101770  51.2644370
  11.3107420 110.1019610  52.9364630  10.5158920 110.0364730  53.4657540
  11.5150700 111.0370250  52.9249980   8.2525840 124.1411160  56.9303020
   8.8484910 123.8195730  56.2537440   8.5103990 123.6682980  57.7216290
   2.0648860 108.5921350  66.4359880   2.0037750 109.1843180  67.1855290
   3.0049240 108.4847310  66.2910140   4.7023420 108.2491410  66.0752170
   5.3163830 108.5670700  65.4133250   5.2472980 107.7640000  66.6948030
  11.1198600 124.1483040  63.4814010  10.6256880 124.5451910  62.7641140
  10.5111890 123.5232250  63.8751290   5.4431460 106.8123550  62.4021460
   4.5691300 107.1458660  62.1994390   5.3342210 106.3396730  63.2273330
   6.3503440 109.0194420  63.7863180   6.0216800 108.2046180  63.4064910
   7.2985740 108.9764230  63.6628870   8.8038050 124.7906460  60.7600750
   8.3441020 125.5422270  60.3858770   8.1750510 124.0712930  60.7015550
   1.9729270 123.9903190  60.7617860   2.2607080 123.7357490  59.8850870
   2.4852490 123.4380550  61.3523430   3.1906280 107.7293390  61.3414370
   2.4078070 108.2038890  61.6211130   2.8969210 106.8248220  61.2327550
   7.7427350 108.4316490  59.3863460   8.1835440 108.3761590  58.5385060
   7.4734940 109.3474500  59.4573640   9.6065920 108.0631730  57.3972280
   9.5454320 107.1192950  57.2503300  10.3857950 108.1711820  57.9425740
   5.5785480 106.8122590  58.0913470   6.1814850 107.3842800  58.5661990
   4.8378470 107.3762030  57.8687370   8.7220080 107.2144150  53.3653750
   8.9170710 108.1127600  53.6321180   7.9349950 106.9831230  53.8586700
   2.0401630 124.9119290  68.1286060   2.9668940 124.6763560  68.1722020
   2.0252060 125.7391290  67.6472090  10.2746690 124.4544860  55.1260310
  10.4498880 123.7682600  54.4821230   9.5768260 124.9791910  54.7336980
   5.8280700 106.9917620  68.4708410   5.7146150 107.3112230  69.3659930
   6.6450440 107.3930130  68.1745690   8.6079190 124.1389150  67.9527100
   9.4004510 123.6438380  67.7453060   8.9012340 124.8179290  68.5602710
   4.7338850 115.0110090  38.8343150   4.6532900 114.0964700  38.5634860
   4.3203270 115.5077160  38.1282860   2.8656890 116.7889110  40.7152420
   2.0898990 116.3089550  41.0050990   3.5169820 116.1094760  40.5408580
   6.8864320 121.1949300  39.4951550   6.4245850 120.4236540  39.8238720
   7.6989870 121.2215370  40.0004000   3.1127630 123.4807310  39.1155540
   2.4939070 123.9364810  38.5449980   3.9679410 123.6358770  38.7145240
   2.3065880 119.4646300  40.7222580   2.2374160 118.5236240  40.5611710
   3.0685740 119.5547710  41.2945150   3.3371050 112.2716680  40.9491510
   3.7135870 111.3988560  40.8365180   3.2390560 112.6075380  40.0581950
   7.1195170 109.7667120  37.8819850   7.9404790 109.2763690  37.9245330
   7.1529250 110.3564780  38.6351690  11.4094720 111.7833870  44.4463480
  10.7046890 112.1715580  43.9278590  11.6752640 112.4784160  45.0484410
   3.9790980 118.3646550  36.5087450   3.3608250 118.8296000  35.9450170
   4.4914230 119.0574030  36.9256960   7.3556650 111.7067500  40.6547390
   6.6512220 111.9952390  41.2350500   7.7168810 112.5167610  40.2946950
   8.9719430 121.3242630  42.9174870   8.2882950 121.9941740  42.9091540
   9.5113720 121.5223280  42.1519730  10.4243570 111.1522290  41.0456600
   9.4768480 111.1861270  41.1772030  10.7493560 111.9661240  41.4305960
   6.5078170 123.1686760  41.6320050   6.5205330 122.7649050  40.7642310
   5.9553390 123.9434050  41.5281480   7.8023590 119.8902980  36.7210220
   7.6919920 118.9477310  36.8459640   7.7991840 120.2518620  37.6072980
   5.9063610 118.0716600  42.9602660   6.3232400 117.8576710  42.1256120
   6.6303430 118.3289390  43.5311280   3.3443870 115.5168300  36.0772710
   2.4173150 115.4505680  36.3061180   3.4968690 116.4548430  35.9627950
   3.3312950 111.7885300  33.0739870   2.3916620 111.9499260  33.1592330
   3.6496210 112.5070980  32.5275860   9.8525710 116.4703820  43.0518900
   9.0244340 116.5396910  42.5769030  10.4476190 117.0558130  42.5834730
   7.3741160 117.0788600  36.5807960   6.7553580 116.7408150  35.9334260
   7.3565610 116.4348360  37.2887150   6.8167720 113.2573140  43.9973770
   6.4038900 114.0826850  44.2513760   6.0843670 112.6718180  43.8050130
   7.5067820 123.3032470  44.6854750   7.0298380 124.1104660  44.4927360
   6.8229610 122.6510800  44.8380960   5.5505860 116.3175410  33.5880710
   5.9899140 115.4797840  33.4418530   6.2634280 116.9504810  33.6744850
   3.6601240 121.2571480  37.5561950   4.0997150 121.9995810  37.1417340
   3.5988130 121.4998050  38.4800910   9.1323000 107.5718220  31.9021750
   8.8195660 107.6645050  32.8020820   9.8935470 108.1499250  31.8519180
  11.0867030 123.0644410  49.7546140  11.5626750 123.5427300  50.4335220
  11.7074190 122.9961900  49.0291640  10.4900280 120.2557260  46.9146150
  10.6163340 120.0169140  45.9963330  10.5321660 119.4241800  47.3868230
   4.3517020 123.9585260  45.4840960   4.8661690 123.8693270  46.2863390
   3.5086100 124.3044960  45.7768870   6.3271420 124.2440600  34.9124960
   6.1672560 123.9543540  35.8106790   6.1618130 123.4680730  34.3770190
   6.0297550 121.7528160  33.4722960   5.3362710 121.7505450  32.8125240
   6.7720410 121.3287480  33.0417130   5.5947480 123.3790870  37.5471450
   6.0504430 122.5980250  37.8610070   5.9340000 124.0897690  38.0912630
  10.3424290 112.3089720  47.8795890   9.7268560 112.8169390  47.3511350
  10.0220710 111.4088050  47.8221830   2.4038610 111.1481610  45.3458080
   1.9417980 111.3564630  46.1578020   2.0016720 110.3340960  45.0428750
   7.4043120 112.3690560  46.4754740   6.5536710 112.0696310  46.7963810
   7.2444910 112.6132570  45.5638560   4.4992830 113.8692310  48.5753530
   4.8246240 113.0356060  48.2355760   5.2873160 114.3920830  48.7231860
   5.1380780 113.4110030  36.0694660   4.5389670 114.1345830  35.8858280
   5.6860390 113.3486810  35.2871110   3.7445650 112.0473570  38.0997940
   4.1375220 112.3645770  37.2866630   4.1062500 111.1685450  38.2142460
   2.0537820 110.7980880  49.3594800   1.3636140 110.6053080  49.9940890
   2.7970120 111.0815520  49.8919100   4.3300790 114.6379320  42.1948720
   3.5981910 115.1466130  42.5438820   3.9325130 113.8209300  41.8937500
   4.7926700 110.0913000  41.6071660   4.8099440 110.5421650  42.4513510
   4.5442280 109.1918640  41.8205100   8.2197450 107.5045180  47.4458040
   8.5443220 106.7734840  47.9716020   8.2553960 107.1858820  46.5439030
   8.1455290 117.6170290  41.0544070   8.8654410 118.1125580  40.6640180
   7.9437110 116.9388180  40.4097940   3.6065230 109.0108250  35.1973460
   2.7929840 108.5121420  35.1218770   3.4127180 109.8506500  34.7809810
   3.5274090 117.6879350  46.9413070   3.4611400 116.7675020  46.6870660
   2.8979230 117.7854790  47.6557710   6.3213620 113.3827900  33.4935620
   7.2093240 113.6945130  33.3186960   6.2918710 112.5100150  33.1016200
   2.3174210 119.5551590  34.1723790   2.6589910 120.2993820  33.6767110
   1.4886920 119.8682710  34.5348620   3.4590820 120.5099920  46.6916870
   3.4735360 119.5780880  46.4735780   2.7515920 120.5959680  47.3306640
   8.5927890 114.6939740  32.9615480   8.5091610 115.1253960  32.1111920
   9.3122080 115.1538090  33.3942300   9.6702030 117.1507260  46.0385450
   8.9450220 117.7436040  45.8414840  10.1977490 117.1430800  45.2398820
   9.6215140 121.5482000  35.6897610   8.9791300 120.8937620  35.9641330
   9.2345800 121.9537090  34.9138280   5.2001620 118.8767430  39.5369300
   5.5525440 118.2795560  38.8770670   4.3163950 118.5511660  39.7077550
   2.8924720 122.1517490  43.7857370   3.5366940 122.3576870  44.4630790
   3.2554160 121.3905890  43.3328220   4.1656800 120.1549840  42.5034820
   4.8079030 119.4543000  42.6166990   4.6906150 120.9348280  42.3231710
   8.0112520 120.4398460  32.2273960   7.7850100 119.7228900  32.8198600
   7.6208720 120.1910900  31.3895710   5.9394420 120.9544740  45.7070880
   6.2750660 121.5411430  46.3848800   5.0194760 120.8237450  45.9368670
   7.5928770 118.3570400  33.8888120   7.3050470 118.8183090  34.6766000
   8.3880940 117.8968170  34.1572340   1.7683000 121.0036070  48.8758940
   1.4479870 120.2845310  49.4204630   1.0941360 121.6791140  48.9495000
   4.9836600 111.2362230  44.2395740   5.3517420 110.4157440  44.5675310
   4.1234800 111.2964120  44.6551390   8.3498630 110.1919170  35.0483300
   7.7211790 110.2964840  34.3341530   7.8550550 110.4115950  35.8377180
   2.7956770 121.9124760  32.4817280   2.8968750 121.7088750  31.5519260
   1.8958510 121.6583040  32.6865060   1.9438590 113.8901820  44.4633710
   2.4423840 114.3647640  45.1285560   2.0861540 112.9665340  44.6703740
   4.3498090 109.1955780  37.9036970   4.2265870 109.2141910  36.9546480
   5.2982650 109.2434720  38.0235370   9.1505450 110.1069780  45.3062100
   8.6479050 110.8475180  45.6455910   9.9662110 110.4953780  44.9898890
   7.4427460 115.3502960  38.7523460   6.5017600 115.3653190  38.9271150
   7.7571530 114.5638920  39.1983760   9.4453040 122.5211810  40.4277720
   9.5700460 123.3442980  40.9001530  10.3118600 122.3102540  40.0801870
   4.7593480 119.9068960  49.2355840   4.1531640 119.9300560  48.4951590
   4.4547590 119.1752000  49.7723090   6.1893850 123.6349250  47.8465250
   7.1415600 123.5507270  47.7965490   6.0422070 124.2990960  48.5199040
   9.0803050 123.0143460  33.3457160   8.7944560 122.6008600  32.5311340
   8.8822600 123.9431170  33.2257680   3.7853010 118.0696770  32.3904760
   3.2363110 118.5166070  33.0347500   4.4072270 117.5646020  32.9142430
   7.8387950 119.4238870  48.3227020   8.5797420 119.7614630  47.8194480
   7.0760630 119.5930930  47.7696790   1.9655770 116.0525300  31.5347160
   2.4861430 115.3374320  31.1688310   2.6124170 116.6911170  31.8347670
   6.5133610 117.4753700  46.8582230   6.9274630 117.6298780  47.7072650
   5.5784610 117.6008920  47.0208010   6.9855780 114.8149860  48.8621380
   7.5676550 114.0602180  48.7741860   7.1617550 115.3457300  48.0852860
   3.6112740 115.1590360  46.2116000   3.7308950 114.5631500  46.9510840
   4.4706740 115.1960050  45.7917300   5.9500640 115.7127550  44.7878510
   5.4235860 116.2370170  44.1843650   6.2931980 116.3454940  45.4188240
   5.1974940 111.3177520  47.7024840   4.5090460 110.6559060  47.6374830
   5.9180960 110.8715790  48.1473300   5.8275340 107.9129150  33.7615100
   6.1077630 107.0697050  34.1174520   5.0541070 108.1452260  34.2753850
   1.9818470 124.9678400  46.2022540   1.9077170 125.8713540  46.5094910
   1.0797310 124.6490300  46.1744610   2.5303800 124.1336910  33.8248900
   3.4254590 124.4721880  33.8467660   2.5621430 123.4116320  33.1973180
   9.5098150 122.6640580  46.5315100   8.9100140 122.7233140  45.7879020
   9.6392050 121.7245560  46.6611950  10.7499600 120.4058400  31.8684810
   9.9192560 120.4735050  32.3392040  10.9271430 121.2962520  31.5651670
  10.2056060 117.1505880  34.3719010  10.9674970 117.7202530  34.4778700
  10.2210430 116.5833080  35.1427320  11.2116030 118.0055980  39.2160940
  11.5824860 117.2223300  38.8096910  11.8517960 118.6945080  39.0378240
   8.1949790 119.3892560  44.6291260   7.3809630 119.8189720  44.8917050
   8.6023990 120.0010970  44.0160310  10.2575230 117.4440250  31.5291530
  10.5324070 118.3519130  31.4010750  10.0685970 117.3802780  32.4653520
   6.6550840 110.4685100  32.8245160   7.0735720 110.2816080  31.9841820
   6.3486900 109.6164150  33.1348090  10.1540570 115.3809240  36.5220960
   9.7784170 114.6137170  36.0902250   9.4243690 115.7631940  37.0095890
   9.5440190 114.5280760  46.1560480   9.3126280 114.2993510  45.2558430
   9.8044740 115.4480310  46.1105370   7.9828260 109.7537190  48.9340180
   8.8598440 109.7620590  49.3174180   7.9949100 109.0168030  48.3232530
   9.4291530 113.6066730  39.8228200   9.9529010 113.1129380  39.1918370
  10.0150950 113.7417090  40.5675770   9.6081250 113.6906600  43.3447750
   8.6583960 113.6570140  43.4592740   9.7894260 114.6006710  43.1097520
   8.9191500 112.8640080  35.7620610   9.4150620 112.6310950  36.5469490
   8.7207570 112.0251920  35.3458250  10.3478660 111.5001030  38.2958290
  10.2377940 111.3457070  39.2340560  11.1086250 110.9721970  38.0533700
   8.6944380 107.4395160  44.7541290   9.3316600 108.0529300  45.1200480
   8.8419270 107.4755820  43.8090520  11.2368930 109.3308950  31.5364430
  12.1618240 109.1990130  31.3282720  11.2144720 109.4101770  32.4900880
  11.3107420 110.1019610  34.1621140  10.5158920 110.0364730  34.6914050
  11.5150700 111.0370250  34.1506490   8.2525840 124.1411160  38.1559530
   8.8484910 123.8195730  37.4793950   8.5103990 123.6682980  38.9472800
   2.0648860 108.5921350  47.6616390   2.0037750 109.1843180  48.4111800
   3.0049240 108.4847310  47.5166650   4.7023420 108.2491410  47.3008680
   5.3163830 108.5670700  46.6389760   5.2472980 107.7640000  47.9204540
  11.1198600 124.1483040  44.7070520  10.6256880 124.5451910  43.9897650
  10.5111890 123.5232250  45.1007800   5.4431460 106.8123550  43.6277970
   4.5691300 107.1458660  43.4250900   5.3342210 106.3396730  44.4529840
   6.3503440 109.0194420  45.0119690   6.0216800 108.2046180  44.6321420
   7.2985740 108.9764230  44.8885380   8.8038050 124.7906460  41.9857260
   8.3441020 125.5422270  41.6115280   8.1750510 124.0712930  41.9272060
   1.9729270 123.9903190  41.9874370   2.2607080 123.7357490  41.1107380
   2.4852490 123.4380550  42.5779940   3.1906280 107.7293390  42.5670880
   2.4078070 108.2038890  42.8467640   2.8969210 106.8248220  42.4584060
   7.7427350 108.4316490  40.6119970   8.1835440 108.3761590  39.7641570
   7.4734940 109.3474500  40.6830150   9.6065920 108.0631730  38.6228790
   9.5454320 107.1192950  38.4759810  10.3857950 108.1711820  39.1682250
   5.5785480 106.8122590  39.3169980   6.1814850 107.3842800  39.7918500
   4.8378470 107.3762030  39.0943880   8.7220080 107.2144150  34.5910260
   8.9170710 108.1127600  34.8577690   7.9349950 106.9831230  35.0843210
   2.0401630 124.9119290  49.3542570   2.9668940 124.6763560  49.3978530
   2.0252060 125.7391290  48.8728600  10.2746690 124.4544860  36.3516820
  10.4498880 123.7682600  35.7077740   9.5768260 124.9791910  35.9593490
   5.8280700 106.9917620  49.6964920   5.7146150 107.3112230  50.5916440
   6.6450440 107.3930130  49.4002200   8.6079190 124.1389150  49.1783610
   9.4004510 123.6438380  48.9709570   8.9012340 124.8179290  49.7859220
   4.7338850 115.0110090  20.0599660   4.6532900 114.0964700  19.7891370
   4.3203270 115.5077160  19.3539370   2.8656890 116.7889110  21.9408930
   2.0898990 116.3089550  22.2307500   3.5169820 116.1094760  21.7665090
   6.8864320 121.1949300  20.7208060   6.4245850 120.4236540  21.0495230
   7.6989870 121.2215370  21.2260510   3.1127630 123.4807310  20.3412050
   2.4939070 123.9364810  19.7706490   3.9679410 123.6358770  19.9401750
   2.3065880 119.4646300  21.9479090   2.2374160 118.5236240  21.7868220
   3.0685740 119.5547710  22.5201660   3.3371050 112.2716680  22.1748020
   3.7135870 111.3988560  22.0621690   3.2390560 112.6075380  21.2838460
   7.1195170 109.7667120  19.1076360   7.9404790 109.2763690  19.1501840
   7.1529250 110.3564780  19.8608200  11.4094720 111.7833870  25.6719990
  10.7046890 112.1715580  25.1535100  11.6752640 112.4784160  26.2740920
   3.9790980 118.3646550  17.7343960   3.3608250 118.8296000  17.1706680
   4.4914230 119.0574030  18.1513470   7.3556650 111.7067500  21.8803900
   6.6512220 111.9952390  22.4607010   7.7168810 112.5167610  21.5203460
   8.9719430 121.3242630  24.1431380   8.2882950 121.9941740  24.1348050
   9.5113720 121.5223280  23.3776240  10.4243570 111.1522290  22.2713110
   9.4768480 111.1861270  22.4028540  10.7493560 111.9661240  22.6562470
   6.5078170 123.1686760  22.8576560   6.5205330 122.7649050  21.9898820
   5.9553390 123.9434050  22.7537990   7.8023590 119.8902980  17.9466730
   7.6919920 118.9477310  18.0716150   7.7991840 120.2518620  18.8329490
   5.9063610 118.0716600  24.1859170   6.3232400 117.8576710  23.3512630
   6.6303430 118.3289390  24.7567790   3.3443870 115.5168300  17.3029220
   2.4173150 115.4505680  17.5317690   3.4968690 116.4548430  17.1884460
   3.3312950 111.7885300  14.2996380   2.3916620 111.9499260  14.3848840
   3.6496210 112.5070980  13.7532370   9.8525710 116.4703820  24.2775410
   9.0244340 116.5396910  23.8025540  10.4476190 117.0558130  23.8091240
   7.3741160 117.0788600  17.8064470   6.7553580 116.7408150  17.1590770
   7.3565610 116.4348360  18.5143660   6.8167720 113.2573140  25.2230280
   6.4038900 114.0826850  25.4770270   6.0843670 112.6718180  25.0306640
   7.5067820 123.3032470  25.9111260   7.0298380 124.1104660  25.7183870
   6.8229610 122.6510800  26.0637470   5.5505860 116.3175410  14.8137220
   5.9899140 115.4797840  14.6675040   6.2634280 116.9504810  14.9001360
   3.6601240 121.2571480  18.7818460   4.0997150 121.9995810  18.3673850
   3.5988130 121.4998050  19.7057420   9.1323000 107.5718220  13.1278260
   8.8195660 107.6645050  14.0277330   9.8935470 108.1499250  13.0775690
  11.0867030 123.0644410  30.9802650  11.5626750 123.5427300  31.6591730
  11.7074190 122.9961900  30.2548150  10.4900280 120.2557260  28.1402660
  10.6163340 120.0169140  27.2219840  10.5321660 119.4241800  28.6124740
   4.3517020 123.9585260  26.7097470   4.8661690 123.8693270  27.5119900
   3.5086100 124.3044960  27.0025380   6.3271420 124.2440600  16.1381470
   6.1672560 123.9543540  17.0363300   6.1618130 123.4680730  15.6026700
   6.0297550 121.7528160  14.6979470   5.3362710 121.7505450  14.0381750
   6.7720410 121.3287480  14.2673640   5.5947480 123.3790870  18.7727960
   6.0504430 122.5980250  19.0866580   5.9340000 124.0897690  19.3169140
  10.3424290 112.3089720  29.1052400   9.7268560 112.8169390  28.5767860
  10.0220710 111.4088050  29.0478340   2.4038610 111.1481610  26.5714590
   1.9417980 111.3564630  27.3834530   2.0016720 110.3340960  26.2685260
   7.4043120 112.3690560  27.7011250   6.5536710 112.0696310  28.0220320
   7.2444910 112.6132570  26.7895070   4.4992830 113.8692310  29.8010040
   4.8246240 113.0356060  29.4612270   5.2873160 114.3920830  29.9488370
   5.1380780 113.4110030  17.2951170   4.5389670 114.1345830  17.1114790
   5.6860390 113.3486810  16.5127620   3.7445650 112.0473570  19.3254450
   4.1375220 112.3645770  18.5123140   4.1062500 111.1685450  19.4398970
   2.0537820 110.7980880  30.5851310   1.3636140 110.6053080  31.2197400
   2.7970120 111.0815520  31.1175610   4.3300790 114.6379320  23.4205230
   3.5981910 115.1466130  23.7695330   3.9325130 113.8209300  23.1194010
   4.7926700 110.0913000  22.8328170   4.8099440 110.5421650  23.6770020
   4.5442280 109.1918640  23.0461610   8.2197450 107.5045180  28.6714550
   8.5443220 106.7734840  29.1972530   8.2553960 107.1858820  27.7695540
   8.1455290 117.6170290  22.2800580   8.8654410 118.1125580  21.8896690
   7.9437110 116.9388180  21.6354450   3.6065230 109.0108250  16.4229970
   2.7929840 108.5121420  16.3475280   3.4127180 109.8506500  16.0066320
   3.5274090 117.6879350  28.1669580   3.4611400 116.7675020  27.9127170
   2.8979230 117.7854790  28.8814220   6.3213620 113.3827900  14.7192130
   7.2093240 113.6945130  14.5443470   6.2918710 112.5100150  14.3272710
   2.3174210 119.5551590  15.3980300   2.6589910 120.2993820  14.9023620
   1.4886920 119.8682710  15.7605130   3.4590820 120.5099920  27.9173380
   3.4735360 119.5780880  27.6992290   2.7515920 120.5959680  28.5563150
   8.5927890 114.6939740  14.1871990   8.5091610 115.1253960  13.3368430
   9.3122080 115.1538090  14.6198810   9.6702030 117.1507260  27.2641960
   8.9450220 117.7436040  27.0671350  10.1977490 117.1430800  26.4655330
   9.6215140 121.5482000  16.9154120   8.9791300 120.8937620  17.1897840
   9.2345800 121.9537090  16.1394790   5.2001620 118.8767430  20.7625810
   5.5525440 118.2795560  20.1027180   4.3163950 118.5511660  20.9334060
   2.8924720 122.1517490  25.0113880   3.5366940 122.3576870  25.6887300
   3.2554160 121.3905890  24.5584730   4.1656800 120.1549840  23.7291330
   4.8079030 119.4543000  23.8423500   4.6906150 120.9348280  23.5488220
   8.0112520 120.4398460  13.4530470   7.7850100 119.7228900  14.0455110
   7.6208720 120.1910900  12.6152220   5.9394420 120.9544740  26.9327390
   6.2750660 121.5411430  27.6105310   5.0194760 120.8237450  27.1625180
   7.5928770 118.3570400  15.1144630   7.3050470 118.8183090  15.9022510
   8.3880940 117.8968170  15.3828850   1.7683000 121.0036070  30.1015450
   1.4479870 120.2845310  30.6461140   1.0941360 121.6791140  30.1751510
   4.9836600 111.2362230  25.4652250   5.3517420 110.4157440  25.7931820
   4.1234800 111.2964120  25.8807900   8.3498630 110.1919170  16.2739810
   7.7211790 110.2964840  15.5598040   7.8550550 110.4115950  17.0633690
   2.7956770 121.9124760  13.7073790   2.8968750 121.7088750  12.7775770
   1.8958510 121.6583040  13.9121570   1.9438590 113.8901820  25.6890220
   2.4423840 114.3647640  26.3542070   2.0861540 112.9665340  25.8960250
   4.3498090 109.1955780  19.1293480   4.2265870 109.2141910  18.1802990
   5.2982650 109.2434720  19.2491880   9.1505450 110.1069780  26.5318610
   8.6479050 110.8475180  26.8712420   9.9662110 110.4953780  26.2155400
   7.4427460 115.3502960  19.9779970   6.5017600 115.3653190  20.1527660
   7.7571530 114.5638920  20.4240270   9.4453040 122.5211810  21.6534230
   9.5700460 123.3442980  22.1258040  10.3118600 122.3102540  21.3058380
   4.7593480 119.9068960  30.4612350   4.1531640 119.9300560  29.7208100
   4.4547590 119.1752000  30.9979600   6.1893850 123.6349250  29.0721760
   7.1415600 123.5507270  29.0222000   6.0422070 124.2990960  29.7455550
   9.0803050 123.0143460  14.5713670   8.7944560 122.6008600  13.7567850
   8.8822600 123.9431170  14.4514190   3.7853010 118.0696770  13.6161270
   3.2363110 118.5166070  14.2604010   4.4072270 117.5646020  14.1398940
   7.8387950 119.4238870  29.5483530   8.5797420 119.7614630  29.0450990
   7.0760630 119.5930930  28.9953300   1.9655770 116.0525300  12.7603670
   2.4861430 115.3374320  12.3944820   2.6124170 116.6911170  13.0604180
   6.5133610 117.4753700  28.0838740   6.9274630 117.6298780  28.9329160
   5.5784610 117.6008920  28.2464520   6.9855780 114.8149860  30.0877890
   7.5676550 114.0602180  29.9998370   7.1617550 115.3457300  29.3109370
   3.6112740 115.1590360  27.4372510   3.7308950 114.5631500  28.1767350
   4.4706740 115.1960050  27.0173810   5.9500640 115.7127550  26.0135020
   5.4235860 116.2370170  25.4100160   6.2931980 116.3454940  26.6444750
   5.1974940 111.3177520  28.9281350   4.5090460 110.6559060  28.8631340
   5.9180960 110.8715790  29.3729810   5.8275340 107.9129150  14.9871610
   6.1077630 107.0697050  15.3431030   5.0541070 108.1452260  15.5010360
   1.9818470 124.9678400  27.4279050   1.9077170 125.8713540  27.7351420
   1.0797310 124.6490300  27.4001120   2.5303800 124.1336910  15.0505410
   3.4254590 124.4721880  15.0724170   2.5621430 123.4116320  14.4229690
   9.5098150 122.6640580  27.7571610   8.9100140 122.7233140  27.0135530
   9.6392050 121.7245560  27.8868460  10.7499600 120.4058400  13.0941320
   9.9192560 120.4735050  13.5648550  10.9271430 121.2962520  12.7908180
  10.2056060 117.1505880  15.5975520  10.9674970 117.7202530  15.7035210
  10.2210430 116.5833080  16.3683830  11.2116030 118.0055980  20.4417450
  11.5824860 117.2223300  20.0353420  11.8517960 118.6945080  20.2634750
   8.1949790 119.3892560  25.8547770   7.3809630 119.8189720  26.1173560
   8.6023990 120.0010970  25.2416820  10.2575230 117.4440250  12.7548040
  10.5324070 118.3519130  12.6267260  10.0685970 117.3802780  13.6910030
   6.6550840 110.4685100  14.0501670   7.0735720 110.2816080  13.2098330
   6.3486900 109.6164150  14.3604600  10.1540570 115.3809240  17.7477470
   9.7784170 114.6137170  17.3158760   9.4243690 115.7631940  18.2352400
   9.5440190 114.5280760  27.3816990   9.3126280 114.2993510  26.4814940
   9.8044740 115.4480310  27.3361880   7.9828260 109.7537190  30.1596690
   8.8598440 109.7620590  30.5430690   7.9949100 109.0168030  29.5489040
   9.4291530 113.6066730  21.0484710   9.9529010 113.1129380  20.4174880
  10.0150950 113.7417090  21.7932280   9.6081250 113.6906600  24.5704260
   8.6583960 113.6570140  24.6849250   9.7894260 114.6006710  24.3354030
   8.9191500 112.8640080  16.9877120   9.4150620 112.6310950  17.7726000
   8.7207570 112.0251920  16.5714760  10.3478660 111.5001030  19.5214800
  10.2377940 111.3457070  20.4597070  11.1086250 110.9721970  19.2790210
   8.6944380 107.4395160  25.9797800   9.3316600 108.0529300  26.3456990
   8.8419270 107.4755820  25.0347030  11.2368930 109.3308950  12.7620940
  12.1618240 109.1990130  12.5539230  11.2144720 109.4101770  13.7157390
  11.3107420 110.1019610  15.3877650  10.5158920 110.0364730  15.9170560
  11.5150700 111.0370250  15.3763000   8.2525840 124.1411160  19.3816040
   8.8484910 123.8195730  18.7050460   8.5103990 123.6682980  20.1729310
   2.0648860 108.5921350  28.8872900   2.0037750 109.1843180  29.6368310
   3.0049240 108.4847310  28.7423160   4.7023420 108.2491410  28.5265190
   5.3163830 108.5670700  27.8646270   5.2472980 107.7640000  29.1461050
  11.1198600 124.1483040  25.9327030  10.6256880 124.5451910  25.2154160
  10.5111890 123.5232250  26.3264310   5.4431460 106.8123550  24.8534480
   4.5691300 107.1458660  24.6507410   5.3342210 106.3396730  25.6786350
   6.3503440 109.0194420  26.2376200   6.0216800 108.2046180  25.8577930
   7.2985740 108.9764230  26.1141890   8.8038050 124.7906460  23.2113770
   8.3441020 125.5422270  22.8371790   8.1750510 124.0712930  23.1528570
   1.9729270 123.9903190  23.2130880   2.2607080 123.7357490  22.3363890
   2.4852490 123.4380550  23.8036450   3.1906280 107.7293390  23.7927390
   2.4078070 108.2038890  24.0724150   2.8969210 106.8248220  23.6840570
   7.7427350 108.4316490  21.8376480   8.1835440 108.3761590  20.9898080
   7.4734940 109.3474500  21.9086660   9.6065920 108.0631730  19.8485300
   9.5454320 107.1192950  19.7016320  10.3857950 108.1711820  20.3938760
   5.5785480 106.8122590  20.5426490   6.1814850 107.3842800  21.0175010
   4.8378470 107.3762030  20.3200390   8.7220080 107.2144150  15.8166770
   8.9170710 108.1127600  16.0834200   7.9349950 106.9831230  16.3099720
   2.0401630 124.9119290  30.5799080   2.9668940 124.6763560  30.6235040
   2.0252060 125.7391290  30.0985110  10.2746690 124.4544860  17.5773330
  10.4498880 123.7682600  16.9334250   9.5768260 124.9791910  17.1850000
   5.8280700 106.9917620  30.9221430   5.7146150 107.3112230  31.8172950
   6.6450440 107.3930130  30.6258710   8.6079190 124.1389150  30.4040120
   9.4004510 123.6438380  30.1966080   8.9012340 124.8179290  31.0115730
   2.8656890 116.7889110   3.1665440   2.0898990 116.3089550   3.4564010
   3.5169820 116.1094760   2.9921600   6.8864320 121.1949300   1.9464570
   6.4245850 120.4236540   2.2751740   7.6989870 121.2215370   2.4517020
   2.3065880 119.4646300   3.1735600   2.2374160 118.5236240   3.0124730
   3.0685740 119.5547710   3.7458170   3.3371050 112.2716680   3.4004530
   3.7135870 111.3988560   3.2878200   3.2390560 112.6075380   2.5094970
  11.4094720 111.7833870   6.8976500  10.7046890 112.1715580   6.3791610
  11.6752640 112.4784160   7.4997430   7.3556650 111.7067500   3.1060410
   6.6512220 111.9952390   3.6863520   7.7168810 112.5167610   2.7459970
   8.9719430 121.3242630   5.3687890   8.2882950 121.9941740   5.3604560
   9.5113720 121.5223280   4.6032750  10.4243570 111.1522290   3.4969620
   9.4768480 111.1861270   3.6285050  10.7493560 111.9661240   3.8818980
   6.5078170 123.1686760   4.0833070   6.5205330 122.7649050   3.2155330
   5.9553390 123.9434050   3.9794500   5.9063610 118.0716600   5.4115680
   6.3232400 117.8576710   4.5769140   6.6303430 118.3289390   5.9824300
   9.8525710 116.4703820   5.5031920   9.0244340 116.5396910   5.0282050
  10.4476190 117.0558130   5.0347750   6.8167720 113.2573140   6.4486790
   6.4038900 114.0826850   6.7026780   6.0843670 112.6718180   6.2563150
   7.5067820 123.3032470   7.1367770   7.0298380 124.1104660   6.9440380
   6.8229610 122.6510800   7.2893980  11.0867030 123.0644410  12.2059160
  11.5626750 123.5427300  12.8848240  11.7074190 122.9961900  11.4804660
  10.4900280 120.2557260   9.3659170  10.6163340 120.0169140   8.4476350
  10.5321660 119.4241800   9.8381250   4.3517020 123.9585260   7.9353980
   4.8661690 123.8693270   8.7376410   3.5086100 124.3044960   8.2281890
  10.3424290 112.3089720  10.3308910   9.7268560 112.8169390   9.8024370
  10.0220710 111.4088050  10.2734850   2.4038610 111.1481610   7.7971100
   1.9417980 111.3564630   8.6091040   2.0016720 110.3340960   7.4941770
   7.4043120 112.3690560   8.9267760   6.5536710 112.0696310   9.2476830
   7.2444910 112.6132570   8.0151580   4.4992830 113.8692310  11.0266550
   4.8246240 113.0356060  10.6868780   5.2873160 114.3920830  11.1744880
   2.0537820 110.7980880  11.8107820   1.3636140 110.6053080  12.4453910
   2.7970120 111.0815520  12.3432120   4.3300790 114.6379320   4.6461740
   3.5981910 115.1466130   4.9951840   3.9325130 113.8209300   4.3450520
   4.7926700 110.0913000   4.0584680   4.8099440 110.5421650   4.9026530
   4.5442280 109.1918640   4.2718120   8.2197450 107.5045180   9.8971060
   8.5443220 106.7734840  10.4229040   8.2553960 107.1858820   8.9952050
   8.1455290 117.6170290   3.5057090   8.8654410 118.1125580   3.1153200
   7.9437110 116.9388180   2.8610960   3.5274090 117.6879350   9.3926090
   3.4611400 116.7675020   9.1383680   2.8979230 117.7854790  10.1070730
   3.4590820 120.5099920   9.1429890   3.4735360 119.5780880   8.9248800
   2.7515920 120.5959680   9.7819660   9.6702030 117.1507260   8.4898470
   8.9450220 117.7436040   8.2927860  10.1977490 117.1430800   7.6911840
   2.8924720 122.1517490   6.2370390   3.5366940 122.3576870   6.9143810
   3.2554160 121.3905890   5.7841240   4.1656800 120.1549840   4.9547840
   4.8079030 119.4543000   5.0680010   4.6906150 120.9348280   4.7744730
   5.9394420 120.9544740   8.1583900   6.2750660 121.5411430   8.8361820
   5.0194760 120.8237450   8.3881690   1.7683000 121.0036070  11.3271960
   1.4479870 120.2845310  11.8717650   1.0941360 121.6791140  11.4008020
   4.9836600 111.2362230   6.6908760   5.3517420 110.4157440   7.0188330
   4.1234800 111.2964120   7.1064410   1.9438590 113.8901820   6.9146730
   2.4423840 114.3647640   7.5798580   2.0861540 112.9665340   7.1216760
   9.1505450 110.1069780   7.7575120   8.6479050 110.8475180   8.0968930
   9.9662110 110.4953780   7.4411910   9.4453040 122.5211810   2.8790740
   9.5700460 123.3442980   3.3514550  10.3118600 122.3102540   2.5314890
   4.7593480 119.9068960  11.6868860   4.1531640 119.9300560  10.9464610
   4.4547590 119.1752000  12.2236110   6.1893850 123.6349250  10.2978270
   7.1415600 123.5507270  10.2478510   6.0422070 124.2990960  10.9712060
   7.8387950 119.4238870  10.7740040   8.5797420 119.7614630  10.2707500
   7.0760630 119.5930930  10.2209810   6.5133610 117.4753700   9.3095250
   6.9274630 117.6298780  10.1585670   5.5784610 117.6008920   9.4721030
   6.9855780 114.8149860  11.3134400   7.5676550 114.0602180  11.2254880
   7.1617550 115.3457300  10.5365880   3.6112740 115.1590360   8.6629020
   3.7308950 114.5631500   9.4023860   4.4706740 115.1960050   8.2430320
   5.9500640 115.7127550   7.2391530   5.4235860 116.2370170   6.6356670
   6.2931980 116.3454940   7.8701260   5.1974940 111.3177520  10.1537860
   4.5090460 110.6559060  10.0887850   5.9180960 110.8715790  10.5986320
   1.9818470 124.9678400   8.6535560   1.9077170 125.8713540   8.9607930
   1.0797310 124.6490300   8.6257630   9.5098150 122.6640580   8.9828120
   8.9100140 122.7233140   8.2392040   9.6392050 121.7245560   9.1124970
   8.1949790 119.3892560   7.0804280   7.3809630 119.8189720   7.3430070
   8.6023990 120.0010970   6.4673330   9.5440190 114.5280760   8.6073500
   9.3126280 114.2993510   7.7071450   9.8044740 115.4480310   8.5618390
   7.9828260 109.7537190  11.3853200   8.8598440 109.7620590  11.7687200
   7.9949100 109.0168030  10.7745550   9.4291530 113.6066730   2.2741220
   9.9529010 113.1129380   1.6431390  10.0150950 113.7417090   3.0188790
   9.6081250 113.6906600   5.7960770   8.6583960 113.6570140   5.9105760
   9.7894260 114.6006710   5.5610540   8.6944380 107.4395160   7.2054310
   9.3316600 108.0529300   7.5713500   8.8419270 107.4755820   6.2603540
   2.0648860 108.5921350  10.1129410   2.0037750 109.1843180  10.8624820
   3.0049240 108.4847310   9.9679670   4.7023420 108.2491410   9.7521700
   5.3163830 108.5670700   9.0902780   5.2472980 107.7640000  10.3717560
  11.1198600 124.1483040   7.1583540  10.6256880 124.5451910   6.4410670
  10.5111890 123.5232250   7.5520820   5.4431460 106.8123550   6.0790990
   4.5691300 107.1458660   5.8763920   5.3342210 106.3396730   6.9042860
   6.3503440 109.0194420   7.4632710   6.0216800 108.2046180   7.0834440
   7.2985740 108.9764230   7.3398400   8.8038050 124.7906460   4.4370280
   8.3441020 125.5422270   4.0628300   8.1750510 124.0712930   4.3785080
   1.9729270 123.9903190   4.4387390   2.2607080 123.7357490   3.5620400
   2.4852490 123.4380550   5.0292960   3.1906280 107.7293390   5.0183900
   2.4078070 108.2038890   5.2980660   2.8969210 106.8248220   4.9097080
   7.7427350 108.4316490   3.0632990   8.1835440 108.3761590   2.2154590
   7.4734940 109.3474500   3.1343170   5.5785480 106.8122590   1.7683000
   6.1814850 107.3842800   2.2431520   4.8378470 107.3762030   1.5456900
   2.0401630 124.9119290  11.8055590   2.9668940 124.6763560  11.8491550
   2.0252060 125.7391290  11.3241620   5.8280700 106.9917620  12.1477940
   5.7146150 107.3112230  13.0429460   6.6450440 107.3930130  11.8515220
   8.6079190 124.1389150  11.6296630   9.4004510 123.6438380  11.4222590
   8.9012340 124.8179290  12.2372240   4.7338850  96.2366600 151.4804090
   4.6532900  95.3221210 151.2095800   4.3203270  96.7333670 150.7743800
   2.8656890  98.0145620 153.3613360   2.0898990  97.5346060 153.6511930
   3.5169820  97.3351270 153.1869520   6.8864320 102.4205810 152.1412490
   6.4245850 101.6493050 152.4699660   7.6989870 102.4471880 152.6464940
   3.1127630 104.7063820 151.7616480   2.4939070 105.1621320 151.1910920
   3.9679410 104.8615280 151.3606180   2.3065880 100.6902810 153.3683520
   2.2374160  99.7492750 153.2072650   3.0685740 100.7804220 153.9406090
   3.3371050  93.4973190 153.5952450   3.7135870  92.6245070 153.4826120
   3.2390560  93.8331890 152.7042890   7.1195170  90.9923630 150.5280790
   7.9404790  90.5020200 150.5706270   7.1529250  91.5821290 151.2812630
   3.9790980  99.5903060 149.1548390   3.3608250 100.0552510 148.5911110
   4.4914230 100.2830540 149.5717900   7.3556650  92.9324010 153.3008330
   6.6512220  93.2208900 153.8811440   7.7168810  93.7424120 152.9407890
  10.4243570  92.3778800 153.6917540   9.4768480  92.4117780 153.8232970
  10.7493560  93.1917750 154.0766900   6.5078170 104.3943270 154.2780990
   6.5205330 103.9905560 153.4103250   5.9553390 105.1690560 154.1742420
   7.8023590 101.1159490 149.3671160   7.6919920 100.1733820 149.4920580
   7.7991840 101.4775130 150.2533920   3.3443870  96.7424810 148.7233650
   2.4173150  96.6762190 148.9522120   3.4968690  97.6804940 148.6088890
   3.3312950  93.0141810 145.7200810   2.3916620  93.1755770 145.8053270
   3.6496210  93.7327490 145.1736800   7.3741160  98.3045110 149.2268900
   6.7553580  97.9664660 148.5795200   7.3565610  97.6604870 149.9348090
   5.5505860  97.5431920 146.2341650   5.9899140  96.7054350 146.0879470
   6.2634280  98.1761320 146.3205790   3.6601240 102.4827990 150.2022890
   4.0997150 103.2252320 149.7878280   3.5988130 102.7254560 151.1261850
   9.1323000  88.7974730 144.5482690   8.8195660  88.8901560 145.4481760
   9.8935470  89.3755760 144.4980120   6.3271420 105.4697110 147.5585900
   6.1672560 105.1800050 148.4567730   6.1618130 104.6937240 147.0231130
   6.0297550 102.9784670 146.1183900   5.3362710 102.9761960 145.4586180
   6.7720410 102.5543990 145.6878070   5.5947480 104.6047380 150.1932390
   6.0504430 103.8236760 150.5071010   5.9340000 105.3154200 150.7373570
   5.1380780  94.6366540 148.7155600   4.5389670  95.3602340 148.5319220
   5.6860390  94.5743320 147.9332050   3.7445650  93.2730080 150.7458880
   4.1375220  93.5902280 149.9327570   4.1062500  92.3941960 150.8603400
   8.1455290  98.8426800 153.7005010   8.8654410  99.3382090 153.3101120
   7.9437110  98.1644690 153.0558880   3.6065230  90.2364760 147.8434400
   2.7929840  89.7377930 147.7679710   3.4127180  91.0763010 147.4270750
   6.3213620  94.6084410 146.1396560   7.2093240  94.9201640 145.9647900
   6.2918710  93.7356660 145.7477140   2.3174210 100.7808100 146.8184730
   2.6589910 101.5250330 146.3228050   1.4886920 101.0939220 147.1809560
   8.5927890  95.9196250 145.6076420   8.5091610  96.3510470 144.7572860
   9.3122080  96.3794600 146.0403240   9.6215140 102.7738510 148.3358550
   8.9791300 102.1194130 148.6102270   9.2345800 103.1793600 147.5599220
   5.2001620 100.1023940 152.1830240   5.5525440  99.5052070 151.5231610
   4.3163950  99.7768170 152.3538490   8.0112520 101.6654970 144.8734900
   7.7850100 100.9485410 145.4659540   7.6208720 101.4167410 144.0356650
   7.5928770  99.5826910 146.5349060   7.3050470 100.0439600 147.3226940
   8.3880940  99.1224680 146.8033280   8.3498630  91.4175680 147.6944240
   7.7211790  91.5221350 146.9802470   7.8550550  91.6372460 148.4838120
   2.7956770 103.1381270 145.1278220   2.8968750 102.9345260 144.1980200
   1.8958510 102.8839550 145.3326000   4.3498090  90.4212290 150.5497910
   4.2265870  90.4398420 149.6007420   5.2982650  90.4691230 150.6696310
   7.4427460  96.5759470 151.3984400   6.5017600  96.5909700 151.5732090
   7.7571530  95.7895430 151.8444700   9.4453040 103.7468320 153.0738660
   9.5700460 104.5699490 153.5462470  10.3118600 103.5359050 152.7262810
   9.0803050 104.2399970 145.9918100   8.7944560 103.8265110 145.1772280
   8.8822600 105.1687680 145.8718620   3.7853010  99.2953280 145.0365700
   3.2363110  99.7422580 145.6808440   4.4072270  98.7902530 145.5603370
   1.9655770  97.2781810 144.1808100   2.4861430  96.5630830 143.8149250
   2.6124170  97.9167680 144.4808610   5.8275340  89.1385660 146.4076040
   6.1077630  88.2953560 146.7635460   5.0541070  89.3708770 146.9214790
   2.5303800 105.3593420 146.4709840   3.4254590 105.6978390 146.4928600
   2.5621430 104.6372830 145.8434120  10.7499600 101.6314910 144.5145750
   9.9192560 101.6991560 144.9852980  10.9271430 102.5219030 144.2112610
  10.2056060  98.3762390 147.0179950  10.9674970  98.9459040 147.1239640
  10.2210430  97.8089590 147.7888260  11.2116030  99.2312490 151.8621880
  11.5824860  98.4479810 151.4557850  11.8517960  99.9201590 151.6839180
  10.2575230  98.6696760 144.1752470  10.5324070  99.5775640 144.0471690
  10.0685970  98.6059290 145.1114460   6.6550840  91.6941610 145.4706100
   7.0735720  91.5072590 144.6302760   6.3486900  90.8420660 145.7809030
  10.1540570  96.6065750 149.1681900   9.7784170  95.8393680 148.7363190
   9.4243690  96.9888450 149.6556830   9.4291530  94.8323240 152.4689140
   9.9529010  94.3385890 151.8379310  10.0150950  94.9673600 153.2136710
   8.9191500  94.0896590 148.4081550   9.4150620  93.8567460 149.1930430
   8.7207570  93.2508430 147.9919190  10.3478660  92.7257540 150.9419230
  10.2377940  92.5713580 151.8801500  11.1086250  92.1978480 150.6994640
  11.2368930  90.5565460 144.1825370  12.1618240  90.4246640 143.9743660
  11.2144720  90.6358280 145.1361820  11.3107420  91.3276120 146.8082080
  10.5158920  91.2621240 147.3374990  11.5150700  92.2626760 146.7967430
   8.2525840 105.3667670 150.8020470   8.8484910 105.0452240 150.1254890
   8.5103990 104.8939490 151.5933740   7.7427350  89.6573000 153.2580910
   8.1835440  89.6018100 152.4102510   7.4734940  90.5731010 153.3291090
   9.6065920  89.2888240 151.2689730   9.5454320  88.3449460 151.1220750
  10.3857950  89.3968330 151.8143190   5.5785480  88.0379100 151.9630920
   6.1814850  88.6099310 152.4379440   4.8378470  88.6018540 151.7404820
   8.7220080  88.4400660 147.2371200   8.9170710  89.3384110 147.5038630
   7.9349950  88.2087740 147.7304150  10.2746690 105.6801370 148.9977760
  10.4498880 104.9939110 148.3538680   9.5768260 106.2048420 148.6054430
   4.7338850  96.2366600 132.7060600   4.6532900  95.3221210 132.4352310
   4.3203270  96.7333670 132.0000310   2.8656890  98.0145620 134.5869870
   2.0898990  97.5346060 134.8768440   3.5169820  97.3351270 134.4126030
   6.8864320 102.4205810 133.3669000   6.4245850 101.6493050 133.6956170
   7.6989870 102.4471880 133.8721450   3.1127630 104.7063820 132.9872990
   2.4939070 105.1621320 132.4167430   3.9679410 104.8615280 132.5862690
   2.3065880 100.6902810 134.5940030   2.2374160  99.7492750 134.4329160
   3.0685740 100.7804220 135.1662600   3.3371050  93.4973190 134.8208960
   3.7135870  92.6245070 134.7082630   3.2390560  93.8331890 133.9299400
   7.1195170  90.9923630 131.7537300   7.9404790  90.5020200 131.7962780
   7.1529250  91.5821290 132.5069140  11.4094720  93.0090380 138.3180930
  10.7046890  93.3972090 137.7996040  11.6752640  93.7040670 138.9201860
   3.9790980  99.5903060 130.3804900   3.3608250 100.0552510 129.8167620
   4.4914230 100.2830540 130.7974410   7.3556650  92.9324010 134.5264840
   6.6512220  93.2208900 135.1067950   7.7168810  93.7424120 134.1664400
   8.9719430 102.5499140 136.7892320   8.2882950 103.2198250 136.7808990
   9.5113720 102.7479790 136.0237180  10.4243570  92.3778800 134.9174050
   9.4768480  92.4117780 135.0489480  10.7493560  93.1917750 135.3023410
   6.5078170 104.3943270 135.5037500   6.5205330 103.9905560 134.6359760
   5.9553390 105.1690560 135.3998930   7.8023590 101.1159490 130.5927670
   7.6919920 100.1733820 130.7177090   7.7991840 101.4775130 131.4790430
   5.9063610  99.2973110 136.8320110   6.3232400  99.0833220 135.9973570
   6.6303430  99.5545900 137.4028730   3.3443870  96.7424810 129.9490160
   2.4173150  96.6762190 130.1778630   3.4968690  97.6804940 129.8345400
   3.3312950  93.0141810 126.9457320   2.3916620  93.1755770 127.0309780
   3.6496210  93.7327490 126.3993310   9.8525710  97.6960330 136.9236350
   9.0244340  97.7653420 136.4486480  10.4476190  98.2814640 136.4552180
   7.3741160  98.3045110 130.4525410   6.7553580  97.9664660 129.8051710
   7.3565610  97.6604870 131.1604600   6.8167720  94.4829650 137.8691220
   6.4038900  95.3083360 138.1231210   6.0843670  93.8974690 137.6767580
   7.5067820 104.5288980 138.5572200   7.0298380 105.3361170 138.3644810
   6.8229610 103.8767310 138.7098410   5.5505860  97.5431920 127.4598160
   5.9899140  96.7054350 127.3135980   6.2634280  98.1761320 127.5462300
   3.6601240 102.4827990 131.4279400   4.0997150 103.2252320 131.0134790
   3.5988130 102.7254560 132.3518360   9.1323000  88.7974730 125.7739200
   8.8195660  88.8901560 126.6738270   9.8935470  89.3755760 125.7236630
  11.0867030 104.2900920 143.6263590  11.5626750 104.7683810 144.3052670
  11.7074190 104.2218410 142.9009090  10.4900280 101.4813770 140.7863600
  10.6163340 101.2425650 139.8680780  10.5321660 100.6498310 141.2585680
   4.3517020 105.1841770 139.3558410   4.8661690 105.0949780 140.1580840
   3.5086100 105.5301470 139.6486320   6.3271420 105.4697110 128.7842410
   6.1672560 105.1800050 129.6824240   6.1618130 104.6937240 128.2487640
   6.0297550 102.9784670 127.3440410   5.3362710 102.9761960 126.6842690
   6.7720410 102.5543990 126.9134580   5.5947480 104.6047380 131.4188900
   6.0504430 103.8236760 131.7327520   5.9340000 105.3154200 131.9630080
  10.3424290  93.5346230 141.7513340   9.7268560  94.0425900 141.2228800
  10.0220710  92.6344560 141.6939280   2.4038610  92.3738120 139.2175530
   1.9417980  92.5821140 140.0295470   2.0016720  91.5597470 138.9146200
   7.4043120  93.5947070 140.3472190   6.5536710  93.2952820 140.6681260
   7.2444910  93.8389080 139.4356010   4.4992830  95.0948820 142.4470980
   4.8246240  94.2612570 142.1073210   5.2873160  95.6177340 142.5949310
   5.1380780  94.6366540 129.9412110   4.5389670  95.3602340 129.7575730
   5.6860390  94.5743320 129.1588560   3.7445650  93.2730080 131.9715390
   4.1375220  93.5902280 131.1584080   4.1062500  92.3941960 132.0859910
   2.0537820  92.0237390 143.2312250   1.3636140  91.8309590 143.8658340
   2.7970120  92.3072030 143.7636550   4.3300790  95.8635830 136.0666170
   3.5981910  96.3722640 136.4156270   3.9325130  95.0465810 135.7654950
   4.7926700  91.3169510 135.4789110   4.8099440  91.7678160 136.3230960
   4.5442280  90.4175150 135.6922550   8.2197450  88.7301690 141.3175490
   8.5443220  87.9991350 141.8433470   8.2553960  88.4115330 140.4156480
   8.1455290  98.8426800 134.9261520   8.8654410  99.3382090 134.5357630
   7.9437110  98.1644690 134.2815390   3.6065230  90.2364760 129.0690910
   2.7929840  89.7377930 128.9936220   3.4127180  91.0763010 128.6527260
   3.5274090  98.9135860 140.8130520   3.4611400  97.9931530 140.5588110
   2.8979230  99.0111300 141.5275160   6.3213620  94.6084410 127.3653070
   7.2093240  94.9201640 127.1904410   6.2918710  93.7356660 126.9733650
   2.3174210 100.7808100 128.0441240   2.6589910 101.5250330 127.5484560
   1.4886920 101.0939220 128.4066070   3.4590820 101.7356430 140.5634320
   3.4735360 100.8037390 140.3453230   2.7515920 101.8216190 141.2024090
   8.5927890  95.9196250 126.8332930   8.5091610  96.3510470 125.9829370
   9.3122080  96.3794600 127.2659750   9.6702030  98.3763770 139.9102900
   8.9450220  98.9692550 139.7132290  10.1977490  98.3687310 139.1116270
   9.6215140 102.7738510 129.5615060   8.9791300 102.1194130 129.8358780
   9.2345800 103.1793600 128.7855730   5.2001620 100.1023940 133.4086750
   5.5525440  99.5052070 132.7488120   4.3163950  99.7768170 133.5795000
   2.8924720 103.3774000 137.6574820   3.5366940 103.5833380 138.3348240
   3.2554160 102.6162400 137.2045670   4.1656800 101.3806350 136.3752270
   4.8079030 100.6799510 136.4884440   4.6906150 102.1604790 136.1949160
   8.0112520 101.6654970 126.0991410   7.7850100 100.9485410 126.6916050
   7.6208720 101.4167410 125.2613160   5.9394420 102.1801250 139.5788330
   6.2750660 102.7667940 140.2566250   5.0194760 102.0493960 139.8086120
   7.5928770  99.5826910 127.7605570   7.3050470 100.0439600 128.5483450
   8.3880940  99.1224680 128.0289790   1.7683000 102.2292580 142.7476390
   1.4479870 101.5101820 143.2922080   1.0941360 102.9047650 142.8212450
   4.9836600  92.4618740 138.1113190   5.3517420  91.6413950 138.4392760
   4.1234800  92.5220630 138.5268840   8.3498630  91.4175680 128.9200750
   7.7211790  91.5221350 128.2058980   7.8550550  91.6372460 129.7094630
   2.7956770 103.1381270 126.3534730   2.8968750 102.9345260 125.4236710
   1.8958510 102.8839550 126.5582510   1.9438590  95.1158330 138.3351160
   2.4423840  95.5904150 139.0003010   2.0861540  94.1921850 138.5421190
   4.3498090  90.4212290 131.7754420   4.2265870  90.4398420 130.8263930
   5.2982650  90.4691230 131.8952820   9.1505450  91.3326290 139.1779550
   8.6479050  92.0731690 139.5173360   9.9662110  91.7210290 138.8616340
   7.4427460  96.5759470 132.6240910   6.5017600  96.5909700 132.7988600
   7.7571530  95.7895430 133.0701210   9.4453040 103.7468320 134.2995170
   9.5700460 104.5699490 134.7718980  10.3118600 103.5359050 133.9519320
   4.7593480 101.1325470 143.1073290   4.1531640 101.1557070 142.3669040
   4.4547590 100.4008510 143.6440540   6.1893850 104.8605760 141.7182700
   7.1415600 104.7763780 141.6682940   6.0422070 105.5247470 142.3916490
   9.0803050 104.2399970 127.2174610   8.7944560 103.8265110 126.4028790
   8.8822600 105.1687680 127.0975130   3.7853010  99.2953280 126.2622210
   3.2363110  99.7422580 126.9064950   4.4072270  98.7902530 126.7859880
   7.8387950 100.6495380 142.1944470   8.5797420 100.9871140 141.6911930
   7.0760630 100.8187440 141.6414240   1.9655770  97.2781810 125.4064610
   2.4861430  96.5630830 125.0405760   2.6124170  97.9167680 125.7065120
   6.5133610  98.7010210 140.7299680   6.9274630  98.8555290 141.5790100
   5.5784610  98.8265430 140.8925460   6.9855780  96.0406370 142.7338830
   7.5676550  95.2858690 142.6459310   7.1617550  96.5713810 141.9570310
   3.6112740  96.3846870 140.0833450   3.7308950  95.7888010 140.8228290
   4.4706740  96.4216560 139.6634750   5.9500640  96.9384060 138.6595960
   5.4235860  97.4626680 138.0561100   6.2931980  97.5711450 139.2905690
   5.1974940  92.5434030 141.5742290   4.5090460  91.8815570 141.5092280
   5.9180960  92.0972300 142.0190750   5.8275340  89.1385660 127.6332550
   6.1077630  88.2953560 127.9891970   5.0541070  89.3708770 128.1471300
   1.9818470 106.1934910 140.0739990   1.9077170 107.0970050 140.3812360
   1.0797310 105.8746810 140.0462060   2.5303800 105.3593420 127.6966350
   3.4254590 105.6978390 127.7185110   2.5621430 104.6372830 127.0690630
   9.5098150 103.8897090 140.4032550   8.9100140 103.9489650 139.6596470
   9.6392050 102.9502070 140.5329400  10.7499600 101.6314910 125.7402260
   9.9192560 101.6991560 126.2109490  10.9271430 102.5219030 125.4369120
  10.2056060  98.3762390 128.2436460  10.9674970  98.9459040 128.3496150
  10.2210430  97.8089590 129.0144770  11.2116030  99.2312490 133.0878390
  11.5824860  98.4479810 132.6814360  11.8517960  99.9201590 132.9095690
   8.1949790 100.6149070 138.5008710   7.3809630 101.0446230 138.7634500
   8.6023990 101.2267480 137.8877760  10.2575230  98.6696760 125.4008980
  10.5324070  99.5775640 125.2728200  10.0685970  98.6059290 126.3370970
   6.6550840  91.6941610 126.6962610   7.0735720  91.5072590 125.8559270
   6.3486900  90.8420660 127.0065540  10.1540570  96.6065750 130.3938410
   9.7784170  95.8393680 129.9619700   9.4243690  96.9888450 130.8813340
   9.5440190  95.7537270 140.0277930   9.3126280  95.5250020 139.1275880
   9.8044740  96.6736820 139.9822820   7.9828260  90.9793700 142.8057630
   8.8598440  90.9877100 143.1891630   7.9949100  90.2424540 142.1949980
   9.4291530  94.8323240 133.6945650   9.9529010  94.3385890 133.0635820
  10.0150950  94.9673600 134.4393220   9.6081250  94.9163110 137.2165200
   8.6583960  94.8826650 137.3310190   9.7894260  95.8263220 136.9814970
   8.9191500  94.0896590 129.6338060   9.4150620  93.8567460 130.4186940
   8.7207570  93.2508430 129.2175700  10.3478660  92.7257540 132.1675740
  10.2377940  92.5713580 133.1058010  11.1086250  92.1978480 131.9251150
   8.6944380  88.6651670 138.6258740   9.3316600  89.2785810 138.9917930
   8.8419270  88.7012330 137.6807970  11.2368930  90.5565460 125.4081880
  12.1618240  90.4246640 125.2000170  11.2144720  90.6358280 126.3618330
  11.3107420  91.3276120 128.0338590  10.5158920  91.2621240 128.5631500
  11.5150700  92.2626760 128.0223940   8.2525840 105.3667670 132.0276980
   8.8484910 105.0452240 131.3511400   8.5103990 104.8939490 132.8190250
   2.0648860  89.8177860 141.5333840   2.0037750  90.4099690 142.2829250
   3.0049240  89.7103820 141.3884100   4.7023420  89.4747920 141.1726130
   5.3163830  89.7927210 140.5107210   5.2472980  88.9896510 141.7921990
  11.1198600 105.3739550 138.5787970  10.6256880 105.7708420 137.8615100
  10.5111890 104.7488760 138.9725250   5.4431460  88.0380060 137.4995420
   4.5691300  88.3715170 137.2968350   5.3342210  87.5653240 138.3247290
   6.3503440  90.2450930 138.8837140   6.0216800  89.4302690 138.5038870
   7.2985740  90.2020740 138.7602830   8.8038050 106.0162970 135.8574710
   8.3441020 106.7678780 135.4832730   8.1750510 105.2969440 135.7989510
   1.9729270 105.2159700 135.8591820   2.2607080 104.9614000 134.9824830
   2.4852490 104.6637060 136.4497390   3.1906280  88.9549900 136.4388330
   2.4078070  89.4295400 136.7185090   2.8969210  88.0504730 136.3301510
   7.7427350  89.6573000 134.4837420   8.1835440  89.6018100 133.6359020
   7.4734940  90.5731010 134.5547600   9.6065920  89.2888240 132.4946240
   9.5454320  88.3449460 132.3477260  10.3857950  89.3968330 133.0399700
   5.5785480  88.0379100 133.1887430   6.1814850  88.6099310 133.6635950
   4.8378470  88.6018540 132.9661330   8.7220080  88.4400660 128.4627710
   8.9170710  89.3384110 128.7295140   7.9349950  88.2087740 128.9560660
   2.0401630 106.1375800 143.2260020   2.9668940 105.9020070 143.2695980
   2.0252060 106.9647800 142.7446050  10.2746690 105.6801370 130.2234270
  10.4498880 104.9939110 129.5795190   9.5768260 106.2048420 129.8310940
   5.8280700  88.2174130 143.5682370   5.7146150  88.5368740 144.4633890
   6.6450440  88.6186640 143.2719650   8.6079190 105.3645660 143.0501060
   9.4004510 104.8694890 142.8427020   8.9012340 106.0435800 143.6576670
   4.7338850  96.2366600 113.9317110   4.6532900  95.3221210 113.6608820
   4.3203270  96.7333670 113.2256820   2.8656890  98.0145620 115.8126380
   2.0898990  97.5346060 116.1024950   3.5169820  97.3351270 115.6382540
   6.8864320 102.4205810 114.5925510   6.4245850 101.6493050 114.9212680
   7.6989870 102.4471880 115.0977960   3.1127630 104.7063820 114.2129500
   2.4939070 105.1621320 113.6423940   3.9679410 104.8615280 113.8119200
   2.3065880 100.6902810 115.8196540   2.2374160  99.7492750 115.6585670
   3.0685740 100.7804220 116.3919110   3.3371050  93.4973190 116.0465470
   3.7135870  92.6245070 115.9339140   3.2390560  93.8331890 115.1555910
   7.1195170  90.9923630 112.9793810   7.9404790  90.5020200 113.0219290
   7.1529250  91.5821290 113.7325650  11.4094720  93.0090380 119.5437440
  10.7046890  93.3972090 119.0252550  11.6752640  93.7040670 120.1458370
   3.9790980  99.5903060 111.6061410   3.3608250 100.0552510 111.0424130
   4.4914230 100.2830540 112.0230920   7.3556650  92.9324010 115.7521350
   6.6512220  93.2208900 116.3324460   7.7168810  93.7424120 115.3920910
   8.9719430 102.5499140 118.0148830   8.2882950 103.2198250 118.0065500
   9.5113720 102.7479790 117.2493690  10.4243570  92.3778800 116.1430560
   9.4768480  92.4117780 116.2745990  10.7493560  93.1917750 116.5279920
   6.5078170 104.3943270 116.7294010   6.5205330 103.9905560 115.8616270
   5.9553390 105.1690560 116.6255440   7.8023590 101.1159490 111.8184180
   7.6919920 100.1733820 111.9433600   7.7991840 101.4775130 112.7046940
   5.9063610  99.2973110 118.0576620   6.3232400  99.0833220 117.2230080
   6.6303430  99.5545900 118.6285240   3.3443870  96.7424810 111.1746670
   2.4173150  96.6762190 111.4035140   3.4968690  97.6804940 111.0601910
   3.3312950  93.0141810 108.1713830   2.3916620  93.1755770 108.2566290
   3.6496210  93.7327490 107.6249820   9.8525710  97.6960330 118.1492860
   9.0244340  97.7653420 117.6742990  10.4476190  98.2814640 117.6808690
   7.3741160  98.3045110 111.6781920   6.7553580  97.9664660 111.0308220
   7.3565610  97.6604870 112.3861110   6.8167720  94.4829650 119.0947730
   6.4038900  95.3083360 119.3487720   6.0843670  93.8974690 118.9024090
   7.5067820 104.5288980 119.7828710   7.0298380 105.3361170 119.5901320
   6.8229610 103.8767310 119.9354920   5.5505860  97.5431920 108.6854670
   5.9899140  96.7054350 108.5392490   6.2634280  98.1761320 108.7718810
   3.6601240 102.4827990 112.6535910   4.0997150 103.2252320 112.2391300
   3.5988130 102.7254560 113.5774870   9.1323000  88.7974730 106.9995710
   8.8195660  88.8901560 107.8994780   9.8935470  89.3755760 106.9493140
  11.0867030 104.2900920 124.8520100  11.5626750 104.7683810 125.5309180
  11.7074190 104.2218410 124.1265600  10.4900280 101.4813770 122.0120110
  10.6163340 101.2425650 121.0937290  10.5321660 100.6498310 122.4842190
   4.3517020 105.1841770 120.5814920   4.8661690 105.0949780 121.3837350
   3.5086100 105.5301470 120.8742830   6.3271420 105.4697110 110.0098920
   6.1672560 105.1800050 110.9080750   6.1618130 104.6937240 109.4744150
   6.0297550 102.9784670 108.5696920   5.3362710 102.9761960 107.9099200
   6.7720410 102.5543990 108.1391090   5.5947480 104.6047380 112.6445410
   6.0504430 103.8236760 112.9584030   5.9340000 105.3154200 113.1886590
  10.3424290  93.5346230 122.9769850   9.7268560  94.0425900 122.4485310
  10.0220710  92.6344560 122.9195790   2.4038610  92.3738120 120.4432040
   1.9417980  92.5821140 121.2551980   2.0016720  91.5597470 120.1402710
   7.4043120  93.5947070 121.5728700   6.5536710  93.2952820 121.8937770
   7.2444910  93.8389080 120.6612520   4.4992830  95.0948820 123.6727490
   4.8246240  94.2612570 123.3329720   5.2873160  95.6177340 123.8205820
   5.1380780  94.6366540 111.1668620   4.5389670  95.3602340 110.9832240
   5.6860390  94.5743320 110.3845070   3.7445650  93.2730080 113.1971900
   4.1375220  93.5902280 112.3840590   4.1062500  92.3941960 113.3116420
   2.0537820  92.0237390 124.4568760   1.3636140  91.8309590 125.0914850
   2.7970120  92.3072030 124.9893060   4.3300790  95.8635830 117.2922680
   3.5981910  96.3722640 117.6412780   3.9325130  95.0465810 116.9911460
   4.7926700  91.3169510 116.7045620   4.8099440  91.7678160 117.5487470
   4.5442280  90.4175150 116.9179060   8.2197450  88.7301690 122.5432000
   8.5443220  87.9991350 123.0689980   8.2553960  88.4115330 121.6412990
   8.1455290  98.8426800 116.1518030   8.8654410  99.3382090 115.7614140
   7.9437110  98.1644690 115.5071900   3.6065230  90.2364760 110.2947420
   2.7929840  89.7377930 110.2192730   3.4127180  91.0763010 109.8783770
   3.5274090  98.9135860 122.0387030   3.4611400  97.9931530 121.7844620
   2.8979230  99.0111300 122.7531670   6.3213620  94.6084410 108.5909580
   7.2093240  94.9201640 108.4160920   6.2918710  93.7356660 108.1990160
   2.3174210 100.7808100 109.2697750   2.6589910 101.5250330 108.7741070
   1.4886920 101.0939220 109.6322580   3.4590820 101.7356430 121.7890830
   3.4735360 100.8037390 121.5709740   2.7515920 101.8216190 122.4280600
   8.5927890  95.9196250 108.0589440   8.5091610  96.3510470 107.2085880
   9.3122080  96.3794600 108.4916260   9.6702030  98.3763770 121.1359410
   8.9450220  98.9692550 120.9388800  10.1977490  98.3687310 120.3372780
   9.6215140 102.7738510 110.7871570   8.9791300 102.1194130 111.0615290
   9.2345800 103.1793600 110.0112240   5.2001620 100.1023940 114.6343260
   5.5525440  99.5052070 113.9744630   4.3163950  99.7768170 114.8051510
   2.8924720 103.3774000 118.8831330   3.5366940 103.5833380 119.5604750
   3.2554160 102.6162400 118.4302180   4.1656800 101.3806350 117.6008780
   4.8079030 100.6799510 117.7140950   4.6906150 102.1604790 117.4205670
   8.0112520 101.6654970 107.3247920   7.7850100 100.9485410 107.9172560
   7.6208720 101.4167410 106.4869670   5.9394420 102.1801250 120.8044840
   6.2750660 102.7667940 121.4822760   5.0194760 102.0493960 121.0342630
   7.5928770  99.5826910 108.9862080   7.3050470 100.0439600 109.7739960
   8.3880940  99.1224680 109.2546300   1.7683000 102.2292580 123.9732900
   1.4479870 101.5101820 124.5178590   1.0941360 102.9047650 124.0468960
   4.9836600  92.4618740 119.3369700   5.3517420  91.6413950 119.6649270
   4.1234800  92.5220630 119.7525350   8.3498630  91.4175680 110.1457260
   7.7211790  91.5221350 109.4315490   7.8550550  91.6372460 110.9351140
   2.7956770 103.1381270 107.5791240   2.8968750 102.9345260 106.6493220
   1.8958510 102.8839550 107.7839020   1.9438590  95.1158330 119.5607670
   2.4423840  95.5904150 120.2259520   2.0861540  94.1921850 119.7677700
   4.3498090  90.4212290 113.0010930   4.2265870  90.4398420 112.0520440
   5.2982650  90.4691230 113.1209330   9.1505450  91.3326290 120.4036060
   8.6479050  92.0731690 120.7429870   9.9662110  91.7210290 120.0872850
   7.4427460  96.5759470 113.8497420   6.5017600  96.5909700 114.0245110
   7.7571530  95.7895430 114.2957720   9.4453040 103.7468320 115.5251680
   9.5700460 104.5699490 115.9975490  10.3118600 103.5359050 115.1775830
   4.7593480 101.1325470 124.3329800   4.1531640 101.1557070 123.5925550
   4.4547590 100.4008510 124.8697050   6.1893850 104.8605760 122.9439210
   7.1415600 104.7763780 122.8939450   6.0422070 105.5247470 123.6173000
   9.0803050 104.2399970 108.4431120   8.7944560 103.8265110 107.6285300
   8.8822600 105.1687680 108.3231640   3.7853010  99.2953280 107.4878720
   3.2363110  99.7422580 108.1321460   4.4072270  98.7902530 108.0116390
   7.8387950 100.6495380 123.4200980   8.5797420 100.9871140 122.9168440
   7.0760630 100.8187440 122.8670750   1.9655770  97.2781810 106.6321120
   2.4861430  96.5630830 106.2662270   2.6124170  97.9167680 106.9321630
   6.5133610  98.7010210 121.9556190   6.9274630  98.8555290 122.8046610
   5.5784610  98.8265430 122.1181970   6.9855780  96.0406370 123.9595340
   7.5676550  95.2858690 123.8715820   7.1617550  96.5713810 123.1826820
   3.6112740  96.3846870 121.3089960   3.7308950  95.7888010 122.0484800
   4.4706740  96.4216560 120.8891260   5.9500640  96.9384060 119.8852470
   5.4235860  97.4626680 119.2817610   6.2931980  97.5711450 120.5162200
   5.1974940  92.5434030 122.7998800   4.5090460  91.8815570 122.7348790
   5.9180960  92.0972300 123.2447260   5.8275340  89.1385660 108.8589060
   6.1077630  88.2953560 109.2148480   5.0541070  89.3708770 109.3727810
   1.9818470 106.1934910 121.2996500   1.9077170 107.0970050 121.6068870
   1.0797310 105.8746810 121.2718570   2.5303800 105.3593420 108.9222860
   3.4254590 105.6978390 108.9441620   2.5621430 104.6372830 108.2947140
   9.5098150 103.8897090 121.6289060   8.9100140 103.9489650 120.8852980
   9.6392050 102.9502070 121.7585910  10.7499600 101.6314910 106.9658770
   9.9192560 101.6991560 107.4366000  10.9271430 102.5219030 106.6625630
  10.2056060  98.3762390 109.4692970  10.9674970  98.9459040 109.5752660
  10.2210430  97.8089590 110.2401280  11.2116030  99.2312490 114.3134900
  11.5824860  98.4479810 113.9070870  11.8517960  99.9201590 114.1352200
   8.1949790 100.6149070 119.7265220   7.3809630 101.0446230 119.9891010
   8.6023990 101.2267480 119.1134270  10.2575230  98.6696760 106.6265490
  10.5324070  99.5775640 106.4984710  10.0685970  98.6059290 107.5627480
   6.6550840  91.6941610 107.9219120   7.0735720  91.5072590 107.0815780
   6.3486900  90.8420660 108.2322050  10.1540570  96.6065750 111.6194920
   9.7784170  95.8393680 111.1876210   9.4243690  96.9888450 112.1069850
   9.5440190  95.7537270 121.2534440   9.3126280  95.5250020 120.3532390
   9.8044740  96.6736820 121.2079330   7.9828260  90.9793700 124.0314140
   8.8598440  90.9877100 124.4148140   7.9949100  90.2424540 123.4206490
   9.4291530  94.8323240 114.9202160   9.9529010  94.3385890 114.2892330
  10.0150950  94.9673600 115.6649730   9.6081250  94.9163110 118.4421710
   8.6583960  94.8826650 118.5566700   9.7894260  95.8263220 118.2071480
   8.9191500  94.0896590 110.8594570   9.4150620  93.8567460 111.6443450
   8.7207570  93.2508430 110.4432210  10.3478660  92.7257540 113.3932250
  10.2377940  92.5713580 114.3314520  11.1086250  92.1978480 113.1507660
   8.6944380  88.6651670 119.8515250   9.3316600  89.2785810 120.2174440
   8.8419270  88.7012330 118.9064480  11.2368930  90.5565460 106.6338390
  12.1618240  90.4246640 106.4256680  11.2144720  90.6358280 107.5874840
  11.3107420  91.3276120 109.2595100  10.5158920  91.2621240 109.7888010
  11.5150700  92.2626760 109.2480450   8.2525840 105.3667670 113.2533490
   8.8484910 105.0452240 112.5767910   8.5103990 104.8939490 114.0446760
   2.0648860  89.8177860 122.7590350   2.0037750  90.4099690 123.5085760
   3.0049240  89.7103820 122.6140610   4.7023420  89.4747920 122.3982640
   5.3163830  89.7927210 121.7363720   5.2472980  88.9896510 123.0178500
  11.1198600 105.3739550 119.8044480  10.6256880 105.7708420 119.0871610
  10.5111890 104.7488760 120.1981760   5.4431460  88.0380060 118.7251930
   4.5691300  88.3715170 118.5224860   5.3342210  87.5653240 119.5503800
   6.3503440  90.2450930 120.1093650   6.0216800  89.4302690 119.7295380
   7.2985740  90.2020740 119.9859340   8.8038050 106.0162970 117.0831220
   8.3441020 106.7678780 116.7089240   8.1750510 105.2969440 117.0246020
   1.9729270 105.2159700 117.0848330   2.2607080 104.9614000 116.2081340
   2.4852490 104.6637060 117.6753900   3.1906280  88.9549900 117.6644840
   2.4078070  89.4295400 117.9441600   2.8969210  88.0504730 117.5558020
   7.7427350  89.6573000 115.7093930   8.1835440  89.6018100 114.8615530
   7.4734940  90.5731010 115.7804110   9.6065920  89.2888240 113.7202750
   9.5454320  88.3449460 113.5733770  10.3857950  89.3968330 114.2656210
   5.5785480  88.0379100 114.4143940   6.1814850  88.6099310 114.8892460
   4.8378470  88.6018540 114.1917840   8.7220080  88.4400660 109.6884220
   8.9170710  89.3384110 109.9551650   7.9349950  88.2087740 110.1817170
   2.0401630 106.1375800 124.4516530   2.9668940 105.9020070 124.4952490
   2.0252060 106.9647800 123.9702560  10.2746690 105.6801370 111.4490780
  10.4498880 104.9939110 110.8051700   9.5768260 106.2048420 111.0567450
   5.8280700  88.2174130 124.7938880   5.7146150  88.5368740 125.6890400
   6.6450440  88.6186640 124.4976160   8.6079190 105.3645660 124.2757570
   9.4004510 104.8694890 124.0683530   8.9012340 106.0435800 124.8833180
   4.7338850  96.2366600  95.1573620   4.6532900  95.3221210  94.8865330
   4.3203270  96.7333670  94.4513330   2.8656890  98.0145620  97.0382890
   2.0898990  97.5346060  97.3281460   3.5169820  97.3351270  96.8639050
   6.8864320 102.4205810  95.8182020   6.4245850 101.6493050  96.1469190
   7.6989870 102.4471880  96.3234470   3.1127630 104.7063820  95.4386010
   2.4939070 105.1621320  94.8680450   3.9679410 104.8615280  95.0375710
   2.3065880 100.6902810  97.0453050   2.2374160  99.7492750  96.8842180
   3.0685740 100.7804220  97.6175620   3.3371050  93.4973190  97.2721980
   3.7135870  92.6245070  97.1595650   3.2390560  93.8331890  96.3812420
   7.1195170  90.9923630  94.2050320   7.9404790  90.5020200  94.2475800
   7.1529250  91.5821290  94.9582160  11.4094720  93.0090380 100.7693950
  10.7046890  93.3972090 100.2509060  11.6752640  93.7040670 101.3714880
   3.9790980  99.5903060  92.8317920   3.3608250 100.0552510  92.2680640
   4.4914230 100.2830540  93.2487430   7.3556650  92.9324010  96.9777860
   6.6512220  93.2208900  97.5580970   7.7168810  93.7424120  96.6177420
   8.9719430 102.5499140  99.2405340   8.2882950 103.2198250  99.2322010
   9.5113720 102.7479790  98.4750200  10.4243570  92.3778800  97.3687070
   9.4768480  92.4117780  97.5002500  10.7493560  93.1917750  97.7536430
   6.5078170 104.3943270  97.9550520   6.5205330 103.9905560  97.0872780
   5.9553390 105.1690560  97.8511950   7.8023590 101.1159490  93.0440690
   7.6919920 100.1733820  93.1690110   7.7991840 101.4775130  93.9303450
   5.9063610  99.2973110  99.2833130   6.3232400  99.0833220  98.4486590
   6.6303430  99.5545900  99.8541750   3.3443870  96.7424810  92.4003180
   2.4173150  96.6762190  92.6291650   3.4968690  97.6804940  92.2858420
   3.3312950  93.0141810  89.3970340   2.3916620  93.1755770  89.4822800
   3.6496210  93.7327490  88.8506330   9.8525710  97.6960330  99.3749370
   9.0244340  97.7653420  98.8999500  10.4476190  98.2814640  98.9065200
   7.3741160  98.3045110  92.9038430   6.7553580  97.9664660  92.2564730
   7.3565610  97.6604870  93.6117620   6.8167720  94.4829650 100.3204240
   6.4038900  95.3083360 100.5744230   6.0843670  93.8974690 100.1280600
   7.5067820 104.5288980 101.0085220   7.0298380 105.3361170 100.8157830
   6.8229610 103.8767310 101.1611430   5.5505860  97.5431920  89.9111180
   5.9899140  96.7054350  89.7649000   6.2634280  98.1761320  89.9975320
   3.6601240 102.4827990  93.8792420   4.0997150 103.2252320  93.4647810
   3.5988130 102.7254560  94.8031380   9.1323000  88.7974730  88.2252220
   8.8195660  88.8901560  89.1251290   9.8935470  89.3755760  88.1749650
  11.0867030 104.2900920 106.0776610  11.5626750 104.7683810 106.7565690
  11.7074190 104.2218410 105.3522110  10.4900280 101.4813770 103.2376620
  10.6163340 101.2425650 102.3193800  10.5321660 100.6498310 103.7098700
   4.3517020 105.1841770 101.8071430   4.8661690 105.0949780 102.6093860
   3.5086100 105.5301470 102.0999340   6.3271420 105.4697110  91.2355430
   6.1672560 105.1800050  92.1337260   6.1618130 104.6937240  90.7000660
   6.0297550 102.9784670  89.7953430   5.3362710 102.9761960  89.1355710
   6.7720410 102.5543990  89.3647600   5.5947480 104.6047380  93.8701920
   6.0504430 103.8236760  94.1840540   5.9340000 105.3154200  94.4143100
  10.3424290  93.5346230 104.2026360   9.7268560  94.0425900 103.6741820
  10.0220710  92.6344560 104.1452300   2.4038610  92.3738120 101.6688550
   1.9417980  92.5821140 102.4808490   2.0016720  91.5597470 101.3659220
   7.4043120  93.5947070 102.7985210   6.5536710  93.2952820 103.1194280
   7.2444910  93.8389080 101.8869030   4.4992830  95.0948820 104.8984000
   4.8246240  94.2612570 104.5586230   5.2873160  95.6177340 105.0462330
   5.1380780  94.6366540  92.3925130   4.5389670  95.3602340  92.2088750
   5.6860390  94.5743320  91.6101580   3.7445650  93.2730080  94.4228410
   4.1375220  93.5902280  93.6097100   4.1062500  92.3941960  94.5372930
   2.0537820  92.0237390 105.6825270   1.3636140  91.8309590 106.3171360
   2.7970120  92.3072030 106.2149570   4.3300790  95.8635830  98.5179190
   3.5981910  96.3722640  98.8669290   3.9325130  95.0465810  98.2167970
   4.7926700  91.3169510  97.9302130   4.8099440  91.7678160  98.7743980
   4.5442280  90.4175150  98.1435570   8.2197450  88.7301690 103.7688510
   8.5443220  87.9991350 104.2946490   8.2553960  88.4115330 102.8669500
   8.1455290  98.8426800  97.3774540   8.8654410  99.3382090  96.9870650
   7.9437110  98.1644690  96.7328410   3.6065230  90.2364760  91.5203930
   2.7929840  89.7377930  91.4449240   3.4127180  91.0763010  91.1040280
   3.5274090  98.9135860 103.2643540   3.4611400  97.9931530 103.0101130
   2.8979230  99.0111300 103.9788180   6.3213620  94.6084410  89.8166090
   7.2093240  94.9201640  89.6417430   6.2918710  93.7356660  89.4246670
   2.3174210 100.7808100  90.4954260   2.6589910 101.5250330  89.9997580
   1.4886920 101.0939220  90.8579090   3.4590820 101.7356430 103.0147340
   3.4735360 100.8037390 102.7966250   2.7515920 101.8216190 103.6537110
   8.5927890  95.9196250  89.2845950   8.5091610  96.3510470  88.4342390
   9.3122080  96.3794600  89.7172770   9.6702030  98.3763770 102.3615920
   8.9450220  98.9692550 102.1645310  10.1977490  98.3687310 101.5629290
   9.6215140 102.7738510  92.0128080   8.9791300 102.1194130  92.2871800
   9.2345800 103.1793600  91.2368750   5.2001620 100.1023940  95.8599770
   5.5525440  99.5052070  95.2001140   4.3163950  99.7768170  96.0308020
   2.8924720 103.3774000 100.1087840   3.5366940 103.5833380 100.7861260
   3.2554160 102.6162400  99.6558690   4.1656800 101.3806350  98.8265290
   4.8079030 100.6799510  98.9397460   4.6906150 102.1604790  98.6462180
   8.0112520 101.6654970  88.5504430   7.7850100 100.9485410  89.1429070
   7.6208720 101.4167410  87.7126180   5.9394420 102.1801250 102.0301350
   6.2750660 102.7667940 102.7079270   5.0194760 102.0493960 102.2599140
   7.5928770  99.5826910  90.2118590   7.3050470 100.0439600  90.9996470
   8.3880940  99.1224680  90.4802810   1.7683000 102.2292580 105.1989410
   1.4479870 101.5101820 105.7435100   1.0941360 102.9047650 105.2725470
   4.9836600  92.4618740 100.5626210   5.3517420  91.6413950 100.8905780
   4.1234800  92.5220630 100.9781860   8.3498630  91.4175680  91.3713770
   7.7211790  91.5221350  90.6572000   7.8550550  91.6372460  92.1607650
   2.7956770 103.1381270  88.8047750   2.8968750 102.9345260  87.8749730
   1.8958510 102.8839550  89.0095530   1.9438590  95.1158330 100.7864180
   2.4423840  95.5904150 101.4516030   2.0861540  94.1921850 100.9934210
   4.3498090  90.4212290  94.2267440   4.2265870  90.4398420  93.2776950
   5.2982650  90.4691230  94.3465840   9.1505450  91.3326290 101.6292570
   8.6479050  92.0731690 101.9686380   9.9662110  91.7210290 101.3129360
   7.4427460  96.5759470  95.0753930   6.5017600  96.5909700  95.2501620
   7.7571530  95.7895430  95.5214230   9.4453040 103.7468320  96.7508190
   9.5700460 104.5699490  97.2232000  10.3118600 103.5359050  96.4032340
   4.7593480 101.1325470 105.5586310   4.1531640 101.1557070 104.8182060
   4.4547590 100.4008510 106.0953560   6.1893850 104.8605760 104.1695720
   7.1415600 104.7763780 104.1195960   6.0422070 105.5247470 104.8429510
   9.0803050 104.2399970  89.6687630   8.7944560 103.8265110  88.8541810
   8.8822600 105.1687680  89.5488150   3.7853010  99.2953280  88.7135230
   3.2363110  99.7422580  89.3577970   4.4072270  98.7902530  89.2372900
   7.8387950 100.6495380 104.6457490   8.5797420 100.9871140 104.1424950
   7.0760630 100.8187440 104.0927260   1.9655770  97.2781810  87.8577630
   2.4861430  96.5630830  87.4918780   2.6124170  97.9167680  88.1578140
   6.5133610  98.7010210 103.1812700   6.9274630  98.8555290 104.0303120
   5.5784610  98.8265430 103.3438480   6.9855780  96.0406370 105.1851850
   7.5676550  95.2858690 105.0972330   7.1617550  96.5713810 104.4083330
   3.6112740  96.3846870 102.5346470   3.7308950  95.7888010 103.2741310
   4.4706740  96.4216560 102.1147770   5.9500640  96.9384060 101.1108980
   5.4235860  97.4626680 100.5074120   6.2931980  97.5711450 101.7418710
   5.1974940  92.5434030 104.0255310   4.5090460  91.8815570 103.9605300
   5.9180960  92.0972300 104.4703770   5.8275340  89.1385660  90.0845570
   6.1077630  88.2953560  90.4404990   5.0541070  89.3708770  90.5984320
   1.9818470 106.1934910 102.5253010   1.9077170 107.0970050 102.8325380
   1.0797310 105.8746810 102.4975080   2.5303800 105.3593420  90.1479370
   3.4254590 105.6978390  90.1698130   2.5621430 104.6372830  89.5203650
   9.5098150 103.8897090 102.8545570   8.9100140 103.9489650 102.1109490
   9.6392050 102.9502070 102.9842420  10.7499600 101.6314910  88.1915280
   9.9192560 101.6991560  88.6622510  10.9271430 102.5219030  87.8882140
  10.2056060  98.3762390  90.6949480  10.9674970  98.9459040  90.8009170
  10.2210430  97.8089590  91.4657790  11.2116030  99.2312490  95.5391410
  11.5824860  98.4479810  95.1327380  11.8517960  99.9201590  95.3608710
   8.1949790 100.6149070 100.9521730   7.3809630 101.0446230 101.2147520
   8.6023990 101.2267480 100.3390780  10.2575230  98.6696760  87.8522000
  10.5324070  99.5775640  87.7241220  10.0685970  98.6059290  88.7883990
   6.6550840  91.6941610  89.1475630   7.0735720  91.5072590  88.3072290
   6.3486900  90.8420660  89.4578560  10.1540570  96.6065750  92.8451430
   9.7784170  95.8393680  92.4132720   9.4243690  96.9888450  93.3326360
   9.5440190  95.7537270 102.4790950   9.3126280  95.5250020 101.5788900
   9.8044740  96.6736820 102.4335840   7.9828260  90.9793700 105.2570650
   8.8598440  90.9877100 105.6404650   7.9949100  90.2424540 104.6463000
   9.4291530  94.8323240  96.1458670   9.9529010  94.3385890  95.5148840
  10.0150950  94.9673600  96.8906240   9.6081250  94.9163110  99.6678220
   8.6583960  94.8826650  99.7823210   9.7894260  95.8263220  99.4327990
   8.9191500  94.0896590  92.0851080   9.4150620  93.8567460  92.8699960
   8.7207570  93.2508430  91.6688720  10.3478660  92.7257540  94.6188760
  10.2377940  92.5713580  95.5571030  11.1086250  92.1978480  94.3764170
   8.6944380  88.6651670 101.0771760   9.3316600  89.2785810 101.4430950
   8.8419270  88.7012330 100.1320990  11.2368930  90.5565460  87.8594900
  12.1618240  90.4246640  87.6513190  11.2144720  90.6358280  88.8131350
  11.3107420  91.3276120  90.4851610  10.5158920  91.2621240  91.0144520
  11.5150700  92.2626760  90.4736960   8.2525840 105.3667670  94.4790000
   8.8484910 105.0452240  93.8024420   8.5103990 104.8939490  95.2703270
   2.0648860  89.8177860 103.9846860   2.0037750  90.4099690 104.7342270
   3.0049240  89.7103820 103.8397120   4.7023420  89.4747920 103.6239150
   5.3163830  89.7927210 102.9620230   5.2472980  88.9896510 104.2435010
  11.1198600 105.3739550 101.0300990  10.6256880 105.7708420 100.3128120
  10.5111890 104.7488760 101.4238270   5.4431460  88.0380060  99.9508440
   4.5691300  88.3715170  99.7481370   5.3342210  87.5653240 100.7760310
   6.3503440  90.2450930 101.3350160   6.0216800  89.4302690 100.9551890
   7.2985740  90.2020740 101.2115850   8.8038050 106.0162970  98.3087730
   8.3441020 106.7678780  97.9345750   8.1750510 105.2969440  98.2502530
   1.9729270 105.2159700  98.3104840   2.2607080 104.9614000  97.4337850
   2.4852490 104.6637060  98.9010410   3.1906280  88.9549900  98.8901350
   2.4078070  89.4295400  99.1698110   2.8969210  88.0504730  98.7814530
   7.7427350  89.6573000  96.9350440   8.1835440  89.6018100  96.0872040
   7.4734940  90.5731010  97.0060620   9.6065920  89.2888240  94.9459260
   9.5454320  88.3449460  94.7990280  10.3857950  89.3968330  95.4912720
   5.5785480  88.0379100  95.6400450   6.1814850  88.6099310  96.1148970
   4.8378470  88.6018540  95.4174350   8.7220080  88.4400660  90.9140730
   8.9170710  89.3384110  91.1808160   7.9349950  88.2087740  91.4073680
   2.0401630 106.1375800 105.6773040   2.9668940 105.9020070 105.7209000
   2.0252060 106.9647800 105.1959070  10.2746690 105.6801370  92.6747290
  10.4498880 104.9939110  92.0308210   9.5768260 106.2048420  92.2823960
   5.8280700  88.2174130 106.0195390   5.7146150  88.5368740 106.9146910
   6.6450440  88.6186640 105.7232670   8.6079190 105.3645660 105.5014080
   9.4004510 104.8694890 105.2940040   8.9012340 106.0435800 106.1089690
   4.7338850  96.2366600  76.3830130   4.6532900  95.3221210  76.1121840
   4.3203270  96.7333670  75.6769840   2.8656890  98.0145620  78.2639400
   2.0898990  97.5346060  78.5537970   3.5169820  97.3351270  78.0895560
   6.8864320 102.4205810  77.0438530   6.4245850 101.6493050  77.3725700
   7.6989870 102.4471880  77.5490980   3.1127630 104.7063820  76.6642520
   2.4939070 105.1621320  76.0936960   3.9679410 104.8615280  76.2632220
   2.3065880 100.6902810  78.2709560   2.2374160  99.7492750  78.1098690
   3.0685740 100.7804220  78.8432130   3.3371050  93.4973190  78.4978490
   3.7135870  92.6245070  78.3852160   3.2390560  93.8331890  77.6068930
   7.1195170  90.9923630  75.4306830   7.9404790  90.5020200  75.4732310
   7.1529250  91.5821290  76.1838670  11.4094720  93.0090380  81.9950460
  10.7046890  93.3972090  81.4765570  11.6752640  93.7040670  82.5971390
   3.9790980  99.5903060  74.0574430   3.3608250 100.0552510  73.4937150
   4.4914230 100.2830540  74.4743940   7.3556650  92.9324010  78.2034370
   6.6512220  93.2208900  78.7837480   7.7168810  93.7424120  77.8433930
   8.9719430 102.5499140  80.4661850   8.2882950 103.2198250  80.4578520
   9.5113720 102.7479790  79.7006710  10.4243570  92.3778800  78.5943580
   9.4768480  92.4117780  78.7259010  10.7493560  93.1917750  78.9792940
   6.5078170 104.3943270  79.1807030   6.5205330 103.9905560  78.3129290
   5.9553390 105.1690560  79.0768460   7.8023590 101.1159490  74.2697200
   7.6919920 100.1733820  74.3946620   7.7991840 101.4775130  75.1559960
   5.9063610  99.2973110  80.5089640   6.3232400  99.0833220  79.6743100
   6.6303430  99.5545900  81.0798260   3.3443870  96.7424810  73.6259690
   2.4173150  96.6762190  73.8548160   3.4968690  97.6804940  73.5114930
   3.3312950  93.0141810  70.6226850   2.3916620  93.1755770  70.7079310
   3.6496210  93.7327490  70.0762840   9.8525710  97.6960330  80.6005880
   9.0244340  97.7653420  80.1256010  10.4476190  98.2814640  80.1321710
   7.3741160  98.3045110  74.1294940   6.7553580  97.9664660  73.4821240
   7.3565610  97.6604870  74.8374130   6.8167720  94.4829650  81.5460750
   6.4038900  95.3083360  81.8000740   6.0843670  93.8974690  81.3537110
   7.5067820 104.5288980  82.2341730   7.0298380 105.3361170  82.0414340
   6.8229610 103.8767310  82.3867940   5.5505860  97.5431920  71.1367690
   5.9899140  96.7054350  70.9905510   6.2634280  98.1761320  71.2231830
   3.6601240 102.4827990  75.1048930   4.0997150 103.2252320  74.6904320
   3.5988130 102.7254560  76.0287890   9.1323000  88.7974730  69.4508730
   8.8195660  88.8901560  70.3507800   9.8935470  89.3755760  69.4006160
  11.0867030 104.2900920  87.3033120  11.5626750 104.7683810  87.9822200
  11.7074190 104.2218410  86.5778620  10.4900280 101.4813770  84.4633130
  10.6163340 101.2425650  83.5450310  10.5321660 100.6498310  84.9355210
   4.3517020 105.1841770  83.0327940   4.8661690 105.0949780  83.8350370
   3.5086100 105.5301470  83.3255850   6.3271420 105.4697110  72.4611940
   6.1672560 105.1800050  73.3593770   6.1618130 104.6937240  71.9257170
   6.0297550 102.9784670  71.0209940   5.3362710 102.9761960  70.3612220
   6.7720410 102.5543990  70.5904110   5.5947480 104.6047380  75.0958430
   6.0504430 103.8236760  75.4097050   5.9340000 105.3154200  75.6399610
  10.3424290  93.5346230  85.4282870   9.7268560  94.0425900  84.8998330
  10.0220710  92.6344560  85.3708810   2.4038610  92.3738120  82.8945060
   1.9417980  92.5821140  83.7065000   2.0016720  91.5597470  82.5915730
   7.4043120  93.5947070  84.0241720   6.5536710  93.2952820  84.3450790
   7.2444910  93.8389080  83.1125540   4.4992830  95.0948820  86.1240510
   4.8246240  94.2612570  85.7842740   5.2873160  95.6177340  86.2718840
   5.1380780  94.6366540  73.6181640   4.5389670  95.3602340  73.4345260
   5.6860390  94.5743320  72.8358090   3.7445650  93.2730080  75.6484920
   4.1375220  93.5902280  74.8353610   4.1062500  92.3941960  75.7629440
   2.0537820  92.0237390  86.9081780   1.3636140  91.8309590  87.5427870
   2.7970120  92.3072030  87.4406080   4.3300790  95.8635830  79.7435700
   3.5981910  96.3722640  80.0925800   3.9325130  95.0465810  79.4424480
   4.7926700  91.3169510  79.1558640   4.8099440  91.7678160  80.0000490
   4.5442280  90.4175150  79.3692080   8.2197450  88.7301690  84.9945020
   8.5443220  87.9991350  85.5203000   8.2553960  88.4115330  84.0926010
   8.1455290  98.8426800  78.6031050   8.8654410  99.3382090  78.2127160
   7.9437110  98.1644690  77.9584920   3.6065230  90.2364760  72.7460440
   2.7929840  89.7377930  72.6705750   3.4127180  91.0763010  72.3296790
   3.5274090  98.9135860  84.4900050   3.4611400  97.9931530  84.2357640
   2.8979230  99.0111300  85.2044690   6.3213620  94.6084410  71.0422600
   7.2093240  94.9201640  70.8673940   6.2918710  93.7356660  70.6503180
   2.3174210 100.7808100  71.7210770   2.6589910 101.5250330  71.2254090
   1.4886920 101.0939220  72.0835600   3.4590820 101.7356430  84.2403850
   3.4735360 100.8037390  84.0222760   2.7515920 101.8216190  84.8793620
   8.5927890  95.9196250  70.5102460   8.5091610  96.3510470  69.6598900
   9.3122080  96.3794600  70.9429280   9.6702030  98.3763770  83.5872430
   8.9450220  98.9692550  83.3901820  10.1977490  98.3687310  82.7885800
   9.6215140 102.7738510  73.2384590   8.9791300 102.1194130  73.5128310
   9.2345800 103.1793600  72.4625260   5.2001620 100.1023940  77.0856280
   5.5525440  99.5052070  76.4257650   4.3163950  99.7768170  77.2564530
   2.8924720 103.3774000  81.3344350   3.5366940 103.5833380  82.0117770
   3.2554160 102.6162400  80.8815200   4.1656800 101.3806350  80.0521800
   4.8079030 100.6799510  80.1653970   4.6906150 102.1604790  79.8718690
   8.0112520 101.6654970  69.7760940   7.7850100 100.9485410  70.3685580
   7.6208720 101.4167410  68.9382690   5.9394420 102.1801250  83.2557860
   6.2750660 102.7667940  83.9335780   5.0194760 102.0493960  83.4855650
   7.5928770  99.5826910  71.4375100   7.3050470 100.0439600  72.2252980
   8.3880940  99.1224680  71.7059320   1.7683000 102.2292580  86.4245920
   1.4479870 101.5101820  86.9691610   1.0941360 102.9047650  86.4981980
   4.9836600  92.4618740  81.7882720   5.3517420  91.6413950  82.1162290
   4.1234800  92.5220630  82.2038370   8.3498630  91.4175680  72.5970280
   7.7211790  91.5221350  71.8828510   7.8550550  91.6372460  73.3864160
   2.7956770 103.1381270  70.0304260   2.8968750 102.9345260  69.1006240
   1.8958510 102.8839550  70.2352040   1.9438590  95.1158330  82.0120690
   2.4423840  95.5904150  82.6772540   2.0861540  94.1921850  82.2190720
   4.3498090  90.4212290  75.4523950   4.2265870  90.4398420  74.5033460
   5.2982650  90.4691230  75.5722350   9.1505450  91.3326290  82.8549080
   8.6479050  92.0731690  83.1942890   9.9662110  91.7210290  82.5385870
   7.4427460  96.5759470  76.3010440   6.5017600  96.5909700  76.4758130
   7.7571530  95.7895430  76.7470740   9.4453040 103.7468320  77.9764700
   9.5700460 104.5699490  78.4488510  10.3118600 103.5359050  77.6288850
   4.7593480 101.1325470  86.7842820   4.1531640 101.1557070  86.0438570
   4.4547590 100.4008510  87.3210070   6.1893850 104.8605760  85.3952230
   7.1415600 104.7763780  85.3452470   6.0422070 105.5247470  86.0686020
   9.0803050 104.2399970  70.8944140   8.7944560 103.8265110  70.0798320
   8.8822600 105.1687680  70.7744660   3.7853010  99.2953280  69.9391740
   3.2363110  99.7422580  70.5834480   4.4072270  98.7902530  70.4629410
   7.8387950 100.6495380  85.8714000   8.5797420 100.9871140  85.3681460
   7.0760630 100.8187440  85.3183770   1.9655770  97.2781810  69.0834140
   2.4861430  96.5630830  68.7175290   2.6124170  97.9167680  69.3834650
   6.5133610  98.7010210  84.4069210   6.9274630  98.8555290  85.2559630
   5.5784610  98.8265430  84.5694990   6.9855780  96.0406370  86.4108360
   7.5676550  95.2858690  86.3228840   7.1617550  96.5713810  85.6339840
   3.6112740  96.3846870  83.7602980   3.7308950  95.7888010  84.4997820
   4.4706740  96.4216560  83.3404280   5.9500640  96.9384060  82.3365490
   5.4235860  97.4626680  81.7330630   6.2931980  97.5711450  82.9675220
   5.1974940  92.5434030  85.2511820   4.5090460  91.8815570  85.1861810
   5.9180960  92.0972300  85.6960280   5.8275340  89.1385660  71.3102080
   6.1077630  88.2953560  71.6661500   5.0541070  89.3708770  71.8240830
   1.9818470 106.1934910  83.7509520   1.9077170 107.0970050  84.0581890
   1.0797310 105.8746810  83.7231590   2.5303800 105.3593420  71.3735880
   3.4254590 105.6978390  71.3954640   2.5621430 104.6372830  70.7460160
   9.5098150 103.8897090  84.0802080   8.9100140 103.9489650  83.3366000
   9.6392050 102.9502070  84.2098930  10.7499600 101.6314910  69.4171790
   9.9192560 101.6991560  69.8879020  10.9271430 102.5219030  69.1138650
  10.2056060  98.3762390  71.9205990  10.9674970  98.9459040  72.0265680
  10.2210430  97.8089590  72.6914300  11.2116030  99.2312490  76.7647920
  11.5824860  98.4479810  76.3583890  11.8517960  99.9201590  76.5865220
   8.1949790 100.6149070  82.1778240   7.3809630 101.0446230  82.4404030
   8.6023990 101.2267480  81.5647290  10.2575230  98.6696760  69.0778510
  10.5324070  99.5775640  68.9497730  10.0685970  98.6059290  70.0140500
   6.6550840  91.6941610  70.3732140   7.0735720  91.5072590  69.5328800
   6.3486900  90.8420660  70.6835070  10.1540570  96.6065750  74.0707940
   9.7784170  95.8393680  73.6389230   9.4243690  96.9888450  74.5582870
   9.5440190  95.7537270  83.7047460   9.3126280  95.5250020  82.8045410
   9.8044740  96.6736820  83.6592350   7.9828260  90.9793700  86.4827160
   8.8598440  90.9877100  86.8661160   7.9949100  90.2424540  85.8719510
   9.4291530  94.8323240  77.3715180   9.9529010  94.3385890  76.7405350
  10.0150950  94.9673600  78.1162750   9.6081250  94.9163110  80.8934730
   8.6583960  94.8826650  81.0079720   9.7894260  95.8263220  80.6584500
   8.9191500  94.0896590  73.3107590   9.4150620  93.8567460  74.0956470
   8.7207570  93.2508430  72.8945230  10.3478660  92.7257540  75.8445270
  10.2377940  92.5713580  76.7827540  11.1086250  92.1978480  75.6020680
   8.6944380  88.6651670  82.3028270   9.3316600  89.2785810  82.6687460
   8.8419270  88.7012330  81.3577500  11.2368930  90.5565460  69.0851410
  12.1618240  90.4246640  68.8769700  11.2144720  90.6358280  70.0387860
  11.3107420  91.3276120  71.7108120  10.5158920  91.2621240  72.2401030
  11.5150700  92.2626760  71.6993470   8.2525840 105.3667670  75.7046510
   8.8484910 105.0452240  75.0280930   8.5103990 104.8939490  76.4959780
   2.0648860  89.8177860  85.2103370   2.0037750  90.4099690  85.9598780
   3.0049240  89.7103820  85.0653630   4.7023420  89.4747920  84.8495660
   5.3163830  89.7927210  84.1876740   5.2472980  88.9896510  85.4691520
  11.1198600 105.3739550  82.2557500  10.6256880 105.7708420  81.5384630
  10.5111890 104.7488760  82.6494780   5.4431460  88.0380060  81.1764950
   4.5691300  88.3715170  80.9737880   5.3342210  87.5653240  82.0016820
   6.3503440  90.2450930  82.5606670   6.0216800  89.4302690  82.1808400
   7.2985740  90.2020740  82.4372360   8.8038050 106.0162970  79.5344240
   8.3441020 106.7678780  79.1602260   8.1750510 105.2969440  79.4759040
   1.9729270 105.2159700  79.5361350   2.2607080 104.9614000  78.6594360
   2.4852490 104.6637060  80.1266920   3.1906280  88.9549900  80.1157860
   2.4078070  89.4295400  80.3954620   2.8969210  88.0504730  80.0071040
   7.7427350  89.6573000  78.1606950   8.1835440  89.6018100  77.3128550
   7.4734940  90.5731010  78.2317130   9.6065920  89.2888240  76.1715770
   9.5454320  88.3449460  76.0246790  10.3857950  89.3968330  76.7169230
   5.5785480  88.0379100  76.8656960   6.1814850  88.6099310  77.3405480
   4.8378470  88.6018540  76.6430860   8.7220080  88.4400660  72.1397240
   8.9170710  89.3384110  72.4064670   7.9349950  88.2087740  72.6330190
   2.0401630 106.1375800  86.9029550   2.9668940 105.9020070  86.9465510
   2.0252060 106.9647800  86.4215580  10.2746690 105.6801370  73.9003800
  10.4498880 104.9939110  73.2564720   9.5768260 106.2048420  73.5080470
   5.8280700  88.2174130  87.2451900   5.7146150  88.5368740  88.1403420
   6.6450440  88.6186640  86.9489180   8.6079190 105.3645660  86.7270590
   9.4004510 104.8694890  86.5196550   8.9012340 106.0435800  87.3346200
   4.7338850  96.2366600  57.6086640   4.6532900  95.3221210  57.3378350
   4.3203270  96.7333670  56.9026350   2.8656890  98.0145620  59.4895910
   2.0898990  97.5346060  59.7794480   3.5169820  97.3351270  59.3152070
   6.8864320 102.4205810  58.2695040   6.4245850 101.6493050  58.5982210
   7.6989870 102.4471880  58.7747490   3.1127630 104.7063820  57.8899030
   2.4939070 105.1621320  57.3193470   3.9679410 104.8615280  57.4888730
   2.3065880 100.6902810  59.4966070   2.2374160  99.7492750  59.3355200
   3.0685740 100.7804220  60.0688640   3.3371050  93.4973190  59.7235000
   3.7135870  92.6245070  59.6108670   3.2390560  93.8331890  58.8325440
   7.1195170  90.9923630  56.6563340   7.9404790  90.5020200  56.6988820
   7.1529250  91.5821290  57.4095180  11.4094720  93.0090380  63.2206970
  10.7046890  93.3972090  62.7022080  11.6752640  93.7040670  63.8227900
   3.9790980  99.5903060  55.2830940   3.3608250 100.0552510  54.7193660
   4.4914230 100.2830540  55.7000450   7.3556650  92.9324010  59.4290880
   6.6512220  93.2208900  60.0093990   7.7168810  93.7424120  59.0690440
   8.9719430 102.5499140  61.6918360   8.2882950 103.2198250  61.6835030
   9.5113720 102.7479790  60.9263220  10.4243570  92.3778800  59.8200090
   9.4768480  92.4117780  59.9515520  10.7493560  93.1917750  60.2049450
   6.5078170 104.3943270  60.4063540   6.5205330 103.9905560  59.5385800
   5.9553390 105.1690560  60.3024970   7.8023590 101.1159490  55.4953710
   7.6919920 100.1733820  55.6203130   7.7991840 101.4775130  56.3816470
   5.9063610  99.2973110  61.7346150   6.3232400  99.0833220  60.8999610
   6.6303430  99.5545900  62.3054770   3.3443870  96.7424810  54.8516200
   2.4173150  96.6762190  55.0804670   3.4968690  97.6804940  54.7371440
   3.3312950  93.0141810  51.8483360   2.3916620  93.1755770  51.9335820
   3.6496210  93.7327490  51.3019350   9.8525710  97.6960330  61.8262390
   9.0244340  97.7653420  61.3512520  10.4476190  98.2814640  61.3578220
   7.3741160  98.3045110  55.3551450   6.7553580  97.9664660  54.7077750
   7.3565610  97.6604870  56.0630640   6.8167720  94.4829650  62.7717260
   6.4038900  95.3083360  63.0257250   6.0843670  93.8974690  62.5793620
   7.5067820 104.5288980  63.4598240   7.0298380 105.3361170  63.2670850
   6.8229610 103.8767310  63.6124450   5.5505860  97.5431920  52.3624200
   5.9899140  96.7054350  52.2162020   6.2634280  98.1761320  52.4488340
   3.6601240 102.4827990  56.3305440   4.0997150 103.2252320  55.9160830
   3.5988130 102.7254560  57.2544400   9.1323000  88.7974730  50.6765240
   8.8195660  88.8901560  51.5764310   9.8935470  89.3755760  50.6262670
  11.0867030 104.2900920  68.5289630  11.5626750 104.7683810  69.2078710
  11.7074190 104.2218410  67.8035130  10.4900280 101.4813770  65.6889640
  10.6163340 101.2425650  64.7706820  10.5321660 100.6498310  66.1611720
   4.3517020 105.1841770  64.2584450   4.8661690 105.0949780  65.0606880
   3.5086100 105.5301470  64.5512360   6.3271420 105.4697110  53.6868450
   6.1672560 105.1800050  54.5850280   6.1618130 104.6937240  53.1513680
   6.0297550 102.9784670  52.2466450   5.3362710 102.9761960  51.5868730
   6.7720410 102.5543990  51.8160620   5.5947480 104.6047380  56.3214940
   6.0504430 103.8236760  56.6353560   5.9340000 105.3154200  56.8656120
  10.3424290  93.5346230  66.6539380   9.7268560  94.0425900  66.1254840
  10.0220710  92.6344560  66.5965320   2.4038610  92.3738120  64.1201570
   1.9417980  92.5821140  64.9321510   2.0016720  91.5597470  63.8172240
   7.4043120  93.5947070  65.2498230   6.5536710  93.2952820  65.5707300
   7.2444910  93.8389080  64.3382050   4.4992830  95.0948820  67.3497020
   4.8246240  94.2612570  67.0099250   5.2873160  95.6177340  67.4975350
   5.1380780  94.6366540  54.8438150   4.5389670  95.3602340  54.6601770
   5.6860390  94.5743320  54.0614600   3.7445650  93.2730080  56.8741430
   4.1375220  93.5902280  56.0610120   4.1062500  92.3941960  56.9885950
   2.0537820  92.0237390  68.1338290   1.3636140  91.8309590  68.7684380
   2.7970120  92.3072030  68.6662590   4.3300790  95.8635830  60.9692210
   3.5981910  96.3722640  61.3182310   3.9325130  95.0465810  60.6680990
   4.7926700  91.3169510  60.3815150   4.8099440  91.7678160  61.2257000
   4.5442280  90.4175150  60.5948590   8.2197450  88.7301690  66.2201530
   8.5443220  87.9991350  66.7459510   8.2553960  88.4115330  65.3182520
   8.1455290  98.8426800  59.8287560   8.8654410  99.3382090  59.4383670
   7.9437110  98.1644690  59.1841430   3.6065230  90.2364760  53.9716950
   2.7929840  89.7377930  53.8962260   3.4127180  91.0763010  53.5553300
   3.5274090  98.9135860  65.7156560   3.4611400  97.9931530  65.4614150
   2.8979230  99.0111300  66.4301200   6.3213620  94.6084410  52.2679110
   7.2093240  94.9201640  52.0930450   6.2918710  93.7356660  51.8759690
   2.3174210 100.7808100  52.9467280   2.6589910 101.5250330  52.4510600
   1.4886920 101.0939220  53.3092110   3.4590820 101.7356430  65.4660360
   3.4735360 100.8037390  65.2479270   2.7515920 101.8216190  66.1050130
   8.5927890  95.9196250  51.7358970   8.5091610  96.3510470  50.8855410
   9.3122080  96.3794600  52.1685790   9.6702030  98.3763770  64.8128940
   8.9450220  98.9692550  64.6158330  10.1977490  98.3687310  64.0142310
   9.6215140 102.7738510  54.4641100   8.9791300 102.1194130  54.7384820
   9.2345800 103.1793600  53.6881770   5.2001620 100.1023940  58.3112790
   5.5525440  99.5052070  57.6514160   4.3163950  99.7768170  58.4821040
   2.8924720 103.3774000  62.5600860   3.5366940 103.5833380  63.2374280
   3.2554160 102.6162400  62.1071710   4.1656800 101.3806350  61.2778310
   4.8079030 100.6799510  61.3910480   4.6906150 102.1604790  61.0975200
   8.0112520 101.6654970  51.0017450   7.7850100 100.9485410  51.5942090
   7.6208720 101.4167410  50.1639200   5.9394420 102.1801250  64.4814370
   6.2750660 102.7667940  65.1592290   5.0194760 102.0493960  64.7112160
   7.5928770  99.5826910  52.6631610   7.3050470 100.0439600  53.4509490
   8.3880940  99.1224680  52.9315830   1.7683000 102.2292580  67.6502430
   1.4479870 101.5101820  68.1948120   1.0941360 102.9047650  67.7238490
   4.9836600  92.4618740  63.0139230   5.3517420  91.6413950  63.3418800
   4.1234800  92.5220630  63.4294880   8.3498630  91.4175680  53.8226790
   7.7211790  91.5221350  53.1085020   7.8550550  91.6372460  54.6120670
   2.7956770 103.1381270  51.2560770   2.8968750 102.9345260  50.3262750
   1.8958510 102.8839550  51.4608550   1.9438590  95.1158330  63.2377200
   2.4423840  95.5904150  63.9029050   2.0861540  94.1921850  63.4447230
   4.3498090  90.4212290  56.6780460   4.2265870  90.4398420  55.7289970
   5.2982650  90.4691230  56.7978860   9.1505450  91.3326290  64.0805590
   8.6479050  92.0731690  64.4199400   9.9662110  91.7210290  63.7642380
   7.4427460  96.5759470  57.5266950   6.5017600  96.5909700  57.7014640
   7.7571530  95.7895430  57.9727250   9.4453040 103.7468320  59.2021210
   9.5700460 104.5699490  59.6745020  10.3118600 103.5359050  58.8545360
   4.7593480 101.1325470  68.0099330   4.1531640 101.1557070  67.2695080
   4.4547590 100.4008510  68.5466580   6.1893850 104.8605760  66.6208740
   7.1415600 104.7763780  66.5708980   6.0422070 105.5247470  67.2942530
   9.0803050 104.2399970  52.1200650   8.7944560 103.8265110  51.3054830
   8.8822600 105.1687680  52.0001170   3.7853010  99.2953280  51.1648250
   3.2363110  99.7422580  51.8090990   4.4072270  98.7902530  51.6885920
   7.8387950 100.6495380  67.0970510   8.5797420 100.9871140  66.5937970
   7.0760630 100.8187440  66.5440280   1.9655770  97.2781810  50.3090650
   2.4861430  96.5630830  49.9431800   2.6124170  97.9167680  50.6091160
   6.5133610  98.7010210  65.6325720   6.9274630  98.8555290  66.4816140
   5.5784610  98.8265430  65.7951500   6.9855780  96.0406370  67.6364870
   7.5676550  95.2858690  67.5485350   7.1617550  96.5713810  66.8596350
   3.6112740  96.3846870  64.9859490   3.7308950  95.7888010  65.7254330
   4.4706740  96.4216560  64.5660790   5.9500640  96.9384060  63.5622000
   5.4235860  97.4626680  62.9587140   6.2931980  97.5711450  64.1931730
   5.1974940  92.5434030  66.4768330   4.5090460  91.8815570  66.4118320
   5.9180960  92.0972300  66.9216790   5.8275340  89.1385660  52.5358590
   6.1077630  88.2953560  52.8918010   5.0541070  89.3708770  53.0497340
   1.9818470 106.1934910  64.9766030   1.9077170 107.0970050  65.2838400
   1.0797310 105.8746810  64.9488100   2.5303800 105.3593420  52.5992390
   3.4254590 105.6978390  52.6211150   2.5621430 104.6372830  51.9716670
   9.5098150 103.8897090  65.3058590   8.9100140 103.9489650  64.5622510
   9.6392050 102.9502070  65.4355440  10.7499600 101.6314910  50.6428300
   9.9192560 101.6991560  51.1135530  10.9271430 102.5219030  50.3395160
  10.2056060  98.3762390  53.1462500  10.9674970  98.9459040  53.2522190
  10.2210430  97.8089590  53.9170810  11.2116030  99.2312490  57.9904430
  11.5824860  98.4479810  57.5840400  11.8517960  99.9201590  57.8121730
   8.1949790 100.6149070  63.4034750   7.3809630 101.0446230  63.6660540
   8.6023990 101.2267480  62.7903800  10.2575230  98.6696760  50.3035020
  10.5324070  99.5775640  50.1754240  10.0685970  98.6059290  51.2397010
   6.6550840  91.6941610  51.5988650   7.0735720  91.5072590  50.7585310
   6.3486900  90.8420660  51.9091580  10.1540570  96.6065750  55.2964450
   9.7784170  95.8393680  54.8645740   9.4243690  96.9888450  55.7839380
   9.5440190  95.7537270  64.9303970   9.3126280  95.5250020  64.0301920
   9.8044740  96.6736820  64.8848860   7.9828260  90.9793700  67.7083670
   8.8598440  90.9877100  68.0917670   7.9949100  90.2424540  67.0976020
   9.4291530  94.8323240  58.5971690   9.9529010  94.3385890  57.9661860
  10.0150950  94.9673600  59.3419260   9.6081250  94.9163110  62.1191240
   8.6583960  94.8826650  62.2336230   9.7894260  95.8263220  61.8841010
   8.9191500  94.0896590  54.5364100   9.4150620  93.8567460  55.3212980
   8.7207570  93.2508430  54.1201740  10.3478660  92.7257540  57.0701780
  10.2377940  92.5713580  58.0084050  11.1086250  92.1978480  56.8277190
   8.6944380  88.6651670  63.5284780   9.3316600  89.2785810  63.8943970
   8.8419270  88.7012330  62.5834010  11.2368930  90.5565460  50.3107920
  12.1618240  90.4246640  50.1026210  11.2144720  90.6358280  51.2644370
  11.3107420  91.3276120  52.9364630  10.5158920  91.2621240  53.4657540
  11.5150700  92.2626760  52.9249980   8.2525840 105.3667670  56.9303020
   8.8484910 105.0452240  56.2537440   8.5103990 104.8939490  57.7216290
   2.0648860  89.8177860  66.4359880   2.0037750  90.4099690  67.1855290
   3.0049240  89.7103820  66.2910140   4.7023420  89.4747920  66.0752170
   5.3163830  89.7927210  65.4133250   5.2472980  88.9896510  66.6948030
  11.1198600 105.3739550  63.4814010  10.6256880 105.7708420  62.7641140
  10.5111890 104.7488760  63.8751290   5.4431460  88.0380060  62.4021460
   4.5691300  88.3715170  62.1994390   5.3342210  87.5653240  63.2273330
   6.3503440  90.2450930  63.7863180   6.0216800  89.4302690  63.4064910
   7.2985740  90.2020740  63.6628870   8.8038050 106.0162970  60.7600750
   8.3441020 106.7678780  60.3858770   8.1750510 105.2969440  60.7015550
   1.9729270 105.2159700  60.7617860   2.2607080 104.9614000  59.8850870
   2.4852490 104.6637060  61.3523430   3.1906280  88.9549900  61.3414370
   2.4078070  89.4295400  61.6211130   2.8969210  88.0504730  61.2327550
   7.7427350  89.6573000  59.3863460   8.1835440  89.6018100  58.5385060
   7.4734940  90.5731010  59.4573640   9.6065920  89.2888240  57.3972280
   9.5454320  88.3449460  57.2503300  10.3857950  89.3968330  57.9425740
   5.5785480  88.0379100  58.0913470   6.1814850  88.6099310  58.5661990
   4.8378470  88.6018540  57.8687370   8.7220080  88.4400660  53.3653750
   8.9170710  89.3384110  53.6321180   7.9349950  88.2087740  53.8586700
   2.0401630 106.1375800  68.1286060   2.9668940 105.9020070  68.1722020
   2.0252060 106.9647800  67.6472090  10.2746690 105.6801370  55.1260310
  10.4498880 104.9939110  54.4821230   9.5768260 106.2048420  54.7336980
   5.8280700  88.2174130  68.4708410   5.7146150  88.5368740  69.3659930
   6.6450440  88.6186640  68.1745690   8.6079190 105.3645660  67.9527100
   9.4004510 104.8694890  67.7453060   8.9012340 106.0435800  68.5602710
   4.7338850  96.2366600  38.8343150   4.6532900  95.3221210  38.5634860
   4.3203270  96.7333670  38.1282860   2.8656890  98.0145620  40.7152420
   2.0898990  97.5346060  41.0050990   3.5169820  97.3351270  40.5408580
   6.8864320 102.4205810  39.4951550   6.4245850 101.6493050  39.8238720
   7.6989870 102.4471880  40.0004000   3.1127630 104.7063820  39.1155540
   2.4939070 105.1621320  38.5449980   3.9679410 104.8615280  38.7145240
   2.3065880 100.6902810  40.7222580   2.2374160  99.7492750  40.5611710
   3.0685740 100.7804220  41.2945150   3.3371050  93.4973190  40.9491510
   3.7135870  92.6245070  40.8365180   3.2390560  93.8331890  40.0581950
   7.1195170  90.9923630  37.8819850   7.9404790  90.5020200  37.9245330
   7.1529250  91.5821290  38.6351690  11.4094720  93.0090380  44.4463480
  10.7046890  93.3972090  43.9278590  11.6752640  93.7040670  45.0484410
   3.9790980  99.5903060  36.5087450   3.3608250 100.0552510  35.9450170
   4.4914230 100.2830540  36.9256960   7.3556650  92.9324010  40.6547390
   6.6512220  93.2208900  41.2350500   7.7168810  93.7424120  40.2946950
   8.9719430 102.5499140  42.9174870   8.2882950 103.2198250  42.9091540
   9.5113720 102.7479790  42.1519730  10.4243570  92.3778800  41.0456600
   9.4768480  92.4117780  41.1772030  10.7493560  93.1917750  41.4305960
   6.5078170 104.3943270  41.6320050   6.5205330 103.9905560  40.7642310
   5.9553390 105.1690560  41.5281480   7.8023590 101.1159490  36.7210220
   7.6919920 100.1733820  36.8459640   7.7991840 101.4775130  37.6072980
   5.9063610  99.2973110  42.9602660   6.3232400  99.0833220  42.1256120
   6.6303430  99.5545900  43.5311280   3.3443870  96.7424810  36.0772710
   2.4173150  96.6762190  36.3061180   3.4968690  97.6804940  35.9627950
   3.3312950  93.0141810  33.0739870   2.3916620  93.1755770  33.1592330
   3.6496210  93.7327490  32.5275860   9.8525710  97.6960330  43.0518900
   9.0244340  97.7653420  42.5769030  10.4476190  98.2814640  42.5834730
   7.3741160  98.3045110  36.5807960   6.7553580  97.9664660  35.9334260
   7.3565610  97.6604870  37.2887150   6.8167720  94.4829650  43.9973770
   6.4038900  95.3083360  44.2513760   6.0843670  93.8974690  43.8050130
   7.5067820 104.5288980  44.6854750   7.0298380 105.3361170  44.4927360
   6.8229610 103.8767310  44.8380960   5.5505860  97.5431920  33.5880710
   5.9899140  96.7054350  33.4418530   6.2634280  98.1761320  33.6744850
   3.6601240 102.4827990  37.5561950   4.0997150 103.2252320  37.1417340
   3.5988130 102.7254560  38.4800910   9.1323000  88.7974730  31.9021750
   8.8195660  88.8901560  32.8020820   9.8935470  89.3755760  31.8519180
  11.0867030 104.2900920  49.7546140  11.5626750 104.7683810  50.4335220
  11.7074190 104.2218410  49.0291640  10.4900280 101.4813770  46.9146150
  10.6163340 101.2425650  45.9963330  10.5321660 100.6498310  47.3868230
   4.3517020 105.1841770  45.4840960   4.8661690 105.0949780  46.2863390
   3.5086100 105.5301470  45.7768870   6.3271420 105.4697110  34.9124960
   6.1672560 105.1800050  35.8106790   6.1618130 104.6937240  34.3770190
   6.0297550 102.9784670  33.4722960   5.3362710 102.9761960  32.8125240
   6.7720410 102.5543990  33.0417130   5.5947480 104.6047380  37.5471450
   6.0504430 103.8236760  37.8610070   5.9340000 105.3154200  38.0912630
  10.3424290  93.5346230  47.8795890   9.7268560  94.0425900  47.3511350
  10.0220710  92.6344560  47.8221830   2.4038610  92.3738120  45.3458080
   1.9417980  92.5821140  46.1578020   2.0016720  91.5597470  45.0428750
   7.4043120  93.5947070  46.4754740   6.5536710  93.2952820  46.7963810
   7.2444910  93.8389080  45.5638560   4.4992830  95.0948820  48.5753530
   4.8246240  94.2612570  48.2355760   5.2873160  95.6177340  48.7231860
   5.1380780  94.6366540  36.0694660   4.5389670  95.3602340  35.8858280
   5.6860390  94.5743320  35.2871110   3.7445650  93.2730080  38.0997940
   4.1375220  93.5902280  37.2866630   4.1062500  92.3941960  38.2142460
   2.0537820  92.0237390  49.3594800   1.3636140  91.8309590  49.9940890
   2.7970120  92.3072030  49.8919100   4.3300790  95.8635830  42.1948720
   3.5981910  96.3722640  42.5438820   3.9325130  95.0465810  41.8937500
   4.7926700  91.3169510  41.6071660   4.8099440  91.7678160  42.4513510
   4.5442280  90.4175150  41.8205100   8.2197450  88.7301690  47.4458040
   8.5443220  87.9991350  47.9716020   8.2553960  88.4115330  46.5439030
   8.1455290  98.8426800  41.0544070   8.8654410  99.3382090  40.6640180
   7.9437110  98.1644690  40.4097940   3.6065230  90.2364760  35.1973460
   2.7929840  89.7377930  35.1218770   3.4127180  91.0763010  34.7809810
   3.5274090  98.9135860  46.9413070   3.4611400  97.9931530  46.6870660
   2.8979230  99.0111300  47.6557710   6.3213620  94.6084410  33.4935620
   7.2093240  94.9201640  33.3186960   6.2918710  93.7356660  33.1016200
   2.3174210 100.7808100  34.1723790   2.6589910 101.5250330  33.6767110
   1.4886920 101.0939220  34.5348620   3.4590820 101.7356430  46.6916870
   3.4735360 100.8037390  46.4735780   2.7515920 101.8216190  47.3306640
   8.5927890  95.9196250  32.9615480   8.5091610  96.3510470  32.1111920
   9.3122080  96.3794600  33.3942300   9.6702030  98.3763770  46.0385450
   8.9450220  98.9692550  45.8414840  10.1977490  98.3687310  45.2398820
   9.6215140 102.7738510  35.6897610   8.9791300 102.1194130  35.9641330
   9.2345800 103.1793600  34.9138280   5.2001620 100.1023940  39.5369300
   5.5525440  99.5052070  38.8770670   4.3163950  99.7768170  39.7077550
   2.8924720 103.3774000  43.7857370   3.5366940 103.5833380  44.4630790
   3.2554160 102.6162400  43.3328220   4.1656800 101.3806350  42.5034820
   4.8079030 100.6799510  42.6166990   4.6906150 102.1604790  42.3231710
   8.0112520 101.6654970  32.2273960   7.7850100 100.9485410  32.8198600
   7.6208720 101.4167410  31.3895710   5.9394420 102.1801250  45.7070880
   6.2750660 102.7667940  46.3848800   5.0194760 102.0493960  45.9368670
   7.5928770  99.5826910  33.8888120   7.3050470 100.0439600  34.6766000
   8.3880940  99.1224680  34.1572340   1.7683000 102.2292580  48.8758940
   1.4479870 101.5101820  49.4204630   1.0941360 102.9047650  48.9495000
   4.9836600  92.4618740  44.2395740   5.3517420  91.6413950  44.5675310
   4.1234800  92.5220630  44.6551390   8.3498630  91.4175680  35.0483300
   7.7211790  91.5221350  34.3341530   7.8550550  91.6372460  35.8377180
   2.7956770 103.1381270  32.4817280   2.8968750 102.9345260  31.5519260
   1.8958510 102.8839550  32.6865060   1.9438590  95.1158330  44.4633710
   2.4423840  95.5904150  45.1285560   2.0861540  94.1921850  44.6703740
   4.3498090  90.4212290  37.9036970   4.2265870  90.4398420  36.9546480
   5.2982650  90.4691230  38.0235370   9.1505450  91.3326290  45.3062100
   8.6479050  92.0731690  45.6455910   9.9662110  91.7210290  44.9898890
   7.4427460  96.5759470  38.7523460   6.5017600  96.5909700  38.9271150
   7.7571530  95.7895430  39.1983760   9.4453040 103.7468320  40.4277720
   9.5700460 104.5699490  40.9001530  10.3118600 103.5359050  40.0801870
   4.7593480 101.1325470  49.2355840   4.1531640 101.1557070  48.4951590
   4.4547590 100.4008510  49.7723090   6.1893850 104.8605760  47.8465250
   7.1415600 104.7763780  47.7965490   6.0422070 105.5247470  48.5199040
   9.0803050 104.2399970  33.3457160   8.7944560 103.8265110  32.5311340
   8.8822600 105.1687680  33.2257680   3.7853010  99.2953280  32.3904760
   3.2363110  99.7422580  33.0347500   4.4072270  98.7902530  32.9142430
   7.8387950 100.6495380  48.3227020   8.5797420 100.9871140  47.8194480
   7.0760630 100.8187440  47.7696790   1.9655770  97.2781810  31.5347160
   2.4861430  96.5630830  31.1688310   2.6124170  97.9167680  31.8347670
   6.5133610  98.7010210  46.8582230   6.9274630  98.8555290  47.7072650
   5.5784610  98.8265430  47.0208010   6.9855780  96.0406370  48.8621380
   7.5676550  95.2858690  48.7741860   7.1617550  96.5713810  48.0852860
   3.6112740  96.3846870  46.2116000   3.7308950  95.7888010  46.9510840
   4.4706740  96.4216560  45.7917300   5.9500640  96.9384060  44.7878510
   5.4235860  97.4626680  44.1843650   6.2931980  97.5711450  45.4188240
   5.1974940  92.5434030  47.7024840   4.5090460  91.8815570  47.6374830
   5.9180960  92.0972300  48.1473300   5.8275340  89.1385660  33.7615100
   6.1077630  88.2953560  34.1174520   5.0541070  89.3708770  34.2753850
   1.9818470 106.1934910  46.2022540   1.9077170 107.0970050  46.5094910
   1.0797310 105.8746810  46.1744610   2.5303800 105.3593420  33.8248900
   3.4254590 105.6978390  33.8467660   2.5621430 104.6372830  33.1973180
   9.5098150 103.8897090  46.5315100   8.9100140 103.9489650  45.7879020
   9.6392050 102.9502070  46.6611950  10.7499600 101.6314910  31.8684810
   9.9192560 101.6991560  32.3392040  10.9271430 102.5219030  31.5651670
  10.2056060  98.3762390  34.3719010  10.9674970  98.9459040  34.4778700
  10.2210430  97.8089590  35.1427320  11.2116030  99.2312490  39.2160940
  11.5824860  98.4479810  38.8096910  11.8517960  99.9201590  39.0378240
   8.1949790 100.6149070  44.6291260   7.3809630 101.0446230  44.8917050
   8.6023990 101.2267480  44.0160310  10.2575230  98.6696760  31.5291530
  10.5324070  99.5775640  31.4010750  10.0685970  98.6059290  32.4653520
   6.6550840  91.6941610  32.8245160   7.0735720  91.5072590  31.9841820
   6.3486900  90.8420660  33.1348090  10.1540570  96.6065750  36.5220960
   9.7784170  95.8393680  36.0902250   9.4243690  96.9888450  37.0095890
   9.5440190  95.7537270  46.1560480   9.3126280  95.5250020  45.2558430
   9.8044740  96.6736820  46.1105370   7.9828260  90.9793700  48.9340180
   8.8598440  90.9877100  49.3174180   7.9949100  90.2424540  48.3232530
   9.4291530  94.8323240  39.8228200   9.9529010  94.3385890  39.1918370
  10.0150950  94.9673600  40.5675770   9.6081250  94.9163110  43.3447750
   8.6583960  94.8826650  43.4592740   9.7894260  95.8263220  43.1097520
   8.9191500  94.0896590  35.7620610   9.4150620  93.8567460  36.5469490
   8.7207570  93.2508430  35.3458250  10.3478660  92.7257540  38.2958290
  10.2377940  92.5713580  39.2340560  11.1086250  92.1978480  38.0533700
   8.6944380  88.6651670  44.7541290   9.3316600  89.2785810  45.1200480
   8.8419270  88.7012330  43.8090520  11.2368930  90.5565460  31.5364430
  12.1618240  90.4246640  31.3282720  11.2144720  90.6358280  32.4900880
  11.3107420  91.3276120  34.1621140  10.5158920  91.2621240  34.6914050
  11.5150700  92.2626760  34.1506490   8.2525840 105.3667670  38.1559530
   8.8484910 105.0452240  37.4793950   8.5103990 104.8939490  38.9472800
   2.0648860  89.8177860  47.6616390   2.0037750  90.4099690  48.4111800
   3.0049240  89.7103820  47.5166650   4.7023420  89.4747920  47.3008680
   5.3163830  89.7927210  46.6389760   5.2472980  88.9896510  47.9204540
  11.1198600 105.3739550  44.7070520  10.6256880 105.7708420  43.9897650
  10.5111890 104.7488760  45.1007800   5.4431460  88.0380060  43.6277970
   4.5691300  88.3715170  43.4250900   5.3342210  87.5653240  44.4529840
   6.3503440  90.2450930  45.0119690   6.0216800  89.4302690  44.6321420
   7.2985740  90.2020740  44.8885380   8.8038050 106.0162970  41.9857260
   8.3441020 106.7678780  41.6115280   8.1750510 105.2969440  41.9272060
   1.9729270 105.2159700  41.9874370   2.2607080 104.9614000  41.1107380
   2.4852490 104.6637060  42.5779940   3.1906280  88.9549900  42.5670880
   2.4078070  89.4295400  42.8467640   2.8969210  88.0504730  42.4584060
   7.7427350  89.6573000  40.6119970   8.1835440  89.6018100  39.7641570
   7.4734940  90.5731010  40.6830150   9.6065920  89.2888240  38.6228790
   9.5454320  88.3449460  38.4759810  10.3857950  89.3968330  39.1682250
   5.5785480  88.0379100  39.3169980   6.1814850  88.6099310  39.7918500
   4.8378470  88.6018540  39.0943880   8.7220080  88.4400660  34.5910260
   8.9170710  89.3384110  34.8577690   7.9349950  88.2087740  35.0843210
   2.0401630 106.1375800  49.3542570   2.9668940 105.9020070  49.3978530
   2.0252060 106.9647800  48.8728600  10.2746690 105.6801370  36.3516820
  10.4498880 104.9939110  35.7077740   9.5768260 106.2048420  35.9593490
   5.8280700  88.2174130  49.6964920   5.7146150  88.5368740  50.5916440
   6.6450440  88.6186640  49.4002200   8.6079190 105.3645660  49.1783610
   9.4004510 104.8694890  48.9709570   8.9012340 106.0435800  49.7859220
   4.7338850  96.2366600  20.0599660   4.6532900  95.3221210  19.7891370
   4.3203270  96.7333670  19.3539370   2.8656890  98.0145620  21.9408930
   2.0898990  97.5346060  22.2307500   3.5169820  97.3351270  21.7665090
   6.8864320 102.4205810  20.7208060   6.4245850 101.6493050  21.0495230
   7.6989870 102.4471880  21.2260510   3.1127630 104.7063820  20.3412050
   2.4939070 105.1621320  19.7706490   3.9679410 104.8615280  19.9401750
   2.3065880 100.6902810  21.9479090   2.2374160  99.7492750  21.7868220
   3.0685740 100.7804220  22.5201660   3.3371050  93.4973190  22.1748020
   3.7135870  92.6245070  22.0621690   3.2390560  93.8331890  21.2838460
   7.1195170  90.9923630  19.1076360   7.9404790  90.5020200  19.1501840
   7.1529250  91.5821290  19.8608200  11.4094720  93.0090380  25.6719990
  10.7046890  93.3972090  25.1535100  11.6752640  93.7040670  26.2740920
   3.9790980  99.5903060  17.7343960   3.3608250 100.0552510  17.1706680
   4.4914230 100.2830540  18.1513470   7.3556650  92.9324010  21.8803900
   6.6512220  93.2208900  22.4607010   7.7168810  93.7424120  21.5203460
   8.9719430 102.5499140  24.1431380   8.2882950 103.2198250  24.1348050
   9.5113720 102.7479790  23.3776240  10.4243570  92.3778800  22.2713110
   9.4768480  92.4117780  22.4028540  10.7493560  93.1917750  22.6562470
   6.5078170 104.3943270  22.8576560   6.5205330 103.9905560  21.9898820
   5.9553390 105.1690560  22.7537990   7.8023590 101.1159490  17.9466730
   7.6919920 100.1733820  18.0716150   7.7991840 101.4775130  18.8329490
   5.9063610  99.2973110  24.1859170   6.3232400  99.0833220  23.3512630
   6.6303430  99.5545900  24.7567790   3.3443870  96.7424810  17.3029220
   2.4173150  96.6762190  17.5317690   3.4968690  97.6804940  17.1884460
   3.3312950  93.0141810  14.2996380   2.3916620  93.1755770  14.3848840
   3.6496210  93.7327490  13.7532370   9.8525710  97.6960330  24.2775410
   9.0244340  97.7653420  23.8025540  10.4476190  98.2814640  23.8091240
   7.3741160  98.3045110  17.8064470   6.7553580  97.9664660  17.1590770
   7.3565610  97.6604870  18.5143660   6.8167720  94.4829650  25.2230280
   6.4038900  95.3083360  25.4770270   6.0843670  93.8974690  25.0306640
   7.5067820 104.5288980  25.9111260   7.0298380 105.3361170  25.7183870
   6.8229610 103.8767310  26.0637470   5.5505860  97.5431920  14.8137220
   5.9899140  96.7054350  14.6675040   6.2634280  98.1761320  14.9001360
   3.6601240 102.4827990  18.7818460   4.0997150 103.2252320  18.3673850
   3.5988130 102.7254560  19.7057420   9.1323000  88.7974730  13.1278260
   8.8195660  88.8901560  14.0277330   9.8935470  89.3755760  13.0775690
  11.0867030 104.2900920  30.9802650  11.5626750 104.7683810  31.6591730
  11.7074190 104.2218410  30.2548150  10.4900280 101.4813770  28.1402660
  10.6163340 101.2425650  27.2219840  10.5321660 100.6498310  28.6124740
   4.3517020 105.1841770  26.7097470   4.8661690 105.0949780  27.5119900
   3.5086100 105.5301470  27.0025380   6.3271420 105.4697110  16.1381470
   6.1672560 105.1800050  17.0363300   6.1618130 104.6937240  15.6026700
   6.0297550 102.9784670  14.6979470   5.3362710 102.9761960  14.0381750
   6.7720410 102.5543990  14.2673640   5.5947480 104.6047380  18.7727960
   6.0504430 103.8236760  19.0866580   5.9340000 105.3154200  19.3169140
  10.3424290  93.5346230  29.1052400   9.7268560  94.0425900  28.5767860
  10.0220710  92.6344560  29.0478340   2.4038610  92.3738120  26.5714590
   1.9417980  92.5821140  27.3834530   2.0016720  91.5597470  26.2685260
   7.4043120  93.5947070  27.7011250   6.5536710  93.2952820  28.0220320
   7.2444910  93.8389080  26.7895070   4.4992830  95.0948820  29.8010040
   4.8246240  94.2612570  29.4612270   5.2873160  95.6177340  29.9488370
   5.1380780  94.6366540  17.2951170   4.5389670  95.3602340  17.1114790
   5.6860390  94.5743320  16.5127620   3.7445650  93.2730080  19.3254450
   4.1375220  93.5902280  18.5123140   4.1062500  92.3941960  19.4398970
   2.0537820  92.0237390  30.5851310   1.3636140  91.8309590  31.2197400
   2.7970120  92.3072030  31.1175610   4.3300790  95.8635830  23.4205230
   3.5981910  96.3722640  23.7695330   3.9325130  95.0465810  23.1194010
   4.7926700  91.3169510  22.8328170   4.8099440  91.7678160  23.6770020
   4.5442280  90.4175150  23.0461610   8.2197450  88.7301690  28.6714550
   8.5443220  87.9991350  29.1972530   8.2553960  88.4115330  27.7695540
   8.1455290  98.8426800  22.2800580   8.8654410  99.3382090  21.8896690
   7.9437110  98.1644690  21.6354450   3.6065230  90.2364760  16.4229970
   2.7929840  89.7377930  16.3475280   3.4127180  91.0763010  16.0066320
   3.5274090  98.9135860  28.1669580   3.4611400  97.9931530  27.9127170
   2.8979230  99.0111300  28.8814220   6.3213620  94.6084410  14.7192130
   7.2093240  94.9201640  14.5443470   6.2918710  93.7356660  14.3272710
   2.3174210 100.7808100  15.3980300   2.6589910 101.5250330  14.9023620
   1.4886920 101.0939220  15.7605130   3.4590820 101.7356430  27.9173380
   3.4735360 100.8037390  27.6992290   2.7515920 101.8216190  28.5563150
   8.5927890  95.9196250  14.1871990   8.5091610  96.3510470  13.3368430
   9.3122080  96.3794600  14.6198810   9.6702030  98.3763770  27.2641960
   8.9450220  98.9692550  27.0671350  10.1977490  98.3687310  26.4655330
   9.6215140 102.7738510  16.9154120   8.9791300 102.1194130  17.1897840
   9.2345800 103.1793600  16.1394790   5.2001620 100.1023940  20.7625810
   5.5525440  99.5052070  20.1027180   4.3163950  99.7768170  20.9334060
   2.8924720 103.3774000  25.0113880   3.5366940 103.5833380  25.6887300
   3.2554160 102.6162400  24.5584730   4.1656800 101.3806350  23.7291330
   4.8079030 100.6799510  23.8423500   4.6906150 102.1604790  23.5488220
   8.0112520 101.6654970  13.4530470   7.7850100 100.9485410  14.0455110
   7.6208720 101.4167410  12.6152220   5.9394420 102.1801250  26.9327390
   6.2750660 102.7667940  27.6105310   5.0194760 102.0493960  27.1625180
   7.5928770  99.5826910  15.1144630   7.3050470 100.0439600  15.9022510
   8.3880940  99.1224680  15.3828850   1.7683000 102.2292580  30.1015450
   1.4479870 101.5101820  30.6461140   1.0941360 102.9047650  30.1751510
   4.9836600  92.4618740  25.4652250   5.3517420  91.6413950  25.7931820
   4.1234800  92.5220630  25.8807900   8.3498630  91.4175680  16.2739810
   7.7211790  91.5221350  15.5598040   7.8550550  91.6372460  17.0633690
   2.7956770 103.1381270  13.7073790   2.8968750 102.9345260  12.7775770
   1.8958510 102.8839550  13.9121570   1.9438590  95.1158330  25.6890220
   2.4423840  95.5904150  26.3542070   2.0861540  94.1921850  25.8960250
   4.3498090  90.4212290  19.1293480   4.2265870  90.4398420  18.1802990
   5.2982650  90.4691230  19.2491880   9.1505450  91.3326290  26.5318610
   8.6479050  92.0731690  26.8712420   9.9662110  91.7210290  26.2155400
   7.4427460  96.5759470  19.9779970   6.5017600  96.5909700  20.1527660
   7.7571530  95.7895430  20.4240270   9.4453040 103.7468320  21.6534230
   9.5700460 104.5699490  22.1258040  10.3118600 103.5359050  21.3058380
   4.7593480 101.1325470  30.4612350   4.1531640 101.1557070  29.7208100
   4.4547590 100.4008510  30.9979600   6.1893850 104.8605760  29.0721760
   7.1415600 104.7763780  29.0222000   6.0422070 105.5247470  29.7455550
   9.0803050 104.2399970  14.5713670   8.7944560 103.8265110  13.7567850
   8.8822600 105.1687680  14.4514190   3.7853010  99.2953280  13.6161270
   3.2363110  99.7422580  14.2604010   4.4072270  98.7902530  14.1398940
   7.8387950 100.6495380  29.5483530   8.5797420 100.9871140  29.0450990
   7.0760630 100.8187440  28.9953300   1.9655770  97.2781810  12.7603670
   2.4861430  96.5630830  12.3944820   2.6124170  97.9167680  13.0604180
   6.5133610  98.7010210  28.0838740   6.9274630  98.8555290  28.9329160
   5.5784610  98.8265430  28.2464520   6.9855780  96.0406370  30.0877890
   7.5676550  95.2858690  29.9998370   7.1617550  96.5713810  29.3109370
   3.6112740  96.3846870  27.4372510   3.7308950  95.7888010  28.1767350
   4.4706740  96.4216560  27.0173810   5.9500640  96.9384060  26.0135020
   5.4235860  97.4626680  25.4100160   6.2931980  97.5711450  26.6444750
   5.1974940  92.5434030  28.9281350   4.5090460  91.8815570  28.8631340
   5.9180960  92.0972300  29.3729810   5.8275340  89.1385660  14.9871610
   6.1077630  88.2953560  15.3431030   5.0541070  89.3708770  15.5010360
   1.9818470 106.1934910  27.4279050   1.9077170 107.0970050  27.7351420
   1.0797310 105.8746810  27.4001120   2.5303800 105.3593420  15.0505410
   3.4254590 105.6978390  15.0724170   2.5621430 104.6372830  14.4229690
   9.5098150 103.8897090  27.7571610   8.9100140 103.9489650  27.0135530
   9.6392050 102.9502070  27.8868460  10.7499600 101.6314910  13.0941320
   9.9192560 101.6991560  13.5648550  10.9271430 102.5219030  12.7908180
  10.2056060  98.3762390  15.5975520  10.9674970  98.9459040  15.7035210
  10.2210430  97.8089590  16.3683830  11.2116030  99.2312490  20.4417450
  11.5824860  98.4479810  20.0353420  11.8517960  99.9201590  20.2634750
   8.1949790 100.6149070  25.8547770   7.3809630 101.0446230  26.1173560
   8.6023990 101.2267480  25.2416820  10.2575230  98.6696760  12.7548040
  10.5324070  99.5775640  12.6267260  10.0685970  98.6059290  13.6910030
   6.6550840  91.6941610  14.0501670   7.0735720  91.5072590  13.2098330
   6.3486900  90.8420660  14.3604600  10.1540570  96.6065750  17.7477470
   9.7784170  95.8393680  17.3158760   9.4243690  96.9888450  18.2352400
   9.5440190  95.7537270  27.3816990   9.3126280  95.5250020  26.4814940
   9.8044740  96.6736820  27.3361880   7.9828260  90.9793700  30.1596690
   8.8598440  90.9877100  30.5430690   7.9949100  90.2424540  29.5489040
   9.4291530  94.8323240  21.0484710   9.9529010  94.3385890  20.4174880
  10.0150950  94.9673600  21.7932280   9.6081250  94.9163110  24.5704260
   8.6583960  94.8826650  24.6849250   9.7894260  95.8263220  24.3354030
   8.9191500  94.0896590  16.9877120   9.4150620  93.8567460  17.7726000
   8.7207570  93.2508430  16.5714760  10.3478660  92.7257540  19.5214800
  10.2377940  92.5713580  20.4597070  11.1086250  92.1978480  19.2790210
   8.6944380  88.6651670  25.9797800   9.3316600  89.2785810  26.3456990
   8.8419270  88.7012330  25.0347030  11.2368930  90.5565460  12.7620940
  12.1618240  90.4246640  12.5539230  11.2144720  90.6358280  13.7157390
  11.3107420  91.3276120  15.3877650  10.5158920  91.2621240  15.9170560
  11.5150700  92.2626760  15.3763000   8.2525840 105.3667670  19.3816040
   8.8484910 105.0452240  18.7050460   8.5103990 104.8939490  20.1729310
   2.0648860  89.8177860  28.8872900   2.0037750  90.4099690  29.6368310
   3.0049240  89.7103820  28.7423160   4.7023420  89.4747920  28.5265190
   5.3163830  89.7927210  27.8646270   5.2472980  88.9896510  29.1461050
  11.1198600 105.3739550  25.9327030  10.6256880 105.7708420  25.2154160
  10.5111890 104.7488760  26.3264310   5.4431460  88.0380060  24.8534480
   4.5691300  88.3715170  24.6507410   5.3342210  87.5653240  25.6786350
   6.3503440  90.2450930  26.2376200   6.0216800  89.4302690  25.8577930
   7.2985740  90.2020740  26.1141890   8.8038050 106.0162970  23.2113770
   8.3441020 106.7678780  22.8371790   8.1750510 105.2969440  23.1528570
   1.9729270 105.2159700  23.2130880   2.2607080 104.9614000  22.3363890
   2.4852490 104.6637060  23.8036450   3.1906280  88.9549900  23.7927390
   2.4078070  89.4295400  24.0724150   2.8969210  88.0504730  23.6840570
   7.7427350  89.6573000  21.8376480   8.1835440  89.6018100  20.9898080
   7.4734940  90.5731010  21.9086660   9.6065920  89.2888240  19.8485300
   9.5454320  88.3449460  19.7016320  10.3857950  89.3968330  20.3938760
   5.5785480  88.0379100  20.5426490   6.1814850  88.6099310  21.0175010
   4.8378470  88.6018540  20.3200390   8.7220080  88.4400660  15.8166770
   8.9170710  89.3384110  16.0834200   7.9349950  88.2087740  16.3099720
   2.0401630 106.1375800  30.5799080   2.9668940 105.9020070  30.6235040
   2.0252060 106.9647800  30.0985110  10.2746690 105.6801370  17.5773330
  10.4498880 104.9939110  16.9334250   9.5768260 106.2048420  17.1850000
   5.8280700  88.2174130  30.9221430   5.7146150  88.5368740  31.8172950
   6.6450440  88.6186640  30.6258710   8.6079190 105.3645660  30.4040120
   9.4004510 104.8694890  30.1966080   8.9012340 106.0435800  31.0115730
   2.8656890  98.0145620   3.1665440   2.0898990  97.5346060   3.4564010
   3.5169820  97.3351270   2.9921600   6.8864320 102.4205810   1.9464570
   6.4245850 101.6493050   2.2751740   7.6989870 102.4471880   2.4517020
   2.3065880 100.6902810   3.1735600   2.2374160  99.7492750   3.0124730
   3.0685740 100.7804220   3.7458170   3.3371050  93.4973190   3.4004530
   3.7135870  92.6245070   3.2878200   3.2390560  93.8331890   2.5094970
  11.4094720  93.0090380   6.8976500  10.7046890  93.3972090   6.3791610
  11.6752640  93.7040670   7.4997430   7.3556650  92.9324010   3.1060410
   6.6512220  93.2208900   3.6863520   7.7168810  93.7424120   2.7459970
   8.9719430 102.5499140   5.3687890   8.2882950 103.2198250   5.3604560
   9.5113720 102.7479790   4.6032750  10.4243570  92.3778800   3.4969620
   9.4768480  92.4117780   3.6285050  10.7493560  93.1917750   3.8818980
   6.5078170 104.3943270   4.0833070   6.5205330 103.9905560   3.2155330
   5.9553390 105.1690560   3.9794500   5.9063610  99.2973110   5.4115680
   6.3232400  99.0833220   4.5769140   6.6303430  99.5545900   5.9824300
   9.8525710  97.6960330   5.5031920   9.0244340  97.7653420   5.0282050
  10.4476190  98.2814640   5.0347750   6.8167720  94.4829650   6.4486790
   6.4038900  95.3083360   6.7026780   6.0843670  93.8974690   6.2563150
   7.5067820 104.5288980   7.1367770   7.0298380 105.3361170   6.9440380
   6.8229610 103.8767310   7.2893980  11.0867030 104.2900920  12.2059160
  11.5626750 104.7683810  12.8848240  11.7074190 104.2218410  11.4804660
  10.4900280 101.4813770   9.3659170  10.6163340 101.2425650   8.4476350
  10.5321660 100.6498310   9.8381250   4.3517020 105.1841770   7.9353980
   4.8661690 105.0949780   8.7376410   3.5086100 105.5301470   8.2281890
  10.3424290  93.5346230  10.3308910   9.7268560  94.0425900   9.8024370
  10.0220710  92.6344560  10.2734850   2.4038610  92.3738120   7.7971100
   1.9417980  92.5821140   8.6091040   2.0016720  91.5597470   7.4941770
   7.4043120  93.5947070   8.9267760   6.5536710  93.2952820   9.2476830
   7.2444910  93.8389080   8.0151580   4.4992830  95.0948820  11.0266550
   4.8246240  94.2612570  10.6868780   5.2873160  95.6177340  11.1744880
   2.0537820  92.0237390  11.8107820   1.3636140  91.8309590  12.4453910
   2.7970120  92.3072030  12.3432120   4.3300790  95.8635830   4.6461740
   3.5981910  96.3722640   4.9951840   3.9325130  95.0465810   4.3450520
   4.7926700  91.3169510   4.0584680   4.8099440  91.7678160   4.9026530
   4.5442280  90.4175150   4.2718120   8.2197450  88.7301690   9.8971060
   8.5443220  87.9991350  10.4229040   8.2553960  88.4115330   8.9952050
   8.1455290  98.8426800   3.5057090   8.8654410  99.3382090   3.1153200
   7.9437110  98.1644690   2.8610960   3.5274090  98.9135860   9.3926090
   3.4611400  97.9931530   9.1383680   2.8979230  99.0111300  10.1070730
   3.4590820 101.7356430   9.1429890   3.4735360 100.8037390   8.9248800
   2.7515920 101.8216190   9.7819660   9.6702030  98.3763770   8.4898470
   8.9450220  98.9692550   8.2927860  10.1977490  98.3687310   7.6911840
   2.8924720 103.3774000   6.2370390   3.5366940 103.5833380   6.9143810
   3.2554160 102.6162400   5.7841240   4.1656800 101.3806350   4.9547840
   4.8079030 100.6799510   5.0680010   4.6906150 102.1604790   4.7744730
   5.9394420 102.1801250   8.1583900   6.2750660 102.7667940   8.8361820
   5.0194760 102.0493960   8.3881690   1.7683000 102.2292580  11.3271960
   1.4479870 101.5101820  11.8717650   1.0941360 102.9047650  11.4008020
   4.9836600  92.4618740   6.6908760   5.3517420  91.6413950   7.0188330
   4.1234800  92.5220630   7.1064410   1.9438590  95.1158330   6.9146730
   2.4423840  95.5904150   7.5798580   2.0861540  94.1921850   7.1216760
   9.1505450  91.3326290   7.7575120   8.6479050  92.0731690   8.0968930
   9.9662110  91.7210290   7.4411910   9.4453040 103.7468320   2.8790740
   9.5700460 104.5699490   3.3514550  10.3118600 103.5359050   2.5314890
   4.7593480 101.1325470  11.6868860   4.1531640 101.1557070  10.9464610
   4.4547590 100.4008510  12.2236110   6.1893850 104.8605760  10.2978270
   7.1415600 104.7763780  10.2478510   6.0422070 105.5247470  10.9712060
   7.8387950 100.6495380  10.7740040   8.5797420 100.9871140  10.2707500
   7.0760630 100.8187440  10.2209810   6.5133610  98.7010210   9.3095250
   6.9274630  98.8555290  10.1585670   5.5784610  98.8265430   9.4721030
   6.9855780  96.0406370  11.3134400   7.5676550  95.2858690  11.2254880
   7.1617550  96.5713810  10.5365880   3.6112740  96.3846870   8.6629020
   3.7308950  95.7888010   9.4023860   4.4706740  96.4216560   8.2430320
   5.9500640  96.9384060   7.2391530   5.4235860  97.4626680   6.6356670
   6.2931980  97.5711450   7.8701260   5.1974940  92.5434030  10.1537860
   4.5090460  91.8815570  10.0887850   5.9180960  92.0972300  10.5986320
   1.9818470 106.1934910   8.6535560   1.9077170 107.0970050   8.9607930
   1.0797310 105.8746810   8.6257630   9.5098150 103.8897090   8.9828120
   8.9100140 103.9489650   8.2392040   9.6392050 102.9502070   9.1124970
   8.1949790 100.6149070   7.0804280   7.3809630 101.0446230   7.3430070
   8.6023990 101.2267480   6.4673330   9.5440190  95.7537270   8.6073500
   9.3126280  95.5250020   7.7071450   9.8044740  96.6736820   8.5618390
   7.9828260  90.9793700  11.3853200   8.8598440  90.9877100  11.7687200
   7.9949100  90.2424540  10.7745550   9.4291530  94.8323240   2.2741220
   9.9529010  94.3385890   1.6431390  10.0150950  94.9673600   3.0188790
   9.6081250  94.9163110   5.7960770   8.6583960  94.8826650   5.9105760
   9.7894260  95.8263220   5.5610540   8.6944380  88.6651670   7.2054310
   9.3316600  89.2785810   7.5713500   8.8419270  88.7012330   6.2603540
   2.0648860  89.8177860  10.1129410   2.0037750  90.4099690  10.8624820
   3.0049240  89.7103820   9.9679670   4.7023420  89.4747920   9.7521700
   5.3163830  89.7927210   9.0902780   5.2472980  88.9896510  10.3717560
  11.1198600 105.3739550   7.1583540  10.6256880 105.7708420   6.4410670
  10.5111890 104.7488760   7.5520820   5.4431460  88.0380060   6.0790990
   4.5691300  88.3715170   5.8763920   5.3342210  87.5653240   6.9042860
   6.3503440  90.2450930   7.4632710   6.0216800  89.4302690   7.0834440
   7.2985740  90.2020740   7.3398400   8.8038050 106.0162970   4.4370280
   8.3441020 106.7678780   4.0628300   8.1750510 105.2969440   4.3785080
   1.9729270 105.2159700   4.4387390   2.2607080 104.9614000   3.5620400
   2.4852490 104.6637060   5.0292960   3.1906280  88.9549900   5.0183900
   2.4078070  89.4295400   5.2980660   2.8969210  88.0504730   4.9097080
   7.7427350  89.6573000   3.0632990   8.1835440  89.6018100   2.2154590
   7.4734940  90.5731010   3.1343170   5.5785480  88.0379100   1.7683000
   6.1814850  88.6099310   2.2431520   4.8378470  88.6018540   1.5456900
   2.0401630 106.1375800  11.8055590   2.9668940 105.9020070  11.8491550
   2.0252060 106.9647800  11.3241620   5.8280700  88.2174130  12.1477940
   5.7146150  88.5368740  13.0429460   6.6450440  88.6186640  11.8515220
   8.6079190 105.3645660  11.6296630   9.4004510 104.8694890  11.4222590
   8.9012340 106.0435800  12.2372240   4.7338850  77.4623110 151.4804090
   4.6532900  76.5477720 151.2095800   4.3203270  77.9590180 150.7743800
   2.8656890  79.2402130 153.3613360   2.0898990  78.7602570 153.6511930
   3.5169820  78.5607780 153.1869520   6.8864320  83.6462320 152.1412490
   6.4245850  82.8749560 152.4699660   7.6989870  83.6728390 152.6464940
   3.1127630  85.9320330 151.7616480   2.4939070  86.3877830 151.1910920
   3.9679410  86.0871790 151.3606180   2.3065880  81.9159320 153.3683520
   2.2374160  80.9749260 153.2072650   3.0685740  82.0060730 153.9406090
   3.3371050  74.7229700 153.5952450   3.7135870  73.8501580 153.4826120
   3.2390560  75.0588400 152.7042890   7.1195170  72.2180140 150.5280790
   7.9404790  71.7276710 150.5706270   7.1529250  72.8077800 151.2812630
   3.9790980  80.8159570 149.1548390   3.3608250  81.2809020 148.5911110
   4.4914230  81.5087050 149.5717900   7.3556650  74.1580520 153.3008330
   6.6512220  74.4465410 153.8811440   7.7168810  74.9680630 152.9407890
  10.4243570  73.6035310 153.6917540   9.4768480  73.6374290 153.8232970
  10.7493560  74.4174260 154.0766900   6.5078170  85.6199780 154.2780990
   6.5205330  85.2162070 153.4103250   5.9553390  86.3947070 154.1742420
   7.8023590  82.3416000 149.3671160   7.6919920  81.3990330 149.4920580
   7.7991840  82.7031640 150.2533920   3.3443870  77.9681320 148.7233650
   2.4173150  77.9018700 148.9522120   3.4968690  78.9061450 148.6088890
   3.3312950  74.2398320 145.7200810   2.3916620  74.4012280 145.8053270
   3.6496210  74.9584000 145.1736800   7.3741160  79.5301620 149.2268900
   6.7553580  79.1921170 148.5795200   7.3565610  78.8861380 149.9348090
   5.5505860  78.7688430 146.2341650   5.9899140  77.9310860 146.0879470
   6.2634280  79.4017830 146.3205790   3.6601240  83.7084500 150.2022890
   4.0997150  84.4508830 149.7878280   3.5988130  83.9511070 151.1261850
   9.1323000  70.0231240 144.5482690   8.8195660  70.1158070 145.4481760
   9.8935470  70.6012270 144.4980120   6.3271420  86.6953620 147.5585900
   6.1672560  86.4056560 148.4567730   6.1618130  85.9193750 147.0231130
   6.0297550  84.2041180 146.1183900   5.3362710  84.2018470 145.4586180
   6.7720410  83.7800500 145.6878070   5.5947480  85.8303890 150.1932390
   6.0504430  85.0493270 150.5071010   5.9340000  86.5410710 150.7373570
   5.1380780  75.8623050 148.7155600   4.5389670  76.5858850 148.5319220
   5.6860390  75.7999830 147.9332050   3.7445650  74.4986590 150.7458880
   4.1375220  74.8158790 149.9327570   4.1062500  73.6198470 150.8603400
   8.1455290  80.0683310 153.7005010   8.8654410  80.5638600 153.3101120
   7.9437110  79.3901200 153.0558880   3.6065230  71.4621270 147.8434400
   2.7929840  70.9634440 147.7679710   3.4127180  72.3019520 147.4270750
   6.3213620  75.8340920 146.1396560   7.2093240  76.1458150 145.9647900
   6.2918710  74.9613170 145.7477140   2.3174210  82.0064610 146.8184730
   2.6589910  82.7506840 146.3228050   1.4886920  82.3195730 147.1809560
   8.5927890  77.1452760 145.6076420   8.5091610  77.5766980 144.7572860
   9.3122080  77.6051110 146.0403240   9.6215140  83.9995020 148.3358550
   8.9791300  83.3450640 148.6102270   9.2345800  84.4050110 147.5599220
   5.2001620  81.3280450 152.1830240   5.5525440  80.7308580 151.5231610
   4.3163950  81.0024680 152.3538490   8.0112520  82.8911480 144.8734900
   7.7850100  82.1741920 145.4659540   7.6208720  82.6423920 144.0356650
   7.5928770  80.8083420 146.5349060   7.3050470  81.2696110 147.3226940
   8.3880940  80.3481190 146.8033280   8.3498630  72.6432190 147.6944240
   7.7211790  72.7477860 146.9802470   7.8550550  72.8628970 148.4838120
   2.7956770  84.3637780 145.1278220   2.8968750  84.1601770 144.1980200
   1.8958510  84.1096060 145.3326000   4.3498090  71.6468800 150.5497910
   4.2265870  71.6654930 149.6007420   5.2982650  71.6947740 150.6696310
   7.4427460  77.8015980 151.3984400   6.5017600  77.8166210 151.5732090
   7.7571530  77.0151940 151.8444700   9.4453040  84.9724830 153.0738660
   9.5700460  85.7956000 153.5462470  10.3118600  84.7615560 152.7262810
   9.0803050  85.4656480 145.9918100   8.7944560  85.0521620 145.1772280
   8.8822600  86.3944190 145.8718620   3.7853010  80.5209790 145.0365700
   3.2363110  80.9679090 145.6808440   4.4072270  80.0159040 145.5603370
   1.9655770  78.5038320 144.1808100   2.4861430  77.7887340 143.8149250
   2.6124170  79.1424190 144.4808610   5.8275340  70.3642170 146.4076040
   6.1077630  69.5210070 146.7635460   5.0541070  70.5965280 146.9214790
   2.5303800  86.5849930 146.4709840   3.4254590  86.9234900 146.4928600
   2.5621430  85.8629340 145.8434120  10.7499600  82.8571420 144.5145750
   9.9192560  82.9248070 144.9852980  10.9271430  83.7475540 144.2112610
  10.2056060  79.6018900 147.0179950  10.9674970  80.1715550 147.1239640
  10.2210430  79.0346100 147.7888260  11.2116030  80.4569000 151.8621880
  11.5824860  79.6736320 151.4557850  11.8517960  81.1458100 151.6839180
  10.2575230  79.8953270 144.1752470  10.5324070  80.8032150 144.0471690
  10.0685970  79.8315800 145.1114460   6.6550840  72.9198120 145.4706100
   7.0735720  72.7329100 144.6302760   6.3486900  72.0677170 145.7809030
  10.1540570  77.8322260 149.1681900   9.7784170  77.0650190 148.7363190
   9.4243690  78.2144960 149.6556830   9.4291530  76.0579750 152.4689140
   9.9529010  75.5642400 151.8379310  10.0150950  76.1930110 153.2136710
   8.9191500  75.3153100 148.4081550   9.4150620  75.0823970 149.1930430
   8.7207570  74.4764940 147.9919190  10.3478660  73.9514050 150.9419230
  10.2377940  73.7970090 151.8801500  11.1086250  73.4234990 150.6994640
  11.2368930  71.7821970 144.1825370  12.1618240  71.6503150 143.9743660
  11.2144720  71.8614790 145.1361820  11.3107420  72.5532630 146.8082080
  10.5158920  72.4877750 147.3374990  11.5150700  73.4883270 146.7967430
   8.2525840  86.5924180 150.8020470   8.8484910  86.2708750 150.1254890
   8.5103990  86.1196000 151.5933740   7.7427350  70.8829510 153.2580910
   8.1835440  70.8274610 152.4102510   7.4734940  71.7987520 153.3291090
   9.6065920  70.5144750 151.2689730   9.5454320  69.5705970 151.1220750
  10.3857950  70.6224840 151.8143190   5.5785480  69.2635610 151.9630920
   6.1814850  69.8355820 152.4379440   4.8378470  69.8275050 151.7404820
   8.7220080  69.6657170 147.2371200   8.9170710  70.5640620 147.5038630
   7.9349950  69.4344250 147.7304150  10.2746690  86.9057880 148.9977760
  10.4498880  86.2195620 148.3538680   9.5768260  87.4304930 148.6054430
   4.7338850  77.4623110 132.7060600   4.6532900  76.5477720 132.4352310
   4.3203270  77.9590180 132.0000310   2.8656890  79.2402130 134.5869870
   2.0898990  78.7602570 134.8768440   3.5169820  78.5607780 134.4126030
   6.8864320  83.6462320 133.3669000   6.4245850  82.8749560 133.6956170
   7.6989870  83.6728390 133.8721450   3.1127630  85.9320330 132.9872990
   2.4939070  86.3877830 132.4167430   3.9679410  86.0871790 132.5862690
   2.3065880  81.9159320 134.5940030   2.2374160  80.9749260 134.4329160
   3.0685740  82.0060730 135.1662600   3.3371050  74.7229700 134.8208960
   3.7135870  73.8501580 134.7082630   3.2390560  75.0588400 133.9299400
   7.1195170  72.2180140 131.7537300   7.9404790  71.7276710 131.7962780
   7.1529250  72.8077800 132.5069140  11.4094720  74.2346890 138.3180930
  10.7046890  74.6228600 137.7996040  11.6752640  74.9297180 138.9201860
   3.9790980  80.8159570 130.3804900   3.3608250  81.2809020 129.8167620
   4.4914230  81.5087050 130.7974410   7.3556650  74.1580520 134.5264840
   6.6512220  74.4465410 135.1067950   7.7168810  74.9680630 134.1664400
   8.9719430  83.7755650 136.7892320   8.2882950  84.4454760 136.7808990
   9.5113720  83.9736300 136.0237180  10.4243570  73.6035310 134.9174050
   9.4768480  73.6374290 135.0489480  10.7493560  74.4174260 135.3023410
   6.5078170  85.6199780 135.5037500   6.5205330  85.2162070 134.6359760
   5.9553390  86.3947070 135.3998930   7.8023590  82.3416000 130.5927670
   7.6919920  81.3990330 130.7177090   7.7991840  82.7031640 131.4790430
   5.9063610  80.5229620 136.8320110   6.3232400  80.3089730 135.9973570
   6.6303430  80.7802410 137.4028730   3.3443870  77.9681320 129.9490160
   2.4173150  77.9018700 130.1778630   3.4968690  78.9061450 129.8345400
   3.3312950  74.2398320 126.9457320   2.3916620  74.4012280 127.0309780
   3.6496210  74.9584000 126.3993310   9.8525710  78.9216840 136.9236350
   9.0244340  78.9909930 136.4486480  10.4476190  79.5071150 136.4552180
   7.3741160  79.5301620 130.4525410   6.7553580  79.1921170 129.8051710
   7.3565610  78.8861380 131.1604600   6.8167720  75.7086160 137.8691220
   6.4038900  76.5339870 138.1231210   6.0843670  75.1231200 137.6767580
   7.5067820  85.7545490 138.5572200   7.0298380  86.5617680 138.3644810
   6.8229610  85.1023820 138.7098410   5.5505860  78.7688430 127.4598160
   5.9899140  77.9310860 127.3135980   6.2634280  79.4017830 127.5462300
   3.6601240  83.7084500 131.4279400   4.0997150  84.4508830 131.0134790
   3.5988130  83.9511070 132.3518360   9.1323000  70.0231240 125.7739200
   8.8195660  70.1158070 126.6738270   9.8935470  70.6012270 125.7236630
  11.0867030  85.5157430 143.6263590  11.5626750  85.9940320 144.3052670
  11.7074190  85.4474920 142.9009090  10.4900280  82.7070280 140.7863600
  10.6163340  82.4682160 139.8680780  10.5321660  81.8754820 141.2585680
   4.3517020  86.4098280 139.3558410   4.8661690  86.3206290 140.1580840
   3.5086100  86.7557980 139.6486320   6.3271420  86.6953620 128.7842410
   6.1672560  86.4056560 129.6824240   6.1618130  85.9193750 128.2487640
   6.0297550  84.2041180 127.3440410   5.3362710  84.2018470 126.6842690
   6.7720410  83.7800500 126.9134580   5.5947480  85.8303890 131.4188900
   6.0504430  85.0493270 131.7327520   5.9340000  86.5410710 131.9630080
  10.3424290  74.7602740 141.7513340   9.7268560  75.2682410 141.2228800
  10.0220710  73.8601070 141.6939280   2.4038610  73.5994630 139.2175530
   1.9417980  73.8077650 140.0295470   2.0016720  72.7853980 138.9146200
   7.4043120  74.8203580 140.3472190   6.5536710  74.5209330 140.6681260
   7.2444910  75.0645590 139.4356010   4.4992830  76.3205330 142.4470980
   4.8246240  75.4869080 142.1073210   5.2873160  76.8433850 142.5949310
   5.1380780  75.8623050 129.9412110   4.5389670  76.5858850 129.7575730
   5.6860390  75.7999830 129.1588560   3.7445650  74.4986590 131.9715390
   4.1375220  74.8158790 131.1584080   4.1062500  73.6198470 132.0859910
   2.0537820  73.2493900 143.2312250   1.3636140  73.0566100 143.8658340
   2.7970120  73.5328540 143.7636550   4.3300790  77.0892340 136.0666170
   3.5981910  77.5979150 136.4156270   3.9325130  76.2722320 135.7654950
   4.7926700  72.5426020 135.4789110   4.8099440  72.9934670 136.3230960
   4.5442280  71.6431660 135.6922550   8.2197450  69.9558200 141.3175490
   8.5443220  69.2247860 141.8433470   8.2553960  69.6371840 140.4156480
   8.1455290  80.0683310 134.9261520   8.8654410  80.5638600 134.5357630
   7.9437110  79.3901200 134.2815390   3.6065230  71.4621270 129.0690910
   2.7929840  70.9634440 128.9936220   3.4127180  72.3019520 128.6527260
   3.5274090  80.1392370 140.8130520   3.4611400  79.2188040 140.5588110
   2.8979230  80.2367810 141.5275160   6.3213620  75.8340920 127.3653070
   7.2093240  76.1458150 127.1904410   6.2918710  74.9613170 126.9733650
   2.3174210  82.0064610 128.0441240   2.6589910  82.7506840 127.5484560
   1.4886920  82.3195730 128.4066070   3.4590820  82.9612940 140.5634320
   3.4735360  82.0293900 140.3453230   2.7515920  83.0472700 141.2024090
   8.5927890  77.1452760 126.8332930   8.5091610  77.5766980 125.9829370
   9.3122080  77.6051110 127.2659750   9.6702030  79.6020280 139.9102900
   8.9450220  80.1949060 139.7132290  10.1977490  79.5943820 139.1116270
   9.6215140  83.9995020 129.5615060   8.9791300  83.3450640 129.8358780
   9.2345800  84.4050110 128.7855730   5.2001620  81.3280450 133.4086750
   5.5525440  80.7308580 132.7488120   4.3163950  81.0024680 133.5795000
   2.8924720  84.6030510 137.6574820   3.5366940  84.8089890 138.3348240
   3.2554160  83.8418910 137.2045670   4.1656800  82.6062860 136.3752270
   4.8079030  81.9056020 136.4884440   4.6906150  83.3861300 136.1949160
   8.0112520  82.8911480 126.0991410   7.7850100  82.1741920 126.6916050
   7.6208720  82.6423920 125.2613160   5.9394420  83.4057760 139.5788330
   6.2750660  83.9924450 140.2566250   5.0194760  83.2750470 139.8086120
   7.5928770  80.8083420 127.7605570   7.3050470  81.2696110 128.5483450
   8.3880940  80.3481190 128.0289790   1.7683000  83.4549090 142.7476390
   1.4479870  82.7358330 143.2922080   1.0941360  84.1304160 142.8212450
   4.9836600  73.6875250 138.1113190   5.3517420  72.8670460 138.4392760
   4.1234800  73.7477140 138.5268840   8.3498630  72.6432190 128.9200750
   7.7211790  72.7477860 128.2058980   7.8550550  72.8628970 129.7094630
   2.7956770  84.3637780 126.3534730   2.8968750  84.1601770 125.4236710
   1.8958510  84.1096060 126.5582510   1.9438590  76.3414840 138.3351160
   2.4423840  76.8160660 139.0003010   2.0861540  75.4178360 138.5421190
   4.3498090  71.6468800 131.7754420   4.2265870  71.6654930 130.8263930
   5.2982650  71.6947740 131.8952820   9.1505450  72.5582800 139.1779550
   8.6479050  73.2988200 139.5173360   9.9662110  72.9466800 138.8616340
   7.4427460  77.8015980 132.6240910   6.5017600  77.8166210 132.7988600
   7.7571530  77.0151940 133.0701210   9.4453040  84.9724830 134.2995170
   9.5700460  85.7956000 134.7718980  10.3118600  84.7615560 133.9519320
   4.7593480  82.3581980 143.1073290   4.1531640  82.3813580 142.3669040
   4.4547590  81.6265020 143.6440540   6.1893850  86.0862270 141.7182700
   7.1415600  86.0020290 141.6682940   6.0422070  86.7503980 142.3916490
   9.0803050  85.4656480 127.2174610   8.7944560  85.0521620 126.4028790
   8.8822600  86.3944190 127.0975130   3.7853010  80.5209790 126.2622210
   3.2363110  80.9679090 126.9064950   4.4072270  80.0159040 126.7859880
   7.8387950  81.8751890 142.1944470   8.5797420  82.2127650 141.6911930
   7.0760630  82.0443950 141.6414240   1.9655770  78.5038320 125.4064610
   2.4861430  77.7887340 125.0405760   2.6124170  79.1424190 125.7065120
   6.5133610  79.9266720 140.7299680   6.9274630  80.0811800 141.5790100
   5.5784610  80.0521940 140.8925460   6.9855780  77.2662880 142.7338830
   7.5676550  76.5115200 142.6459310   7.1617550  77.7970320 141.9570310
   3.6112740  77.6103380 140.0833450   3.7308950  77.0144520 140.8228290
   4.4706740  77.6473070 139.6634750   5.9500640  78.1640570 138.6595960
   5.4235860  78.6883190 138.0561100   6.2931980  78.7967960 139.2905690
   5.1974940  73.7690540 141.5742290   4.5090460  73.1072080 141.5092280
   5.9180960  73.3228810 142.0190750   5.8275340  70.3642170 127.6332550
   6.1077630  69.5210070 127.9891970   5.0541070  70.5965280 128.1471300
   1.9818470  87.4191420 140.0739990   1.9077170  88.3226560 140.3812360
   1.0797310  87.1003320 140.0462060   2.5303800  86.5849930 127.6966350
   3.4254590  86.9234900 127.7185110   2.5621430  85.8629340 127.0690630
   9.5098150  85.1153600 140.4032550   8.9100140  85.1746160 139.6596470
   9.6392050  84.1758580 140.5329400  10.7499600  82.8571420 125.7402260
   9.9192560  82.9248070 126.2109490  10.9271430  83.7475540 125.4369120
  10.2056060  79.6018900 128.2436460  10.9674970  80.1715550 128.3496150
  10.2210430  79.0346100 129.0144770  11.2116030  80.4569000 133.0878390
  11.5824860  79.6736320 132.6814360  11.8517960  81.1458100 132.9095690
   8.1949790  81.8405580 138.5008710   7.3809630  82.2702740 138.7634500
   8.6023990  82.4523990 137.8877760  10.2575230  79.8953270 125.4008980
  10.5324070  80.8032150 125.2728200  10.0685970  79.8315800 126.3370970
   6.6550840  72.9198120 126.6962610   7.0735720  72.7329100 125.8559270
   6.3486900  72.0677170 127.0065540  10.1540570  77.8322260 130.3938410
   9.7784170  77.0650190 129.9619700   9.4243690  78.2144960 130.8813340
   9.5440190  76.9793780 140.0277930   9.3126280  76.7506530 139.1275880
   9.8044740  77.8993330 139.9822820   7.9828260  72.2050210 142.8057630
   8.8598440  72.2133610 143.1891630   7.9949100  71.4681050 142.1949980
   9.4291530  76.0579750 133.6945650   9.9529010  75.5642400 133.0635820
  10.0150950  76.1930110 134.4393220   9.6081250  76.1419620 137.2165200
   8.6583960  76.1083160 137.3310190   9.7894260  77.0519730 136.9814970
   8.9191500  75.3153100 129.6338060   9.4150620  75.0823970 130.4186940
   8.7207570  74.4764940 129.2175700  10.3478660  73.9514050 132.1675740
  10.2377940  73.7970090 133.1058010  11.1086250  73.4234990 131.9251150
   8.6944380  69.8908180 138.6258740   9.3316600  70.5042320 138.9917930
   8.8419270  69.9268840 137.6807970  11.2368930  71.7821970 125.4081880
  12.1618240  71.6503150 125.2000170  11.2144720  71.8614790 126.3618330
  11.3107420  72.5532630 128.0338590  10.5158920  72.4877750 128.5631500
  11.5150700  73.4883270 128.0223940   8.2525840  86.5924180 132.0276980
   8.8484910  86.2708750 131.3511400   8.5103990  86.1196000 132.8190250
   2.0648860  71.0434370 141.5333840   2.0037750  71.6356200 142.2829250
   3.0049240  70.9360330 141.3884100   4.7023420  70.7004430 141.1726130
   5.3163830  71.0183720 140.5107210   5.2472980  70.2153020 141.7921990
  11.1198600  86.5996060 138.5787970  10.6256880  86.9964930 137.8615100
  10.5111890  85.9745270 138.9725250   5.4431460  69.2636570 137.4995420
   4.5691300  69.5971680 137.2968350   5.3342210  68.7909750 138.3247290
   6.3503440  71.4707440 138.8837140   6.0216800  70.6559200 138.5038870
   7.2985740  71.4277250 138.7602830   8.8038050  87.2419480 135.8574710
   8.3441020  87.9935290 135.4832730   8.1750510  86.5225950 135.7989510
   1.9729270  86.4416210 135.8591820   2.2607080  86.1870510 134.9824830
   2.4852490  85.8893570 136.4497390   3.1906280  70.1806410 136.4388330
   2.4078070  70.6551910 136.7185090   2.8969210  69.2761240 136.3301510
   7.7427350  70.8829510 134.4837420   8.1835440  70.8274610 133.6359020
   7.4734940  71.7987520 134.5547600   9.6065920  70.5144750 132.4946240
   9.5454320  69.5705970 132.3477260  10.3857950  70.6224840 133.0399700
   5.5785480  69.2635610 133.1887430   6.1814850  69.8355820 133.6635950
   4.8378470  69.8275050 132.9661330   8.7220080  69.6657170 128.4627710
   8.9170710  70.5640620 128.7295140   7.9349950  69.4344250 128.9560660
   2.0401630  87.3632310 143.2260020   2.9668940  87.1276580 143.2695980
   2.0252060  88.1904310 142.7446050  10.2746690  86.9057880 130.2234270
  10.4498880  86.2195620 129.5795190   9.5768260  87.4304930 129.8310940
   5.8280700  69.4430640 143.5682370   5.7146150  69.7625250 144.4633890
   6.6450440  69.8443150 143.2719650   8.6079190  86.5902170 143.0501060
   9.4004510  86.0951400 142.8427020   8.9012340  87.2692310 143.6576670
   4.7338850  77.4623110 113.9317110   4.6532900  76.5477720 113.6608820
   4.3203270  77.9590180 113.2256820   2.8656890  79.2402130 115.8126380
   2.0898990  78.7602570 116.1024950   3.5169820  78.5607780 115.6382540
   6.8864320  83.6462320 114.5925510   6.4245850  82.8749560 114.9212680
   7.6989870  83.6728390 115.0977960   3.1127630  85.9320330 114.2129500
   2.4939070  86.3877830 113.6423940   3.9679410  86.0871790 113.8119200
   2.3065880  81.9159320 115.8196540   2.2374160  80.9749260 115.6585670
   3.0685740  82.0060730 116.3919110   3.3371050  74.7229700 116.0465470
   3.7135870  73.8501580 115.9339140   3.2390560  75.0588400 115.1555910
   7.1195170  72.2180140 112.9793810   7.9404790  71.7276710 113.0219290
   7.1529250  72.8077800 113.7325650  11.4094720  74.2346890 119.5437440
  10.7046890  74.6228600 119.0252550  11.6752640  74.9297180 120.1458370
   3.9790980  80.8159570 111.6061410   3.3608250  81.2809020 111.0424130
   4.4914230  81.5087050 112.0230920   7.3556650  74.1580520 115.7521350
   6.6512220  74.4465410 116.3324460   7.7168810  74.9680630 115.3920910
   8.9719430  83.7755650 118.0148830   8.2882950  84.4454760 118.0065500
   9.5113720  83.9736300 117.2493690  10.4243570  73.6035310 116.1430560
   9.4768480  73.6374290 116.2745990  10.7493560  74.4174260 116.5279920
   6.5078170  85.6199780 116.7294010   6.5205330  85.2162070 115.8616270
   5.9553390  86.3947070 116.6255440   7.8023590  82.3416000 111.8184180
   7.6919920  81.3990330 111.9433600   7.7991840  82.7031640 112.7046940
   5.9063610  80.5229620 118.0576620   6.3232400  80.3089730 117.2230080
   6.6303430  80.7802410 118.6285240   3.3443870  77.9681320 111.1746670
   2.4173150  77.9018700 111.4035140   3.4968690  78.9061450 111.0601910
   3.3312950  74.2398320 108.1713830   2.3916620  74.4012280 108.2566290
   3.6496210  74.9584000 107.6249820   9.8525710  78.9216840 118.1492860
   9.0244340  78.9909930 117.6742990  10.4476190  79.5071150 117.6808690
   7.3741160  79.5301620 111.6781920   6.7553580  79.1921170 111.0308220
   7.3565610  78.8861380 112.3861110   6.8167720  75.7086160 119.0947730
   6.4038900  76.5339870 119.3487720   6.0843670  75.1231200 118.9024090
   7.5067820  85.7545490 119.7828710   7.0298380  86.5617680 119.5901320
   6.8229610  85.1023820 119.9354920   5.5505860  78.7688430 108.6854670
   5.9899140  77.9310860 108.5392490   6.2634280  79.4017830 108.7718810
   3.6601240  83.7084500 112.6535910   4.0997150  84.4508830 112.2391300
   3.5988130  83.9511070 113.5774870   9.1323000  70.0231240 106.9995710
   8.8195660  70.1158070 107.8994780   9.8935470  70.6012270 106.9493140
  11.0867030  85.5157430 124.8520100  11.5626750  85.9940320 125.5309180
  11.7074190  85.4474920 124.1265600  10.4900280  82.7070280 122.0120110
  10.6163340  82.4682160 121.0937290  10.5321660  81.8754820 122.4842190
   4.3517020  86.4098280 120.5814920   4.8661690  86.3206290 121.3837350
   3.5086100  86.7557980 120.8742830   6.3271420  86.6953620 110.0098920
   6.1672560  86.4056560 110.9080750   6.1618130  85.9193750 109.4744150
   6.0297550  84.2041180 108.5696920   5.3362710  84.2018470 107.9099200
   6.7720410  83.7800500 108.1391090   5.5947480  85.8303890 112.6445410
   6.0504430  85.0493270 112.9584030   5.9340000  86.5410710 113.1886590
  10.3424290  74.7602740 122.9769850   9.7268560  75.2682410 122.4485310
  10.0220710  73.8601070 122.9195790   2.4038610  73.5994630 120.4432040
   1.9417980  73.8077650 121.2551980   2.0016720  72.7853980 120.1402710
   7.4043120  74.8203580 121.5728700   6.5536710  74.5209330 121.8937770
   7.2444910  75.0645590 120.6612520   4.4992830  76.3205330 123.6727490
   4.8246240  75.4869080 123.3329720   5.2873160  76.8433850 123.8205820
   5.1380780  75.8623050 111.1668620   4.5389670  76.5858850 110.9832240
   5.6860390  75.7999830 110.3845070   3.7445650  74.4986590 113.1971900
   4.1375220  74.8158790 112.3840590   4.1062500  73.6198470 113.3116420
   2.0537820  73.2493900 124.4568760   1.3636140  73.0566100 125.0914850
   2.7970120  73.5328540 124.9893060   4.3300790  77.0892340 117.2922680
   3.5981910  77.5979150 117.6412780   3.9325130  76.2722320 116.9911460
   4.7926700  72.5426020 116.7045620   4.8099440  72.9934670 117.5487470
   4.5442280  71.6431660 116.9179060   8.2197450  69.9558200 122.5432000
   8.5443220  69.2247860 123.0689980   8.2553960  69.6371840 121.6412990
   8.1455290  80.0683310 116.1518030   8.8654410  80.5638600 115.7614140
   7.9437110  79.3901200 115.5071900   3.6065230  71.4621270 110.2947420
   2.7929840  70.9634440 110.2192730   3.4127180  72.3019520 109.8783770
   3.5274090  80.1392370 122.0387030   3.4611400  79.2188040 121.7844620
   2.8979230  80.2367810 122.7531670   6.3213620  75.8340920 108.5909580
   7.2093240  76.1458150 108.4160920   6.2918710  74.9613170 108.1990160
   2.3174210  82.0064610 109.2697750   2.6589910  82.7506840 108.7741070
   1.4886920  82.3195730 109.6322580   3.4590820  82.9612940 121.7890830
   3.4735360  82.0293900 121.5709740   2.7515920  83.0472700 122.4280600
   8.5927890  77.1452760 108.0589440   8.5091610  77.5766980 107.2085880
   9.3122080  77.6051110 108.4916260   9.6702030  79.6020280 121.1359410
   8.9450220  80.1949060 120.9388800  10.1977490  79.5943820 120.3372780
   9.6215140  83.9995020 110.7871570   8.9791300  83.3450640 111.0615290
   9.2345800  84.4050110 110.0112240   5.2001620  81.3280450 114.6343260
   5.5525440  80.7308580 113.9744630   4.3163950  81.0024680 114.8051510
   2.8924720  84.6030510 118.8831330   3.5366940  84.8089890 119.5604750
   3.2554160  83.8418910 118.4302180   4.1656800  82.6062860 117.6008780
   4.8079030  81.9056020 117.7140950   4.6906150  83.3861300 117.4205670
   8.0112520  82.8911480 107.3247920   7.7850100  82.1741920 107.9172560
   7.6208720  82.6423920 106.4869670   5.9394420  83.4057760 120.8044840
   6.2750660  83.9924450 121.4822760   5.0194760  83.2750470 121.0342630
   7.5928770  80.8083420 108.9862080   7.3050470  81.2696110 109.7739960
   8.3880940  80.3481190 109.2546300   1.7683000  83.4549090 123.9732900
   1.4479870  82.7358330 124.5178590   1.0941360  84.1304160 124.0468960
   4.9836600  73.6875250 119.3369700   5.3517420  72.8670460 119.6649270
   4.1234800  73.7477140 119.7525350   8.3498630  72.6432190 110.1457260
   7.7211790  72.7477860 109.4315490   7.8550550  72.8628970 110.9351140
   2.7956770  84.3637780 107.5791240   2.8968750  84.1601770 106.6493220
   1.8958510  84.1096060 107.7839020   1.9438590  76.3414840 119.5607670
   2.4423840  76.8160660 120.2259520   2.0861540  75.4178360 119.7677700
   4.3498090  71.6468800 113.0010930   4.2265870  71.6654930 112.0520440
   5.2982650  71.6947740 113.1209330   9.1505450  72.5582800 120.4036060
   8.6479050  73.2988200 120.7429870   9.9662110  72.9466800 120.0872850
   7.4427460  77.8015980 113.8497420   6.5017600  77.8166210 114.0245110
   7.7571530  77.0151940 114.2957720   9.4453040  84.9724830 115.5251680
   9.5700460  85.7956000 115.9975490  10.3118600  84.7615560 115.1775830
   4.7593480  82.3581980 124.3329800   4.1531640  82.3813580 123.5925550
   4.4547590  81.6265020 124.8697050   6.1893850  86.0862270 122.9439210
   7.1415600  86.0020290 122.8939450   6.0422070  86.7503980 123.6173000
   9.0803050  85.4656480 108.4431120   8.7944560  85.0521620 107.6285300
   8.8822600  86.3944190 108.3231640   3.7853010  80.5209790 107.4878720
   3.2363110  80.9679090 108.1321460   4.4072270  80.0159040 108.0116390
   7.8387950  81.8751890 123.4200980   8.5797420  82.2127650 122.9168440
   7.0760630  82.0443950 122.8670750   1.9655770  78.5038320 106.6321120
   2.4861430  77.7887340 106.2662270   2.6124170  79.1424190 106.9321630
   6.5133610  79.9266720 121.9556190   6.9274630  80.0811800 122.8046610
   5.5784610  80.0521940 122.1181970   6.9855780  77.2662880 123.9595340
   7.5676550  76.5115200 123.8715820   7.1617550  77.7970320 123.1826820
   3.6112740  77.6103380 121.3089960   3.7308950  77.0144520 122.0484800
   4.4706740  77.6473070 120.8891260   5.9500640  78.1640570 119.8852470
   5.4235860  78.6883190 119.2817610   6.2931980  78.7967960 120.5162200
   5.1974940  73.7690540 122.7998800   4.5090460  73.1072080 122.7348790
   5.9180960  73.3228810 123.2447260   5.8275340  70.3642170 108.8589060
   6.1077630  69.5210070 109.2148480   5.0541070  70.5965280 109.3727810
   1.9818470  87.4191420 121.2996500   1.9077170  88.3226560 121.6068870
   1.0797310  87.1003320 121.2718570   2.5303800  86.5849930 108.9222860
   3.4254590  86.9234900 108.9441620   2.5621430  85.8629340 108.2947140
   9.5098150  85.1153600 121.6289060   8.9100140  85.1746160 120.8852980
   9.6392050  84.1758580 121.7585910  10.7499600  82.8571420 106.9658770
   9.9192560  82.9248070 107.4366000  10.9271430  83.7475540 106.6625630
  10.2056060  79.6018900 109.4692970  10.9674970  80.1715550 109.5752660
  10.2210430  79.0346100 110.2401280  11.2116030  80.4569000 114.3134900
  11.5824860  79.6736320 113.9070870  11.8517960  81.1458100 114.1352200
   8.1949790  81.8405580 119.7265220   7.3809630  82.2702740 119.9891010
   8.6023990  82.4523990 119.1134270  10.2575230  79.8953270 106.6265490
  10.5324070  80.8032150 106.4984710  10.0685970  79.8315800 107.5627480
   6.6550840  72.9198120 107.9219120   7.0735720  72.7329100 107.0815780
   6.3486900  72.0677170 108.2322050  10.1540570  77.8322260 111.6194920
   9.7784170  77.0650190 111.1876210   9.4243690  78.2144960 112.1069850
   9.5440190  76.9793780 121.2534440   9.3126280  76.7506530 120.3532390
   9.8044740  77.8993330 121.2079330   7.9828260  72.2050210 124.0314140
   8.8598440  72.2133610 124.4148140   7.9949100  71.4681050 123.4206490
   9.4291530  76.0579750 114.9202160   9.9529010  75.5642400 114.2892330
  10.0150950  76.1930110 115.6649730   9.6081250  76.1419620 118.4421710
   8.6583960  76.1083160 118.5566700   9.7894260  77.0519730 118.2071480
   8.9191500  75.3153100 110.8594570   9.4150620  75.0823970 111.6443450
   8.7207570  74.4764940 110.4432210  10.3478660  73.9514050 113.3932250
  10.2377940  73.7970090 114.3314520  11.1086250  73.4234990 113.1507660
   8.6944380  69.8908180 119.8515250   9.3316600  70.5042320 120.2174440
   8.8419270  69.9268840 118.9064480  11.2368930  71.7821970 106.6338390
  12.1618240  71.6503150 106.4256680  11.2144720  71.8614790 107.5874840
  11.3107420  72.5532630 109.2595100  10.5158920  72.4877750 109.7888010
  11.5150700  73.4883270 109.2480450   8.2525840  86.5924180 113.2533490
   8.8484910  86.2708750 112.5767910   8.5103990  86.1196000 114.0446760
   2.0648860  71.0434370 122.7590350   2.0037750  71.6356200 123.5085760
   3.0049240  70.9360330 122.6140610   4.7023420  70.7004430 122.3982640
   5.3163830  71.0183720 121.7363720   5.2472980  70.2153020 123.0178500
  11.1198600  86.5996060 119.8044480  10.6256880  86.9964930 119.0871610
  10.5111890  85.9745270 120.1981760   5.4431460  69.2636570 118.7251930
   4.5691300  69.5971680 118.5224860   5.3342210  68.7909750 119.5503800
   6.3503440  71.4707440 120.1093650   6.0216800  70.6559200 119.7295380
   7.2985740  71.4277250 119.9859340   8.8038050  87.2419480 117.0831220
   8.3441020  87.9935290 116.7089240   8.1750510  86.5225950 117.0246020
   1.9729270  86.4416210 117.0848330   2.2607080  86.1870510 116.2081340
   2.4852490  85.8893570 117.6753900   3.1906280  70.1806410 117.6644840
   2.4078070  70.6551910 117.9441600   2.8969210  69.2761240 117.5558020
   7.7427350  70.8829510 115.7093930   8.1835440  70.8274610 114.8615530
   7.4734940  71.7987520 115.7804110   9.6065920  70.5144750 113.7202750
   9.5454320  69.5705970 113.5733770  10.3857950  70.6224840 114.2656210
   5.5785480  69.2635610 114.4143940   6.1814850  69.8355820 114.8892460
   4.8378470  69.8275050 114.1917840   8.7220080  69.6657170 109.6884220
   8.9170710  70.5640620 109.9551650   7.9349950  69.4344250 110.1817170
   2.0401630  87.3632310 124.4516530   2.9668940  87.1276580 124.4952490
   2.0252060  88.1904310 123.9702560  10.2746690  86.9057880 111.4490780
  10.4498880  86.2195620 110.8051700   9.5768260  87.4304930 111.0567450
   5.8280700  69.4430640 124.7938880   5.7146150  69.7625250 125.6890400
   6.6450440  69.8443150 124.4976160   8.6079190  86.5902170 124.2757570
   9.4004510  86.0951400 124.0683530   8.9012340  87.2692310 124.8833180
   4.7338850  77.4623110  95.1573620   4.6532900  76.5477720  94.8865330
   4.3203270  77.9590180  94.4513330   2.8656890  79.2402130  97.0382890
   2.0898990  78.7602570  97.3281460   3.5169820  78.5607780  96.8639050
   6.8864320  83.6462320  95.8182020   6.4245850  82.8749560  96.1469190
   7.6989870  83.6728390  96.3234470   3.1127630  85.9320330  95.4386010
   2.4939070  86.3877830  94.8680450   3.9679410  86.0871790  95.0375710
   2.3065880  81.9159320  97.0453050   2.2374160  80.9749260  96.8842180
   3.0685740  82.0060730  97.6175620   3.3371050  74.7229700  97.2721980
   3.7135870  73.8501580  97.1595650   3.2390560  75.0588400  96.3812420
   7.1195170  72.2180140  94.2050320   7.9404790  71.7276710  94.2475800
   7.1529250  72.8077800  94.9582160  11.4094720  74.2346890 100.7693950
  10.7046890  74.6228600 100.2509060  11.6752640  74.9297180 101.3714880
   3.9790980  80.8159570  92.8317920   3.3608250  81.2809020  92.2680640
   4.4914230  81.5087050  93.2487430   7.3556650  74.1580520  96.9777860
   6.6512220  74.4465410  97.5580970   7.7168810  74.9680630  96.6177420
   8.9719430  83.7755650  99.2405340   8.2882950  84.4454760  99.2322010
   9.5113720  83.9736300  98.4750200  10.4243570  73.6035310  97.3687070
   9.4768480  73.6374290  97.5002500  10.7493560  74.4174260  97.7536430
   6.5078170  85.6199780  97.9550520   6.5205330  85.2162070  97.0872780
   5.9553390  86.3947070  97.8511950   7.8023590  82.3416000  93.0440690
   7.6919920  81.3990330  93.1690110   7.7991840  82.7031640  93.9303450
   5.9063610  80.5229620  99.2833130   6.3232400  80.3089730  98.4486590
   6.6303430  80.7802410  99.8541750   3.3443870  77.9681320  92.4003180
   2.4173150  77.9018700  92.6291650   3.4968690  78.9061450  92.2858420
   3.3312950  74.2398320  89.3970340   2.3916620  74.4012280  89.4822800
   3.6496210  74.9584000  88.8506330   9.8525710  78.9216840  99.3749370
   9.0244340  78.9909930  98.8999500  10.4476190  79.5071150  98.9065200
   7.3741160  79.5301620  92.9038430   6.7553580  79.1921170  92.2564730
   7.3565610  78.8861380  93.6117620   6.8167720  75.7086160 100.3204240
   6.4038900  76.5339870 100.5744230   6.0843670  75.1231200 100.1280600
   7.5067820  85.7545490 101.0085220   7.0298380  86.5617680 100.8157830
   6.8229610  85.1023820 101.1611430   5.5505860  78.7688430  89.9111180
   5.9899140  77.9310860  89.7649000   6.2634280  79.4017830  89.9975320
   3.6601240  83.7084500  93.8792420   4.0997150  84.4508830  93.4647810
   3.5988130  83.9511070  94.8031380   9.1323000  70.0231240  88.2252220
   8.8195660  70.1158070  89.1251290   9.8935470  70.6012270  88.1749650
  11.0867030  85.5157430 106.0776610  11.5626750  85.9940320 106.7565690
  11.7074190  85.4474920 105.3522110  10.4900280  82.7070280 103.2376620
  10.6163340  82.4682160 102.3193800  10.5321660  81.8754820 103.7098700
   4.3517020  86.4098280 101.8071430   4.8661690  86.3206290 102.6093860
   3.5086100  86.7557980 102.0999340   6.3271420  86.6953620  91.2355430
   6.1672560  86.4056560  92.1337260   6.1618130  85.9193750  90.7000660
   6.0297550  84.2041180  89.7953430   5.3362710  84.2018470  89.1355710
   6.7720410  83.7800500  89.3647600   5.5947480  85.8303890  93.8701920
   6.0504430  85.0493270  94.1840540   5.9340000  86.5410710  94.4143100
  10.3424290  74.7602740 104.2026360   9.7268560  75.2682410 103.6741820
  10.0220710  73.8601070 104.1452300   2.4038610  73.5994630 101.6688550
   1.9417980  73.8077650 102.4808490   2.0016720  72.7853980 101.3659220
   7.4043120  74.8203580 102.7985210   6.5536710  74.5209330 103.1194280
   7.2444910  75.0645590 101.8869030   4.4992830  76.3205330 104.8984000
   4.8246240  75.4869080 104.5586230   5.2873160  76.8433850 105.0462330
   5.1380780  75.8623050  92.3925130   4.5389670  76.5858850  92.2088750
   5.6860390  75.7999830  91.6101580   3.7445650  74.4986590  94.4228410
   4.1375220  74.8158790  93.6097100   4.1062500  73.6198470  94.5372930
   2.0537820  73.2493900 105.6825270   1.3636140  73.0566100 106.3171360
   2.7970120  73.5328540 106.2149570   4.3300790  77.0892340  98.5179190
   3.5981910  77.5979150  98.8669290   3.9325130  76.2722320  98.2167970
   4.7926700  72.5426020  97.9302130   4.8099440  72.9934670  98.7743980
   4.5442280  71.6431660  98.1435570   8.2197450  69.9558200 103.7688510
   8.5443220  69.2247860 104.2946490   8.2553960  69.6371840 102.8669500
   8.1455290  80.0683310  97.3774540   8.8654410  80.5638600  96.9870650
   7.9437110  79.3901200  96.7328410   3.6065230  71.4621270  91.5203930
   2.7929840  70.9634440  91.4449240   3.4127180  72.3019520  91.1040280
   3.5274090  80.1392370 103.2643540   3.4611400  79.2188040 103.0101130
   2.8979230  80.2367810 103.9788180   6.3213620  75.8340920  89.8166090
   7.2093240  76.1458150  89.6417430   6.2918710  74.9613170  89.4246670
   2.3174210  82.0064610  90.4954260   2.6589910  82.7506840  89.9997580
   1.4886920  82.3195730  90.8579090   3.4590820  82.9612940 103.0147340
   3.4735360  82.0293900 102.7966250   2.7515920  83.0472700 103.6537110
   8.5927890  77.1452760  89.2845950   8.5091610  77.5766980  88.4342390
   9.3122080  77.6051110  89.7172770   9.6702030  79.6020280 102.3615920
   8.9450220  80.1949060 102.1645310  10.1977490  79.5943820 101.5629290
   9.6215140  83.9995020  92.0128080   8.9791300  83.3450640  92.2871800
   9.2345800  84.4050110  91.2368750   5.2001620  81.3280450  95.8599770
   5.5525440  80.7308580  95.2001140   4.3163950  81.0024680  96.0308020
   2.8924720  84.6030510 100.1087840   3.5366940  84.8089890 100.7861260
   3.2554160  83.8418910  99.6558690   4.1656800  82.6062860  98.8265290
   4.8079030  81.9056020  98.9397460   4.6906150  83.3861300  98.6462180
   8.0112520  82.8911480  88.5504430   7.7850100  82.1741920  89.1429070
   7.6208720  82.6423920  87.7126180   5.9394420  83.4057760 102.0301350
   6.2750660  83.9924450 102.7079270   5.0194760  83.2750470 102.2599140
   7.5928770  80.8083420  90.2118590   7.3050470  81.2696110  90.9996470
   8.3880940  80.3481190  90.4802810   1.7683000  83.4549090 105.1989410
   1.4479870  82.7358330 105.7435100   1.0941360  84.1304160 105.2725470
   4.9836600  73.6875250 100.5626210   5.3517420  72.8670460 100.8905780
   4.1234800  73.7477140 100.9781860   8.3498630  72.6432190  91.3713770
   7.7211790  72.7477860  90.6572000   7.8550550  72.8628970  92.1607650
   2.7956770  84.3637780  88.8047750   2.8968750  84.1601770  87.8749730
   1.8958510  84.1096060  89.0095530   1.9438590  76.3414840 100.7864180
   2.4423840  76.8160660 101.4516030   2.0861540  75.4178360 100.9934210
   4.3498090  71.6468800  94.2267440   4.2265870  71.6654930  93.2776950
   5.2982650  71.6947740  94.3465840   9.1505450  72.5582800 101.6292570
   8.6479050  73.2988200 101.9686380   9.9662110  72.9466800 101.3129360
   7.4427460  77.8015980  95.0753930   6.5017600  77.8166210  95.2501620
   7.7571530  77.0151940  95.5214230   9.4453040  84.9724830  96.7508190
   9.5700460  85.7956000  97.2232000  10.3118600  84.7615560  96.4032340
   4.7593480  82.3581980 105.5586310   4.1531640  82.3813580 104.8182060
   4.4547590  81.6265020 106.0953560   6.1893850  86.0862270 104.1695720
   7.1415600  86.0020290 104.1195960   6.0422070  86.7503980 104.8429510
   9.0803050  85.4656480  89.6687630   8.7944560  85.0521620  88.8541810
   8.8822600  86.3944190  89.5488150   3.7853010  80.5209790  88.7135230
   3.2363110  80.9679090  89.3577970   4.4072270  80.0159040  89.2372900
   7.8387950  81.8751890 104.6457490   8.5797420  82.2127650 104.1424950
   7.0760630  82.0443950 104.0927260   1.9655770  78.5038320  87.8577630
   2.4861430  77.7887340  87.4918780   2.6124170  79.1424190  88.1578140
   6.5133610  79.9266720 103.1812700   6.9274630  80.0811800 104.0303120
   5.5784610  80.0521940 103.3438480   6.9855780  77.2662880 105.1851850
   7.5676550  76.5115200 105.0972330   7.1617550  77.7970320 104.4083330
   3.6112740  77.6103380 102.5346470   3.7308950  77.0144520 103.2741310
   4.4706740  77.6473070 102.1147770   5.9500640  78.1640570 101.1108980
   5.4235860  78.6883190 100.5074120   6.2931980  78.7967960 101.7418710
   5.1974940  73.7690540 104.0255310   4.5090460  73.1072080 103.9605300
   5.9180960  73.3228810 104.4703770   5.8275340  70.3642170  90.0845570
   6.1077630  69.5210070  90.4404990   5.0541070  70.5965280  90.5984320
   1.9818470  87.4191420 102.5253010   1.9077170  88.3226560 102.8325380
   1.0797310  87.1003320 102.4975080   2.5303800  86.5849930  90.1479370
   3.4254590  86.9234900  90.1698130   2.5621430  85.8629340  89.5203650
   9.5098150  85.1153600 102.8545570   8.9100140  85.1746160 102.1109490
   9.6392050  84.1758580 102.9842420  10.7499600  82.8571420  88.1915280
   9.9192560  82.9248070  88.6622510  10.9271430  83.7475540  87.8882140
  10.2056060  79.6018900  90.6949480  10.9674970  80.1715550  90.8009170
  10.2210430  79.0346100  91.4657790  11.2116030  80.4569000  95.5391410
  11.5824860  79.6736320  95.1327380  11.8517960  81.1458100  95.3608710
   8.1949790  81.8405580 100.9521730   7.3809630  82.2702740 101.2147520
   8.6023990  82.4523990 100.3390780  10.2575230  79.8953270  87.8522000
  10.5324070  80.8032150  87.7241220  10.0685970  79.8315800  88.7883990
   6.6550840  72.9198120  89.1475630   7.0735720  72.7329100  88.3072290
   6.3486900  72.0677170  89.4578560  10.1540570  77.8322260  92.8451430
   9.7784170  77.0650190  92.4132720   9.4243690  78.2144960  93.3326360
   9.5440190  76.9793780 102.4790950   9.3126280  76.7506530 101.5788900
   9.8044740  77.8993330 102.4335840   7.9828260  72.2050210 105.2570650
   8.8598440  72.2133610 105.6404650   7.9949100  71.4681050 104.6463000
   9.4291530  76.0579750  96.1458670   9.9529010  75.5642400  95.5148840
  10.0150950  76.1930110  96.8906240   9.6081250  76.1419620  99.6678220
   8.6583960  76.1083160  99.7823210   9.7894260  77.0519730  99.4327990
   8.9191500  75.3153100  92.0851080   9.4150620  75.0823970  92.8699960
   8.7207570  74.4764940  91.6688720  10.3478660  73.9514050  94.6188760
  10.2377940  73.7970090  95.5571030  11.1086250  73.4234990  94.3764170
   8.6944380  69.8908180 101.0771760   9.3316600  70.5042320 101.4430950
   8.8419270  69.9268840 100.1320990   8.2525840  86.5924180  94.4790000
   8.8484910  86.2708750  93.8024420   8.5103990  86.1196000  95.2703270
   2.0648860  71.0434370 103.9846860   2.0037750  71.6356200 104.7342270
   3.0049240  70.9360330 103.8397120   4.7023420  70.7004430 103.6239150
   5.3163830  71.0183720 102.9620230   5.2472980  70.2153020 104.2435010
  11.1198600  86.5996060 101.0300990  10.6256880  86.9964930 100.3128120
  10.5111890  85.9745270 101.4238270   5.4431460  69.2636570  99.9508440
   4.5691300  69.5971680  99.7481370   5.3342210  68.7909750 100.7760310
   6.3503440  71.4707440 101.3350160   6.0216800  70.6559200 100.9551890
   7.2985740  71.4277250 101.2115850   8.8038050  87.2419480  98.3087730
   8.3441020  87.9935290  97.9345750   8.1750510  86.5225950  98.2502530
   1.9729270  86.4416210  98.3104840   2.2607080  86.1870510  97.4337850
   2.4852490  85.8893570  98.9010410   3.1906280  70.1806410  98.8901350
   2.4078070  70.6551910  99.1698110   2.8969210  69.2761240  98.7814530
   7.7427350  70.8829510  96.9350440   8.1835440  70.8274610  96.0872040
   7.4734940  71.7987520  97.0060620   9.6065920  70.5144750  94.9459260
   9.5454320  69.5705970  94.7990280  10.3857950  70.6224840  95.4912720
   5.5785480  69.2635610  95.6400450   6.1814850  69.8355820  96.1148970
   4.8378470  69.8275050  95.4174350   8.7220080  69.6657170  90.9140730
   8.9170710  70.5640620  91.1808160   7.9349950  69.4344250  91.4073680
   2.0401630  87.3632310 105.6773040   2.9668940  87.1276580 105.7209000
   2.0252060  88.1904310 105.1959070  10.2746690  86.9057880  92.6747290
  10.4498880  86.2195620  92.0308210   9.5768260  87.4304930  92.2823960
   5.8280700  69.4430640 106.0195390   5.7146150  69.7625250 106.9146910
   6.6450440  69.8443150 105.7232670   8.6079190  86.5902170 105.5014080
   9.4004510  86.0951400 105.2940040   8.9012340  87.2692310 106.1089690
   4.7338850  77.4623110  76.3830130   4.6532900  76.5477720  76.1121840
   4.3203270  77.9590180  75.6769840   2.8656890  79.2402130  78.2639400
   2.0898990  78.7602570  78.5537970   3.5169820  78.5607780  78.0895560
   6.8864320  83.6462320  77.0438530   6.4245850  82.8749560  77.3725700
   7.6989870  83.6728390  77.5490980   3.1127630  85.9320330  76.6642520
   2.4939070  86.3877830  76.0936960   3.9679410  86.0871790  76.2632220
   2.3065880  81.9159320  78.2709560   2.2374160  80.9749260  78.1098690
   3.0685740  82.0060730  78.8432130   3.3371050  74.7229700  78.4978490
   3.7135870  73.8501580  78.3852160   3.2390560  75.0588400  77.6068930
   7.1195170  72.2180140  75.4306830   7.9404790  71.7276710  75.4732310
   7.1529250  72.8077800  76.1838670  11.4094720  74.2346890  81.9950460
  10.7046890  74.6228600  81.4765570  11.6752640  74.9297180  82.5971390
   3.9790980  80.8159570  74.0574430   3.3608250  81.2809020  73.4937150
   4.4914230  81.5087050  74.4743940   7.3556650  74.1580520  78.2034370
   6.6512220  74.4465410  78.7837480   7.7168810  74.9680630  77.8433930
   8.9719430  83.7755650  80.4661850   8.2882950  84.4454760  80.4578520
   9.5113720  83.9736300  79.7006710  10.4243570  73.6035310  78.5943580
   9.4768480  73.6374290  78.7259010  10.7493560  74.4174260  78.9792940
   6.5078170  85.6199780  79.1807030   6.5205330  85.2162070  78.3129290
   5.9553390  86.3947070  79.0768460   7.8023590  82.3416000  74.2697200
   7.6919920  81.3990330  74.3946620   7.7991840  82.7031640  75.1559960
   5.9063610  80.5229620  80.5089640   6.3232400  80.3089730  79.6743100
   6.6303430  80.7802410  81.0798260   3.3443870  77.9681320  73.6259690
   2.4173150  77.9018700  73.8548160   3.4968690  78.9061450  73.5114930
   3.3312950  74.2398320  70.6226850   2.3916620  74.4012280  70.7079310
   3.6496210  74.9584000  70.0762840   9.8525710  78.9216840  80.6005880
   9.0244340  78.9909930  80.1256010  10.4476190  79.5071150  80.1321710
   7.3741160  79.5301620  74.1294940   6.7553580  79.1921170  73.4821240
   7.3565610  78.8861380  74.8374130   6.8167720  75.7086160  81.5460750
   6.4038900  76.5339870  81.8000740   6.0843670  75.1231200  81.3537110
   7.5067820  85.7545490  82.2341730   7.0298380  86.5617680  82.0414340
   6.8229610  85.1023820  82.3867940   5.5505860  78.7688430  71.1367690
   5.9899140  77.9310860  70.9905510   6.2634280  79.4017830  71.2231830
   3.6601240  83.7084500  75.1048930   4.0997150  84.4508830  74.6904320
   3.5988130  83.9511070  76.0287890   9.1323000  70.0231240  69.4508730
   8.8195660  70.1158070  70.3507800   9.8935470  70.6012270  69.4006160
  11.0867030  85.5157430  87.3033120  11.5626750  85.9940320  87.9822200
  11.7074190  85.4474920  86.5778620  10.4900280  82.7070280  84.4633130
  10.6163340  82.4682160  83.5450310  10.5321660  81.8754820  84.9355210
   4.3517020  86.4098280  83.0327940   4.8661690  86.3206290  83.8350370
   3.5086100  86.7557980  83.3255850   6.3271420  86.6953620  72.4611940
   6.1672560  86.4056560  73.3593770   6.1618130  85.9193750  71.9257170
   6.0297550  84.2041180  71.0209940   5.3362710  84.2018470  70.3612220
   6.7720410  83.7800500  70.5904110   5.5947480  85.8303890  75.0958430
   6.0504430  85.0493270  75.4097050   5.9340000  86.5410710  75.6399610
  10.3424290  74.7602740  85.4282870   9.7268560  75.2682410  84.8998330
  10.0220710  73.8601070  85.3708810   2.4038610  73.5994630  82.8945060
   1.9417980  73.8077650  83.7065000   2.0016720  72.7853980  82.5915730
   7.4043120  74.8203580  84.0241720   6.5536710  74.5209330  84.3450790
   7.2444910  75.0645590  83.1125540   4.4992830  76.3205330  86.1240510
   4.8246240  75.4869080  85.7842740   5.2873160  76.8433850  86.2718840
   5.1380780  75.8623050  73.6181640   4.5389670  76.5858850  73.4345260
   5.6860390  75.7999830  72.8358090   3.7445650  74.4986590  75.6484920
   4.1375220  74.8158790  74.8353610   4.1062500  73.6198470  75.7629440
   2.0537820  73.2493900  86.9081780   1.3636140  73.0566100  87.5427870
   2.7970120  73.5328540  87.4406080   4.3300790  77.0892340  79.7435700
   3.5981910  77.5979150  80.0925800   3.9325130  76.2722320  79.4424480
   4.7926700  72.5426020  79.1558640   4.8099440  72.9934670  80.0000490
   4.5442280  71.6431660  79.3692080   8.2197450  69.9558200  84.9945020
   8.5443220  69.2247860  85.5203000   8.2553960  69.6371840  84.0926010
   8.1455290  80.0683310  78.6031050   8.8654410  80.5638600  78.2127160
   7.9437110  79.3901200  77.9584920   3.6065230  71.4621270  72.7460440
   2.7929840  70.9634440  72.6705750   3.4127180  72.3019520  72.3296790
   3.5274090  80.1392370  84.4900050   3.4611400  79.2188040  84.2357640
   2.8979230  80.2367810  85.2044690   6.3213620  75.8340920  71.0422600
   7.2093240  76.1458150  70.8673940   6.2918710  74.9613170  70.6503180
   2.3174210  82.0064610  71.7210770   2.6589910  82.7506840  71.2254090
   1.4886920  82.3195730  72.0835600   3.4590820  82.9612940  84.2403850
   3.4735360  82.0293900  84.0222760   2.7515920  83.0472700  84.8793620
   8.5927890  77.1452760  70.5102460   8.5091610  77.5766980  69.6598900
   9.3122080  77.6051110  70.9429280   9.6702030  79.6020280  83.5872430
   8.9450220  80.1949060  83.3901820  10.1977490  79.5943820  82.7885800
   9.6215140  83.9995020  73.2384590   8.9791300  83.3450640  73.5128310
   9.2345800  84.4050110  72.4625260   5.2001620  81.3280450  77.0856280
   5.5525440  80.7308580  76.4257650   4.3163950  81.0024680  77.2564530
   2.8924720  84.6030510  81.3344350   3.5366940  84.8089890  82.0117770
   3.2554160  83.8418910  80.8815200   4.1656800  82.6062860  80.0521800
   4.8079030  81.9056020  80.1653970   4.6906150  83.3861300  79.8718690
   8.0112520  82.8911480  69.7760940   7.7850100  82.1741920  70.3685580
   7.6208720  82.6423920  68.9382690   5.9394420  83.4057760  83.2557860
   6.2750660  83.9924450  83.9335780   5.0194760  83.2750470  83.4855650
   7.5928770  80.8083420  71.4375100   7.3050470  81.2696110  72.2252980
   8.3880940  80.3481190  71.7059320   1.7683000  83.4549090  86.4245920
   1.4479870  82.7358330  86.9691610   1.0941360  84.1304160  86.4981980
   4.9836600  73.6875250  81.7882720   5.3517420  72.8670460  82.1162290
   4.1234800  73.7477140  82.2038370   8.3498630  72.6432190  72.5970280
   7.7211790  72.7477860  71.8828510   7.8550550  72.8628970  73.3864160
   2.7956770  84.3637780  70.0304260   2.8968750  84.1601770  69.1006240
   1.8958510  84.1096060  70.2352040   1.9438590  76.3414840  82.0120690
   2.4423840  76.8160660  82.6772540   2.0861540  75.4178360  82.2190720
   4.3498090  71.6468800  75.4523950   4.2265870  71.6654930  74.5033460
   5.2982650  71.6947740  75.5722350   9.1505450  72.5582800  82.8549080
   8.6479050  73.2988200  83.1942890   9.9662110  72.9466800  82.5385870
   7.4427460  77.8015980  76.3010440   6.5017600  77.8166210  76.4758130
   7.7571530  77.0151940  76.7470740   9.4453040  84.9724830  77.9764700
   9.5700460  85.7956000  78.4488510  10.3118600  84.7615560  77.6288850
   4.7593480  82.3581980  86.7842820   4.1531640  82.3813580  86.0438570
   4.4547590  81.6265020  87.3210070   6.1893850  86.0862270  85.3952230
   7.1415600  86.0020290  85.3452470   6.0422070  86.7503980  86.0686020
   9.0803050  85.4656480  70.8944140   8.7944560  85.0521620  70.0798320
   8.8822600  86.3944190  70.7744660   3.7853010  80.5209790  69.9391740
   3.2363110  80.9679090  70.5834480   4.4072270  80.0159040  70.4629410
   7.8387950  81.8751890  85.8714000   8.5797420  82.2127650  85.3681460
   7.0760630  82.0443950  85.3183770   1.9655770  78.5038320  69.0834140
   2.4861430  77.7887340  68.7175290   2.6124170  79.1424190  69.3834650
   6.5133610  79.9266720  84.4069210   6.9274630  80.0811800  85.2559630
   5.5784610  80.0521940  84.5694990   6.9855780  77.2662880  86.4108360
   7.5676550  76.5115200  86.3228840   7.1617550  77.7970320  85.6339840
   3.6112740  77.6103380  83.7602980   3.7308950  77.0144520  84.4997820
   4.4706740  77.6473070  83.3404280   5.9500640  78.1640570  82.3365490
   5.4235860  78.6883190  81.7330630   6.2931980  78.7967960  82.9675220
   5.1974940  73.7690540  85.2511820   4.5090460  73.1072080  85.1861810
   5.9180960  73.3228810  85.6960280   5.8275340  70.3642170  71.3102080
   6.1077630  69.5210070  71.6661500   5.0541070  70.5965280  71.8240830
   1.9818470  87.4191420  83.7509520   1.9077170  88.3226560  84.0581890
   1.0797310  87.1003320  83.7231590   2.5303800  86.5849930  71.3735880
   3.4254590  86.9234900  71.3954640   2.5621430  85.8629340  70.7460160
   9.5098150  85.1153600  84.0802080   8.9100140  85.1746160  83.3366000
   9.6392050  84.1758580  84.2098930  10.2056060  79.6018900  71.9205990
  10.9674970  80.1715550  72.0265680  10.2210430  79.0346100  72.6914300
  11.2116030  80.4569000  76.7647920  11.5824860  79.6736320  76.3583890
  11.8517960  81.1458100  76.5865220   8.1949790  81.8405580  82.1778240
   7.3809630  82.2702740  82.4404030   8.6023990  82.4523990  81.5647290
   6.6550840  72.9198120  70.3732140   7.0735720  72.7329100  69.5328800
   6.3486900  72.0677170  70.6835070  10.1540570  77.8322260  74.0707940
   9.7784170  77.0650190  73.6389230   9.4243690  78.2144960  74.5582870
   9.5440190  76.9793780  83.7047460   9.3126280  76.7506530  82.8045410
   9.8044740  77.8993330  83.6592350   7.9828260  72.2050210  86.4827160
   8.8598440  72.2133610  86.8661160   7.9949100  71.4681050  85.8719510
   9.4291530  76.0579750  77.3715180   9.9529010  75.5642400  76.7405350
  10.0150950  76.1930110  78.1162750   9.6081250  76.1419620  80.8934730
   8.6583960  76.1083160  81.0079720   9.7894260  77.0519730  80.6584500
   8.9191500  75.3153100  73.3107590   9.4150620  75.0823970  74.0956470
   8.7207570  74.4764940  72.8945230  10.3478660  73.9514050  75.8445270
  10.2377940  73.7970090  76.7827540  11.1086250  73.4234990  75.6020680
   8.6944380  69.8908180  82.3028270   9.3316600  70.5042320  82.6687460
   8.8419270  69.9268840  81.3577500  11.2368930  71.7821970  69.0851410
  12.1618240  71.6503150  68.8769700  11.2144720  71.8614790  70.0387860
  11.3107420  72.5532630  71.7108120  10.5158920  72.4877750  72.2401030
  11.5150700  73.4883270  71.6993470   8.2525840  86.5924180  75.7046510
   8.8484910  86.2708750  75.0280930   8.5103990  86.1196000  76.4959780
   2.0648860  71.0434370  85.2103370   2.0037750  71.6356200  85.9598780
   3.0049240  70.9360330  85.0653630   4.7023420  70.7004430  84.8495660
   5.3163830  71.0183720  84.1876740   5.2472980  70.2153020  85.4691520
  11.1198600  86.5996060  82.2557500  10.6256880  86.9964930  81.5384630
  10.5111890  85.9745270  82.6494780   5.4431460  69.2636570  81.1764950
   4.5691300  69.5971680  80.9737880   5.3342210  68.7909750  82.0016820
   6.3503440  71.4707440  82.5606670   6.0216800  70.6559200  82.1808400
   7.2985740  71.4277250  82.4372360   8.8038050  87.2419480  79.5344240
   8.3441020  87.9935290  79.1602260   8.1750510  86.5225950  79.4759040
   1.9729270  86.4416210  79.5361350   2.2607080  86.1870510  78.6594360
   2.4852490  85.8893570  80.1266920   3.1906280  70.1806410  80.1157860
   2.4078070  70.6551910  80.3954620   2.8969210  69.2761240  80.0071040
   7.7427350  70.8829510  78.1606950   8.1835440  70.8274610  77.3128550
   7.4734940  71.7987520  78.2317130   9.6065920  70.5144750  76.1715770
   9.5454320  69.5705970  76.0246790  10.3857950  70.6224840  76.7169230
   5.5785480  69.2635610  76.8656960   6.1814850  69.8355820  77.3405480
   4.8378470  69.8275050  76.6430860   8.7220080  69.6657170  72.1397240
   8.9170710  70.5640620  72.4064670   7.9349950  69.4344250  72.6330190
   2.0401630  87.3632310  86.9029550   2.9668940  87.1276580  86.9465510
   2.0252060  88.1904310  86.4215580  10.2746690  86.9057880  73.9003800
  10.4498880  86.2195620  73.2564720   9.5768260  87.4304930  73.5080470
   5.8280700  69.4430640  87.2451900   5.7146150  69.7625250  88.1403420
   6.6450440  69.8443150  86.9489180   8.6079190  86.5902170  86.7270590
   9.4004510  86.0951400  86.5196550   8.9012340  87.2692310  87.3346200
   4.7338850  77.4623110  57.6086640   4.6532900  76.5477720  57.3378350
   4.3203270  77.9590180  56.9026350   2.8656890  79.2402130  59.4895910
   2.0898990  78.7602570  59.7794480   3.5169820  78.5607780  59.3152070
   6.8864320  83.6462320  58.2695040   6.4245850  82.8749560  58.5982210
   7.6989870  83.6728390  58.7747490   3.1127630  85.9320330  57.8899030
   2.4939070  86.3877830  57.3193470   3.9679410  86.0871790  57.4888730
   2.3065880  81.9159320  59.4966070   2.2374160  80.9749260  59.3355200
   3.0685740  82.0060730  60.0688640   3.3371050  74.7229700  59.7235000
   3.7135870  73.8501580  59.6108670   3.2390560  75.0588400  58.8325440
   7.1195170  72.2180140  56.6563340   7.9404790  71.7276710  56.6988820
   7.1529250  72.8077800  57.4095180  11.4094720  74.2346890  63.2206970
  10.7046890  74.6228600  62.7022080  11.6752640  74.9297180  63.8227900
   3.9790980  80.8159570  55.2830940   3.3608250  81.2809020  54.7193660
   4.4914230  81.5087050  55.7000450   7.3556650  74.1580520  59.4290880
   6.6512220  74.4465410  60.0093990   7.7168810  74.9680630  59.0690440
   8.9719430  83.7755650  61.6918360   8.2882950  84.4454760  61.6835030
   9.5113720  83.9736300  60.9263220  10.4243570  73.6035310  59.8200090
   9.4768480  73.6374290  59.9515520  10.7493560  74.4174260  60.2049450
   6.5078170  85.6199780  60.4063540   6.5205330  85.2162070  59.5385800
   5.9553390  86.3947070  60.3024970   7.8023590  82.3416000  55.4953710
   7.6919920  81.3990330  55.6203130   7.7991840  82.7031640  56.3816470
   5.9063610  80.5229620  61.7346150   6.3232400  80.3089730  60.8999610
   6.6303430  80.7802410  62.3054770   3.3443870  77.9681320  54.8516200
   2.4173150  77.9018700  55.0804670   3.4968690  78.9061450  54.7371440
   3.3312950  74.2398320  51.8483360   2.3916620  74.4012280  51.9335820
   3.6496210  74.9584000  51.3019350   9.8525710  78.9216840  61.8262390
   9.0244340  78.9909930  61.3512520  10.4476190  79.5071150  61.3578220
   7.3741160  79.5301620  55.3551450   6.7553580  79.1921170  54.7077750
   7.3565610  78.8861380  56.0630640   6.8167720  75.7086160  62.7717260
   6.4038900  76.5339870  63.0257250   6.0843670  75.1231200  62.5793620
   7.5067820  85.7545490  63.4598240   7.0298380  86.5617680  63.2670850
   6.8229610  85.1023820  63.6124450   5.5505860  78.7688430  52.3624200
   5.9899140  77.9310860  52.2162020   6.2634280  79.4017830  52.4488340
   3.6601240  83.7084500  56.3305440   4.0997150  84.4508830  55.9160830
   3.5988130  83.9511070  57.2544400   9.1323000  70.0231240  50.6765240
   8.8195660  70.1158070  51.5764310   9.8935470  70.6012270  50.6262670
  11.0867030  85.5157430  68.5289630  11.5626750  85.9940320  69.2078710
  11.7074190  85.4474920  67.8035130  10.4900280  82.7070280  65.6889640
  10.6163340  82.4682160  64.7706820  10.5321660  81.8754820  66.1611720
   4.3517020  86.4098280  64.2584450   4.8661690  86.3206290  65.0606880
   3.5086100  86.7557980  64.5512360   6.3271420  86.6953620  53.6868450
   6.1672560  86.4056560  54.5850280   6.1618130  85.9193750  53.1513680
   6.0297550  84.2041180  52.2466450   5.3362710  84.2018470  51.5868730
   6.7720410  83.7800500  51.8160620   5.5947480  85.8303890  56.3214940
   6.0504430  85.0493270  56.6353560   5.9340000  86.5410710  56.8656120
  10.3424290  74.7602740  66.6539380   9.7268560  75.2682410  66.1254840
  10.0220710  73.8601070  66.5965320   2.4038610  73.5994630  64.1201570
   1.9417980  73.8077650  64.9321510   2.0016720  72.7853980  63.8172240
   7.4043120  74.8203580  65.2498230   6.5536710  74.5209330  65.5707300
   7.2444910  75.0645590  64.3382050   4.4992830  76.3205330  67.3497020
   4.8246240  75.4869080  67.0099250   5.2873160  76.8433850  67.4975350
   5.1380780  75.8623050  54.8438150   4.5389670  76.5858850  54.6601770
   5.6860390  75.7999830  54.0614600   3.7445650  74.4986590  56.8741430
   4.1375220  74.8158790  56.0610120   4.1062500  73.6198470  56.9885950
   2.0537820  73.2493900  68.1338290   1.3636140  73.0566100  68.7684380
   2.7970120  73.5328540  68.6662590   4.3300790  77.0892340  60.9692210
   3.5981910  77.5979150  61.3182310   3.9325130  76.2722320  60.6680990
   4.7926700  72.5426020  60.3815150   4.8099440  72.9934670  61.2257000
   4.5442280  71.6431660  60.5948590   8.2197450  69.9558200  66.2201530
   8.5443220  69.2247860  66.7459510   8.2553960  69.6371840  65.3182520
   8.1455290  80.0683310  59.8287560   8.8654410  80.5638600  59.4383670
   7.9437110  79.3901200  59.1841430   3.6065230  71.4621270  53.9716950
   2.7929840  70.9634440  53.8962260   3.4127180  72.3019520  53.5553300
   3.5274090  80.1392370  65.7156560   3.4611400  79.2188040  65.4614150
   2.8979230  80.2367810  66.4301200   6.3213620  75.8340920  52.2679110
   7.2093240  76.1458150  52.0930450   6.2918710  74.9613170  51.8759690
   2.3174210  82.0064610  52.9467280   2.6589910  82.7506840  52.4510600
   1.4886920  82.3195730  53.3092110   3.4590820  82.9612940  65.4660360
   3.4735360  82.0293900  65.2479270   2.7515920  83.0472700  66.1050130
   8.5927890  77.1452760  51.7358970   8.5091610  77.5766980  50.8855410
   9.3122080  77.6051110  52.1685790   9.6702030  79.6020280  64.8128940
   8.9450220  80.1949060  64.6158330  10.1977490  79.5943820  64.0142310
   9.6215140  83.9995020  54.4641100   8.9791300  83.3450640  54.7384820
   9.2345800  84.4050110  53.6881770   5.2001620  81.3280450  58.3112790
   5.5525440  80.7308580  57.6514160   4.3163950  81.0024680  58.4821040
   2.8924720  84.6030510  62.5600860   3.5366940  84.8089890  63.2374280
   3.2554160  83.8418910  62.1071710   4.1656800  82.6062860  61.2778310
   4.8079030  81.9056020  61.3910480   4.6906150  83.3861300  61.0975200
   8.0112520  82.8911480  51.0017450   7.7850100  82.1741920  51.5942090
   7.6208720  82.6423920  50.1639200   5.9394420  83.4057760  64.4814370
   6.2750660  83.9924450  65.1592290   5.0194760  83.2750470  64.7112160
   7.5928770  80.8083420  52.6631610   7.3050470  81.2696110  53.4509490
   8.3880940  80.3481190  52.9315830   1.7683000  83.4549090  67.6502430
   1.4479870  82.7358330  68.1948120   1.0941360  84.1304160  67.7238490
   4.9836600  73.6875250  63.0139230   5.3517420  72.8670460  63.3418800
   4.1234800  73.7477140  63.4294880   8.3498630  72.6432190  53.8226790
   7.7211790  72.7477860  53.1085020   7.8550550  72.8628970  54.6120670
   2.7956770  84.3637780  51.2560770   2.8968750  84.1601770  50.3262750
   1.8958510  84.1096060  51.4608550   1.9438590  76.3414840  63.2377200
   2.4423840  76.8160660  63.9029050   2.0861540  75.4178360  63.4447230
   4.3498090  71.6468800  56.6780460   4.2265870  71.6654930  55.7289970
   5.2982650  71.6947740  56.7978860   9.1505450  72.5582800  64.0805590
   8.6479050  73.2988200  64.4199400   9.9662110  72.9466800  63.7642380
   7.4427460  77.8015980  57.5266950   6.5017600  77.8166210  57.7014640
   7.7571530  77.0151940  57.9727250   9.4453040  84.9724830  59.2021210
   9.5700460  85.7956000  59.6745020  10.3118600  84.7615560  58.8545360
   4.7593480  82.3581980  68.0099330   4.1531640  82.3813580  67.2695080
   4.4547590  81.6265020  68.5466580   6.1893850  86.0862270  66.6208740
   7.1415600  86.0020290  66.5708980   6.0422070  86.7503980  67.2942530
   9.0803050  85.4656480  52.1200650   8.7944560  85.0521620  51.3054830
   8.8822600  86.3944190  52.0001170   3.7853010  80.5209790  51.1648250
   3.2363110  80.9679090  51.8090990   4.4072270  80.0159040  51.6885920
   7.8387950  81.8751890  67.0970510   8.5797420  82.2127650  66.5937970
   7.0760630  82.0443950  66.5440280   1.9655770  78.5038320  50.3090650
   2.4861430  77.7887340  49.9431800   2.6124170  79.1424190  50.6091160
   6.5133610  79.9266720  65.6325720   6.9274630  80.0811800  66.4816140
   5.5784610  80.0521940  65.7951500   6.9855780  77.2662880  67.6364870
   7.5676550  76.5115200  67.5485350   7.1617550  77.7970320  66.8596350
   3.6112740  77.6103380  64.9859490   3.7308950  77.0144520  65.7254330
   4.4706740  77.6473070  64.5660790   5.9500640  78.1640570  63.5622000
   5.4235860  78.6883190  62.9587140   6.2931980  78.7967960  64.1931730
   5.1974940  73.7690540  66.4768330   4.5090460  73.1072080  66.4118320
   5.9180960  73.3228810  66.9216790   5.8275340  70.3642170  52.5358590
   6.1077630  69.5210070  52.8918010   5.0541070  70.5965280  53.0497340
   1.9818470  87.4191420  64.9766030   1.9077170  88.3226560  65.2838400
   1.0797310  87.1003320  64.9488100   2.5303800  86.5849930  52.5992390
   3.4254590  86.9234900  52.6211150   2.5621430  85.8629340  51.9716670
   9.5098150  85.1153600  65.3058590   8.9100140  85.1746160  64.5622510
   9.6392050  84.1758580  65.4355440  10.7499600  82.8571420  50.6428300
   9.9192560  82.9248070  51.1135530  10.9271430  83.7475540  50.3395160
  10.2056060  79.6018900  53.1462500  10.9674970  80.1715550  53.2522190
  10.2210430  79.0346100  53.9170810  11.2116030  80.4569000  57.9904430
  11.5824860  79.6736320  57.5840400  11.8517960  81.1458100  57.8121730
   8.1949790  81.8405580  63.4034750   7.3809630  82.2702740  63.6660540
   8.6023990  82.4523990  62.7903800  10.2575230  79.8953270  50.3035020
  10.5324070  80.8032150  50.1754240  10.0685970  79.8315800  51.2397010
   6.6550840  72.9198120  51.5988650   7.0735720  72.7329100  50.7585310
   6.3486900  72.0677170  51.9091580  10.1540570  77.8322260  55.2964450
   9.7784170  77.0650190  54.8645740   9.4243690  78.2144960  55.7839380
   9.5440190  76.9793780  64.9303970   9.3126280  76.7506530  64.0301920
   9.8044740  77.8993330  64.8848860   7.9828260  72.2050210  67.7083670
   8.8598440  72.2133610  68.0917670   7.9949100  71.4681050  67.0976020
   9.4291530  76.0579750  58.5971690   9.9529010  75.5642400  57.9661860
  10.0150950  76.1930110  59.3419260   9.6081250  76.1419620  62.1191240
   8.6583960  76.1083160  62.2336230   9.7894260  77.0519730  61.8841010
   8.9191500  75.3153100  54.5364100   9.4150620  75.0823970  55.3212980
   8.7207570  74.4764940  54.1201740  10.3478660  73.9514050  57.0701780
  10.2377940  73.7970090  58.0084050  11.1086250  73.4234990  56.8277190
   8.6944380  69.8908180  63.5284780   9.3316600  70.5042320  63.8943970
   8.8419270  69.9268840  62.5834010  11.2368930  71.7821970  50.3107920
  12.1618240  71.6503150  50.1026210  11.2144720  71.8614790  51.2644370
  11.3107420  72.5532630  52.9364630  10.5158920  72.4877750  53.4657540
  11.5150700  73.4883270  52.9249980   8.2525840  86.5924180  56.9303020
   8.8484910  86.2708750  56.2537440   8.5103990  86.1196000  57.7216290
   2.0648860  71.0434370  66.4359880   2.0037750  71.6356200  67.1855290
   3.0049240  70.9360330  66.2910140   4.7023420  70.7004430  66.0752170
   5.3163830  71.0183720  65.4133250   5.2472980  70.2153020  66.6948030
  11.1198600  86.5996060  63.4814010  10.6256880  86.9964930  62.7641140
  10.5111890  85.9745270  63.8751290   5.4431460  69.2636570  62.4021460
   4.5691300  69.5971680  62.1994390   5.3342210  68.7909750  63.2273330
   6.3503440  71.4707440  63.7863180   6.0216800  70.6559200  63.4064910
   7.2985740  71.4277250  63.6628870   8.8038050  87.2419480  60.7600750
   8.3441020  87.9935290  60.3858770   8.1750510  86.5225950  60.7015550
   1.9729270  86.4416210  60.7617860   2.2607080  86.1870510  59.8850870
   2.4852490  85.8893570  61.3523430   3.1906280  70.1806410  61.3414370
   2.4078070  70.6551910  61.6211130   2.8969210  69.2761240  61.2327550
   7.7427350  70.8829510  59.3863460   8.1835440  70.8274610  58.5385060
   7.4734940  71.7987520  59.4573640   9.6065920  70.5144750  57.3972280
   9.5454320  69.5705970  57.2503300  10.3857950  70.6224840  57.9425740
   5.5785480  69.2635610  58.0913470   6.1814850  69.8355820  58.5661990
   4.8378470  69.8275050  57.8687370   8.7220080  69.6657170  53.3653750
   8.9170710  70.5640620  53.6321180   7.9349950  69.4344250  53.8586700
   2.0401630  87.3632310  68.1286060   2.9668940  87.1276580  68.1722020
   2.0252060  88.1904310  67.6472090  10.2746690  86.9057880  55.1260310
  10.4498880  86.2195620  54.4821230   9.5768260  87.4304930  54.7336980
   5.8280700  69.4430640  68.4708410   5.7146150  69.7625250  69.3659930
   6.6450440  69.8443150  68.1745690   8.6079190  86.5902170  67.9527100
   9.4004510  86.0951400  67.7453060   8.9012340  87.2692310  68.5602710
   4.7338850  77.4623110  38.8343150   4.6532900  76.5477720  38.5634860
   4.3203270  77.9590180  38.1282860   2.8656890  79.2402130  40.7152420
   2.0898990  78.7602570  41.0050990   3.5169820  78.5607780  40.5408580
   6.8864320  83.6462320  39.4951550   6.4245850  82.8749560  39.8238720
   7.6989870  83.6728390  40.0004000   3.1127630  85.9320330  39.1155540
   2.4939070  86.3877830  38.5449980   3.9679410  86.0871790  38.7145240
   2.3065880  81.9159320  40.7222580   2.2374160  80.9749260  40.5611710
   3.0685740  82.0060730  41.2945150   3.3371050  74.7229700  40.9491510
   3.7135870  73.8501580  40.8365180   3.2390560  75.0588400  40.0581950
   7.1195170  72.2180140  37.8819850   7.9404790  71.7276710  37.9245330
   7.1529250  72.8077800  38.6351690  11.4094720  74.2346890  44.4463480
  10.7046890  74.6228600  43.9278590  11.6752640  74.9297180  45.0484410
   3.9790980  80.8159570  36.5087450   3.3608250  81.2809020  35.9450170
   4.4914230  81.5087050  36.9256960   7.3556650  74.1580520  40.6547390
   6.6512220  74.4465410  41.2350500   7.7168810  74.9680630  40.2946950
   8.9719430  83.7755650  42.9174870   8.2882950  84.4454760  42.9091540
   9.5113720  83.9736300  42.1519730  10.4243570  73.6035310  41.0456600
   9.4768480  73.6374290  41.1772030  10.7493560  74.4174260  41.4305960
   6.5078170  85.6199780  41.6320050   6.5205330  85.2162070  40.7642310
   5.9553390  86.3947070  41.5281480   7.8023590  82.3416000  36.7210220
   7.6919920  81.3990330  36.8459640   7.7991840  82.7031640  37.6072980
   5.9063610  80.5229620  42.9602660   6.3232400  80.3089730  42.1256120
   6.6303430  80.7802410  43.5311280   3.3443870  77.9681320  36.0772710
   2.4173150  77.9018700  36.3061180   3.4968690  78.9061450  35.9627950
   3.3312950  74.2398320  33.0739870   2.3916620  74.4012280  33.1592330
   3.6496210  74.9584000  32.5275860   9.8525710  78.9216840  43.0518900
   9.0244340  78.9909930  42.5769030  10.4476190  79.5071150  42.5834730
   7.3741160  79.5301620  36.5807960   6.7553580  79.1921170  35.9334260
   7.3565610  78.8861380  37.2887150   6.8167720  75.7086160  43.9973770
   6.4038900  76.5339870  44.2513760   6.0843670  75.1231200  43.8050130
   7.5067820  85.7545490  44.6854750   7.0298380  86.5617680  44.4927360
   6.8229610  85.1023820  44.8380960   5.5505860  78.7688430  33.5880710
   5.9899140  77.9310860  33.4418530   6.2634280  79.4017830  33.6744850
   3.6601240  83.7084500  37.5561950   4.0997150  84.4508830  37.1417340
   3.5988130  83.9511070  38.4800910   9.1323000  70.0231240  31.9021750
   8.8195660  70.1158070  32.8020820   9.8935470  70.6012270  31.8519180
  11.0867030  85.5157430  49.7546140  11.5626750  85.9940320  50.4335220
  11.7074190  85.4474920  49.0291640  10.4900280  82.7070280  46.9146150
  10.6163340  82.4682160  45.9963330  10.5321660  81.8754820  47.3868230
   4.3517020  86.4098280  45.4840960   4.8661690  86.3206290  46.2863390
   3.5086100  86.7557980  45.7768870   6.3271420  86.6953620  34.9124960
   6.1672560  86.4056560  35.8106790   6.1618130  85.9193750  34.3770190
   6.0297550  84.2041180  33.4722960   5.3362710  84.2018470  32.8125240
   6.7720410  83.7800500  33.0417130   5.5947480  85.8303890  37.5471450
   6.0504430  85.0493270  37.8610070   5.9340000  86.5410710  38.0912630
  10.3424290  74.7602740  47.8795890   9.7268560  75.2682410  47.3511350
  10.0220710  73.8601070  47.8221830   2.4038610  73.5994630  45.3458080
   1.9417980  73.8077650  46.1578020   2.0016720  72.7853980  45.0428750
   7.4043120  74.8203580  46.4754740   6.5536710  74.5209330  46.7963810
   7.2444910  75.0645590  45.5638560   4.4992830  76.3205330  48.5753530
   4.8246240  75.4869080  48.2355760   5.2873160  76.8433850  48.7231860
   5.1380780  75.8623050  36.0694660   4.5389670  76.5858850  35.8858280
   5.6860390  75.7999830  35.2871110   3.7445650  74.4986590  38.0997940
   4.1375220  74.8158790  37.2866630   4.1062500  73.6198470  38.2142460
   2.0537820  73.2493900  49.3594800   1.3636140  73.0566100  49.9940890
   2.7970120  73.5328540  49.8919100   4.3300790  77.0892340  42.1948720
   3.5981910  77.5979150  42.5438820   3.9325130  76.2722320  41.8937500
   4.7926700  72.5426020  41.6071660   4.8099440  72.9934670  42.4513510
   4.5442280  71.6431660  41.8205100   8.2197450  69.9558200  47.4458040
   8.5443220  69.2247860  47.9716020   8.2553960  69.6371840  46.5439030
   8.1455290  80.0683310  41.0544070   8.8654410  80.5638600  40.6640180
   7.9437110  79.3901200  40.4097940   3.6065230  71.4621270  35.1973460
   2.7929840  70.9634440  35.1218770   3.4127180  72.3019520  34.7809810
   3.5274090  80.1392370  46.9413070   3.4611400  79.2188040  46.6870660
   2.8979230  80.2367810  47.6557710   6.3213620  75.8340920  33.4935620
   7.2093240  76.1458150  33.3186960   6.2918710  74.9613170  33.1016200
   2.3174210  82.0064610  34.1723790   2.6589910  82.7506840  33.6767110
   1.4886920  82.3195730  34.5348620   3.4590820  82.9612940  46.6916870
   3.4735360  82.0293900  46.4735780   2.7515920  83.0472700  47.3306640
   8.5927890  77.1452760  32.9615480   8.5091610  77.5766980  32.1111920
   9.3122080  77.6051110  33.3942300   9.6702030  79.6020280  46.0385450
   8.9450220  80.1949060  45.8414840  10.1977490  79.5943820  45.2398820
   9.6215140  83.9995020  35.6897610   8.9791300  83.3450640  35.9641330
   9.2345800  84.4050110  34.9138280   5.2001620  81.3280450  39.5369300
   5.5525440  80.7308580  38.8770670   4.3163950  81.0024680  39.7077550
   2.8924720  84.6030510  43.7857370   3.5366940  84.8089890  44.4630790
   3.2554160  83.8418910  43.3328220   4.1656800  82.6062860  42.5034820
   4.8079030  81.9056020  42.6166990   4.6906150  83.3861300  42.3231710
   8.0112520  82.8911480  32.2273960   7.7850100  82.1741920  32.8198600
   7.6208720  82.6423920  31.3895710   5.9394420  83.4057760  45.7070880
   6.2750660  83.9924450  46.3848800   5.0194760  83.2750470  45.9368670
   7.5928770  80.8083420  33.8888120   7.3050470  81.2696110  34.6766000
   8.3880940  80.3481190  34.1572340   1.7683000  83.4549090  48.8758940
   1.4479870  82.7358330  49.4204630   1.0941360  84.1304160  48.9495000
   4.9836600  73.6875250  44.2395740   5.3517420  72.8670460  44.5675310
   4.1234800  73.7477140  44.6551390   8.3498630  72.6432190  35.0483300
   7.7211790  72.7477860  34.3341530   7.8550550  72.8628970  35.8377180
   2.7956770  84.3637780  32.4817280   2.8968750  84.1601770  31.5519260
   1.8958510  84.1096060  32.6865060   1.9438590  76.3414840  44.4633710
   2.4423840  76.8160660  45.1285560   2.0861540  75.4178360  44.6703740
   4.3498090  71.6468800  37.9036970   4.2265870  71.6654930  36.9546480
   5.2982650  71.6947740  38.0235370   9.1505450  72.5582800  45.3062100
   8.6479050  73.2988200  45.6455910   9.9662110  72.9466800  44.9898890
   7.4427460  77.8015980  38.7523460   6.5017600  77.8166210  38.9271150
   7.7571530  77.0151940  39.1983760   9.4453040  84.9724830  40.4277720
   9.5700460  85.7956000  40.9001530  10.3118600  84.7615560  40.0801870
   4.7593480  82.3581980  49.2355840   4.1531640  82.3813580  48.4951590
   4.4547590  81.6265020  49.7723090   6.1893850  86.0862270  47.8465250
   7.1415600  86.0020290  47.7965490   6.0422070  86.7503980  48.5199040
   9.0803050  85.4656480  33.3457160   8.7944560  85.0521620  32.5311340
   8.8822600  86.3944190  33.2257680   3.7853010  80.5209790  32.3904760
   3.2363110  80.9679090  33.0347500   4.4072270  80.0159040  32.9142430
   7.8387950  81.8751890  48.3227020   8.5797420  82.2127650  47.8194480
   7.0760630  82.0443950  47.7696790   1.9655770  78.5038320  31.5347160
   2.4861430  77.7887340  31.1688310   2.6124170  79.1424190  31.8347670
   6.5133610  79.9266720  46.8582230   6.9274630  80.0811800  47.7072650
   5.5784610  80.0521940  47.0208010   6.9855780  77.2662880  48.8621380
   7.5676550  76.5115200  48.7741860   7.1617550  77.7970320  48.0852860
   3.6112740  77.6103380  46.2116000   3.7308950  77.0144520  46.9510840
   4.4706740  77.6473070  45.7917300   5.9500640  78.1640570  44.7878510
   5.4235860  78.6883190  44.1843650   6.2931980  78.7967960  45.4188240
   5.1974940  73.7690540  47.7024840   4.5090460  73.1072080  47.6374830
   5.9180960  73.3228810  48.1473300   5.8275340  70.3642170  33.7615100
   6.1077630  69.5210070  34.1174520   5.0541070  70.5965280  34.2753850
   1.9818470  87.4191420  46.2022540   1.9077170  88.3226560  46.5094910
   1.0797310  87.1003320  46.1744610   2.5303800  86.5849930  33.8248900
   3.4254590  86.9234900  33.8467660   2.5621430  85.8629340  33.1973180
   9.5098150  85.1153600  46.5315100   8.9100140  85.1746160  45.7879020
   9.6392050  84.1758580  46.6611950  10.7499600  82.8571420  31.8684810
   9.9192560  82.9248070  32.3392040  10.9271430  83.7475540  31.5651670
  10.2056060  79.6018900  34.3719010  10.9674970  80.1715550  34.4778700
  10.2210430  79.0346100  35.1427320  11.2116030  80.4569000  39.2160940
  11.5824860  79.6736320  38.8096910  11.8517960  81.1458100  39.0378240
   8.1949790  81.8405580  44.6291260   7.3809630  82.2702740  44.8917050
   8.6023990  82.4523990  44.0160310  10.2575230  79.8953270  31.5291530
  10.5324070  80.8032150  31.4010750  10.0685970  79.8315800  32.4653520
   6.6550840  72.9198120  32.8245160   7.0735720  72.7329100  31.9841820
   6.3486900  72.0677170  33.1348090  10.1540570  77.8322260  36.5220960
   9.7784170  77.0650190  36.0902250   9.4243690  78.2144960  37.0095890
   9.5440190  76.9793780  46.1560480   9.3126280  76.7506530  45.2558430
   9.8044740  77.8993330  46.1105370   7.9828260  72.2050210  48.9340180
   8.8598440  72.2133610  49.3174180   7.9949100  71.4681050  48.3232530
   9.4291530  76.0579750  39.8228200   9.9529010  75.5642400  39.1918370
  10.0150950  76.1930110  40.5675770   9.6081250  76.1419620  43.3447750
   8.6583960  76.1083160  43.4592740   9.7894260  77.0519730  43.1097520
   8.9191500  75.3153100  35.7620610   9.4150620  75.0823970  36.5469490
   8.7207570  74.4764940  35.3458250  10.3478660  73.9514050  38.2958290
  10.2377940  73.7970090  39.2340560  11.1086250  73.4234990  38.0533700
   8.6944380  69.8908180  44.7541290   9.3316600  70.5042320  45.1200480
   8.8419270  69.9268840  43.8090520  11.2368930  71.7821970  31.5364430
  12.1618240  71.6503150  31.3282720  11.2144720  71.8614790  32.4900880
  11.3107420  72.5532630  34.1621140  10.5158920  72.4877750  34.6914050
  11.5150700  73.4883270  34.1506490   8.2525840  86.5924180  38.1559530
   8.8484910  86.2708750  37.4793950   8.5103990  86.1196000  38.9472800
   2.0648860  71.0434370  47.6616390   2.0037750  71.6356200  48.4111800
   3.0049240  70.9360330  47.5166650   4.7023420  70.7004430  47.3008680
   5.3163830  71.0183720  46.6389760   5.2472980  70.2153020  47.9204540
  11.1198600  86.5996060  44.7070520  10.6256880  86.9964930  43.9897650
  10.5111890  85.9745270  45.1007800   5.4431460  69.2636570  43.6277970
   4.5691300  69.5971680  43.4250900   5.3342210  68.7909750  44.4529840
   6.3503440  71.4707440  45.0119690   6.0216800  70.6559200  44.6321420
   7.2985740  71.4277250  44.8885380   8.8038050  87.2419480  41.9857260
   8.3441020  87.9935290  41.6115280   8.1750510  86.5225950  41.9272060
   1.9729270  86.4416210  41.9874370   2.2607080  86.1870510  41.1107380
   2.4852490  85.8893570  42.5779940   3.1906280  70.1806410  42.5670880
   2.4078070  70.6551910  42.8467640   2.8969210  69.2761240  42.4584060
   7.7427350  70.8829510  40.6119970   8.1835440  70.8274610  39.7641570
   7.4734940  71.7987520  40.6830150   9.6065920  70.5144750  38.6228790
   9.5454320  69.5705970  38.4759810  10.3857950  70.6224840  39.1682250
   5.5785480  69.2635610  39.3169980   6.1814850  69.8355820  39.7918500
   4.8378470  69.8275050  39.0943880   8.7220080  69.6657170  34.5910260
   8.9170710  70.5640620  34.8577690   7.9349950  69.4344250  35.0843210
   2.0401630  87.3632310  49.3542570   2.9668940  87.1276580  49.3978530
   2.0252060  88.1904310  48.8728600  10.2746690  86.9057880  36.3516820
  10.4498880  86.2195620  35.7077740   9.5768260  87.4304930  35.9593490
   5.8280700  69.4430640  49.6964920   5.7146150  69.7625250  50.5916440
   6.6450440  69.8443150  49.4002200   8.6079190  86.5902170  49.1783610
   9.4004510  86.0951400  48.9709570   8.9012340  87.2692310  49.7859220
   4.7338850  77.4623110  20.0599660   4.6532900  76.5477720  19.7891370
   4.3203270  77.9590180  19.3539370   2.8656890  79.2402130  21.9408930
   2.0898990  78.7602570  22.2307500   3.5169820  78.5607780  21.7665090
   6.8864320  83.6462320  20.7208060   6.4245850  82.8749560  21.0495230
   7.6989870  83.6728390  21.2260510   3.1127630  85.9320330  20.3412050
   2.4939070  86.3877830  19.7706490   3.9679410  86.0871790  19.9401750
   2.3065880  81.9159320  21.9479090   2.2374160  80.9749260  21.7868220
   3.0685740  82.0060730  22.5201660   3.3371050  74.7229700  22.1748020
   3.7135870  73.8501580  22.0621690   3.2390560  75.0588400  21.2838460
   7.1195170  72.2180140  19.1076360   7.9404790  71.7276710  19.1501840
   7.1529250  72.8077800  19.8608200  11.4094720  74.2346890  25.6719990
  10.7046890  74.6228600  25.1535100  11.6752640  74.9297180  26.2740920
   3.9790980  80.8159570  17.7343960   3.3608250  81.2809020  17.1706680
   4.4914230  81.5087050  18.1513470   7.3556650  74.1580520  21.8803900
   6.6512220  74.4465410  22.4607010   7.7168810  74.9680630  21.5203460
   8.9719430  83.7755650  24.1431380   8.2882950  84.4454760  24.1348050
   9.5113720  83.9736300  23.3776240  10.4243570  73.6035310  22.2713110
   9.4768480  73.6374290  22.4028540  10.7493560  74.4174260  22.6562470
   6.5078170  85.6199780  22.8576560   6.5205330  85.2162070  21.9898820
   5.9553390  86.3947070  22.7537990   7.8023590  82.3416000  17.9466730
   7.6919920  81.3990330  18.0716150   7.7991840  82.7031640  18.8329490
   5.9063610  80.5229620  24.1859170   6.3232400  80.3089730  23.3512630
   6.6303430  80.7802410  24.7567790   3.3443870  77.9681320  17.3029220
   2.4173150  77.9018700  17.5317690   3.4968690  78.9061450  17.1884460
   3.3312950  74.2398320  14.2996380   2.3916620  74.4012280  14.3848840
   3.6496210  74.9584000  13.7532370   9.8525710  78.9216840  24.2775410
   9.0244340  78.9909930  23.8025540  10.4476190  79.5071150  23.8091240
   7.3741160  79.5301620  17.8064470   6.7553580  79.1921170  17.1590770
   7.3565610  78.8861380  18.5143660   6.8167720  75.7086160  25.2230280
   6.4038900  76.5339870  25.4770270   6.0843670  75.1231200  25.0306640
   7.5067820  85.7545490  25.9111260   7.0298380  86.5617680  25.7183870
   6.8229610  85.1023820  26.0637470   5.5505860  78.7688430  14.8137220
   5.9899140  77.9310860  14.6675040   6.2634280  79.4017830  14.9001360
   3.6601240  83.7084500  18.7818460   4.0997150  84.4508830  18.3673850
   3.5988130  83.9511070  19.7057420   9.1323000  70.0231240  13.1278260
   8.8195660  70.1158070  14.0277330   9.8935470  70.6012270  13.0775690
  11.0867030  85.5157430  30.9802650  11.5626750  85.9940320  31.6591730
  11.7074190  85.4474920  30.2548150  10.4900280  82.7070280  28.1402660
  10.6163340  82.4682160  27.2219840  10.5321660  81.8754820  28.6124740
   4.3517020  86.4098280  26.7097470   4.8661690  86.3206290  27.5119900
   3.5086100  86.7557980  27.0025380   6.3271420  86.6953620  16.1381470
   6.1672560  86.4056560  17.0363300   6.1618130  85.9193750  15.6026700
   6.0297550  84.2041180  14.6979470   5.3362710  84.2018470  14.0381750
   6.7720410  83.7800500  14.2673640   5.5947480  85.8303890  18.7727960
   6.0504430  85.0493270  19.0866580   5.9340000  86.5410710  19.3169140
  10.3424290  74.7602740  29.1052400   9.7268560  75.2682410  28.5767860
  10.0220710  73.8601070  29.0478340   2.4038610  73.5994630  26.5714590
   1.9417980  73.8077650  27.3834530   2.0016720  72.7853980  26.2685260
   7.4043120  74.8203580  27.7011250   6.5536710  74.5209330  28.0220320
   7.2444910  75.0645590  26.7895070   4.4992830  76.3205330  29.8010040
   4.8246240  75.4869080  29.4612270   5.2873160  76.8433850  29.9488370
   5.1380780  75.8623050  17.2951170   4.5389670  76.5858850  17.1114790
   5.6860390  75.7999830  16.5127620   3.7445650  74.4986590  19.3254450
   4.1375220  74.8158790  18.5123140   4.1062500  73.6198470  19.4398970
   2.0537820  73.2493900  30.5851310   1.3636140  73.0566100  31.2197400
   2.7970120  73.5328540  31.1175610   4.3300790  77.0892340  23.4205230
   3.5981910  77.5979150  23.7695330   3.9325130  76.2722320  23.1194010
   4.7926700  72.5426020  22.8328170   4.8099440  72.9934670  23.6770020
   4.5442280  71.6431660  23.0461610   8.2197450  69.9558200  28.6714550
   8.5443220  69.2247860  29.1972530   8.2553960  69.6371840  27.7695540
   8.1455290  80.0683310  22.2800580   8.8654410  80.5638600  21.8896690
   7.9437110  79.3901200  21.6354450   3.6065230  71.4621270  16.4229970
   2.7929840  70.9634440  16.3475280   3.4127180  72.3019520  16.0066320
   3.5274090  80.1392370  28.1669580   3.4611400  79.2188040  27.9127170
   2.8979230  80.2367810  28.8814220   6.3213620  75.8340920  14.7192130
   7.2093240  76.1458150  14.5443470   6.2918710  74.9613170  14.3272710
   2.3174210  82.0064610  15.3980300   2.6589910  82.7506840  14.9023620
   1.4886920  82.3195730  15.7605130   3.4590820  82.9612940  27.9173380
   3.4735360  82.0293900  27.6992290   2.7515920  83.0472700  28.5563150
   8.5927890  77.1452760  14.1871990   8.5091610  77.5766980  13.3368430
   9.3122080  77.6051110  14.6198810   9.6702030  79.6020280  27.2641960
   8.9450220  80.1949060  27.0671350  10.1977490  79.5943820  26.4655330
   9.6215140  83.9995020  16.9154120   8.9791300  83.3450640  17.1897840
   9.2345800  84.4050110  16.1394790   5.2001620  81.3280450  20.7625810
   5.5525440  80.7308580  20.1027180   4.3163950  81.0024680  20.9334060
   2.8924720  84.6030510  25.0113880   3.5366940  84.8089890  25.6887300
   3.2554160  83.8418910  24.5584730   4.1656800  82.6062860  23.7291330
   4.8079030  81.9056020  23.8423500   4.6906150  83.3861300  23.5488220
   8.0112520  82.8911480  13.4530470   7.7850100  82.1741920  14.0455110
   7.6208720  82.6423920  12.6152220   5.9394420  83.4057760  26.9327390
   6.2750660  83.9924450  27.6105310   5.0194760  83.2750470  27.1625180
   7.5928770  80.8083420  15.1144630   7.3050470  81.2696110  15.9022510
   8.3880940  80.3481190  15.3828850   1.7683000  83.4549090  30.1015450
   1.4479870  82.7358330  30.6461140   1.0941360  84.1304160  30.1751510
   4.9836600  73.6875250  25.4652250   5.3517420  72.8670460  25.7931820
   4.1234800  73.7477140  25.8807900   8.3498630  72.6432190  16.2739810
   7.7211790  72.7477860  15.5598040   7.8550550  72.8628970  17.0633690
   2.7956770  84.3637780  13.7073790   2.8968750  84.1601770  12.7775770
   1.8958510  84.1096060  13.9121570   1.9438590  76.3414840  25.6890220
   2.4423840  76.8160660  26.3542070   2.0861540  75.4178360  25.8960250
   4.3498090  71.6468800  19.1293480   4.2265870  71.6654930  18.1802990
   5.2982650  71.6947740  19.2491880   9.1505450  72.5582800  26.5318610
   8.6479050  73.2988200  26.8712420   9.9662110  72.9466800  26.2155400
   7.4427460  77.8015980  19.9779970   6.5017600  77.8166210  20.1527660
   7.7571530  77.0151940  20.4240270   9.4453040  84.9724830  21.6534230
   9.5700460  85.7956000  22.1258040  10.3118600  84.7615560  21.3058380
   4.7593480  82.3581980  30.4612350   4.1531640  82.3813580  29.7208100
   4.4547590  81.6265020  30.9979600   6.1893850  86.0862270  29.0721760
   7.1415600  86.0020290  29.0222000   6.0422070  86.7503980  29.7455550
   9.0803050  85.4656480  14.5713670   8.7944560  85.0521620  13.7567850
   8.8822600  86.3944190  14.4514190   3.7853010  80.5209790  13.6161270
   3.2363110  80.9679090  14.2604010   4.4072270  80.0159040  14.1398940
   7.8387950  81.8751890  29.5483530   8.5797420  82.2127650  29.0450990
   7.0760630  82.0443950  28.9953300   1.9655770  78.5038320  12.7603670
   2.4861430  77.7887340  12.3944820   2.6124170  79.1424190  13.0604180
   6.5133610  79.9266720  28.0838740   6.9274630  80.0811800  28.9329160
   5.5784610  80.0521940  28.2464520   6.9855780  77.2662880  30.0877890
   7.5676550  76.5115200  29.9998370   7.1617550  77.7970320  29.3109370
   3.6112740  77.6103380  27.4372510   3.7308950  77.0144520  28.1767350
   4.4706740  77.6473070  27.0173810   5.9500640  78.1640570  26.0135020
   5.4235860  78.6883190  25.4100160   6.2931980  78.7967960  26.6444750
   5.1974940  73.7690540  28.9281350   4.5090460  73.1072080  28.8631340
   5.9180960  73.3228810  29.3729810   5.8275340  70.3642170  14.9871610
   6.1077630  69.5210070  15.3431030   5.0541070  70.5965280  15.5010360
   1.9818470  87.4191420  27.4279050   1.9077170  88.3226560  27.7351420
   1.0797310  87.1003320  27.4001120   2.5303800  86.5849930  15.0505410
   3.4254590  86.9234900  15.0724170   2.5621430  85.8629340  14.4229690
   9.5098150  85.1153600  27.7571610   8.9100140  85.1746160  27.0135530
   9.6392050  84.1758580  27.8868460  10.7499600  82.8571420  13.0941320
   9.9192560  82.9248070  13.5648550  10.9271430  83.7475540  12.7908180
  10.2056060  79.6018900  15.5975520  10.9674970  80.1715550  15.7035210
  10.2210430  79.0346100  16.3683830  11.2116030  80.4569000  20.4417450
  11.5824860  79.6736320  20.0353420  11.8517960  81.1458100  20.2634750
   8.1949790  81.8405580  25.8547770   7.3809630  82.2702740  26.1173560
   8.6023990  82.4523990  25.2416820  10.2575230  79.8953270  12.7548040
  10.5324070  80.8032150  12.6267260  10.0685970  79.8315800  13.6910030
   6.6550840  72.9198120  14.0501670   7.0735720  72.7329100  13.2098330
   6.3486900  72.0677170  14.3604600  10.1540570  77.8322260  17.7477470
   9.7784170  77.0650190  17.3158760   9.4243690  78.2144960  18.2352400
   9.5440190  76.9793780  27.3816990   9.3126280  76.7506530  26.4814940
   9.8044740  77.8993330  27.3361880   7.9828260  72.2050210  30.1596690
   8.8598440  72.2133610  30.5430690   7.9949100  71.4681050  29.5489040
   9.4291530  76.0579750  21.0484710   9.9529010  75.5642400  20.4174880
  10.0150950  76.1930110  21.7932280   9.6081250  76.1419620  24.5704260
   8.6583960  76.1083160  24.6849250   9.7894260  77.0519730  24.3354030
   8.9191500  75.3153100  16.9877120   9.4150620  75.0823970  17.7726000
   8.7207570  74.4764940  16.5714760  10.3478660  73.9514050  19.5214800
  10.2377940  73.7970090  20.4597070  11.1086250  73.4234990  19.2790210
   8.6944380  69.8908180  25.9797800   9.3316600  70.5042320  26.3456990
   8.8419270  69.9268840  25.0347030  11.2368930  71.7821970  12.7620940
  12.1618240  71.6503150  12.5539230  11.2144720  71.8614790  13.7157390
  11.3107420  72.5532630  15.3877650  10.5158920  72.4877750  15.9170560
  11.5150700  73.4883270  15.3763000   8.2525840  86.5924180  19.3816040
   8.8484910  86.2708750  18.7050460   8.5103990  86.1196000  20.1729310
   2.0648860  71.0434370  28.8872900   2.0037750  71.6356200  29.6368310
   3.0049240  70.9360330  28.7423160   4.7023420  70.7004430  28.5265190
   5.3163830  71.0183720  27.8646270   5.2472980  70.2153020  29.1461050
  11.1198600  86.5996060  25.9327030  10.6256880  86.9964930  25.2154160
  10.5111890  85.9745270  26.3264310   5.4431460  69.2636570  24.8534480
   4.5691300  69.5971680  24.6507410   5.3342210  68.7909750  25.6786350
   6.3503440  71.4707440  26.2376200   6.0216800  70.6559200  25.8577930
   7.2985740  71.4277250  26.1141890   8.8038050  87.2419480  23.2113770
   8.3441020  87.9935290  22.8371790   8.1750510  86.5225950  23.1528570
   1.9729270  86.4416210  23.2130880   2.2607080  86.1870510  22.3363890
   2.4852490  85.8893570  23.8036450   3.1906280  70.1806410  23.7927390
   2.4078070  70.6551910  24.0724150   2.8969210  69.2761240  23.6840570
   7.7427350  70.8829510  21.8376480   8.1835440  70.8274610  20.9898080
   7.4734940  71.7987520  21.9086660   9.6065920  70.5144750  19.8485300
   9.5454320  69.5705970  19.7016320  10.3857950  70.6224840  20.3938760
   5.5785480  69.2635610  20.5426490   6.1814850  69.8355820  21.0175010
   4.8378470  69.8275050  20.3200390   8.7220080  69.6657170  15.8166770
   8.9170710  70.5640620  16.0834200   7.9349950  69.4344250  16.3099720
   2.0401630  87.3632310  30.5799080   2.9668940  87.1276580  30.6235040
   2.0252060  88.1904310  30.0985110  10.2746690  86.9057880  17.5773330
  10.4498880  86.2195620  16.9334250   9.5768260  87.4304930  17.1850000
   5.8280700  69.4430640  30.9221430   5.7146150  69.7625250  31.8172950
   6.6450440  69.8443150  30.6258710   8.6079190  86.5902170  30.4040120
   9.4004510  86.0951400  30.1966080   8.9012340  87.2692310  31.0115730
   2.8656890  79.2402130   3.1665440   2.0898990  78.7602570   3.4564010
   3.5169820  78.5607780   2.9921600   6.8864320  83.6462320   1.9464570
   6.4245850  82.8749560   2.2751740   7.6989870  83.6728390   2.4517020
   2.3065880  81.9159320   3.1735600   2.2374160  80.9749260   3.0124730
   3.0685740  82.0060730   3.7458170   3.3371050  74.7229700   3.4004530
   3.7135870  73.8501580   3.2878200   3.2390560  75.0588400   2.5094970
  11.4094720  74.2346890   6.8976500  10.7046890  74.6228600   6.3791610
  11.6752640  74.9297180   7.4997430   7.3556650  74.1580520   3.1060410
   6.6512220  74.4465410   3.6863520   7.7168810  74.9680630   2.7459970
   8.9719430  83.7755650   5.3687890   8.2882950  84.4454760   5.3604560
   9.5113720  83.9736300   4.6032750  10.4243570  73.6035310   3.4969620
   9.4768480  73.6374290   3.6285050  10.7493560  74.4174260   3.8818980
   6.5078170  85.6199780   4.0833070   6.5205330  85.2162070   3.2155330
   5.9553390  86.3947070   3.9794500   5.9063610  80.5229620   5.4115680
   6.3232400  80.3089730   4.5769140   6.6303430  80.7802410   5.9824300
   9.8525710  78.9216840   5.5031920   9.0244340  78.9909930   5.0282050
  10.4476190  79.5071150   5.0347750   6.8167720  75.7086160   6.4486790
   6.4038900  76.5339870   6.7026780   6.0843670  75.1231200   6.2563150
   7.5067820  85.7545490   7.1367770   7.0298380  86.5617680   6.9440380
   6.8229610  85.1023820   7.2893980  11.0867030  85.5157430  12.2059160
  11.5626750  85.9940320  12.8848240  11.7074190  85.4474920  11.4804660
  10.4900280  82.7070280   9.3659170  10.6163340  82.4682160   8.4476350
  10.5321660  81.8754820   9.8381250   4.3517020  86.4098280   7.9353980
   4.8661690  86.3206290   8.7376410   3.5086100  86.7557980   8.2281890
  10.3424290  74.7602740  10.3308910   9.7268560  75.2682410   9.8024370
  10.0220710  73.8601070  10.2734850   2.4038610  73.5994630   7.7971100
   1.9417980  73.8077650   8.6091040   2.0016720  72.7853980   7.4941770
   7.4043120  74.8203580   8.9267760   6.5536710  74.5209330   9.2476830
   7.2444910  75.0645590   8.0151580   4.4992830  76.3205330  11.0266550
   4.8246240  75.4869080  10.6868780   5.2873160  76.8433850  11.1744880
   2.0537820  73.2493900  11.8107820   1.3636140  73.0566100  12.4453910
   2.7970120  73.5328540  12.3432120   4.3300790  77.0892340   4.6461740
   3.5981910  77.5979150   4.9951840   3.9325130  76.2722320   4.3450520
   4.7926700  72.5426020   4.0584680   4.8099440  72.9934670   4.9026530
   4.5442280  71.6431660   4.2718120   8.2197450  69.9558200   9.8971060
   8.5443220  69.2247860  10.4229040   8.2553960  69.6371840   8.9952050
   8.1455290  80.0683310   3.5057090   8.8654410  80.5638600   3.1153200
   7.9437110  79.3901200   2.8610960   3.5274090  80.1392370   9.3926090
   3.4611400  79.2188040   9.1383680   2.8979230  80.2367810  10.1070730
   3.4590820  82.9612940   9.1429890   3.4735360  82.0293900   8.9248800
   2.7515920  83.0472700   9.7819660   9.6702030  79.6020280   8.4898470
   8.9450220  80.1949060   8.2927860  10.1977490  79.5943820   7.6911840
   2.8924720  84.6030510   6.2370390   3.5366940  84.8089890   6.9143810
   3.2554160  83.8418910   5.7841240   4.1656800  82.6062860   4.9547840
   4.8079030  81.9056020   5.0680010   4.6906150  83.3861300   4.7744730
   5.9394420  83.4057760   8.1583900   6.2750660  83.9924450   8.8361820
   5.0194760  83.2750470   8.3881690   1.7683000  83.4549090  11.3271960
   1.4479870  82.7358330  11.8717650   1.0941360  84.1304160  11.4008020
   4.9836600  73.6875250   6.6908760   5.3517420  72.8670460   7.0188330
   4.1234800  73.7477140   7.1064410   1.9438590  76.3414840   6.9146730
   2.4423840  76.8160660   7.5798580   2.0861540  75.4178360   7.1216760
   9.1505450  72.5582800   7.7575120   8.6479050  73.2988200   8.0968930
   9.9662110  72.9466800   7.4411910   9.4453040  84.9724830   2.8790740
   9.5700460  85.7956000   3.3514550  10.3118600  84.7615560   2.5314890
   4.7593480  82.3581980  11.6868860   4.1531640  82.3813580  10.9464610
   4.4547590  81.6265020  12.2236110   6.1893850  86.0862270  10.2978270
   7.1415600  86.0020290  10.2478510   6.0422070  86.7503980  10.9712060
   7.8387950  81.8751890  10.7740040   8.5797420  82.2127650  10.2707500
   7.0760630  82.0443950  10.2209810   6.5133610  79.9266720   9.3095250
   6.9274630  80.0811800  10.1585670   5.5784610  80.0521940   9.4721030
   6.9855780  77.2662880  11.3134400   7.5676550  76.5115200  11.2254880
   7.1617550  77.7970320  10.5365880   3.6112740  77.6103380   8.6629020
   3.7308950  77.0144520   9.4023860   4.4706740  77.6473070   8.2430320
   5.9500640  78.1640570   7.2391530   5.4235860  78.6883190   6.6356670
   6.2931980  78.7967960   7.8701260   5.1974940  73.7690540  10.1537860
   4.5090460  73.1072080  10.0887850   5.9180960  73.3228810  10.5986320
   1.9818470  87.4191420   8.6535560   1.9077170  88.3226560   8.9607930
   1.0797310  87.1003320   8.6257630   9.5098150  85.1153600   8.9828120
   8.9100140  85.1746160   8.2392040   9.6392050  84.1758580   9.1124970
   8.1949790  81.8405580   7.0804280   7.3809630  82.2702740   7.3430070
   8.6023990  82.4523990   6.4673330   9.5440190  76.9793780   8.6073500
   9.3126280  76.7506530   7.7071450   9.8044740  77.8993330   8.5618390
   7.9828260  72.2050210  11.3853200   8.8598440  72.2133610  11.7687200
   7.9949100  71.4681050  10.7745550   9.4291530  76.0579750   2.2741220
   9.9529010  75.5642400   1.6431390  10.0150950  76.1930110   3.0188790
   9.6081250  76.1419620   5.7960770   8.6583960  76.1083160   5.9105760
   9.7894260  77.0519730   5.5610540   8.6944380  69.8908180   7.2054310
   9.3316600  70.5042320   7.5713500   8.8419270  69.9268840   6.2603540
   2.0648860  71.0434370  10.1129410   2.0037750  71.6356200  10.8624820
   3.0049240  70.9360330   9.9679670   4.7023420  70.7004430   9.7521700
   5.3163830  71.0183720   9.0902780   5.2472980  70.2153020  10.3717560
  11.1198600  86.5996060   7.1583540  10.6256880  86.9964930   6.4410670
  10.5111890  85.9745270   7.5520820   5.4431460  69.2636570   6.0790990
   4.5691300  69.5971680   5.8763920   5.3342210  68.7909750   6.9042860
   6.3503440  71.4707440   7.4632710   6.0216800  70.6559200   7.0834440
   7.2985740  71.4277250   7.3398400   8.8038050  87.2419480   4.4370280
   8.3441020  87.9935290   4.0628300   8.1750510  86.5225950   4.3785080
   1.9729270  86.4416210   4.4387390   2.2607080  86.1870510   3.5620400
   2.4852490  85.8893570   5.0292960   3.1906280  70.1806410   5.0183900
   2.4078070  70.6551910   5.2980660   2.8969210  69.2761240   4.9097080
   7.7427350  70.8829510   3.0632990   8.1835440  70.8274610   2.2154590
   7.4734940  71.7987520   3.1343170   5.5785480  69.2635610   1.7683000
   6.1814850  69.8355820   2.2431520   4.8378470  69.8275050   1.5456900
   2.0401630  87.3632310  11.8055590   2.9668940  87.1276580  11.8491550
   2.0252060  88.1904310  11.3241620   5.8280700  69.4430640  12.1477940
   5.7146150  69.7625250  13.0429460   6.6450440  69.8443150  11.8515220
   8.6079190  86.5902170  11.6296630   9.4004510  86.0951400  11.4222590
   8.9012340  87.2692310  12.2372240   4.7338850  58.6879620 151.4804090
   4.6532900  57.7734230 151.2095800   4.3203270  59.1846690 150.7743800
   2.8656890  60.4658640 153.3613360   2.0898990  59.9859080 153.6511930
   3.5169820  59.7864290 153.1869520   6.8864320  64.8718830 152.1412490
   6.4245850  64.1006070 152.4699660   7.6989870  64.8984900 152.6464940
   3.1127630  67.1576840 151.7616480   2.4939070  67.6134340 151.1910920
   3.9679410  67.3128300 151.3606180   2.3065880  63.1415830 153.3683520
   2.2374160  62.2005770 153.2072650   3.0685740  63.2317240 153.9406090
   3.3371050  55.9486210 153.5952450   3.7135870  55.0758090 153.4826120
   3.2390560  56.2844910 152.7042890   7.1195170  53.4436650 150.5280790
   7.9404790  52.9533220 150.5706270   7.1529250  54.0334310 151.2812630
   3.9790980  62.0416080 149.1548390   3.3608250  62.5065530 148.5911110
   4.4914230  62.7343560 149.5717900   7.3556650  55.3837030 153.3008330
   6.6512220  55.6721920 153.8811440   7.7168810  56.1937140 152.9407890
  10.4243570  54.8291820 153.6917540   9.4768480  54.8630800 153.8232970
  10.7493560  55.6430770 154.0766900   6.5078170  66.8456290 154.2780990
   6.5205330  66.4418580 153.4103250   5.9553390  67.6203580 154.1742420
   7.8023590  63.5672510 149.3671160   7.6919920  62.6246840 149.4920580
   7.7991840  63.9288150 150.2533920   3.3443870  59.1937830 148.7233650
   2.4173150  59.1275210 148.9522120   3.4968690  60.1317960 148.6088890
   3.3312950  55.4654830 145.7200810   2.3916620  55.6268790 145.8053270
   3.6496210  56.1840510 145.1736800   7.3741160  60.7558130 149.2268900
   6.7553580  60.4177680 148.5795200   7.3565610  60.1117890 149.9348090
   5.5505860  59.9944940 146.2341650   5.9899140  59.1567370 146.0879470
   6.2634280  60.6274340 146.3205790   3.6601240  64.9341010 150.2022890
   4.0997150  65.6765340 149.7878280   3.5988130  65.1767580 151.1261850
   9.1323000  51.2487750 144.5482690   8.8195660  51.3414580 145.4481760
   9.8935470  51.8268780 144.4980120   6.3271420  67.9210130 147.5585900
   6.1672560  67.6313070 148.4567730   6.1618130  67.1450260 147.0231130
   6.0297550  65.4297690 146.1183900   5.3362710  65.4274980 145.4586180
   6.7720410  65.0057010 145.6878070   5.5947480  67.0560400 150.1932390
   6.0504430  66.2749780 150.5071010   5.9340000  67.7667220 150.7373570
   5.1380780  57.0879560 148.7155600   4.5389670  57.8115360 148.5319220
   5.6860390  57.0256340 147.9332050   3.7445650  55.7243100 150.7458880
   4.1375220  56.0415300 149.9327570   4.1062500  54.8454980 150.8603400
   8.1455290  61.2939820 153.7005010   8.8654410  61.7895110 153.3101120
   7.9437110  60.6157710 153.0558880   3.6065230  52.6877780 147.8434400
   2.7929840  52.1890950 147.7679710   3.4127180  53.5276030 147.4270750
   6.3213620  57.0597430 146.1396560   7.2093240  57.3714660 145.9647900
   6.2918710  56.1869680 145.7477140   2.3174210  63.2321120 146.8184730
   2.6589910  63.9763350 146.3228050   1.4886920  63.5452240 147.1809560
   8.5927890  58.3709270 145.6076420   8.5091610  58.8023490 144.7572860
   9.3122080  58.8307620 146.0403240   9.6215140  65.2251530 148.3358550
   8.9791300  64.5707150 148.6102270   9.2345800  65.6306620 147.5599220
   5.2001620  62.5536960 152.1830240   5.5525440  61.9565090 151.5231610
   4.3163950  62.2281190 152.3538490   8.0112520  64.1167990 144.8734900
   7.7850100  63.3998430 145.4659540   7.6208720  63.8680430 144.0356650
   7.5928770  62.0339930 146.5349060   7.3050470  62.4952620 147.3226940
   8.3880940  61.5737700 146.8033280   8.3498630  53.8688700 147.6944240
   7.7211790  53.9734370 146.9802470   7.8550550  54.0885480 148.4838120
   2.7956770  65.5894290 145.1278220   2.8968750  65.3858280 144.1980200
   1.8958510  65.3352570 145.3326000   4.3498090  52.8725310 150.5497910
   4.2265870  52.8911440 149.6007420   5.2982650  52.9204250 150.6696310
   7.4427460  59.0272490 151.3984400   6.5017600  59.0422720 151.5732090
   7.7571530  58.2408450 151.8444700   9.4453040  66.1981340 153.0738660
   9.5700460  67.0212510 153.5462470  10.3118600  65.9872070 152.7262810
   9.0803050  66.6912990 145.9918100   8.7944560  66.2778130 145.1772280
   8.8822600  67.6200700 145.8718620   3.7853010  61.7466300 145.0365700
   3.2363110  62.1935600 145.6808440   4.4072270  61.2415550 145.5603370
   1.9655770  59.7294830 144.1808100   2.4861430  59.0143850 143.8149250
   2.6124170  60.3680700 144.4808610   5.8275340  51.5898680 146.4076040
   6.1077630  50.7466580 146.7635460   5.0541070  51.8221790 146.9214790
   2.5303800  67.8106440 146.4709840   3.4254590  68.1491410 146.4928600
   2.5621430  67.0885850 145.8434120  10.7499600  64.0827930 144.5145750
   9.9192560  64.1504580 144.9852980  10.9271430  64.9732050 144.2112610
  10.2056060  60.8275410 147.0179950  10.9674970  61.3972060 147.1239640
  10.2210430  60.2602610 147.7888260  11.2116030  61.6825510 151.8621880
  11.5824860  60.8992830 151.4557850  11.8517960  62.3714610 151.6839180
  10.2575230  61.1209780 144.1752470  10.5324070  62.0288660 144.0471690
  10.0685970  61.0572310 145.1114460   6.6550840  54.1454630 145.4706100
   7.0735720  53.9585610 144.6302760   6.3486900  53.2933680 145.7809030
  10.1540570  59.0578770 149.1681900   9.7784170  58.2906700 148.7363190
   9.4243690  59.4401470 149.6556830   9.4291530  57.2836260 152.4689140
   9.9529010  56.7898910 151.8379310  10.0150950  57.4186620 153.2136710
   8.9191500  56.5409610 148.4081550   9.4150620  56.3080480 149.1930430
   8.7207570  55.7021450 147.9919190  10.3478660  55.1770560 150.9419230
  10.2377940  55.0226600 151.8801500  11.1086250  54.6491500 150.6994640
  11.2368930  53.0078480 144.1825370  12.1618240  52.8759660 143.9743660
  11.2144720  53.0871300 145.1361820  11.3107420  53.7789140 146.8082080
  10.5158920  53.7134260 147.3374990  11.5150700  54.7139780 146.7967430
   8.2525840  67.8180690 150.8020470   8.8484910  67.4965260 150.1254890
   8.5103990  67.3452510 151.5933740   7.7427350  52.1086020 153.2580910
   8.1835440  52.0531120 152.4102510   7.4734940  53.0244030 153.3291090
   9.6065920  51.7401260 151.2689730   9.5454320  50.7962480 151.1220750
  10.3857950  51.8481350 151.8143190   5.5785480  50.4892120 151.9630920
   6.1814850  51.0612330 152.4379440   4.8378470  51.0531560 151.7404820
   8.7220080  50.8913680 147.2371200   8.9170710  51.7897130 147.5038630
   7.9349950  50.6600760 147.7304150  10.2746690  68.1314390 148.9977760
  10.4498880  67.4452130 148.3538680   9.5768260  68.6561440 148.6054430
   4.7338850  58.6879620 132.7060600   4.6532900  57.7734230 132.4352310
   4.3203270  59.1846690 132.0000310   2.8656890  60.4658640 134.5869870
   2.0898990  59.9859080 134.8768440   3.5169820  59.7864290 134.4126030
   6.8864320  64.8718830 133.3669000   6.4245850  64.1006070 133.6956170
   7.6989870  64.8984900 133.8721450   3.1127630  67.1576840 132.9872990
   2.4939070  67.6134340 132.4167430   3.9679410  67.3128300 132.5862690
   2.3065880  63.1415830 134.5940030   2.2374160  62.2005770 134.4329160
   3.0685740  63.2317240 135.1662600   3.3371050  55.9486210 134.8208960
   3.7135870  55.0758090 134.7082630   3.2390560  56.2844910 133.9299400
   7.1195170  53.4436650 131.7537300   7.9404790  52.9533220 131.7962780
   7.1529250  54.0334310 132.5069140  11.4094720  55.4603400 138.3180930
  10.7046890  55.8485110 137.7996040  11.6752640  56.1553690 138.9201860
   3.9790980  62.0416080 130.3804900   3.3608250  62.5065530 129.8167620
   4.4914230  62.7343560 130.7974410   7.3556650  55.3837030 134.5264840
   6.6512220  55.6721920 135.1067950   7.7168810  56.1937140 134.1664400
   8.9719430  65.0012160 136.7892320   8.2882950  65.6711270 136.7808990
   9.5113720  65.1992810 136.0237180  10.4243570  54.8291820 134.9174050
   9.4768480  54.8630800 135.0489480  10.7493560  55.6430770 135.3023410
   6.5078170  66.8456290 135.5037500   6.5205330  66.4418580 134.6359760
   5.9553390  67.6203580 135.3998930   7.8023590  63.5672510 130.5927670
   7.6919920  62.6246840 130.7177090   7.7991840  63.9288150 131.4790430
   5.9063610  61.7486130 136.8320110   6.3232400  61.5346240 135.9973570
   6.6303430  62.0058920 137.4028730   3.3443870  59.1937830 129.9490160
   2.4173150  59.1275210 130.1778630   3.4968690  60.1317960 129.8345400
   3.3312950  55.4654830 126.9457320   2.3916620  55.6268790 127.0309780
   3.6496210  56.1840510 126.3993310   9.8525710  60.1473350 136.9236350
   9.0244340  60.2166440 136.4486480  10.4476190  60.7327660 136.4552180
   7.3741160  60.7558130 130.4525410   6.7553580  60.4177680 129.8051710
   7.3565610  60.1117890 131.1604600   6.8167720  56.9342670 137.8691220
   6.4038900  57.7596380 138.1231210   6.0843670  56.3487710 137.6767580
   7.5067820  66.9802000 138.5572200   7.0298380  67.7874190 138.3644810
   6.8229610  66.3280330 138.7098410   5.5505860  59.9944940 127.4598160
   5.9899140  59.1567370 127.3135980   6.2634280  60.6274340 127.5462300
   3.6601240  64.9341010 131.4279400   4.0997150  65.6765340 131.0134790
   3.5988130  65.1767580 132.3518360   9.1323000  51.2487750 125.7739200
   8.8195660  51.3414580 126.6738270   9.8935470  51.8268780 125.7236630
  11.0867030  66.7413940 143.6263590  11.5626750  67.2196830 144.3052670
  11.7074190  66.6731430 142.9009090  10.4900280  63.9326790 140.7863600
  10.6163340  63.6938670 139.8680780  10.5321660  63.1011330 141.2585680
   4.3517020  67.6354790 139.3558410   4.8661690  67.5462800 140.1580840
   3.5086100  67.9814490 139.6486320   6.3271420  67.9210130 128.7842410
   6.1672560  67.6313070 129.6824240   6.1618130  67.1450260 128.2487640
   6.0297550  65.4297690 127.3440410   5.3362710  65.4274980 126.6842690
   6.7720410  65.0057010 126.9134580   5.5947480  67.0560400 131.4188900
   6.0504430  66.2749780 131.7327520   5.9340000  67.7667220 131.9630080
  10.3424290  55.9859250 141.7513340   9.7268560  56.4938920 141.2228800
  10.0220710  55.0857580 141.6939280   2.4038610  54.8251140 139.2175530
   1.9417980  55.0334160 140.0295470   2.0016720  54.0110490 138.9146200
   7.4043120  56.0460090 140.3472190   6.5536710  55.7465840 140.6681260
   7.2444910  56.2902100 139.4356010   4.4992830  57.5461840 142.4470980
   4.8246240  56.7125590 142.1073210   5.2873160  58.0690360 142.5949310
   5.1380780  57.0879560 129.9412110   4.5389670  57.8115360 129.7575730
   5.6860390  57.0256340 129.1588560   3.7445650  55.7243100 131.9715390
   4.1375220  56.0415300 131.1584080   4.1062500  54.8454980 132.0859910
   2.0537820  54.4750410 143.2312250   1.3636140  54.2822610 143.8658340
   2.7970120  54.7585050 143.7636550   4.3300790  58.3148850 136.0666170
   3.5981910  58.8235660 136.4156270   3.9325130  57.4978830 135.7654950
   4.7926700  53.7682530 135.4789110   4.8099440  54.2191180 136.3230960
   4.5442280  52.8688170 135.6922550   8.2197450  51.1814710 141.3175490
   8.5443220  50.4504370 141.8433470   8.2553960  50.8628350 140.4156480
   8.1455290  61.2939820 134.9261520   8.8654410  61.7895110 134.5357630
   7.9437110  60.6157710 134.2815390   3.6065230  52.6877780 129.0690910
   2.7929840  52.1890950 128.9936220   3.4127180  53.5276030 128.6527260
   3.5274090  61.3648880 140.8130520   3.4611400  60.4444550 140.5588110
   2.8979230  61.4624320 141.5275160   6.3213620  57.0597430 127.3653070
   7.2093240  57.3714660 127.1904410   6.2918710  56.1869680 126.9733650
   2.3174210  63.2321120 128.0441240   2.6589910  63.9763350 127.5484560
   1.4886920  63.5452240 128.4066070   3.4590820  64.1869450 140.5634320
   3.4735360  63.2550410 140.3453230   2.7515920  64.2729210 141.2024090
   8.5927890  58.3709270 126.8332930   8.5091610  58.8023490 125.9829370
   9.3122080  58.8307620 127.2659750   9.6702030  60.8276790 139.9102900
   8.9450220  61.4205570 139.7132290  10.1977490  60.8200330 139.1116270
   9.6215140  65.2251530 129.5615060   8.9791300  64.5707150 129.8358780
   9.2345800  65.6306620 128.7855730   5.2001620  62.5536960 133.4086750
   5.5525440  61.9565090 132.7488120   4.3163950  62.2281190 133.5795000
   2.8924720  65.8287020 137.6574820   3.5366940  66.0346400 138.3348240
   3.2554160  65.0675420 137.2045670   4.1656800  63.8319370 136.3752270
   4.8079030  63.1312530 136.4884440   4.6906150  64.6117810 136.1949160
   8.0112520  64.1167990 126.0991410   7.7850100  63.3998430 126.6916050
   7.6208720  63.8680430 125.2613160   5.9394420  64.6314270 139.5788330
   6.2750660  65.2180960 140.2566250   5.0194760  64.5006980 139.8086120
   7.5928770  62.0339930 127.7605570   7.3050470  62.4952620 128.5483450
   8.3880940  61.5737700 128.0289790   1.7683000  64.6805600 142.7476390
   1.4479870  63.9614840 143.2922080   1.0941360  65.3560670 142.8212450
   4.9836600  54.9131760 138.1113190   5.3517420  54.0926970 138.4392760
   4.1234800  54.9733650 138.5268840   8.3498630  53.8688700 128.9200750
   7.7211790  53.9734370 128.2058980   7.8550550  54.0885480 129.7094630
   2.7956770  65.5894290 126.3534730   2.8968750  65.3858280 125.4236710
   1.8958510  65.3352570 126.5582510   1.9438590  57.5671350 138.3351160
   2.4423840  58.0417170 139.0003010   2.0861540  56.6434870 138.5421190
   4.3498090  52.8725310 131.7754420   4.2265870  52.8911440 130.8263930
   5.2982650  52.9204250 131.8952820   9.1505450  53.7839310 139.1779550
   8.6479050  54.5244710 139.5173360   9.9662110  54.1723310 138.8616340
   7.4427460  59.0272490 132.6240910   6.5017600  59.0422720 132.7988600
   7.7571530  58.2408450 133.0701210   9.4453040  66.1981340 134.2995170
   9.5700460  67.0212510 134.7718980  10.3118600  65.9872070 133.9519320
   4.7593480  63.5838490 143.1073290   4.1531640  63.6070090 142.3669040
   4.4547590  62.8521530 143.6440540   6.1893850  67.3118780 141.7182700
   7.1415600  67.2276800 141.6682940   6.0422070  67.9760490 142.3916490
   9.0803050  66.6912990 127.2174610   8.7944560  66.2778130 126.4028790
   8.8822600  67.6200700 127.0975130   3.7853010  61.7466300 126.2622210
   3.2363110  62.1935600 126.9064950   4.4072270  61.2415550 126.7859880
   7.8387950  63.1008400 142.1944470   8.5797420  63.4384160 141.6911930
   7.0760630  63.2700460 141.6414240   1.9655770  59.7294830 125.4064610
   2.4861430  59.0143850 125.0405760   2.6124170  60.3680700 125.7065120
   6.5133610  61.1523230 140.7299680   6.9274630  61.3068310 141.5790100
   5.5784610  61.2778450 140.8925460   6.9855780  58.4919390 142.7338830
   7.5676550  57.7371710 142.6459310   7.1617550  59.0226830 141.9570310
   3.6112740  58.8359890 140.0833450   3.7308950  58.2401030 140.8228290
   4.4706740  58.8729580 139.6634750   5.9500640  59.3897080 138.6595960
   5.4235860  59.9139700 138.0561100   6.2931980  60.0224470 139.2905690
   5.1974940  54.9947050 141.5742290   4.5090460  54.3328590 141.5092280
   5.9180960  54.5485320 142.0190750   5.8275340  51.5898680 127.6332550
   6.1077630  50.7466580 127.9891970   5.0541070  51.8221790 128.1471300
   1.9818470  68.6447930 140.0739990   1.9077170  69.5483070 140.3812360
   1.0797310  68.3259830 140.0462060   2.5303800  67.8106440 127.6966350
   3.4254590  68.1491410 127.7185110   2.5621430  67.0885850 127.0690630
   9.5098150  66.3410110 140.4032550   8.9100140  66.4002670 139.6596470
   9.6392050  65.4015090 140.5329400  10.7499600  64.0827930 125.7402260
   9.9192560  64.1504580 126.2109490  10.9271430  64.9732050 125.4369120
  10.2056060  60.8275410 128.2436460  10.9674970  61.3972060 128.3496150
  10.2210430  60.2602610 129.0144770  11.2116030  61.6825510 133.0878390
  11.5824860  60.8992830 132.6814360  11.8517960  62.3714610 132.9095690
   8.1949790  63.0662090 138.5008710   7.3809630  63.4959250 138.7634500
   8.6023990  63.6780500 137.8877760  10.2575230  61.1209780 125.4008980
  10.5324070  62.0288660 125.2728200  10.0685970  61.0572310 126.3370970
   6.6550840  54.1454630 126.6962610   7.0735720  53.9585610 125.8559270
   6.3486900  53.2933680 127.0065540  10.1540570  59.0578770 130.3938410
   9.7784170  58.2906700 129.9619700   9.4243690  59.4401470 130.8813340
   9.5440190  58.2050290 140.0277930   9.3126280  57.9763040 139.1275880
   9.8044740  59.1249840 139.9822820   7.9828260  53.4306720 142.8057630
   8.8598440  53.4390120 143.1891630   7.9949100  52.6937560 142.1949980
   9.4291530  57.2836260 133.6945650   9.9529010  56.7898910 133.0635820
  10.0150950  57.4186620 134.4393220   9.6081250  57.3676130 137.2165200
   8.6583960  57.3339670 137.3310190   9.7894260  58.2776240 136.9814970
   8.9191500  56.5409610 129.6338060   9.4150620  56.3080480 130.4186940
   8.7207570  55.7021450 129.2175700  10.3478660  55.1770560 132.1675740
  10.2377940  55.0226600 133.1058010  11.1086250  54.6491500 131.9251150
   8.6944380  51.1164690 138.6258740   9.3316600  51.7298830 138.9917930
   8.8419270  51.1525350 137.6807970  11.2368930  53.0078480 125.4081880
  12.1618240  52.8759660 125.2000170  11.2144720  53.0871300 126.3618330
  11.3107420  53.7789140 128.0338590  10.5158920  53.7134260 128.5631500
  11.5150700  54.7139780 128.0223940   8.2525840  67.8180690 132.0276980
   8.8484910  67.4965260 131.3511400   8.5103990  67.3452510 132.8190250
   2.0648860  52.2690880 141.5333840   2.0037750  52.8612710 142.2829250
   3.0049240  52.1616840 141.3884100   4.7023420  51.9260940 141.1726130
   5.3163830  52.2440230 140.5107210   5.2472980  51.4409530 141.7921990
  11.1198600  67.8252570 138.5787970  10.6256880  68.2221440 137.8615100
  10.5111890  67.2001780 138.9725250   5.4431460  50.4893080 137.4995420
   4.5691300  50.8228190 137.2968350   5.3342210  50.0166260 138.3247290
   6.3503440  52.6963950 138.8837140   6.0216800  51.8815710 138.5038870
   7.2985740  52.6533760 138.7602830   8.8038050  68.4675990 135.8574710
   8.3441020  69.2191800 135.4832730   8.1750510  67.7482460 135.7989510
   1.9729270  67.6672720 135.8591820   2.2607080  67.4127020 134.9824830
   2.4852490  67.1150080 136.4497390   3.1906280  51.4062920 136.4388330
   2.4078070  51.8808420 136.7185090   2.8969210  50.5017750 136.3301510
   7.7427350  52.1086020 134.4837420   8.1835440  52.0531120 133.6359020
   7.4734940  53.0244030 134.5547600   9.6065920  51.7401260 132.4946240
   9.5454320  50.7962480 132.3477260  10.3857950  51.8481350 133.0399700
   5.5785480  50.4892120 133.1887430   6.1814850  51.0612330 133.6635950
   4.8378470  51.0531560 132.9661330   8.7220080  50.8913680 128.4627710
   8.9170710  51.7897130 128.7295140   7.9349950  50.6600760 128.9560660
   2.0401630  68.5888820 143.2260020   2.9668940  68.3533090 143.2695980
   2.0252060  69.4160820 142.7446050  10.2746690  68.1314390 130.2234270
  10.4498880  67.4452130 129.5795190   9.5768260  68.6561440 129.8310940
   5.8280700  50.6687150 143.5682370   5.7146150  50.9881760 144.4633890
   6.6450440  51.0699660 143.2719650   8.6079190  67.8158680 143.0501060
   9.4004510  67.3207910 142.8427020   8.9012340  68.4948820 143.6576670
   4.7338850  58.6879620 113.9317110   4.6532900  57.7734230 113.6608820
   4.3203270  59.1846690 113.2256820   2.8656890  60.4658640 115.8126380
   2.0898990  59.9859080 116.1024950   3.5169820  59.7864290 115.6382540
   6.8864320  64.8718830 114.5925510   6.4245850  64.1006070 114.9212680
   7.6989870  64.8984900 115.0977960   3.1127630  67.1576840 114.2129500
   2.4939070  67.6134340 113.6423940   3.9679410  67.3128300 113.8119200
   2.3065880  63.1415830 115.8196540   2.2374160  62.2005770 115.6585670
   3.0685740  63.2317240 116.3919110   3.3371050  55.9486210 116.0465470
   3.7135870  55.0758090 115.9339140   3.2390560  56.2844910 115.1555910
   7.1195170  53.4436650 112.9793810   7.9404790  52.9533220 113.0219290
   7.1529250  54.0334310 113.7325650  11.4094720  55.4603400 119.5437440
  10.7046890  55.8485110 119.0252550  11.6752640  56.1553690 120.1458370
   3.9790980  62.0416080 111.6061410   3.3608250  62.5065530 111.0424130
   4.4914230  62.7343560 112.0230920   7.3556650  55.3837030 115.7521350
   6.6512220  55.6721920 116.3324460   7.7168810  56.1937140 115.3920910
   8.9719430  65.0012160 118.0148830   8.2882950  65.6711270 118.0065500
   9.5113720  65.1992810 117.2493690  10.4243570  54.8291820 116.1430560
   9.4768480  54.8630800 116.2745990  10.7493560  55.6430770 116.5279920
   6.5078170  66.8456290 116.7294010   6.5205330  66.4418580 115.8616270
   5.9553390  67.6203580 116.6255440   7.8023590  63.5672510 111.8184180
   7.6919920  62.6246840 111.9433600   7.7991840  63.9288150 112.7046940
   5.9063610  61.7486130 118.0576620   6.3232400  61.5346240 117.2230080
   6.6303430  62.0058920 118.6285240   3.3443870  59.1937830 111.1746670
   2.4173150  59.1275210 111.4035140   3.4968690  60.1317960 111.0601910
   3.3312950  55.4654830 108.1713830   2.3916620  55.6268790 108.2566290
   3.6496210  56.1840510 107.6249820   9.8525710  60.1473350 118.1492860
   9.0244340  60.2166440 117.6742990  10.4476190  60.7327660 117.6808690
   7.3741160  60.7558130 111.6781920   6.7553580  60.4177680 111.0308220
   7.3565610  60.1117890 112.3861110   6.8167720  56.9342670 119.0947730
   6.4038900  57.7596380 119.3487720   6.0843670  56.3487710 118.9024090
   7.5067820  66.9802000 119.7828710   7.0298380  67.7874190 119.5901320
   6.8229610  66.3280330 119.9354920   5.5505860  59.9944940 108.6854670
   5.9899140  59.1567370 108.5392490   6.2634280  60.6274340 108.7718810
   3.6601240  64.9341010 112.6535910   4.0997150  65.6765340 112.2391300
   3.5988130  65.1767580 113.5774870   9.1323000  51.2487750 106.9995710
   8.8195660  51.3414580 107.8994780   9.8935470  51.8268780 106.9493140
  11.0867030  66.7413940 124.8520100  11.5626750  67.2196830 125.5309180
  11.7074190  66.6731430 124.1265600  10.4900280  63.9326790 122.0120110
  10.6163340  63.6938670 121.0937290  10.5321660  63.1011330 122.4842190
   4.3517020  67.6354790 120.5814920   4.8661690  67.5462800 121.3837350
   3.5086100  67.9814490 120.8742830   6.3271420  67.9210130 110.0098920
   6.1672560  67.6313070 110.9080750   6.1618130  67.1450260 109.4744150
   6.0297550  65.4297690 108.5696920   5.3362710  65.4274980 107.9099200
   6.7720410  65.0057010 108.1391090   5.5947480  67.0560400 112.6445410
   6.0504430  66.2749780 112.9584030   5.9340000  67.7667220 113.1886590
  10.3424290  55.9859250 122.9769850   9.7268560  56.4938920 122.4485310
  10.0220710  55.0857580 122.9195790   2.4038610  54.8251140 120.4432040
   1.9417980  55.0334160 121.2551980   2.0016720  54.0110490 120.1402710
   7.4043120  56.0460090 121.5728700   6.5536710  55.7465840 121.8937770
   7.2444910  56.2902100 120.6612520   4.4992830  57.5461840 123.6727490
   4.8246240  56.7125590 123.3329720   5.2873160  58.0690360 123.8205820
   5.1380780  57.0879560 111.1668620   4.5389670  57.8115360 110.9832240
   5.6860390  57.0256340 110.3845070   3.7445650  55.7243100 113.1971900
   4.1375220  56.0415300 112.3840590   4.1062500  54.8454980 113.3116420
   2.0537820  54.4750410 124.4568760   1.3636140  54.2822610 125.0914850
   2.7970120  54.7585050 124.9893060   4.3300790  58.3148850 117.2922680
   3.5981910  58.8235660 117.6412780   3.9325130  57.4978830 116.9911460
   4.7926700  53.7682530 116.7045620   4.8099440  54.2191180 117.5487470
   4.5442280  52.8688170 116.9179060   8.2197450  51.1814710 122.5432000
   8.5443220  50.4504370 123.0689980   8.2553960  50.8628350 121.6412990
   8.1455290  61.2939820 116.1518030   8.8654410  61.7895110 115.7614140
   7.9437110  60.6157710 115.5071900   3.6065230  52.6877780 110.2947420
   2.7929840  52.1890950 110.2192730   3.4127180  53.5276030 109.8783770
   3.5274090  61.3648880 122.0387030   3.4611400  60.4444550 121.7844620
   2.8979230  61.4624320 122.7531670   6.3213620  57.0597430 108.5909580
   7.2093240  57.3714660 108.4160920   6.2918710  56.1869680 108.1990160
   2.3174210  63.2321120 109.2697750   2.6589910  63.9763350 108.7741070
   1.4886920  63.5452240 109.6322580   3.4590820  64.1869450 121.7890830
   3.4735360  63.2550410 121.5709740   2.7515920  64.2729210 122.4280600
   8.5927890  58.3709270 108.0589440   8.5091610  58.8023490 107.2085880
   9.3122080  58.8307620 108.4916260   9.6702030  60.8276790 121.1359410
   8.9450220  61.4205570 120.9388800  10.1977490  60.8200330 120.3372780
   9.6215140  65.2251530 110.7871570   8.9791300  64.5707150 111.0615290
   9.2345800  65.6306620 110.0112240   5.2001620  62.5536960 114.6343260
   5.5525440  61.9565090 113.9744630   4.3163950  62.2281190 114.8051510
   2.8924720  65.8287020 118.8831330   3.5366940  66.0346400 119.5604750
   3.2554160  65.0675420 118.4302180   4.1656800  63.8319370 117.6008780
   4.8079030  63.1312530 117.7140950   4.6906150  64.6117810 117.4205670
   8.0112520  64.1167990 107.3247920   7.7850100  63.3998430 107.9172560
   7.6208720  63.8680430 106.4869670   5.9394420  64.6314270 120.8044840
   6.2750660  65.2180960 121.4822760   5.0194760  64.5006980 121.0342630
   7.5928770  62.0339930 108.9862080   7.3050470  62.4952620 109.7739960
   8.3880940  61.5737700 109.2546300   1.7683000  64.6805600 123.9732900
   1.4479870  63.9614840 124.5178590   1.0941360  65.3560670 124.0468960
   4.9836600  54.9131760 119.3369700   5.3517420  54.0926970 119.6649270
   4.1234800  54.9733650 119.7525350   8.3498630  53.8688700 110.1457260
   7.7211790  53.9734370 109.4315490   7.8550550  54.0885480 110.9351140
   2.7956770  65.5894290 107.5791240   2.8968750  65.3858280 106.6493220
   1.8958510  65.3352570 107.7839020   1.9438590  57.5671350 119.5607670
   2.4423840  58.0417170 120.2259520   2.0861540  56.6434870 119.7677700
   4.3498090  52.8725310 113.0010930   4.2265870  52.8911440 112.0520440
   5.2982650  52.9204250 113.1209330   9.1505450  53.7839310 120.4036060
   8.6479050  54.5244710 120.7429870   9.9662110  54.1723310 120.0872850
   7.4427460  59.0272490 113.8497420   6.5017600  59.0422720 114.0245110
   7.7571530  58.2408450 114.2957720   9.4453040  66.1981340 115.5251680
   9.5700460  67.0212510 115.9975490  10.3118600  65.9872070 115.1775830
   4.7593480  63.5838490 124.3329800   4.1531640  63.6070090 123.5925550
   4.4547590  62.8521530 124.8697050   6.1893850  67.3118780 122.9439210
   7.1415600  67.2276800 122.8939450   6.0422070  67.9760490 123.6173000
   9.0803050  66.6912990 108.4431120   8.7944560  66.2778130 107.6285300
   8.8822600  67.6200700 108.3231640   3.7853010  61.7466300 107.4878720
   3.2363110  62.1935600 108.1321460   4.4072270  61.2415550 108.0116390
   7.8387950  63.1008400 123.4200980   8.5797420  63.4384160 122.9168440
   7.0760630  63.2700460 122.8670750   1.9655770  59.7294830 106.6321120
   2.4861430  59.0143850 106.2662270   2.6124170  60.3680700 106.9321630
   6.5133610  61.1523230 121.9556190   6.9274630  61.3068310 122.8046610
   5.5784610  61.2778450 122.1181970   6.9855780  58.4919390 123.9595340
   7.5676550  57.7371710 123.8715820   7.1617550  59.0226830 123.1826820
   3.6112740  58.8359890 121.3089960   3.7308950  58.2401030 122.0484800
   4.4706740  58.8729580 120.8891260   5.9500640  59.3897080 119.8852470
   5.4235860  59.9139700 119.2817610   6.2931980  60.0224470 120.5162200
   5.1974940  54.9947050 122.7998800   4.5090460  54.3328590 122.7348790
   5.9180960  54.5485320 123.2447260   5.8275340  51.5898680 108.8589060
   6.1077630  50.7466580 109.2148480   5.0541070  51.8221790 109.3727810
   1.9818470  68.6447930 121.2996500   1.9077170  69.5483070 121.6068870
   1.0797310  68.3259830 121.2718570   2.5303800  67.8106440 108.9222860
   3.4254590  68.1491410 108.9441620   2.5621430  67.0885850 108.2947140
   9.5098150  66.3410110 121.6289060   8.9100140  66.4002670 120.8852980
   9.6392050  65.4015090 121.7585910  10.7499600  64.0827930 106.9658770
   9.9192560  64.1504580 107.4366000  10.9271430  64.9732050 106.6625630
  10.2056060  60.8275410 109.4692970  10.9674970  61.3972060 109.5752660
  10.2210430  60.2602610 110.2401280  11.2116030  61.6825510 114.3134900
  11.5824860  60.8992830 113.9070870  11.8517960  62.3714610 114.1352200
   8.1949790  63.0662090 119.7265220   7.3809630  63.4959250 119.9891010
   8.6023990  63.6780500 119.1134270  10.2575230  61.1209780 106.6265490
  10.5324070  62.0288660 106.4984710  10.0685970  61.0572310 107.5627480
   6.6550840  54.1454630 107.9219120   7.0735720  53.9585610 107.0815780
   6.3486900  53.2933680 108.2322050  10.1540570  59.0578770 111.6194920
   9.7784170  58.2906700 111.1876210   9.4243690  59.4401470 112.1069850
   9.5440190  58.2050290 121.2534440   9.3126280  57.9763040 120.3532390
   9.8044740  59.1249840 121.2079330   7.9828260  53.4306720 124.0314140
   8.8598440  53.4390120 124.4148140   7.9949100  52.6937560 123.4206490
   9.4291530  57.2836260 114.9202160   9.9529010  56.7898910 114.2892330
  10.0150950  57.4186620 115.6649730   9.6081250  57.3676130 118.4421710
   8.6583960  57.3339670 118.5566700   9.7894260  58.2776240 118.2071480
   8.9191500  56.5409610 110.8594570   9.4150620  56.3080480 111.6443450
   8.7207570  55.7021450 110.4432210  10.3478660  55.1770560 113.3932250
  10.2377940  55.0226600 114.3314520  11.1086250  54.6491500 113.1507660
   8.6944380  51.1164690 119.8515250   9.3316600  51.7298830 120.2174440
   8.8419270  51.1525350 118.9064480  11.2368930  53.0078480 106.6338390
  12.1618240  52.8759660 106.4256680  11.2144720  53.0871300 107.5874840
  11.3107420  53.7789140 109.2595100  10.5158920  53.7134260 109.7888010
  11.5150700  54.7139780 109.2480450   8.2525840  67.8180690 113.2533490
   8.8484910  67.4965260 112.5767910   8.5103990  67.3452510 114.0446760
   2.0648860  52.2690880 122.7590350   2.0037750  52.8612710 123.5085760
   3.0049240  52.1616840 122.6140610   4.7023420  51.9260940 122.3982640
   5.3163830  52.2440230 121.7363720   5.2472980  51.4409530 123.0178500
  11.1198600  67.8252570 119.8044480  10.6256880  68.2221440 119.0871610
  10.5111890  67.2001780 120.1981760   5.4431460  50.4893080 118.7251930
   4.5691300  50.8228190 118.5224860   5.3342210  50.0166260 119.5503800
   6.3503440  52.6963950 120.1093650   6.0216800  51.8815710 119.7295380
   7.2985740  52.6533760 119.9859340   8.8038050  68.4675990 117.0831220
   8.3441020  69.2191800 116.7089240   8.1750510  67.7482460 117.0246020
   1.9729270  67.6672720 117.0848330   2.2607080  67.4127020 116.2081340
   2.4852490  67.1150080 117.6753900   3.1906280  51.4062920 117.6644840
   2.4078070  51.8808420 117.9441600   2.8969210  50.5017750 117.5558020
   7.7427350  52.1086020 115.7093930   8.1835440  52.0531120 114.8615530
   7.4734940  53.0244030 115.7804110   9.6065920  51.7401260 113.7202750
   9.5454320  50.7962480 113.5733770  10.3857950  51.8481350 114.2656210
   5.5785480  50.4892120 114.4143940   6.1814850  51.0612330 114.8892460
   4.8378470  51.0531560 114.1917840   8.7220080  50.8913680 109.6884220
   8.9170710  51.7897130 109.9551650   7.9349950  50.6600760 110.1817170
   2.0401630  68.5888820 124.4516530   2.9668940  68.3533090 124.4952490
   2.0252060  69.4160820 123.9702560  10.2746690  68.1314390 111.4490780
  10.4498880  67.4452130 110.8051700   9.5768260  68.6561440 111.0567450
   5.8280700  50.6687150 124.7938880   5.7146150  50.9881760 125.6890400
   6.6450440  51.0699660 124.4976160   8.6079190  67.8158680 124.2757570
   9.4004510  67.3207910 124.0683530   8.9012340  68.4948820 124.8833180
   4.7338850  58.6879620  95.1573620   4.6532900  57.7734230  94.8865330
   4.3203270  59.1846690  94.4513330   2.8656890  60.4658640  97.0382890
   2.0898990  59.9859080  97.3281460   3.5169820  59.7864290  96.8639050
   6.8864320  64.8718830  95.8182020   6.4245850  64.1006070  96.1469190
   7.6989870  64.8984900  96.3234470   3.1127630  67.1576840  95.4386010
   2.4939070  67.6134340  94.8680450   3.9679410  67.3128300  95.0375710
   2.3065880  63.1415830  97.0453050   2.2374160  62.2005770  96.8842180
   3.0685740  63.2317240  97.6175620   3.3371050  55.9486210  97.2721980
   3.7135870  55.0758090  97.1595650   3.2390560  56.2844910  96.3812420
   7.1195170  53.4436650  94.2050320   7.9404790  52.9533220  94.2475800
   7.1529250  54.0334310  94.9582160  11.4094720  55.4603400 100.7693950
  10.7046890  55.8485110 100.2509060  11.6752640  56.1553690 101.3714880
   3.9790980  62.0416080  92.8317920   3.3608250  62.5065530  92.2680640
   4.4914230  62.7343560  93.2487430   7.3556650  55.3837030  96.9777860
   6.6512220  55.6721920  97.5580970   7.7168810  56.1937140  96.6177420
   8.9719430  65.0012160  99.2405340   8.2882950  65.6711270  99.2322010
   9.5113720  65.1992810  98.4750200  10.4243570  54.8291820  97.3687070
   9.4768480  54.8630800  97.5002500  10.7493560  55.6430770  97.7536430
   6.5078170  66.8456290  97.9550520   6.5205330  66.4418580  97.0872780
   5.9553390  67.6203580  97.8511950   7.8023590  63.5672510  93.0440690
   7.6919920  62.6246840  93.1690110   7.7991840  63.9288150  93.9303450
   5.9063610  61.7486130  99.2833130   6.3232400  61.5346240  98.4486590
   6.6303430  62.0058920  99.8541750   3.3443870  59.1937830  92.4003180
   2.4173150  59.1275210  92.6291650   3.4968690  60.1317960  92.2858420
   3.3312950  55.4654830  89.3970340   2.3916620  55.6268790  89.4822800
   3.6496210  56.1840510  88.8506330   9.8525710  60.1473350  99.3749370
   9.0244340  60.2166440  98.8999500  10.4476190  60.7327660  98.9065200
   7.3741160  60.7558130  92.9038430   6.7553580  60.4177680  92.2564730
   7.3565610  60.1117890  93.6117620   6.8167720  56.9342670 100.3204240
   6.4038900  57.7596380 100.5744230   6.0843670  56.3487710 100.1280600
   7.5067820  66.9802000 101.0085220   7.0298380  67.7874190 100.8157830
   6.8229610  66.3280330 101.1611430   5.5505860  59.9944940  89.9111180
   5.9899140  59.1567370  89.7649000   6.2634280  60.6274340  89.9975320
   3.6601240  64.9341010  93.8792420   4.0997150  65.6765340  93.4647810
   3.5988130  65.1767580  94.8031380   9.1323000  51.2487750  88.2252220
   8.8195660  51.3414580  89.1251290   9.8935470  51.8268780  88.1749650
  11.0867030  66.7413940 106.0776610  11.5626750  67.2196830 106.7565690
  11.7074190  66.6731430 105.3522110  10.4900280  63.9326790 103.2376620
  10.6163340  63.6938670 102.3193800  10.5321660  63.1011330 103.7098700
   4.3517020  67.6354790 101.8071430   4.8661690  67.5462800 102.6093860
   3.5086100  67.9814490 102.0999340   6.3271420  67.9210130  91.2355430
   6.1672560  67.6313070  92.1337260   6.1618130  67.1450260  90.7000660
   6.0297550  65.4297690  89.7953430   5.3362710  65.4274980  89.1355710
   6.7720410  65.0057010  89.3647600   5.5947480  67.0560400  93.8701920
   6.0504430  66.2749780  94.1840540   5.9340000  67.7667220  94.4143100
  10.3424290  55.9859250 104.2026360   9.7268560  56.4938920 103.6741820
  10.0220710  55.0857580 104.1452300   2.4038610  54.8251140 101.6688550
   1.9417980  55.0334160 102.4808490   2.0016720  54.0110490 101.3659220
   7.4043120  56.0460090 102.7985210   6.5536710  55.7465840 103.1194280
   7.2444910  56.2902100 101.8869030   4.4992830  57.5461840 104.8984000
   4.8246240  56.7125590 104.5586230   5.2873160  58.0690360 105.0462330
   5.1380780  57.0879560  92.3925130   4.5389670  57.8115360  92.2088750
   5.6860390  57.0256340  91.6101580   3.7445650  55.7243100  94.4228410
   4.1375220  56.0415300  93.6097100   4.1062500  54.8454980  94.5372930
   2.0537820  54.4750410 105.6825270   1.3636140  54.2822610 106.3171360
   2.7970120  54.7585050 106.2149570   4.3300790  58.3148850  98.5179190
   3.5981910  58.8235660  98.8669290   3.9325130  57.4978830  98.2167970
   4.7926700  53.7682530  97.9302130   4.8099440  54.2191180  98.7743980
   4.5442280  52.8688170  98.1435570   8.2197450  51.1814710 103.7688510
   8.5443220  50.4504370 104.2946490   8.2553960  50.8628350 102.8669500
   8.1455290  61.2939820  97.3774540   8.8654410  61.7895110  96.9870650
   7.9437110  60.6157710  96.7328410   3.6065230  52.6877780  91.5203930
   2.7929840  52.1890950  91.4449240   3.4127180  53.5276030  91.1040280
   3.5274090  61.3648880 103.2643540   3.4611400  60.4444550 103.0101130
   2.8979230  61.4624320 103.9788180   6.3213620  57.0597430  89.8166090
   7.2093240  57.3714660  89.6417430   6.2918710  56.1869680  89.4246670
   2.3174210  63.2321120  90.4954260   2.6589910  63.9763350  89.9997580
   1.4886920  63.5452240  90.8579090   3.4590820  64.1869450 103.0147340
   3.4735360  63.2550410 102.7966250   2.7515920  64.2729210 103.6537110
   8.5927890  58.3709270  89.2845950   8.5091610  58.8023490  88.4342390
   9.3122080  58.8307620  89.7172770   9.6702030  60.8276790 102.3615920
   8.9450220  61.4205570 102.1645310  10.1977490  60.8200330 101.5629290
   9.6215140  65.2251530  92.0128080   8.9791300  64.5707150  92.2871800
   9.2345800  65.6306620  91.2368750   5.2001620  62.5536960  95.8599770
   5.5525440  61.9565090  95.2001140   4.3163950  62.2281190  96.0308020
   2.8924720  65.8287020 100.1087840   3.5366940  66.0346400 100.7861260
   3.2554160  65.0675420  99.6558690   4.1656800  63.8319370  98.8265290
   4.8079030  63.1312530  98.9397460   4.6906150  64.6117810  98.6462180
   8.0112520  64.1167990  88.5504430   7.7850100  63.3998430  89.1429070
   7.6208720  63.8680430  87.7126180   5.9394420  64.6314270 102.0301350
   6.2750660  65.2180960 102.7079270   5.0194760  64.5006980 102.2599140
   7.5928770  62.0339930  90.2118590   7.3050470  62.4952620  90.9996470
   8.3880940  61.5737700  90.4802810   1.7683000  64.6805600 105.1989410
   1.4479870  63.9614840 105.7435100   1.0941360  65.3560670 105.2725470
   4.9836600  54.9131760 100.5626210   5.3517420  54.0926970 100.8905780
   4.1234800  54.9733650 100.9781860   8.3498630  53.8688700  91.3713770
   7.7211790  53.9734370  90.6572000   7.8550550  54.0885480  92.1607650
   2.7956770  65.5894290  88.8047750   2.8968750  65.3858280  87.8749730
   1.8958510  65.3352570  89.0095530   1.9438590  57.5671350 100.7864180
   2.4423840  58.0417170 101.4516030   2.0861540  56.6434870 100.9934210
   4.3498090  52.8725310  94.2267440   4.2265870  52.8911440  93.2776950
   5.2982650  52.9204250  94.3465840   9.1505450  53.7839310 101.6292570
   8.6479050  54.5244710 101.9686380   9.9662110  54.1723310 101.3129360
   7.4427460  59.0272490  95.0753930   6.5017600  59.0422720  95.2501620
   7.7571530  58.2408450  95.5214230   9.4453040  66.1981340  96.7508190
   9.5700460  67.0212510  97.2232000  10.3118600  65.9872070  96.4032340
   4.7593480  63.5838490 105.5586310   4.1531640  63.6070090 104.8182060
   4.4547590  62.8521530 106.0953560   6.1893850  67.3118780 104.1695720
   7.1415600  67.2276800 104.1195960   6.0422070  67.9760490 104.8429510
   9.0803050  66.6912990  89.6687630   8.7944560  66.2778130  88.8541810
   8.8822600  67.6200700  89.5488150   3.7853010  61.7466300  88.7135230
   3.2363110  62.1935600  89.3577970   4.4072270  61.2415550  89.2372900
   7.8387950  63.1008400 104.6457490   8.5797420  63.4384160 104.1424950
   7.0760630  63.2700460 104.0927260   1.9655770  59.7294830  87.8577630
   2.4861430  59.0143850  87.4918780   2.6124170  60.3680700  88.1578140
   6.5133610  61.1523230 103.1812700   6.9274630  61.3068310 104.0303120
   5.5784610  61.2778450 103.3438480   6.9855780  58.4919390 105.1851850
   7.5676550  57.7371710 105.0972330   7.1617550  59.0226830 104.4083330
   3.6112740  58.8359890 102.5346470   3.7308950  58.2401030 103.2741310
   4.4706740  58.8729580 102.1147770   5.9500640  59.3897080 101.1108980
   5.4235860  59.9139700 100.5074120   6.2931980  60.0224470 101.7418710
   5.1974940  54.9947050 104.0255310   4.5090460  54.3328590 103.9605300
   5.9180960  54.5485320 104.4703770   5.8275340  51.5898680  90.0845570
   6.1077630  50.7466580  90.4404990   5.0541070  51.8221790  90.5984320
   1.9818470  68.6447930 102.5253010   1.9077170  69.5483070 102.8325380
   1.0797310  68.3259830 102.4975080   2.5303800  67.8106440  90.1479370
   3.4254590  68.1491410  90.1698130   2.5621430  67.0885850  89.5203650
   9.5098150  66.3410110 102.8545570   8.9100140  66.4002670 102.1109490
   9.6392050  65.4015090 102.9842420  10.7499600  64.0827930  88.1915280
   9.9192560  64.1504580  88.6622510  10.9271430  64.9732050  87.8882140
  10.2056060  60.8275410  90.6949480  10.9674970  61.3972060  90.8009170
  10.2210430  60.2602610  91.4657790  11.2116030  61.6825510  95.5391410
  11.5824860  60.8992830  95.1327380  11.8517960  62.3714610  95.3608710
   8.1949790  63.0662090 100.9521730   7.3809630  63.4959250 101.2147520
   8.6023990  63.6780500 100.3390780  10.2575230  61.1209780  87.8522000
  10.5324070  62.0288660  87.7241220  10.0685970  61.0572310  88.7883990
   6.6550840  54.1454630  89.1475630   7.0735720  53.9585610  88.3072290
   6.3486900  53.2933680  89.4578560  10.1540570  59.0578770  92.8451430
   9.7784170  58.2906700  92.4132720   9.4243690  59.4401470  93.3326360
   9.5440190  58.2050290 102.4790950   9.3126280  57.9763040 101.5788900
   9.8044740  59.1249840 102.4335840   7.9828260  53.4306720 105.2570650
   8.8598440  53.4390120 105.6404650   7.9949100  52.6937560 104.6463000
   9.4291530  57.2836260  96.1458670   9.9529010  56.7898910  95.5148840
  10.0150950  57.4186620  96.8906240   9.6081250  57.3676130  99.6678220
   8.6583960  57.3339670  99.7823210   9.7894260  58.2776240  99.4327990
   8.9191500  56.5409610  92.0851080   9.4150620  56.3080480  92.8699960
   8.7207570  55.7021450  91.6688720  10.3478660  55.1770560  94.6188760
  10.2377940  55.0226600  95.5571030  11.1086250  54.6491500  94.3764170
   8.6944380  51.1164690 101.0771760   9.3316600  51.7298830 101.4430950
   8.8419270  51.1525350 100.1320990  11.2368930  53.0078480  87.8594900
  12.1618240  52.8759660  87.6513190  11.2144720  53.0871300  88.8131350
  11.3107420  53.7789140  90.4851610  10.5158920  53.7134260  91.0144520
  11.5150700  54.7139780  90.4736960   8.2525840  67.8180690  94.4790000
   8.8484910  67.4965260  93.8024420   8.5103990  67.3452510  95.2703270
   2.0648860  52.2690880 103.9846860   2.0037750  52.8612710 104.7342270
   3.0049240  52.1616840 103.8397120   4.7023420  51.9260940 103.6239150
   5.3163830  52.2440230 102.9620230   5.2472980  51.4409530 104.2435010
  11.1198600  67.8252570 101.0300990  10.6256880  68.2221440 100.3128120
  10.5111890  67.2001780 101.4238270   5.4431460  50.4893080  99.9508440
   4.5691300  50.8228190  99.7481370   5.3342210  50.0166260 100.7760310
   6.3503440  52.6963950 101.3350160   6.0216800  51.8815710 100.9551890
   7.2985740  52.6533760 101.2115850   8.8038050  68.4675990  98.3087730
   8.3441020  69.2191800  97.9345750   8.1750510  67.7482460  98.2502530
   1.9729270  67.6672720  98.3104840   2.2607080  67.4127020  97.4337850
   2.4852490  67.1150080  98.9010410   3.1906280  51.4062920  98.8901350
   2.4078070  51.8808420  99.1698110   2.8969210  50.5017750  98.7814530
   7.7427350  52.1086020  96.9350440   8.1835440  52.0531120  96.0872040
   7.4734940  53.0244030  97.0060620   9.6065920  51.7401260  94.9459260
   9.5454320  50.7962480  94.7990280  10.3857950  51.8481350  95.4912720
   5.5785480  50.4892120  95.6400450   6.1814850  51.0612330  96.1148970
   4.8378470  51.0531560  95.4174350   8.7220080  50.8913680  90.9140730
   8.9170710  51.7897130  91.1808160   7.9349950  50.6600760  91.4073680
   2.0401630  68.5888820 105.6773040   2.9668940  68.3533090 105.7209000
   2.0252060  69.4160820 105.1959070  10.2746690  68.1314390  92.6747290
  10.4498880  67.4452130  92.0308210   9.5768260  68.6561440  92.2823960
   5.8280700  50.6687150 106.0195390   5.7146150  50.9881760 106.9146910
   6.6450440  51.0699660 105.7232670   8.6079190  67.8158680 105.5014080
   9.4004510  67.3207910 105.2940040   8.9012340  68.4948820 106.1089690
   4.7338850  58.6879620  76.3830130   4.6532900  57.7734230  76.1121840
   4.3203270  59.1846690  75.6769840   2.8656890  60.4658640  78.2639400
   2.0898990  59.9859080  78.5537970   3.5169820  59.7864290  78.0895560
   6.8864320  64.8718830  77.0438530   6.4245850  64.1006070  77.3725700
   7.6989870  64.8984900  77.5490980   3.1127630  67.1576840  76.6642520
   2.4939070  67.6134340  76.0936960   3.9679410  67.3128300  76.2632220
   2.3065880  63.1415830  78.2709560   2.2374160  62.2005770  78.1098690
   3.0685740  63.2317240  78.8432130   3.3371050  55.9486210  78.4978490
   3.7135870  55.0758090  78.3852160   3.2390560  56.2844910  77.6068930
   7.1195170  53.4436650  75.4306830   7.9404790  52.9533220  75.4732310
   7.1529250  54.0334310  76.1838670  11.4094720  55.4603400  81.9950460
  10.7046890  55.8485110  81.4765570  11.6752640  56.1553690  82.5971390
   3.9790980  62.0416080  74.0574430   3.3608250  62.5065530  73.4937150
   4.4914230  62.7343560  74.4743940   7.3556650  55.3837030  78.2034370
   6.6512220  55.6721920  78.7837480   7.7168810  56.1937140  77.8433930
   8.9719430  65.0012160  80.4661850   8.2882950  65.6711270  80.4578520
   9.5113720  65.1992810  79.7006710  10.4243570  54.8291820  78.5943580
   9.4768480  54.8630800  78.7259010  10.7493560  55.6430770  78.9792940
   6.5078170  66.8456290  79.1807030   6.5205330  66.4418580  78.3129290
   5.9553390  67.6203580  79.0768460   7.8023590  63.5672510  74.2697200
   7.6919920  62.6246840  74.3946620   7.7991840  63.9288150  75.1559960
   5.9063610  61.7486130  80.5089640   6.3232400  61.5346240  79.6743100
   6.6303430  62.0058920  81.0798260   3.3443870  59.1937830  73.6259690
   2.4173150  59.1275210  73.8548160   3.4968690  60.1317960  73.5114930
   3.3312950  55.4654830  70.6226850   2.3916620  55.6268790  70.7079310
   3.6496210  56.1840510  70.0762840   9.8525710  60.1473350  80.6005880
   9.0244340  60.2166440  80.1256010  10.4476190  60.7327660  80.1321710
   7.3741160  60.7558130  74.1294940   6.7553580  60.4177680  73.4821240
   7.3565610  60.1117890  74.8374130   6.8167720  56.9342670  81.5460750
   6.4038900  57.7596380  81.8000740   6.0843670  56.3487710  81.3537110
   7.5067820  66.9802000  82.2341730   7.0298380  67.7874190  82.0414340
   6.8229610  66.3280330  82.3867940   5.5505860  59.9944940  71.1367690
   5.9899140  59.1567370  70.9905510   6.2634280  60.6274340  71.2231830
   3.6601240  64.9341010  75.1048930   4.0997150  65.6765340  74.6904320
   3.5988130  65.1767580  76.0287890   9.1323000  51.2487750  69.4508730
   8.8195660  51.3414580  70.3507800   9.8935470  51.8268780  69.4006160
  11.0867030  66.7413940  87.3033120  11.5626750  67.2196830  87.9822200
  11.7074190  66.6731430  86.5778620  10.4900280  63.9326790  84.4633130
  10.6163340  63.6938670  83.5450310  10.5321660  63.1011330  84.9355210
   4.3517020  67.6354790  83.0327940   4.8661690  67.5462800  83.8350370
   3.5086100  67.9814490  83.3255850   6.3271420  67.9210130  72.4611940
   6.1672560  67.6313070  73.3593770   6.1618130  67.1450260  71.9257170
   6.0297550  65.4297690  71.0209940   5.3362710  65.4274980  70.3612220
   6.7720410  65.0057010  70.5904110   5.5947480  67.0560400  75.0958430
   6.0504430  66.2749780  75.4097050   5.9340000  67.7667220  75.6399610
  10.3424290  55.9859250  85.4282870   9.7268560  56.4938920  84.8998330
  10.0220710  55.0857580  85.3708810   2.4038610  54.8251140  82.8945060
   1.9417980  55.0334160  83.7065000   2.0016720  54.0110490  82.5915730
   7.4043120  56.0460090  84.0241720   6.5536710  55.7465840  84.3450790
   7.2444910  56.2902100  83.1125540   4.4992830  57.5461840  86.1240510
   4.8246240  56.7125590  85.7842740   5.2873160  58.0690360  86.2718840
   5.1380780  57.0879560  73.6181640   4.5389670  57.8115360  73.4345260
   5.6860390  57.0256340  72.8358090   3.7445650  55.7243100  75.6484920
   4.1375220  56.0415300  74.8353610   4.1062500  54.8454980  75.7629440
   2.0537820  54.4750410  86.9081780   1.3636140  54.2822610  87.5427870
   2.7970120  54.7585050  87.4406080   4.3300790  58.3148850  79.7435700
   3.5981910  58.8235660  80.0925800   3.9325130  57.4978830  79.4424480
   4.7926700  53.7682530  79.1558640   4.8099440  54.2191180  80.0000490
   4.5442280  52.8688170  79.3692080   8.2197450  51.1814710  84.9945020
   8.5443220  50.4504370  85.5203000   8.2553960  50.8628350  84.0926010
   8.1455290  61.2939820  78.6031050   8.8654410  61.7895110  78.2127160
   7.9437110  60.6157710  77.9584920   3.6065230  52.6877780  72.7460440
   2.7929840  52.1890950  72.6705750   3.4127180  53.5276030  72.3296790
   3.5274090  61.3648880  84.4900050   3.4611400  60.4444550  84.2357640
   2.8979230  61.4624320  85.2044690   6.3213620  57.0597430  71.0422600
   7.2093240  57.3714660  70.8673940   6.2918710  56.1869680  70.6503180
   2.3174210  63.2321120  71.7210770   2.6589910  63.9763350  71.2254090
   1.4886920  63.5452240  72.0835600   3.4590820  64.1869450  84.2403850
   3.4735360  63.2550410  84.0222760   2.7515920  64.2729210  84.8793620
   8.5927890  58.3709270  70.5102460   8.5091610  58.8023490  69.6598900
   9.3122080  58.8307620  70.9429280   9.6702030  60.8276790  83.5872430
   8.9450220  61.4205570  83.3901820  10.1977490  60.8200330  82.7885800
   9.6215140  65.2251530  73.2384590   8.9791300  64.5707150  73.5128310
   9.2345800  65.6306620  72.4625260   5.2001620  62.5536960  77.0856280
   5.5525440  61.9565090  76.4257650   4.3163950  62.2281190  77.2564530
   2.8924720  65.8287020  81.3344350   3.5366940  66.0346400  82.0117770
   3.2554160  65.0675420  80.8815200   4.1656800  63.8319370  80.0521800
   4.8079030  63.1312530  80.1653970   4.6906150  64.6117810  79.8718690
   8.0112520  64.1167990  69.7760940   7.7850100  63.3998430  70.3685580
   7.6208720  63.8680430  68.9382690   5.9394420  64.6314270  83.2557860
   6.2750660  65.2180960  83.9335780   5.0194760  64.5006980  83.4855650
   7.5928770  62.0339930  71.4375100   7.3050470  62.4952620  72.2252980
   8.3880940  61.5737700  71.7059320   1.7683000  64.6805600  86.4245920
   1.4479870  63.9614840  86.9691610   1.0941360  65.3560670  86.4981980
   4.9836600  54.9131760  81.7882720   5.3517420  54.0926970  82.1162290
   4.1234800  54.9733650  82.2038370   8.3498630  53.8688700  72.5970280
   7.7211790  53.9734370  71.8828510   7.8550550  54.0885480  73.3864160
   2.7956770  65.5894290  70.0304260   2.8968750  65.3858280  69.1006240
   1.8958510  65.3352570  70.2352040   1.9438590  57.5671350  82.0120690
   2.4423840  58.0417170  82.6772540   2.0861540  56.6434870  82.2190720
   4.3498090  52.8725310  75.4523950   4.2265870  52.8911440  74.5033460
   5.2982650  52.9204250  75.5722350   9.1505450  53.7839310  82.8549080
   8.6479050  54.5244710  83.1942890   9.9662110  54.1723310  82.5385870
   7.4427460  59.0272490  76.3010440   6.5017600  59.0422720  76.4758130
   7.7571530  58.2408450  76.7470740   9.4453040  66.1981340  77.9764700
   9.5700460  67.0212510  78.4488510  10.3118600  65.9872070  77.6288850
   4.7593480  63.5838490  86.7842820   4.1531640  63.6070090  86.0438570
   4.4547590  62.8521530  87.3210070   6.1893850  67.3118780  85.3952230
   7.1415600  67.2276800  85.3452470   6.0422070  67.9760490  86.0686020
   9.0803050  66.6912990  70.8944140   8.7944560  66.2778130  70.0798320
   8.8822600  67.6200700  70.7744660   3.7853010  61.7466300  69.9391740
   3.2363110  62.1935600  70.5834480   4.4072270  61.2415550  70.4629410
   7.8387950  63.1008400  85.8714000   8.5797420  63.4384160  85.3681460
   7.0760630  63.2700460  85.3183770   1.9655770  59.7294830  69.0834140
   2.4861430  59.0143850  68.7175290   2.6124170  60.3680700  69.3834650
   6.5133610  61.1523230  84.4069210   6.9274630  61.3068310  85.2559630
   5.5784610  61.2778450  84.5694990   6.9855780  58.4919390  86.4108360
   7.5676550  57.7371710  86.3228840   7.1617550  59.0226830  85.6339840
   3.6112740  58.8359890  83.7602980   3.7308950  58.2401030  84.4997820
   4.4706740  58.8729580  83.3404280   5.9500640  59.3897080  82.3365490
   5.4235860  59.9139700  81.7330630   6.2931980  60.0224470  82.9675220
   5.1974940  54.9947050  85.2511820   4.5090460  54.3328590  85.1861810
   5.9180960  54.5485320  85.6960280   5.8275340  51.5898680  71.3102080
   6.1077630  50.7466580  71.6661500   5.0541070  51.8221790  71.8240830
   1.9818470  68.6447930  83.7509520   1.9077170  69.5483070  84.0581890
   1.0797310  68.3259830  83.7231590   2.5303800  67.8106440  71.3735880
   3.4254590  68.1491410  71.3954640   2.5621430  67.0885850  70.7460160
   9.5098150  66.3410110  84.0802080   8.9100140  66.4002670  83.3366000
   9.6392050  65.4015090  84.2098930  10.7499600  64.0827930  69.4171790
   9.9192560  64.1504580  69.8879020  10.9271430  64.9732050  69.1138650
  10.2056060  60.8275410  71.9205990  10.9674970  61.3972060  72.0265680
  10.2210430  60.2602610  72.6914300  11.2116030  61.6825510  76.7647920
  11.5824860  60.8992830  76.3583890  11.8517960  62.3714610  76.5865220
   8.1949790  63.0662090  82.1778240   7.3809630  63.4959250  82.4404030
   8.6023990  63.6780500  81.5647290  10.2575230  61.1209780  69.0778510
  10.5324070  62.0288660  68.9497730  10.0685970  61.0572310  70.0140500
   6.6550840  54.1454630  70.3732140   7.0735720  53.9585610  69.5328800
   6.3486900  53.2933680  70.6835070  10.1540570  59.0578770  74.0707940
   9.7784170  58.2906700  73.6389230   9.4243690  59.4401470  74.5582870
   9.5440190  58.2050290  83.7047460   9.3126280  57.9763040  82.8045410
   9.8044740  59.1249840  83.6592350   7.9828260  53.4306720  86.4827160
   8.8598440  53.4390120  86.8661160   7.9949100  52.6937560  85.8719510
   9.4291530  57.2836260  77.3715180   9.9529010  56.7898910  76.7405350
  10.0150950  57.4186620  78.1162750   9.6081250  57.3676130  80.8934730
   8.6583960  57.3339670  81.0079720   9.7894260  58.2776240  80.6584500
   8.9191500  56.5409610  73.3107590   9.4150620  56.3080480  74.0956470
   8.7207570  55.7021450  72.8945230  10.3478660  55.1770560  75.8445270
  10.2377940  55.0226600  76.7827540  11.1086250  54.6491500  75.6020680
   8.6944380  51.1164690  82.3028270   9.3316600  51.7298830  82.6687460
   8.8419270  51.1525350  81.3577500  11.2368930  53.0078480  69.0851410
  12.1618240  52.8759660  68.8769700  11.2144720  53.0871300  70.0387860
  11.3107420  53.7789140  71.7108120  10.5158920  53.7134260  72.2401030
  11.5150700  54.7139780  71.6993470   8.2525840  67.8180690  75.7046510
   8.8484910  67.4965260  75.0280930   8.5103990  67.3452510  76.4959780
   2.0648860  52.2690880  85.2103370   2.0037750  52.8612710  85.9598780
   3.0049240  52.1616840  85.0653630   4.7023420  51.9260940  84.8495660
   5.3163830  52.2440230  84.1876740   5.2472980  51.4409530  85.4691520
  11.1198600  67.8252570  82.2557500  10.6256880  68.2221440  81.5384630
  10.5111890  67.2001780  82.6494780   5.4431460  50.4893080  81.1764950
   4.5691300  50.8228190  80.9737880   5.3342210  50.0166260  82.0016820
   6.3503440  52.6963950  82.5606670   6.0216800  51.8815710  82.1808400
   7.2985740  52.6533760  82.4372360   8.8038050  68.4675990  79.5344240
   8.3441020  69.2191800  79.1602260   8.1750510  67.7482460  79.4759040
   1.9729270  67.6672720  79.5361350   2.2607080  67.4127020  78.6594360
   2.4852490  67.1150080  80.1266920   3.1906280  51.4062920  80.1157860
   2.4078070  51.8808420  80.3954620   2.8969210  50.5017750  80.0071040
   7.7427350  52.1086020  78.1606950   8.1835440  52.0531120  77.3128550
   7.4734940  53.0244030  78.2317130   9.6065920  51.7401260  76.1715770
   9.5454320  50.7962480  76.0246790  10.3857950  51.8481350  76.7169230
   5.5785480  50.4892120  76.8656960   6.1814850  51.0612330  77.3405480
   4.8378470  51.0531560  76.6430860   8.7220080  50.8913680  72.1397240
   8.9170710  51.7897130  72.4064670   7.9349950  50.6600760  72.6330190
   2.0401630  68.5888820  86.9029550   2.9668940  68.3533090  86.9465510
   2.0252060  69.4160820  86.4215580  10.2746690  68.1314390  73.9003800
  10.4498880  67.4452130  73.2564720   9.5768260  68.6561440  73.5080470
   5.8280700  50.6687150  87.2451900   5.7146150  50.9881760  88.1403420
   6.6450440  51.0699660  86.9489180   8.6079190  67.8158680  86.7270590
   9.4004510  67.3207910  86.5196550   8.9012340  68.4948820  87.3346200
   4.7338850  58.6879620  57.6086640   4.6532900  57.7734230  57.3378350
   4.3203270  59.1846690  56.9026350   2.8656890  60.4658640  59.4895910
   2.0898990  59.9859080  59.7794480   3.5169820  59.7864290  59.3152070
   6.8864320  64.8718830  58.2695040   6.4245850  64.1006070  58.5982210
   7.6989870  64.8984900  58.7747490   3.1127630  67.1576840  57.8899030
   2.4939070  67.6134340  57.3193470   3.9679410  67.3128300  57.4888730
   2.3065880  63.1415830  59.4966070   2.2374160  62.2005770  59.3355200
   3.0685740  63.2317240  60.0688640   3.3371050  55.9486210  59.7235000
   3.7135870  55.0758090  59.6108670   3.2390560  56.2844910  58.8325440
   7.1195170  53.4436650  56.6563340   7.9404790  52.9533220  56.6988820
   7.1529250  54.0334310  57.4095180  11.4094720  55.4603400  63.2206970
  10.7046890  55.8485110  62.7022080  11.6752640  56.1553690  63.8227900
   3.9790980  62.0416080  55.2830940   3.3608250  62.5065530  54.7193660
   4.4914230  62.7343560  55.7000450   7.3556650  55.3837030  59.4290880
   6.6512220  55.6721920  60.0093990   7.7168810  56.1937140  59.0690440
   8.9719430  65.0012160  61.6918360   8.2882950  65.6711270  61.6835030
   9.5113720  65.1992810  60.9263220  10.4243570  54.8291820  59.8200090
   9.4768480  54.8630800  59.9515520  10.7493560  55.6430770  60.2049450
   6.5078170  66.8456290  60.4063540   6.5205330  66.4418580  59.5385800
   5.9553390  67.6203580  60.3024970   7.8023590  63.5672510  55.4953710
   7.6919920  62.6246840  55.6203130   7.7991840  63.9288150  56.3816470
   5.9063610  61.7486130  61.7346150   6.3232400  61.5346240  60.8999610
   6.6303430  62.0058920  62.3054770   3.3443870  59.1937830  54.8516200
   2.4173150  59.1275210  55.0804670   3.4968690  60.1317960  54.7371440
   3.3312950  55.4654830  51.8483360   2.3916620  55.6268790  51.9335820
   3.6496210  56.1840510  51.3019350   9.8525710  60.1473350  61.8262390
   9.0244340  60.2166440  61.3512520  10.4476190  60.7327660  61.3578220
   7.3741160  60.7558130  55.3551450   6.7553580  60.4177680  54.7077750
   7.3565610  60.1117890  56.0630640   6.8167720  56.9342670  62.7717260
   6.4038900  57.7596380  63.0257250   6.0843670  56.3487710  62.5793620
   7.5067820  66.9802000  63.4598240   7.0298380  67.7874190  63.2670850
   6.8229610  66.3280330  63.6124450   5.5505860  59.9944940  52.3624200
   5.9899140  59.1567370  52.2162020   6.2634280  60.6274340  52.4488340
   3.6601240  64.9341010  56.3305440   4.0997150  65.6765340  55.9160830
   3.5988130  65.1767580  57.2544400   9.1323000  51.2487750  50.6765240
   8.8195660  51.3414580  51.5764310   9.8935470  51.8268780  50.6262670
  11.0867030  66.7413940  68.5289630  11.5626750  67.2196830  69.2078710
  11.7074190  66.6731430  67.8035130  10.4900280  63.9326790  65.6889640
  10.6163340  63.6938670  64.7706820  10.5321660  63.1011330  66.1611720
   4.3517020  67.6354790  64.2584450   4.8661690  67.5462800  65.0606880
   3.5086100  67.9814490  64.5512360   6.3271420  67.9210130  53.6868450
   6.1672560  67.6313070  54.5850280   6.1618130  67.1450260  53.1513680
   6.0297550  65.4297690  52.2466450   5.3362710  65.4274980  51.5868730
   6.7720410  65.0057010  51.8160620   5.5947480  67.0560400  56.3214940
   6.0504430  66.2749780  56.6353560   5.9340000  67.7667220  56.8656120
  10.3424290  55.9859250  66.6539380   9.7268560  56.4938920  66.1254840
  10.0220710  55.0857580  66.5965320   2.4038610  54.8251140  64.1201570
   1.9417980  55.0334160  64.9321510   2.0016720  54.0110490  63.8172240
   7.4043120  56.0460090  65.2498230   6.5536710  55.7465840  65.5707300
   7.2444910  56.2902100  64.3382050   4.4992830  57.5461840  67.3497020
   4.8246240  56.7125590  67.0099250   5.2873160  58.0690360  67.4975350
   5.1380780  57.0879560  54.8438150   4.5389670  57.8115360  54.6601770
   5.6860390  57.0256340  54.0614600   3.7445650  55.7243100  56.8741430
   4.1375220  56.0415300  56.0610120   4.1062500  54.8454980  56.9885950
   2.0537820  54.4750410  68.1338290   1.3636140  54.2822610  68.7684380
   2.7970120  54.7585050  68.6662590   4.3300790  58.3148850  60.9692210
   3.5981910  58.8235660  61.3182310   3.9325130  57.4978830  60.6680990
   4.7926700  53.7682530  60.3815150   4.8099440  54.2191180  61.2257000
   4.5442280  52.8688170  60.5948590   8.2197450  51.1814710  66.2201530
   8.5443220  50.4504370  66.7459510   8.2553960  50.8628350  65.3182520
   8.1455290  61.2939820  59.8287560   8.8654410  61.7895110  59.4383670
   7.9437110  60.6157710  59.1841430   3.6065230  52.6877780  53.9716950
   2.7929840  52.1890950  53.8962260   3.4127180  53.5276030  53.5553300
   3.5274090  61.3648880  65.7156560   3.4611400  60.4444550  65.4614150
   2.8979230  61.4624320  66.4301200   6.3213620  57.0597430  52.2679110
   7.2093240  57.3714660  52.0930450   6.2918710  56.1869680  51.8759690
   2.3174210  63.2321120  52.9467280   2.6589910  63.9763350  52.4510600
   1.4886920  63.5452240  53.3092110   3.4590820  64.1869450  65.4660360
   3.4735360  63.2550410  65.2479270   2.7515920  64.2729210  66.1050130
   8.5927890  58.3709270  51.7358970   8.5091610  58.8023490  50.8855410
   9.3122080  58.8307620  52.1685790   9.6702030  60.8276790  64.8128940
   8.9450220  61.4205570  64.6158330  10.1977490  60.8200330  64.0142310
   9.6215140  65.2251530  54.4641100   8.9791300  64.5707150  54.7384820
   9.2345800  65.6306620  53.6881770   5.2001620  62.5536960  58.3112790
   5.5525440  61.9565090  57.6514160   4.3163950  62.2281190  58.4821040
   2.8924720  65.8287020  62.5600860   3.5366940  66.0346400  63.2374280
   3.2554160  65.0675420  62.1071710   4.1656800  63.8319370  61.2778310
   4.8079030  63.1312530  61.3910480   4.6906150  64.6117810  61.0975200
   8.0112520  64.1167990  51.0017450   7.7850100  63.3998430  51.5942090
   7.6208720  63.8680430  50.1639200   5.9394420  64.6314270  64.4814370
   6.2750660  65.2180960  65.1592290   5.0194760  64.5006980  64.7112160
   7.5928770  62.0339930  52.6631610   7.3050470  62.4952620  53.4509490
   8.3880940  61.5737700  52.9315830   1.7683000  64.6805600  67.6502430
   1.4479870  63.9614840  68.1948120   1.0941360  65.3560670  67.7238490
   4.9836600  54.9131760  63.0139230   5.3517420  54.0926970  63.3418800
   4.1234800  54.9733650  63.4294880   8.3498630  53.8688700  53.8226790
   7.7211790  53.9734370  53.1085020   7.8550550  54.0885480  54.6120670
   2.7956770  65.5894290  51.2560770   2.8968750  65.3858280  50.3262750
   1.8958510  65.3352570  51.4608550   1.9438590  57.5671350  63.2377200
   2.4423840  58.0417170  63.9029050   2.0861540  56.6434870  63.4447230
   4.3498090  52.8725310  56.6780460   4.2265870  52.8911440  55.7289970
   5.2982650  52.9204250  56.7978860   9.1505450  53.7839310  64.0805590
   8.6479050  54.5244710  64.4199400   9.9662110  54.1723310  63.7642380
   7.4427460  59.0272490  57.5266950   6.5017600  59.0422720  57.7014640
   7.7571530  58.2408450  57.9727250   9.4453040  66.1981340  59.2021210
   9.5700460  67.0212510  59.6745020  10.3118600  65.9872070  58.8545360
   4.7593480  63.5838490  68.0099330   4.1531640  63.6070090  67.2695080
   4.4547590  62.8521530  68.5466580   6.1893850  67.3118780  66.6208740
   7.1415600  67.2276800  66.5708980   6.0422070  67.9760490  67.2942530
   9.0803050  66.6912990  52.1200650   8.7944560  66.2778130  51.3054830
   8.8822600  67.6200700  52.0001170   3.7853010  61.7466300  51.1648250
   3.2363110  62.1935600  51.8090990   4.4072270  61.2415550  51.6885920
   7.8387950  63.1008400  67.0970510   8.5797420  63.4384160  66.5937970
   7.0760630  63.2700460  66.5440280   1.9655770  59.7294830  50.3090650
   2.4861430  59.0143850  49.9431800   2.6124170  60.3680700  50.6091160
   6.5133610  61.1523230  65.6325720   6.9274630  61.3068310  66.4816140
   5.5784610  61.2778450  65.7951500   6.9855780  58.4919390  67.6364870
   7.5676550  57.7371710  67.5485350   7.1617550  59.0226830  66.8596350
   3.6112740  58.8359890  64.9859490   3.7308950  58.2401030  65.7254330
   4.4706740  58.8729580  64.5660790   5.9500640  59.3897080  63.5622000
   5.4235860  59.9139700  62.9587140   6.2931980  60.0224470  64.1931730
   5.1974940  54.9947050  66.4768330   4.5090460  54.3328590  66.4118320
   5.9180960  54.5485320  66.9216790   5.8275340  51.5898680  52.5358590
   6.1077630  50.7466580  52.8918010   5.0541070  51.8221790  53.0497340
   1.9818470  68.6447930  64.9766030   1.9077170  69.5483070  65.2838400
   1.0797310  68.3259830  64.9488100   2.5303800  67.8106440  52.5992390
   3.4254590  68.1491410  52.6211150   2.5621430  67.0885850  51.9716670
   9.5098150  66.3410110  65.3058590   8.9100140  66.4002670  64.5622510
   9.6392050  65.4015090  65.4355440  10.7499600  64.0827930  50.6428300
   9.9192560  64.1504580  51.1135530  10.9271430  64.9732050  50.3395160
  10.2056060  60.8275410  53.1462500  10.9674970  61.3972060  53.2522190
  10.2210430  60.2602610  53.9170810  11.2116030  61.6825510  57.9904430
  11.5824860  60.8992830  57.5840400  11.8517960  62.3714610  57.8121730
   8.1949790  63.0662090  63.4034750   7.3809630  63.4959250  63.6660540
   8.6023990  63.6780500  62.7903800  10.2575230  61.1209780  50.3035020
  10.5324070  62.0288660  50.1754240  10.0685970  61.0572310  51.2397010
   6.6550840  54.1454630  51.5988650   7.0735720  53.9585610  50.7585310
   6.3486900  53.2933680  51.9091580  10.1540570  59.0578770  55.2964450
   9.7784170  58.2906700  54.8645740   9.4243690  59.4401470  55.7839380
   9.5440190  58.2050290  64.9303970   9.3126280  57.9763040  64.0301920
   9.8044740  59.1249840  64.8848860   7.9828260  53.4306720  67.7083670
   8.8598440  53.4390120  68.0917670   7.9949100  52.6937560  67.0976020
   9.4291530  57.2836260  58.5971690   9.9529010  56.7898910  57.9661860
  10.0150950  57.4186620  59.3419260   9.6081250  57.3676130  62.1191240
   8.6583960  57.3339670  62.2336230   9.7894260  58.2776240  61.8841010
   8.9191500  56.5409610  54.5364100   9.4150620  56.3080480  55.3212980
   8.7207570  55.7021450  54.1201740  10.3478660  55.1770560  57.0701780
  10.2377940  55.0226600  58.0084050  11.1086250  54.6491500  56.8277190
   8.6944380  51.1164690  63.5284780   9.3316600  51.7298830  63.8943970
   8.8419270  51.1525350  62.5834010  11.2368930  53.0078480  50.3107920
  12.1618240  52.8759660  50.1026210  11.2144720  53.0871300  51.2644370
  11.3107420  53.7789140  52.9364630  10.5158920  53.7134260  53.4657540
  11.5150700  54.7139780  52.9249980   8.2525840  67.8180690  56.9303020
   8.8484910  67.4965260  56.2537440   8.5103990  67.3452510  57.7216290
   2.0648860  52.2690880  66.4359880   2.0037750  52.8612710  67.1855290
   3.0049240  52.1616840  66.2910140   4.7023420  51.9260940  66.0752170
   5.3163830  52.2440230  65.4133250   5.2472980  51.4409530  66.6948030
  11.1198600  67.8252570  63.4814010  10.6256880  68.2221440  62.7641140
  10.5111890  67.2001780  63.8751290   5.4431460  50.4893080  62.4021460
   4.5691300  50.8228190  62.1994390   5.3342210  50.0166260  63.2273330
   6.3503440  52.6963950  63.7863180   6.0216800  51.8815710  63.4064910
   7.2985740  52.6533760  63.6628870   8.8038050  68.4675990  60.7600750
   8.3441020  69.2191800  60.3858770   8.1750510  67.7482460  60.7015550
   1.9729270  67.6672720  60.7617860   2.2607080  67.4127020  59.8850870
   2.4852490  67.1150080  61.3523430   3.1906280  51.4062920  61.3414370
   2.4078070  51.8808420  61.6211130   2.8969210  50.5017750  61.2327550
   7.7427350  52.1086020  59.3863460   8.1835440  52.0531120  58.5385060
   7.4734940  53.0244030  59.4573640   9.6065920  51.7401260  57.3972280
   9.5454320  50.7962480  57.2503300  10.3857950  51.8481350  57.9425740
   5.5785480  50.4892120  58.0913470   6.1814850  51.0612330  58.5661990
   4.8378470  51.0531560  57.8687370   8.7220080  50.8913680  53.3653750
   8.9170710  51.7897130  53.6321180   7.9349950  50.6600760  53.8586700
   2.0401630  68.5888820  68.1286060   2.9668940  68.3533090  68.1722020
   2.0252060  69.4160820  67.6472090  10.2746690  68.1314390  55.1260310
  10.4498880  67.4452130  54.4821230   9.5768260  68.6561440  54.7336980
   5.8280700  50.6687150  68.4708410   5.7146150  50.9881760  69.3659930
   6.6450440  51.0699660  68.1745690   8.6079190  67.8158680  67.9527100
   9.4004510  67.3207910  67.7453060   8.9012340  68.4948820  68.5602710
   4.7338850  58.6879620  38.8343150   4.6532900  57.7734230  38.5634860
   4.3203270  59.1846690  38.1282860   2.8656890  60.4658640  40.7152420
   2.0898990  59.9859080  41.0050990   3.5169820  59.7864290  40.5408580
   6.8864320  64.8718830  39.4951550   6.4245850  64.1006070  39.8238720
   7.6989870  64.8984900  40.0004000   3.1127630  67.1576840  39.1155540
   2.4939070  67.6134340  38.5449980   3.9679410  67.3128300  38.7145240
   2.3065880  63.1415830  40.7222580   2.2374160  62.2005770  40.5611710
   3.0685740  63.2317240  41.2945150   3.3371050  55.9486210  40.9491510
   3.7135870  55.0758090  40.8365180   3.2390560  56.2844910  40.0581950
   7.1195170  53.4436650  37.8819850   7.9404790  52.9533220  37.9245330
   7.1529250  54.0334310  38.6351690  11.4094720  55.4603400  44.4463480
  10.7046890  55.8485110  43.9278590  11.6752640  56.1553690  45.0484410
   3.9790980  62.0416080  36.5087450   3.3608250  62.5065530  35.9450170
   4.4914230  62.7343560  36.9256960   7.3556650  55.3837030  40.6547390
   6.6512220  55.6721920  41.2350500   7.7168810  56.1937140  40.2946950
   8.9719430  65.0012160  42.9174870   8.2882950  65.6711270  42.9091540
   9.5113720  65.1992810  42.1519730  10.4243570  54.8291820  41.0456600
   9.4768480  54.8630800  41.1772030  10.7493560  55.6430770  41.4305960
   6.5078170  66.8456290  41.6320050   6.5205330  66.4418580  40.7642310
   5.9553390  67.6203580  41.5281480   7.8023590  63.5672510  36.7210220
   7.6919920  62.6246840  36.8459640   7.7991840  63.9288150  37.6072980
   5.9063610  61.7486130  42.9602660   6.3232400  61.5346240  42.1256120
   6.6303430  62.0058920  43.5311280   3.3443870  59.1937830  36.0772710
   2.4173150  59.1275210  36.3061180   3.4968690  60.1317960  35.9627950
   3.3312950  55.4654830  33.0739870   2.3916620  55.6268790  33.1592330
   3.6496210  56.1840510  32.5275860   9.8525710  60.1473350  43.0518900
   9.0244340  60.2166440  42.5769030  10.4476190  60.7327660  42.5834730
   7.3741160  60.7558130  36.5807960   6.7553580  60.4177680  35.9334260
   7.3565610  60.1117890  37.2887150   6.8167720  56.9342670  43.9973770
   6.4038900  57.7596380  44.2513760   6.0843670  56.3487710  43.8050130
   7.5067820  66.9802000  44.6854750   7.0298380  67.7874190  44.4927360
   6.8229610  66.3280330  44.8380960   5.5505860  59.9944940  33.5880710
   5.9899140  59.1567370  33.4418530   6.2634280  60.6274340  33.6744850
   3.6601240  64.9341010  37.5561950   4.0997150  65.6765340  37.1417340
   3.5988130  65.1767580  38.4800910   9.1323000  51.2487750  31.9021750
   8.8195660  51.3414580  32.8020820   9.8935470  51.8268780  31.8519180
  11.0867030  66.7413940  49.7546140  11.5626750  67.2196830  50.4335220
  11.7074190  66.6731430  49.0291640  10.4900280  63.9326790  46.9146150
  10.6163340  63.6938670  45.9963330  10.5321660  63.1011330  47.3868230
   4.3517020  67.6354790  45.4840960   4.8661690  67.5462800  46.2863390
   3.5086100  67.9814490  45.7768870   6.3271420  67.9210130  34.9124960
   6.1672560  67.6313070  35.8106790   6.1618130  67.1450260  34.3770190
   6.0297550  65.4297690  33.4722960   5.3362710  65.4274980  32.8125240
   6.7720410  65.0057010  33.0417130   5.5947480  67.0560400  37.5471450
   6.0504430  66.2749780  37.8610070   5.9340000  67.7667220  38.0912630
  10.3424290  55.9859250  47.8795890   9.7268560  56.4938920  47.3511350
  10.0220710  55.0857580  47.8221830   2.4038610  54.8251140  45.3458080
   1.9417980  55.0334160  46.1578020   2.0016720  54.0110490  45.0428750
   7.4043120  56.0460090  46.4754740   6.5536710  55.7465840  46.7963810
   7.2444910  56.2902100  45.5638560   4.4992830  57.5461840  48.5753530
   4.8246240  56.7125590  48.2355760   5.2873160  58.0690360  48.7231860
   5.1380780  57.0879560  36.0694660   4.5389670  57.8115360  35.8858280
   5.6860390  57.0256340  35.2871110   3.7445650  55.7243100  38.0997940
   4.1375220  56.0415300  37.2866630   4.1062500  54.8454980  38.2142460
   2.0537820  54.4750410  49.3594800   1.3636140  54.2822610  49.9940890
   2.7970120  54.7585050  49.8919100   4.3300790  58.3148850  42.1948720
   3.5981910  58.8235660  42.5438820   3.9325130  57.4978830  41.8937500
   4.7926700  53.7682530  41.6071660   4.8099440  54.2191180  42.4513510
   4.5442280  52.8688170  41.8205100   8.2197450  51.1814710  47.4458040
   8.5443220  50.4504370  47.9716020   8.2553960  50.8628350  46.5439030
   8.1455290  61.2939820  41.0544070   8.8654410  61.7895110  40.6640180
   7.9437110  60.6157710  40.4097940   3.6065230  52.6877780  35.1973460
   2.7929840  52.1890950  35.1218770   3.4127180  53.5276030  34.7809810
   3.5274090  61.3648880  46.9413070   3.4611400  60.4444550  46.6870660
   2.8979230  61.4624320  47.6557710   6.3213620  57.0597430  33.4935620
   7.2093240  57.3714660  33.3186960   6.2918710  56.1869680  33.1016200
   2.3174210  63.2321120  34.1723790   2.6589910  63.9763350  33.6767110
   1.4886920  63.5452240  34.5348620   3.4590820  64.1869450  46.6916870
   3.4735360  63.2550410  46.4735780   2.7515920  64.2729210  47.3306640
   8.5927890  58.3709270  32.9615480   8.5091610  58.8023490  32.1111920
   9.3122080  58.8307620  33.3942300   9.6702030  60.8276790  46.0385450
   8.9450220  61.4205570  45.8414840  10.1977490  60.8200330  45.2398820
   9.6215140  65.2251530  35.6897610   8.9791300  64.5707150  35.9641330
   9.2345800  65.6306620  34.9138280   5.2001620  62.5536960  39.5369300
   5.5525440  61.9565090  38.8770670   4.3163950  62.2281190  39.7077550
   2.8924720  65.8287020  43.7857370   3.5366940  66.0346400  44.4630790
   3.2554160  65.0675420  43.3328220   4.1656800  63.8319370  42.5034820
   4.8079030  63.1312530  42.6166990   4.6906150  64.6117810  42.3231710
   8.0112520  64.1167990  32.2273960   7.7850100  63.3998430  32.8198600
   7.6208720  63.8680430  31.3895710   5.9394420  64.6314270  45.7070880
   6.2750660  65.2180960  46.3848800   5.0194760  64.5006980  45.9368670
   7.5928770  62.0339930  33.8888120   7.3050470  62.4952620  34.6766000
   8.3880940  61.5737700  34.1572340   1.7683000  64.6805600  48.8758940
   1.4479870  63.9614840  49.4204630   1.0941360  65.3560670  48.9495000
   4.9836600  54.9131760  44.2395740   5.3517420  54.0926970  44.5675310
   4.1234800  54.9733650  44.6551390   8.3498630  53.8688700  35.0483300
   7.7211790  53.9734370  34.3341530   7.8550550  54.0885480  35.8377180
   2.7956770  65.5894290  32.4817280   2.8968750  65.3858280  31.5519260
   1.8958510  65.3352570  32.6865060   1.9438590  57.5671350  44.4633710
   2.4423840  58.0417170  45.1285560   2.0861540  56.6434870  44.6703740
   4.3498090  52.8725310  37.9036970   4.2265870  52.8911440  36.9546480
   5.2982650  52.9204250  38.0235370   9.1505450  53.7839310  45.3062100
   8.6479050  54.5244710  45.6455910   9.9662110  54.1723310  44.9898890
   7.4427460  59.0272490  38.7523460   6.5017600  59.0422720  38.9271150
   7.7571530  58.2408450  39.1983760   9.4453040  66.1981340  40.4277720
   9.5700460  67.0212510  40.9001530  10.3118600  65.9872070  40.0801870
   4.7593480  63.5838490  49.2355840   4.1531640  63.6070090  48.4951590
   4.4547590  62.8521530  49.7723090   6.1893850  67.3118780  47.8465250
   7.1415600  67.2276800  47.7965490   6.0422070  67.9760490  48.5199040
   9.0803050  66.6912990  33.3457160   8.7944560  66.2778130  32.5311340
   8.8822600  67.6200700  33.2257680   3.7853010  61.7466300  32.3904760
   3.2363110  62.1935600  33.0347500   4.4072270  61.2415550  32.9142430
   7.8387950  63.1008400  48.3227020   8.5797420  63.4384160  47.8194480
   7.0760630  63.2700460  47.7696790   1.9655770  59.7294830  31.5347160
   2.4861430  59.0143850  31.1688310   2.6124170  60.3680700  31.8347670
   6.5133610  61.1523230  46.8582230   6.9274630  61.3068310  47.7072650
   5.5784610  61.2778450  47.0208010   6.9855780  58.4919390  48.8621380
   7.5676550  57.7371710  48.7741860   7.1617550  59.0226830  48.0852860
   3.6112740  58.8359890  46.2116000   3.7308950  58.2401030  46.9510840
   4.4706740  58.8729580  45.7917300   5.9500640  59.3897080  44.7878510
   5.4235860  59.9139700  44.1843650   6.2931980  60.0224470  45.4188240
   5.1974940  54.9947050  47.7024840   4.5090460  54.3328590  47.6374830
   5.9180960  54.5485320  48.1473300   5.8275340  51.5898680  33.7615100
   6.1077630  50.7466580  34.1174520   5.0541070  51.8221790  34.2753850
   1.9818470  68.6447930  46.2022540   1.9077170  69.5483070  46.5094910
   1.0797310  68.3259830  46.1744610   2.5303800  67.8106440  33.8248900
   3.4254590  68.1491410  33.8467660   2.5621430  67.0885850  33.1973180
   9.5098150  66.3410110  46.5315100   8.9100140  66.4002670  45.7879020
   9.6392050  65.4015090  46.6611950  10.7499600  64.0827930  31.8684810
   9.9192560  64.1504580  32.3392040  10.9271430  64.9732050  31.5651670
  10.2056060  60.8275410  34.3719010  10.9674970  61.3972060  34.4778700
  10.2210430  60.2602610  35.1427320  11.2116030  61.6825510  39.2160940
  11.5824860  60.8992830  38.8096910  11.8517960  62.3714610  39.0378240
   8.1949790  63.0662090  44.6291260   7.3809630  63.4959250  44.8917050
   8.6023990  63.6780500  44.0160310  10.2575230  61.1209780  31.5291530
  10.5324070  62.0288660  31.4010750  10.0685970  61.0572310  32.4653520
   6.6550840  54.1454630  32.8245160   7.0735720  53.9585610  31.9841820
   6.3486900  53.2933680  33.1348090  10.1540570  59.0578770  36.5220960
   9.7784170  58.2906700  36.0902250   9.4243690  59.4401470  37.0095890
   9.5440190  58.2050290  46.1560480   9.3126280  57.9763040  45.2558430
   9.8044740  59.1249840  46.1105370   7.9828260  53.4306720  48.9340180
   8.8598440  53.4390120  49.3174180   7.9949100  52.6937560  48.3232530
   9.4291530  57.2836260  39.8228200   9.9529010  56.7898910  39.1918370
  10.0150950  57.4186620  40.5675770   9.6081250  57.3676130  43.3447750
   8.6583960  57.3339670  43.4592740   9.7894260  58.2776240  43.1097520
   8.9191500  56.5409610  35.7620610   9.4150620  56.3080480  36.5469490
   8.7207570  55.7021450  35.3458250  10.3478660  55.1770560  38.2958290
  10.2377940  55.0226600  39.2340560  11.1086250  54.6491500  38.0533700
   8.6944380  51.1164690  44.7541290   9.3316600  51.7298830  45.1200480
   8.8419270  51.1525350  43.8090520  11.2368930  53.0078480  31.5364430
  12.1618240  52.8759660  31.3282720  11.2144720  53.0871300  32.4900880
  11.3107420  53.7789140  34.1621140  10.5158920  53.7134260  34.6914050
  11.5150700  54.7139780  34.1506490   8.2525840  67.8180690  38.1559530
   8.8484910  67.4965260  37.4793950   8.5103990  67.3452510  38.9472800
   2.0648860  52.2690880  47.6616390   2.0037750  52.8612710  48.4111800
   3.0049240  52.1616840  47.5166650   4.7023420  51.9260940  47.3008680
   5.3163830  52.2440230  46.6389760   5.2472980  51.4409530  47.9204540
  11.1198600  67.8252570  44.7070520  10.6256880  68.2221440  43.9897650
  10.5111890  67.2001780  45.1007800   5.4431460  50.4893080  43.6277970
   4.5691300  50.8228190  43.4250900   5.3342210  50.0166260  44.4529840
   6.3503440  52.6963950  45.0119690   6.0216800  51.8815710  44.6321420
   7.2985740  52.6533760  44.8885380   8.8038050  68.4675990  41.9857260
   8.3441020  69.2191800  41.6115280   8.1750510  67.7482460  41.9272060
   1.9729270  67.6672720  41.9874370   2.2607080  67.4127020  41.1107380
   2.4852490  67.1150080  42.5779940   3.1906280  51.4062920  42.5670880
   2.4078070  51.8808420  42.8467640   2.8969210  50.5017750  42.4584060
   7.7427350  52.1086020  40.6119970   8.1835440  52.0531120  39.7641570
   7.4734940  53.0244030  40.6830150   9.6065920  51.7401260  38.6228790
   9.5454320  50.7962480  38.4759810  10.3857950  51.8481350  39.1682250
   5.5785480  50.4892120  39.3169980   6.1814850  51.0612330  39.7918500
   4.8378470  51.0531560  39.0943880   8.7220080  50.8913680  34.5910260
   8.9170710  51.7897130  34.8577690   7.9349950  50.6600760  35.0843210
   2.0401630  68.5888820  49.3542570   2.9668940  68.3533090  49.3978530
   2.0252060  69.4160820  48.8728600  10.2746690  68.1314390  36.3516820
  10.4498880  67.4452130  35.7077740   9.5768260  68.6561440  35.9593490
   5.8280700  50.6687150  49.6964920   5.7146150  50.9881760  50.5916440
   6.6450440  51.0699660  49.4002200   8.6079190  67.8158680  49.1783610
   9.4004510  67.3207910  48.9709570   8.9012340  68.4948820  49.7859220
   4.7338850  58.6879620  20.0599660   4.6532900  57.7734230  19.7891370
   4.3203270  59.1846690  19.3539370   2.8656890  60.4658640  21.9408930
   2.0898990  59.9859080  22.2307500   3.5169820  59.7864290  21.7665090
   6.8864320  64.8718830  20.7208060   6.4245850  64.1006070  21.0495230
   7.6989870  64.8984900  21.2260510   3.1127630  67.1576840  20.3412050
   2.4939070  67.6134340  19.7706490   3.9679410  67.3128300  19.9401750
   2.3065880  63.1415830  21.9479090   2.2374160  62.2005770  21.7868220
   3.0685740  63.2317240  22.5201660   3.3371050  55.9486210  22.1748020
   3.7135870  55.0758090  22.0621690   3.2390560  56.2844910  21.2838460
   7.1195170  53.4436650  19.1076360   7.9404790  52.9533220  19.1501840
   7.1529250  54.0334310  19.8608200  11.4094720  55.4603400  25.6719990
  10.7046890  55.8485110  25.1535100  11.6752640  56.1553690  26.2740920
   3.9790980  62.0416080  17.7343960   3.3608250  62.5065530  17.1706680
   4.4914230  62.7343560  18.1513470   7.3556650  55.3837030  21.8803900
   6.6512220  55.6721920  22.4607010   7.7168810  56.1937140  21.5203460
   8.9719430  65.0012160  24.1431380   8.2882950  65.6711270  24.1348050
   9.5113720  65.1992810  23.3776240  10.4243570  54.8291820  22.2713110
   9.4768480  54.8630800  22.4028540  10.7493560  55.6430770  22.6562470
   6.5078170  66.8456290  22.8576560   6.5205330  66.4418580  21.9898820
   5.9553390  67.6203580  22.7537990   7.8023590  63.5672510  17.9466730
   7.6919920  62.6246840  18.0716150   7.7991840  63.9288150  18.8329490
   5.9063610  61.7486130  24.1859170   6.3232400  61.5346240  23.3512630
   6.6303430  62.0058920  24.7567790   3.3443870  59.1937830  17.3029220
   2.4173150  59.1275210  17.5317690   3.4968690  60.1317960  17.1884460
   3.3312950  55.4654830  14.2996380   2.3916620  55.6268790  14.3848840
   3.6496210  56.1840510  13.7532370   9.8525710  60.1473350  24.2775410
   9.0244340  60.2166440  23.8025540  10.4476190  60.7327660  23.8091240
   7.3741160  60.7558130  17.8064470   6.7553580  60.4177680  17.1590770
   7.3565610  60.1117890  18.5143660   6.8167720  56.9342670  25.2230280
   6.4038900  57.7596380  25.4770270   6.0843670  56.3487710  25.0306640
   7.5067820  66.9802000  25.9111260   7.0298380  67.7874190  25.7183870
   6.8229610  66.3280330  26.0637470   5.5505860  59.9944940  14.8137220
   5.9899140  59.1567370  14.6675040   6.2634280  60.6274340  14.9001360
   3.6601240  64.9341010  18.7818460   4.0997150  65.6765340  18.3673850
   3.5988130  65.1767580  19.7057420   9.1323000  51.2487750  13.1278260
   8.8195660  51.3414580  14.0277330   9.8935470  51.8268780  13.0775690
  11.0867030  66.7413940  30.9802650  11.5626750  67.2196830  31.6591730
  11.7074190  66.6731430  30.2548150  10.4900280  63.9326790  28.1402660
  10.6163340  63.6938670  27.2219840  10.5321660  63.1011330  28.6124740
   4.3517020  67.6354790  26.7097470   4.8661690  67.5462800  27.5119900
   3.5086100  67.9814490  27.0025380   6.3271420  67.9210130  16.1381470
   6.1672560  67.6313070  17.0363300   6.1618130  67.1450260  15.6026700
   6.0297550  65.4297690  14.6979470   5.3362710  65.4274980  14.0381750
   6.7720410  65.0057010  14.2673640   5.5947480  67.0560400  18.7727960
   6.0504430  66.2749780  19.0866580   5.9340000  67.7667220  19.3169140
  10.3424290  55.9859250  29.1052400   9.7268560  56.4938920  28.5767860
  10.0220710  55.0857580  29.0478340   2.4038610  54.8251140  26.5714590
   1.9417980  55.0334160  27.3834530   2.0016720  54.0110490  26.2685260
   7.4043120  56.0460090  27.7011250   6.5536710  55.7465840  28.0220320
   7.2444910  56.2902100  26.7895070   4.4992830  57.5461840  29.8010040
   4.8246240  56.7125590  29.4612270   5.2873160  58.0690360  29.9488370
   5.1380780  57.0879560  17.2951170   4.5389670  57.8115360  17.1114790
   5.6860390  57.0256340  16.5127620   3.7445650  55.7243100  19.3254450
   4.1375220  56.0415300  18.5123140   4.1062500  54.8454980  19.4398970
   2.0537820  54.4750410  30.5851310   1.3636140  54.2822610  31.2197400
   2.7970120  54.7585050  31.1175610   4.3300790  58.3148850  23.4205230
   3.5981910  58.8235660  23.7695330   3.9325130  57.4978830  23.1194010
   4.7926700  53.7682530  22.8328170   4.8099440  54.2191180  23.6770020
   4.5442280  52.8688170  23.0461610   8.2197450  51.1814710  28.6714550
   8.5443220  50.4504370  29.1972530   8.2553960  50.8628350  27.7695540
   8.1455290  61.2939820  22.2800580   8.8654410  61.7895110  21.8896690
   7.9437110  60.6157710  21.6354450   3.6065230  52.6877780  16.4229970
   2.7929840  52.1890950  16.3475280   3.4127180  53.5276030  16.0066320
   3.5274090  61.3648880  28.1669580   3.4611400  60.4444550  27.9127170
   2.8979230  61.4624320  28.8814220   6.3213620  57.0597430  14.7192130
   7.2093240  57.3714660  14.5443470   6.2918710  56.1869680  14.3272710
   2.3174210  63.2321120  15.3980300   2.6589910  63.9763350  14.9023620
   1.4886920  63.5452240  15.7605130   3.4590820  64.1869450  27.9173380
   3.4735360  63.2550410  27.6992290   2.7515920  64.2729210  28.5563150
   8.5927890  58.3709270  14.1871990   8.5091610  58.8023490  13.3368430
   9.3122080  58.8307620  14.6198810   9.6702030  60.8276790  27.2641960
   8.9450220  61.4205570  27.0671350  10.1977490  60.8200330  26.4655330
   9.6215140  65.2251530  16.9154120   8.9791300  64.5707150  17.1897840
   9.2345800  65.6306620  16.1394790   5.2001620  62.5536960  20.7625810
   5.5525440  61.9565090  20.1027180   4.3163950  62.2281190  20.9334060
   2.8924720  65.8287020  25.0113880   3.5366940  66.0346400  25.6887300
   3.2554160  65.0675420  24.5584730   4.1656800  63.8319370  23.7291330
   4.8079030  63.1312530  23.8423500   4.6906150  64.6117810  23.5488220
   8.0112520  64.1167990  13.4530470   7.7850100  63.3998430  14.0455110
   7.6208720  63.8680430  12.6152220   5.9394420  64.6314270  26.9327390
   6.2750660  65.2180960  27.6105310   5.0194760  64.5006980  27.1625180
   7.5928770  62.0339930  15.1144630   7.3050470  62.4952620  15.9022510
   8.3880940  61.5737700  15.3828850   1.7683000  64.6805600  30.1015450
   1.4479870  63.9614840  30.6461140   1.0941360  65.3560670  30.1751510
   4.9836600  54.9131760  25.4652250   5.3517420  54.0926970  25.7931820
   4.1234800  54.9733650  25.8807900   8.3498630  53.8688700  16.2739810
   7.7211790  53.9734370  15.5598040   7.8550550  54.0885480  17.0633690
   2.7956770  65.5894290  13.7073790   2.8968750  65.3858280  12.7775770
   1.8958510  65.3352570  13.9121570   1.9438590  57.5671350  25.6890220
   2.4423840  58.0417170  26.3542070   2.0861540  56.6434870  25.8960250
   4.3498090  52.8725310  19.1293480   4.2265870  52.8911440  18.1802990
   5.2982650  52.9204250  19.2491880   9.1505450  53.7839310  26.5318610
   8.6479050  54.5244710  26.8712420   9.9662110  54.1723310  26.2155400
   7.4427460  59.0272490  19.9779970   6.5017600  59.0422720  20.1527660
   7.7571530  58.2408450  20.4240270   9.4453040  66.1981340  21.6534230
   9.5700460  67.0212510  22.1258040  10.3118600  65.9872070  21.3058380
   4.7593480  63.5838490  30.4612350   4.1531640  63.6070090  29.7208100
   4.4547590  62.8521530  30.9979600   6.1893850  67.3118780  29.0721760
   7.1415600  67.2276800  29.0222000   6.0422070  67.9760490  29.7455550
   9.0803050  66.6912990  14.5713670   8.7944560  66.2778130  13.7567850
   8.8822600  67.6200700  14.4514190   3.7853010  61.7466300  13.6161270
   3.2363110  62.1935600  14.2604010   4.4072270  61.2415550  14.1398940
   7.8387950  63.1008400  29.5483530   8.5797420  63.4384160  29.0450990
   7.0760630  63.2700460  28.9953300   1.9655770  59.7294830  12.7603670
   2.4861430  59.0143850  12.3944820   2.6124170  60.3680700  13.0604180
   6.5133610  61.1523230  28.0838740   6.9274630  61.3068310  28.9329160
   5.5784610  61.2778450  28.2464520   6.9855780  58.4919390  30.0877890
   7.5676550  57.7371710  29.9998370   7.1617550  59.0226830  29.3109370
   3.6112740  58.8359890  27.4372510   3.7308950  58.2401030  28.1767350
   4.4706740  58.8729580  27.0173810   5.9500640  59.3897080  26.0135020
   5.4235860  59.9139700  25.4100160   6.2931980  60.0224470  26.6444750
   5.1974940  54.9947050  28.9281350   4.5090460  54.3328590  28.8631340
   5.9180960  54.5485320  29.3729810   5.8275340  51.5898680  14.9871610
   6.1077630  50.7466580  15.3431030   5.0541070  51.8221790  15.5010360
   1.9818470  68.6447930  27.4279050   1.9077170  69.5483070  27.7351420
   1.0797310  68.3259830  27.4001120   2.5303800  67.8106440  15.0505410
   3.4254590  68.1491410  15.0724170   2.5621430  67.0885850  14.4229690
   9.5098150  66.3410110  27.7571610   8.9100140  66.4002670  27.0135530
   9.6392050  65.4015090  27.8868460  10.7499600  64.0827930  13.0941320
   9.9192560  64.1504580  13.5648550  10.9271430  64.9732050  12.7908180
  10.2056060  60.8275410  15.5975520  10.9674970  61.3972060  15.7035210
  10.2210430  60.2602610  16.3683830  11.2116030  61.6825510  20.4417450
  11.5824860  60.8992830  20.0353420  11.8517960  62.3714610  20.2634750
   8.1949790  63.0662090  25.8547770   7.3809630  63.4959250  26.1173560
   8.6023990  63.6780500  25.2416820  10.2575230  61.1209780  12.7548040
  10.5324070  62.0288660  12.6267260  10.0685970  61.0572310  13.6910030
   6.6550840  54.1454630  14.0501670   7.0735720  53.9585610  13.2098330
   6.3486900  53.2933680  14.3604600  10.1540570  59.0578770  17.7477470
   9.7784170  58.2906700  17.3158760   9.4243690  59.4401470  18.2352400
   9.5440190  58.2050290  27.3816990   9.3126280  57.9763040  26.4814940
   9.8044740  59.1249840  27.3361880   7.9828260  53.4306720  30.1596690
   8.8598440  53.4390120  30.5430690   7.9949100  52.6937560  29.5489040
   9.4291530  57.2836260  21.0484710   9.9529010  56.7898910  20.4174880
  10.0150950  57.4186620  21.7932280   9.6081250  57.3676130  24.5704260
   8.6583960  57.3339670  24.6849250   9.7894260  58.2776240  24.3354030
   8.9191500  56.5409610  16.9877120   9.4150620  56.3080480  17.7726000
   8.7207570  55.7021450  16.5714760  10.3478660  55.1770560  19.5214800
  10.2377940  55.0226600  20.4597070  11.1086250  54.6491500  19.2790210
   8.6944380  51.1164690  25.9797800   9.3316600  51.7298830  26.3456990
   8.8419270  51.1525350  25.0347030  11.2368930  53.0078480  12.7620940
  12.1618240  52.8759660  12.5539230  11.2144720  53.0871300  13.7157390
  11.3107420  53.7789140  15.3877650  10.5158920  53.7134260  15.9170560
  11.5150700  54.7139780  15.3763000   8.2525840  67.8180690  19.3816040
   8.8484910  67.4965260  18.7050460   8.5103990  67.3452510  20.1729310
   2.0648860  52.2690880  28.8872900   2.0037750  52.8612710  29.6368310
   3.0049240  52.1616840  28.7423160   4.7023420  51.9260940  28.5265190
   5.3163830  52.2440230  27.8646270   5.2472980  51.4409530  29.1461050
  11.1198600  67.8252570  25.9327030  10.6256880  68.2221440  25.2154160
  10.5111890  67.2001780  26.3264310   5.4431460  50.4893080  24.8534480
   4.5691300  50.8228190  24.6507410   5.3342210  50.0166260  25.6786350
   6.3503440  52.6963950  26.2376200   6.0216800  51.8815710  25.8577930
   7.2985740  52.6533760  26.1141890   8.8038050  68.4675990  23.2113770
   8.3441020  69.2191800  22.8371790   8.1750510  67.7482460  23.1528570
   1.9729270  67.6672720  23.2130880   2.2607080  67.4127020  22.3363890
   2.4852490  67.1150080  23.8036450   3.1906280  51.4062920  23.7927390
   2.4078070  51.8808420  24.0724150   2.8969210  50.5017750  23.6840570
   7.7427350  52.1086020  21.8376480   8.1835440  52.0531120  20.9898080
   7.4734940  53.0244030  21.9086660   9.6065920  51.7401260  19.8485300
   9.5454320  50.7962480  19.7016320  10.3857950  51.8481350  20.3938760
   5.5785480  50.4892120  20.5426490   6.1814850  51.0612330  21.0175010
   4.8378470  51.0531560  20.3200390   8.7220080  50.8913680  15.8166770
   8.9170710  51.7897130  16.0834200   7.9349950  50.6600760  16.3099720
   2.0401630  68.5888820  30.5799080   2.9668940  68.3533090  30.6235040
   2.0252060  69.4160820  30.0985110  10.2746690  68.1314390  17.5773330
  10.4498880  67.4452130  16.9334250   9.5768260  68.6561440  17.1850000
   5.8280700  50.6687150  30.9221430   5.7146150  50.9881760  31.8172950
   6.6450440  51.0699660  30.6258710   8.6079190  67.8158680  30.4040120
   9.4004510  67.3207910  30.1966080   8.9012340  68.4948820  31.0115730
   2.8656890  60.4658640   3.1665440   2.0898990  59.9859080   3.4564010
   3.5169820  59.7864290   2.9921600   6.8864320  64.8718830   1.9464570
   6.4245850  64.1006070   2.2751740   7.6989870  64.8984900   2.4517020
   2.3065880  63.1415830   3.1735600   2.2374160  62.2005770   3.0124730
   3.0685740  63.2317240   3.7458170   3.3371050  55.9486210   3.4004530
   3.7135870  55.0758090   3.2878200   3.2390560  56.2844910   2.5094970
  11.4094720  55.4603400   6.8976500  10.7046890  55.8485110   6.3791610
  11.6752640  56.1553690   7.4997430   7.3556650  55.3837030   3.1060410
   6.6512220  55.6721920   3.6863520   7.7168810  56.1937140   2.7459970
   8.9719430  65.0012160   5.3687890   8.2882950  65.6711270   5.3604560
   9.5113720  65.1992810   4.6032750  10.4243570  54.8291820   3.4969620
   9.4768480  54.8630800   3.6285050  10.7493560  55.6430770   3.8818980
   6.5078170  66.8456290   4.0833070   6.5205330  66.4418580   3.2155330
   5.9553390  67.6203580   3.9794500   5.9063610  61.7486130   5.4115680
   6.3232400  61.5346240   4.5769140   6.6303430  62.0058920   5.9824300
   9.8525710  60.1473350   5.5031920   9.0244340  60.2166440   5.0282050
  10.4476190  60.7327660   5.0347750   6.8167720  56.9342670   6.4486790
   6.4038900  57.7596380   6.7026780   6.0843670  56.3487710   6.2563150
   7.5067820  66.9802000   7.1367770   7.0298380  67.7874190   6.9440380
   6.8229610  66.3280330   7.2893980  11.0867030  66.7413940  12.2059160
  11.5626750  67.2196830  12.8848240  11.7074190  66.6731430  11.4804660
  10.4900280  63.9326790   9.3659170  10.6163340  63.6938670   8.4476350
  10.5321660  63.1011330   9.8381250   4.3517020  67.6354790   7.9353980
   4.8661690  67.5462800   8.7376410   3.5086100  67.9814490   8.2281890
  10.3424290  55.9859250  10.3308910   9.7268560  56.4938920   9.8024370
  10.0220710  55.0857580  10.2734850   2.4038610  54.8251140   7.7971100
   1.9417980  55.0334160   8.6091040   2.0016720  54.0110490   7.4941770
   7.4043120  56.0460090   8.9267760   6.5536710  55.7465840   9.2476830
   7.2444910  56.2902100   8.0151580   4.4992830  57.5461840  11.0266550
   4.8246240  56.7125590  10.6868780   5.2873160  58.0690360  11.1744880
   2.0537820  54.4750410  11.8107820   1.3636140  54.2822610  12.4453910
   2.7970120  54.7585050  12.3432120   4.3300790  58.3148850   4.6461740
   3.5981910  58.8235660   4.9951840   3.9325130  57.4978830   4.3450520
   4.7926700  53.7682530   4.0584680   4.8099440  54.2191180   4.9026530
   4.5442280  52.8688170   4.2718120   8.2197450  51.1814710   9.8971060
   8.5443220  50.4504370  10.4229040   8.2553960  50.8628350   8.9952050
   8.1455290  61.2939820   3.5057090   8.8654410  61.7895110   3.1153200
   7.9437110  60.6157710   2.8610960   3.5274090  61.3648880   9.3926090
   3.4611400  60.4444550   9.1383680   2.8979230  61.4624320  10.1070730
   3.4590820  64.1869450   9.1429890   3.4735360  63.2550410   8.9248800
   2.7515920  64.2729210   9.7819660   9.6702030  60.8276790   8.4898470
   8.9450220  61.4205570   8.2927860  10.1977490  60.8200330   7.6911840
   2.8924720  65.8287020   6.2370390   3.5366940  66.0346400   6.9143810
   3.2554160  65.0675420   5.7841240   4.1656800  63.8319370   4.9547840
   4.8079030  63.1312530   5.0680010   4.6906150  64.6117810   4.7744730
   5.9394420  64.6314270   8.1583900   6.2750660  65.2180960   8.8361820
   5.0194760  64.5006980   8.3881690   1.7683000  64.6805600  11.3271960
   1.4479870  63.9614840  11.8717650   1.0941360  65.3560670  11.4008020
   4.9836600  54.9131760   6.6908760   5.3517420  54.0926970   7.0188330
   4.1234800  54.9733650   7.1064410   1.9438590  57.5671350   6.9146730
   2.4423840  58.0417170   7.5798580   2.0861540  56.6434870   7.1216760
   9.1505450  53.7839310   7.7575120   8.6479050  54.5244710   8.0968930
   9.9662110  54.1723310   7.4411910   9.4453040  66.1981340   2.8790740
   9.5700460  67.0212510   3.3514550  10.3118600  65.9872070   2.5314890
   4.7593480  63.5838490  11.6868860   4.1531640  63.6070090  10.9464610
   4.4547590  62.8521530  12.2236110   6.1893850  67.3118780  10.2978270
   7.1415600  67.2276800  10.2478510   6.0422070  67.9760490  10.9712060
   7.8387950  63.1008400  10.7740040   8.5797420  63.4384160  10.2707500
   7.0760630  63.2700460  10.2209810   6.5133610  61.1523230   9.3095250
   6.9274630  61.3068310  10.1585670   5.5784610  61.2778450   9.4721030
   6.9855780  58.4919390  11.3134400   7.5676550  57.7371710  11.2254880
   7.1617550  59.0226830  10.5365880   3.6112740  58.8359890   8.6629020
   3.7308950  58.2401030   9.4023860   4.4706740  58.8729580   8.2430320
   5.9500640  59.3897080   7.2391530   5.4235860  59.9139700   6.6356670
   6.2931980  60.0224470   7.8701260   5.1974940  54.9947050  10.1537860
   4.5090460  54.3328590  10.0887850   5.9180960  54.5485320  10.5986320
   1.9818470  68.6447930   8.6535560   1.9077170  69.5483070   8.9607930
   1.0797310  68.3259830   8.6257630   9.5098150  66.3410110   8.9828120
   8.9100140  66.4002670   8.2392040   9.6392050  65.4015090   9.1124970
   8.1949790  63.0662090   7.0804280   7.3809630  63.4959250   7.3430070
   8.6023990  63.6780500   6.4673330   9.5440190  58.2050290   8.6073500
   9.3126280  57.9763040   7.7071450   9.8044740  59.1249840   8.5618390
   7.9828260  53.4306720  11.3853200   8.8598440  53.4390120  11.7687200
   7.9949100  52.6937560  10.7745550   9.4291530  57.2836260   2.2741220
   9.9529010  56.7898910   1.6431390  10.0150950  57.4186620   3.0188790
   9.6081250  57.3676130   5.7960770   8.6583960  57.3339670   5.9105760
   9.7894260  58.2776240   5.5610540   8.6944380  51.1164690   7.2054310
   9.3316600  51.7298830   7.5713500   8.8419270  51.1525350   6.2603540
   2.0648860  52.2690880  10.1129410   2.0037750  52.8612710  10.8624820
   3.0049240  52.1616840   9.9679670   4.7023420  51.9260940   9.7521700
   5.3163830  52.2440230   9.0902780   5.2472980  51.4409530  10.3717560
  11.1198600  67.8252570   7.1583540  10.6256880  68.2221440   6.4410670
  10.5111890  67.2001780   7.5520820   5.4431460  50.4893080   6.0790990
   4.5691300  50.8228190   5.8763920   5.3342210  50.0166260   6.9042860
   6.3503440  52.6963950   7.4632710   6.0216800  51.8815710   7.0834440
   7.2985740  52.6533760   7.3398400   8.8038050  68.4675990   4.4370280
   8.3441020  69.2191800   4.0628300   8.1750510  67.7482460   4.3785080
   1.9729270  67.6672720   4.4387390   2.2607080  67.4127020   3.5620400
   2.4852490  67.1150080   5.0292960   3.1906280  51.4062920   5.0183900
   2.4078070  51.8808420   5.2980660   2.8969210  50.5017750   4.9097080
   7.7427350  52.1086020   3.0632990   8.1835440  52.0531120   2.2154590
   7.4734940  53.0244030   3.1343170   5.5785480  50.4892120   1.7683000
   6.1814850  51.0612330   2.2431520   4.8378470  51.0531560   1.5456900
   2.0401630  68.5888820  11.8055590   2.9668940  68.3533090  11.8491550
   2.0252060  69.4160820  11.3241620   5.8280700  50.6687150  12.1477940
   5.7146150  50.9881760  13.0429460   6.6450440  51.0699660  11.8515220
   8.6079190  67.8158680  11.6296630   9.4004510  67.3207910  11.4222590
   8.9012340  68.4948820  12.2372240   4.7338850  39.9136130 151.4804090
   4.6532900  38.9990740 151.2095800   4.3203270  40.4103200 150.7743800
   2.8656890  41.6915150 153.3613360   2.0898990  41.2115590 153.6511930
   3.5169820  41.0120800 153.1869520   6.8864320  46.0975340 152.1412490
   6.4245850  45.3262580 152.4699660   7.6989870  46.1241410 152.6464940
   3.1127630  48.3833350 151.7616480   2.4939070  48.8390850 151.1910920
   3.9679410  48.5384810 151.3606180   2.3065880  44.3672340 153.3683520
   2.2374160  43.4262280 153.2072650   3.0685740  44.4573750 153.9406090
   3.3371050  37.1742720 153.5952450   3.7135870  36.3014600 153.4826120
   3.2390560  37.5101420 152.7042890   7.1195170  34.6693160 150.5280790
   7.9404790  34.1789730 150.5706270   7.1529250  35.2590820 151.2812630
   3.9790980  43.2672590 149.1548390   3.3608250  43.7322040 148.5911110
   4.4914230  43.9600070 149.5717900   7.3556650  36.6093540 153.3008330
   6.6512220  36.8978430 153.8811440   7.7168810  37.4193650 152.9407890
  10.4243570  36.0548330 153.6917540   9.4768480  36.0887310 153.8232970
  10.7493560  36.8687280 154.0766900   6.5078170  48.0712800 154.2780990
   6.5205330  47.6675090 153.4103250   5.9553390  48.8460090 154.1742420
   7.8023590  44.7929020 149.3671160   7.6919920  43.8503350 149.4920580
   7.7991840  45.1544660 150.2533920   3.3443870  40.4194340 148.7233650
   2.4173150  40.3531720 148.9522120   3.4968690  41.3574470 148.6088890
   3.3312950  36.6911340 145.7200810   2.3916620  36.8525300 145.8053270
   3.6496210  37.4097020 145.1736800   7.3741160  41.9814640 149.2268900
   6.7553580  41.6434190 148.5795200   7.3565610  41.3374400 149.9348090
   5.5505860  41.2201450 146.2341650   5.9899140  40.3823880 146.0879470
   6.2634280  41.8530850 146.3205790   3.6601240  46.1597520 150.2022890
   4.0997150  46.9021850 149.7878280   3.5988130  46.4024090 151.1261850
   9.1323000  32.4744260 144.5482690   8.8195660  32.5671090 145.4481760
   9.8935470  33.0525290 144.4980120   6.3271420  49.1466640 147.5585900
   6.1672560  48.8569580 148.4567730   6.1618130  48.3706770 147.0231130
   6.0297550  46.6554200 146.1183900   5.3362710  46.6531490 145.4586180
   6.7720410  46.2313520 145.6878070   5.5947480  48.2816910 150.1932390
   6.0504430  47.5006290 150.5071010   5.9340000  48.9923730 150.7373570
   5.1380780  38.3136070 148.7155600   4.5389670  39.0371870 148.5319220
   5.6860390  38.2512850 147.9332050   3.7445650  36.9499610 150.7458880
   4.1375220  37.2671810 149.9327570   4.1062500  36.0711490 150.8603400
   8.1455290  42.5196330 153.7005010   8.8654410  43.0151620 153.3101120
   7.9437110  41.8414220 153.0558880   3.6065230  33.9134290 147.8434400
   2.7929840  33.4147460 147.7679710   3.4127180  34.7532540 147.4270750
   6.3213620  38.2853940 146.1396560   7.2093240  38.5971170 145.9647900
   6.2918710  37.4126190 145.7477140   2.3174210  44.4577630 146.8184730
   2.6589910  45.2019860 146.3228050   1.4886920  44.7708750 147.1809560
   8.5927890  39.5965780 145.6076420   8.5091610  40.0280000 144.7572860
   9.3122080  40.0564130 146.0403240   9.6215140  46.4508040 148.3358550
   8.9791300  45.7963660 148.6102270   9.2345800  46.8563130 147.5599220
   5.2001620  43.7793470 152.1830240   5.5525440  43.1821600 151.5231610
   4.3163950  43.4537700 152.3538490   8.0112520  45.3424500 144.8734900
   7.7850100  44.6254940 145.4659540   7.6208720  45.0936940 144.0356650
   7.5928770  43.2596440 146.5349060   7.3050470  43.7209130 147.3226940
   8.3880940  42.7994210 146.8033280   8.3498630  35.0945210 147.6944240
   7.7211790  35.1990880 146.9802470   7.8550550  35.3141990 148.4838120
   2.7956770  46.8150800 145.1278220   2.8968750  46.6114790 144.1980200
   1.8958510  46.5609080 145.3326000   4.3498090  34.0981820 150.5497910
   4.2265870  34.1167950 149.6007420   5.2982650  34.1460760 150.6696310
   7.4427460  40.2529000 151.3984400   6.5017600  40.2679230 151.5732090
   7.7571530  39.4664960 151.8444700   9.4453040  47.4237850 153.0738660
   9.5700460  48.2469020 153.5462470  10.3118600  47.2128580 152.7262810
   9.0803050  47.9169500 145.9918100   8.7944560  47.5034640 145.1772280
   8.8822600  48.8457210 145.8718620   3.7853010  42.9722810 145.0365700
   3.2363110  43.4192110 145.6808440   4.4072270  42.4672060 145.5603370
   1.9655770  40.9551340 144.1808100   2.4861430  40.2400360 143.8149250
   2.6124170  41.5937210 144.4808610   5.8275340  32.8155190 146.4076040
   6.1077630  31.9723090 146.7635460   5.0541070  33.0478300 146.9214790
   2.5303800  49.0362950 146.4709840   3.4254590  49.3747920 146.4928600
   2.5621430  48.3142360 145.8434120  10.7499600  45.3084440 144.5145750
   9.9192560  45.3761090 144.9852980  10.9271430  46.1988560 144.2112610
  10.2056060  42.0531920 147.0179950  10.9674970  42.6228570 147.1239640
  10.2210430  41.4859120 147.7888260  11.2116030  42.9082020 151.8621880
  11.5824860  42.1249340 151.4557850  11.8517960  43.5971120 151.6839180
  10.2575230  42.3466290 144.1752470  10.5324070  43.2545170 144.0471690
  10.0685970  42.2828820 145.1114460   6.6550840  35.3711140 145.4706100
   7.0735720  35.1842120 144.6302760   6.3486900  34.5190190 145.7809030
  10.1540570  40.2835280 149.1681900   9.7784170  39.5163210 148.7363190
   9.4243690  40.6657980 149.6556830   9.4291530  38.5092770 152.4689140
   9.9529010  38.0155420 151.8379310  10.0150950  38.6443130 153.2136710
   8.9191500  37.7666120 148.4081550   9.4150620  37.5336990 149.1930430
   8.7207570  36.9277960 147.9919190  10.3478660  36.4027070 150.9419230
  10.2377940  36.2483110 151.8801500  11.1086250  35.8748010 150.6994640
  11.2368930  34.2334990 144.1825370  12.1618240  34.1016170 143.9743660
  11.2144720  34.3127810 145.1361820  11.3107420  35.0045650 146.8082080
  10.5158920  34.9390770 147.3374990  11.5150700  35.9396290 146.7967430
   8.2525840  49.0437200 150.8020470   8.8484910  48.7221770 150.1254890
   8.5103990  48.5709020 151.5933740   7.7427350  33.3342530 153.2580910
   8.1835440  33.2787630 152.4102510   7.4734940  34.2500540 153.3291090
   9.6065920  32.9657770 151.2689730   9.5454320  32.0218990 151.1220750
  10.3857950  33.0737860 151.8143190   5.5785480  31.7148630 151.9630920
   6.1814850  32.2868840 152.4379440   4.8378470  32.2788070 151.7404820
   8.7220080  32.1170190 147.2371200   8.9170710  33.0153640 147.5038630
   7.9349950  31.8857270 147.7304150  10.2746690  49.3570900 148.9977760
  10.4498880  48.6708640 148.3538680   9.5768260  49.8817950 148.6054430
   4.7338850  39.9136130 132.7060600   4.6532900  38.9990740 132.4352310
   4.3203270  40.4103200 132.0000310   2.8656890  41.6915150 134.5869870
   2.0898990  41.2115590 134.8768440   3.5169820  41.0120800 134.4126030
   6.8864320  46.0975340 133.3669000   6.4245850  45.3262580 133.6956170
   7.6989870  46.1241410 133.8721450   3.1127630  48.3833350 132.9872990
   2.4939070  48.8390850 132.4167430   3.9679410  48.5384810 132.5862690
   2.3065880  44.3672340 134.5940030   2.2374160  43.4262280 134.4329160
   3.0685740  44.4573750 135.1662600   3.3371050  37.1742720 134.8208960
   3.7135870  36.3014600 134.7082630   3.2390560  37.5101420 133.9299400
   7.1195170  34.6693160 131.7537300   7.9404790  34.1789730 131.7962780
   7.1529250  35.2590820 132.5069140  11.4094720  36.6859910 138.3180930
  10.7046890  37.0741620 137.7996040  11.6752640  37.3810200 138.9201860
   3.9790980  43.2672590 130.3804900   3.3608250  43.7322040 129.8167620
   4.4914230  43.9600070 130.7974410   7.3556650  36.6093540 134.5264840
   6.6512220  36.8978430 135.1067950   7.7168810  37.4193650 134.1664400
   8.9719430  46.2268670 136.7892320   8.2882950  46.8967780 136.7808990
   9.5113720  46.4249320 136.0237180  10.4243570  36.0548330 134.9174050
   9.4768480  36.0887310 135.0489480  10.7493560  36.8687280 135.3023410
   6.5078170  48.0712800 135.5037500   6.5205330  47.6675090 134.6359760
   5.9553390  48.8460090 135.3998930   7.8023590  44.7929020 130.5927670
   7.6919920  43.8503350 130.7177090   7.7991840  45.1544660 131.4790430
   5.9063610  42.9742640 136.8320110   6.3232400  42.7602750 135.9973570
   6.6303430  43.2315430 137.4028730   3.3443870  40.4194340 129.9490160
   2.4173150  40.3531720 130.1778630   3.4968690  41.3574470 129.8345400
   3.3312950  36.6911340 126.9457320   2.3916620  36.8525300 127.0309780
   3.6496210  37.4097020 126.3993310   9.8525710  41.3729860 136.9236350
   9.0244340  41.4422950 136.4486480  10.4476190  41.9584170 136.4552180
   7.3741160  41.9814640 130.4525410   6.7553580  41.6434190 129.8051710
   7.3565610  41.3374400 131.1604600   6.8167720  38.1599180 137.8691220
   6.4038900  38.9852890 138.1231210   6.0843670  37.5744220 137.6767580
   7.5067820  48.2058510 138.5572200   7.0298380  49.0130700 138.3644810
   6.8229610  47.5536840 138.7098410   5.5505860  41.2201450 127.4598160
   5.9899140  40.3823880 127.3135980   6.2634280  41.8530850 127.5462300
   3.6601240  46.1597520 131.4279400   4.0997150  46.9021850 131.0134790
   3.5988130  46.4024090 132.3518360   9.1323000  32.4744260 125.7739200
   8.8195660  32.5671090 126.6738270   9.8935470  33.0525290 125.7236630
  11.0867030  47.9670450 143.6263590  11.5626750  48.4453340 144.3052670
  11.7074190  47.8987940 142.9009090  10.4900280  45.1583300 140.7863600
  10.6163340  44.9195180 139.8680780  10.5321660  44.3267840 141.2585680
   4.3517020  48.8611300 139.3558410   4.8661690  48.7719310 140.1580840
   3.5086100  49.2071000 139.6486320   6.3271420  49.1466640 128.7842410
   6.1672560  48.8569580 129.6824240   6.1618130  48.3706770 128.2487640
   6.0297550  46.6554200 127.3440410   5.3362710  46.6531490 126.6842690
   6.7720410  46.2313520 126.9134580   5.5947480  48.2816910 131.4188900
   6.0504430  47.5006290 131.7327520   5.9340000  48.9923730 131.9630080
  10.3424290  37.2115760 141.7513340   9.7268560  37.7195430 141.2228800
  10.0220710  36.3114090 141.6939280   2.4038610  36.0507650 139.2175530
   1.9417980  36.2590670 140.0295470   2.0016720  35.2367000 138.9146200
   7.4043120  37.2716600 140.3472190   6.5536710  36.9722350 140.6681260
   7.2444910  37.5158610 139.4356010   4.4992830  38.7718350 142.4470980
   4.8246240  37.9382100 142.1073210   5.2873160  39.2946870 142.5949310
   5.1380780  38.3136070 129.9412110   4.5389670  39.0371870 129.7575730
   5.6860390  38.2512850 129.1588560   3.7445650  36.9499610 131.9715390
   4.1375220  37.2671810 131.1584080   4.1062500  36.0711490 132.0859910
   2.0537820  35.7006920 143.2312250   1.3636140  35.5079120 143.8658340
   2.7970120  35.9841560 143.7636550   4.3300790  39.5405360 136.0666170
   3.5981910  40.0492170 136.4156270   3.9325130  38.7235340 135.7654950
   4.7926700  34.9939040 135.4789110   4.8099440  35.4447690 136.3230960
   4.5442280  34.0944680 135.6922550   8.2197450  32.4071220 141.3175490
   8.5443220  31.6760880 141.8433470   8.2553960  32.0884860 140.4156480
   8.1455290  42.5196330 134.9261520   8.8654410  43.0151620 134.5357630
   7.9437110  41.8414220 134.2815390   3.6065230  33.9134290 129.0690910
   2.7929840  33.4147460 128.9936220   3.4127180  34.7532540 128.6527260
   3.5274090  42.5905390 140.8130520   3.4611400  41.6701060 140.5588110
   2.8979230  42.6880830 141.5275160   6.3213620  38.2853940 127.3653070
   7.2093240  38.5971170 127.1904410   6.2918710  37.4126190 126.9733650
   2.3174210  44.4577630 128.0441240   2.6589910  45.2019860 127.5484560
   1.4886920  44.7708750 128.4066070   3.4590820  45.4125960 140.5634320
   3.4735360  44.4806920 140.3453230   2.7515920  45.4985720 141.2024090
   8.5927890  39.5965780 126.8332930   8.5091610  40.0280000 125.9829370
   9.3122080  40.0564130 127.2659750   9.6702030  42.0533300 139.9102900
   8.9450220  42.6462080 139.7132290  10.1977490  42.0456840 139.1116270
   9.6215140  46.4508040 129.5615060   8.9791300  45.7963660 129.8358780
   9.2345800  46.8563130 128.7855730   5.2001620  43.7793470 133.4086750
   5.5525440  43.1821600 132.7488120   4.3163950  43.4537700 133.5795000
   2.8924720  47.0543530 137.6574820   3.5366940  47.2602910 138.3348240
   3.2554160  46.2931930 137.2045670   4.1656800  45.0575880 136.3752270
   4.8079030  44.3569040 136.4884440   4.6906150  45.8374320 136.1949160
   8.0112520  45.3424500 126.0991410   7.7850100  44.6254940 126.6916050
   7.6208720  45.0936940 125.2613160   5.9394420  45.8570780 139.5788330
   6.2750660  46.4437470 140.2566250   5.0194760  45.7263490 139.8086120
   7.5928770  43.2596440 127.7605570   7.3050470  43.7209130 128.5483450
   8.3880940  42.7994210 128.0289790   1.7683000  45.9062110 142.7476390
   1.4479870  45.1871350 143.2922080   1.0941360  46.5817180 142.8212450
   4.9836600  36.1388270 138.1113190   5.3517420  35.3183480 138.4392760
   4.1234800  36.1990160 138.5268840   8.3498630  35.0945210 128.9200750
   7.7211790  35.1990880 128.2058980   7.8550550  35.3141990 129.7094630
   2.7956770  46.8150800 126.3534730   2.8968750  46.6114790 125.4236710
   1.8958510  46.5609080 126.5582510   1.9438590  38.7927860 138.3351160
   2.4423840  39.2673680 139.0003010   2.0861540  37.8691380 138.5421190
   4.3498090  34.0981820 131.7754420   4.2265870  34.1167950 130.8263930
   5.2982650  34.1460760 131.8952820   9.1505450  35.0095820 139.1779550
   8.6479050  35.7501220 139.5173360   9.9662110  35.3979820 138.8616340
   7.4427460  40.2529000 132.6240910   6.5017600  40.2679230 132.7988600
   7.7571530  39.4664960 133.0701210   9.4453040  47.4237850 134.2995170
   9.5700460  48.2469020 134.7718980  10.3118600  47.2128580 133.9519320
   4.7593480  44.8095000 143.1073290   4.1531640  44.8326600 142.3669040
   4.4547590  44.0778040 143.6440540   6.1893850  48.5375290 141.7182700
   7.1415600  48.4533310 141.6682940   6.0422070  49.2017000 142.3916490
   9.0803050  47.9169500 127.2174610   8.7944560  47.5034640 126.4028790
   8.8822600  48.8457210 127.0975130   3.7853010  42.9722810 126.2622210
   3.2363110  43.4192110 126.9064950   4.4072270  42.4672060 126.7859880
   7.8387950  44.3264910 142.1944470   8.5797420  44.6640670 141.6911930
   7.0760630  44.4956970 141.6414240   1.9655770  40.9551340 125.4064610
   2.4861430  40.2400360 125.0405760   2.6124170  41.5937210 125.7065120
   6.5133610  42.3779740 140.7299680   6.9274630  42.5324820 141.5790100
   5.5784610  42.5034960 140.8925460   6.9855780  39.7175900 142.7338830
   7.5676550  38.9628220 142.6459310   7.1617550  40.2483340 141.9570310
   3.6112740  40.0616400 140.0833450   3.7308950  39.4657540 140.8228290
   4.4706740  40.0986090 139.6634750   5.9500640  40.6153590 138.6595960
   5.4235860  41.1396210 138.0561100   6.2931980  41.2480980 139.2905690
   5.1974940  36.2203560 141.5742290   4.5090460  35.5585100 141.5092280
   5.9180960  35.7741830 142.0190750   5.8275340  32.8155190 127.6332550
   6.1077630  31.9723090 127.9891970   5.0541070  33.0478300 128.1471300
   1.9818470  49.8704440 140.0739990   1.9077170  50.7739580 140.3812360
   1.0797310  49.5516340 140.0462060   2.5303800  49.0362950 127.6966350
   3.4254590  49.3747920 127.7185110   2.5621430  48.3142360 127.0690630
   9.5098150  47.5666620 140.4032550   8.9100140  47.6259180 139.6596470
   9.6392050  46.6271600 140.5329400  10.7499600  45.3084440 125.7402260
   9.9192560  45.3761090 126.2109490  10.9271430  46.1988560 125.4369120
  10.2056060  42.0531920 128.2436460  10.9674970  42.6228570 128.3496150
  10.2210430  41.4859120 129.0144770  11.2116030  42.9082020 133.0878390
  11.5824860  42.1249340 132.6814360  11.8517960  43.5971120 132.9095690
   8.1949790  44.2918600 138.5008710   7.3809630  44.7215760 138.7634500
   8.6023990  44.9037010 137.8877760  10.2575230  42.3466290 125.4008980
  10.5324070  43.2545170 125.2728200  10.0685970  42.2828820 126.3370970
   6.6550840  35.3711140 126.6962610   7.0735720  35.1842120 125.8559270
   6.3486900  34.5190190 127.0065540  10.1540570  40.2835280 130.3938410
   9.7784170  39.5163210 129.9619700   9.4243690  40.6657980 130.8813340
   9.5440190  39.4306800 140.0277930   9.3126280  39.2019550 139.1275880
   9.8044740  40.3506350 139.9822820   7.9828260  34.6563230 142.8057630
   8.8598440  34.6646630 143.1891630   7.9949100  33.9194070 142.1949980
   9.4291530  38.5092770 133.6945650   9.9529010  38.0155420 133.0635820
  10.0150950  38.6443130 134.4393220   9.6081250  38.5932640 137.2165200
   8.6583960  38.5596180 137.3310190   9.7894260  39.5032750 136.9814970
   8.9191500  37.7666120 129.6338060   9.4150620  37.5336990 130.4186940
   8.7207570  36.9277960 129.2175700  10.3478660  36.4027070 132.1675740
  10.2377940  36.2483110 133.1058010  11.1086250  35.8748010 131.9251150
   8.6944380  32.3421200 138.6258740   9.3316600  32.9555340 138.9917930
   8.8419270  32.3781860 137.6807970  11.2368930  34.2334990 125.4081880
  12.1618240  34.1016170 125.2000170  11.2144720  34.3127810 126.3618330
  11.3107420  35.0045650 128.0338590  10.5158920  34.9390770 128.5631500
  11.5150700  35.9396290 128.0223940   8.2525840  49.0437200 132.0276980
   8.8484910  48.7221770 131.3511400   8.5103990  48.5709020 132.8190250
   2.0648860  33.4947390 141.5333840   2.0037750  34.0869220 142.2829250
   3.0049240  33.3873350 141.3884100   4.7023420  33.1517450 141.1726130
   5.3163830  33.4696740 140.5107210   5.2472980  32.6666040 141.7921990
  11.1198600  49.0509080 138.5787970  10.6256880  49.4477950 137.8615100
  10.5111890  48.4258290 138.9725250   5.4431460  31.7149590 137.4995420
   4.5691300  32.0484700 137.2968350   5.3342210  31.2422770 138.3247290
   6.3503440  33.9220460 138.8837140   6.0216800  33.1072220 138.5038870
   7.2985740  33.8790270 138.7602830   8.8038050  49.6932500 135.8574710
   8.3441020  50.4448310 135.4832730   8.1750510  48.9738970 135.7989510
   1.9729270  48.8929230 135.8591820   2.2607080  48.6383530 134.9824830
   2.4852490  48.3406590 136.4497390   3.1906280  32.6319430 136.4388330
   2.4078070  33.1064930 136.7185090   2.8969210  31.7274260 136.3301510
   7.7427350  33.3342530 134.4837420   8.1835440  33.2787630 133.6359020
   7.4734940  34.2500540 134.5547600   9.6065920  32.9657770 132.4946240
   9.5454320  32.0218990 132.3477260  10.3857950  33.0737860 133.0399700
   5.5785480  31.7148630 133.1887430   6.1814850  32.2868840 133.6635950
   4.8378470  32.2788070 132.9661330   8.7220080  32.1170190 128.4627710
   8.9170710  33.0153640 128.7295140   7.9349950  31.8857270 128.9560660
   2.0401630  49.8145330 143.2260020   2.9668940  49.5789600 143.2695980
   2.0252060  50.6417330 142.7446050  10.2746690  49.3570900 130.2234270
  10.4498880  48.6708640 129.5795190   9.5768260  49.8817950 129.8310940
   5.8280700  31.8943660 143.5682370   5.7146150  32.2138270 144.4633890
   6.6450440  32.2956170 143.2719650   8.6079190  49.0415190 143.0501060
   9.4004510  48.5464420 142.8427020   8.9012340  49.7205330 143.6576670
   4.7338850  39.9136130 113.9317110   4.6532900  38.9990740 113.6608820
   4.3203270  40.4103200 113.2256820   2.8656890  41.6915150 115.8126380
   2.0898990  41.2115590 116.1024950   3.5169820  41.0120800 115.6382540
   6.8864320  46.0975340 114.5925510   6.4245850  45.3262580 114.9212680
   7.6989870  46.1241410 115.0977960   3.1127630  48.3833350 114.2129500
   2.4939070  48.8390850 113.6423940   3.9679410  48.5384810 113.8119200
   2.3065880  44.3672340 115.8196540   2.2374160  43.4262280 115.6585670
   3.0685740  44.4573750 116.3919110   3.3371050  37.1742720 116.0465470
   3.7135870  36.3014600 115.9339140   3.2390560  37.5101420 115.1555910
   7.1195170  34.6693160 112.9793810   7.9404790  34.1789730 113.0219290
   7.1529250  35.2590820 113.7325650  11.4094720  36.6859910 119.5437440
  10.7046890  37.0741620 119.0252550  11.6752640  37.3810200 120.1458370
   3.9790980  43.2672590 111.6061410   3.3608250  43.7322040 111.0424130
   4.4914230  43.9600070 112.0230920   7.3556650  36.6093540 115.7521350
   6.6512220  36.8978430 116.3324460   7.7168810  37.4193650 115.3920910
   8.9719430  46.2268670 118.0148830   8.2882950  46.8967780 118.0065500
   9.5113720  46.4249320 117.2493690  10.4243570  36.0548330 116.1430560
   9.4768480  36.0887310 116.2745990  10.7493560  36.8687280 116.5279920
   6.5078170  48.0712800 116.7294010   6.5205330  47.6675090 115.8616270
   5.9553390  48.8460090 116.6255440   7.8023590  44.7929020 111.8184180
   7.6919920  43.8503350 111.9433600   7.7991840  45.1544660 112.7046940
   5.9063610  42.9742640 118.0576620   6.3232400  42.7602750 117.2230080
   6.6303430  43.2315430 118.6285240   3.3443870  40.4194340 111.1746670
   2.4173150  40.3531720 111.4035140   3.4968690  41.3574470 111.0601910
   3.3312950  36.6911340 108.1713830   2.3916620  36.8525300 108.2566290
   3.6496210  37.4097020 107.6249820   9.8525710  41.3729860 118.1492860
   9.0244340  41.4422950 117.6742990  10.4476190  41.9584170 117.6808690
   7.3741160  41.9814640 111.6781920   6.7553580  41.6434190 111.0308220
   7.3565610  41.3374400 112.3861110   6.8167720  38.1599180 119.0947730
   6.4038900  38.9852890 119.3487720   6.0843670  37.5744220 118.9024090
   7.5067820  48.2058510 119.7828710   7.0298380  49.0130700 119.5901320
   6.8229610  47.5536840 119.9354920   5.5505860  41.2201450 108.6854670
   5.9899140  40.3823880 108.5392490   6.2634280  41.8530850 108.7718810
   3.6601240  46.1597520 112.6535910   4.0997150  46.9021850 112.2391300
   3.5988130  46.4024090 113.5774870   9.1323000  32.4744260 106.9995710
   8.8195660  32.5671090 107.8994780   9.8935470  33.0525290 106.9493140
  11.0867030  47.9670450 124.8520100  11.5626750  48.4453340 125.5309180
  11.7074190  47.8987940 124.1265600  10.4900280  45.1583300 122.0120110
  10.6163340  44.9195180 121.0937290  10.5321660  44.3267840 122.4842190
   4.3517020  48.8611300 120.5814920   4.8661690  48.7719310 121.3837350
   3.5086100  49.2071000 120.8742830   6.3271420  49.1466640 110.0098920
   6.1672560  48.8569580 110.9080750   6.1618130  48.3706770 109.4744150
   6.0297550  46.6554200 108.5696920   5.3362710  46.6531490 107.9099200
   6.7720410  46.2313520 108.1391090   5.5947480  48.2816910 112.6445410
   6.0504430  47.5006290 112.9584030   5.9340000  48.9923730 113.1886590
  10.3424290  37.2115760 122.9769850   9.7268560  37.7195430 122.4485310
  10.0220710  36.3114090 122.9195790   2.4038610  36.0507650 120.4432040
   1.9417980  36.2590670 121.2551980   2.0016720  35.2367000 120.1402710
   7.4043120  37.2716600 121.5728700   6.5536710  36.9722350 121.8937770
   7.2444910  37.5158610 120.6612520   4.4992830  38.7718350 123.6727490
   4.8246240  37.9382100 123.3329720   5.2873160  39.2946870 123.8205820
   5.1380780  38.3136070 111.1668620   4.5389670  39.0371870 110.9832240
   5.6860390  38.2512850 110.3845070   3.7445650  36.9499610 113.1971900
   4.1375220  37.2671810 112.3840590   4.1062500  36.0711490 113.3116420
   2.0537820  35.7006920 124.4568760   1.3636140  35.5079120 125.0914850
   2.7970120  35.9841560 124.9893060   4.3300790  39.5405360 117.2922680
   3.5981910  40.0492170 117.6412780   3.9325130  38.7235340 116.9911460
   4.7926700  34.9939040 116.7045620   4.8099440  35.4447690 117.5487470
   4.5442280  34.0944680 116.9179060   8.2197450  32.4071220 122.5432000
   8.5443220  31.6760880 123.0689980   8.2553960  32.0884860 121.6412990
   8.1455290  42.5196330 116.1518030   8.8654410  43.0151620 115.7614140
   7.9437110  41.8414220 115.5071900   3.6065230  33.9134290 110.2947420
   2.7929840  33.4147460 110.2192730   3.4127180  34.7532540 109.8783770
   3.5274090  42.5905390 122.0387030   3.4611400  41.6701060 121.7844620
   2.8979230  42.6880830 122.7531670   6.3213620  38.2853940 108.5909580
   7.2093240  38.5971170 108.4160920   6.2918710  37.4126190 108.1990160
   2.3174210  44.4577630 109.2697750   2.6589910  45.2019860 108.7741070
   1.4886920  44.7708750 109.6322580   3.4590820  45.4125960 121.7890830
   3.4735360  44.4806920 121.5709740   2.7515920  45.4985720 122.4280600
   8.5927890  39.5965780 108.0589440   8.5091610  40.0280000 107.2085880
   9.3122080  40.0564130 108.4916260   9.6702030  42.0533300 121.1359410
   8.9450220  42.6462080 120.9388800  10.1977490  42.0456840 120.3372780
   9.6215140  46.4508040 110.7871570   8.9791300  45.7963660 111.0615290
   9.2345800  46.8563130 110.0112240   5.2001620  43.7793470 114.6343260
   5.5525440  43.1821600 113.9744630   4.3163950  43.4537700 114.8051510
   2.8924720  47.0543530 118.8831330   3.5366940  47.2602910 119.5604750
   3.2554160  46.2931930 118.4302180   4.1656800  45.0575880 117.6008780
   4.8079030  44.3569040 117.7140950   4.6906150  45.8374320 117.4205670
   8.0112520  45.3424500 107.3247920   7.7850100  44.6254940 107.9172560
   7.6208720  45.0936940 106.4869670   5.9394420  45.8570780 120.8044840
   6.2750660  46.4437470 121.4822760   5.0194760  45.7263490 121.0342630
   7.5928770  43.2596440 108.9862080   7.3050470  43.7209130 109.7739960
   8.3880940  42.7994210 109.2546300   1.7683000  45.9062110 123.9732900
   1.4479870  45.1871350 124.5178590   1.0941360  46.5817180 124.0468960
   4.9836600  36.1388270 119.3369700   5.3517420  35.3183480 119.6649270
   4.1234800  36.1990160 119.7525350   8.3498630  35.0945210 110.1457260
   7.7211790  35.1990880 109.4315490   7.8550550  35.3141990 110.9351140
   2.7956770  46.8150800 107.5791240   2.8968750  46.6114790 106.6493220
   1.8958510  46.5609080 107.7839020   1.9438590  38.7927860 119.5607670
   2.4423840  39.2673680 120.2259520   2.0861540  37.8691380 119.7677700
   4.3498090  34.0981820 113.0010930   4.2265870  34.1167950 112.0520440
   5.2982650  34.1460760 113.1209330   9.1505450  35.0095820 120.4036060
   8.6479050  35.7501220 120.7429870   9.9662110  35.3979820 120.0872850
   7.4427460  40.2529000 113.8497420   6.5017600  40.2679230 114.0245110
   7.7571530  39.4664960 114.2957720   9.4453040  47.4237850 115.5251680
   9.5700460  48.2469020 115.9975490  10.3118600  47.2128580 115.1775830
   4.7593480  44.8095000 124.3329800   4.1531640  44.8326600 123.5925550
   4.4547590  44.0778040 124.8697050   6.1893850  48.5375290 122.9439210
   7.1415600  48.4533310 122.8939450   6.0422070  49.2017000 123.6173000
   9.0803050  47.9169500 108.4431120   8.7944560  47.5034640 107.6285300
   8.8822600  48.8457210 108.3231640   3.7853010  42.9722810 107.4878720
   3.2363110  43.4192110 108.1321460   4.4072270  42.4672060 108.0116390
   7.8387950  44.3264910 123.4200980   8.5797420  44.6640670 122.9168440
   7.0760630  44.4956970 122.8670750   1.9655770  40.9551340 106.6321120
   2.4861430  40.2400360 106.2662270   2.6124170  41.5937210 106.9321630
   6.5133610  42.3779740 121.9556190   6.9274630  42.5324820 122.8046610
   5.5784610  42.5034960 122.1181970   6.9855780  39.7175900 123.9595340
   7.5676550  38.9628220 123.8715820   7.1617550  40.2483340 123.1826820
   3.6112740  40.0616400 121.3089960   3.7308950  39.4657540 122.0484800
   4.4706740  40.0986090 120.8891260   5.9500640  40.6153590 119.8852470
   5.4235860  41.1396210 119.2817610   6.2931980  41.2480980 120.5162200
   5.1974940  36.2203560 122.7998800   4.5090460  35.5585100 122.7348790
   5.9180960  35.7741830 123.2447260   5.8275340  32.8155190 108.8589060
   6.1077630  31.9723090 109.2148480   5.0541070  33.0478300 109.3727810
   1.9818470  49.8704440 121.2996500   1.9077170  50.7739580 121.6068870
   1.0797310  49.5516340 121.2718570   2.5303800  49.0362950 108.9222860
   3.4254590  49.3747920 108.9441620   2.5621430  48.3142360 108.2947140
   9.5098150  47.5666620 121.6289060   8.9100140  47.6259180 120.8852980
   9.6392050  46.6271600 121.7585910  10.7499600  45.3084440 106.9658770
   9.9192560  45.3761090 107.4366000  10.9271430  46.1988560 106.6625630
  10.2056060  42.0531920 109.4692970  10.9674970  42.6228570 109.5752660
  10.2210430  41.4859120 110.2401280  11.2116030  42.9082020 114.3134900
  11.5824860  42.1249340 113.9070870  11.8517960  43.5971120 114.1352200
   8.1949790  44.2918600 119.7265220   7.3809630  44.7215760 119.9891010
   8.6023990  44.9037010 119.1134270  10.2575230  42.3466290 106.6265490
  10.5324070  43.2545170 106.4984710  10.0685970  42.2828820 107.5627480
   6.6550840  35.3711140 107.9219120   7.0735720  35.1842120 107.0815780
   6.3486900  34.5190190 108.2322050  10.1540570  40.2835280 111.6194920
   9.7784170  39.5163210 111.1876210   9.4243690  40.6657980 112.1069850
   9.5440190  39.4306800 121.2534440   9.3126280  39.2019550 120.3532390
   9.8044740  40.3506350 121.2079330   7.9828260  34.6563230 124.0314140
   8.8598440  34.6646630 124.4148140   7.9949100  33.9194070 123.4206490
   9.4291530  38.5092770 114.9202160   9.9529010  38.0155420 114.2892330
  10.0150950  38.6443130 115.6649730   9.6081250  38.5932640 118.4421710
   8.6583960  38.5596180 118.5566700   9.7894260  39.5032750 118.2071480
   8.9191500  37.7666120 110.8594570   9.4150620  37.5336990 111.6443450
   8.7207570  36.9277960 110.4432210  10.3478660  36.4027070 113.3932250
  10.2377940  36.2483110 114.3314520  11.1086250  35.8748010 113.1507660
   8.6944380  32.3421200 119.8515250   9.3316600  32.9555340 120.2174440
   8.8419270  32.3781860 118.9064480  11.2368930  34.2334990 106.6338390
  12.1618240  34.1016170 106.4256680  11.2144720  34.3127810 107.5874840
  11.3107420  35.0045650 109.2595100  10.5158920  34.9390770 109.7888010
  11.5150700  35.9396290 109.2480450   8.2525840  49.0437200 113.2533490
   8.8484910  48.7221770 112.5767910   8.5103990  48.5709020 114.0446760
   2.0648860  33.4947390 122.7590350   2.0037750  34.0869220 123.5085760
   3.0049240  33.3873350 122.6140610   4.7023420  33.1517450 122.3982640
   5.3163830  33.4696740 121.7363720   5.2472980  32.6666040 123.0178500
  11.1198600  49.0509080 119.8044480  10.6256880  49.4477950 119.0871610
  10.5111890  48.4258290 120.1981760   5.4431460  31.7149590 118.7251930
   4.5691300  32.0484700 118.5224860   5.3342210  31.2422770 119.5503800
   6.3503440  33.9220460 120.1093650   6.0216800  33.1072220 119.7295380
   7.2985740  33.8790270 119.9859340   8.8038050  49.6932500 117.0831220
   8.3441020  50.4448310 116.7089240   8.1750510  48.9738970 117.0246020
   1.9729270  48.8929230 117.0848330   2.2607080  48.6383530 116.2081340
   2.4852490  48.3406590 117.6753900   3.1906280  32.6319430 117.6644840
   2.4078070  33.1064930 117.9441600   2.8969210  31.7274260 117.5558020
   7.7427350  33.3342530 115.7093930   8.1835440  33.2787630 114.8615530
   7.4734940  34.2500540 115.7804110   9.6065920  32.9657770 113.7202750
   9.5454320  32.0218990 113.5733770  10.3857950  33.0737860 114.2656210
   5.5785480  31.7148630 114.4143940   6.1814850  32.2868840 114.8892460
   4.8378470  32.2788070 114.1917840   8.7220080  32.1170190 109.6884220
   8.9170710  33.0153640 109.9551650   7.9349950  31.8857270 110.1817170
   2.0401630  49.8145330 124.4516530   2.9668940  49.5789600 124.4952490
   2.0252060  50.6417330 123.9702560  10.2746690  49.3570900 111.4490780
  10.4498880  48.6708640 110.8051700   9.5768260  49.8817950 111.0567450
   5.8280700  31.8943660 124.7938880   5.7146150  32.2138270 125.6890400
   6.6450440  32.2956170 124.4976160   8.6079190  49.0415190 124.2757570
   9.4004510  48.5464420 124.0683530   8.9012340  49.7205330 124.8833180
   4.7338850  39.9136130  95.1573620   4.6532900  38.9990740  94.8865330
   4.3203270  40.4103200  94.4513330   2.8656890  41.6915150  97.0382890
   2.0898990  41.2115590  97.3281460   3.5169820  41.0120800  96.8639050
   6.8864320  46.0975340  95.8182020   6.4245850  45.3262580  96.1469190
   7.6989870  46.1241410  96.3234470   3.1127630  48.3833350  95.4386010
   2.4939070  48.8390850  94.8680450   3.9679410  48.5384810  95.0375710
   2.3065880  44.3672340  97.0453050   2.2374160  43.4262280  96.8842180
   3.0685740  44.4573750  97.6175620   3.3371050  37.1742720  97.2721980
   3.7135870  36.3014600  97.1595650   3.2390560  37.5101420  96.3812420
   7.1195170  34.6693160  94.2050320   7.9404790  34.1789730  94.2475800
   7.1529250  35.2590820  94.9582160  11.4094720  36.6859910 100.7693950
  10.7046890  37.0741620 100.2509060  11.6752640  37.3810200 101.3714880
   3.9790980  43.2672590  92.8317920   3.3608250  43.7322040  92.2680640
   4.4914230  43.9600070  93.2487430   7.3556650  36.6093540  96.9777860
   6.6512220  36.8978430  97.5580970   7.7168810  37.4193650  96.6177420
   8.9719430  46.2268670  99.2405340   8.2882950  46.8967780  99.2322010
   9.5113720  46.4249320  98.4750200  10.4243570  36.0548330  97.3687070
   9.4768480  36.0887310  97.5002500  10.7493560  36.8687280  97.7536430
   6.5078170  48.0712800  97.9550520   6.5205330  47.6675090  97.0872780
   5.9553390  48.8460090  97.8511950   7.8023590  44.7929020  93.0440690
   7.6919920  43.8503350  93.1690110   7.7991840  45.1544660  93.9303450
   5.9063610  42.9742640  99.2833130   6.3232400  42.7602750  98.4486590
   6.6303430  43.2315430  99.8541750   3.3443870  40.4194340  92.4003180
   2.4173150  40.3531720  92.6291650   3.4968690  41.3574470  92.2858420
   3.3312950  36.6911340  89.3970340   2.3916620  36.8525300  89.4822800
   3.6496210  37.4097020  88.8506330   9.8525710  41.3729860  99.3749370
   9.0244340  41.4422950  98.8999500  10.4476190  41.9584170  98.9065200
   7.3741160  41.9814640  92.9038430   6.7553580  41.6434190  92.2564730
   7.3565610  41.3374400  93.6117620   6.8167720  38.1599180 100.3204240
   6.4038900  38.9852890 100.5744230   6.0843670  37.5744220 100.1280600
   7.5067820  48.2058510 101.0085220   7.0298380  49.0130700 100.8157830
   6.8229610  47.5536840 101.1611430   5.5505860  41.2201450  89.9111180
   5.9899140  40.3823880  89.7649000   6.2634280  41.8530850  89.9975320
   3.6601240  46.1597520  93.8792420   4.0997150  46.9021850  93.4647810
   3.5988130  46.4024090  94.8031380   9.1323000  32.4744260  88.2252220
   8.8195660  32.5671090  89.1251290   9.8935470  33.0525290  88.1749650
  11.0867030  47.9670450 106.0776610  11.5626750  48.4453340 106.7565690
  11.7074190  47.8987940 105.3522110  10.4900280  45.1583300 103.2376620
  10.6163340  44.9195180 102.3193800  10.5321660  44.3267840 103.7098700
   4.3517020  48.8611300 101.8071430   4.8661690  48.7719310 102.6093860
   3.5086100  49.2071000 102.0999340   6.3271420  49.1466640  91.2355430
   6.1672560  48.8569580  92.1337260   6.1618130  48.3706770  90.7000660
   6.0297550  46.6554200  89.7953430   5.3362710  46.6531490  89.1355710
   6.7720410  46.2313520  89.3647600   5.5947480  48.2816910  93.8701920
   6.0504430  47.5006290  94.1840540   5.9340000  48.9923730  94.4143100
  10.3424290  37.2115760 104.2026360   9.7268560  37.7195430 103.6741820
  10.0220710  36.3114090 104.1452300   2.4038610  36.0507650 101.6688550
   1.9417980  36.2590670 102.4808490   2.0016720  35.2367000 101.3659220
   7.4043120  37.2716600 102.7985210   6.5536710  36.9722350 103.1194280
   7.2444910  37.5158610 101.8869030   4.4992830  38.7718350 104.8984000
   4.8246240  37.9382100 104.5586230   5.2873160  39.2946870 105.0462330
   5.1380780  38.3136070  92.3925130   4.5389670  39.0371870  92.2088750
   5.6860390  38.2512850  91.6101580   3.7445650  36.9499610  94.4228410
   4.1375220  37.2671810  93.6097100   4.1062500  36.0711490  94.5372930
   2.0537820  35.7006920 105.6825270   1.3636140  35.5079120 106.3171360
   2.7970120  35.9841560 106.2149570   4.3300790  39.5405360  98.5179190
   3.5981910  40.0492170  98.8669290   3.9325130  38.7235340  98.2167970
   4.7926700  34.9939040  97.9302130   4.8099440  35.4447690  98.7743980
   4.5442280  34.0944680  98.1435570   8.2197450  32.4071220 103.7688510
   8.5443220  31.6760880 104.2946490   8.2553960  32.0884860 102.8669500
   8.1455290  42.5196330  97.3774540   8.8654410  43.0151620  96.9870650
   7.9437110  41.8414220  96.7328410   3.6065230  33.9134290  91.5203930
   2.7929840  33.4147460  91.4449240   3.4127180  34.7532540  91.1040280
   3.5274090  42.5905390 103.2643540   3.4611400  41.6701060 103.0101130
   2.8979230  42.6880830 103.9788180   6.3213620  38.2853940  89.8166090
   7.2093240  38.5971170  89.6417430   6.2918710  37.4126190  89.4246670
   2.3174210  44.4577630  90.4954260   2.6589910  45.2019860  89.9997580
   1.4886920  44.7708750  90.8579090   3.4590820  45.4125960 103.0147340
   3.4735360  44.4806920 102.7966250   2.7515920  45.4985720 103.6537110
   8.5927890  39.5965780  89.2845950   8.5091610  40.0280000  88.4342390
   9.3122080  40.0564130  89.7172770   9.6702030  42.0533300 102.3615920
   8.9450220  42.6462080 102.1645310  10.1977490  42.0456840 101.5629290
   9.6215140  46.4508040  92.0128080   8.9791300  45.7963660  92.2871800
   9.2345800  46.8563130  91.2368750   5.2001620  43.7793470  95.8599770
   5.5525440  43.1821600  95.2001140   4.3163950  43.4537700  96.0308020
   2.8924720  47.0543530 100.1087840   3.5366940  47.2602910 100.7861260
   3.2554160  46.2931930  99.6558690   4.1656800  45.0575880  98.8265290
   4.8079030  44.3569040  98.9397460   4.6906150  45.8374320  98.6462180
   8.0112520  45.3424500  88.5504430   7.7850100  44.6254940  89.1429070
   7.6208720  45.0936940  87.7126180   5.9394420  45.8570780 102.0301350
   6.2750660  46.4437470 102.7079270   5.0194760  45.7263490 102.2599140
   7.5928770  43.2596440  90.2118590   7.3050470  43.7209130  90.9996470
   8.3880940  42.7994210  90.4802810   1.7683000  45.9062110 105.1989410
   1.4479870  45.1871350 105.7435100   1.0941360  46.5817180 105.2725470
   4.9836600  36.1388270 100.5626210   5.3517420  35.3183480 100.8905780
   4.1234800  36.1990160 100.9781860   8.3498630  35.0945210  91.3713770
   7.7211790  35.1990880  90.6572000   7.8550550  35.3141990  92.1607650
   2.7956770  46.8150800  88.8047750   2.8968750  46.6114790  87.8749730
   1.8958510  46.5609080  89.0095530   1.9438590  38.7927860 100.7864180
   2.4423840  39.2673680 101.4516030   2.0861540  37.8691380 100.9934210
   4.3498090  34.0981820  94.2267440   4.2265870  34.1167950  93.2776950
   5.2982650  34.1460760  94.3465840   9.1505450  35.0095820 101.6292570
   8.6479050  35.7501220 101.9686380   9.9662110  35.3979820 101.3129360
   7.4427460  40.2529000  95.0753930   6.5017600  40.2679230  95.2501620
   7.7571530  39.4664960  95.5214230   9.4453040  47.4237850  96.7508190
   9.5700460  48.2469020  97.2232000  10.3118600  47.2128580  96.4032340
   4.7593480  44.8095000 105.5586310   4.1531640  44.8326600 104.8182060
   4.4547590  44.0778040 106.0953560   6.1893850  48.5375290 104.1695720
   7.1415600  48.4533310 104.1195960   6.0422070  49.2017000 104.8429510
   9.0803050  47.9169500  89.6687630   8.7944560  47.5034640  88.8541810
   8.8822600  48.8457210  89.5488150   3.7853010  42.9722810  88.7135230
   3.2363110  43.4192110  89.3577970   4.4072270  42.4672060  89.2372900
   7.8387950  44.3264910 104.6457490   8.5797420  44.6640670 104.1424950
   7.0760630  44.4956970 104.0927260   1.9655770  40.9551340  87.8577630
   2.4861430  40.2400360  87.4918780   2.6124170  41.5937210  88.1578140
   6.5133610  42.3779740 103.1812700   6.9274630  42.5324820 104.0303120
   5.5784610  42.5034960 103.3438480   6.9855780  39.7175900 105.1851850
   7.5676550  38.9628220 105.0972330   7.1617550  40.2483340 104.4083330
   3.6112740  40.0616400 102.5346470   3.7308950  39.4657540 103.2741310
   4.4706740  40.0986090 102.1147770   5.9500640  40.6153590 101.1108980
   5.4235860  41.1396210 100.5074120   6.2931980  41.2480980 101.7418710
   5.1974940  36.2203560 104.0255310   4.5090460  35.5585100 103.9605300
   5.9180960  35.7741830 104.4703770   5.8275340  32.8155190  90.0845570
   6.1077630  31.9723090  90.4404990   5.0541070  33.0478300  90.5984320
   1.9818470  49.8704440 102.5253010   1.9077170  50.7739580 102.8325380
   1.0797310  49.5516340 102.4975080   2.5303800  49.0362950  90.1479370
   3.4254590  49.3747920  90.1698130   2.5621430  48.3142360  89.5203650
   9.5098150  47.5666620 102.8545570   8.9100140  47.6259180 102.1109490
   9.6392050  46.6271600 102.9842420  10.7499600  45.3084440  88.1915280
   9.9192560  45.3761090  88.6622510  10.9271430  46.1988560  87.8882140
  10.2056060  42.0531920  90.6949480  10.9674970  42.6228570  90.8009170
  10.2210430  41.4859120  91.4657790  11.2116030  42.9082020  95.5391410
  11.5824860  42.1249340  95.1327380  11.8517960  43.5971120  95.3608710
   8.1949790  44.2918600 100.9521730   7.3809630  44.7215760 101.2147520
   8.6023990  44.9037010 100.3390780  10.2575230  42.3466290  87.8522000
  10.5324070  43.2545170  87.7241220  10.0685970  42.2828820  88.7883990
   6.6550840  35.3711140  89.1475630   7.0735720  35.1842120  88.3072290
   6.3486900  34.5190190  89.4578560  10.1540570  40.2835280  92.8451430
   9.7784170  39.5163210  92.4132720   9.4243690  40.6657980  93.3326360
   9.5440190  39.4306800 102.4790950   9.3126280  39.2019550 101.5788900
   9.8044740  40.3506350 102.4335840   7.9828260  34.6563230 105.2570650
   8.8598440  34.6646630 105.6404650   7.9949100  33.9194070 104.6463000
   9.4291530  38.5092770  96.1458670   9.9529010  38.0155420  95.5148840
  10.0150950  38.6443130  96.8906240   9.6081250  38.5932640  99.6678220
   8.6583960  38.5596180  99.7823210   9.7894260  39.5032750  99.4327990
   8.9191500  37.7666120  92.0851080   9.4150620  37.5336990  92.8699960
   8.7207570  36.9277960  91.6688720  10.3478660  36.4027070  94.6188760
  10.2377940  36.2483110  95.5571030  11.1086250  35.8748010  94.3764170
   8.6944380  32.3421200 101.0771760   9.3316600  32.9555340 101.4430950
   8.8419270  32.3781860 100.1320990  11.2368930  34.2334990  87.8594900
  12.1618240  34.1016170  87.6513190  11.2144720  34.3127810  88.8131350
  11.3107420  35.0045650  90.4851610  10.5158920  34.9390770  91.0144520
  11.5150700  35.9396290  90.4736960   8.2525840  49.0437200  94.4790000
   8.8484910  48.7221770  93.8024420   8.5103990  48.5709020  95.2703270
   2.0648860  33.4947390 103.9846860   2.0037750  34.0869220 104.7342270
   3.0049240  33.3873350 103.8397120   4.7023420  33.1517450 103.6239150
   5.3163830  33.4696740 102.9620230   5.2472980  32.6666040 104.2435010
  11.1198600  49.0509080 101.0300990  10.6256880  49.4477950 100.3128120
  10.5111890  48.4258290 101.4238270   5.4431460  31.7149590  99.9508440
   4.5691300  32.0484700  99.7481370   5.3342210  31.2422770 100.7760310
   6.3503440  33.9220460 101.3350160   6.0216800  33.1072220 100.9551890
   7.2985740  33.8790270 101.2115850   8.8038050  49.6932500  98.3087730
   8.3441020  50.4448310  97.9345750   8.1750510  48.9738970  98.2502530
   1.9729270  48.8929230  98.3104840   2.2607080  48.6383530  97.4337850
   2.4852490  48.3406590  98.9010410   3.1906280  32.6319430  98.8901350
   2.4078070  33.1064930  99.1698110   2.8969210  31.7274260  98.7814530
   7.7427350  33.3342530  96.9350440   8.1835440  33.2787630  96.0872040
   7.4734940  34.2500540  97.0060620   9.6065920  32.9657770  94.9459260
   9.5454320  32.0218990  94.7990280  10.3857950  33.0737860  95.4912720
   5.5785480  31.7148630  95.6400450   6.1814850  32.2868840  96.1148970
   4.8378470  32.2788070  95.4174350   8.7220080  32.1170190  90.9140730
   8.9170710  33.0153640  91.1808160   7.9349950  31.8857270  91.4073680
   2.0401630  49.8145330 105.6773040   2.9668940  49.5789600 105.7209000
   2.0252060  50.6417330 105.1959070  10.2746690  49.3570900  92.6747290
  10.4498880  48.6708640  92.0308210   9.5768260  49.8817950  92.2823960
   5.8280700  31.8943660 106.0195390   5.7146150  32.2138270 106.9146910
   6.6450440  32.2956170 105.7232670   8.6079190  49.0415190 105.5014080
   9.4004510  48.5464420 105.2940040   8.9012340  49.7205330 106.1089690
   4.7338850  39.9136130  76.3830130   4.6532900  38.9990740  76.1121840
   4.3203270  40.4103200  75.6769840   2.8656890  41.6915150  78.2639400
   2.0898990  41.2115590  78.5537970   3.5169820  41.0120800  78.0895560
   6.8864320  46.0975340  77.0438530   6.4245850  45.3262580  77.3725700
   7.6989870  46.1241410  77.5490980   3.1127630  48.3833350  76.6642520
   2.4939070  48.8390850  76.0936960   3.9679410  48.5384810  76.2632220
   2.3065880  44.3672340  78.2709560   2.2374160  43.4262280  78.1098690
   3.0685740  44.4573750  78.8432130   3.3371050  37.1742720  78.4978490
   3.7135870  36.3014600  78.3852160   3.2390560  37.5101420  77.6068930
   7.1195170  34.6693160  75.4306830   7.9404790  34.1789730  75.4732310
   7.1529250  35.2590820  76.1838670  11.4094720  36.6859910  81.9950460
  10.7046890  37.0741620  81.4765570  11.6752640  37.3810200  82.5971390
   3.9790980  43.2672590  74.0574430   3.3608250  43.7322040  73.4937150
   4.4914230  43.9600070  74.4743940   7.3556650  36.6093540  78.2034370
   6.6512220  36.8978430  78.7837480   7.7168810  37.4193650  77.8433930
   8.9719430  46.2268670  80.4661850   8.2882950  46.8967780  80.4578520
   9.5113720  46.4249320  79.7006710  10.4243570  36.0548330  78.5943580
   9.4768480  36.0887310  78.7259010  10.7493560  36.8687280  78.9792940
   6.5078170  48.0712800  79.1807030   6.5205330  47.6675090  78.3129290
   5.9553390  48.8460090  79.0768460   7.8023590  44.7929020  74.2697200
   7.6919920  43.8503350  74.3946620   7.7991840  45.1544660  75.1559960
   5.9063610  42.9742640  80.5089640   6.3232400  42.7602750  79.6743100
   6.6303430  43.2315430  81.0798260   3.3443870  40.4194340  73.6259690
   2.4173150  40.3531720  73.8548160   3.4968690  41.3574470  73.5114930
   3.3312950  36.6911340  70.6226850   2.3916620  36.8525300  70.7079310
   3.6496210  37.4097020  70.0762840   9.8525710  41.3729860  80.6005880
   9.0244340  41.4422950  80.1256010  10.4476190  41.9584170  80.1321710
   7.3741160  41.9814640  74.1294940   6.7553580  41.6434190  73.4821240
   7.3565610  41.3374400  74.8374130   6.8167720  38.1599180  81.5460750
   6.4038900  38.9852890  81.8000740   6.0843670  37.5744220  81.3537110
   7.5067820  48.2058510  82.2341730   7.0298380  49.0130700  82.0414340
   6.8229610  47.5536840  82.3867940   5.5505860  41.2201450  71.1367690
   5.9899140  40.3823880  70.9905510   6.2634280  41.8530850  71.2231830
   3.6601240  46.1597520  75.1048930   4.0997150  46.9021850  74.6904320
   3.5988130  46.4024090  76.0287890   9.1323000  32.4744260  69.4508730
   8.8195660  32.5671090  70.3507800   9.8935470  33.0525290  69.4006160
  11.0867030  47.9670450  87.3033120  11.5626750  48.4453340  87.9822200
  11.7074190  47.8987940  86.5778620  10.4900280  45.1583300  84.4633130
  10.6163340  44.9195180  83.5450310  10.5321660  44.3267840  84.9355210
   4.3517020  48.8611300  83.0327940   4.8661690  48.7719310  83.8350370
   3.5086100  49.2071000  83.3255850   6.3271420  49.1466640  72.4611940
   6.1672560  48.8569580  73.3593770   6.1618130  48.3706770  71.9257170
   6.0297550  46.6554200  71.0209940   5.3362710  46.6531490  70.3612220
   6.7720410  46.2313520  70.5904110   5.5947480  48.2816910  75.0958430
   6.0504430  47.5006290  75.4097050   5.9340000  48.9923730  75.6399610
  10.3424290  37.2115760  85.4282870   9.7268560  37.7195430  84.8998330
  10.0220710  36.3114090  85.3708810   2.4038610  36.0507650  82.8945060
   1.9417980  36.2590670  83.7065000   2.0016720  35.2367000  82.5915730
   7.4043120  37.2716600  84.0241720   6.5536710  36.9722350  84.3450790
   7.2444910  37.5158610  83.1125540   4.4992830  38.7718350  86.1240510
   4.8246240  37.9382100  85.7842740   5.2873160  39.2946870  86.2718840
   5.1380780  38.3136070  73.6181640   4.5389670  39.0371870  73.4345260
   5.6860390  38.2512850  72.8358090   3.7445650  36.9499610  75.6484920
   4.1375220  37.2671810  74.8353610   4.1062500  36.0711490  75.7629440
   2.0537820  35.7006920  86.9081780   1.3636140  35.5079120  87.5427870
   2.7970120  35.9841560  87.4406080   4.3300790  39.5405360  79.7435700
   3.5981910  40.0492170  80.0925800   3.9325130  38.7235340  79.4424480
   4.7926700  34.9939040  79.1558640   4.8099440  35.4447690  80.0000490
   4.5442280  34.0944680  79.3692080   8.2197450  32.4071220  84.9945020
   8.5443220  31.6760880  85.5203000   8.2553960  32.0884860  84.0926010
   8.1455290  42.5196330  78.6031050   8.8654410  43.0151620  78.2127160
   7.9437110  41.8414220  77.9584920   3.6065230  33.9134290  72.7460440
   2.7929840  33.4147460  72.6705750   3.4127180  34.7532540  72.3296790
   3.5274090  42.5905390  84.4900050   3.4611400  41.6701060  84.2357640
   2.8979230  42.6880830  85.2044690   6.3213620  38.2853940  71.0422600
   7.2093240  38.5971170  70.8673940   6.2918710  37.4126190  70.6503180
   2.3174210  44.4577630  71.7210770   2.6589910  45.2019860  71.2254090
   1.4886920  44.7708750  72.0835600   3.4590820  45.4125960  84.2403850
   3.4735360  44.4806920  84.0222760   2.7515920  45.4985720  84.8793620
   8.5927890  39.5965780  70.5102460   8.5091610  40.0280000  69.6598900
   9.3122080  40.0564130  70.9429280   9.6702030  42.0533300  83.5872430
   8.9450220  42.6462080  83.3901820  10.1977490  42.0456840  82.7885800
   9.6215140  46.4508040  73.2384590   8.9791300  45.7963660  73.5128310
   9.2345800  46.8563130  72.4625260   5.2001620  43.7793470  77.0856280
   5.5525440  43.1821600  76.4257650   4.3163950  43.4537700  77.2564530
   2.8924720  47.0543530  81.3344350   3.5366940  47.2602910  82.0117770
   3.2554160  46.2931930  80.8815200   4.1656800  45.0575880  80.0521800
   4.8079030  44.3569040  80.1653970   4.6906150  45.8374320  79.8718690
   8.0112520  45.3424500  69.7760940   7.7850100  44.6254940  70.3685580
   7.6208720  45.0936940  68.9382690   5.9394420  45.8570780  83.2557860
   6.2750660  46.4437470  83.9335780   5.0194760  45.7263490  83.4855650
   7.5928770  43.2596440  71.4375100   7.3050470  43.7209130  72.2252980
   8.3880940  42.7994210  71.7059320   1.7683000  45.9062110  86.4245920
   1.4479870  45.1871350  86.9691610   1.0941360  46.5817180  86.4981980
   4.9836600  36.1388270  81.7882720   5.3517420  35.3183480  82.1162290
   4.1234800  36.1990160  82.2038370   8.3498630  35.0945210  72.5970280
   7.7211790  35.1990880  71.8828510   7.8550550  35.3141990  73.3864160
   2.7956770  46.8150800  70.0304260   2.8968750  46.6114790  69.1006240
   1.8958510  46.5609080  70.2352040   1.9438590  38.7927860  82.0120690
   2.4423840  39.2673680  82.6772540   2.0861540  37.8691380  82.2190720
   4.3498090  34.0981820  75.4523950   4.2265870  34.1167950  74.5033460
   5.2982650  34.1460760  75.5722350   9.1505450  35.0095820  82.8549080
   8.6479050  35.7501220  83.1942890   9.9662110  35.3979820  82.5385870
   7.4427460  40.2529000  76.3010440   6.5017600  40.2679230  76.4758130
   7.7571530  39.4664960  76.7470740   9.4453040  47.4237850  77.9764700
   9.5700460  48.2469020  78.4488510  10.3118600  47.2128580  77.6288850
   4.7593480  44.8095000  86.7842820   4.1531640  44.8326600  86.0438570
   4.4547590  44.0778040  87.3210070   6.1893850  48.5375290  85.3952230
   7.1415600  48.4533310  85.3452470   6.0422070  49.2017000  86.0686020
   9.0803050  47.9169500  70.8944140   8.7944560  47.5034640  70.0798320
   8.8822600  48.8457210  70.7744660   3.7853010  42.9722810  69.9391740
   3.2363110  43.4192110  70.5834480   4.4072270  42.4672060  70.4629410
   7.8387950  44.3264910  85.8714000   8.5797420  44.6640670  85.3681460
   7.0760630  44.4956970  85.3183770   1.9655770  40.9551340  69.0834140
   2.4861430  40.2400360  68.7175290   2.6124170  41.5937210  69.3834650
   6.5133610  42.3779740  84.4069210   6.9274630  42.5324820  85.2559630
   5.5784610  42.5034960  84.5694990   6.9855780  39.7175900  86.4108360
   7.5676550  38.9628220  86.3228840   7.1617550  40.2483340  85.6339840
   3.6112740  40.0616400  83.7602980   3.7308950  39.4657540  84.4997820
   4.4706740  40.0986090  83.3404280   5.9500640  40.6153590  82.3365490
   5.4235860  41.1396210  81.7330630   6.2931980  41.2480980  82.9675220
   5.1974940  36.2203560  85.2511820   4.5090460  35.5585100  85.1861810
   5.9180960  35.7741830  85.6960280   5.8275340  32.8155190  71.3102080
   6.1077630  31.9723090  71.6661500   5.0541070  33.0478300  71.8240830
   1.9818470  49.8704440  83.7509520   1.9077170  50.7739580  84.0581890
   1.0797310  49.5516340  83.7231590   2.5303800  49.0362950  71.3735880
   3.4254590  49.3747920  71.3954640   2.5621430  48.3142360  70.7460160
   9.5098150  47.5666620  84.0802080   8.9100140  47.6259180  83.3366000
   9.6392050  46.6271600  84.2098930  10.7499600  45.3084440  69.4171790
   9.9192560  45.3761090  69.8879020  10.9271430  46.1988560  69.1138650
  10.2056060  42.0531920  71.9205990  10.9674970  42.6228570  72.0265680
  10.2210430  41.4859120  72.6914300  11.2116030  42.9082020  76.7647920
  11.5824860  42.1249340  76.3583890  11.8517960  43.5971120  76.5865220
   8.1949790  44.2918600  82.1778240   7.3809630  44.7215760  82.4404030
   8.6023990  44.9037010  81.5647290  10.2575230  42.3466290  69.0778510
  10.5324070  43.2545170  68.9497730  10.0685970  42.2828820  70.0140500
   6.6550840  35.3711140  70.3732140   7.0735720  35.1842120  69.5328800
   6.3486900  34.5190190  70.6835070  10.1540570  40.2835280  74.0707940
   9.7784170  39.5163210  73.6389230   9.4243690  40.6657980  74.5582870
   9.5440190  39.4306800  83.7047460   9.3126280  39.2019550  82.8045410
   9.8044740  40.3506350  83.6592350   7.9828260  34.6563230  86.4827160
   8.8598440  34.6646630  86.8661160   7.9949100  33.9194070  85.8719510
   9.4291530  38.5092770  77.3715180   9.9529010  38.0155420  76.7405350
  10.0150950  38.6443130  78.1162750   9.6081250  38.5932640  80.8934730
   8.6583960  38.5596180  81.0079720   9.7894260  39.5032750  80.6584500
   8.9191500  37.7666120  73.3107590   9.4150620  37.5336990  74.0956470
   8.7207570  36.9277960  72.8945230  10.3478660  36.4027070  75.8445270
  10.2377940  36.2483110  76.7827540  11.1086250  35.8748010  75.6020680
   8.6944380  32.3421200  82.3028270   9.3316600  32.9555340  82.6687460
   8.8419270  32.3781860  81.3577500  11.2368930  34.2334990  69.0851410
  12.1618240  34.1016170  68.8769700  11.2144720  34.3127810  70.0387860
  11.3107420  35.0045650  71.7108120  10.5158920  34.9390770  72.2401030
  11.5150700  35.9396290  71.6993470   8.2525840  49.0437200  75.7046510
   8.8484910  48.7221770  75.0280930   8.5103990  48.5709020  76.4959780
   2.0648860  33.4947390  85.2103370   2.0037750  34.0869220  85.9598780
   3.0049240  33.3873350  85.0653630   4.7023420  33.1517450  84.8495660
   5.3163830  33.4696740  84.1876740   5.2472980  32.6666040  85.4691520
  11.1198600  49.0509080  82.2557500  10.6256880  49.4477950  81.5384630
  10.5111890  48.4258290  82.6494780   5.4431460  31.7149590  81.1764950
   4.5691300  32.0484700  80.9737880   5.3342210  31.2422770  82.0016820
   6.3503440  33.9220460  82.5606670   6.0216800  33.1072220  82.1808400
   7.2985740  33.8790270  82.4372360   8.8038050  49.6932500  79.5344240
   8.3441020  50.4448310  79.1602260   8.1750510  48.9738970  79.4759040
   1.9729270  48.8929230  79.5361350   2.2607080  48.6383530  78.6594360
   2.4852490  48.3406590  80.1266920   3.1906280  32.6319430  80.1157860
   2.4078070  33.1064930  80.3954620   2.8969210  31.7274260  80.0071040
   7.7427350  33.3342530  78.1606950   8.1835440  33.2787630  77.3128550
   7.4734940  34.2500540  78.2317130   9.6065920  32.9657770  76.1715770
   9.5454320  32.0218990  76.0246790  10.3857950  33.0737860  76.7169230
   5.5785480  31.7148630  76.8656960   6.1814850  32.2868840  77.3405480
   4.8378470  32.2788070  76.6430860   8.7220080  32.1170190  72.1397240
   8.9170710  33.0153640  72.4064670   7.9349950  31.8857270  72.6330190
   2.0401630  49.8145330  86.9029550   2.9668940  49.5789600  86.9465510
   2.0252060  50.6417330  86.4215580  10.2746690  49.3570900  73.9003800
  10.4498880  48.6708640  73.2564720   9.5768260  49.8817950  73.5080470
   5.8280700  31.8943660  87.2451900   5.7146150  32.2138270  88.1403420
   6.6450440  32.2956170  86.9489180   8.6079190  49.0415190  86.7270590
   9.4004510  48.5464420  86.5196550   8.9012340  49.7205330  87.3346200
   4.7338850  39.9136130  57.6086640   4.6532900  38.9990740  57.3378350
   4.3203270  40.4103200  56.9026350   2.8656890  41.6915150  59.4895910
   2.0898990  41.2115590  59.7794480   3.5169820  41.0120800  59.3152070
   6.8864320  46.0975340  58.2695040   6.4245850  45.3262580  58.5982210
   7.6989870  46.1241410  58.7747490   3.1127630  48.3833350  57.8899030
   2.4939070  48.8390850  57.3193470   3.9679410  48.5384810  57.4888730
   2.3065880  44.3672340  59.4966070   2.2374160  43.4262280  59.3355200
   3.0685740  44.4573750  60.0688640   3.3371050  37.1742720  59.7235000
   3.7135870  36.3014600  59.6108670   3.2390560  37.5101420  58.8325440
   7.1195170  34.6693160  56.6563340   7.9404790  34.1789730  56.6988820
   7.1529250  35.2590820  57.4095180  11.4094720  36.6859910  63.2206970
  10.7046890  37.0741620  62.7022080  11.6752640  37.3810200  63.8227900
   3.9790980  43.2672590  55.2830940   3.3608250  43.7322040  54.7193660
   4.4914230  43.9600070  55.7000450   7.3556650  36.6093540  59.4290880
   6.6512220  36.8978430  60.0093990   7.7168810  37.4193650  59.0690440
   8.9719430  46.2268670  61.6918360   8.2882950  46.8967780  61.6835030
   9.5113720  46.4249320  60.9263220  10.4243570  36.0548330  59.8200090
   9.4768480  36.0887310  59.9515520  10.7493560  36.8687280  60.2049450
   6.5078170  48.0712800  60.4063540   6.5205330  47.6675090  59.5385800
   5.9553390  48.8460090  60.3024970   7.8023590  44.7929020  55.4953710
   7.6919920  43.8503350  55.6203130   7.7991840  45.1544660  56.3816470
   5.9063610  42.9742640  61.7346150   6.3232400  42.7602750  60.8999610
   6.6303430  43.2315430  62.3054770   3.3443870  40.4194340  54.8516200
   2.4173150  40.3531720  55.0804670   3.4968690  41.3574470  54.7371440
   3.3312950  36.6911340  51.8483360   2.3916620  36.8525300  51.9335820
   3.6496210  37.4097020  51.3019350   9.8525710  41.3729860  61.8262390
   9.0244340  41.4422950  61.3512520  10.4476190  41.9584170  61.3578220
   7.3741160  41.9814640  55.3551450   6.7553580  41.6434190  54.7077750
   7.3565610  41.3374400  56.0630640   6.8167720  38.1599180  62.7717260
   6.4038900  38.9852890  63.0257250   6.0843670  37.5744220  62.5793620
   7.5067820  48.2058510  63.4598240   7.0298380  49.0130700  63.2670850
   6.8229610  47.5536840  63.6124450   5.5505860  41.2201450  52.3624200
   5.9899140  40.3823880  52.2162020   6.2634280  41.8530850  52.4488340
   3.6601240  46.1597520  56.3305440   4.0997150  46.9021850  55.9160830
   3.5988130  46.4024090  57.2544400   9.1323000  32.4744260  50.6765240
   8.8195660  32.5671090  51.5764310   9.8935470  33.0525290  50.6262670
  11.0867030  47.9670450  68.5289630  11.5626750  48.4453340  69.2078710
  11.7074190  47.8987940  67.8035130  10.4900280  45.1583300  65.6889640
  10.6163340  44.9195180  64.7706820  10.5321660  44.3267840  66.1611720
   4.3517020  48.8611300  64.2584450   4.8661690  48.7719310  65.0606880
   3.5086100  49.2071000  64.5512360   6.3271420  49.1466640  53.6868450
   6.1672560  48.8569580  54.5850280   6.1618130  48.3706770  53.1513680
   6.0297550  46.6554200  52.2466450   5.3362710  46.6531490  51.5868730
   6.7720410  46.2313520  51.8160620   5.5947480  48.2816910  56.3214940
   6.0504430  47.5006290  56.6353560   5.9340000  48.9923730  56.8656120
  10.3424290  37.2115760  66.6539380   9.7268560  37.7195430  66.1254840
  10.0220710  36.3114090  66.5965320   2.4038610  36.0507650  64.1201570
   1.9417980  36.2590670  64.9321510   2.0016720  35.2367000  63.8172240
   7.4043120  37.2716600  65.2498230   6.5536710  36.9722350  65.5707300
   7.2444910  37.5158610  64.3382050   4.4992830  38.7718350  67.3497020
   4.8246240  37.9382100  67.0099250   5.2873160  39.2946870  67.4975350
   5.1380780  38.3136070  54.8438150   4.5389670  39.0371870  54.6601770
   5.6860390  38.2512850  54.0614600   3.7445650  36.9499610  56.8741430
   4.1375220  37.2671810  56.0610120   4.1062500  36.0711490  56.9885950
   2.0537820  35.7006920  68.1338290   1.3636140  35.5079120  68.7684380
   2.7970120  35.9841560  68.6662590   4.3300790  39.5405360  60.9692210
   3.5981910  40.0492170  61.3182310   3.9325130  38.7235340  60.6680990
   4.7926700  34.9939040  60.3815150   4.8099440  35.4447690  61.2257000
   4.5442280  34.0944680  60.5948590   8.2197450  32.4071220  66.2201530
   8.5443220  31.6760880  66.7459510   8.2553960  32.0884860  65.3182520
   8.1455290  42.5196330  59.8287560   8.8654410  43.0151620  59.4383670
   7.9437110  41.8414220  59.1841430   3.6065230  33.9134290  53.9716950
   2.7929840  33.4147460  53.8962260   3.4127180  34.7532540  53.5553300
   3.5274090  42.5905390  65.7156560   3.4611400  41.6701060  65.4614150
   2.8979230  42.6880830  66.4301200   6.3213620  38.2853940  52.2679110
   7.2093240  38.5971170  52.0930450   6.2918710  37.4126190  51.8759690
   2.3174210  44.4577630  52.9467280   2.6589910  45.2019860  52.4510600
   1.4886920  44.7708750  53.3092110   3.4590820  45.4125960  65.4660360
   3.4735360  44.4806920  65.2479270   2.7515920  45.4985720  66.1050130
   8.5927890  39.5965780  51.7358970   8.5091610  40.0280000  50.8855410
   9.3122080  40.0564130  52.1685790   9.6702030  42.0533300  64.8128940
   8.9450220  42.6462080  64.6158330  10.1977490  42.0456840  64.0142310
   9.6215140  46.4508040  54.4641100   8.9791300  45.7963660  54.7384820
   9.2345800  46.8563130  53.6881770   5.2001620  43.7793470  58.3112790
   5.5525440  43.1821600  57.6514160   4.3163950  43.4537700  58.4821040
   2.8924720  47.0543530  62.5600860   3.5366940  47.2602910  63.2374280
   3.2554160  46.2931930  62.1071710   4.1656800  45.0575880  61.2778310
   4.8079030  44.3569040  61.3910480   4.6906150  45.8374320  61.0975200
   8.0112520  45.3424500  51.0017450   7.7850100  44.6254940  51.5942090
   7.6208720  45.0936940  50.1639200   5.9394420  45.8570780  64.4814370
   6.2750660  46.4437470  65.1592290   5.0194760  45.7263490  64.7112160
   7.5928770  43.2596440  52.6631610   7.3050470  43.7209130  53.4509490
   8.3880940  42.7994210  52.9315830   1.7683000  45.9062110  67.6502430
   1.4479870  45.1871350  68.1948120   1.0941360  46.5817180  67.7238490
   4.9836600  36.1388270  63.0139230   5.3517420  35.3183480  63.3418800
   4.1234800  36.1990160  63.4294880   8.3498630  35.0945210  53.8226790
   7.7211790  35.1990880  53.1085020   7.8550550  35.3141990  54.6120670
   2.7956770  46.8150800  51.2560770   2.8968750  46.6114790  50.3262750
   1.8958510  46.5609080  51.4608550   1.9438590  38.7927860  63.2377200
   2.4423840  39.2673680  63.9029050   2.0861540  37.8691380  63.4447230
   4.3498090  34.0981820  56.6780460   4.2265870  34.1167950  55.7289970
   5.2982650  34.1460760  56.7978860   9.1505450  35.0095820  64.0805590
   8.6479050  35.7501220  64.4199400   9.9662110  35.3979820  63.7642380
   7.4427460  40.2529000  57.5266950   6.5017600  40.2679230  57.7014640
   7.7571530  39.4664960  57.9727250   9.4453040  47.4237850  59.2021210
   9.5700460  48.2469020  59.6745020  10.3118600  47.2128580  58.8545360
   4.7593480  44.8095000  68.0099330   4.1531640  44.8326600  67.2695080
   4.4547590  44.0778040  68.5466580   6.1893850  48.5375290  66.6208740
   7.1415600  48.4533310  66.5708980   6.0422070  49.2017000  67.2942530
   9.0803050  47.9169500  52.1200650   8.7944560  47.5034640  51.3054830
   8.8822600  48.8457210  52.0001170   3.7853010  42.9722810  51.1648250
   3.2363110  43.4192110  51.8090990   4.4072270  42.4672060  51.6885920
   7.8387950  44.3264910  67.0970510   8.5797420  44.6640670  66.5937970
   7.0760630  44.4956970  66.5440280   1.9655770  40.9551340  50.3090650
   2.4861430  40.2400360  49.9431800   2.6124170  41.5937210  50.6091160
   6.5133610  42.3779740  65.6325720   6.9274630  42.5324820  66.4816140
   5.5784610  42.5034960  65.7951500   6.9855780  39.7175900  67.6364870
   7.5676550  38.9628220  67.5485350   7.1617550  40.2483340  66.8596350
   3.6112740  40.0616400  64.9859490   3.7308950  39.4657540  65.7254330
   4.4706740  40.0986090  64.5660790   5.9500640  40.6153590  63.5622000
   5.4235860  41.1396210  62.9587140   6.2931980  41.2480980  64.1931730
   5.1974940  36.2203560  66.4768330   4.5090460  35.5585100  66.4118320
   5.9180960  35.7741830  66.9216790   5.8275340  32.8155190  52.5358590
   6.1077630  31.9723090  52.8918010   5.0541070  33.0478300  53.0497340
   1.9818470  49.8704440  64.9766030   1.9077170  50.7739580  65.2838400
   1.0797310  49.5516340  64.9488100   2.5303800  49.0362950  52.5992390
   3.4254590  49.3747920  52.6211150   2.5621430  48.3142360  51.9716670
   9.5098150  47.5666620  65.3058590   8.9100140  47.6259180  64.5622510
   9.6392050  46.6271600  65.4355440  10.7499600  45.3084440  50.6428300
   9.9192560  45.3761090  51.1135530  10.9271430  46.1988560  50.3395160
  10.2056060  42.0531920  53.1462500  10.9674970  42.6228570  53.2522190
  10.2210430  41.4859120  53.9170810  11.2116030  42.9082020  57.9904430
  11.5824860  42.1249340  57.5840400  11.8517960  43.5971120  57.8121730
   8.1949790  44.2918600  63.4034750   7.3809630  44.7215760  63.6660540
   8.6023990  44.9037010  62.7903800  10.2575230  42.3466290  50.3035020
  10.5324070  43.2545170  50.1754240  10.0685970  42.2828820  51.2397010
   6.6550840  35.3711140  51.5988650   7.0735720  35.1842120  50.7585310
   6.3486900  34.5190190  51.9091580  10.1540570  40.2835280  55.2964450
   9.7784170  39.5163210  54.8645740   9.4243690  40.6657980  55.7839380
   9.5440190  39.4306800  64.9303970   9.3126280  39.2019550  64.0301920
   9.8044740  40.3506350  64.8848860   7.9828260  34.6563230  67.7083670
   8.8598440  34.6646630  68.0917670   7.9949100  33.9194070  67.0976020
   9.4291530  38.5092770  58.5971690   9.9529010  38.0155420  57.9661860
  10.0150950  38.6443130  59.3419260   9.6081250  38.5932640  62.1191240
   8.6583960  38.5596180  62.2336230   9.7894260  39.5032750  61.8841010
   8.9191500  37.7666120  54.5364100   9.4150620  37.5336990  55.3212980
   8.7207570  36.9277960  54.1201740  10.3478660  36.4027070  57.0701780
  10.2377940  36.2483110  58.0084050  11.1086250  35.8748010  56.8277190
   8.6944380  32.3421200  63.5284780   9.3316600  32.9555340  63.8943970
   8.8419270  32.3781860  62.5834010  11.2368930  34.2334990  50.3107920
  12.1618240  34.1016170  50.1026210  11.2144720  34.3127810  51.2644370
  11.3107420  35.0045650  52.9364630  10.5158920  34.9390770  53.4657540
  11.5150700  35.9396290  52.9249980   8.2525840  49.0437200  56.9303020
   8.8484910  48.7221770  56.2537440   8.5103990  48.5709020  57.7216290
   2.0648860  33.4947390  66.4359880   2.0037750  34.0869220  67.1855290
   3.0049240  33.3873350  66.2910140   4.7023420  33.1517450  66.0752170
   5.3163830  33.4696740  65.4133250   5.2472980  32.6666040  66.6948030
  11.1198600  49.0509080  63.4814010  10.6256880  49.4477950  62.7641140
  10.5111890  48.4258290  63.8751290   5.4431460  31.7149590  62.4021460
   4.5691300  32.0484700  62.1994390   5.3342210  31.2422770  63.2273330
   6.3503440  33.9220460  63.7863180   6.0216800  33.1072220  63.4064910
   7.2985740  33.8790270  63.6628870   8.8038050  49.6932500  60.7600750
   8.3441020  50.4448310  60.3858770   8.1750510  48.9738970  60.7015550
   1.9729270  48.8929230  60.7617860   2.2607080  48.6383530  59.8850870
   2.4852490  48.3406590  61.3523430   3.1906280  32.6319430  61.3414370
   2.4078070  33.1064930  61.6211130   2.8969210  31.7274260  61.2327550
   7.7427350  33.3342530  59.3863460   8.1835440  33.2787630  58.5385060
   7.4734940  34.2500540  59.4573640   9.6065920  32.9657770  57.3972280
   9.5454320  32.0218990  57.2503300  10.3857950  33.0737860  57.9425740
   5.5785480  31.7148630  58.0913470   6.1814850  32.2868840  58.5661990
   4.8378470  32.2788070  57.8687370   8.7220080  32.1170190  53.3653750
   8.9170710  33.0153640  53.6321180   7.9349950  31.8857270  53.8586700
   2.0401630  49.8145330  68.1286060   2.9668940  49.5789600  68.1722020
   2.0252060  50.6417330  67.6472090  10.2746690  49.3570900  55.1260310
  10.4498880  48.6708640  54.4821230   9.5768260  49.8817950  54.7336980
   5.8280700  31.8943660  68.4708410   5.7146150  32.2138270  69.3659930
   6.6450440  32.2956170  68.1745690   8.6079190  49.0415190  67.9527100
   9.4004510  48.5464420  67.7453060   8.9012340  49.7205330  68.5602710
   4.7338850  39.9136130  38.8343150   4.6532900  38.9990740  38.5634860
   4.3203270  40.4103200  38.1282860   2.8656890  41.6915150  40.7152420
   2.0898990  41.2115590  41.0050990   3.5169820  41.0120800  40.5408580
   6.8864320  46.0975340  39.4951550   6.4245850  45.3262580  39.8238720
   7.6989870  46.1241410  40.0004000   3.1127630  48.3833350  39.1155540
   2.4939070  48.8390850  38.5449980   3.9679410  48.5384810  38.7145240
   2.3065880  44.3672340  40.7222580   2.2374160  43.4262280  40.5611710
   3.0685740  44.4573750  41.2945150   3.3371050  37.1742720  40.9491510
   3.7135870  36.3014600  40.8365180   3.2390560  37.5101420  40.0581950
   7.1195170  34.6693160  37.8819850   7.9404790  34.1789730  37.9245330
   7.1529250  35.2590820  38.6351690  11.4094720  36.6859910  44.4463480
  10.7046890  37.0741620  43.9278590  11.6752640  37.3810200  45.0484410
   3.9790980  43.2672590  36.5087450   3.3608250  43.7322040  35.9450170
   4.4914230  43.9600070  36.9256960   7.3556650  36.6093540  40.6547390
   6.6512220  36.8978430  41.2350500   7.7168810  37.4193650  40.2946950
   8.9719430  46.2268670  42.9174870   8.2882950  46.8967780  42.9091540
   9.5113720  46.4249320  42.1519730  10.4243570  36.0548330  41.0456600
   9.4768480  36.0887310  41.1772030  10.7493560  36.8687280  41.4305960
   6.5078170  48.0712800  41.6320050   6.5205330  47.6675090  40.7642310
   5.9553390  48.8460090  41.5281480   7.8023590  44.7929020  36.7210220
   7.6919920  43.8503350  36.8459640   7.7991840  45.1544660  37.6072980
   5.9063610  42.9742640  42.9602660   6.3232400  42.7602750  42.1256120
   6.6303430  43.2315430  43.5311280   3.3443870  40.4194340  36.0772710
   2.4173150  40.3531720  36.3061180   3.4968690  41.3574470  35.9627950
   3.3312950  36.6911340  33.0739870   2.3916620  36.8525300  33.1592330
   3.6496210  37.4097020  32.5275860   9.8525710  41.3729860  43.0518900
   9.0244340  41.4422950  42.5769030  10.4476190  41.9584170  42.5834730
   7.3741160  41.9814640  36.5807960   6.7553580  41.6434190  35.9334260
   7.3565610  41.3374400  37.2887150   6.8167720  38.1599180  43.9973770
   6.4038900  38.9852890  44.2513760   6.0843670  37.5744220  43.8050130
   7.5067820  48.2058510  44.6854750   7.0298380  49.0130700  44.4927360
   6.8229610  47.5536840  44.8380960   5.5505860  41.2201450  33.5880710
   5.9899140  40.3823880  33.4418530   6.2634280  41.8530850  33.6744850
   3.6601240  46.1597520  37.5561950   4.0997150  46.9021850  37.1417340
   3.5988130  46.4024090  38.4800910   9.1323000  32.4744260  31.9021750
   8.8195660  32.5671090  32.8020820   9.8935470  33.0525290  31.8519180
  11.0867030  47.9670450  49.7546140  11.5626750  48.4453340  50.4335220
  11.7074190  47.8987940  49.0291640  10.4900280  45.1583300  46.9146150
  10.6163340  44.9195180  45.9963330  10.5321660  44.3267840  47.3868230
   4.3517020  48.8611300  45.4840960   4.8661690  48.7719310  46.2863390
   3.5086100  49.2071000  45.7768870   6.3271420  49.1466640  34.9124960
   6.1672560  48.8569580  35.8106790   6.1618130  48.3706770  34.3770190
   6.0297550  46.6554200  33.4722960   5.3362710  46.6531490  32.8125240
   6.7720410  46.2313520  33.0417130   5.5947480  48.2816910  37.5471450
   6.0504430  47.5006290  37.8610070   5.9340000  48.9923730  38.0912630
  10.3424290  37.2115760  47.8795890   9.7268560  37.7195430  47.3511350
  10.0220710  36.3114090  47.8221830   2.4038610  36.0507650  45.3458080
   1.9417980  36.2590670  46.1578020   2.0016720  35.2367000  45.0428750
   7.4043120  37.2716600  46.4754740   6.5536710  36.9722350  46.7963810
   7.2444910  37.5158610  45.5638560   4.4992830  38.7718350  48.5753530
   4.8246240  37.9382100  48.2355760   5.2873160  39.2946870  48.7231860
   5.1380780  38.3136070  36.0694660   4.5389670  39.0371870  35.8858280
   5.6860390  38.2512850  35.2871110   3.7445650  36.9499610  38.0997940
   4.1375220  37.2671810  37.2866630   4.1062500  36.0711490  38.2142460
   2.0537820  35.7006920  49.3594800   1.3636140  35.5079120  49.9940890
   2.7970120  35.9841560  49.8919100   4.3300790  39.5405360  42.1948720
   3.5981910  40.0492170  42.5438820   3.9325130  38.7235340  41.8937500
   4.7926700  34.9939040  41.6071660   4.8099440  35.4447690  42.4513510
   4.5442280  34.0944680  41.8205100   8.2197450  32.4071220  47.4458040
   8.5443220  31.6760880  47.9716020   8.2553960  32.0884860  46.5439030
   8.1455290  42.5196330  41.0544070   8.8654410  43.0151620  40.6640180
   7.9437110  41.8414220  40.4097940   3.6065230  33.9134290  35.1973460
   2.7929840  33.4147460  35.1218770   3.4127180  34.7532540  34.7809810
   3.5274090  42.5905390  46.9413070   3.4611400  41.6701060  46.6870660
   2.8979230  42.6880830  47.6557710   6.3213620  38.2853940  33.4935620
   7.2093240  38.5971170  33.3186960   6.2918710  37.4126190  33.1016200
   2.3174210  44.4577630  34.1723790   2.6589910  45.2019860  33.6767110
   1.4886920  44.7708750  34.5348620   3.4590820  45.4125960  46.6916870
   3.4735360  44.4806920  46.4735780   2.7515920  45.4985720  47.3306640
   8.5927890  39.5965780  32.9615480   8.5091610  40.0280000  32.1111920
   9.3122080  40.0564130  33.3942300   9.6702030  42.0533300  46.0385450
   8.9450220  42.6462080  45.8414840  10.1977490  42.0456840  45.2398820
   9.6215140  46.4508040  35.6897610   8.9791300  45.7963660  35.9641330
   9.2345800  46.8563130  34.9138280   5.2001620  43.7793470  39.5369300
   5.5525440  43.1821600  38.8770670   4.3163950  43.4537700  39.7077550
   2.8924720  47.0543530  43.7857370   3.5366940  47.2602910  44.4630790
   3.2554160  46.2931930  43.3328220   4.1656800  45.0575880  42.5034820
   4.8079030  44.3569040  42.6166990   4.6906150  45.8374320  42.3231710
   8.0112520  45.3424500  32.2273960   7.7850100  44.6254940  32.8198600
   7.6208720  45.0936940  31.3895710   5.9394420  45.8570780  45.7070880
   6.2750660  46.4437470  46.3848800   5.0194760  45.7263490  45.9368670
   7.5928770  43.2596440  33.8888120   7.3050470  43.7209130  34.6766000
   8.3880940  42.7994210  34.1572340   1.7683000  45.9062110  48.8758940
   1.4479870  45.1871350  49.4204630   1.0941360  46.5817180  48.9495000
   4.9836600  36.1388270  44.2395740   5.3517420  35.3183480  44.5675310
   4.1234800  36.1990160  44.6551390   8.3498630  35.0945210  35.0483300
   7.7211790  35.1990880  34.3341530   7.8550550  35.3141990  35.8377180
   2.7956770  46.8150800  32.4817280   2.8968750  46.6114790  31.5519260
   1.8958510  46.5609080  32.6865060   1.9438590  38.7927860  44.4633710
   2.4423840  39.2673680  45.1285560   2.0861540  37.8691380  44.6703740
   4.3498090  34.0981820  37.9036970   4.2265870  34.1167950  36.9546480
   5.2982650  34.1460760  38.0235370   9.1505450  35.0095820  45.3062100
   8.6479050  35.7501220  45.6455910   9.9662110  35.3979820  44.9898890
   7.4427460  40.2529000  38.7523460   6.5017600  40.2679230  38.9271150
   7.7571530  39.4664960  39.1983760   9.4453040  47.4237850  40.4277720
   9.5700460  48.2469020  40.9001530  10.3118600  47.2128580  40.0801870
   4.7593480  44.8095000  49.2355840   4.1531640  44.8326600  48.4951590
   4.4547590  44.0778040  49.7723090   6.1893850  48.5375290  47.8465250
   7.1415600  48.4533310  47.7965490   6.0422070  49.2017000  48.5199040
   9.0803050  47.9169500  33.3457160   8.7944560  47.5034640  32.5311340
   8.8822600  48.8457210  33.2257680   3.7853010  42.9722810  32.3904760
   3.2363110  43.4192110  33.0347500   4.4072270  42.4672060  32.9142430
   7.8387950  44.3264910  48.3227020   8.5797420  44.6640670  47.8194480
   7.0760630  44.4956970  47.7696790   1.9655770  40.9551340  31.5347160
   2.4861430  40.2400360  31.1688310   2.6124170  41.5937210  31.8347670
   6.5133610  42.3779740  46.8582230   6.9274630  42.5324820  47.7072650
   5.5784610  42.5034960  47.0208010   6.9855780  39.7175900  48.8621380
   7.5676550  38.9628220  48.7741860   7.1617550  40.2483340  48.0852860
   3.6112740  40.0616400  46.2116000   3.7308950  39.4657540  46.9510840
   4.4706740  40.0986090  45.7917300   5.9500640  40.6153590  44.7878510
   5.4235860  41.1396210  44.1843650   6.2931980  41.2480980  45.4188240
   5.1974940  36.2203560  47.7024840   4.5090460  35.5585100  47.6374830
   5.9180960  35.7741830  48.1473300   5.8275340  32.8155190  33.7615100
   6.1077630  31.9723090  34.1174520   5.0541070  33.0478300  34.2753850
   1.9818470  49.8704440  46.2022540   1.9077170  50.7739580  46.5094910
   1.0797310  49.5516340  46.1744610   2.5303800  49.0362950  33.8248900
   3.4254590  49.3747920  33.8467660   2.5621430  48.3142360  33.1973180
   9.5098150  47.5666620  46.5315100   8.9100140  47.6259180  45.7879020
   9.6392050  46.6271600  46.6611950  10.7499600  45.3084440  31.8684810
   9.9192560  45.3761090  32.3392040  10.9271430  46.1988560  31.5651670
  10.2056060  42.0531920  34.3719010  10.9674970  42.6228570  34.4778700
  10.2210430  41.4859120  35.1427320  11.2116030  42.9082020  39.2160940
  11.5824860  42.1249340  38.8096910  11.8517960  43.5971120  39.0378240
   8.1949790  44.2918600  44.6291260   7.3809630  44.7215760  44.8917050
   8.6023990  44.9037010  44.0160310  10.2575230  42.3466290  31.5291530
  10.5324070  43.2545170  31.4010750  10.0685970  42.2828820  32.4653520
   6.6550840  35.3711140  32.8245160   7.0735720  35.1842120  31.9841820
   6.3486900  34.5190190  33.1348090  10.1540570  40.2835280  36.5220960
   9.7784170  39.5163210  36.0902250   9.4243690  40.6657980  37.0095890
   9.5440190  39.4306800  46.1560480   9.3126280  39.2019550  45.2558430
   9.8044740  40.3506350  46.1105370   7.9828260  34.6563230  48.9340180
   8.8598440  34.6646630  49.3174180   7.9949100  33.9194070  48.3232530
   9.4291530  38.5092770  39.8228200   9.9529010  38.0155420  39.1918370
  10.0150950  38.6443130  40.5675770   9.6081250  38.5932640  43.3447750
   8.6583960  38.5596180  43.4592740   9.7894260  39.5032750  43.1097520
   8.9191500  37.7666120  35.7620610   9.4150620  37.5336990  36.5469490
   8.7207570  36.9277960  35.3458250  10.3478660  36.4027070  38.2958290
  10.2377940  36.2483110  39.2340560  11.1086250  35.8748010  38.0533700
   8.6944380  32.3421200  44.7541290   9.3316600  32.9555340  45.1200480
   8.8419270  32.3781860  43.8090520  11.2368930  34.2334990  31.5364430
  12.1618240  34.1016170  31.3282720  11.2144720  34.3127810  32.4900880
  11.3107420  35.0045650  34.1621140  10.5158920  34.9390770  34.6914050
  11.5150700  35.9396290  34.1506490   8.2525840  49.0437200  38.1559530
   8.8484910  48.7221770  37.4793950   8.5103990  48.5709020  38.9472800
   2.0648860  33.4947390  47.6616390   2.0037750  34.0869220  48.4111800
   3.0049240  33.3873350  47.5166650   4.7023420  33.1517450  47.3008680
   5.3163830  33.4696740  46.6389760   5.2472980  32.6666040  47.9204540
  11.1198600  49.0509080  44.7070520  10.6256880  49.4477950  43.9897650
  10.5111890  48.4258290  45.1007800   5.4431460  31.7149590  43.6277970
   4.5691300  32.0484700  43.4250900   5.3342210  31.2422770  44.4529840
   6.3503440  33.9220460  45.0119690   6.0216800  33.1072220  44.6321420
   7.2985740  33.8790270  44.8885380   8.8038050  49.6932500  41.9857260
   8.3441020  50.4448310  41.6115280   8.1750510  48.9738970  41.9272060
   1.9729270  48.8929230  41.9874370   2.2607080  48.6383530  41.1107380
   2.4852490  48.3406590  42.5779940   3.1906280  32.6319430  42.5670880
   2.4078070  33.1064930  42.8467640   2.8969210  31.7274260  42.4584060
   7.7427350  33.3342530  40.6119970   8.1835440  33.2787630  39.7641570
   7.4734940  34.2500540  40.6830150   9.6065920  32.9657770  38.6228790
   9.5454320  32.0218990  38.4759810  10.3857950  33.0737860  39.1682250
   5.5785480  31.7148630  39.3169980   6.1814850  32.2868840  39.7918500
   4.8378470  32.2788070  39.0943880   8.7220080  32.1170190  34.5910260
   8.9170710  33.0153640  34.8577690   7.9349950  31.8857270  35.0843210
   2.0401630  49.8145330  49.3542570   2.9668940  49.5789600  49.3978530
   2.0252060  50.6417330  48.8728600  10.2746690  49.3570900  36.3516820
  10.4498880  48.6708640  35.7077740   9.5768260  49.8817950  35.9593490
   5.8280700  31.8943660  49.6964920   5.7146150  32.2138270  50.5916440
   6.6450440  32.2956170  49.4002200   8.6079190  49.0415190  49.1783610
   9.4004510  48.5464420  48.9709570   8.9012340  49.7205330  49.7859220
   4.7338850  39.9136130  20.0599660   4.6532900  38.9990740  19.7891370
   4.3203270  40.4103200  19.3539370   2.8656890  41.6915150  21.9408930
   2.0898990  41.2115590  22.2307500   3.5169820  41.0120800  21.7665090
   6.8864320  46.0975340  20.7208060   6.4245850  45.3262580  21.0495230
   7.6989870  46.1241410  21.2260510   3.1127630  48.3833350  20.3412050
   2.4939070  48.8390850  19.7706490   3.9679410  48.5384810  19.9401750
   2.3065880  44.3672340  21.9479090   2.2374160  43.4262280  21.7868220
   3.0685740  44.4573750  22.5201660   3.3371050  37.1742720  22.1748020
   3.7135870  36.3014600  22.0621690   3.2390560  37.5101420  21.2838460
   7.1195170  34.6693160  19.1076360   7.9404790  34.1789730  19.1501840
   7.1529250  35.2590820  19.8608200  11.4094720  36.6859910  25.6719990
  10.7046890  37.0741620  25.1535100  11.6752640  37.3810200  26.2740920
   3.9790980  43.2672590  17.7343960   3.3608250  43.7322040  17.1706680
   4.4914230  43.9600070  18.1513470   7.3556650  36.6093540  21.8803900
   6.6512220  36.8978430  22.4607010   7.7168810  37.4193650  21.5203460
   8.9719430  46.2268670  24.1431380   8.2882950  46.8967780  24.1348050
   9.5113720  46.4249320  23.3776240  10.4243570  36.0548330  22.2713110
   9.4768480  36.0887310  22.4028540  10.7493560  36.8687280  22.6562470
   6.5078170  48.0712800  22.8576560   6.5205330  47.6675090  21.9898820
   5.9553390  48.8460090  22.7537990   7.8023590  44.7929020  17.9466730
   7.6919920  43.8503350  18.0716150   7.7991840  45.1544660  18.8329490
   5.9063610  42.9742640  24.1859170   6.3232400  42.7602750  23.3512630
   6.6303430  43.2315430  24.7567790   3.3443870  40.4194340  17.3029220
   2.4173150  40.3531720  17.5317690   3.4968690  41.3574470  17.1884460
   3.3312950  36.6911340  14.2996380   2.3916620  36.8525300  14.3848840
   3.6496210  37.4097020  13.7532370   9.8525710  41.3729860  24.2775410
   9.0244340  41.4422950  23.8025540  10.4476190  41.9584170  23.8091240
   7.3741160  41.9814640  17.8064470   6.7553580  41.6434190  17.1590770
   7.3565610  41.3374400  18.5143660   6.8167720  38.1599180  25.2230280
   6.4038900  38.9852890  25.4770270   6.0843670  37.5744220  25.0306640
   7.5067820  48.2058510  25.9111260   7.0298380  49.0130700  25.7183870
   6.8229610  47.5536840  26.0637470   5.5505860  41.2201450  14.8137220
   5.9899140  40.3823880  14.6675040   6.2634280  41.8530850  14.9001360
   3.6601240  46.1597520  18.7818460   4.0997150  46.9021850  18.3673850
   3.5988130  46.4024090  19.7057420   9.1323000  32.4744260  13.1278260
   8.8195660  32.5671090  14.0277330   9.8935470  33.0525290  13.0775690
  11.0867030  47.9670450  30.9802650  11.5626750  48.4453340  31.6591730
  11.7074190  47.8987940  30.2548150  10.4900280  45.1583300  28.1402660
  10.6163340  44.9195180  27.2219840  10.5321660  44.3267840  28.6124740
   4.3517020  48.8611300  26.7097470   4.8661690  48.7719310  27.5119900
   3.5086100  49.2071000  27.0025380   6.3271420  49.1466640  16.1381470
   6.1672560  48.8569580  17.0363300   6.1618130  48.3706770  15.6026700
   6.0297550  46.6554200  14.6979470   5.3362710  46.6531490  14.0381750
   6.7720410  46.2313520  14.2673640   5.5947480  48.2816910  18.7727960
   6.0504430  47.5006290  19.0866580   5.9340000  48.9923730  19.3169140
  10.3424290  37.2115760  29.1052400   9.7268560  37.7195430  28.5767860
  10.0220710  36.3114090  29.0478340   2.4038610  36.0507650  26.5714590
   1.9417980  36.2590670  27.3834530   2.0016720  35.2367000  26.2685260
   7.4043120  37.2716600  27.7011250   6.5536710  36.9722350  28.0220320
   7.2444910  37.5158610  26.7895070   4.4992830  38.7718350  29.8010040
   4.8246240  37.9382100  29.4612270   5.2873160  39.2946870  29.9488370
   5.1380780  38.3136070  17.2951170   4.5389670  39.0371870  17.1114790
   5.6860390  38.2512850  16.5127620   3.7445650  36.9499610  19.3254450
   4.1375220  37.2671810  18.5123140   4.1062500  36.0711490  19.4398970
   2.0537820  35.7006920  30.5851310   1.3636140  35.5079120  31.2197400
   2.7970120  35.9841560  31.1175610   4.3300790  39.5405360  23.4205230
   3.5981910  40.0492170  23.7695330   3.9325130  38.7235340  23.1194010
   4.7926700  34.9939040  22.8328170   4.8099440  35.4447690  23.6770020
   4.5442280  34.0944680  23.0461610   8.2197450  32.4071220  28.6714550
   8.5443220  31.6760880  29.1972530   8.2553960  32.0884860  27.7695540
   8.1455290  42.5196330  22.2800580   8.8654410  43.0151620  21.8896690
   7.9437110  41.8414220  21.6354450   3.6065230  33.9134290  16.4229970
   2.7929840  33.4147460  16.3475280   3.4127180  34.7532540  16.0066320
   3.5274090  42.5905390  28.1669580   3.4611400  41.6701060  27.9127170
   2.8979230  42.6880830  28.8814220   6.3213620  38.2853940  14.7192130
   7.2093240  38.5971170  14.5443470   6.2918710  37.4126190  14.3272710
   2.3174210  44.4577630  15.3980300   2.6589910  45.2019860  14.9023620
   1.4886920  44.7708750  15.7605130   3.4590820  45.4125960  27.9173380
   3.4735360  44.4806920  27.6992290   2.7515920  45.4985720  28.5563150
   8.5927890  39.5965780  14.1871990   8.5091610  40.0280000  13.3368430
   9.3122080  40.0564130  14.6198810   9.6702030  42.0533300  27.2641960
   8.9450220  42.6462080  27.0671350  10.1977490  42.0456840  26.4655330
   9.6215140  46.4508040  16.9154120   8.9791300  45.7963660  17.1897840
   9.2345800  46.8563130  16.1394790   5.2001620  43.7793470  20.7625810
   5.5525440  43.1821600  20.1027180   4.3163950  43.4537700  20.9334060
   2.8924720  47.0543530  25.0113880   3.5366940  47.2602910  25.6887300
   3.2554160  46.2931930  24.5584730   4.1656800  45.0575880  23.7291330
   4.8079030  44.3569040  23.8423500   4.6906150  45.8374320  23.5488220
   8.0112520  45.3424500  13.4530470   7.7850100  44.6254940  14.0455110
   7.6208720  45.0936940  12.6152220   5.9394420  45.8570780  26.9327390
   6.2750660  46.4437470  27.6105310   5.0194760  45.7263490  27.1625180
   7.5928770  43.2596440  15.1144630   7.3050470  43.7209130  15.9022510
   8.3880940  42.7994210  15.3828850   1.7683000  45.9062110  30.1015450
   1.4479870  45.1871350  30.6461140   1.0941360  46.5817180  30.1751510
   4.9836600  36.1388270  25.4652250   5.3517420  35.3183480  25.7931820
   4.1234800  36.1990160  25.8807900   8.3498630  35.0945210  16.2739810
   7.7211790  35.1990880  15.5598040   7.8550550  35.3141990  17.0633690
   2.7956770  46.8150800  13.7073790   2.8968750  46.6114790  12.7775770
   1.8958510  46.5609080  13.9121570   1.9438590  38.7927860  25.6890220
   2.4423840  39.2673680  26.3542070   2.0861540  37.8691380  25.8960250
   4.3498090  34.0981820  19.1293480   4.2265870  34.1167950  18.1802990
   5.2982650  34.1460760  19.2491880   9.1505450  35.0095820  26.5318610
   8.6479050  35.7501220  26.8712420   9.9662110  35.3979820  26.2155400
   7.4427460  40.2529000  19.9779970   6.5017600  40.2679230  20.1527660
   7.7571530  39.4664960  20.4240270   9.4453040  47.4237850  21.6534230
   9.5700460  48.2469020  22.1258040  10.3118600  47.2128580  21.3058380
   4.7593480  44.8095000  30.4612350   4.1531640  44.8326600  29.7208100
   4.4547590  44.0778040  30.9979600   6.1893850  48.5375290  29.0721760
   7.1415600  48.4533310  29.0222000   6.0422070  49.2017000  29.7455550
   9.0803050  47.9169500  14.5713670   8.7944560  47.5034640  13.7567850
   8.8822600  48.8457210  14.4514190   3.7853010  42.9722810  13.6161270
   3.2363110  43.4192110  14.2604010   4.4072270  42.4672060  14.1398940
   7.8387950  44.3264910  29.5483530   8.5797420  44.6640670  29.0450990
   7.0760630  44.4956970  28.9953300   1.9655770  40.9551340  12.7603670
   2.4861430  40.2400360  12.3944820   2.6124170  41.5937210  13.0604180
   6.5133610  42.3779740  28.0838740   6.9274630  42.5324820  28.9329160
   5.5784610  42.5034960  28.2464520   6.9855780  39.7175900  30.0877890
   7.5676550  38.9628220  29.9998370   7.1617550  40.2483340  29.3109370
   3.6112740  40.0616400  27.4372510   3.7308950  39.4657540  28.1767350
   4.4706740  40.0986090  27.0173810   5.9500640  40.6153590  26.0135020
   5.4235860  41.1396210  25.4100160   6.2931980  41.2480980  26.6444750
   5.1974940  36.2203560  28.9281350   4.5090460  35.5585100  28.8631340
   5.9180960  35.7741830  29.3729810   5.8275340  32.8155190  14.9871610
   6.1077630  31.9723090  15.3431030   5.0541070  33.0478300  15.5010360
   1.9818470  49.8704440  27.4279050   1.9077170  50.7739580  27.7351420
   1.0797310  49.5516340  27.4001120   2.5303800  49.0362950  15.0505410
   3.4254590  49.3747920  15.0724170   2.5621430  48.3142360  14.4229690
   9.5098150  47.5666620  27.7571610   8.9100140  47.6259180  27.0135530
   9.6392050  46.6271600  27.8868460  10.7499600  45.3084440  13.0941320
   9.9192560  45.3761090  13.5648550  10.9271430  46.1988560  12.7908180
  10.2056060  42.0531920  15.5975520  10.9674970  42.6228570  15.7035210
  10.2210430  41.4859120  16.3683830  11.2116030  42.9082020  20.4417450
  11.5824860  42.1249340  20.0353420  11.8517960  43.5971120  20.2634750
   8.1949790  44.2918600  25.8547770   7.3809630  44.7215760  26.1173560
   8.6023990  44.9037010  25.2416820  10.2575230  42.3466290  12.7548040
  10.5324070  43.2545170  12.6267260  10.0685970  42.2828820  13.6910030
   6.6550840  35.3711140  14.0501670   7.0735720  35.1842120  13.2098330
   6.3486900  34.5190190  14.3604600  10.1540570  40.2835280  17.7477470
   9.7784170  39.5163210  17.3158760   9.4243690  40.6657980  18.2352400
   9.5440190  39.4306800  27.3816990   9.3126280  39.2019550  26.4814940
   9.8044740  40.3506350  27.3361880   7.9828260  34.6563230  30.1596690
   8.8598440  34.6646630  30.5430690   7.9949100  33.9194070  29.5489040
   9.4291530  38.5092770  21.0484710   9.9529010  38.0155420  20.4174880
  10.0150950  38.6443130  21.7932280   9.6081250  38.5932640  24.5704260
   8.6583960  38.5596180  24.6849250   9.7894260  39.5032750  24.3354030
   8.9191500  37.7666120  16.9877120   9.4150620  37.5336990  17.7726000
   8.7207570  36.9277960  16.5714760  10.3478660  36.4027070  19.5214800
  10.2377940  36.2483110  20.4597070  11.1086250  35.8748010  19.2790210
   8.6944380  32.3421200  25.9797800   9.3316600  32.9555340  26.3456990
   8.8419270  32.3781860  25.0347030  11.2368930  34.2334990  12.7620940
  12.1618240  34.1016170  12.5539230  11.2144720  34.3127810  13.7157390
  11.3107420  35.0045650  15.3877650  10.5158920  34.9390770  15.9170560
  11.5150700  35.9396290  15.3763000   8.2525840  49.0437200  19.3816040
   8.8484910  48.7221770  18.7050460   8.5103990  48.5709020  20.1729310
   2.0648860  33.4947390  28.8872900   2.0037750  34.0869220  29.6368310
   3.0049240  33.3873350  28.7423160   4.7023420  33.1517450  28.5265190
   5.3163830  33.4696740  27.8646270   5.2472980  32.6666040  29.1461050
  11.1198600  49.0509080  25.9327030  10.6256880  49.4477950  25.2154160
  10.5111890  48.4258290  26.3264310   5.4431460  31.7149590  24.8534480
   4.5691300  32.0484700  24.6507410   5.3342210  31.2422770  25.6786350
   6.3503440  33.9220460  26.2376200   6.0216800  33.1072220  25.8577930
   7.2985740  33.8790270  26.1141890   8.8038050  49.6932500  23.2113770
   8.3441020  50.4448310  22.8371790   8.1750510  48.9738970  23.1528570
   1.9729270  48.8929230  23.2130880   2.2607080  48.6383530  22.3363890
   2.4852490  48.3406590  23.8036450   3.1906280  32.6319430  23.7927390
   2.4078070  33.1064930  24.0724150   2.8969210  31.7274260  23.6840570
   7.7427350  33.3342530  21.8376480   8.1835440  33.2787630  20.9898080
   7.4734940  34.2500540  21.9086660   9.6065920  32.9657770  19.8485300
   9.5454320  32.0218990  19.7016320  10.3857950  33.0737860  20.3938760
   5.5785480  31.7148630  20.5426490   6.1814850  32.2868840  21.0175010
   4.8378470  32.2788070  20.3200390   8.7220080  32.1170190  15.8166770
   8.9170710  33.0153640  16.0834200   7.9349950  31.8857270  16.3099720
   2.0401630  49.8145330  30.5799080   2.9668940  49.5789600  30.6235040
   2.0252060  50.6417330  30.0985110  10.2746690  49.3570900  17.5773330
  10.4498880  48.6708640  16.9334250   9.5768260  49.8817950  17.1850000
   5.8280700  31.8943660  30.9221430   5.7146150  32.2138270  31.8172950
   6.6450440  32.2956170  30.6258710   8.6079190  49.0415190  30.4040120
   9.4004510  48.5464420  30.1966080   8.9012340  49.7205330  31.0115730
   2.8656890  41.6915150   3.1665440   2.0898990  41.2115590   3.4564010
   3.5169820  41.0120800   2.9921600   6.8864320  46.0975340   1.9464570
   6.4245850  45.3262580   2.2751740   7.6989870  46.1241410   2.4517020
   2.3065880  44.3672340   3.1735600   2.2374160  43.4262280   3.0124730
   3.0685740  44.4573750   3.7458170   3.3371050  37.1742720   3.4004530
   3.7135870  36.3014600   3.2878200   3.2390560  37.5101420   2.5094970
  11.4094720  36.6859910   6.8976500  10.7046890  37.0741620   6.3791610
  11.6752640  37.3810200   7.4997430   7.3556650  36.6093540   3.1060410
   6.6512220  36.8978430   3.6863520   7.7168810  37.4193650   2.7459970
   8.9719430  46.2268670   5.3687890   8.2882950  46.8967780   5.3604560
   9.5113720  46.4249320   4.6032750  10.4243570  36.0548330   3.4969620
   9.4768480  36.0887310   3.6285050  10.7493560  36.8687280   3.8818980
   6.5078170  48.0712800   4.0833070   6.5205330  47.6675090   3.2155330
   5.9553390  48.8460090   3.9794500   5.9063610  42.9742640   5.4115680
   6.3232400  42.7602750   4.5769140   6.6303430  43.2315430   5.9824300
   9.8525710  41.3729860   5.5031920   9.0244340  41.4422950   5.0282050
  10.4476190  41.9584170   5.0347750   6.8167720  38.1599180   6.4486790
   6.4038900  38.9852890   6.7026780   6.0843670  37.5744220   6.2563150
   7.5067820  48.2058510   7.1367770   7.0298380  49.0130700   6.9440380
   6.8229610  47.5536840   7.2893980  11.0867030  47.9670450  12.2059160
  11.5626750  48.4453340  12.8848240  11.7074190  47.8987940  11.4804660
  10.4900280  45.1583300   9.3659170  10.6163340  44.9195180   8.4476350
  10.5321660  44.3267840   9.8381250   4.3517020  48.8611300   7.9353980
   4.8661690  48.7719310   8.7376410   3.5086100  49.2071000   8.2281890
  10.3424290  37.2115760  10.3308910   9.7268560  37.7195430   9.8024370
  10.0220710  36.3114090  10.2734850   2.4038610  36.0507650   7.7971100
   1.9417980  36.2590670   8.6091040   2.0016720  35.2367000   7.4941770
   7.4043120  37.2716600   8.9267760   6.5536710  36.9722350   9.2476830
   7.2444910  37.5158610   8.0151580   4.4992830  38.7718350  11.0266550
   4.8246240  37.9382100  10.6868780   5.2873160  39.2946870  11.1744880
   2.0537820  35.7006920  11.8107820   1.3636140  35.5079120  12.4453910
   2.7970120  35.9841560  12.3432120   4.3300790  39.5405360   4.6461740
   3.5981910  40.0492170   4.9951840   3.9325130  38.7235340   4.3450520
   4.7926700  34.9939040   4.0584680   4.8099440  35.4447690   4.9026530
   4.5442280  34.0944680   4.2718120   8.2197450  32.4071220   9.8971060
   8.5443220  31.6760880  10.4229040   8.2553960  32.0884860   8.9952050
   8.1455290  42.5196330   3.5057090   8.8654410  43.0151620   3.1153200
   7.9437110  41.8414220   2.8610960   3.5274090  42.5905390   9.3926090
   3.4611400  41.6701060   9.1383680   2.8979230  42.6880830  10.1070730
   3.4590820  45.4125960   9.1429890   3.4735360  44.4806920   8.9248800
   2.7515920  45.4985720   9.7819660   9.6702030  42.0533300   8.4898470
   8.9450220  42.6462080   8.2927860  10.1977490  42.0456840   7.6911840
   2.8924720  47.0543530   6.2370390   3.5366940  47.2602910   6.9143810
   3.2554160  46.2931930   5.7841240   4.1656800  45.0575880   4.9547840
   4.8079030  44.3569040   5.0680010   4.6906150  45.8374320   4.7744730
   5.9394420  45.8570780   8.1583900   6.2750660  46.4437470   8.8361820
   5.0194760  45.7263490   8.3881690   1.7683000  45.9062110  11.3271960
   1.4479870  45.1871350  11.8717650   1.0941360  46.5817180  11.4008020
   4.9836600  36.1388270   6.6908760   5.3517420  35.3183480   7.0188330
   4.1234800  36.1990160   7.1064410   1.9438590  38.7927860   6.9146730
   2.4423840  39.2673680   7.5798580   2.0861540  37.8691380   7.1216760
   9.1505450  35.0095820   7.7575120   8.6479050  35.7501220   8.0968930
   9.9662110  35.3979820   7.4411910   9.4453040  47.4237850   2.8790740
   9.5700460  48.2469020   3.3514550  10.3118600  47.2128580   2.5314890
   4.7593480  44.8095000  11.6868860   4.1531640  44.8326600  10.9464610
   4.4547590  44.0778040  12.2236110   6.1893850  48.5375290  10.2978270
   7.1415600  48.4533310  10.2478510   6.0422070  49.2017000  10.9712060
   7.8387950  44.3264910  10.7740040   8.5797420  44.6640670  10.2707500
   7.0760630  44.4956970  10.2209810   6.5133610  42.3779740   9.3095250
   6.9274630  42.5324820  10.1585670   5.5784610  42.5034960   9.4721030
   6.9855780  39.7175900  11.3134400   7.5676550  38.9628220  11.2254880
   7.1617550  40.2483340  10.5365880   3.6112740  40.0616400   8.6629020
   3.7308950  39.4657540   9.4023860   4.4706740  40.0986090   8.2430320
   5.9500640  40.6153590   7.2391530   5.4235860  41.1396210   6.6356670
   6.2931980  41.2480980   7.8701260   5.1974940  36.2203560  10.1537860
   4.5090460  35.5585100  10.0887850   5.9180960  35.7741830  10.5986320
   1.9818470  49.8704440   8.6535560   1.9077170  50.7739580   8.9607930
   1.0797310  49.5516340   8.6257630   9.5098150  47.5666620   8.9828120
   8.9100140  47.6259180   8.2392040   9.6392050  46.6271600   9.1124970
   8.1949790  44.2918600   7.0804280   7.3809630  44.7215760   7.3430070
   8.6023990  44.9037010   6.4673330   9.5440190  39.4306800   8.6073500
   9.3126280  39.2019550   7.7071450   9.8044740  40.3506350   8.5618390
   7.9828260  34.6563230  11.3853200   8.8598440  34.6646630  11.7687200
   7.9949100  33.9194070  10.7745550   9.4291530  38.5092770   2.2741220
   9.9529010  38.0155420   1.6431390  10.0150950  38.6443130   3.0188790
   9.6081250  38.5932640   5.7960770   8.6583960  38.5596180   5.9105760
   9.7894260  39.5032750   5.5610540   8.6944380  32.3421200   7.2054310
   9.3316600  32.9555340   7.5713500   8.8419270  32.3781860   6.2603540
   2.0648860  33.4947390  10.1129410   2.0037750  34.0869220  10.8624820
   3.0049240  33.3873350   9.9679670   4.7023420  33.1517450   9.7521700
   5.3163830  33.4696740   9.0902780   5.2472980  32.6666040  10.3717560
  11.1198600  49.0509080   7.1583540  10.6256880  49.4477950   6.4410670
  10.5111890  48.4258290   7.5520820   5.4431460  31.7149590   6.0790990
   4.5691300  32.0484700   5.8763920   5.3342210  31.2422770   6.9042860
   6.3503440  33.9220460   7.4632710   6.0216800  33.1072220   7.0834440
   7.2985740  33.8790270   7.3398400   8.8038050  49.6932500   4.4370280
   8.3441020  50.4448310   4.0628300   8.1750510  48.9738970   4.3785080
   1.9729270  48.8929230   4.4387390   2.2607080  48.6383530   3.5620400
   2.4852490  48.3406590   5.0292960   3.1906280  32.6319430   5.0183900
   2.4078070  33.1064930   5.2980660   2.8969210  31.7274260   4.9097080
   7.7427350  33.3342530   3.0632990   8.1835440  33.2787630   2.2154590
   7.4734940  34.2500540   3.1343170   5.5785480  31.7148630   1.7683000
   6.1814850  32.2868840   2.2431520   4.8378470  32.2788070   1.5456900
   2.0401630  49.8145330  11.8055590   2.9668940  49.5789600  11.8491550
   2.0252060  50.6417330  11.3241620   5.8280700  31.8943660  12.1477940
   5.7146150  32.2138270  13.0429460   6.6450440  32.2956170  11.8515220
   8.6079190  49.0415190  11.6296630   9.4004510  48.5464420  11.4222590
   8.9012340  49.7205330  12.2372240   4.7338850  21.1392640 151.4804090
   4.6532900  20.2247250 151.2095800   4.3203270  21.6359710 150.7743800
   2.8656890  22.9171660 153.3613360   2.0898990  22.4372100 153.6511930
   3.5169820  22.2377310 153.1869520   6.8864320  27.3231850 152.1412490
   6.4245850  26.5519090 152.4699660   7.6989870  27.3497920 152.6464940
   3.1127630  29.6089860 151.7616480   2.4939070  30.0647360 151.1910920
   3.9679410  29.7641320 151.3606180   2.3065880  25.5928850 153.3683520
   2.2374160  24.6518790 153.2072650   3.0685740  25.6830260 153.9406090
   3.3371050  18.3999230 153.5952450   3.7135870  17.5271110 153.4826120
   3.2390560  18.7357930 152.7042890   7.1195170  15.8949670 150.5280790
   7.9404790  15.4046240 150.5706270   7.1529250  16.4847330 151.2812630
   3.9790980  24.4929100 149.1548390   3.3608250  24.9578550 148.5911110
   4.4914230  25.1856580 149.5717900   7.3556650  17.8350050 153.3008330
   6.6512220  18.1234940 153.8811440   7.7168810  18.6450160 152.9407890
  10.4243570  17.2804840 153.6917540   9.4768480  17.3143820 153.8232970
  10.7493560  18.0943790 154.0766900   6.5078170  29.2969310 154.2780990
   6.5205330  28.8931600 153.4103250   5.9553390  30.0716600 154.1742420
   7.8023590  26.0185530 149.3671160   7.6919920  25.0759860 149.4920580
   7.7991840  26.3801170 150.2533920   3.3443870  21.6450850 148.7233650
   2.4173150  21.5788230 148.9522120   3.4968690  22.5830980 148.6088890
   3.3312950  17.9167850 145.7200810   2.3916620  18.0781810 145.8053270
   3.6496210  18.6353530 145.1736800   7.3741160  23.2071150 149.2268900
   6.7553580  22.8690700 148.5795200   7.3565610  22.5630910 149.9348090
   5.5505860  22.4457960 146.2341650   5.9899140  21.6080390 146.0879470
   6.2634280  23.0787360 146.3205790   3.6601240  27.3854030 150.2022890
   4.0997150  28.1278360 149.7878280   3.5988130  27.6280600 151.1261850
   9.1323000  13.7000770 144.5482690   8.8195660  13.7927600 145.4481760
   9.8935470  14.2781800 144.4980120   6.3271420  30.3723150 147.5585900
   6.1672560  30.0826090 148.4567730   6.1618130  29.5963280 147.0231130
   6.0297550  27.8810710 146.1183900   5.3362710  27.8788000 145.4586180
   6.7720410  27.4570030 145.6878070   5.5947480  29.5073420 150.1932390
   6.0504430  28.7262800 150.5071010   5.9340000  30.2180240 150.7373570
   5.1380780  19.5392580 148.7155600   4.5389670  20.2628380 148.5319220
   5.6860390  19.4769360 147.9332050   3.7445650  18.1756120 150.7458880
   4.1375220  18.4928320 149.9327570   4.1062500  17.2968000 150.8603400
   8.1455290  23.7452840 153.7005010   8.8654410  24.2408130 153.3101120
   7.9437110  23.0670730 153.0558880   3.6065230  15.1390800 147.8434400
   2.7929840  14.6403970 147.7679710   3.4127180  15.9789050 147.4270750
   6.3213620  19.5110450 146.1396560   7.2093240  19.8227680 145.9647900
   6.2918710  18.6382700 145.7477140   2.3174210  25.6834140 146.8184730
   2.6589910  26.4276370 146.3228050   1.4886920  25.9965260 147.1809560
   8.5927890  20.8222290 145.6076420   8.5091610  21.2536510 144.7572860
   9.3122080  21.2820640 146.0403240   9.6215140  27.6764550 148.3358550
   8.9791300  27.0220170 148.6102270   9.2345800  28.0819640 147.5599220
   5.2001620  25.0049980 152.1830240   5.5525440  24.4078110 151.5231610
   4.3163950  24.6794210 152.3538490   8.0112520  26.5681010 144.8734900
   7.7850100  25.8511450 145.4659540   7.6208720  26.3193450 144.0356650
   7.5928770  24.4852950 146.5349060   7.3050470  24.9465640 147.3226940
   8.3880940  24.0250720 146.8033280   8.3498630  16.3201720 147.6944240
   7.7211790  16.4247390 146.9802470   7.8550550  16.5398500 148.4838120
   2.7956770  28.0407310 145.1278220   2.8968750  27.8371300 144.1980200
   1.8958510  27.7865590 145.3326000   4.3498090  15.3238330 150.5497910
   4.2265870  15.3424460 149.6007420   5.2982650  15.3717270 150.6696310
   7.4427460  21.4785510 151.3984400   6.5017600  21.4935740 151.5732090
   7.7571530  20.6921470 151.8444700   9.4453040  28.6494360 153.0738660
   9.5700460  29.4725530 153.5462470  10.3118600  28.4385090 152.7262810
   9.0803050  29.1426010 145.9918100   8.7944560  28.7291150 145.1772280
   8.8822600  30.0713720 145.8718620   3.7853010  24.1979320 145.0365700
   3.2363110  24.6448620 145.6808440   4.4072270  23.6928570 145.5603370
   1.9655770  22.1807850 144.1808100   2.4861430  21.4656870 143.8149250
   2.6124170  22.8193720 144.4808610   5.8275340  14.0411700 146.4076040
   6.1077630  13.1979600 146.7635460   5.0541070  14.2734810 146.9214790
   2.5303800  30.2619460 146.4709840   3.4254590  30.6004430 146.4928600
   2.5621430  29.5398870 145.8434120  10.7499600  26.5340950 144.5145750
   9.9192560  26.6017600 144.9852980  10.9271430  27.4245070 144.2112610
  10.2056060  23.2788430 147.0179950  10.9674970  23.8485080 147.1239640
  10.2210430  22.7115630 147.7888260  11.2116030  24.1338530 151.8621880
  11.5824860  23.3505850 151.4557850  11.8517960  24.8227630 151.6839180
  10.2575230  23.5722800 144.1752470  10.5324070  24.4801680 144.0471690
  10.0685970  23.5085330 145.1114460   6.6550840  16.5967650 145.4706100
   7.0735720  16.4098630 144.6302760   6.3486900  15.7446700 145.7809030
  10.1540570  21.5091790 149.1681900   9.7784170  20.7419720 148.7363190
   9.4243690  21.8914490 149.6556830   9.4291530  19.7349280 152.4689140
   9.9529010  19.2411930 151.8379310  10.0150950  19.8699640 153.2136710
   8.9191500  18.9922630 148.4081550   9.4150620  18.7593500 149.1930430
   8.7207570  18.1534470 147.9919190  10.3478660  17.6283580 150.9419230
  10.2377940  17.4739620 151.8801500  11.1086250  17.1004520 150.6994640
  11.2368930  15.4591500 144.1825370  12.1618240  15.3272680 143.9743660
  11.2144720  15.5384320 145.1361820  11.3107420  16.2302160 146.8082080
  10.5158920  16.1647280 147.3374990  11.5150700  17.1652800 146.7967430
   8.2525840  30.2693710 150.8020470   8.8484910  29.9478280 150.1254890
   8.5103990  29.7965530 151.5933740   7.7427350  14.5599040 153.2580910
   8.1835440  14.5044140 152.4102510   7.4734940  15.4757050 153.3291090
   9.6065920  14.1914280 151.2689730   9.5454320  13.2475500 151.1220750
  10.3857950  14.2994370 151.8143190   5.5785480  12.9405140 151.9630920
   6.1814850  13.5125350 152.4379440   4.8378470  13.5044580 151.7404820
   8.7220080  13.3426700 147.2371200   8.9170710  14.2410150 147.5038630
   7.9349950  13.1113780 147.7304150  10.2746690  30.5827410 148.9977760
  10.4498880  29.8965150 148.3538680   9.5768260  31.1074460 148.6054430
   4.7338850  21.1392640 132.7060600   4.6532900  20.2247250 132.4352310
   4.3203270  21.6359710 132.0000310   2.8656890  22.9171660 134.5869870
   2.0898990  22.4372100 134.8768440   3.5169820  22.2377310 134.4126030
   6.8864320  27.3231850 133.3669000   6.4245850  26.5519090 133.6956170
   7.6989870  27.3497920 133.8721450   3.1127630  29.6089860 132.9872990
   2.4939070  30.0647360 132.4167430   3.9679410  29.7641320 132.5862690
   2.3065880  25.5928850 134.5940030   2.2374160  24.6518790 134.4329160
   3.0685740  25.6830260 135.1662600   3.3371050  18.3999230 134.8208960
   3.7135870  17.5271110 134.7082630   3.2390560  18.7357930 133.9299400
   7.1195170  15.8949670 131.7537300   7.9404790  15.4046240 131.7962780
   7.1529250  16.4847330 132.5069140  11.4094720  17.9116420 138.3180930
  10.7046890  18.2998130 137.7996040  11.6752640  18.6066710 138.9201860
   3.9790980  24.4929100 130.3804900   3.3608250  24.9578550 129.8167620
   4.4914230  25.1856580 130.7974410   7.3556650  17.8350050 134.5264840
   6.6512220  18.1234940 135.1067950   7.7168810  18.6450160 134.1664400
   8.9719430  27.4525180 136.7892320   8.2882950  28.1224290 136.7808990
   9.5113720  27.6505830 136.0237180  10.4243570  17.2804840 134.9174050
   9.4768480  17.3143820 135.0489480  10.7493560  18.0943790 135.3023410
   6.5078170  29.2969310 135.5037500   6.5205330  28.8931600 134.6359760
   5.9553390  30.0716600 135.3998930   7.8023590  26.0185530 130.5927670
   7.6919920  25.0759860 130.7177090   7.7991840  26.3801170 131.4790430
   5.9063610  24.1999150 136.8320110   6.3232400  23.9859260 135.9973570
   6.6303430  24.4571940 137.4028730   3.3443870  21.6450850 129.9490160
   2.4173150  21.5788230 130.1778630   3.4968690  22.5830980 129.8345400
   3.3312950  17.9167850 126.9457320   2.3916620  18.0781810 127.0309780
   3.6496210  18.6353530 126.3993310   9.8525710  22.5986370 136.9236350
   9.0244340  22.6679460 136.4486480  10.4476190  23.1840680 136.4552180
   7.3741160  23.2071150 130.4525410   6.7553580  22.8690700 129.8051710
   7.3565610  22.5630910 131.1604600   6.8167720  19.3855690 137.8691220
   6.4038900  20.2109400 138.1231210   6.0843670  18.8000730 137.6767580
   7.5067820  29.4315020 138.5572200   7.0298380  30.2387210 138.3644810
   6.8229610  28.7793350 138.7098410   5.5505860  22.4457960 127.4598160
   5.9899140  21.6080390 127.3135980   6.2634280  23.0787360 127.5462300
   3.6601240  27.3854030 131.4279400   4.0997150  28.1278360 131.0134790
   3.5988130  27.6280600 132.3518360   9.1323000  13.7000770 125.7739200
   8.8195660  13.7927600 126.6738270   9.8935470  14.2781800 125.7236630
  11.0867030  29.1926960 143.6263590  11.5626750  29.6709850 144.3052670
  11.7074190  29.1244450 142.9009090  10.4900280  26.3839810 140.7863600
  10.6163340  26.1451690 139.8680780  10.5321660  25.5524350 141.2585680
   4.3517020  30.0867810 139.3558410   4.8661690  29.9975820 140.1580840
   3.5086100  30.4327510 139.6486320   6.3271420  30.3723150 128.7842410
   6.1672560  30.0826090 129.6824240   6.1618130  29.5963280 128.2487640
   6.0297550  27.8810710 127.3440410   5.3362710  27.8788000 126.6842690
   6.7720410  27.4570030 126.9134580   5.5947480  29.5073420 131.4188900
   6.0504430  28.7262800 131.7327520   5.9340000  30.2180240 131.9630080
  10.3424290  18.4372270 141.7513340   9.7268560  18.9451940 141.2228800
  10.0220710  17.5370600 141.6939280   2.4038610  17.2764160 139.2175530
   1.9417980  17.4847180 140.0295470   2.0016720  16.4623510 138.9146200
   7.4043120  18.4973110 140.3472190   6.5536710  18.1978860 140.6681260
   7.2444910  18.7415120 139.4356010   4.4992830  19.9974860 142.4470980
   4.8246240  19.1638610 142.1073210   5.2873160  20.5203380 142.5949310
   5.1380780  19.5392580 129.9412110   4.5389670  20.2628380 129.7575730
   5.6860390  19.4769360 129.1588560   3.7445650  18.1756120 131.9715390
   4.1375220  18.4928320 131.1584080   4.1062500  17.2968000 132.0859910
   2.0537820  16.9263430 143.2312250   1.3636140  16.7335630 143.8658340
   2.7970120  17.2098070 143.7636550   4.3300790  20.7661870 136.0666170
   3.5981910  21.2748680 136.4156270   3.9325130  19.9491850 135.7654950
   4.7926700  16.2195550 135.4789110   4.8099440  16.6704200 136.3230960
   4.5442280  15.3201190 135.6922550   8.2197450  13.6327730 141.3175490
   8.5443220  12.9017390 141.8433470   8.2553960  13.3141370 140.4156480
   8.1455290  23.7452840 134.9261520   8.8654410  24.2408130 134.5357630
   7.9437110  23.0670730 134.2815390   3.6065230  15.1390800 129.0690910
   2.7929840  14.6403970 128.9936220   3.4127180  15.9789050 128.6527260
   3.5274090  23.8161900 140.8130520   3.4611400  22.8957570 140.5588110
   2.8979230  23.9137340 141.5275160   6.3213620  19.5110450 127.3653070
   7.2093240  19.8227680 127.1904410   6.2918710  18.6382700 126.9733650
   2.3174210  25.6834140 128.0441240   2.6589910  26.4276370 127.5484560
   1.4886920  25.9965260 128.4066070   3.4590820  26.6382470 140.5634320
   3.4735360  25.7063430 140.3453230   2.7515920  26.7242230 141.2024090
   8.5927890  20.8222290 126.8332930   8.5091610  21.2536510 125.9829370
   9.3122080  21.2820640 127.2659750   9.6702030  23.2789810 139.9102900
   8.9450220  23.8718590 139.7132290  10.1977490  23.2713350 139.1116270
   9.6215140  27.6764550 129.5615060   8.9791300  27.0220170 129.8358780
   9.2345800  28.0819640 128.7855730   5.2001620  25.0049980 133.4086750
   5.5525440  24.4078110 132.7488120   4.3163950  24.6794210 133.5795000
   2.8924720  28.2800040 137.6574820   3.5366940  28.4859420 138.3348240
   3.2554160  27.5188440 137.2045670   4.1656800  26.2832390 136.3752270
   4.8079030  25.5825550 136.4884440   4.6906150  27.0630830 136.1949160
   8.0112520  26.5681010 126.0991410   7.7850100  25.8511450 126.6916050
   7.6208720  26.3193450 125.2613160   5.9394420  27.0827290 139.5788330
   6.2750660  27.6693980 140.2566250   5.0194760  26.9520000 139.8086120
   7.5928770  24.4852950 127.7605570   7.3050470  24.9465640 128.5483450
   8.3880940  24.0250720 128.0289790   1.7683000  27.1318620 142.7476390
   1.4479870  26.4127860 143.2922080   1.0941360  27.8073690 142.8212450
   4.9836600  17.3644780 138.1113190   5.3517420  16.5439990 138.4392760
   4.1234800  17.4246670 138.5268840   8.3498630  16.3201720 128.9200750
   7.7211790  16.4247390 128.2058980   7.8550550  16.5398500 129.7094630
   2.7956770  28.0407310 126.3534730   2.8968750  27.8371300 125.4236710
   1.8958510  27.7865590 126.5582510   1.9438590  20.0184370 138.3351160
   2.4423840  20.4930190 139.0003010   2.0861540  19.0947890 138.5421190
   4.3498090  15.3238330 131.7754420   4.2265870  15.3424460 130.8263930
   5.2982650  15.3717270 131.8952820   9.1505450  16.2352330 139.1779550
   8.6479050  16.9757730 139.5173360   9.9662110  16.6236330 138.8616340
   7.4427460  21.4785510 132.6240910   6.5017600  21.4935740 132.7988600
   7.7571530  20.6921470 133.0701210   9.4453040  28.6494360 134.2995170
   9.5700460  29.4725530 134.7718980  10.3118600  28.4385090 133.9519320
   4.7593480  26.0351510 143.1073290   4.1531640  26.0583110 142.3669040
   4.4547590  25.3034550 143.6440540   6.1893850  29.7631800 141.7182700
   7.1415600  29.6789820 141.6682940   6.0422070  30.4273510 142.3916490
   9.0803050  29.1426010 127.2174610   8.7944560  28.7291150 126.4028790
   8.8822600  30.0713720 127.0975130   3.7853010  24.1979320 126.2622210
   3.2363110  24.6448620 126.9064950   4.4072270  23.6928570 126.7859880
   7.8387950  25.5521420 142.1944470   8.5797420  25.8897180 141.6911930
   7.0760630  25.7213480 141.6414240   1.9655770  22.1807850 125.4064610
   2.4861430  21.4656870 125.0405760   2.6124170  22.8193720 125.7065120
   6.5133610  23.6036250 140.7299680   6.9274630  23.7581330 141.5790100
   5.5784610  23.7291470 140.8925460   6.9855780  20.9432410 142.7338830
   7.5676550  20.1884730 142.6459310   7.1617550  21.4739850 141.9570310
   3.6112740  21.2872910 140.0833450   3.7308950  20.6914050 140.8228290
   4.4706740  21.3242600 139.6634750   5.9500640  21.8410100 138.6595960
   5.4235860  22.3652720 138.0561100   6.2931980  22.4737490 139.2905690
   5.1974940  17.4460070 141.5742290   4.5090460  16.7841610 141.5092280
   5.9180960  16.9998340 142.0190750   5.8275340  14.0411700 127.6332550
   6.1077630  13.1979600 127.9891970   5.0541070  14.2734810 128.1471300
   1.9818470  31.0960950 140.0739990   1.9077170  31.9996090 140.3812360
   1.0797310  30.7772850 140.0462060   2.5303800  30.2619460 127.6966350
   3.4254590  30.6004430 127.7185110   2.5621430  29.5398870 127.0690630
   9.5098150  28.7923130 140.4032550   8.9100140  28.8515690 139.6596470
   9.6392050  27.8528110 140.5329400  10.7499600  26.5340950 125.7402260
   9.9192560  26.6017600 126.2109490  10.9271430  27.4245070 125.4369120
  10.2056060  23.2788430 128.2436460  10.9674970  23.8485080 128.3496150
  10.2210430  22.7115630 129.0144770  11.2116030  24.1338530 133.0878390
  11.5824860  23.3505850 132.6814360  11.8517960  24.8227630 132.9095690
   8.1949790  25.5175110 138.5008710   7.3809630  25.9472270 138.7634500
   8.6023990  26.1293520 137.8877760  10.2575230  23.5722800 125.4008980
  10.5324070  24.4801680 125.2728200  10.0685970  23.5085330 126.3370970
   6.6550840  16.5967650 126.6962610   7.0735720  16.4098630 125.8559270
   6.3486900  15.7446700 127.0065540  10.1540570  21.5091790 130.3938410
   9.7784170  20.7419720 129.9619700   9.4243690  21.8914490 130.8813340
   9.5440190  20.6563310 140.0277930   9.3126280  20.4276060 139.1275880
   9.8044740  21.5762860 139.9822820   7.9828260  15.8819740 142.8057630
   8.8598440  15.8903140 143.1891630   7.9949100  15.1450580 142.1949980
   9.4291530  19.7349280 133.6945650   9.9529010  19.2411930 133.0635820
  10.0150950  19.8699640 134.4393220   9.6081250  19.8189150 137.2165200
   8.6583960  19.7852690 137.3310190   9.7894260  20.7289260 136.9814970
   8.9191500  18.9922630 129.6338060   9.4150620  18.7593500 130.4186940
   8.7207570  18.1534470 129.2175700  10.3478660  17.6283580 132.1675740
  10.2377940  17.4739620 133.1058010  11.1086250  17.1004520 131.9251150
   8.6944380  13.5677710 138.6258740   9.3316600  14.1811850 138.9917930
   8.8419270  13.6038370 137.6807970  11.2368930  15.4591500 125.4081880
  12.1618240  15.3272680 125.2000170  11.2144720  15.5384320 126.3618330
  11.3107420  16.2302160 128.0338590  10.5158920  16.1647280 128.5631500
  11.5150700  17.1652800 128.0223940   8.2525840  30.2693710 132.0276980
   8.8484910  29.9478280 131.3511400   8.5103990  29.7965530 132.8190250
   2.0648860  14.7203900 141.5333840   2.0037750  15.3125730 142.2829250
   3.0049240  14.6129860 141.3884100   4.7023420  14.3773960 141.1726130
   5.3163830  14.6953250 140.5107210   5.2472980  13.8922550 141.7921990
  11.1198600  30.2765590 138.5787970  10.6256880  30.6734460 137.8615100
  10.5111890  29.6514800 138.9725250   5.4431460  12.9406100 137.4995420
   4.5691300  13.2741210 137.2968350   5.3342210  12.4679280 138.3247290
   6.3503440  15.1476970 138.8837140   6.0216800  14.3328730 138.5038870
   7.2985740  15.1046780 138.7602830   8.8038050  30.9189010 135.8574710
   8.3441020  31.6704820 135.4832730   8.1750510  30.1995480 135.7989510
   1.9729270  30.1185740 135.8591820   2.2607080  29.8640040 134.9824830
   2.4852490  29.5663100 136.4497390   3.1906280  13.8575940 136.4388330
   2.4078070  14.3321440 136.7185090   2.8969210  12.9530770 136.3301510
   7.7427350  14.5599040 134.4837420   8.1835440  14.5044140 133.6359020
   7.4734940  15.4757050 134.5547600   9.6065920  14.1914280 132.4946240
   9.5454320  13.2475500 132.3477260  10.3857950  14.2994370 133.0399700
   5.5785480  12.9405140 133.1887430   6.1814850  13.5125350 133.6635950
   4.8378470  13.5044580 132.9661330   8.7220080  13.3426700 128.4627710
   8.9170710  14.2410150 128.7295140   7.9349950  13.1113780 128.9560660
   2.0401630  31.0401840 143.2260020   2.9668940  30.8046110 143.2695980
   2.0252060  31.8673840 142.7446050  10.2746690  30.5827410 130.2234270
  10.4498880  29.8965150 129.5795190   9.5768260  31.1074460 129.8310940
   5.8280700  13.1200170 143.5682370   5.7146150  13.4394780 144.4633890
   6.6450440  13.5212680 143.2719650   8.6079190  30.2671700 143.0501060
   9.4004510  29.7720930 142.8427020   8.9012340  30.9461840 143.6576670
   4.7338850  21.1392640 113.9317110   4.6532900  20.2247250 113.6608820
   4.3203270  21.6359710 113.2256820   2.8656890  22.9171660 115.8126380
   2.0898990  22.4372100 116.1024950   3.5169820  22.2377310 115.6382540
   6.8864320  27.3231850 114.5925510   6.4245850  26.5519090 114.9212680
   7.6989870  27.3497920 115.0977960   3.1127630  29.6089860 114.2129500
   2.4939070  30.0647360 113.6423940   3.9679410  29.7641320 113.8119200
   2.3065880  25.5928850 115.8196540   2.2374160  24.6518790 115.6585670
   3.0685740  25.6830260 116.3919110   3.3371050  18.3999230 116.0465470
   3.7135870  17.5271110 115.9339140   3.2390560  18.7357930 115.1555910
   7.1195170  15.8949670 112.9793810   7.9404790  15.4046240 113.0219290
   7.1529250  16.4847330 113.7325650  11.4094720  17.9116420 119.5437440
  10.7046890  18.2998130 119.0252550  11.6752640  18.6066710 120.1458370
   3.9790980  24.4929100 111.6061410   3.3608250  24.9578550 111.0424130
   4.4914230  25.1856580 112.0230920   7.3556650  17.8350050 115.7521350
   6.6512220  18.1234940 116.3324460   7.7168810  18.6450160 115.3920910
   8.9719430  27.4525180 118.0148830   8.2882950  28.1224290 118.0065500
   9.5113720  27.6505830 117.2493690  10.4243570  17.2804840 116.1430560
   9.4768480  17.3143820 116.2745990  10.7493560  18.0943790 116.5279920
   6.5078170  29.2969310 116.7294010   6.5205330  28.8931600 115.8616270
   5.9553390  30.0716600 116.6255440   7.8023590  26.0185530 111.8184180
   7.6919920  25.0759860 111.9433600   7.7991840  26.3801170 112.7046940
   5.9063610  24.1999150 118.0576620   6.3232400  23.9859260 117.2230080
   6.6303430  24.4571940 118.6285240   3.3443870  21.6450850 111.1746670
   2.4173150  21.5788230 111.4035140   3.4968690  22.5830980 111.0601910
   3.3312950  17.9167850 108.1713830   2.3916620  18.0781810 108.2566290
   3.6496210  18.6353530 107.6249820   9.8525710  22.5986370 118.1492860
   9.0244340  22.6679460 117.6742990  10.4476190  23.1840680 117.6808690
   7.3741160  23.2071150 111.6781920   6.7553580  22.8690700 111.0308220
   7.3565610  22.5630910 112.3861110   6.8167720  19.3855690 119.0947730
   6.4038900  20.2109400 119.3487720   6.0843670  18.8000730 118.9024090
   7.5067820  29.4315020 119.7828710   7.0298380  30.2387210 119.5901320
   6.8229610  28.7793350 119.9354920   5.5505860  22.4457960 108.6854670
   5.9899140  21.6080390 108.5392490   6.2634280  23.0787360 108.7718810
   3.6601240  27.3854030 112.6535910   4.0997150  28.1278360 112.2391300
   3.5988130  27.6280600 113.5774870   9.1323000  13.7000770 106.9995710
   8.8195660  13.7927600 107.8994780   9.8935470  14.2781800 106.9493140
  11.0867030  29.1926960 124.8520100  11.5626750  29.6709850 125.5309180
  11.7074190  29.1244450 124.1265600  10.4900280  26.3839810 122.0120110
  10.6163340  26.1451690 121.0937290  10.5321660  25.5524350 122.4842190
   4.3517020  30.0867810 120.5814920   4.8661690  29.9975820 121.3837350
   3.5086100  30.4327510 120.8742830   6.3271420  30.3723150 110.0098920
   6.1672560  30.0826090 110.9080750   6.1618130  29.5963280 109.4744150
   6.0297550  27.8810710 108.5696920   5.3362710  27.8788000 107.9099200
   6.7720410  27.4570030 108.1391090   5.5947480  29.5073420 112.6445410
   6.0504430  28.7262800 112.9584030   5.9340000  30.2180240 113.1886590
  10.3424290  18.4372270 122.9769850   9.7268560  18.9451940 122.4485310
  10.0220710  17.5370600 122.9195790   2.4038610  17.2764160 120.4432040
   1.9417980  17.4847180 121.2551980   2.0016720  16.4623510 120.1402710
   7.4043120  18.4973110 121.5728700   6.5536710  18.1978860 121.8937770
   7.2444910  18.7415120 120.6612520   4.4992830  19.9974860 123.6727490
   4.8246240  19.1638610 123.3329720   5.2873160  20.5203380 123.8205820
   5.1380780  19.5392580 111.1668620   4.5389670  20.2628380 110.9832240
   5.6860390  19.4769360 110.3845070   3.7445650  18.1756120 113.1971900
   4.1375220  18.4928320 112.3840590   4.1062500  17.2968000 113.3116420
   2.0537820  16.9263430 124.4568760   1.3636140  16.7335630 125.0914850
   2.7970120  17.2098070 124.9893060   4.3300790  20.7661870 117.2922680
   3.5981910  21.2748680 117.6412780   3.9325130  19.9491850 116.9911460
   4.7926700  16.2195550 116.7045620   4.8099440  16.6704200 117.5487470
   4.5442280  15.3201190 116.9179060   8.2197450  13.6327730 122.5432000
   8.5443220  12.9017390 123.0689980   8.2553960  13.3141370 121.6412990
   8.1455290  23.7452840 116.1518030   8.8654410  24.2408130 115.7614140
   7.9437110  23.0670730 115.5071900   3.6065230  15.1390800 110.2947420
   2.7929840  14.6403970 110.2192730   3.4127180  15.9789050 109.8783770
   3.5274090  23.8161900 122.0387030   3.4611400  22.8957570 121.7844620
   2.8979230  23.9137340 122.7531670   6.3213620  19.5110450 108.5909580
   7.2093240  19.8227680 108.4160920   6.2918710  18.6382700 108.1990160
   2.3174210  25.6834140 109.2697750   2.6589910  26.4276370 108.7741070
   1.4886920  25.9965260 109.6322580   3.4590820  26.6382470 121.7890830
   3.4735360  25.7063430 121.5709740   2.7515920  26.7242230 122.4280600
   8.5927890  20.8222290 108.0589440   8.5091610  21.2536510 107.2085880
   9.3122080  21.2820640 108.4916260   9.6702030  23.2789810 121.1359410
   8.9450220  23.8718590 120.9388800  10.1977490  23.2713350 120.3372780
   9.6215140  27.6764550 110.7871570   8.9791300  27.0220170 111.0615290
   9.2345800  28.0819640 110.0112240   5.2001620  25.0049980 114.6343260
   5.5525440  24.4078110 113.9744630   4.3163950  24.6794210 114.8051510
   2.8924720  28.2800040 118.8831330   3.5366940  28.4859420 119.5604750
   3.2554160  27.5188440 118.4302180   4.1656800  26.2832390 117.6008780
   4.8079030  25.5825550 117.7140950   4.6906150  27.0630830 117.4205670
   8.0112520  26.5681010 107.3247920   7.7850100  25.8511450 107.9172560
   7.6208720  26.3193450 106.4869670   5.9394420  27.0827290 120.8044840
   6.2750660  27.6693980 121.4822760   5.0194760  26.9520000 121.0342630
   7.5928770  24.4852950 108.9862080   7.3050470  24.9465640 109.7739960
   8.3880940  24.0250720 109.2546300   1.7683000  27.1318620 123.9732900
   1.4479870  26.4127860 124.5178590   1.0941360  27.8073690 124.0468960
   4.9836600  17.3644780 119.3369700   5.3517420  16.5439990 119.6649270
   4.1234800  17.4246670 119.7525350   8.3498630  16.3201720 110.1457260
   7.7211790  16.4247390 109.4315490   7.8550550  16.5398500 110.9351140
   2.7956770  28.0407310 107.5791240   2.8968750  27.8371300 106.6493220
   1.8958510  27.7865590 107.7839020   1.9438590  20.0184370 119.5607670
   2.4423840  20.4930190 120.2259520   2.0861540  19.0947890 119.7677700
   4.3498090  15.3238330 113.0010930   4.2265870  15.3424460 112.0520440
   5.2982650  15.3717270 113.1209330   9.1505450  16.2352330 120.4036060
   8.6479050  16.9757730 120.7429870   9.9662110  16.6236330 120.0872850
   7.4427460  21.4785510 113.8497420   6.5017600  21.4935740 114.0245110
   7.7571530  20.6921470 114.2957720   9.4453040  28.6494360 115.5251680
   9.5700460  29.4725530 115.9975490  10.3118600  28.4385090 115.1775830
   4.7593480  26.0351510 124.3329800   4.1531640  26.0583110 123.5925550
   4.4547590  25.3034550 124.8697050   6.1893850  29.7631800 122.9439210
   7.1415600  29.6789820 122.8939450   6.0422070  30.4273510 123.6173000
   9.0803050  29.1426010 108.4431120   8.7944560  28.7291150 107.6285300
   8.8822600  30.0713720 108.3231640   3.7853010  24.1979320 107.4878720
   3.2363110  24.6448620 108.1321460   4.4072270  23.6928570 108.0116390
   7.8387950  25.5521420 123.4200980   8.5797420  25.8897180 122.9168440
   7.0760630  25.7213480 122.8670750   1.9655770  22.1807850 106.6321120
   2.4861430  21.4656870 106.2662270   2.6124170  22.8193720 106.9321630
   6.5133610  23.6036250 121.9556190   6.9274630  23.7581330 122.8046610
   5.5784610  23.7291470 122.1181970   6.9855780  20.9432410 123.9595340
   7.5676550  20.1884730 123.8715820   7.1617550  21.4739850 123.1826820
   3.6112740  21.2872910 121.3089960   3.7308950  20.6914050 122.0484800
   4.4706740  21.3242600 120.8891260   5.9500640  21.8410100 119.8852470
   5.4235860  22.3652720 119.2817610   6.2931980  22.4737490 120.5162200
   5.1974940  17.4460070 122.7998800   4.5090460  16.7841610 122.7348790
   5.9180960  16.9998340 123.2447260   5.8275340  14.0411700 108.8589060
   6.1077630  13.1979600 109.2148480   5.0541070  14.2734810 109.3727810
   1.9818470  31.0960950 121.2996500   1.9077170  31.9996090 121.6068870
   1.0797310  30.7772850 121.2718570   2.5303800  30.2619460 108.9222860
   3.4254590  30.6004430 108.9441620   2.5621430  29.5398870 108.2947140
   9.5098150  28.7923130 121.6289060   8.9100140  28.8515690 120.8852980
   9.6392050  27.8528110 121.7585910  10.7499600  26.5340950 106.9658770
   9.9192560  26.6017600 107.4366000  10.9271430  27.4245070 106.6625630
  10.2056060  23.2788430 109.4692970  10.9674970  23.8485080 109.5752660
  10.2210430  22.7115630 110.2401280  11.2116030  24.1338530 114.3134900
  11.5824860  23.3505850 113.9070870  11.8517960  24.8227630 114.1352200
   8.1949790  25.5175110 119.7265220   7.3809630  25.9472270 119.9891010
   8.6023990  26.1293520 119.1134270  10.2575230  23.5722800 106.6265490
  10.5324070  24.4801680 106.4984710  10.0685970  23.5085330 107.5627480
   6.6550840  16.5967650 107.9219120   7.0735720  16.4098630 107.0815780
   6.3486900  15.7446700 108.2322050  10.1540570  21.5091790 111.6194920
   9.7784170  20.7419720 111.1876210   9.4243690  21.8914490 112.1069850
   9.5440190  20.6563310 121.2534440   9.3126280  20.4276060 120.3532390
   9.8044740  21.5762860 121.2079330   7.9828260  15.8819740 124.0314140
   8.8598440  15.8903140 124.4148140   7.9949100  15.1450580 123.4206490
   9.4291530  19.7349280 114.9202160   9.9529010  19.2411930 114.2892330
  10.0150950  19.8699640 115.6649730   9.6081250  19.8189150 118.4421710
   8.6583960  19.7852690 118.5566700   9.7894260  20.7289260 118.2071480
   8.9191500  18.9922630 110.8594570   9.4150620  18.7593500 111.6443450
   8.7207570  18.1534470 110.4432210  10.3478660  17.6283580 113.3932250
  10.2377940  17.4739620 114.3314520  11.1086250  17.1004520 113.1507660
   8.6944380  13.5677710 119.8515250   9.3316600  14.1811850 120.2174440
   8.8419270  13.6038370 118.9064480  11.2368930  15.4591500 106.6338390
  12.1618240  15.3272680 106.4256680  11.2144720  15.5384320 107.5874840
  11.3107420  16.2302160 109.2595100  10.5158920  16.1647280 109.7888010
  11.5150700  17.1652800 109.2480450   8.2525840  30.2693710 113.2533490
   8.8484910  29.9478280 112.5767910   8.5103990  29.7965530 114.0446760
   2.0648860  14.7203900 122.7590350   2.0037750  15.3125730 123.5085760
   3.0049240  14.6129860 122.6140610   4.7023420  14.3773960 122.3982640
   5.3163830  14.6953250 121.7363720   5.2472980  13.8922550 123.0178500
  11.1198600  30.2765590 119.8044480  10.6256880  30.6734460 119.0871610
  10.5111890  29.6514800 120.1981760   5.4431460  12.9406100 118.7251930
   4.5691300  13.2741210 118.5224860   5.3342210  12.4679280 119.5503800
   6.3503440  15.1476970 120.1093650   6.0216800  14.3328730 119.7295380
   7.2985740  15.1046780 119.9859340   8.8038050  30.9189010 117.0831220
   8.3441020  31.6704820 116.7089240   8.1750510  30.1995480 117.0246020
   1.9729270  30.1185740 117.0848330   2.2607080  29.8640040 116.2081340
   2.4852490  29.5663100 117.6753900   3.1906280  13.8575940 117.6644840
   2.4078070  14.3321440 117.9441600   2.8969210  12.9530770 117.5558020
   7.7427350  14.5599040 115.7093930   8.1835440  14.5044140 114.8615530
   7.4734940  15.4757050 115.7804110   9.6065920  14.1914280 113.7202750
   9.5454320  13.2475500 113.5733770  10.3857950  14.2994370 114.2656210
   5.5785480  12.9405140 114.4143940   6.1814850  13.5125350 114.8892460
   4.8378470  13.5044580 114.1917840   8.7220080  13.3426700 109.6884220
   8.9170710  14.2410150 109.9551650   7.9349950  13.1113780 110.1817170
   2.0401630  31.0401840 124.4516530   2.9668940  30.8046110 124.4952490
   2.0252060  31.8673840 123.9702560  10.2746690  30.5827410 111.4490780
  10.4498880  29.8965150 110.8051700   9.5768260  31.1074460 111.0567450
   5.8280700  13.1200170 124.7938880   5.7146150  13.4394780 125.6890400
   6.6450440  13.5212680 124.4976160   8.6079190  30.2671700 124.2757570
   9.4004510  29.7720930 124.0683530   8.9012340  30.9461840 124.8833180
   4.7338850  21.1392640  95.1573620   4.6532900  20.2247250  94.8865330
   4.3203270  21.6359710  94.4513330   2.8656890  22.9171660  97.0382890
   2.0898990  22.4372100  97.3281460   3.5169820  22.2377310  96.8639050
   6.8864320  27.3231850  95.8182020   6.4245850  26.5519090  96.1469190
   7.6989870  27.3497920  96.3234470   3.1127630  29.6089860  95.4386010
   2.4939070  30.0647360  94.8680450   3.9679410  29.7641320  95.0375710
   2.3065880  25.5928850  97.0453050   2.2374160  24.6518790  96.8842180
   3.0685740  25.6830260  97.6175620   3.3371050  18.3999230  97.2721980
   3.7135870  17.5271110  97.1595650   3.2390560  18.7357930  96.3812420
   7.1195170  15.8949670  94.2050320   7.9404790  15.4046240  94.2475800
   7.1529250  16.4847330  94.9582160  11.4094720  17.9116420 100.7693950
  10.7046890  18.2998130 100.2509060  11.6752640  18.6066710 101.3714880
   3.9790980  24.4929100  92.8317920   3.3608250  24.9578550  92.2680640
   4.4914230  25.1856580  93.2487430   7.3556650  17.8350050  96.9777860
   6.6512220  18.1234940  97.5580970   7.7168810  18.6450160  96.6177420
   8.9719430  27.4525180  99.2405340   8.2882950  28.1224290  99.2322010
   9.5113720  27.6505830  98.4750200  10.4243570  17.2804840  97.3687070
   9.4768480  17.3143820  97.5002500  10.7493560  18.0943790  97.7536430
   6.5078170  29.2969310  97.9550520   6.5205330  28.8931600  97.0872780
   5.9553390  30.0716600  97.8511950   7.8023590  26.0185530  93.0440690
   7.6919920  25.0759860  93.1690110   7.7991840  26.3801170  93.9303450
   5.9063610  24.1999150  99.2833130   6.3232400  23.9859260  98.4486590
   6.6303430  24.4571940  99.8541750   3.3443870  21.6450850  92.4003180
   2.4173150  21.5788230  92.6291650   3.4968690  22.5830980  92.2858420
   3.3312950  17.9167850  89.3970340   2.3916620  18.0781810  89.4822800
   3.6496210  18.6353530  88.8506330   9.8525710  22.5986370  99.3749370
   9.0244340  22.6679460  98.8999500  10.4476190  23.1840680  98.9065200
   7.3741160  23.2071150  92.9038430   6.7553580  22.8690700  92.2564730
   7.3565610  22.5630910  93.6117620   6.8167720  19.3855690 100.3204240
   6.4038900  20.2109400 100.5744230   6.0843670  18.8000730 100.1280600
   7.5067820  29.4315020 101.0085220   7.0298380  30.2387210 100.8157830
   6.8229610  28.7793350 101.1611430   5.5505860  22.4457960  89.9111180
   5.9899140  21.6080390  89.7649000   6.2634280  23.0787360  89.9975320
   3.6601240  27.3854030  93.8792420   4.0997150  28.1278360  93.4647810
   3.5988130  27.6280600  94.8031380   9.1323000  13.7000770  88.2252220
   8.8195660  13.7927600  89.1251290   9.8935470  14.2781800  88.1749650
  11.0867030  29.1926960 106.0776610  11.5626750  29.6709850 106.7565690
  11.7074190  29.1244450 105.3522110  10.4900280  26.3839810 103.2376620
  10.6163340  26.1451690 102.3193800  10.5321660  25.5524350 103.7098700
   4.3517020  30.0867810 101.8071430   4.8661690  29.9975820 102.6093860
   3.5086100  30.4327510 102.0999340   6.3271420  30.3723150  91.2355430
   6.1672560  30.0826090  92.1337260   6.1618130  29.5963280  90.7000660
   6.0297550  27.8810710  89.7953430   5.3362710  27.8788000  89.1355710
   6.7720410  27.4570030  89.3647600   5.5947480  29.5073420  93.8701920
   6.0504430  28.7262800  94.1840540   5.9340000  30.2180240  94.4143100
  10.3424290  18.4372270 104.2026360   9.7268560  18.9451940 103.6741820
  10.0220710  17.5370600 104.1452300   2.4038610  17.2764160 101.6688550
   1.9417980  17.4847180 102.4808490   2.0016720  16.4623510 101.3659220
   7.4043120  18.4973110 102.7985210   6.5536710  18.1978860 103.1194280
   7.2444910  18.7415120 101.8869030   4.4992830  19.9974860 104.8984000
   4.8246240  19.1638610 104.5586230   5.2873160  20.5203380 105.0462330
   5.1380780  19.5392580  92.3925130   4.5389670  20.2628380  92.2088750
   5.6860390  19.4769360  91.6101580   3.7445650  18.1756120  94.4228410
   4.1375220  18.4928320  93.6097100   4.1062500  17.2968000  94.5372930
   2.0537820  16.9263430 105.6825270   1.3636140  16.7335630 106.3171360
   2.7970120  17.2098070 106.2149570   4.3300790  20.7661870  98.5179190
   3.5981910  21.2748680  98.8669290   3.9325130  19.9491850  98.2167970
   4.7926700  16.2195550  97.9302130   4.8099440  16.6704200  98.7743980
   4.5442280  15.3201190  98.1435570   8.2197450  13.6327730 103.7688510
   8.5443220  12.9017390 104.2946490   8.2553960  13.3141370 102.8669500
   8.1455290  23.7452840  97.3774540   8.8654410  24.2408130  96.9870650
   7.9437110  23.0670730  96.7328410   3.6065230  15.1390800  91.5203930
   2.7929840  14.6403970  91.4449240   3.4127180  15.9789050  91.1040280
   3.5274090  23.8161900 103.2643540   3.4611400  22.8957570 103.0101130
   2.8979230  23.9137340 103.9788180   6.3213620  19.5110450  89.8166090
   7.2093240  19.8227680  89.6417430   6.2918710  18.6382700  89.4246670
   2.3174210  25.6834140  90.4954260   2.6589910  26.4276370  89.9997580
   1.4886920  25.9965260  90.8579090   3.4590820  26.6382470 103.0147340
   3.4735360  25.7063430 102.7966250   2.7515920  26.7242230 103.6537110
   8.5927890  20.8222290  89.2845950   8.5091610  21.2536510  88.4342390
   9.3122080  21.2820640  89.7172770   9.6702030  23.2789810 102.3615920
   8.9450220  23.8718590 102.1645310  10.1977490  23.2713350 101.5629290
   9.6215140  27.6764550  92.0128080   8.9791300  27.0220170  92.2871800
   9.2345800  28.0819640  91.2368750   5.2001620  25.0049980  95.8599770
   5.5525440  24.4078110  95.2001140   4.3163950  24.6794210  96.0308020
   2.8924720  28.2800040 100.1087840   3.5366940  28.4859420 100.7861260
   3.2554160  27.5188440  99.6558690   4.1656800  26.2832390  98.8265290
   4.8079030  25.5825550  98.9397460   4.6906150  27.0630830  98.6462180
   8.0112520  26.5681010  88.5504430   7.7850100  25.8511450  89.1429070
   7.6208720  26.3193450  87.7126180   5.9394420  27.0827290 102.0301350
   6.2750660  27.6693980 102.7079270   5.0194760  26.9520000 102.2599140
   7.5928770  24.4852950  90.2118590   7.3050470  24.9465640  90.9996470
   8.3880940  24.0250720  90.4802810   1.7683000  27.1318620 105.1989410
   1.4479870  26.4127860 105.7435100   1.0941360  27.8073690 105.2725470
   4.9836600  17.3644780 100.5626210   5.3517420  16.5439990 100.8905780
   4.1234800  17.4246670 100.9781860   8.3498630  16.3201720  91.3713770
   7.7211790  16.4247390  90.6572000   7.8550550  16.5398500  92.1607650
   2.7956770  28.0407310  88.8047750   2.8968750  27.8371300  87.8749730
   1.8958510  27.7865590  89.0095530   1.9438590  20.0184370 100.7864180
   2.4423840  20.4930190 101.4516030   2.0861540  19.0947890 100.9934210
   4.3498090  15.3238330  94.2267440   4.2265870  15.3424460  93.2776950
   5.2982650  15.3717270  94.3465840   9.1505450  16.2352330 101.6292570
   8.6479050  16.9757730 101.9686380   9.9662110  16.6236330 101.3129360
   7.4427460  21.4785510  95.0753930   6.5017600  21.4935740  95.2501620
   7.7571530  20.6921470  95.5214230   9.4453040  28.6494360  96.7508190
   9.5700460  29.4725530  97.2232000  10.3118600  28.4385090  96.4032340
   4.7593480  26.0351510 105.5586310   4.1531640  26.0583110 104.8182060
   4.4547590  25.3034550 106.0953560   6.1893850  29.7631800 104.1695720
   7.1415600  29.6789820 104.1195960   6.0422070  30.4273510 104.8429510
   9.0803050  29.1426010  89.6687630   8.7944560  28.7291150  88.8541810
   8.8822600  30.0713720  89.5488150   3.7853010  24.1979320  88.7135230
   3.2363110  24.6448620  89.3577970   4.4072270  23.6928570  89.2372900
   7.8387950  25.5521420 104.6457490   8.5797420  25.8897180 104.1424950
   7.0760630  25.7213480 104.0927260   1.9655770  22.1807850  87.8577630
   2.4861430  21.4656870  87.4918780   2.6124170  22.8193720  88.1578140
   6.5133610  23.6036250 103.1812700   6.9274630  23.7581330 104.0303120
   5.5784610  23.7291470 103.3438480   6.9855780  20.9432410 105.1851850
   7.5676550  20.1884730 105.0972330   7.1617550  21.4739850 104.4083330
   3.6112740  21.2872910 102.5346470   3.7308950  20.6914050 103.2741310
   4.4706740  21.3242600 102.1147770   5.9500640  21.8410100 101.1108980
   5.4235860  22.3652720 100.5074120   6.2931980  22.4737490 101.7418710
   5.1974940  17.4460070 104.0255310   4.5090460  16.7841610 103.9605300
   5.9180960  16.9998340 104.4703770   5.8275340  14.0411700  90.0845570
   6.1077630  13.1979600  90.4404990   5.0541070  14.2734810  90.5984320
   1.9818470  31.0960950 102.5253010   1.9077170  31.9996090 102.8325380
   1.0797310  30.7772850 102.4975080   2.5303800  30.2619460  90.1479370
   3.4254590  30.6004430  90.1698130   2.5621430  29.5398870  89.5203650
   9.5098150  28.7923130 102.8545570   8.9100140  28.8515690 102.1109490
   9.6392050  27.8528110 102.9842420  10.7499600  26.5340950  88.1915280
   9.9192560  26.6017600  88.6622510  10.9271430  27.4245070  87.8882140
  10.2056060  23.2788430  90.6949480  10.9674970  23.8485080  90.8009170
  10.2210430  22.7115630  91.4657790  11.2116030  24.1338530  95.5391410
  11.5824860  23.3505850  95.1327380  11.8517960  24.8227630  95.3608710
   8.1949790  25.5175110 100.9521730   7.3809630  25.9472270 101.2147520
   8.6023990  26.1293520 100.3390780  10.2575230  23.5722800  87.8522000
  10.5324070  24.4801680  87.7241220  10.0685970  23.5085330  88.7883990
   6.6550840  16.5967650  89.1475630   7.0735720  16.4098630  88.3072290
   6.3486900  15.7446700  89.4578560  10.1540570  21.5091790  92.8451430
   9.7784170  20.7419720  92.4132720   9.4243690  21.8914490  93.3326360
   9.5440190  20.6563310 102.4790950   9.3126280  20.4276060 101.5788900
   9.8044740  21.5762860 102.4335840   7.9828260  15.8819740 105.2570650
   8.8598440  15.8903140 105.6404650   7.9949100  15.1450580 104.6463000
   9.4291530  19.7349280  96.1458670   9.9529010  19.2411930  95.5148840
  10.0150950  19.8699640  96.8906240   9.6081250  19.8189150  99.6678220
   8.6583960  19.7852690  99.7823210   9.7894260  20.7289260  99.4327990
   8.9191500  18.9922630  92.0851080   9.4150620  18.7593500  92.8699960
   8.7207570  18.1534470  91.6688720  10.3478660  17.6283580  94.6188760
  10.2377940  17.4739620  95.5571030  11.1086250  17.1004520  94.3764170
   8.6944380  13.5677710 101.0771760   9.3316600  14.1811850 101.4430950
   8.8419270  13.6038370 100.1320990  11.2368930  15.4591500  87.8594900
  12.1618240  15.3272680  87.6513190  11.2144720  15.5384320  88.8131350
  11.3107420  16.2302160  90.4851610  10.5158920  16.1647280  91.0144520
  11.5150700  17.1652800  90.4736960   8.2525840  30.2693710  94.4790000
   8.8484910  29.9478280  93.8024420   8.5103990  29.7965530  95.2703270
   2.0648860  14.7203900 103.9846860   2.0037750  15.3125730 104.7342270
   3.0049240  14.6129860 103.8397120   4.7023420  14.3773960 103.6239150
   5.3163830  14.6953250 102.9620230   5.2472980  13.8922550 104.2435010
  11.1198600  30.2765590 101.0300990  10.6256880  30.6734460 100.3128120
  10.5111890  29.6514800 101.4238270   5.4431460  12.9406100  99.9508440
   4.5691300  13.2741210  99.7481370   5.3342210  12.4679280 100.7760310
   6.3503440  15.1476970 101.3350160   6.0216800  14.3328730 100.9551890
   7.2985740  15.1046780 101.2115850   8.8038050  30.9189010  98.3087730
   8.3441020  31.6704820  97.9345750   8.1750510  30.1995480  98.2502530
   1.9729270  30.1185740  98.3104840   2.2607080  29.8640040  97.4337850
   2.4852490  29.5663100  98.9010410   3.1906280  13.8575940  98.8901350
   2.4078070  14.3321440  99.1698110   2.8969210  12.9530770  98.7814530
   7.7427350  14.5599040  96.9350440   8.1835440  14.5044140  96.0872040
   7.4734940  15.4757050  97.0060620   9.6065920  14.1914280  94.9459260
   9.5454320  13.2475500  94.7990280  10.3857950  14.2994370  95.4912720
   5.5785480  12.9405140  95.6400450   6.1814850  13.5125350  96.1148970
   4.8378470  13.5044580  95.4174350   8.7220080  13.3426700  90.9140730
   8.9170710  14.2410150  91.1808160   7.9349950  13.1113780  91.4073680
   2.0401630  31.0401840 105.6773040   2.9668940  30.8046110 105.7209000
   2.0252060  31.8673840 105.1959070  10.2746690  30.5827410  92.6747290
  10.4498880  29.8965150  92.0308210   9.5768260  31.1074460  92.2823960
   5.8280700  13.1200170 106.0195390   5.7146150  13.4394780 106.9146910
   6.6450440  13.5212680 105.7232670   8.6079190  30.2671700 105.5014080
   9.4004510  29.7720930 105.2940040   8.9012340  30.9461840 106.1089690
   4.7338850  21.1392640  76.3830130   4.6532900  20.2247250  76.1121840
   4.3203270  21.6359710  75.6769840   2.8656890  22.9171660  78.2639400
   2.0898990  22.4372100  78.5537970   3.5169820  22.2377310  78.0895560
   6.8864320  27.3231850  77.0438530   6.4245850  26.5519090  77.3725700
   7.6989870  27.3497920  77.5490980   3.1127630  29.6089860  76.6642520
   2.4939070  30.0647360  76.0936960   3.9679410  29.7641320  76.2632220
   2.3065880  25.5928850  78.2709560   2.2374160  24.6518790  78.1098690
   3.0685740  25.6830260  78.8432130   3.3371050  18.3999230  78.4978490
   3.7135870  17.5271110  78.3852160   3.2390560  18.7357930  77.6068930
   7.1195170  15.8949670  75.4306830   7.9404790  15.4046240  75.4732310
   7.1529250  16.4847330  76.1838670  11.4094720  17.9116420  81.9950460
  10.7046890  18.2998130  81.4765570  11.6752640  18.6066710  82.5971390
   3.9790980  24.4929100  74.0574430   3.3608250  24.9578550  73.4937150
   4.4914230  25.1856580  74.4743940   7.3556650  17.8350050  78.2034370
   6.6512220  18.1234940  78.7837480   7.7168810  18.6450160  77.8433930
   8.9719430  27.4525180  80.4661850   8.2882950  28.1224290  80.4578520
   9.5113720  27.6505830  79.7006710  10.4243570  17.2804840  78.5943580
   9.4768480  17.3143820  78.7259010  10.7493560  18.0943790  78.9792940
   6.5078170  29.2969310  79.1807030   6.5205330  28.8931600  78.3129290
   5.9553390  30.0716600  79.0768460   7.8023590  26.0185530  74.2697200
   7.6919920  25.0759860  74.3946620   7.7991840  26.3801170  75.1559960
   5.9063610  24.1999150  80.5089640   6.3232400  23.9859260  79.6743100
   6.6303430  24.4571940  81.0798260   3.3443870  21.6450850  73.6259690
   2.4173150  21.5788230  73.8548160   3.4968690  22.5830980  73.5114930
   3.3312950  17.9167850  70.6226850   2.3916620  18.0781810  70.7079310
   3.6496210  18.6353530  70.0762840   9.8525710  22.5986370  80.6005880
   9.0244340  22.6679460  80.1256010  10.4476190  23.1840680  80.1321710
   7.3741160  23.2071150  74.1294940   6.7553580  22.8690700  73.4821240
   7.3565610  22.5630910  74.8374130   6.8167720  19.3855690  81.5460750
   6.4038900  20.2109400  81.8000740   6.0843670  18.8000730  81.3537110
   7.5067820  29.4315020  82.2341730   7.0298380  30.2387210  82.0414340
   6.8229610  28.7793350  82.3867940   5.5505860  22.4457960  71.1367690
   5.9899140  21.6080390  70.9905510   6.2634280  23.0787360  71.2231830
   3.6601240  27.3854030  75.1048930   4.0997150  28.1278360  74.6904320
   3.5988130  27.6280600  76.0287890   9.1323000  13.7000770  69.4508730
   8.8195660  13.7927600  70.3507800   9.8935470  14.2781800  69.4006160
  11.0867030  29.1926960  87.3033120  11.5626750  29.6709850  87.9822200
  11.7074190  29.1244450  86.5778620  10.4900280  26.3839810  84.4633130
  10.6163340  26.1451690  83.5450310  10.5321660  25.5524350  84.9355210
   4.3517020  30.0867810  83.0327940   4.8661690  29.9975820  83.8350370
   3.5086100  30.4327510  83.3255850   6.3271420  30.3723150  72.4611940
   6.1672560  30.0826090  73.3593770   6.1618130  29.5963280  71.9257170
   6.0297550  27.8810710  71.0209940   5.3362710  27.8788000  70.3612220
   6.7720410  27.4570030  70.5904110   5.5947480  29.5073420  75.0958430
   6.0504430  28.7262800  75.4097050   5.9340000  30.2180240  75.6399610
  10.3424290  18.4372270  85.4282870   9.7268560  18.9451940  84.8998330
  10.0220710  17.5370600  85.3708810   2.4038610  17.2764160  82.8945060
   1.9417980  17.4847180  83.7065000   2.0016720  16.4623510  82.5915730
   7.4043120  18.4973110  84.0241720   6.5536710  18.1978860  84.3450790
   7.2444910  18.7415120  83.1125540   4.4992830  19.9974860  86.1240510
   4.8246240  19.1638610  85.7842740   5.2873160  20.5203380  86.2718840
   5.1380780  19.5392580  73.6181640   4.5389670  20.2628380  73.4345260
   5.6860390  19.4769360  72.8358090   3.7445650  18.1756120  75.6484920
   4.1375220  18.4928320  74.8353610   4.1062500  17.2968000  75.7629440
   2.0537820  16.9263430  86.9081780   1.3636140  16.7335630  87.5427870
   2.7970120  17.2098070  87.4406080   4.3300790  20.7661870  79.7435700
   3.5981910  21.2748680  80.0925800   3.9325130  19.9491850  79.4424480
   4.7926700  16.2195550  79.1558640   4.8099440  16.6704200  80.0000490
   4.5442280  15.3201190  79.3692080   8.2197450  13.6327730  84.9945020
   8.5443220  12.9017390  85.5203000   8.2553960  13.3141370  84.0926010
   8.1455290  23.7452840  78.6031050   8.8654410  24.2408130  78.2127160
   7.9437110  23.0670730  77.9584920   3.6065230  15.1390800  72.7460440
   2.7929840  14.6403970  72.6705750   3.4127180  15.9789050  72.3296790
   3.5274090  23.8161900  84.4900050   3.4611400  22.8957570  84.2357640
   2.8979230  23.9137340  85.2044690   6.3213620  19.5110450  71.0422600
   7.2093240  19.8227680  70.8673940   6.2918710  18.6382700  70.6503180
   2.3174210  25.6834140  71.7210770   2.6589910  26.4276370  71.2254090
   1.4886920  25.9965260  72.0835600   3.4590820  26.6382470  84.2403850
   3.4735360  25.7063430  84.0222760   2.7515920  26.7242230  84.8793620
   8.5927890  20.8222290  70.5102460   8.5091610  21.2536510  69.6598900
   9.3122080  21.2820640  70.9429280   9.6702030  23.2789810  83.5872430
   8.9450220  23.8718590  83.3901820  10.1977490  23.2713350  82.7885800
   9.6215140  27.6764550  73.2384590   8.9791300  27.0220170  73.5128310
   9.2345800  28.0819640  72.4625260   5.2001620  25.0049980  77.0856280
   5.5525440  24.4078110  76.4257650   4.3163950  24.6794210  77.2564530
   2.8924720  28.2800040  81.3344350   3.5366940  28.4859420  82.0117770
   3.2554160  27.5188440  80.8815200   4.1656800  26.2832390  80.0521800
   4.8079030  25.5825550  80.1653970   4.6906150  27.0630830  79.8718690
   8.0112520  26.5681010  69.7760940   7.7850100  25.8511450  70.3685580
   7.6208720  26.3193450  68.9382690   5.9394420  27.0827290  83.2557860
   6.2750660  27.6693980  83.9335780   5.0194760  26.9520000  83.4855650
   7.5928770  24.4852950  71.4375100   7.3050470  24.9465640  72.2252980
   8.3880940  24.0250720  71.7059320   1.7683000  27.1318620  86.4245920
   1.4479870  26.4127860  86.9691610   1.0941360  27.8073690  86.4981980
   4.9836600  17.3644780  81.7882720   5.3517420  16.5439990  82.1162290
   4.1234800  17.4246670  82.2038370   8.3498630  16.3201720  72.5970280
   7.7211790  16.4247390  71.8828510   7.8550550  16.5398500  73.3864160
   2.7956770  28.0407310  70.0304260   2.8968750  27.8371300  69.1006240
   1.8958510  27.7865590  70.2352040   1.9438590  20.0184370  82.0120690
   2.4423840  20.4930190  82.6772540   2.0861540  19.0947890  82.2190720
   4.3498090  15.3238330  75.4523950   4.2265870  15.3424460  74.5033460
   5.2982650  15.3717270  75.5722350   9.1505450  16.2352330  82.8549080
   8.6479050  16.9757730  83.1942890   9.9662110  16.6236330  82.5385870
   7.4427460  21.4785510  76.3010440   6.5017600  21.4935740  76.4758130
   7.7571530  20.6921470  76.7470740   9.4453040  28.6494360  77.9764700
   9.5700460  29.4725530  78.4488510  10.3118600  28.4385090  77.6288850
   4.7593480  26.0351510  86.7842820   4.1531640  26.0583110  86.0438570
   4.4547590  25.3034550  87.3210070   6.1893850  29.7631800  85.3952230
   7.1415600  29.6789820  85.3452470   6.0422070  30.4273510  86.0686020
   9.0803050  29.1426010  70.8944140   8.7944560  28.7291150  70.0798320
   8.8822600  30.0713720  70.7744660   3.7853010  24.1979320  69.9391740
   3.2363110  24.6448620  70.5834480   4.4072270  23.6928570  70.4629410
   7.8387950  25.5521420  85.8714000   8.5797420  25.8897180  85.3681460
   7.0760630  25.7213480  85.3183770   1.9655770  22.1807850  69.0834140
   2.4861430  21.4656870  68.7175290   2.6124170  22.8193720  69.3834650
   6.5133610  23.6036250  84.4069210   6.9274630  23.7581330  85.2559630
   5.5784610  23.7291470  84.5694990   6.9855780  20.9432410  86.4108360
   7.5676550  20.1884730  86.3228840   7.1617550  21.4739850  85.6339840
   3.6112740  21.2872910  83.7602980   3.7308950  20.6914050  84.4997820
   4.4706740  21.3242600  83.3404280   5.9500640  21.8410100  82.3365490
   5.4235860  22.3652720  81.7330630   6.2931980  22.4737490  82.9675220
   5.1974940  17.4460070  85.2511820   4.5090460  16.7841610  85.1861810
   5.9180960  16.9998340  85.6960280   5.8275340  14.0411700  71.3102080
   6.1077630  13.1979600  71.6661500   5.0541070  14.2734810  71.8240830
   1.9818470  31.0960950  83.7509520   1.9077170  31.9996090  84.0581890
   1.0797310  30.7772850  83.7231590   2.5303800  30.2619460  71.3735880
   3.4254590  30.6004430  71.3954640   2.5621430  29.5398870  70.7460160
   9.5098150  28.7923130  84.0802080   8.9100140  28.8515690  83.3366000
   9.6392050  27.8528110  84.2098930  10.7499600  26.5340950  69.4171790
   9.9192560  26.6017600  69.8879020  10.9271430  27.4245070  69.1138650
  10.2056060  23.2788430  71.9205990  10.9674970  23.8485080  72.0265680
  10.2210430  22.7115630  72.6914300  11.2116030  24.1338530  76.7647920
  11.5824860  23.3505850  76.3583890  11.8517960  24.8227630  76.5865220
   8.1949790  25.5175110  82.1778240   7.3809630  25.9472270  82.4404030
   8.6023990  26.1293520  81.5647290  10.2575230  23.5722800  69.0778510
  10.5324070  24.4801680  68.9497730  10.0685970  23.5085330  70.0140500
   6.6550840  16.5967650  70.3732140   7.0735720  16.4098630  69.5328800
   6.3486900  15.7446700  70.6835070  10.1540570  21.5091790  74.0707940
   9.7784170  20.7419720  73.6389230   9.4243690  21.8914490  74.5582870
   9.5440190  20.6563310  83.7047460   9.3126280  20.4276060  82.8045410
   9.8044740  21.5762860  83.6592350   7.9828260  15.8819740  86.4827160
   8.8598440  15.8903140  86.8661160   7.9949100  15.1450580  85.8719510
   9.4291530  19.7349280  77.3715180   9.9529010  19.2411930  76.7405350
  10.0150950  19.8699640  78.1162750   9.6081250  19.8189150  80.8934730
   8.6583960  19.7852690  81.0079720   9.7894260  20.7289260  80.6584500
   8.9191500  18.9922630  73.3107590   9.4150620  18.7593500  74.0956470
   8.7207570  18.1534470  72.8945230  10.3478660  17.6283580  75.8445270
  10.2377940  17.4739620  76.7827540  11.1086250  17.1004520  75.6020680
   8.6944380  13.5677710  82.3028270   9.3316600  14.1811850  82.6687460
   8.8419270  13.6038370  81.3577500  11.2368930  15.4591500  69.0851410
  12.1618240  15.3272680  68.8769700  11.2144720  15.5384320  70.0387860
  11.3107420  16.2302160  71.7108120  10.5158920  16.1647280  72.2401030
  11.5150700  17.1652800  71.6993470   8.2525840  30.2693710  75.7046510
   8.8484910  29.9478280  75.0280930   8.5103990  29.7965530  76.4959780
   2.0648860  14.7203900  85.2103370   2.0037750  15.3125730  85.9598780
   3.0049240  14.6129860  85.0653630   4.7023420  14.3773960  84.8495660
   5.3163830  14.6953250  84.1876740   5.2472980  13.8922550  85.4691520
  11.1198600  30.2765590  82.2557500  10.6256880  30.6734460  81.5384630
  10.5111890  29.6514800  82.6494780   5.4431460  12.9406100  81.1764950
   4.5691300  13.2741210  80.9737880   5.3342210  12.4679280  82.0016820
   6.3503440  15.1476970  82.5606670   6.0216800  14.3328730  82.1808400
   7.2985740  15.1046780  82.4372360   8.8038050  30.9189010  79.5344240
   8.3441020  31.6704820  79.1602260   8.1750510  30.1995480  79.4759040
   1.9729270  30.1185740  79.5361350   2.2607080  29.8640040  78.6594360
   2.4852490  29.5663100  80.1266920   3.1906280  13.8575940  80.1157860
   2.4078070  14.3321440  80.3954620   2.8969210  12.9530770  80.0071040
   7.7427350  14.5599040  78.1606950   8.1835440  14.5044140  77.3128550
   7.4734940  15.4757050  78.2317130   9.6065920  14.1914280  76.1715770
   9.5454320  13.2475500  76.0246790  10.3857950  14.2994370  76.7169230
   5.5785480  12.9405140  76.8656960   6.1814850  13.5125350  77.3405480
   4.8378470  13.5044580  76.6430860   8.7220080  13.3426700  72.1397240
   8.9170710  14.2410150  72.4064670   7.9349950  13.1113780  72.6330190
   2.0401630  31.0401840  86.9029550   2.9668940  30.8046110  86.9465510
   2.0252060  31.8673840  86.4215580  10.2746690  30.5827410  73.9003800
  10.4498880  29.8965150  73.2564720   9.5768260  31.1074460  73.5080470
   5.8280700  13.1200170  87.2451900   5.7146150  13.4394780  88.1403420
   6.6450440  13.5212680  86.9489180   8.6079190  30.2671700  86.7270590
   9.4004510  29.7720930  86.5196550   8.9012340  30.9461840  87.3346200
   4.7338850  21.1392640  57.6086640   4.6532900  20.2247250  57.3378350
   4.3203270  21.6359710  56.9026350   2.8656890  22.9171660  59.4895910
   2.0898990  22.4372100  59.7794480   3.5169820  22.2377310  59.3152070
   6.8864320  27.3231850  58.2695040   6.4245850  26.5519090  58.5982210
   7.6989870  27.3497920  58.7747490   3.1127630  29.6089860  57.8899030
   2.4939070  30.0647360  57.3193470   3.9679410  29.7641320  57.4888730
   2.3065880  25.5928850  59.4966070   2.2374160  24.6518790  59.3355200
   3.0685740  25.6830260  60.0688640   3.3371050  18.3999230  59.7235000
   3.7135870  17.5271110  59.6108670   3.2390560  18.7357930  58.8325440
   7.1195170  15.8949670  56.6563340   7.9404790  15.4046240  56.6988820
   7.1529250  16.4847330  57.4095180  11.4094720  17.9116420  63.2206970
  10.7046890  18.2998130  62.7022080  11.6752640  18.6066710  63.8227900
   3.9790980  24.4929100  55.2830940   3.3608250  24.9578550  54.7193660
   4.4914230  25.1856580  55.7000450   7.3556650  17.8350050  59.4290880
   6.6512220  18.1234940  60.0093990   7.7168810  18.6450160  59.0690440
   8.9719430  27.4525180  61.6918360   8.2882950  28.1224290  61.6835030
   9.5113720  27.6505830  60.9263220  10.4243570  17.2804840  59.8200090
   9.4768480  17.3143820  59.9515520  10.7493560  18.0943790  60.2049450
   6.5078170  29.2969310  60.4063540   6.5205330  28.8931600  59.5385800
   5.9553390  30.0716600  60.3024970   7.8023590  26.0185530  55.4953710
   7.6919920  25.0759860  55.6203130   7.7991840  26.3801170  56.3816470
   5.9063610  24.1999150  61.7346150   6.3232400  23.9859260  60.8999610
   6.6303430  24.4571940  62.3054770   3.3443870  21.6450850  54.8516200
   2.4173150  21.5788230  55.0804670   3.4968690  22.5830980  54.7371440
   3.3312950  17.9167850  51.8483360   2.3916620  18.0781810  51.9335820
   3.6496210  18.6353530  51.3019350   9.8525710  22.5986370  61.8262390
   9.0244340  22.6679460  61.3512520  10.4476190  23.1840680  61.3578220
   7.3741160  23.2071150  55.3551450   6.7553580  22.8690700  54.7077750
   7.3565610  22.5630910  56.0630640   6.8167720  19.3855690  62.7717260
   6.4038900  20.2109400  63.0257250   6.0843670  18.8000730  62.5793620
   7.5067820  29.4315020  63.4598240   7.0298380  30.2387210  63.2670850
   6.8229610  28.7793350  63.6124450   5.5505860  22.4457960  52.3624200
   5.9899140  21.6080390  52.2162020   6.2634280  23.0787360  52.4488340
   3.6601240  27.3854030  56.3305440   4.0997150  28.1278360  55.9160830
   3.5988130  27.6280600  57.2544400   9.1323000  13.7000770  50.6765240
   8.8195660  13.7927600  51.5764310   9.8935470  14.2781800  50.6262670
  11.0867030  29.1926960  68.5289630  11.5626750  29.6709850  69.2078710
  11.7074190  29.1244450  67.8035130  10.4900280  26.3839810  65.6889640
  10.6163340  26.1451690  64.7706820  10.5321660  25.5524350  66.1611720
   4.3517020  30.0867810  64.2584450   4.8661690  29.9975820  65.0606880
   3.5086100  30.4327510  64.5512360   6.3271420  30.3723150  53.6868450
   6.1672560  30.0826090  54.5850280   6.1618130  29.5963280  53.1513680
   6.0297550  27.8810710  52.2466450   5.3362710  27.8788000  51.5868730
   6.7720410  27.4570030  51.8160620   5.5947480  29.5073420  56.3214940
   6.0504430  28.7262800  56.6353560   5.9340000  30.2180240  56.8656120
  10.3424290  18.4372270  66.6539380   9.7268560  18.9451940  66.1254840
  10.0220710  17.5370600  66.5965320   2.4038610  17.2764160  64.1201570
   1.9417980  17.4847180  64.9321510   2.0016720  16.4623510  63.8172240
   7.4043120  18.4973110  65.2498230   6.5536710  18.1978860  65.5707300
   7.2444910  18.7415120  64.3382050   4.4992830  19.9974860  67.3497020
   4.8246240  19.1638610  67.0099250   5.2873160  20.5203380  67.4975350
   5.1380780  19.5392580  54.8438150   4.5389670  20.2628380  54.6601770
   5.6860390  19.4769360  54.0614600   3.7445650  18.1756120  56.8741430
   4.1375220  18.4928320  56.0610120   4.1062500  17.2968000  56.9885950
   2.0537820  16.9263430  68.1338290   1.3636140  16.7335630  68.7684380
   2.7970120  17.2098070  68.6662590   4.3300790  20.7661870  60.9692210
   3.5981910  21.2748680  61.3182310   3.9325130  19.9491850  60.6680990
   4.7926700  16.2195550  60.3815150   4.8099440  16.6704200  61.2257000
   4.5442280  15.3201190  60.5948590   8.2197450  13.6327730  66.2201530
   8.5443220  12.9017390  66.7459510   8.2553960  13.3141370  65.3182520
   8.1455290  23.7452840  59.8287560   8.8654410  24.2408130  59.4383670
   7.9437110  23.0670730  59.1841430   3.6065230  15.1390800  53.9716950
   2.7929840  14.6403970  53.8962260   3.4127180  15.9789050  53.5553300
   3.5274090  23.8161900  65.7156560   3.4611400  22.8957570  65.4614150
   2.8979230  23.9137340  66.4301200   6.3213620  19.5110450  52.2679110
   7.2093240  19.8227680  52.0930450   6.2918710  18.6382700  51.8759690
   2.3174210  25.6834140  52.9467280   2.6589910  26.4276370  52.4510600
   1.4886920  25.9965260  53.3092110   3.4590820  26.6382470  65.4660360
   3.4735360  25.7063430  65.2479270   2.7515920  26.7242230  66.1050130
   8.5927890  20.8222290  51.7358970   8.5091610  21.2536510  50.8855410
   9.3122080  21.2820640  52.1685790   9.6702030  23.2789810  64.8128940
   8.9450220  23.8718590  64.6158330  10.1977490  23.2713350  64.0142310
   9.6215140  27.6764550  54.4641100   8.9791300  27.0220170  54.7384820
   9.2345800  28.0819640  53.6881770   5.2001620  25.0049980  58.3112790
   5.5525440  24.4078110  57.6514160   4.3163950  24.6794210  58.4821040
   2.8924720  28.2800040  62.5600860   3.5366940  28.4859420  63.2374280
   3.2554160  27.5188440  62.1071710   4.1656800  26.2832390  61.2778310
   4.8079030  25.5825550  61.3910480   4.6906150  27.0630830  61.0975200
   8.0112520  26.5681010  51.0017450   7.7850100  25.8511450  51.5942090
   7.6208720  26.3193450  50.1639200   5.9394420  27.0827290  64.4814370
   6.2750660  27.6693980  65.1592290   5.0194760  26.9520000  64.7112160
   7.5928770  24.4852950  52.6631610   7.3050470  24.9465640  53.4509490
   8.3880940  24.0250720  52.9315830   1.7683000  27.1318620  67.6502430
   1.4479870  26.4127860  68.1948120   1.0941360  27.8073690  67.7238490
   4.9836600  17.3644780  63.0139230   5.3517420  16.5439990  63.3418800
   4.1234800  17.4246670  63.4294880   8.3498630  16.3201720  53.8226790
   7.7211790  16.4247390  53.1085020   7.8550550  16.5398500  54.6120670
   2.7956770  28.0407310  51.2560770   2.8968750  27.8371300  50.3262750
   1.8958510  27.7865590  51.4608550   1.9438590  20.0184370  63.2377200
   2.4423840  20.4930190  63.9029050   2.0861540  19.0947890  63.4447230
   4.3498090  15.3238330  56.6780460   4.2265870  15.3424460  55.7289970
   5.2982650  15.3717270  56.7978860   9.1505450  16.2352330  64.0805590
   8.6479050  16.9757730  64.4199400   9.9662110  16.6236330  63.7642380
   7.4427460  21.4785510  57.5266950   6.5017600  21.4935740  57.7014640
   7.7571530  20.6921470  57.9727250   9.4453040  28.6494360  59.2021210
   9.5700460  29.4725530  59.6745020  10.3118600  28.4385090  58.8545360
   4.7593480  26.0351510  68.0099330   4.1531640  26.0583110  67.2695080
   4.4547590  25.3034550  68.5466580   6.1893850  29.7631800  66.6208740
   7.1415600  29.6789820  66.5708980   6.0422070  30.4273510  67.2942530
   9.0803050  29.1426010  52.1200650   8.7944560  28.7291150  51.3054830
   8.8822600  30.0713720  52.0001170   3.7853010  24.1979320  51.1648250
   3.2363110  24.6448620  51.8090990   4.4072270  23.6928570  51.6885920
   7.8387950  25.5521420  67.0970510   8.5797420  25.8897180  66.5937970
   7.0760630  25.7213480  66.5440280   1.9655770  22.1807850  50.3090650
   2.4861430  21.4656870  49.9431800   2.6124170  22.8193720  50.6091160
   6.5133610  23.6036250  65.6325720   6.9274630  23.7581330  66.4816140
   5.5784610  23.7291470  65.7951500   6.9855780  20.9432410  67.6364870
   7.5676550  20.1884730  67.5485350   7.1617550  21.4739850  66.8596350
   3.6112740  21.2872910  64.9859490   3.7308950  20.6914050  65.7254330
   4.4706740  21.3242600  64.5660790   5.9500640  21.8410100  63.5622000
   5.4235860  22.3652720  62.9587140   6.2931980  22.4737490  64.1931730
   5.1974940  17.4460070  66.4768330   4.5090460  16.7841610  66.4118320
   5.9180960  16.9998340  66.9216790   5.8275340  14.0411700  52.5358590
   6.1077630  13.1979600  52.8918010   5.0541070  14.2734810  53.0497340
   1.9818470  31.0960950  64.9766030   1.9077170  31.9996090  65.2838400
   1.0797310  30.7772850  64.9488100   2.5303800  30.2619460  52.5992390
   3.4254590  30.6004430  52.6211150   2.5621430  29.5398870  51.9716670
   9.5098150  28.7923130  65.3058590   8.9100140  28.8515690  64.5622510
   9.6392050  27.8528110  65.4355440  10.7499600  26.5340950  50.6428300
   9.9192560  26.6017600  51.1135530  10.9271430  27.4245070  50.3395160
  10.2056060  23.2788430  53.1462500  10.9674970  23.8485080  53.2522190
  10.2210430  22.7115630  53.9170810  11.2116030  24.1338530  57.9904430
  11.5824860  23.3505850  57.5840400  11.8517960  24.8227630  57.8121730
   8.1949790  25.5175110  63.4034750   7.3809630  25.9472270  63.6660540
   8.6023990  26.1293520  62.7903800  10.2575230  23.5722800  50.3035020
  10.5324070  24.4801680  50.1754240  10.0685970  23.5085330  51.2397010
   6.6550840  16.5967650  51.5988650   7.0735720  16.4098630  50.7585310
   6.3486900  15.7446700  51.9091580  10.1540570  21.5091790  55.2964450
   9.7784170  20.7419720  54.8645740   9.4243690  21.8914490  55.7839380
   9.5440190  20.6563310  64.9303970   9.3126280  20.4276060  64.0301920
   9.8044740  21.5762860  64.8848860   7.9828260  15.8819740  67.7083670
   8.8598440  15.8903140  68.0917670   7.9949100  15.1450580  67.0976020
   9.4291530  19.7349280  58.5971690   9.9529010  19.2411930  57.9661860
  10.0150950  19.8699640  59.3419260   9.6081250  19.8189150  62.1191240
   8.6583960  19.7852690  62.2336230   9.7894260  20.7289260  61.8841010
   8.9191500  18.9922630  54.5364100   9.4150620  18.7593500  55.3212980
   8.7207570  18.1534470  54.1201740  10.3478660  17.6283580  57.0701780
  10.2377940  17.4739620  58.0084050  11.1086250  17.1004520  56.8277190
   8.6944380  13.5677710  63.5284780   9.3316600  14.1811850  63.8943970
   8.8419270  13.6038370  62.5834010  11.2368930  15.4591500  50.3107920
  12.1618240  15.3272680  50.1026210  11.2144720  15.5384320  51.2644370
  11.3107420  16.2302160  52.9364630  10.5158920  16.1647280  53.4657540
  11.5150700  17.1652800  52.9249980   8.2525840  30.2693710  56.9303020
   8.8484910  29.9478280  56.2537440   8.5103990  29.7965530  57.7216290
   2.0648860  14.7203900  66.4359880   2.0037750  15.3125730  67.1855290
   3.0049240  14.6129860  66.2910140   4.7023420  14.3773960  66.0752170
   5.3163830  14.6953250  65.4133250   5.2472980  13.8922550  66.6948030
  11.1198600  30.2765590  63.4814010  10.6256880  30.6734460  62.7641140
  10.5111890  29.6514800  63.8751290   5.4431460  12.9406100  62.4021460
   4.5691300  13.2741210  62.1994390   5.3342210  12.4679280  63.2273330
   6.3503440  15.1476970  63.7863180   6.0216800  14.3328730  63.4064910
   7.2985740  15.1046780  63.6628870   8.8038050  30.9189010  60.7600750
   8.3441020  31.6704820  60.3858770   8.1750510  30.1995480  60.7015550
   1.9729270  30.1185740  60.7617860   2.2607080  29.8640040  59.8850870
   2.4852490  29.5663100  61.3523430   3.1906280  13.8575940  61.3414370
   2.4078070  14.3321440  61.6211130   2.8969210  12.9530770  61.2327550
   7.7427350  14.5599040  59.3863460   8.1835440  14.5044140  58.5385060
   7.4734940  15.4757050  59.4573640   9.6065920  14.1914280  57.3972280
   9.5454320  13.2475500  57.2503300  10.3857950  14.2994370  57.9425740
   5.5785480  12.9405140  58.0913470   6.1814850  13.5125350  58.5661990
   4.8378470  13.5044580  57.8687370   8.7220080  13.3426700  53.3653750
   8.9170710  14.2410150  53.6321180   7.9349950  13.1113780  53.8586700
   2.0401630  31.0401840  68.1286060   2.9668940  30.8046110  68.1722020
   2.0252060  31.8673840  67.6472090  10.2746690  30.5827410  55.1260310
  10.4498880  29.8965150  54.4821230   9.5768260  31.1074460  54.7336980
   5.8280700  13.1200170  68.4708410   5.7146150  13.4394780  69.3659930
   6.6450440  13.5212680  68.1745690   8.6079190  30.2671700  67.9527100
   9.4004510  29.7720930  67.7453060   8.9012340  30.9461840  68.5602710
   4.7338850  21.1392640  38.8343150   4.6532900  20.2247250  38.5634860
   4.3203270  21.6359710  38.1282860   2.8656890  22.9171660  40.7152420
   2.0898990  22.4372100  41.0050990   3.5169820  22.2377310  40.5408580
   6.8864320  27.3231850  39.4951550   6.4245850  26.5519090  39.8238720
   7.6989870  27.3497920  40.0004000   3.1127630  29.6089860  39.1155540
   2.4939070  30.0647360  38.5449980   3.9679410  29.7641320  38.7145240
   2.3065880  25.5928850  40.7222580   2.2374160  24.6518790  40.5611710
   3.0685740  25.6830260  41.2945150   3.3371050  18.3999230  40.9491510
   3.7135870  17.5271110  40.8365180   3.2390560  18.7357930  40.0581950
   7.1195170  15.8949670  37.8819850   7.9404790  15.4046240  37.9245330
   7.1529250  16.4847330  38.6351690  11.4094720  17.9116420  44.4463480
  10.7046890  18.2998130  43.9278590  11.6752640  18.6066710  45.0484410
   3.9790980  24.4929100  36.5087450   3.3608250  24.9578550  35.9450170
   4.4914230  25.1856580  36.9256960   7.3556650  17.8350050  40.6547390
   6.6512220  18.1234940  41.2350500   7.7168810  18.6450160  40.2946950
   8.9719430  27.4525180  42.9174870   8.2882950  28.1224290  42.9091540
   9.5113720  27.6505830  42.1519730  10.4243570  17.2804840  41.0456600
   9.4768480  17.3143820  41.1772030  10.7493560  18.0943790  41.4305960
   6.5078170  29.2969310  41.6320050   6.5205330  28.8931600  40.7642310
   5.9553390  30.0716600  41.5281480   7.8023590  26.0185530  36.7210220
   7.6919920  25.0759860  36.8459640   7.7991840  26.3801170  37.6072980
   5.9063610  24.1999150  42.9602660   6.3232400  23.9859260  42.1256120
   6.6303430  24.4571940  43.5311280   3.3443870  21.6450850  36.0772710
   2.4173150  21.5788230  36.3061180   3.4968690  22.5830980  35.9627950
   3.3312950  17.9167850  33.0739870   2.3916620  18.0781810  33.1592330
   3.6496210  18.6353530  32.5275860   9.8525710  22.5986370  43.0518900
   9.0244340  22.6679460  42.5769030  10.4476190  23.1840680  42.5834730
   7.3741160  23.2071150  36.5807960   6.7553580  22.8690700  35.9334260
   7.3565610  22.5630910  37.2887150   6.8167720  19.3855690  43.9973770
   6.4038900  20.2109400  44.2513760   6.0843670  18.8000730  43.8050130
   7.5067820  29.4315020  44.6854750   7.0298380  30.2387210  44.4927360
   6.8229610  28.7793350  44.8380960   5.5505860  22.4457960  33.5880710
   5.9899140  21.6080390  33.4418530   6.2634280  23.0787360  33.6744850
   3.6601240  27.3854030  37.5561950   4.0997150  28.1278360  37.1417340
   3.5988130  27.6280600  38.4800910   9.1323000  13.7000770  31.9021750
   8.8195660  13.7927600  32.8020820   9.8935470  14.2781800  31.8519180
  11.0867030  29.1926960  49.7546140  11.5626750  29.6709850  50.4335220
  11.7074190  29.1244450  49.0291640  10.4900280  26.3839810  46.9146150
  10.6163340  26.1451690  45.9963330  10.5321660  25.5524350  47.3868230
   4.3517020  30.0867810  45.4840960   4.8661690  29.9975820  46.2863390
   3.5086100  30.4327510  45.7768870   6.3271420  30.3723150  34.9124960
   6.1672560  30.0826090  35.8106790   6.1618130  29.5963280  34.3770190
   6.0297550  27.8810710  33.4722960   5.3362710  27.8788000  32.8125240
   6.7720410  27.4570030  33.0417130   5.5947480  29.5073420  37.5471450
   6.0504430  28.7262800  37.8610070   5.9340000  30.2180240  38.0912630
  10.3424290  18.4372270  47.8795890   9.7268560  18.9451940  47.3511350
  10.0220710  17.5370600  47.8221830   2.4038610  17.2764160  45.3458080
   1.9417980  17.4847180  46.1578020   2.0016720  16.4623510  45.0428750
   7.4043120  18.4973110  46.4754740   6.5536710  18.1978860  46.7963810
   7.2444910  18.7415120  45.5638560   4.4992830  19.9974860  48.5753530
   4.8246240  19.1638610  48.2355760   5.2873160  20.5203380  48.7231860
   5.1380780  19.5392580  36.0694660   4.5389670  20.2628380  35.8858280
   5.6860390  19.4769360  35.2871110   3.7445650  18.1756120  38.0997940
   4.1375220  18.4928320  37.2866630   4.1062500  17.2968000  38.2142460
   2.0537820  16.9263430  49.3594800   1.3636140  16.7335630  49.9940890
   2.7970120  17.2098070  49.8919100   4.3300790  20.7661870  42.1948720
   3.5981910  21.2748680  42.5438820   3.9325130  19.9491850  41.8937500
   4.7926700  16.2195550  41.6071660   4.8099440  16.6704200  42.4513510
   4.5442280  15.3201190  41.8205100   8.2197450  13.6327730  47.4458040
   8.5443220  12.9017390  47.9716020   8.2553960  13.3141370  46.5439030
   8.1455290  23.7452840  41.0544070   8.8654410  24.2408130  40.6640180
   7.9437110  23.0670730  40.4097940   3.6065230  15.1390800  35.1973460
   2.7929840  14.6403970  35.1218770   3.4127180  15.9789050  34.7809810
   3.5274090  23.8161900  46.9413070   3.4611400  22.8957570  46.6870660
   2.8979230  23.9137340  47.6557710   6.3213620  19.5110450  33.4935620
   7.2093240  19.8227680  33.3186960   6.2918710  18.6382700  33.1016200
   2.3174210  25.6834140  34.1723790   2.6589910  26.4276370  33.6767110
   1.4886920  25.9965260  34.5348620   3.4590820  26.6382470  46.6916870
   3.4735360  25.7063430  46.4735780   2.7515920  26.7242230  47.3306640
   8.5927890  20.8222290  32.9615480   8.5091610  21.2536510  32.1111920
   9.3122080  21.2820640  33.3942300   9.6702030  23.2789810  46.0385450
   8.9450220  23.8718590  45.8414840  10.1977490  23.2713350  45.2398820
   9.6215140  27.6764550  35.6897610   8.9791300  27.0220170  35.9641330
   9.2345800  28.0819640  34.9138280   5.2001620  25.0049980  39.5369300
   5.5525440  24.4078110  38.8770670   4.3163950  24.6794210  39.7077550
   2.8924720  28.2800040  43.7857370   3.5366940  28.4859420  44.4630790
   3.2554160  27.5188440  43.3328220   4.1656800  26.2832390  42.5034820
   4.8079030  25.5825550  42.6166990   4.6906150  27.0630830  42.3231710
   8.0112520  26.5681010  32.2273960   7.7850100  25.8511450  32.8198600
   7.6208720  26.3193450  31.3895710   5.9394420  27.0827290  45.7070880
   6.2750660  27.6693980  46.3848800   5.0194760  26.9520000  45.9368670
   7.5928770  24.4852950  33.8888120   7.3050470  24.9465640  34.6766000
   8.3880940  24.0250720  34.1572340   1.7683000  27.1318620  48.8758940
   1.4479870  26.4127860  49.4204630   1.0941360  27.8073690  48.9495000
   4.9836600  17.3644780  44.2395740   5.3517420  16.5439990  44.5675310
   4.1234800  17.4246670  44.6551390   8.3498630  16.3201720  35.0483300
   7.7211790  16.4247390  34.3341530   7.8550550  16.5398500  35.8377180
   2.7956770  28.0407310  32.4817280   2.8968750  27.8371300  31.5519260
   1.8958510  27.7865590  32.6865060   1.9438590  20.0184370  44.4633710
   2.4423840  20.4930190  45.1285560   2.0861540  19.0947890  44.6703740
   4.3498090  15.3238330  37.9036970   4.2265870  15.3424460  36.9546480
   5.2982650  15.3717270  38.0235370   9.1505450  16.2352330  45.3062100
   8.6479050  16.9757730  45.6455910   9.9662110  16.6236330  44.9898890
   7.4427460  21.4785510  38.7523460   6.5017600  21.4935740  38.9271150
   7.7571530  20.6921470  39.1983760   9.4453040  28.6494360  40.4277720
   9.5700460  29.4725530  40.9001530  10.3118600  28.4385090  40.0801870
   4.7593480  26.0351510  49.2355840   4.1531640  26.0583110  48.4951590
   4.4547590  25.3034550  49.7723090   6.1893850  29.7631800  47.8465250
   7.1415600  29.6789820  47.7965490   6.0422070  30.4273510  48.5199040
   9.0803050  29.1426010  33.3457160   8.7944560  28.7291150  32.5311340
   8.8822600  30.0713720  33.2257680   3.7853010  24.1979320  32.3904760
   3.2363110  24.6448620  33.0347500   4.4072270  23.6928570  32.9142430
   7.8387950  25.5521420  48.3227020   8.5797420  25.8897180  47.8194480
   7.0760630  25.7213480  47.7696790   1.9655770  22.1807850  31.5347160
   2.4861430  21.4656870  31.1688310   2.6124170  22.8193720  31.8347670
   6.5133610  23.6036250  46.8582230   6.9274630  23.7581330  47.7072650
   5.5784610  23.7291470  47.0208010   6.9855780  20.9432410  48.8621380
   7.5676550  20.1884730  48.7741860   7.1617550  21.4739850  48.0852860
   3.6112740  21.2872910  46.2116000   3.7308950  20.6914050  46.9510840
   4.4706740  21.3242600  45.7917300   5.9500640  21.8410100  44.7878510
   5.4235860  22.3652720  44.1843650   6.2931980  22.4737490  45.4188240
   5.1974940  17.4460070  47.7024840   4.5090460  16.7841610  47.6374830
   5.9180960  16.9998340  48.1473300   5.8275340  14.0411700  33.7615100
   6.1077630  13.1979600  34.1174520   5.0541070  14.2734810  34.2753850
   1.9818470  31.0960950  46.2022540   1.9077170  31.9996090  46.5094910
   1.0797310  30.7772850  46.1744610   2.5303800  30.2619460  33.8248900
   3.4254590  30.6004430  33.8467660   2.5621430  29.5398870  33.1973180
   9.5098150  28.7923130  46.5315100   8.9100140  28.8515690  45.7879020
   9.6392050  27.8528110  46.6611950  10.7499600  26.5340950  31.8684810
   9.9192560  26.6017600  32.3392040  10.9271430  27.4245070  31.5651670
  10.2056060  23.2788430  34.3719010  10.9674970  23.8485080  34.4778700
  10.2210430  22.7115630  35.1427320  11.2116030  24.1338530  39.2160940
  11.5824860  23.3505850  38.8096910  11.8517960  24.8227630  39.0378240
   8.1949790  25.5175110  44.6291260   7.3809630  25.9472270  44.8917050
   8.6023990  26.1293520  44.0160310  10.2575230  23.5722800  31.5291530
  10.5324070  24.4801680  31.4010750  10.0685970  23.5085330  32.4653520
   6.6550840  16.5967650  32.8245160   7.0735720  16.4098630  31.9841820
   6.3486900  15.7446700  33.1348090  10.1540570  21.5091790  36.5220960
   9.7784170  20.7419720  36.0902250   9.4243690  21.8914490  37.0095890
   9.5440190  20.6563310  46.1560480   9.3126280  20.4276060  45.2558430
   9.8044740  21.5762860  46.1105370   7.9828260  15.8819740  48.9340180
   8.8598440  15.8903140  49.3174180   7.9949100  15.1450580  48.3232530
   9.4291530  19.7349280  39.8228200   9.9529010  19.2411930  39.1918370
  10.0150950  19.8699640  40.5675770   9.6081250  19.8189150  43.3447750
   8.6583960  19.7852690  43.4592740   9.7894260  20.7289260  43.1097520
   8.9191500  18.9922630  35.7620610   9.4150620  18.7593500  36.5469490
   8.7207570  18.1534470  35.3458250  10.3478660  17.6283580  38.2958290
  10.2377940  17.4739620  39.2340560  11.1086250  17.1004520  38.0533700
   8.6944380  13.5677710  44.7541290   9.3316600  14.1811850  45.1200480
   8.8419270  13.6038370  43.8090520  11.2368930  15.4591500  31.5364430
  12.1618240  15.3272680  31.3282720  11.2144720  15.5384320  32.4900880
  11.3107420  16.2302160  34.1621140  10.5158920  16.1647280  34.6914050
  11.5150700  17.1652800  34.1506490   8.2525840  30.2693710  38.1559530
   8.8484910  29.9478280  37.4793950   8.5103990  29.7965530  38.9472800
   2.0648860  14.7203900  47.6616390   2.0037750  15.3125730  48.4111800
   3.0049240  14.6129860  47.5166650   4.7023420  14.3773960  47.3008680
   5.3163830  14.6953250  46.6389760   5.2472980  13.8922550  47.9204540
  11.1198600  30.2765590  44.7070520  10.6256880  30.6734460  43.9897650
  10.5111890  29.6514800  45.1007800   5.4431460  12.9406100  43.6277970
   4.5691300  13.2741210  43.4250900   5.3342210  12.4679280  44.4529840
   6.3503440  15.1476970  45.0119690   6.0216800  14.3328730  44.6321420
   7.2985740  15.1046780  44.8885380   8.8038050  30.9189010  41.9857260
   8.3441020  31.6704820  41.6115280   8.1750510  30.1995480  41.9272060
   1.9729270  30.1185740  41.9874370   2.2607080  29.8640040  41.1107380
   2.4852490  29.5663100  42.5779940   3.1906280  13.8575940  42.5670880
   2.4078070  14.3321440  42.8467640   2.8969210  12.9530770  42.4584060
   7.7427350  14.5599040  40.6119970   8.1835440  14.5044140  39.7641570
   7.4734940  15.4757050  40.6830150   9.6065920  14.1914280  38.6228790
   9.5454320  13.2475500  38.4759810  10.3857950  14.2994370  39.1682250
   5.5785480  12.9405140  39.3169980   6.1814850  13.5125350  39.7918500
   4.8378470  13.5044580  39.0943880   8.7220080  13.3426700  34.5910260
   8.9170710  14.2410150  34.8577690   7.9349950  13.1113780  35.0843210
   2.0401630  31.0401840  49.3542570   2.9668940  30.8046110  49.3978530
   2.0252060  31.8673840  48.8728600  10.2746690  30.5827410  36.3516820
  10.4498880  29.8965150  35.7077740   9.5768260  31.1074460  35.9593490
   5.8280700  13.1200170  49.6964920   5.7146150  13.4394780  50.5916440
   6.6450440  13.5212680  49.4002200   8.6079190  30.2671700  49.1783610
   9.4004510  29.7720930  48.9709570   8.9012340  30.9461840  49.7859220
   4.7338850  21.1392640  20.0599660   4.6532900  20.2247250  19.7891370
   4.3203270  21.6359710  19.3539370   2.8656890  22.9171660  21.9408930
   2.0898990  22.4372100  22.2307500   3.5169820  22.2377310  21.7665090
   6.8864320  27.3231850  20.7208060   6.4245850  26.5519090  21.0495230
   7.6989870  27.3497920  21.2260510   3.1127630  29.6089860  20.3412050
   2.4939070  30.0647360  19.7706490   3.9679410  29.7641320  19.9401750
   2.3065880  25.5928850  21.9479090   2.2374160  24.6518790  21.7868220
   3.0685740  25.6830260  22.5201660   3.3371050  18.3999230  22.1748020
   3.7135870  17.5271110  22.0621690   3.2390560  18.7357930  21.2838460
   7.1195170  15.8949670  19.1076360   7.9404790  15.4046240  19.1501840
   7.1529250  16.4847330  19.8608200  11.4094720  17.9116420  25.6719990
  10.7046890  18.2998130  25.1535100  11.6752640  18.6066710  26.2740920
   3.9790980  24.4929100  17.7343960   3.3608250  24.9578550  17.1706680
   4.4914230  25.1856580  18.1513470   7.3556650  17.8350050  21.8803900
   6.6512220  18.1234940  22.4607010   7.7168810  18.6450160  21.5203460
   8.9719430  27.4525180  24.1431380   8.2882950  28.1224290  24.1348050
   9.5113720  27.6505830  23.3776240  10.4243570  17.2804840  22.2713110
   9.4768480  17.3143820  22.4028540  10.7493560  18.0943790  22.6562470
   6.5078170  29.2969310  22.8576560   6.5205330  28.8931600  21.9898820
   5.9553390  30.0716600  22.7537990   7.8023590  26.0185530  17.9466730
   7.6919920  25.0759860  18.0716150   7.7991840  26.3801170  18.8329490
   5.9063610  24.1999150  24.1859170   6.3232400  23.9859260  23.3512630
   6.6303430  24.4571940  24.7567790   3.3443870  21.6450850  17.3029220
   2.4173150  21.5788230  17.5317690   3.4968690  22.5830980  17.1884460
   3.3312950  17.9167850  14.2996380   2.3916620  18.0781810  14.3848840
   3.6496210  18.6353530  13.7532370   9.8525710  22.5986370  24.2775410
   9.0244340  22.6679460  23.8025540  10.4476190  23.1840680  23.8091240
   7.3741160  23.2071150  17.8064470   6.7553580  22.8690700  17.1590770
   7.3565610  22.5630910  18.5143660   6.8167720  19.3855690  25.2230280
   6.4038900  20.2109400  25.4770270   6.0843670  18.8000730  25.0306640
   7.5067820  29.4315020  25.9111260   7.0298380  30.2387210  25.7183870
   6.8229610  28.7793350  26.0637470   5.5505860  22.4457960  14.8137220
   5.9899140  21.6080390  14.6675040   6.2634280  23.0787360  14.9001360
   3.6601240  27.3854030  18.7818460   4.0997150  28.1278360  18.3673850
   3.5988130  27.6280600  19.7057420   9.1323000  13.7000770  13.1278260
   8.8195660  13.7927600  14.0277330   9.8935470  14.2781800  13.0775690
  11.0867030  29.1926960  30.9802650  11.5626750  29.6709850  31.6591730
  11.7074190  29.1244450  30.2548150  10.4900280  26.3839810  28.1402660
  10.6163340  26.1451690  27.2219840  10.5321660  25.5524350  28.6124740
   4.3517020  30.0867810  26.7097470   4.8661690  29.9975820  27.5119900
   3.5086100  30.4327510  27.0025380   6.3271420  30.3723150  16.1381470
   6.1672560  30.0826090  17.0363300   6.1618130  29.5963280  15.6026700
   6.0297550  27.8810710  14.6979470   5.3362710  27.8788000  14.0381750
   6.7720410  27.4570030  14.2673640   5.5947480  29.5073420  18.7727960
   6.0504430  28.7262800  19.0866580   5.9340000  30.2180240  19.3169140
  10.3424290  18.4372270  29.1052400   9.7268560  18.9451940  28.5767860
  10.0220710  17.5370600  29.0478340   2.4038610  17.2764160  26.5714590
   1.9417980  17.4847180  27.3834530   2.0016720  16.4623510  26.2685260
   7.4043120  18.4973110  27.7011250   6.5536710  18.1978860  28.0220320
   7.2444910  18.7415120  26.7895070   4.4992830  19.9974860  29.8010040
   4.8246240  19.1638610  29.4612270   5.2873160  20.5203380  29.9488370
   5.1380780  19.5392580  17.2951170   4.5389670  20.2628380  17.1114790
   5.6860390  19.4769360  16.5127620   3.7445650  18.1756120  19.3254450
   4.1375220  18.4928320  18.5123140   4.1062500  17.2968000  19.4398970
   2.0537820  16.9263430  30.5851310   1.3636140  16.7335630  31.2197400
   2.7970120  17.2098070  31.1175610   4.3300790  20.7661870  23.4205230
   3.5981910  21.2748680  23.7695330   3.9325130  19.9491850  23.1194010
   4.7926700  16.2195550  22.8328170   4.8099440  16.6704200  23.6770020
   4.5442280  15.3201190  23.0461610   8.2197450  13.6327730  28.6714550
   8.5443220  12.9017390  29.1972530   8.2553960  13.3141370  27.7695540
   8.1455290  23.7452840  22.2800580   8.8654410  24.2408130  21.8896690
   7.9437110  23.0670730  21.6354450   3.6065230  15.1390800  16.4229970
   2.7929840  14.6403970  16.3475280   3.4127180  15.9789050  16.0066320
   3.5274090  23.8161900  28.1669580   3.4611400  22.8957570  27.9127170
   2.8979230  23.9137340  28.8814220   6.3213620  19.5110450  14.7192130
   7.2093240  19.8227680  14.5443470   6.2918710  18.6382700  14.3272710
   2.3174210  25.6834140  15.3980300   2.6589910  26.4276370  14.9023620
   1.4886920  25.9965260  15.7605130   3.4590820  26.6382470  27.9173380
   3.4735360  25.7063430  27.6992290   2.7515920  26.7242230  28.5563150
   8.5927890  20.8222290  14.1871990   8.5091610  21.2536510  13.3368430
   9.3122080  21.2820640  14.6198810   9.6702030  23.2789810  27.2641960
   8.9450220  23.8718590  27.0671350  10.1977490  23.2713350  26.4655330
   9.6215140  27.6764550  16.9154120   8.9791300  27.0220170  17.1897840
   9.2345800  28.0819640  16.1394790   5.2001620  25.0049980  20.7625810
   5.5525440  24.4078110  20.1027180   4.3163950  24.6794210  20.9334060
   2.8924720  28.2800040  25.0113880   3.5366940  28.4859420  25.6887300
   3.2554160  27.5188440  24.5584730   4.1656800  26.2832390  23.7291330
   4.8079030  25.5825550  23.8423500   4.6906150  27.0630830  23.5488220
   8.0112520  26.5681010  13.4530470   7.7850100  25.8511450  14.0455110
   7.6208720  26.3193450  12.6152220   5.9394420  27.0827290  26.9327390
   6.2750660  27.6693980  27.6105310   5.0194760  26.9520000  27.1625180
   7.5928770  24.4852950  15.1144630   7.3050470  24.9465640  15.9022510
   8.3880940  24.0250720  15.3828850   1.7683000  27.1318620  30.1015450
   1.4479870  26.4127860  30.6461140   1.0941360  27.8073690  30.1751510
   4.9836600  17.3644780  25.4652250   5.3517420  16.5439990  25.7931820
   4.1234800  17.4246670  25.8807900   8.3498630  16.3201720  16.2739810
   7.7211790  16.4247390  15.5598040   7.8550550  16.5398500  17.0633690
   2.7956770  28.0407310  13.7073790   2.8968750  27.8371300  12.7775770
   1.8958510  27.7865590  13.9121570   1.9438590  20.0184370  25.6890220
   2.4423840  20.4930190  26.3542070   2.0861540  19.0947890  25.8960250
   4.3498090  15.3238330  19.1293480   4.2265870  15.3424460  18.1802990
   5.2982650  15.3717270  19.2491880   9.1505450  16.2352330  26.5318610
   8.6479050  16.9757730  26.8712420   9.9662110  16.6236330  26.2155400
   7.4427460  21.4785510  19.9779970   6.5017600  21.4935740  20.1527660
   7.7571530  20.6921470  20.4240270   9.4453040  28.6494360  21.6534230
   9.5700460  29.4725530  22.1258040  10.3118600  28.4385090  21.3058380
   4.7593480  26.0351510  30.4612350   4.1531640  26.0583110  29.7208100
   4.4547590  25.3034550  30.9979600   6.1893850  29.7631800  29.0721760
   7.1415600  29.6789820  29.0222000   6.0422070  30.4273510  29.7455550
   9.0803050  29.1426010  14.5713670   8.7944560  28.7291150  13.7567850
   8.8822600  30.0713720  14.4514190   3.7853010  24.1979320  13.6161270
   3.2363110  24.6448620  14.2604010   4.4072270  23.6928570  14.1398940
   7.8387950  25.5521420  29.5483530   8.5797420  25.8897180  29.0450990
   7.0760630  25.7213480  28.9953300   1.9655770  22.1807850  12.7603670
   2.4861430  21.4656870  12.3944820   2.6124170  22.8193720  13.0604180
   6.5133610  23.6036250  28.0838740   6.9274630  23.7581330  28.9329160
   5.5784610  23.7291470  28.2464520   6.9855780  20.9432410  30.0877890
   7.5676550  20.1884730  29.9998370   7.1617550  21.4739850  29.3109370
   3.6112740  21.2872910  27.4372510   3.7308950  20.6914050  28.1767350
   4.4706740  21.3242600  27.0173810   5.9500640  21.8410100  26.0135020
   5.4235860  22.3652720  25.4100160   6.2931980  22.4737490  26.6444750
   5.1974940  17.4460070  28.9281350   4.5090460  16.7841610  28.8631340
   5.9180960  16.9998340  29.3729810   5.8275340  14.0411700  14.9871610
   6.1077630  13.1979600  15.3431030   5.0541070  14.2734810  15.5010360
   1.9818470  31.0960950  27.4279050   1.9077170  31.9996090  27.7351420
   1.0797310  30.7772850  27.4001120   2.5303800  30.2619460  15.0505410
   3.4254590  30.6004430  15.0724170   2.5621430  29.5398870  14.4229690
   9.5098150  28.7923130  27.7571610   8.9100140  28.8515690  27.0135530
   9.6392050  27.8528110  27.8868460  10.7499600  26.5340950  13.0941320
   9.9192560  26.6017600  13.5648550  10.9271430  27.4245070  12.7908180
  10.2056060  23.2788430  15.5975520  10.9674970  23.8485080  15.7035210
  10.2210430  22.7115630  16.3683830  11.2116030  24.1338530  20.4417450
  11.5824860  23.3505850  20.0353420  11.8517960  24.8227630  20.2634750
   8.1949790  25.5175110  25.8547770   7.3809630  25.9472270  26.1173560
   8.6023990  26.1293520  25.2416820  10.2575230  23.5722800  12.7548040
  10.5324070  24.4801680  12.6267260  10.0685970  23.5085330  13.6910030
   6.6550840  16.5967650  14.0501670   7.0735720  16.4098630  13.2098330
   6.3486900  15.7446700  14.3604600  10.1540570  21.5091790  17.7477470
   9.7784170  20.7419720  17.3158760   9.4243690  21.8914490  18.2352400
   9.5440190  20.6563310  27.3816990   9.3126280  20.4276060  26.4814940
   9.8044740  21.5762860  27.3361880   7.9828260  15.8819740  30.1596690
   8.8598440  15.8903140  30.5430690   7.9949100  15.1450580  29.5489040
   9.4291530  19.7349280  21.0484710   9.9529010  19.2411930  20.4174880
  10.0150950  19.8699640  21.7932280   9.6081250  19.8189150  24.5704260
   8.6583960  19.7852690  24.6849250   9.7894260  20.7289260  24.3354030
   8.9191500  18.9922630  16.9877120   9.4150620  18.7593500  17.7726000
   8.7207570  18.1534470  16.5714760  10.3478660  17.6283580  19.5214800
  10.2377940  17.4739620  20.4597070  11.1086250  17.1004520  19.2790210
   8.6944380  13.5677710  25.9797800   9.3316600  14.1811850  26.3456990
   8.8419270  13.6038370  25.0347030  11.2368930  15.4591500  12.7620940
  12.1618240  15.3272680  12.5539230  11.2144720  15.5384320  13.7157390
  11.3107420  16.2302160  15.3877650  10.5158920  16.1647280  15.9170560
  11.5150700  17.1652800  15.3763000   8.2525840  30.2693710  19.3816040
   8.8484910  29.9478280  18.7050460   8.5103990  29.7965530  20.1729310
   2.0648860  14.7203900  28.8872900   2.0037750  15.3125730  29.6368310
   3.0049240  14.6129860  28.7423160   4.7023420  14.3773960  28.5265190
   5.3163830  14.6953250  27.8646270   5.2472980  13.8922550  29.1461050
  11.1198600  30.2765590  25.9327030  10.6256880  30.6734460  25.2154160
  10.5111890  29.6514800  26.3264310   5.4431460  12.9406100  24.8534480
   4.5691300  13.2741210  24.6507410   5.3342210  12.4679280  25.6786350
   6.3503440  15.1476970  26.2376200   6.0216800  14.3328730  25.8577930
   7.2985740  15.1046780  26.1141890   8.8038050  30.9189010  23.2113770
   8.3441020  31.6704820  22.8371790   8.1750510  30.1995480  23.1528570
   1.9729270  30.1185740  23.2130880   2.2607080  29.8640040  22.3363890
   2.4852490  29.5663100  23.8036450   3.1906280  13.8575940  23.7927390
   2.4078070  14.3321440  24.0724150   2.8969210  12.9530770  23.6840570
   7.7427350  14.5599040  21.8376480   8.1835440  14.5044140  20.9898080
   7.4734940  15.4757050  21.9086660   9.6065920  14.1914280  19.8485300
   9.5454320  13.2475500  19.7016320  10.3857950  14.2994370  20.3938760
   5.5785480  12.9405140  20.5426490   6.1814850  13.5125350  21.0175010
   4.8378470  13.5044580  20.3200390   8.7220080  13.3426700  15.8166770
   8.9170710  14.2410150  16.0834200   7.9349950  13.1113780  16.3099720
   2.0401630  31.0401840  30.5799080   2.9668940  30.8046110  30.6235040
   2.0252060  31.8673840  30.0985110  10.2746690  30.5827410  17.5773330
  10.4498880  29.8965150  16.9334250   9.5768260  31.1074460  17.1850000
   5.8280700  13.1200170  30.9221430   5.7146150  13.4394780  31.8172950
   6.6450440  13.5212680  30.6258710   8.6079190  30.2671700  30.4040120
   9.4004510  29.7720930  30.1966080   8.9012340  30.9461840  31.0115730
   2.8656890  22.9171660   3.1665440   2.0898990  22.4372100   3.4564010
   3.5169820  22.2377310   2.9921600   6.8864320  27.3231850   1.9464570
   6.4245850  26.5519090   2.2751740   7.6989870  27.3497920   2.4517020
   2.3065880  25.5928850   3.1735600   2.2374160  24.6518790   3.0124730
   3.0685740  25.6830260   3.7458170   3.3371050  18.3999230   3.4004530
   3.7135870  17.5271110   3.2878200   3.2390560  18.7357930   2.5094970
  11.4094720  17.9116420   6.8976500  10.7046890  18.2998130   6.3791610
  11.6752640  18.6066710   7.4997430   7.3556650  17.8350050   3.1060410
   6.6512220  18.1234940   3.6863520   7.7168810  18.6450160   2.7459970
   8.9719430  27.4525180   5.3687890   8.2882950  28.1224290   5.3604560
   9.5113720  27.6505830   4.6032750  10.4243570  17.2804840   3.4969620
   9.4768480  17.3143820   3.6285050  10.7493560  18.0943790   3.8818980
   6.5078170  29.2969310   4.0833070   6.5205330  28.8931600   3.2155330
   5.9553390  30.0716600   3.9794500   5.9063610  24.1999150   5.4115680
   6.3232400  23.9859260   4.5769140   6.6303430  24.4571940   5.9824300
   9.8525710  22.5986370   5.5031920   9.0244340  22.6679460   5.0282050
  10.4476190  23.1840680   5.0347750   6.8167720  19.3855690   6.4486790
   6.4038900  20.2109400   6.7026780   6.0843670  18.8000730   6.2563150
   7.5067820  29.4315020   7.1367770   7.0298380  30.2387210   6.9440380
   6.8229610  28.7793350   7.2893980  11.0867030  29.1926960  12.2059160
  11.5626750  29.6709850  12.8848240  11.7074190  29.1244450  11.4804660
  10.4900280  26.3839810   9.3659170  10.6163340  26.1451690   8.4476350
  10.5321660  25.5524350   9.8381250   4.3517020  30.0867810   7.9353980
   4.8661690  29.9975820   8.7376410   3.5086100  30.4327510   8.2281890
  10.3424290  18.4372270  10.3308910   9.7268560  18.9451940   9.8024370
  10.0220710  17.5370600  10.2734850   2.4038610  17.2764160   7.7971100
   1.9417980  17.4847180   8.6091040   2.0016720  16.4623510   7.4941770
   7.4043120  18.4973110   8.9267760   6.5536710  18.1978860   9.2476830
   7.2444910  18.7415120   8.0151580   4.4992830  19.9974860  11.0266550
   4.8246240  19.1638610  10.6868780   5.2873160  20.5203380  11.1744880
   2.0537820  16.9263430  11.8107820   1.3636140  16.7335630  12.4453910
   2.7970120  17.2098070  12.3432120   4.3300790  20.7661870   4.6461740
   3.5981910  21.2748680   4.9951840   3.9325130  19.9491850   4.3450520
   4.7926700  16.2195550   4.0584680   4.8099440  16.6704200   4.9026530
   4.5442280  15.3201190   4.2718120   8.2197450  13.6327730   9.8971060
   8.5443220  12.9017390  10.4229040   8.2553960  13.3141370   8.9952050
   8.1455290  23.7452840   3.5057090   8.8654410  24.2408130   3.1153200
   7.9437110  23.0670730   2.8610960   3.5274090  23.8161900   9.3926090
   3.4611400  22.8957570   9.1383680   2.8979230  23.9137340  10.1070730
   3.4590820  26.6382470   9.1429890   3.4735360  25.7063430   8.9248800
   2.7515920  26.7242230   9.7819660   9.6702030  23.2789810   8.4898470
   8.9450220  23.8718590   8.2927860  10.1977490  23.2713350   7.6911840
   2.8924720  28.2800040   6.2370390   3.5366940  28.4859420   6.9143810
   3.2554160  27.5188440   5.7841240   4.1656800  26.2832390   4.9547840
   4.8079030  25.5825550   5.0680010   4.6906150  27.0630830   4.7744730
   5.9394420  27.0827290   8.1583900   6.2750660  27.6693980   8.8361820
   5.0194760  26.9520000   8.3881690   1.7683000  27.1318620  11.3271960
   1.4479870  26.4127860  11.8717650   1.0941360  27.8073690  11.4008020
   4.9836600  17.3644780   6.6908760   5.3517420  16.5439990   7.0188330
   4.1234800  17.4246670   7.1064410   1.9438590  20.0184370   6.9146730
   2.4423840  20.4930190   7.5798580   2.0861540  19.0947890   7.1216760
   9.1505450  16.2352330   7.7575120   8.6479050  16.9757730   8.0968930
   9.9662110  16.6236330   7.4411910   9.4453040  28.6494360   2.8790740
   9.5700460  29.4725530   3.3514550  10.3118600  28.4385090   2.5314890
   4.7593480  26.0351510  11.6868860   4.1531640  26.0583110  10.9464610
   4.4547590  25.3034550  12.2236110   6.1893850  29.7631800  10.2978270
   7.1415600  29.6789820  10.2478510   6.0422070  30.4273510  10.9712060
   7.8387950  25.5521420  10.7740040   8.5797420  25.8897180  10.2707500
   7.0760630  25.7213480  10.2209810   6.5133610  23.6036250   9.3095250
   6.9274630  23.7581330  10.1585670   5.5784610  23.7291470   9.4721030
   6.9855780  20.9432410  11.3134400   7.5676550  20.1884730  11.2254880
   7.1617550  21.4739850  10.5365880   3.6112740  21.2872910   8.6629020
   3.7308950  20.6914050   9.4023860   4.4706740  21.3242600   8.2430320
   5.9500640  21.8410100   7.2391530   5.4235860  22.3652720   6.6356670
   6.2931980  22.4737490   7.8701260   5.1974940  17.4460070  10.1537860
   4.5090460  16.7841610  10.0887850   5.9180960  16.9998340  10.5986320
   1.9818470  31.0960950   8.6535560   1.9077170  31.9996090   8.9607930
   1.0797310  30.7772850   8.6257630   9.5098150  28.7923130   8.9828120
   8.9100140  28.8515690   8.2392040   9.6392050  27.8528110   9.1124970
   8.1949790  25.5175110   7.0804280   7.3809630  25.9472270   7.3430070
   8.6023990  26.1293520   6.4673330   9.5440190  20.6563310   8.6073500
   9.3126280  20.4276060   7.7071450   9.8044740  21.5762860   8.5618390
   7.9828260  15.8819740  11.3853200   8.8598440  15.8903140  11.7687200
   7.9949100  15.1450580  10.7745550   9.4291530  19.7349280   2.2741220
   9.9529010  19.2411930   1.6431390  10.0150950  19.8699640   3.0188790
   9.6081250  19.8189150   5.7960770   8.6583960  19.7852690   5.9105760
   9.7894260  20.7289260   5.5610540   8.6944380  13.5677710   7.2054310
   9.3316600  14.1811850   7.5713500   8.8419270  13.6038370   6.2603540
   2.0648860  14.7203900  10.1129410   2.0037750  15.3125730  10.8624820
   3.0049240  14.6129860   9.9679670   4.7023420  14.3773960   9.7521700
   5.3163830  14.6953250   9.0902780   5.2472980  13.8922550  10.3717560
  11.1198600  30.2765590   7.1583540  10.6256880  30.6734460   6.4410670
  10.5111890  29.6514800   7.5520820   5.4431460  12.9406100   6.0790990
   4.5691300  13.2741210   5.8763920   5.3342210  12.4679280   6.9042860
   6.3503440  15.1476970   7.4632710   6.0216800  14.3328730   7.0834440
   7.2985740  15.1046780   7.3398400   8.8038050  30.9189010   4.4370280
   8.3441020  31.6704820   4.0628300   8.1750510  30.1995480   4.3785080
   1.9729270  30.1185740   4.4387390   2.2607080  29.8640040   3.5620400
   2.4852490  29.5663100   5.0292960   3.1906280  13.8575940   5.0183900
   2.4078070  14.3321440   5.2980660   2.8969210  12.9530770   4.9097080
   7.7427350  14.5599040   3.0632990   8.1835440  14.5044140   2.2154590
   7.4734940  15.4757050   3.1343170   5.5785480  12.9405140   1.7683000
   6.1814850  13.5125350   2.2431520   4.8378470  13.5044580   1.5456900
   2.0401630  31.0401840  11.8055590   2.9668940  30.8046110  11.8491550
   2.0252060  31.8673840  11.3241620   5.8280700  13.1200170  12.1477940
   5.7146150  13.4394780  13.0429460   6.6450440  13.5212680  11.8515220
   8.6079190  30.2671700  11.6296630   9.4004510  29.7720930  11.4222590
   8.9012340  30.9461840  12.2372240   2.8656890   4.1428170 153.3613360
   2.0898990   3.6628610 153.6511930   3.5169820   3.4633820 153.1869520
   6.8864320   8.5488360 152.1412490   6.4245850   7.7775600 152.4699660
   7.6989870   8.5754430 152.6464940   3.1127630  10.8346370 151.7616480
   2.4939070  11.2903870 151.1910920   3.9679410  10.9897830 151.3606180
   2.3065880   6.8185360 153.3683520   2.2374160   5.8775300 153.2072650
   3.0685740   6.9086770 153.9406090   3.9790980   5.7185610 149.1548390
   3.3608250   6.1835060 148.5911110   4.4914230   6.4113090 149.5717900
   6.5078170  10.5225820 154.2780990   6.5205330  10.1188110 153.4103250
   5.9553390  11.2973110 154.1742420   7.8023590   7.2442040 149.3671160
   7.6919920   6.3016370 149.4920580   7.7991840   7.6057680 150.2533920
   3.3443870   2.8707360 148.7233650   2.4173150   2.8044740 148.9522120
   3.4968690   3.8087490 148.6088890   7.3741160   4.4327660 149.2268900
   6.7553580   4.0947210 148.5795200   7.3565610   3.7887420 149.9348090
   5.5505860   3.6714470 146.2341650   5.9899140   2.8336900 146.0879470
   6.2634280   4.3043870 146.3205790   3.6601240   8.6110540 150.2022890
   4.0997150   9.3534870 149.7878280   3.5988130   8.8537110 151.1261850
   6.3271420  11.5979660 147.5585900   6.1672560  11.3082600 148.4567730
   6.1618130  10.8219790 147.0231130   6.0297550   9.1067220 146.1183900
   5.3362710   9.1044510 145.4586180   6.7720410   8.6826540 145.6878070
   5.5947480  10.7329930 150.1932390   6.0504430   9.9519310 150.5071010
   5.9340000  11.4436750 150.7373570   8.1455290   4.9709350 153.7005010
   8.8654410   5.4664640 153.3101120   7.9437110   4.2927240 153.0558880
   2.3174210   6.9090650 146.8184730   2.6589910   7.6532880 146.3228050
   1.4886920   7.2221770 147.1809560   8.5927890   2.0478800 145.6076420
   8.5091610   2.4793020 144.7572860   9.3122080   2.5077150 146.0403240
   9.6215140   8.9021060 148.3358550   8.9791300   8.2476680 148.6102270
   9.2345800   9.3076150 147.5599220   5.2001620   6.2306490 152.1830240
   5.5525440   5.6334620 151.5231610   4.3163950   5.9050720 152.3538490
   8.0112520   7.7937520 144.8734900   7.7850100   7.0767960 145.4659540
   7.6208720   7.5449960 144.0356650   7.5928770   5.7109460 146.5349060
   7.3050470   6.1722150 147.3226940   8.3880940   5.2507230 146.8033280
   2.7956770   9.2663820 145.1278220   2.8968750   9.0627810 144.1980200
   1.8958510   9.0122100 145.3326000   7.4427460   2.7042020 151.3984400
   6.5017600   2.7192250 151.5732090   7.7571530   1.9177980 151.8444700
   9.4453040   9.8750870 153.0738660   9.5700460  10.6982040 153.5462470
  10.3118600   9.6641600 152.7262810   9.0803050  10.3682520 145.9918100
   8.7944560   9.9547660 145.1772280   8.8822600  11.2970230 145.8718620
   3.7853010   5.4235830 145.0365700   3.2363110   5.8705130 145.6808440
   4.4072270   4.9185080 145.5603370   1.9655770   3.4064360 144.1808100
   2.4861430   2.6913380 143.8149250   2.6124170   4.0450230 144.4808610
   2.5303800  11.4875970 146.4709840   3.4254590  11.8260940 146.4928600
   2.5621430  10.7655380 145.8434120  10.7499600   7.7597460 144.5145750
   9.9192560   7.8274110 144.9852980  10.9271430   8.6501580 144.2112610
  10.2056060   4.5044940 147.0179950  10.9674970   5.0741590 147.1239640
  10.2210430   3.9372140 147.7888260  11.2116030   5.3595040 151.8621880
  11.5824860   4.5762360 151.4557850  11.8517960   6.0484140 151.6839180
  10.2575230   4.7979310 144.1752470  10.5324070   5.7058190 144.0471690
  10.0685970   4.7341840 145.1114460  10.1540570   2.7348300 149.1681900
   9.7784170   1.9676230 148.7363190   9.4243690   3.1171000 149.6556830
   8.2525840  11.4950220 150.8020470   8.8484910  11.1734790 150.1254890
   8.5103990  11.0222040 151.5933740  10.2746690  11.8083920 148.9977760
  10.4498880  11.1221660 148.3538680   9.5768260  12.3330970 148.6054430
   2.8656890   4.1428170 134.5869870   2.0898990   3.6628610 134.8768440
   3.5169820   3.4633820 134.4126030   6.8864320   8.5488360 133.3669000
   6.4245850   7.7775600 133.6956170   7.6989870   8.5754430 133.8721450
   3.1127630  10.8346370 132.9872990   2.4939070  11.2903870 132.4167430
   3.9679410  10.9897830 132.5862690   2.3065880   6.8185360 134.5940030
   2.2374160   5.8775300 134.4329160   3.0685740   6.9086770 135.1662600
   3.9790980   5.7185610 130.3804900   3.3608250   6.1835060 129.8167620
   4.4914230   6.4113090 130.7974410   8.9719430   8.6781690 136.7892320
   8.2882950   9.3480800 136.7808990   9.5113720   8.8762340 136.0237180
   6.5078170  10.5225820 135.5037500   6.5205330  10.1188110 134.6359760
   5.9553390  11.2973110 135.3998930   7.8023590   7.2442040 130.5927670
   7.6919920   6.3016370 130.7177090   7.7991840   7.6057680 131.4790430
   5.9063610   5.4255660 136.8320110   6.3232400   5.2115770 135.9973570
   6.6303430   5.6828450 137.4028730   3.3443870   2.8707360 129.9490160
   2.4173150   2.8044740 130.1778630   3.4968690   3.8087490 129.8345400
   9.8525710   3.8242880 136.9236350   9.0244340   3.8935970 136.4486480
  10.4476190   4.4097190 136.4552180   7.3741160   4.4327660 130.4525410
   6.7553580   4.0947210 129.8051710   7.3565610   3.7887420 131.1604600
   7.5067820  10.6571530 138.5572200   7.0298380  11.4643720 138.3644810
   6.8229610  10.0049860 138.7098410   5.5505860   3.6714470 127.4598160
   5.9899140   2.8336900 127.3135980   6.2634280   4.3043870 127.5462300
   3.6601240   8.6110540 131.4279400   4.0997150   9.3534870 131.0134790
   3.5988130   8.8537110 132.3518360  11.0867030  10.4183470 143.6263590
  11.5626750  10.8966360 144.3052670  11.7074190  10.3500960 142.9009090
  10.4900280   7.6096320 140.7863600  10.6163340   7.3708200 139.8680780
  10.5321660   6.7780860 141.2585680   4.3517020  11.3124320 139.3558410
   4.8661690  11.2232330 140.1580840   3.5086100  11.6584020 139.6486320
   6.3271420  11.5979660 128.7842410   6.1672560  11.3082600 129.6824240
   6.1618130  10.8219790 128.2487640   6.0297550   9.1067220 127.3440410
   5.3362710   9.1044510 126.6842690   6.7720410   8.6826540 126.9134580
   5.5947480  10.7329930 131.4188900   6.0504430   9.9519310 131.7327520
   5.9340000  11.4436750 131.9630080   8.1455290   4.9709350 134.9261520
   8.8654410   5.4664640 134.5357630   7.9437110   4.2927240 134.2815390
   3.5274090   5.0418410 140.8130520   3.4611400   4.1214080 140.5588110
   2.8979230   5.1393850 141.5275160   2.3174210   6.9090650 128.0441240
   2.6589910   7.6532880 127.5484560   1.4886920   7.2221770 128.4066070
   3.4590820   7.8638980 140.5634320   3.4735360   6.9319940 140.3453230
   2.7515920   7.9498740 141.2024090   8.5927890   2.0478800 126.8332930
   8.5091610   2.4793020 125.9829370   9.3122080   2.5077150 127.2659750
   9.6702030   4.5046320 139.9102900   8.9450220   5.0975100 139.7132290
  10.1977490   4.4969860 139.1116270   9.6215140   8.9021060 129.5615060
   8.9791300   8.2476680 129.8358780   9.2345800   9.3076150 128.7855730
   5.2001620   6.2306490 133.4086750   5.5525440   5.6334620 132.7488120
   4.3163950   5.9050720 133.5795000   2.8924720   9.5056550 137.6574820
   3.5366940   9.7115930 138.3348240   3.2554160   8.7444950 137.2045670
   4.1656800   7.5088900 136.3752270   4.8079030   6.8082060 136.4884440
   4.6906150   8.2887340 136.1949160   8.0112520   7.7937520 126.0991410
   7.7850100   7.0767960 126.6916050   7.6208720   7.5449960 125.2613160
   5.9394420   8.3083800 139.5788330   6.2750660   8.8950490 140.2566250
   5.0194760   8.1776510 139.8086120   7.5928770   5.7109460 127.7605570
   7.3050470   6.1722150 128.5483450   8.3880940   5.2507230 128.0289790
   1.7683000   8.3575130 142.7476390   1.4479870   7.6384370 143.2922080
   1.0941360   9.0330200 142.8212450   2.7956770   9.2663820 126.3534730
   2.8968750   9.0627810 125.4236710   1.8958510   9.0122100 126.5582510
   7.4427460   2.7042020 132.6240910   6.5017600   2.7192250 132.7988600
   7.7571530   1.9177980 133.0701210   9.4453040   9.8750870 134.2995170
   9.5700460  10.6982040 134.7718980  10.3118600   9.6641600 133.9519320
   4.7593480   7.2608020 143.1073290   4.1531640   7.2839620 142.3669040
   4.4547590   6.5291060 143.6440540   6.1893850  10.9888310 141.7182700
   7.1415600  10.9046330 141.6682940   6.0422070  11.6530020 142.3916490
   9.0803050  10.3682520 127.2174610   8.7944560   9.9547660 126.4028790
   8.8822600  11.2970230 127.0975130   3.7853010   5.4235830 126.2622210
   3.2363110   5.8705130 126.9064950   4.4072270   4.9185080 126.7859880
   7.8387950   6.7777930 142.1944470   8.5797420   7.1153690 141.6911930
   7.0760630   6.9469990 141.6414240   1.9655770   3.4064360 125.4064610
   2.4861430   2.6913380 125.0405760   2.6124170   4.0450230 125.7065120
   6.5133610   4.8292760 140.7299680   6.9274630   4.9837840 141.5790100
   5.5784610   4.9547980 140.8925460   3.6112740   2.5129420 140.0833450
   3.7308950   1.9170560 140.8228290   4.4706740   2.5499110 139.6634750
   5.9500640   3.0666610 138.6595960   5.4235860   3.5909230 138.0561100
   6.2931980   3.6994000 139.2905690   1.9818470  12.3217460 140.0739990
   1.9077170  13.2252600 140.3812360   1.0797310  12.0029360 140.0462060
   2.5303800  11.4875970 127.6966350   3.4254590  11.8260940 127.7185110
   2.5621430  10.7655380 127.0690630   9.5098150  10.0179640 140.4032550
   8.9100140  10.0772200 139.6596470   9.6392050   9.0784620 140.5329400
  10.7499600   7.7597460 125.7402260   9.9192560   7.8274110 126.2109490
  10.9271430   8.6501580 125.4369120  10.2056060   4.5044940 128.2436460
  10.9674970   5.0741590 128.3496150  10.2210430   3.9372140 129.0144770
  11.2116030   5.3595040 133.0878390  11.5824860   4.5762360 132.6814360
  11.8517960   6.0484140 132.9095690   8.1949790   6.7431620 138.5008710
   7.3809630   7.1728780 138.7634500   8.6023990   7.3550030 137.8877760
  10.2575230   4.7979310 125.4008980  10.5324070   5.7058190 125.2728200
  10.0685970   4.7341840 126.3370970  10.1540570   2.7348300 130.3938410
   9.7784170   1.9676230 129.9619700   9.4243690   3.1171000 130.8813340
   9.5440190   1.8819820 140.0277930   9.3126280   1.6532570 139.1275880
   9.8044740   2.8019370 139.9822820   8.2525840  11.4950220 132.0276980
   8.8484910  11.1734790 131.3511400   8.5103990  11.0222040 132.8190250
  11.1198600  11.5022100 138.5787970  10.6256880  11.8990970 137.8615100
  10.5111890  10.8771310 138.9725250   8.8038050  12.1445520 135.8574710
   8.3441020  12.8961330 135.4832730   8.1750510  11.4251990 135.7989510
   1.9729270  11.3442250 135.8591820   2.2607080  11.0896550 134.9824830
   2.4852490  10.7919610 136.4497390   2.0401630  12.2658350 143.2260020
   2.9668940  12.0302620 143.2695980   2.0252060  13.0930350 142.7446050
  10.2746690  11.8083920 130.2234270  10.4498880  11.1221660 129.5795190
   9.5768260  12.3330970 129.8310940   8.6079190  11.4928210 143.0501060
   9.4004510  10.9977440 142.8427020   8.9012340  12.1718350 143.6576670
   2.8656890   4.1428170 115.8126380   2.0898990   3.6628610 116.1024950
   3.5169820   3.4633820 115.6382540   6.8864320   8.5488360 114.5925510
   6.4245850   7.7775600 114.9212680   7.6989870   8.5754430 115.0977960
   3.1127630  10.8346370 114.2129500   2.4939070  11.2903870 113.6423940
   3.9679410  10.9897830 113.8119200   2.3065880   6.8185360 115.8196540
   2.2374160   5.8775300 115.6585670   3.0685740   6.9086770 116.3919110
   3.9790980   5.7185610 111.6061410   3.3608250   6.1835060 111.0424130
   4.4914230   6.4113090 112.0230920   8.9719430   8.6781690 118.0148830
   8.2882950   9.3480800 118.0065500   9.5113720   8.8762340 117.2493690
   6.5078170  10.5225820 116.7294010   6.5205330  10.1188110 115.8616270
   5.9553390  11.2973110 116.6255440   7.8023590   7.2442040 111.8184180
   7.6919920   6.3016370 111.9433600   7.7991840   7.6057680 112.7046940
   5.9063610   5.4255660 118.0576620   6.3232400   5.2115770 117.2230080
   6.6303430   5.6828450 118.6285240   3.3443870   2.8707360 111.1746670
   2.4173150   2.8044740 111.4035140   3.4968690   3.8087490 111.0601910
   9.8525710   3.8242880 118.1492860   9.0244340   3.8935970 117.6742990
  10.4476190   4.4097190 117.6808690   7.3741160   4.4327660 111.6781920
   6.7553580   4.0947210 111.0308220   7.3565610   3.7887420 112.3861110
   7.5067820  10.6571530 119.7828710   7.0298380  11.4643720 119.5901320
   6.8229610  10.0049860 119.9354920   5.5505860   3.6714470 108.6854670
   5.9899140   2.8336900 108.5392490   6.2634280   4.3043870 108.7718810
   3.6601240   8.6110540 112.6535910   4.0997150   9.3534870 112.2391300
   3.5988130   8.8537110 113.5774870  11.0867030  10.4183470 124.8520100
  11.5626750  10.8966360 125.5309180  11.7074190  10.3500960 124.1265600
  10.4900280   7.6096320 122.0120110  10.6163340   7.3708200 121.0937290
  10.5321660   6.7780860 122.4842190   4.3517020  11.3124320 120.5814920
   4.8661690  11.2232330 121.3837350   3.5086100  11.6584020 120.8742830
   6.3271420  11.5979660 110.0098920   6.1672560  11.3082600 110.9080750
   6.1618130  10.8219790 109.4744150   6.0297550   9.1067220 108.5696920
   5.3362710   9.1044510 107.9099200   6.7720410   8.6826540 108.1391090
   5.5947480  10.7329930 112.6445410   6.0504430   9.9519310 112.9584030
   5.9340000  11.4436750 113.1886590   8.1455290   4.9709350 116.1518030
   8.8654410   5.4664640 115.7614140   7.9437110   4.2927240 115.5071900
   3.5274090   5.0418410 122.0387030   3.4611400   4.1214080 121.7844620
   2.8979230   5.1393850 122.7531670   2.3174210   6.9090650 109.2697750
   2.6589910   7.6532880 108.7741070   1.4886920   7.2221770 109.6322580
   3.4590820   7.8638980 121.7890830   3.4735360   6.9319940 121.5709740
   2.7515920   7.9498740 122.4280600   8.5927890   2.0478800 108.0589440
   8.5091610   2.4793020 107.2085880   9.3122080   2.5077150 108.4916260
   9.6702030   4.5046320 121.1359410   8.9450220   5.0975100 120.9388800
  10.1977490   4.4969860 120.3372780   9.6215140   8.9021060 110.7871570
   8.9791300   8.2476680 111.0615290   9.2345800   9.3076150 110.0112240
   5.2001620   6.2306490 114.6343260   5.5525440   5.6334620 113.9744630
   4.3163950   5.9050720 114.8051510   2.8924720   9.5056550 118.8831330
   3.5366940   9.7115930 119.5604750   3.2554160   8.7444950 118.4302180
   4.1656800   7.5088900 117.6008780   4.8079030   6.8082060 117.7140950
   4.6906150   8.2887340 117.4205670   8.0112520   7.7937520 107.3247920
   7.7850100   7.0767960 107.9172560   7.6208720   7.5449960 106.4869670
   5.9394420   8.3083800 120.8044840   6.2750660   8.8950490 121.4822760
   5.0194760   8.1776510 121.0342630   7.5928770   5.7109460 108.9862080
   7.3050470   6.1722150 109.7739960   8.3880940   5.2507230 109.2546300
   1.7683000   8.3575130 123.9732900   1.4479870   7.6384370 124.5178590
   1.0941360   9.0330200 124.0468960   2.7956770   9.2663820 107.5791240
   2.8968750   9.0627810 106.6493220   1.8958510   9.0122100 107.7839020
   7.4427460   2.7042020 113.8497420   6.5017600   2.7192250 114.0245110
   7.7571530   1.9177980 114.2957720   9.4453040   9.8750870 115.5251680
   9.5700460  10.6982040 115.9975490  10.3118600   9.6641600 115.1775830
   4.7593480   7.2608020 124.3329800   4.1531640   7.2839620 123.5925550
   4.4547590   6.5291060 124.8697050   6.1893850  10.9888310 122.9439210
   7.1415600  10.9046330 122.8939450   6.0422070  11.6530020 123.6173000
   9.0803050  10.3682520 108.4431120   8.7944560   9.9547660 107.6285300
   8.8822600  11.2970230 108.3231640   3.7853010   5.4235830 107.4878720
   3.2363110   5.8705130 108.1321460   4.4072270   4.9185080 108.0116390
   7.8387950   6.7777930 123.4200980   8.5797420   7.1153690 122.9168440
   7.0760630   6.9469990 122.8670750   1.9655770   3.4064360 106.6321120
   2.4861430   2.6913380 106.2662270   2.6124170   4.0450230 106.9321630
   6.5133610   4.8292760 121.9556190   6.9274630   4.9837840 122.8046610
   5.5784610   4.9547980 122.1181970   3.6112740   2.5129420 121.3089960
   3.7308950   1.9170560 122.0484800   4.4706740   2.5499110 120.8891260
   5.9500640   3.0666610 119.8852470   5.4235860   3.5909230 119.2817610
   6.2931980   3.6994000 120.5162200   1.9818470  12.3217460 121.2996500
   1.9077170  13.2252600 121.6068870   1.0797310  12.0029360 121.2718570
   2.5303800  11.4875970 108.9222860   3.4254590  11.8260940 108.9441620
   2.5621430  10.7655380 108.2947140   9.5098150  10.0179640 121.6289060
   8.9100140  10.0772200 120.8852980   9.6392050   9.0784620 121.7585910
  10.7499600   7.7597460 106.9658770   9.9192560   7.8274110 107.4366000
  10.9271430   8.6501580 106.6625630  10.2056060   4.5044940 109.4692970
  10.9674970   5.0741590 109.5752660  10.2210430   3.9372140 110.2401280
  11.2116030   5.3595040 114.3134900  11.5824860   4.5762360 113.9070870
  11.8517960   6.0484140 114.1352200   8.1949790   6.7431620 119.7265220
   7.3809630   7.1728780 119.9891010   8.6023990   7.3550030 119.1134270
  10.2575230   4.7979310 106.6265490  10.5324070   5.7058190 106.4984710
  10.0685970   4.7341840 107.5627480  10.1540570   2.7348300 111.6194920
   9.7784170   1.9676230 111.1876210   9.4243690   3.1171000 112.1069850
   9.5440190   1.8819820 121.2534440   9.3126280   1.6532570 120.3532390
   9.8044740   2.8019370 121.2079330   8.2525840  11.4950220 113.2533490
   8.8484910  11.1734790 112.5767910   8.5103990  11.0222040 114.0446760
  11.1198600  11.5022100 119.8044480  10.6256880  11.8990970 119.0871610
  10.5111890  10.8771310 120.1981760   8.8038050  12.1445520 117.0831220
   8.3441020  12.8961330 116.7089240   8.1750510  11.4251990 117.0246020
   1.9729270  11.3442250 117.0848330   2.2607080  11.0896550 116.2081340
   2.4852490  10.7919610 117.6753900   2.0401630  12.2658350 124.4516530
   2.9668940  12.0302620 124.4952490   2.0252060  13.0930350 123.9702560
  10.2746690  11.8083920 111.4490780  10.4498880  11.1221660 110.8051700
   9.5768260  12.3330970 111.0567450   8.6079190  11.4928210 124.2757570
   9.4004510  10.9977440 124.0683530   8.9012340  12.1718350 124.8833180
   2.8656890   4.1428170  97.0382890   2.0898990   3.6628610  97.3281460
   3.5169820   3.4633820  96.8639050   6.8864320   8.5488360  95.8182020
   6.4245850   7.7775600  96.1469190   7.6989870   8.5754430  96.3234470
   3.1127630  10.8346370  95.4386010   2.4939070  11.2903870  94.8680450
   3.9679410  10.9897830  95.0375710   2.3065880   6.8185360  97.0453050
   2.2374160   5.8775300  96.8842180   3.0685740   6.9086770  97.6175620
   3.9790980   5.7185610  92.8317920   3.3608250   6.1835060  92.2680640
   4.4914230   6.4113090  93.2487430   8.9719430   8.6781690  99.2405340
   8.2882950   9.3480800  99.2322010   9.5113720   8.8762340  98.4750200
   6.5078170  10.5225820  97.9550520   6.5205330  10.1188110  97.0872780
   5.9553390  11.2973110  97.8511950   7.8023590   7.2442040  93.0440690
   7.6919920   6.3016370  93.1690110   7.7991840   7.6057680  93.9303450
   5.9063610   5.4255660  99.2833130   6.3232400   5.2115770  98.4486590
   6.6303430   5.6828450  99.8541750   3.3443870   2.8707360  92.4003180
   2.4173150   2.8044740  92.6291650   3.4968690   3.8087490  92.2858420
   9.8525710   3.8242880  99.3749370   9.0244340   3.8935970  98.8999500
  10.4476190   4.4097190  98.9065200   7.3741160   4.4327660  92.9038430
   6.7553580   4.0947210  92.2564730   7.3565610   3.7887420  93.6117620
   7.5067820  10.6571530 101.0085220   7.0298380  11.4643720 100.8157830
   6.8229610  10.0049860 101.1611430   5.5505860   3.6714470  89.9111180
   5.9899140   2.8336900  89.7649000   6.2634280   4.3043870  89.9975320
   3.6601240   8.6110540  93.8792420   4.0997150   9.3534870  93.4647810
   3.5988130   8.8537110  94.8031380  11.0867030  10.4183470 106.0776610
  11.5626750  10.8966360 106.7565690  11.7074190  10.3500960 105.3522110
  10.4900280   7.6096320 103.2376620  10.6163340   7.3708200 102.3193800
  10.5321660   6.7780860 103.7098700   4.3517020  11.3124320 101.8071430
   4.8661690  11.2232330 102.6093860   3.5086100  11.6584020 102.0999340
   6.3271420  11.5979660  91.2355430   6.1672560  11.3082600  92.1337260
   6.1618130  10.8219790  90.7000660   6.0297550   9.1067220  89.7953430
   5.3362710   9.1044510  89.1355710   6.7720410   8.6826540  89.3647600
   5.5947480  10.7329930  93.8701920   6.0504430   9.9519310  94.1840540
   5.9340000  11.4436750  94.4143100   8.1455290   4.9709350  97.3774540
   8.8654410   5.4664640  96.9870650   7.9437110   4.2927240  96.7328410
   3.5274090   5.0418410 103.2643540   3.4611400   4.1214080 103.0101130
   2.8979230   5.1393850 103.9788180   2.3174210   6.9090650  90.4954260
   2.6589910   7.6532880  89.9997580   1.4886920   7.2221770  90.8579090
   3.4590820   7.8638980 103.0147340   3.4735360   6.9319940 102.7966250
   2.7515920   7.9498740 103.6537110   8.5927890   2.0478800  89.2845950
   8.5091610   2.4793020  88.4342390   9.3122080   2.5077150  89.7172770
   9.6702030   4.5046320 102.3615920   8.9450220   5.0975100 102.1645310
  10.1977490   4.4969860 101.5629290   9.6215140   8.9021060  92.0128080
   8.9791300   8.2476680  92.2871800   9.2345800   9.3076150  91.2368750
   5.2001620   6.2306490  95.8599770   5.5525440   5.6334620  95.2001140
   4.3163950   5.9050720  96.0308020   2.8924720   9.5056550 100.1087840
   3.5366940   9.7115930 100.7861260   3.2554160   8.7444950  99.6558690
   4.1656800   7.5088900  98.8265290   4.8079030   6.8082060  98.9397460
   4.6906150   8.2887340  98.6462180   8.0112520   7.7937520  88.5504430
   7.7850100   7.0767960  89.1429070   7.6208720   7.5449960  87.7126180
   5.9394420   8.3083800 102.0301350   6.2750660   8.8950490 102.7079270
   5.0194760   8.1776510 102.2599140   7.5928770   5.7109460  90.2118590
   7.3050470   6.1722150  90.9996470   8.3880940   5.2507230  90.4802810
   1.7683000   8.3575130 105.1989410   1.4479870   7.6384370 105.7435100
   1.0941360   9.0330200 105.2725470   2.7956770   9.2663820  88.8047750
   2.8968750   9.0627810  87.8749730   1.8958510   9.0122100  89.0095530
   7.4427460   2.7042020  95.0753930   6.5017600   2.7192250  95.2501620
   7.7571530   1.9177980  95.5214230   9.4453040   9.8750870  96.7508190
   9.5700460  10.6982040  97.2232000  10.3118600   9.6641600  96.4032340
   4.7593480   7.2608020 105.5586310   4.1531640   7.2839620 104.8182060
   4.4547590   6.5291060 106.0953560   6.1893850  10.9888310 104.1695720
   7.1415600  10.9046330 104.1195960   6.0422070  11.6530020 104.8429510
   9.0803050  10.3682520  89.6687630   8.7944560   9.9547660  88.8541810
   8.8822600  11.2970230  89.5488150   3.7853010   5.4235830  88.7135230
   3.2363110   5.8705130  89.3577970   4.4072270   4.9185080  89.2372900
   7.8387950   6.7777930 104.6457490   8.5797420   7.1153690 104.1424950
   7.0760630   6.9469990 104.0927260   1.9655770   3.4064360  87.8577630
   2.4861430   2.6913380  87.4918780   2.6124170   4.0450230  88.1578140
   6.5133610   4.8292760 103.1812700   6.9274630   4.9837840 104.0303120
   5.5784610   4.9547980 103.3438480   3.6112740   2.5129420 102.5346470
   3.7308950   1.9170560 103.2741310   4.4706740   2.5499110 102.1147770
   5.9500640   3.0666610 101.1108980   5.4235860   3.5909230 100.5074120
   6.2931980   3.6994000 101.7418710   1.9818470  12.3217460 102.5253010
   1.9077170  13.2252600 102.8325380   1.0797310  12.0029360 102.4975080
   2.5303800  11.4875970  90.1479370   3.4254590  11.8260940  90.1698130
   2.5621430  10.7655380  89.5203650   9.5098150  10.0179640 102.8545570
   8.9100140  10.0772200 102.1109490   9.6392050   9.0784620 102.9842420
  10.7499600   7.7597460  88.1915280   9.9192560   7.8274110  88.6622510
  10.9271430   8.6501580  87.8882140  10.2056060   4.5044940  90.6949480
  10.9674970   5.0741590  90.8009170  10.2210430   3.9372140  91.4657790
  11.2116030   5.3595040  95.5391410  11.5824860   4.5762360  95.1327380
  11.8517960   6.0484140  95.3608710   8.1949790   6.7431620 100.9521730
   7.3809630   7.1728780 101.2147520   8.6023990   7.3550030 100.3390780
  10.2575230   4.7979310  87.8522000  10.5324070   5.7058190  87.7241220
  10.0685970   4.7341840  88.7883990  10.1540570   2.7348300  92.8451430
   9.7784170   1.9676230  92.4132720   9.4243690   3.1171000  93.3326360
   9.5440190   1.8819820 102.4790950   9.3126280   1.6532570 101.5788900
   9.8044740   2.8019370 102.4335840   8.2525840  11.4950220  94.4790000
   8.8484910  11.1734790  93.8024420   8.5103990  11.0222040  95.2703270
  11.1198600  11.5022100 101.0300990  10.6256880  11.8990970 100.3128120
  10.5111890  10.8771310 101.4238270   8.8038050  12.1445520  98.3087730
   8.3441020  12.8961330  97.9345750   8.1750510  11.4251990  98.2502530
   1.9729270  11.3442250  98.3104840   2.2607080  11.0896550  97.4337850
   2.4852490  10.7919610  98.9010410   2.0401630  12.2658350 105.6773040
   2.9668940  12.0302620 105.7209000   2.0252060  13.0930350 105.1959070
  10.2746690  11.8083920  92.6747290  10.4498880  11.1221660  92.0308210
   9.5768260  12.3330970  92.2823960   8.6079190  11.4928210 105.5014080
   9.4004510  10.9977440 105.2940040   8.9012340  12.1718350 106.1089690
   2.8656890   4.1428170  78.2639400   2.0898990   3.6628610  78.5537970
   3.5169820   3.4633820  78.0895560   6.8864320   8.5488360  77.0438530
   6.4245850   7.7775600  77.3725700   7.6989870   8.5754430  77.5490980
   3.1127630  10.8346370  76.6642520   2.4939070  11.2903870  76.0936960
   3.9679410  10.9897830  76.2632220   2.3065880   6.8185360  78.2709560
   2.2374160   5.8775300  78.1098690   3.0685740   6.9086770  78.8432130
   3.9790980   5.7185610  74.0574430   3.3608250   6.1835060  73.4937150
   4.4914230   6.4113090  74.4743940   8.9719430   8.6781690  80.4661850
   8.2882950   9.3480800  80.4578520   9.5113720   8.8762340  79.7006710
   6.5078170  10.5225820  79.1807030   6.5205330  10.1188110  78.3129290
   5.9553390  11.2973110  79.0768460   7.8023590   7.2442040  74.2697200
   7.6919920   6.3016370  74.3946620   7.7991840   7.6057680  75.1559960
   5.9063610   5.4255660  80.5089640   6.3232400   5.2115770  79.6743100
   6.6303430   5.6828450  81.0798260   3.3443870   2.8707360  73.6259690
   2.4173150   2.8044740  73.8548160   3.4968690   3.8087490  73.5114930
   9.8525710   3.8242880  80.6005880   9.0244340   3.8935970  80.1256010
  10.4476190   4.4097190  80.1321710   7.3741160   4.4327660  74.1294940
   6.7553580   4.0947210  73.4821240   7.3565610   3.7887420  74.8374130
   7.5067820  10.6571530  82.2341730   7.0298380  11.4643720  82.0414340
   6.8229610  10.0049860  82.3867940   5.5505860   3.6714470  71.1367690
   5.9899140   2.8336900  70.9905510   6.2634280   4.3043870  71.2231830
   3.6601240   8.6110540  75.1048930   4.0997150   9.3534870  74.6904320
   3.5988130   8.8537110  76.0287890  11.0867030  10.4183470  87.3033120
  11.5626750  10.8966360  87.9822200  11.7074190  10.3500960  86.5778620
  10.4900280   7.6096320  84.4633130  10.6163340   7.3708200  83.5450310
  10.5321660   6.7780860  84.9355210   4.3517020  11.3124320  83.0327940
   4.8661690  11.2232330  83.8350370   3.5086100  11.6584020  83.3255850
   6.3271420  11.5979660  72.4611940   6.1672560  11.3082600  73.3593770
   6.1618130  10.8219790  71.9257170   6.0297550   9.1067220  71.0209940
   5.3362710   9.1044510  70.3612220   6.7720410   8.6826540  70.5904110
   5.5947480  10.7329930  75.0958430   6.0504430   9.9519310  75.4097050
   5.9340000  11.4436750  75.6399610   8.1455290   4.9709350  78.6031050
   8.8654410   5.4664640  78.2127160   7.9437110   4.2927240  77.9584920
   3.5274090   5.0418410  84.4900050   3.4611400   4.1214080  84.2357640
   2.8979230   5.1393850  85.2044690   2.3174210   6.9090650  71.7210770
   2.6589910   7.6532880  71.2254090   1.4886920   7.2221770  72.0835600
   3.4590820   7.8638980  84.2403850   3.4735360   6.9319940  84.0222760
   2.7515920   7.9498740  84.8793620   8.5927890   2.0478800  70.5102460
   8.5091610   2.4793020  69.6598900   9.3122080   2.5077150  70.9429280
   9.6702030   4.5046320  83.5872430   8.9450220   5.0975100  83.3901820
  10.1977490   4.4969860  82.7885800   9.6215140   8.9021060  73.2384590
   8.9791300   8.2476680  73.5128310   9.2345800   9.3076150  72.4625260
   5.2001620   6.2306490  77.0856280   5.5525440   5.6334620  76.4257650
   4.3163950   5.9050720  77.2564530   2.8924720   9.5056550  81.3344350
   3.5366940   9.7115930  82.0117770   3.2554160   8.7444950  80.8815200
   4.1656800   7.5088900  80.0521800   4.8079030   6.8082060  80.1653970
   4.6906150   8.2887340  79.8718690   8.0112520   7.7937520  69.7760940
   7.7850100   7.0767960  70.3685580   7.6208720   7.5449960  68.9382690
   5.9394420   8.3083800  83.2557860   6.2750660   8.8950490  83.9335780
   5.0194760   8.1776510  83.4855650   7.5928770   5.7109460  71.4375100
   7.3050470   6.1722150  72.2252980   8.3880940   5.2507230  71.7059320
   1.7683000   8.3575130  86.4245920   1.4479870   7.6384370  86.9691610
   1.0941360   9.0330200  86.4981980   2.7956770   9.2663820  70.0304260
   2.8968750   9.0627810  69.1006240   1.8958510   9.0122100  70.2352040
   7.4427460   2.7042020  76.3010440   6.5017600   2.7192250  76.4758130
   7.7571530   1.9177980  76.7470740   9.4453040   9.8750870  77.9764700
   9.5700460  10.6982040  78.4488510  10.3118600   9.6641600  77.6288850
   4.7593480   7.2608020  86.7842820   4.1531640   7.2839620  86.0438570
   4.4547590   6.5291060  87.3210070   6.1893850  10.9888310  85.3952230
   7.1415600  10.9046330  85.3452470   6.0422070  11.6530020  86.0686020
   9.0803050  10.3682520  70.8944140   8.7944560   9.9547660  70.0798320
   8.8822600  11.2970230  70.7744660   3.7853010   5.4235830  69.9391740
   3.2363110   5.8705130  70.5834480   4.4072270   4.9185080  70.4629410
   7.8387950   6.7777930  85.8714000   8.5797420   7.1153690  85.3681460
   7.0760630   6.9469990  85.3183770   1.9655770   3.4064360  69.0834140
   2.4861430   2.6913380  68.7175290   2.6124170   4.0450230  69.3834650
   6.5133610   4.8292760  84.4069210   6.9274630   4.9837840  85.2559630
   5.5784610   4.9547980  84.5694990   3.6112740   2.5129420  83.7602980
   3.7308950   1.9170560  84.4997820   4.4706740   2.5499110  83.3404280
   5.9500640   3.0666610  82.3365490   5.4235860   3.5909230  81.7330630
   6.2931980   3.6994000  82.9675220   1.9818470  12.3217460  83.7509520
   1.9077170  13.2252600  84.0581890   1.0797310  12.0029360  83.7231590
   2.5303800  11.4875970  71.3735880   3.4254590  11.8260940  71.3954640
   2.5621430  10.7655380  70.7460160   9.5098150  10.0179640  84.0802080
   8.9100140  10.0772200  83.3366000   9.6392050   9.0784620  84.2098930
  10.7499600   7.7597460  69.4171790   9.9192560   7.8274110  69.8879020
  10.9271430   8.6501580  69.1138650  10.2056060   4.5044940  71.9205990
  10.9674970   5.0741590  72.0265680  10.2210430   3.9372140  72.6914300
  11.2116030   5.3595040  76.7647920  11.5824860   4.5762360  76.3583890
  11.8517960   6.0484140  76.5865220   8.1949790   6.7431620  82.1778240
   7.3809630   7.1728780  82.4404030   8.6023990   7.3550030  81.5647290
  10.2575230   4.7979310  69.0778510  10.5324070   5.7058190  68.9497730
  10.0685970   4.7341840  70.0140500  10.1540570   2.7348300  74.0707940
   9.7784170   1.9676230  73.6389230   9.4243690   3.1171000  74.5582870
   9.5440190   1.8819820  83.7047460   9.3126280   1.6532570  82.8045410
   9.8044740   2.8019370  83.6592350   8.2525840  11.4950220  75.7046510
   8.8484910  11.1734790  75.0280930   8.5103990  11.0222040  76.4959780
  11.1198600  11.5022100  82.2557500  10.6256880  11.8990970  81.5384630
  10.5111890  10.8771310  82.6494780   8.8038050  12.1445520  79.5344240
   8.3441020  12.8961330  79.1602260   8.1750510  11.4251990  79.4759040
   1.9729270  11.3442250  79.5361350   2.2607080  11.0896550  78.6594360
   2.4852490  10.7919610  80.1266920   2.0401630  12.2658350  86.9029550
   2.9668940  12.0302620  86.9465510   2.0252060  13.0930350  86.4215580
  10.2746690  11.8083920  73.9003800  10.4498880  11.1221660  73.2564720
   9.5768260  12.3330970  73.5080470   8.6079190  11.4928210  86.7270590
   9.4004510  10.9977440  86.5196550   8.9012340  12.1718350  87.3346200
   2.8656890   4.1428170  59.4895910   2.0898990   3.6628610  59.7794480
   3.5169820   3.4633820  59.3152070   6.8864320   8.5488360  58.2695040
   6.4245850   7.7775600  58.5982210   7.6989870   8.5754430  58.7747490
   3.1127630  10.8346370  57.8899030   2.4939070  11.2903870  57.3193470
   3.9679410  10.9897830  57.4888730   2.3065880   6.8185360  59.4966070
   2.2374160   5.8775300  59.3355200   3.0685740   6.9086770  60.0688640
   3.9790980   5.7185610  55.2830940   3.3608250   6.1835060  54.7193660
   4.4914230   6.4113090  55.7000450   8.9719430   8.6781690  61.6918360
   8.2882950   9.3480800  61.6835030   9.5113720   8.8762340  60.9263220
   6.5078170  10.5225820  60.4063540   6.5205330  10.1188110  59.5385800
   5.9553390  11.2973110  60.3024970   7.8023590   7.2442040  55.4953710
   7.6919920   6.3016370  55.6203130   7.7991840   7.6057680  56.3816470
   5.9063610   5.4255660  61.7346150   6.3232400   5.2115770  60.8999610
   6.6303430   5.6828450  62.3054770   3.3443870   2.8707360  54.8516200
   2.4173150   2.8044740  55.0804670   3.4968690   3.8087490  54.7371440
   9.8525710   3.8242880  61.8262390   9.0244340   3.8935970  61.3512520
  10.4476190   4.4097190  61.3578220   7.3741160   4.4327660  55.3551450
   6.7553580   4.0947210  54.7077750   7.3565610   3.7887420  56.0630640
   7.5067820  10.6571530  63.4598240   7.0298380  11.4643720  63.2670850
   6.8229610  10.0049860  63.6124450   5.5505860   3.6714470  52.3624200
   5.9899140   2.8336900  52.2162020   6.2634280   4.3043870  52.4488340
   3.6601240   8.6110540  56.3305440   4.0997150   9.3534870  55.9160830
   3.5988130   8.8537110  57.2544400  11.0867030  10.4183470  68.5289630
  11.5626750  10.8966360  69.2078710  11.7074190  10.3500960  67.8035130
  10.4900280   7.6096320  65.6889640  10.6163340   7.3708200  64.7706820
  10.5321660   6.7780860  66.1611720   4.3517020  11.3124320  64.2584450
   4.8661690  11.2232330  65.0606880   3.5086100  11.6584020  64.5512360
   6.3271420  11.5979660  53.6868450   6.1672560  11.3082600  54.5850280
   6.1618130  10.8219790  53.1513680   6.0297550   9.1067220  52.2466450
   5.3362710   9.1044510  51.5868730   6.7720410   8.6826540  51.8160620
   5.5947480  10.7329930  56.3214940   6.0504430   9.9519310  56.6353560
   5.9340000  11.4436750  56.8656120   8.1455290   4.9709350  59.8287560
   8.8654410   5.4664640  59.4383670   7.9437110   4.2927240  59.1841430
   3.5274090   5.0418410  65.7156560   3.4611400   4.1214080  65.4614150
   2.8979230   5.1393850  66.4301200   2.3174210   6.9090650  52.9467280
   2.6589910   7.6532880  52.4510600   1.4886920   7.2221770  53.3092110
   3.4590820   7.8638980  65.4660360   3.4735360   6.9319940  65.2479270
   2.7515920   7.9498740  66.1050130   8.5927890   2.0478800  51.7358970
   8.5091610   2.4793020  50.8855410   9.3122080   2.5077150  52.1685790
   9.6702030   4.5046320  64.8128940   8.9450220   5.0975100  64.6158330
  10.1977490   4.4969860  64.0142310   9.6215140   8.9021060  54.4641100
   8.9791300   8.2476680  54.7384820   9.2345800   9.3076150  53.6881770
   5.2001620   6.2306490  58.3112790   5.5525440   5.6334620  57.6514160
   4.3163950   5.9050720  58.4821040   2.8924720   9.5056550  62.5600860
   3.5366940   9.7115930  63.2374280   3.2554160   8.7444950  62.1071710
   4.1656800   7.5088900  61.2778310   4.8079030   6.8082060  61.3910480
   4.6906150   8.2887340  61.0975200   8.0112520   7.7937520  51.0017450
   7.7850100   7.0767960  51.5942090   7.6208720   7.5449960  50.1639200
   5.9394420   8.3083800  64.4814370   6.2750660   8.8950490  65.1592290
   5.0194760   8.1776510  64.7112160   7.5928770   5.7109460  52.6631610
   7.3050470   6.1722150  53.4509490   8.3880940   5.2507230  52.9315830
   1.7683000   8.3575130  67.6502430   1.4479870   7.6384370  68.1948120
   1.0941360   9.0330200  67.7238490   2.7956770   9.2663820  51.2560770
   2.8968750   9.0627810  50.3262750   1.8958510   9.0122100  51.4608550
   7.4427460   2.7042020  57.5266950   6.5017600   2.7192250  57.7014640
   7.7571530   1.9177980  57.9727250   9.4453040   9.8750870  59.2021210
   9.5700460  10.6982040  59.6745020  10.3118600   9.6641600  58.8545360
   4.7593480   7.2608020  68.0099330   4.1531640   7.2839620  67.2695080
   4.4547590   6.5291060  68.5466580   6.1893850  10.9888310  66.6208740
   7.1415600  10.9046330  66.5708980   6.0422070  11.6530020  67.2942530
   9.0803050  10.3682520  52.1200650   8.7944560   9.9547660  51.3054830
   8.8822600  11.2970230  52.0001170   3.7853010   5.4235830  51.1648250
   3.2363110   5.8705130  51.8090990   4.4072270   4.9185080  51.6885920
   7.8387950   6.7777930  67.0970510   8.5797420   7.1153690  66.5937970
   7.0760630   6.9469990  66.5440280   1.9655770   3.4064360  50.3090650
   2.4861430   2.6913380  49.9431800   2.6124170   4.0450230  50.6091160
   6.5133610   4.8292760  65.6325720   6.9274630   4.9837840  66.4816140
   5.5784610   4.9547980  65.7951500   3.6112740   2.5129420  64.9859490
   3.7308950   1.9170560  65.7254330   4.4706740   2.5499110  64.5660790
   5.9500640   3.0666610  63.5622000   5.4235860   3.5909230  62.9587140
   6.2931980   3.6994000  64.1931730   1.9818470  12.3217460  64.9766030
   1.9077170  13.2252600  65.2838400   1.0797310  12.0029360  64.9488100
   2.5303800  11.4875970  52.5992390   3.4254590  11.8260940  52.6211150
   2.5621430  10.7655380  51.9716670   9.5098150  10.0179640  65.3058590
   8.9100140  10.0772200  64.5622510   9.6392050   9.0784620  65.4355440
  10.7499600   7.7597460  50.6428300   9.9192560   7.8274110  51.1135530
  10.9271430   8.6501580  50.3395160  10.2056060   4.5044940  53.1462500
  10.9674970   5.0741590  53.2522190  10.2210430   3.9372140  53.9170810
  11.2116030   5.3595040  57.9904430  11.5824860   4.5762360  57.5840400
  11.8517960   6.0484140  57.8121730   8.1949790   6.7431620  63.4034750
   7.3809630   7.1728780  63.6660540   8.6023990   7.3550030  62.7903800
  10.2575230   4.7979310  50.3035020  10.5324070   5.7058190  50.1754240
  10.0685970   4.7341840  51.2397010  10.1540570   2.7348300  55.2964450
   9.7784170   1.9676230  54.8645740   9.4243690   3.1171000  55.7839380
   9.5440190   1.8819820  64.9303970   9.3126280   1.6532570  64.0301920
   9.8044740   2.8019370  64.8848860   8.2525840  11.4950220  56.9303020
   8.8484910  11.1734790  56.2537440   8.5103990  11.0222040  57.7216290
  11.1198600  11.5022100  63.4814010  10.6256880  11.8990970  62.7641140
  10.5111890  10.8771310  63.8751290   8.8038050  12.1445520  60.7600750
   8.3441020  12.8961330  60.3858770   8.1750510  11.4251990  60.7015550
   1.9729270  11.3442250  60.7617860   2.2607080  11.0896550  59.8850870
   2.4852490  10.7919610  61.3523430   2.0401630  12.2658350  68.1286060
   2.9668940  12.0302620  68.1722020   2.0252060  13.0930350  67.6472090
  10.2746690  11.8083920  55.1260310  10.4498880  11.1221660  54.4821230
   9.5768260  12.3330970  54.7336980   8.6079190  11.4928210  67.9527100
   9.4004510  10.9977440  67.7453060   8.9012340  12.1718350  68.5602710
   2.8656890   4.1428170  40.7152420   2.0898990   3.6628610  41.0050990
   3.5169820   3.4633820  40.5408580   6.8864320   8.5488360  39.4951550
   6.4245850   7.7775600  39.8238720   7.6989870   8.5754430  40.0004000
   3.1127630  10.8346370  39.1155540   2.4939070  11.2903870  38.5449980
   3.9679410  10.9897830  38.7145240   2.3065880   6.8185360  40.7222580
   2.2374160   5.8775300  40.5611710   3.0685740   6.9086770  41.2945150
   3.9790980   5.7185610  36.5087450   3.3608250   6.1835060  35.9450170
   4.4914230   6.4113090  36.9256960   8.9719430   8.6781690  42.9174870
   8.2882950   9.3480800  42.9091540   9.5113720   8.8762340  42.1519730
   6.5078170  10.5225820  41.6320050   6.5205330  10.1188110  40.7642310
   5.9553390  11.2973110  41.5281480   7.8023590   7.2442040  36.7210220
   7.6919920   6.3016370  36.8459640   7.7991840   7.6057680  37.6072980
   5.9063610   5.4255660  42.9602660   6.3232400   5.2115770  42.1256120
   6.6303430   5.6828450  43.5311280   3.3443870   2.8707360  36.0772710
   2.4173150   2.8044740  36.3061180   3.4968690   3.8087490  35.9627950
   9.8525710   3.8242880  43.0518900   9.0244340   3.8935970  42.5769030
  10.4476190   4.4097190  42.5834730   7.3741160   4.4327660  36.5807960
   6.7553580   4.0947210  35.9334260   7.3565610   3.7887420  37.2887150
   7.5067820  10.6571530  44.6854750   7.0298380  11.4643720  44.4927360
   6.8229610  10.0049860  44.8380960   5.5505860   3.6714470  33.5880710
   5.9899140   2.8336900  33.4418530   6.2634280   4.3043870  33.6744850
   3.6601240   8.6110540  37.5561950   4.0997150   9.3534870  37.1417340
   3.5988130   8.8537110  38.4800910  11.0867030  10.4183470  49.7546140
  11.5626750  10.8966360  50.4335220  11.7074190  10.3500960  49.0291640
  10.4900280   7.6096320  46.9146150  10.6163340   7.3708200  45.9963330
  10.5321660   6.7780860  47.3868230   4.3517020  11.3124320  45.4840960
   4.8661690  11.2232330  46.2863390   3.5086100  11.6584020  45.7768870
   6.3271420  11.5979660  34.9124960   6.1672560  11.3082600  35.8106790
   6.1618130  10.8219790  34.3770190   6.0297550   9.1067220  33.4722960
   5.3362710   9.1044510  32.8125240   6.7720410   8.6826540  33.0417130
   5.5947480  10.7329930  37.5471450   6.0504430   9.9519310  37.8610070
   5.9340000  11.4436750  38.0912630   8.1455290   4.9709350  41.0544070
   8.8654410   5.4664640  40.6640180   7.9437110   4.2927240  40.4097940
   3.5274090   5.0418410  46.9413070   3.4611400   4.1214080  46.6870660
   2.8979230   5.1393850  47.6557710   2.3174210   6.9090650  34.1723790
   2.6589910   7.6532880  33.6767110   1.4886920   7.2221770  34.5348620
   3.4590820   7.8638980  46.6916870   3.4735360   6.9319940  46.4735780
   2.7515920   7.9498740  47.3306640   8.5927890   2.0478800  32.9615480
   8.5091610   2.4793020  32.1111920   9.3122080   2.5077150  33.3942300
   9.6702030   4.5046320  46.0385450   8.9450220   5.0975100  45.8414840
  10.1977490   4.4969860  45.2398820   9.6215140   8.9021060  35.6897610
   8.9791300   8.2476680  35.9641330   9.2345800   9.3076150  34.9138280
   5.2001620   6.2306490  39.5369300   5.5525440   5.6334620  38.8770670
   4.3163950   5.9050720  39.7077550   2.8924720   9.5056550  43.7857370
   3.5366940   9.7115930  44.4630790   3.2554160   8.7444950  43.3328220
   4.1656800   7.5088900  42.5034820   4.8079030   6.8082060  42.6166990
   4.6906150   8.2887340  42.3231710   8.0112520   7.7937520  32.2273960
   7.7850100   7.0767960  32.8198600   7.6208720   7.5449960  31.3895710
   5.9394420   8.3083800  45.7070880   6.2750660   8.8950490  46.3848800
   5.0194760   8.1776510  45.9368670   7.5928770   5.7109460  33.8888120
   7.3050470   6.1722150  34.6766000   8.3880940   5.2507230  34.1572340
   1.7683000   8.3575130  48.8758940   1.4479870   7.6384370  49.4204630
   1.0941360   9.0330200  48.9495000   2.7956770   9.2663820  32.4817280
   2.8968750   9.0627810  31.5519260   1.8958510   9.0122100  32.6865060
   7.4427460   2.7042020  38.7523460   6.5017600   2.7192250  38.9271150
   7.7571530   1.9177980  39.1983760   9.4453040   9.8750870  40.4277720
   9.5700460  10.6982040  40.9001530  10.3118600   9.6641600  40.0801870
   4.7593480   7.2608020  49.2355840   4.1531640   7.2839620  48.4951590
   4.4547590   6.5291060  49.7723090   6.1893850  10.9888310  47.8465250
   7.1415600  10.9046330  47.7965490   6.0422070  11.6530020  48.5199040
   9.0803050  10.3682520  33.3457160   8.7944560   9.9547660  32.5311340
   8.8822600  11.2970230  33.2257680   3.7853010   5.4235830  32.3904760
   3.2363110   5.8705130  33.0347500   4.4072270   4.9185080  32.9142430
   7.8387950   6.7777930  48.3227020   8.5797420   7.1153690  47.8194480
   7.0760630   6.9469990  47.7696790   1.9655770   3.4064360  31.5347160
   2.4861430   2.6913380  31.1688310   2.6124170   4.0450230  31.8347670
   6.5133610   4.8292760  46.8582230   6.9274630   4.9837840  47.7072650
   5.5784610   4.9547980  47.0208010   3.6112740   2.5129420  46.2116000
   3.7308950   1.9170560  46.9510840   4.4706740   2.5499110  45.7917300
   5.9500640   3.0666610  44.7878510   5.4235860   3.5909230  44.1843650
   6.2931980   3.6994000  45.4188240   1.9818470  12.3217460  46.2022540
   1.9077170  13.2252600  46.5094910   1.0797310  12.0029360  46.1744610
   2.5303800  11.4875970  33.8248900   3.4254590  11.8260940  33.8467660
   2.5621430  10.7655380  33.1973180   9.5098150  10.0179640  46.5315100
   8.9100140  10.0772200  45.7879020   9.6392050   9.0784620  46.6611950
  10.7499600   7.7597460  31.8684810   9.9192560   7.8274110  32.3392040
  10.9271430   8.6501580  31.5651670  10.2056060   4.5044940  34.3719010
  10.9674970   5.0741590  34.4778700  10.2210430   3.9372140  35.1427320
  11.2116030   5.3595040  39.2160940  11.5824860   4.5762360  38.8096910
  11.8517960   6.0484140  39.0378240   8.1949790   6.7431620  44.6291260
   7.3809630   7.1728780  44.8917050   8.6023990   7.3550030  44.0160310
  10.2575230   4.7979310  31.5291530  10.5324070   5.7058190  31.4010750
  10.0685970   4.7341840  32.4653520  10.1540570   2.7348300  36.5220960
   9.7784170   1.9676230  36.0902250   9.4243690   3.1171000  37.0095890
   9.5440190   1.8819820  46.1560480   9.3126280   1.6532570  45.2558430
   9.8044740   2.8019370  46.1105370   8.2525840  11.4950220  38.1559530
   8.8484910  11.1734790  37.4793950   8.5103990  11.0222040  38.9472800
  11.1198600  11.5022100  44.7070520  10.6256880  11.8990970  43.9897650
  10.5111890  10.8771310  45.1007800   8.8038050  12.1445520  41.9857260
   8.3441020  12.8961330  41.6115280   8.1750510  11.4251990  41.9272060
   1.9729270  11.3442250  41.9874370   2.2607080  11.0896550  41.1107380
   2.4852490  10.7919610  42.5779940   2.0401630  12.2658350  49.3542570
   2.9668940  12.0302620  49.3978530   2.0252060  13.0930350  48.8728600
  10.2746690  11.8083920  36.3516820  10.4498880  11.1221660  35.7077740
   9.5768260  12.3330970  35.9593490   8.6079190  11.4928210  49.1783610
   9.4004510  10.9977440  48.9709570   8.9012340  12.1718350  49.7859220
   2.8656890   4.1428170  21.9408930   2.0898990   3.6628610  22.2307500
   3.5169820   3.4633820  21.7665090   6.8864320   8.5488360  20.7208060
   6.4245850   7.7775600  21.0495230   7.6989870   8.5754430  21.2260510
   3.1127630  10.8346370  20.3412050   2.4939070  11.2903870  19.7706490
   3.9679410  10.9897830  19.9401750   2.3065880   6.8185360  21.9479090
   2.2374160   5.8775300  21.7868220   3.0685740   6.9086770  22.5201660
   3.9790980   5.7185610  17.7343960   3.3608250   6.1835060  17.1706680
   4.4914230   6.4113090  18.1513470   8.9719430   8.6781690  24.1431380
   8.2882950   9.3480800  24.1348050   9.5113720   8.8762340  23.3776240
   6.5078170  10.5225820  22.8576560   6.5205330  10.1188110  21.9898820
   5.9553390  11.2973110  22.7537990   7.8023590   7.2442040  17.9466730
   7.6919920   6.3016370  18.0716150   7.7991840   7.6057680  18.8329490
   5.9063610   5.4255660  24.1859170   6.3232400   5.2115770  23.3512630
   6.6303430   5.6828450  24.7567790   3.3443870   2.8707360  17.3029220
   2.4173150   2.8044740  17.5317690   3.4968690   3.8087490  17.1884460
   9.8525710   3.8242880  24.2775410   9.0244340   3.8935970  23.8025540
  10.4476190   4.4097190  23.8091240   7.3741160   4.4327660  17.8064470
   6.7553580   4.0947210  17.1590770   7.3565610   3.7887420  18.5143660
   7.5067820  10.6571530  25.9111260   7.0298380  11.4643720  25.7183870
   6.8229610  10.0049860  26.0637470   5.5505860   3.6714470  14.8137220
   5.9899140   2.8336900  14.6675040   6.2634280   4.3043870  14.9001360
   3.6601240   8.6110540  18.7818460   4.0997150   9.3534870  18.3673850
   3.5988130   8.8537110  19.7057420  11.0867030  10.4183470  30.9802650
  11.5626750  10.8966360  31.6591730  11.7074190  10.3500960  30.2548150
  10.4900280   7.6096320  28.1402660  10.6163340   7.3708200  27.2219840
  10.5321660   6.7780860  28.6124740   4.3517020  11.3124320  26.7097470
   4.8661690  11.2232330  27.5119900   3.5086100  11.6584020  27.0025380
   6.3271420  11.5979660  16.1381470   6.1672560  11.3082600  17.0363300
   6.1618130  10.8219790  15.6026700   6.0297550   9.1067220  14.6979470
   5.3362710   9.1044510  14.0381750   6.7720410   8.6826540  14.2673640
   5.5947480  10.7329930  18.7727960   6.0504430   9.9519310  19.0866580
   5.9340000  11.4436750  19.3169140   8.1455290   4.9709350  22.2800580
   8.8654410   5.4664640  21.8896690   7.9437110   4.2927240  21.6354450
   3.5274090   5.0418410  28.1669580   3.4611400   4.1214080  27.9127170
   2.8979230   5.1393850  28.8814220   2.3174210   6.9090650  15.3980300
   2.6589910   7.6532880  14.9023620   1.4886920   7.2221770  15.7605130
   3.4590820   7.8638980  27.9173380   3.4735360   6.9319940  27.6992290
   2.7515920   7.9498740  28.5563150   8.5927890   2.0478800  14.1871990
   8.5091610   2.4793020  13.3368430   9.3122080   2.5077150  14.6198810
   9.6702030   4.5046320  27.2641960   8.9450220   5.0975100  27.0671350
  10.1977490   4.4969860  26.4655330   9.6215140   8.9021060  16.9154120
   8.9791300   8.2476680  17.1897840   9.2345800   9.3076150  16.1394790
   5.2001620   6.2306490  20.7625810   5.5525440   5.6334620  20.1027180
   4.3163950   5.9050720  20.9334060   2.8924720   9.5056550  25.0113880
   3.5366940   9.7115930  25.6887300   3.2554160   8.7444950  24.5584730
   4.1656800   7.5088900  23.7291330   4.8079030   6.8082060  23.8423500
   4.6906150   8.2887340  23.5488220   8.0112520   7.7937520  13.4530470
   7.7850100   7.0767960  14.0455110   7.6208720   7.5449960  12.6152220
   5.9394420   8.3083800  26.9327390   6.2750660   8.8950490  27.6105310
   5.0194760   8.1776510  27.1625180   7.5928770   5.7109460  15.1144630
   7.3050470   6.1722150  15.9022510   8.3880940   5.2507230  15.3828850
   1.7683000   8.3575130  30.1015450   1.4479870   7.6384370  30.6461140
   1.0941360   9.0330200  30.1751510   2.7956770   9.2663820  13.7073790
   2.8968750   9.0627810  12.7775770   1.8958510   9.0122100  13.9121570
   7.4427460   2.7042020  19.9779970   6.5017600   2.7192250  20.1527660
   7.7571530   1.9177980  20.4240270   9.4453040   9.8750870  21.6534230
   9.5700460  10.6982040  22.1258040  10.3118600   9.6641600  21.3058380
   4.7593480   7.2608020  30.4612350   4.1531640   7.2839620  29.7208100
   4.4547590   6.5291060  30.9979600   6.1893850  10.9888310  29.0721760
   7.1415600  10.9046330  29.0222000   6.0422070  11.6530020  29.7455550
   9.0803050  10.3682520  14.5713670   8.7944560   9.9547660  13.7567850
   8.8822600  11.2970230  14.4514190   3.7853010   5.4235830  13.6161270
   3.2363110   5.8705130  14.2604010   4.4072270   4.9185080  14.1398940
   7.8387950   6.7777930  29.5483530   8.5797420   7.1153690  29.0450990
   7.0760630   6.9469990  28.9953300   1.9655770   3.4064360  12.7603670
   2.4861430   2.6913380  12.3944820   2.6124170   4.0450230  13.0604180
   6.5133610   4.8292760  28.0838740   6.9274630   4.9837840  28.9329160
   5.5784610   4.9547980  28.2464520   3.6112740   2.5129420  27.4372510
   3.7308950   1.9170560  28.1767350   4.4706740   2.5499110  27.0173810
   5.9500640   3.0666610  26.0135020   5.4235860   3.5909230  25.4100160
   6.2931980   3.6994000  26.6444750   1.9818470  12.3217460  27.4279050
   1.9077170  13.2252600  27.7351420   1.0797310  12.0029360  27.4001120
   2.5303800  11.4875970  15.0505410   3.4254590  11.8260940  15.0724170
   2.5621430  10.7655380  14.4229690   9.5098150  10.0179640  27.7571610
   8.9100140  10.0772200  27.0135530   9.6392050   9.0784620  27.8868460
  10.7499600   7.7597460  13.0941320   9.9192560   7.8274110  13.5648550
  10.9271430   8.6501580  12.7908180  10.2056060   4.5044940  15.5975520
  10.9674970   5.0741590  15.7035210  10.2210430   3.9372140  16.3683830
  11.2116030   5.3595040  20.4417450  11.5824860   4.5762360  20.0353420
  11.8517960   6.0484140  20.2634750   8.1949790   6.7431620  25.8547770
   7.3809630   7.1728780  26.1173560   8.6023990   7.3550030  25.2416820
  10.2575230   4.7979310  12.7548040  10.5324070   5.7058190  12.6267260
  10.0685970   4.7341840  13.6910030  10.1540570   2.7348300  17.7477470
   9.7784170   1.9676230  17.3158760   9.4243690   3.1171000  18.2352400
   9.5440190   1.8819820  27.3816990   9.3126280   1.6532570  26.4814940
   9.8044740   2.8019370  27.3361880   8.2525840  11.4950220  19.3816040
   8.8484910  11.1734790  18.7050460   8.5103990  11.0222040  20.1729310
  11.1198600  11.5022100  25.9327030  10.6256880  11.8990970  25.2154160
  10.5111890  10.8771310  26.3264310   8.8038050  12.1445520  23.2113770
   8.3441020  12.8961330  22.8371790   8.1750510  11.4251990  23.1528570
   1.9729270  11.3442250  23.2130880   2.2607080  11.0896550  22.3363890
   2.4852490  10.7919610  23.8036450   2.0401630  12.2658350  30.5799080
   2.9668940  12.0302620  30.6235040   2.0252060  13.0930350  30.0985110
  10.2746690  11.8083920  17.5773330  10.4498880  11.1221660  16.9334250
   9.5768260  12.3330970  17.1850000   8.6079190  11.4928210  30.4040120
   9.4004510  10.9977440  30.1966080   8.9012340  12.1718350  31.0115730
   2.8656890   4.1428170   3.1665440   2.0898990   3.6628610   3.4564010
   3.5169820   3.4633820   2.9921600   6.8864320   8.5488360   1.9464570
   6.4245850   7.7775600   2.2751740   7.6989870   8.5754430   2.4517020
   2.3065880   6.8185360   3.1735600   2.2374160   5.8775300   3.0124730
   3.0685740   6.9086770   3.7458170   8.9719430   8.6781690   5.3687890
   8.2882950   9.3480800   5.3604560   9.5113720   8.8762340   4.6032750
   6.5078170  10.5225820   4.0833070   6.5205330  10.1188110   3.2155330
   5.9553390  11.2973110   3.9794500   5.9063610   5.4255660   5.4115680
   6.3232400   5.2115770   4.5769140   6.6303430   5.6828450   5.9824300
   9.8525710   3.8242880   5.5031920   9.0244340   3.8935970   5.0282050
  10.4476190   4.4097190   5.0347750   7.5067820  10.6571530   7.1367770
   7.0298380  11.4643720   6.9440380   6.8229610  10.0049860   7.2893980
  11.0867030  10.4183470  12.2059160  11.5626750  10.8966360  12.8848240
  11.7074190  10.3500960  11.4804660  10.4900280   7.6096320   9.3659170
  10.6163340   7.3708200   8.4476350  10.5321660   6.7780860   9.8381250
   4.3517020  11.3124320   7.9353980   4.8661690  11.2232330   8.7376410
   3.5086100  11.6584020   8.2281890   8.1455290   4.9709350   3.5057090
   8.8654410   5.4664640   3.1153200   7.9437110   4.2927240   2.8610960
   3.5274090   5.0418410   9.3926090   3.4611400   4.1214080   9.1383680
   2.8979230   5.1393850  10.1070730   3.4590820   7.8638980   9.1429890
   3.4735360   6.9319940   8.9248800   2.7515920   7.9498740   9.7819660
   9.6702030   4.5046320   8.4898470   8.9450220   5.0975100   8.2927860
  10.1977490   4.4969860   7.6911840   2.8924720   9.5056550   6.2370390
   3.5366940   9.7115930   6.9143810   3.2554160   8.7444950   5.7841240
   4.1656800   7.5088900   4.9547840   4.8079030   6.8082060   5.0680010
   4.6906150   8.2887340   4.7744730   5.9394420   8.3083800   8.1583900
   6.2750660   8.8950490   8.8361820   5.0194760   8.1776510   8.3881690
   1.7683000   8.3575130  11.3271960   1.4479870   7.6384370  11.8717650
   1.0941360   9.0330200  11.4008020   9.4453040   9.8750870   2.8790740
   9.5700460  10.6982040   3.3514550  10.3118600   9.6641600   2.5314890
   4.7593480   7.2608020  11.6868860   4.1531640   7.2839620  10.9464610
   4.4547590   6.5291060  12.2236110   6.1893850  10.9888310  10.2978270
   7.1415600  10.9046330  10.2478510   6.0422070  11.6530020  10.9712060
   7.8387950   6.7777930  10.7740040   8.5797420   7.1153690  10.2707500
   7.0760630   6.9469990  10.2209810   6.5133610   4.8292760   9.3095250
   6.9274630   4.9837840  10.1585670   5.5784610   4.9547980   9.4721030
   3.6112740   2.5129420   8.6629020   3.7308950   1.9170560   9.4023860
   4.4706740   2.5499110   8.2430320   5.9500640   3.0666610   7.2391530
   5.4235860   3.5909230   6.6356670   6.2931980   3.6994000   7.8701260
   1.9818470  12.3217460   8.6535560   1.9077170  13.2252600   8.9607930
   1.0797310  12.0029360   8.6257630   9.5098150  10.0179640   8.9828120
   8.9100140  10.0772200   8.2392040   9.6392050   9.0784620   9.1124970
   8.1949790   6.7431620   7.0804280   7.3809630   7.1728780   7.3430070
   8.6023990   7.3550030   6.4673330   9.5440190   1.8819820   8.6073500
   9.3126280   1.6532570   7.7071450   9.8044740   2.8019370   8.5618390
  11.1198600  11.5022100   7.1583540  10.6256880  11.8990970   6.4410670
  10.5111890  10.8771310   7.5520820   8.8038050  12.1445520   4.4370280
   8.3441020  12.8961330   4.0628300   8.1750510  11.4251990   4.3785080
   1.9729270  11.3442250   4.4387390   2.2607080  11.0896550   3.5620400
   2.4852490  10.7919610   5.0292960   2.0401630  12.2658350  11.8055590
   2.9668940  12.0302620  11.8491550   2.0252060  13.0930350  11.3241620
   8.6079190  11.4928210  11.6296630   9.4004510  10.9977440  11.4222590
   8.9012340  12.1718350  12.2372240
 154.7587690 156.4178900 156.2030140  90.0000000  90.0000000  90.0000000
